<event>
 6    0  0.6338511E+002  0.1578874E+03  0.7546771E-02  0.1191103E+00
          4   -1    0    0  502    0 -0.00000000000E+00  0.00000000000E+00  0.39751858481E+03  0.39751858481E+03  0.00000000000E+00 0.  1.
         21   -1    0    0  505  502  0.00000000000E+00 -0.00000000000E+00 -0.71842790546E+03  0.71842790546E+03  0.00000000000E+00 0. -1.
         21    1    1    2  503  501 -0.10512777412E+03 -0.45683611840E+02  0.16329295567E+03  0.19950797140E+03  0.00000000000E+00 0.  1.
         21    1    1    2  504  503  0.40461879995E+02  0.38804701331E+02 -0.42174923901E+03  0.42545903349E+03  0.00000000000E+00 0. -1.
         21    1    1    2  505  504  0.76579024017E+02  0.45582505400E+02 -0.26750902505E+03  0.28196310078E+03  0.00000000000E+00 0. -1.
          4    1    1    2  501    0 -0.11913129895E+02 -0.38703594890E+02  0.20505598774E+03  0.20901638459E+03  0.00000000000E+00 0.  1.
<scales pt_clust_3="142.75538" pt_clust_4="53.67443" pt_clust_5="53.67443" pt_clust_6="40.49557"></scales>
<clustering>
<clus scale="   40.496">  1  6  2 -1</clus>
<clus scale="   53.674">  4  5 -1 -1</clus>
<clus scale="  142.755">  1  3  2 -1</clus>
<clus scale="  157.887">  2  3  1 -1</clus>
</clustering>
</event>
<event>
 6    0  0.6338511E+002  0.8573344E+02  0.7546771E-02  0.1313526E+00
         21   -1    0    0  503  502  0.00000000000E+00  0.00000000000E+00  0.26675222206E+03  0.26675222206E+03  0.00000000000E+00 0. -1.
          1   -1    0    0  504    0 -0.00000000000E+00 -0.00000000000E+00 -0.46114652043E+03  0.46114652043E+03  0.00000000000E+00 0.  1.
         21    1    1    2  503  501  0.34855295633E+02 -0.92060739968E+02  0.19052734519E+03  0.21445451906E+03  0.00000000000E+00 0. -1.
         21    1    1    2  504  505 -0.86987257521E+02  0.13246302738E+02 -0.59927142351E+02  0.10645895875E+03  0.00000000000E+00 0.  1.
         21    1    1    2  505  502  0.21998145422E+02  0.23582720289E+02  0.31440618206E+02  0.45039711050E+02  0.00000000000E+00 0.  1.
          1    1    1    2  501    0  0.30133816466E+02  0.55231716940E+02 -0.35643511942E+03  0.36194555365E+03  0.00000000000E+00 0.  1.
<scales pt_clust_3="14000.00000" pt_clust_4="85.73344" pt_clust_5="32.25001" pt_clust_6="63.29404"></scales>
<clustering>
<clus scale="   32.250">  1  5  2 -1</clus>
<clus scale="   63.294">  2  6  1 -1</clus>
<clus scale="   85.733">  2  4  1 -1</clus>
<clus scale="   32.250">  1  3  2 -1</clus>
</clustering>
</event>
<event>
 6    0  0.6338511E+002  0.7204665E+02  0.7546771E-02  0.1353268E+00
         21   -1    0    0  503  502  0.00000000000E+00  0.00000000000E+00  0.59545653932E+03  0.59545653932E+03  0.00000000000E+00 0.  1.
          1   -1    0    0  505    0 -0.00000000000E+00 -0.00000000000E+00 -0.14333265394E+03  0.14333265394E+03  0.00000000000E+00 0.  1.
         21    1    1    2  503  501 -0.84014948939E+02  0.64146327087E+02  0.36610428218E+03  0.38105853665E+03  0.00000000000E+00 0.  1.
         21    1    1    2  504  502  0.18348731426E+02 -0.47978990853E+02  0.17142916486E+03  0.17895982251E+03  0.00000000000E+00 0.  1.
         21    1    1    2  505  504  0.57003123602E+02 -0.61194402589E+02 -0.20775074313E+01  0.83656601926E+02  0.00000000000E+00 0.  1.
          1    1    1    2  501    0  0.86630939116E+01  0.45027066355E+02 -0.83332054230E+02  0.95114232179E+02  0.00000000000E+00 0.  1.
<scales pt_clust_3="14000.00000" pt_clust_4="48.68570" pt_clust_5="72.04665" pt_clust_6="45.85287"></scales>
<clustering>
<clus scale="   45.853">  2  6  1 -1</clus>
<clus scale="   48.686">  1  4  2 -1</clus>
<clus scale="   72.047">  2  5  1 -1</clus>
<clus scale="   48.686">  1  3  2 -1</clus>
</clustering>
</event>
<event>
 6    0  0.6338511E+002  0.7927818E+02  0.7546771E-02  0.1331112E+00
          2   -1    0    0  504    0 -0.00000000000E+00  0.00000000000E+00  0.19041786406E+04  0.19041786406E+04  0.00000000000E+00 0. -1.
         21   -1    0    0  505  502  0.00000000000E+00 -0.00000000000E+00 -0.20816949375E+03  0.20816949375E+03  0.00000000000E+00 0. -1.
         21    1    1    2  503  502  0.68855834388E+02  0.38805879089E+02 -0.18380400347E+03  0.20007731974E+03  0.00000000000E+00 0. -1.
         21    1    1    2  504  503 -0.85547859526E+02 -0.38982638381E+02  0.48335381592E+03  0.49241140698E+03  0.00000000000E+00 0. -1.
         21    1    1    2  505  501  0.36921230034E+02  0.53061027392E+02  0.83108072898E+02  0.10528818374E+03  0.00000000000E+00 0.  1.
          2    1    1    2  501    0 -0.20229204897E+02 -0.52884268100E+02  0.13133512615E+04  0.13145712238E+04  0.00000000000E+00 0. -1.
<scales pt_clust_3="79.27818" pt_clust_4="14000.00000" pt_clust_5="55.91250" pt_clust_6="56.62126"></scales>
<clustering>
<clus scale="   56.621">  1  6  2 -1</clus>
<clus scale="   55.912">  1  5  2 -1</clus>
<clus scale="   79.278">  2  3  1 -1</clus>
<clus scale="   79.278">  2  3  1 -1</clus>
</clustering>
</event>
<event>
 6    0  0.6338511E+002  0.7926328E+02  0.7546771E-02  0.1331155E+00
         21   -1    0    0  503  502  0.00000000000E+00  0.00000000000E+00  0.46006502760E+02  0.46006502760E+02  0.00000000000E+00 0. -1.
          1   -1    0    0  504    0 -0.00000000000E+00 -0.00000000000E+00 -0.93168829321E+03  0.93168829321E+03  0.00000000000E+00 0. -1.
         21    1    1    2  503  505 -0.76611256226E+02 -0.57211555676E+01 -0.13938209892E+02  0.78078741643E+02  0.00000000000E+00 0. -1.
         21    1    1    2  504  502  0.10129888253E+03 -0.64531049470E+01 -0.39735053412E+03  0.41011041577E+03  0.00000000000E+00 0. -1.
         21    1    1    2  505  501 -0.13317964353E+02  0.42765131862E+02 -0.65722618906E+02  0.79534189588E+02  0.00000000000E+00 0. -1.
          1    1    1    2  501    0 -0.11369661951E+02 -0.30590871347E+02 -0.40867042753E+03  0.40997144896E+03  0.00000000000E+00 0. -1.
<scales pt_clust_3="79.26328" pt_clust_4="14000.00000" pt_clust_5="41.29331" pt_clust_6="32.63542"></scales>
<clustering>
<clus scale="   32.635">  2  6  1 -1</clus>
<clus scale="   41.293">  2  5  1 -1</clus>
<clus scale="   79.263">  1  3  2 -1</clus>
<clus scale="   79.263">  1  3  2 -1</clus>
</clustering>
</event>
<event>
 6    0  0.6338511E+002  0.1920180E+03  0.7546771E-02  0.1156654E+00
          2   -1    0    0  504    0 -0.00000000000E+00  0.00000000000E+00  0.29190868267E+04  0.29190868267E+04  0.00000000000E+00 0. -1.
         21   -1    0    0  503  502  0.00000000000E+00 -0.00000000000E+00 -0.10125347039E+03  0.10125347039E+03  0.00000000000E+00 0.  1.
         21    1    1    2  503  501  0.18189516649E+03  0.12677592159E+02  0.18507604098E+02  0.18327330505E+03  0.00000000000E+00 0.  1.
         21    1    1    2  504  505 -0.29147121885E+02 -0.36629565938E+02  0.55181629021E+02  0.72362227691E+02  0.00000000000E+00 0.  1.
         21    1    1    2  505  502  0.34638060885E+02 -0.21269110878E+02  0.53624910724E+02  0.67288939578E+02  0.00000000000E+00 0. -1.
          2    1    1    2  501    0 -0.18738610549E+03  0.45221084656E+02  0.26905192125E+04  0.26974158248E+04  0.00000000000E+00 0. -1.
<scales pt_clust_3="14000.00000" pt_clust_4="46.50817" pt_clust_5="40.64690" pt_clust_6="192.01798"></scales>
<clustering>
<clus scale="   40.647">  2  5  1 -1</clus>
<clus scale="   46.508">  2  4  1 -1</clus>
<clus scale="  192.018">  1  6  2 -1</clus>
<clus scale="   40.647">  2  3  1 -1</clus>
</clustering>
</event>
<event>
 6    0  0.6338511E+002  0.1303530E+03  0.7546771E-02  0.1226933E+00
          2   -1    0    0  504    0 -0.00000000000E+00  0.00000000000E+00  0.98324501061E+03  0.98324501061E+03  0.00000000000E+00 0.  1.
         21   -1    0    0  503  502  0.00000000000E+00 -0.00000000000E+00 -0.13435904857E+03  0.13435904857E+03  0.00000000000E+00 0.  1.
         21    1    1    2  503  501  0.75594145635E+02 -0.22284715000E+02  0.78008429191E+02  0.11088912662E+03  0.00000000000E+00 0.  1.
         21    1    1    2  504  505 -0.15040196359E+03  0.20577602735E+02  0.93893143837E+02  0.17849400787E+03  0.00000000000E+00 0.  1.
         21    1    1    2  505  502  0.11947304941E+03  0.40908429267E+02 -0.20736359266E+02  0.12797384778E+03  0.00000000000E+00 0.  1.
          2    1    1    2  501    0 -0.44665231451E+02 -0.39201317001E+02  0.69772074828E+03  0.70024707692E+03  0.00000000000E+00 0.  1.
<scales pt_clust_3="70.26938" pt_clust_4="14000.00000" pt_clust_5="130.35300" pt_clust_6="59.42833"></scales>
<clustering>
<clus scale="   59.428">  1  6  2 -1</clus>
<clus scale="   70.269">  1  3  2 -1</clus>
<clus scale="  130.353">  2  5  1 -1</clus>
<clus scale="  130.353">  2  3  1 -1</clus>
</clustering>
</event>
<event>
 6    0  0.6338511E+002  0.9373584E+02  0.7546771E-02  0.1294049E+00
          2   -1    0    0  505    0 -0.00000000000E+00  0.00000000000E+00  0.20775692819E+04  0.20775692819E+04  0.00000000000E+00 0. -1.
         21   -1    0    0  503  502  0.00000000000E+00 -0.00000000000E+00 -0.75269688300E+02  0.75269688300E+02  0.00000000000E+00 0.  1.
         21    1    1    2  503  504 -0.57733661975E+02  0.10699509984E+03  0.84878116623E+02  0.14827481848E+03  0.00000000000E+00 0.  1.
         21    1    1    2  504  501  0.21287363613E+02 -0.11036136153E+03  0.39290278438E+03  0.40866291726E+03  0.00000000000E+00 0.  1.
         21    1    1    2  505  502  0.34324261743E+02 -0.29262153520E+02 -0.21198824222E+02  0.49837924527E+02  0.00000000000E+00 0.  1.
          2    1    1    2  501    0  0.21220366185E+01  0.32628415210E+02  0.15457175169E+04  0.15460633100E+04  0.00000000000E+00 0. -1.
<scales pt_clust_3="14000.00000" pt_clust_4="93.73584" pt_clust_5="44.58361" pt_clust_6="32.69735"></scales>
<clustering>
<clus scale="   32.697">  1  6  2 -1</clus>
<clus scale="   44.584">  2  5  1 -1</clus>
<clus scale="   93.736">  1  4  2 -1</clus>
<clus scale="   44.584">  2  3  1 -1</clus>
</clustering>
</event>
<event>
 6    0  0.6338511E+002  0.2184073E+03  0.7546771E-02  0.1135076E+00
         21   -1    0    0  505  502  0.00000000000E+00  0.00000000000E+00  0.30421588417E+03  0.30421588417E+03  0.00000000000E+00 0.  1.
          1   -1    0    0  502    0 -0.00000000000E+00 -0.00000000000E+00 -0.69126352306E+03  0.69126352306E+03  0.00000000000E+00 0. -1.
         21    1    1    2  503  504  0.23847116724E+02  0.31236913350E+02  0.45600263088E+02  0.60198120613E+02  0.00000000000E+00 0. -1.
         21    1    1    2  504  501  0.69365820341E+02 -0.19013521439E+03 -0.29803617897E+03  0.36026182251E+03  0.00000000000E+00 0. -1.
         21    1    1    2  505  503 -0.51090248690E+02  0.17232475233E+03  0.18173141198E+03  0.25560191681E+03  0.00000000000E+00 0.  1.
          1    1    1    2  501    0 -0.42122688375E+02 -0.13426451288E+02 -0.31634313498E+03  0.31941754729E+03  0.00000000000E+00 0. -1.
<scales pt_clust_3="35.82665" pt_clust_4="204.52700" pt_clust_5="35.82665" pt_clust_6="44.21075"></scales>
<clustering>
<clus scale="   35.827">  3  5 -1 -1</clus>
<clus scale="   44.211">  2  6  1 -1</clus>
<clus scale="  204.527">  2  4  1 -1</clus>
<clus scale="  218.407">  1  3  2 -1</clus>
</clustering>
</event>
<event>
 6    0  0.6338511E+002  0.6401269E+02  0.7546771E-02  0.1381724E+00
         21   -1    0    0  503  502  0.00000000000E+00  0.00000000000E+00  0.38894316499E+02  0.38894316499E+02  0.00000000000E+00 0. -1.
          2   -1    0    0  504    0 -0.00000000000E+00 -0.00000000000E+00 -0.90814625115E+03  0.90814625115E+03  0.00000000000E+00 0. -1.
         21    1    1    2  503  501 -0.16883820519E+02 -0.58654435782E+02 -0.12872100285E+02  0.62378659796E+02  0.00000000000E+00 0. -1.
         21    1    1    2  504  505  0.68644585525E+02 -0.15454182751E+01 -0.45065268306E+03  0.45585338453E+03  0.00000000000E+00 0. -1.
         21    1    1    2  505  502 -0.21785628097E+02  0.90541796988E+02 -0.23366282478E+03  0.25153676924E+03  0.00000000000E+00 0. -1.
          2    1    1    2  501    0 -0.29975136909E+02 -0.30341942930E+02 -0.17206432652E+03  0.17727175408E+03  0.00000000000E+00 0. -1.
<scales pt_clust_3="64.01269" pt_clust_4="54.07453" pt_clust_5="14000.00000" pt_clust_6="42.65140"></scales>
<clustering>
<clus scale="   42.651">  2  6  1 -1</clus>
<clus scale="   54.075">  2  4  1 -1</clus>
<clus scale="   64.013">  1  3  2 -1</clus>
<clus scale="   64.013">  1  3  2 -1</clus>
</clustering>
</event>
<event>
 6    0  0.6338511E+002  0.1107168E+03  0.7546771E-02  0.1259248E+00
          1   -1    0    0  505    0 -0.00000000000E+00  0.00000000000E+00  0.38085465116E+03  0.38085465116E+03  0.00000000000E+00 0. -1.
         21   -1    0    0  503  502  0.00000000000E+00 -0.00000000000E+00 -0.44567709627E+03  0.44567709627E+03  0.00000000000E+00 0. -1.
         21    1    1    2  503  501  0.15450668353E+02  0.37692527253E+02 -0.24887752597E+03  0.25218935880E+03  0.00000000000E+00 0. -1.
         21    1    1    2  504  502 -0.42885192126E+02 -0.53092588394E+01 -0.12051392239E+02  0.44861609289E+02  0.00000000000E+00 0.  1.
         21    1    1    2  505  504  0.10694064506E+03 -0.10612971434E+03 -0.12170339244E+03  0.19367894455E+03  0.00000000000E+00 0. -1.
          1    1    1    2  501    0 -0.79506121285E+02  0.73746445931E+02  0.31780986553E+03  0.33580183478E+03  0.00000000000E+00 0. -1.
<scales pt_clust_3="40.73634" pt_clust_4="40.63256" pt_clust_5="14000.00000" pt_clust_6="110.71684"></scales>
<clustering>
<clus scale="   40.736">  2  3  1 -1</clus>
<clus scale="   40.633">  2  4  1 -1</clus>
<clus scale="  110.717">  1  6  2 -1</clus>
<clus scale="   40.736">  2  3  1 -1</clus>
</clustering>
</event>
<event>
 6    0  0.6338511E+002  0.2315373E+03  0.7546771E-02  0.1125562E+00
         -4   -1    0    0    0  501 -0.00000000000E+00  0.00000000000E+00  0.21871487919E+03  0.21871487919E+03  0.00000000000E+00 0.  1.
         21   -1    0    0  505  502  0.00000000000E+00 -0.00000000000E+00 -0.77091728494E+03  0.77091728494E+03  0.00000000000E+00 0. -1.
         21    1    1    2  503  504 -0.22876536327E+03  0.32250069441E+02 -0.23960797099E+03  0.33284476588E+03  0.00000000000E+00 0. -1.
         21    1    1    2  504  502  0.18315875689E+02 -0.54621925778E+02 -0.24393598318E+03  0.25064674339E+03  0.00000000000E+00 0. -1.
         21    1    1    2  505  501  0.24304339545E+03  0.27478827689E+02 -0.17111360707E+03  0.29850468098E+03  0.00000000000E+00 0. -1.
         -4    1    1    2    0  503 -0.32593907869E+02 -0.51069713530E+01  0.10245515549E+03  0.10763597388E+03  0.00000000000E+00 0.  1.
<scales pt_clust_3="231.53734" pt_clust_4="57.45606" pt_clust_5="14000.00000" pt_clust_6="32.99157"></scales>
<clustering>
<clus scale="   32.992">  1  6  2 -1</clus>
<clus scale="   57.456">  2  4  1 -1</clus>
<clus scale="  231.537">  2  3  1 -1</clus>
<clus scale="   57.456">  2  3  1 -1</clus>
</clustering>
</event>
<event>
 6    0  0.6338511E+002  0.9131417E+02  0.7546771E-02  0.1299700E+00
         21   -1    0    0  501  502  0.00000000000E+00  0.00000000000E+00  0.55239341772E+02  0.55239341772E+02  0.00000000000E+00 0. -1.
          3   -1    0    0  505    0 -0.00000000000E+00 -0.00000000000E+00 -0.81263905803E+03  0.81263905803E+03  0.00000000000E+00 0. -1.
         21    1    1    2  503  502 -0.34789240046E+02 -0.32973670825E+02  0.39321597036E+01  0.48093825701E+02  0.00000000000E+00 0. -1.
         21    1    1    2  504  503 -0.43937145973E+00 -0.48155235332E+02 -0.46005298007E+02  0.66600354218E+02  0.00000000000E+00 0. -1.
         21    1    1    2  505  504  0.10722280041E+03  0.18699711958E+02 -0.18730059818E+03  0.21662853513E+03  0.00000000000E+00 0. -1.
          3    1    1    2  501    0 -0.71994188900E+02  0.62429194199E+02 -0.52802597977E+03  0.53655568475E+03  0.00000000000E+00 0. -1.
<scales pt_clust_3="47.93281" pt_clust_4="61.10674" pt_clust_5="91.31417" pt_clust_6="14000.00000"></scales>
<clustering>
<clus scale="   47.933">  1  3  2 -1</clus>
<clus scale="   61.107">  1  4  2 -1</clus>
<clus scale="   91.314">  1  5  2 -1</clus>
<clus scale="   47.933">  1  3  2 -1</clus>
</clustering>
</event>
<event>
 6    0  0.6338511E+002  0.1142899E+03  0.7546771E-02  0.1252826E+00
          2   -1    0    0  504    0 -0.00000000000E+00  0.00000000000E+00  0.11275104082E+04  0.11275104082E+04  0.00000000000E+00 0. -1.
         21   -1    0    0  503  502  0.00000000000E+00 -0.00000000000E+00 -0.11800644330E+03  0.11800644330E+03  0.00000000000E+00 0. -1.
         21    1    1    2  503  501  0.67672885050E+02 -0.17139123054E+02 -0.70767065302E+02  0.99404961855E+02  0.00000000000E+00 0. -1.
         21    1    1    2  504  505  0.67766253616E+02  0.96572204027E+02  0.15166253993E+03  0.19214573047E+03  0.00000000000E+00 0. -1.
         21    1    1    2  505  502 -0.49991145094E+02 -0.38035911033E+01  0.61337489317E+02  0.79220385563E+02  0.00000000000E+00 0. -1.
          2    1    1    2  501    0 -0.85447993571E+02 -0.75629489870E+02  0.86727100098E+03  0.87474577363E+03  0.00000000000E+00 0. -1.
<scales pt_clust_3="35.01996" pt_clust_4="114.28994" pt_clust_5="50.13563" pt_clust_6="14000.00000"></scales>
<clustering>
<clus scale="   50.136">  2  5  1 -1</clus>
<clus scale="   35.020">  2  3  1 -1</clus>
<clus scale="  114.290">  2  4  1 -1</clus>
<clus scale="   50.136">  2  3  1 -1</clus>
</clustering>
</event>
<event>
 6    0  0.6338511E+002  0.1501654E+03  0.7546771E-02  0.1200270E+00
          2   -1    0    0  505    0 -0.00000000000E+00  0.00000000000E+00  0.43139111695E+04  0.43139111695E+04  0.00000000000E+00 0.  1.
         21   -1    0    0  504  502  0.00000000000E+00 -0.00000000000E+00 -0.47416805994E+02  0.47416805994E+02  0.00000000000E+00 0. -1.
         21    1    1    2  503  501 -0.12138439858E+03  0.91035222281E+02  0.39415380155E+03  0.42234914844E+03  0.00000000000E+00 0. -1.
         21    1    1    2  504  503  0.15981826713E+03 -0.62162348807E+01  0.17330514933E+03  0.23582874055E+03  0.00000000000E+00 0. -1.
         21    1    1    2  505  502 -0.83754822648E+01 -0.29291796103E+02  0.12871317931E+03  0.13226957530E+03  0.00000000000E+00 0. -1.
          2    1    1    2  501    0 -0.30058386285E+02 -0.55527191297E+02  0.35703222333E+04  0.35708805112E+04  0.00000000000E+00 0.  1.
<scales pt_clust_3="14000.00000" pt_clust_4="150.16536" pt_clust_5="30.46569" pt_clust_6="63.32287"></scales>
<clustering>
<clus scale="   30.466">  2  5  1 -1</clus>
<clus scale="   63.323">  1  6  2 -1</clus>
<clus scale="  150.165">  2  4  1 -1</clus>
<clus scale="   30.466">  2  3  1 -1</clus>
</clustering>
</event>
<event>
 6    0  0.6338511E+002  0.8287311E+02  0.7546771E-02  0.1321090E+00
          1   -1    0    0  504    0 -0.00000000000E+00  0.00000000000E+00  0.47791790386E+03  0.47791790386E+03  0.00000000000E+00 0.  1.
         21   -1    0    0  505  502  0.00000000000E+00 -0.00000000000E+00 -0.26930695835E+04  0.26930695835E+04  0.00000000000E+00 0. -1.
         21    1    1    2  503  502  0.26625761846E+02 -0.21561126808E+02 -0.24811639598E+04  0.24814004935E+04  0.00000000000E+00 0. -1.
         21    1    1    2  504  503 -0.27083305320E+02  0.10988942840E+03 -0.10188196184E+03  0.15227976244E+03  0.00000000000E+00 0.  1.
         21    1    1    2  505  501 -0.26630804746E+02 -0.62234232186E+02 -0.70246846028E+02  0.97554696422E+02  0.00000000000E+00 0.  1.
          1    1    1    2  501    0  0.27088348220E+02 -0.26094069404E+02  0.43814108804E+03  0.43975253506E+03  0.00000000000E+00 0.  1.
<scales pt_clust_3="34.26096" pt_clust_4="14000.00000" pt_clust_5="82.87311" pt_clust_6="37.74208"></scales>
<clustering>
<clus scale="   34.261">  2  3  1 -1</clus>
<clus scale="   37.742">  1  6  2 -1</clus>
<clus scale="   82.873">  2  5  1 -1</clus>
<clus scale="   34.261">  2  3  1 -1</clus>
</clustering>
</event>
<event>
 6    0  0.6338511E+002  0.1210398E+03  0.7546771E-02  0.1241391E+00
         -1   -1    0    0    0  501 -0.00000000000E+00  0.00000000000E+00  0.10052338957E+04  0.10052338957E+04  0.00000000000E+00 0. -1.
         21   -1    0    0  503  502  0.00000000000E+00 -0.00000000000E+00 -0.27215095291E+03  0.27215095291E+03  0.00000000000E+00 0. -1.
         21    1    1    2  503  505 -0.13301211528E+03  0.12796751625E+02 -0.22632260917E+03  0.26282675488E+03  0.00000000000E+00 0. -1.
         21    1    1    2  504  502  0.77036790792E+02 -0.15887027368E+02  0.37081163589E+02  0.86960206228E+02  0.00000000000E+00 0. -1.
         21    1    1    2  505  501  0.28570040895E+02  0.28719156335E+02  0.18797386024E+03  0.19228938949E+03  0.00000000000E+00 0. -1.
         -1    1    1    2    0  504  0.27405283589E+02 -0.25628880593E+02  0.73435052811E+03  0.73530849800E+03  0.00000000000E+00 0. -1.
<scales pt_clust_3="14000.00000" pt_clust_4="121.03983" pt_clust_5="49.02141" pt_clust_6="37.52185"></scales>
<clustering>
<clus scale="   37.522">  1  6  2 -1</clus>
<clus scale="   49.021">  1  5  2 -1</clus>
<clus scale="  121.040">  1  4  2 -1</clus>
<clus scale="  121.040">  2  3  1 -1</clus>
</clustering>
</event>
<event>
 6    0  0.6338511E+002  0.8471597E+02  0.7546771E-02  0.1316177E+00
         21   -1    0    0  505  502  0.00000000000E+00  0.00000000000E+00  0.44657999084E+03  0.44657999084E+03  0.00000000000E+00 0. -1.
          2   -1    0    0  504    0 -0.00000000000E+00 -0.00000000000E+00 -0.29690332676E+04  0.29690332676E+04  0.00000000000E+00 0.  1.
         21    1    1    2  503  501 -0.97889951047E+02 -0.15978452549E+02 -0.46112320959E+03  0.47166976571E+03  0.00000000000E+00 0.  1.
         21    1    1    2  504  502  0.31066450188E+02 -0.14859987476E+02 -0.82184945246E+02  0.89108410266E+02  0.00000000000E+00 0.  1.
         21    1    1    2  505  503  0.45888314206E+02  0.71400957947E+02  0.43351383438E+03  0.44174435908E+03  0.00000000000E+00 0. -1.
          2    1    1    2  501    0  0.20935186654E+02 -0.40562517923E+02 -0.24126589563E+04  0.24130907234E+04  0.00000000000E+00 0.  1.
<scales pt_clust_3="14000.00000" pt_clust_4="34.43753" pt_clust_5="84.71597" pt_clust_6="70.79112"></scales>
<clustering>
<clus scale="   34.438">  2  4  1 -1</clus>
<clus scale="   70.791">  2  6  1 -1</clus>
<clus scale="   84.716">  1  5  2 -1</clus>
<clus scale="   84.716">  1  3  2 -1</clus>
</clustering>
</event>
<event>
 6    0  0.6338511E+002  0.8898385E+02  0.7546771E-02  0.1305331E+00
          2   -1    0    0  504    0 -0.00000000000E+00  0.00000000000E+00  0.37062260481E+04  0.37062260481E+04  0.00000000000E+00 0. -1.
         21   -1    0    0  505  502  0.00000000000E+00 -0.00000000000E+00 -0.57224613476E+02  0.57224613476E+02  0.00000000000E+00 0. -1.
         21    1    1    2  503  502 -0.12544224550E+03  0.41759583371E+02  0.10220487107E+03  0.16710911235E+03  0.00000000000E+00 0. -1.
         21    1    1    2  504  503  0.20687376552E+01 -0.33738655815E+02  0.35029429040E+03  0.35192139245E+03  0.00000000000E+00 0.  1.
         21    1    1    2  505  501  0.38009797752E+02 -0.41412905367E+02  0.10603719312E+02  0.57203254447E+02  0.00000000000E+00 0. -1.
          2    1    1    2  501    0  0.85363710090E+02  0.33391977811E+02  0.31858985539E+04  0.31872169024E+04  0.00000000000E+00 0. -1.
<scales pt_clust_3="88.98385" pt_clust_4="33.80202" pt_clust_5="56.47758" pt_clust_6="14000.00000"></scales>
<clustering>
<clus scale="   33.802">  1  4  2 -1</clus>
<clus scale="   56.478">  2  5  1 -1</clus>
<clus scale="   88.984">  2  3  1 -1</clus>
<clus scale="   56.478">  2  3  1 -1</clus>
</clustering>
</event>
<event>
 6    0  0.6338511E+002  0.1060635E+03  0.7546771E-02  0.1268038E+00
         21   -1    0    0  501  502  0.00000000000E+00  0.00000000000E+00  0.71552999249E+03  0.71552999249E+03  0.00000000000E+00 0.  1.
          1   -1    0    0  505    0 -0.00000000000E+00 -0.00000000000E+00 -0.80657983581E+03  0.80657983581E+03  0.00000000000E+00 0. -1.
         21    1    1    2  503  502  0.23802395592E+02  0.63527520923E+02  0.39922885485E+03  0.40495182244E+03  0.00000000000E+00 0.  1.
         21    1    1    2  504  503  0.71720111532E+01 -0.16303083126E+03  0.27461016548E+03  0.31943893418E+03  0.00000000000E+00 0.  1.
         21    1    1    2  505  504 -0.88033853744E+02  0.41542523463E+02 -0.64827703173E+03  0.65554469758E+03  0.00000000000E+00 0. -1.
          1    1    1    2  501    0  0.57059446999E+02  0.57960786873E+02 -0.11661183192E+03  0.14217437410E+03  0.00000000000E+00 0. -1.
<scales pt_clust_3="67.84025" pt_clust_4="14000.00000" pt_clust_5="106.06352" pt_clust_6="83.86861"></scales>
<clustering>
<clus scale="   67.840">  1  3  2 -1</clus>
<clus scale="   83.869">  2  6  1 -1</clus>
<clus scale="  106.064">  2  5  1 -1</clus>
<clus scale="   67.840">  1  3  2 -1</clus>
</clustering>
</event>
<event>
 6    0  0.6451042E+002  0.1433850E+03  0.7546771E-02  0.1208845E+00
         21   -1    0    0  503  502  0.00000000000E+00  0.00000000000E+00  0.23292075360E+03  0.23292075360E+03  0.00000000000E+00 0. -1.
          2   -1    0    0  505    0 -0.00000000000E+00 -0.00000000000E+00 -0.32499375519E+04  0.32499375519E+04  0.00000000000E+00 0. -1.
         21    1    1    2  503  501  0.16009193799E+03 -0.17037273856E+02  0.10883717133E+03  0.19433277432E+03  0.00000000000E+00 0. -1.
         21    1    1    2  504  502  0.61260009333E+01  0.34449478798E+02  0.59429102518E+02  0.68964575711E+02  0.00000000000E+00 0.  1.
         21    1    1    2  505  504 -0.23730179969E+02 -0.31652713778E+02 -0.96753350429E+01  0.40726254911E+02  0.00000000000E+00 0.  1.
          2    1    1    2  501    0 -0.14248775896E+03  0.14240508836E+02 -0.31756077371E+04  0.31788347006E+04  0.00000000000E+00 0. -1.
<scales pt_clust_3="143.38502" pt_clust_4="34.98992" pt_clust_5="36.71450" pt_clust_6="14000.00000"></scales>
<clustering>
<clus scale="   34.990">  1  4  2 -1</clus>
<clus scale="   36.715">  1  5  2 -1</clus>
<clus scale="  143.385">  1  3  2 -1</clus>
<clus scale="   34.990">  1  3  2 -1</clus>
</clustering>
</event>
<event>
 6    0  0.6338511E+002  0.2449345E+03  0.7546771E-02  0.1116549E+00
          1   -1    0    0  504    0 -0.00000000000E+00  0.00000000000E+00  0.96168731609E+03  0.96168731609E+03  0.00000000000E+00 0.  1.
         21   -1    0    0  505  502  0.00000000000E+00 -0.00000000000E+00 -0.21963165513E+03  0.21963165513E+03  0.00000000000E+00 0.  1.
         21    1    1    2  503  502  0.18188613668E+03  0.16960245980E+03 -0.57136931983E+02  0.25517090368E+03  0.00000000000E+00 0.  1.
         21    1    1    2  504  503 -0.96902907977E+01  0.28806847760E+02  0.26314863328E+02  0.40202092552E+02  0.00000000000E+00 0. -1.
         21    1    1    2  505  501  0.18089433790E+02 -0.30722457650E+02 -0.28339366858E+02  0.45543569610E+02  0.00000000000E+00 0.  1.
          1    1    1    2  501    0 -0.19028527968E+03 -0.16768684991E+03  0.80121709647E+03  0.84040240538E+03  0.00000000000E+00 0.  1.
<scales pt_clust_3="244.93450" pt_clust_4="30.39303" pt_clust_5="35.37695" pt_clust_6="14000.00000"></scales>
<clustering>
<clus scale="   30.393">  1  4  2 -1</clus>
<clus scale="   35.377">  2  5  1 -1</clus>
<clus scale="  244.935">  2  3  1 -1</clus>
<clus scale="   35.377">  2  3  1 -1</clus>
</clustering>
</event>
<event>
 6    0  0.6338511E+002  0.1318780E+03  0.7546771E-02  0.1224695E+00
          2   -1    0    0  505    0 -0.00000000000E+00  0.00000000000E+00  0.12859115183E+04  0.12859115183E+04  0.00000000000E+00 0.  1.
         21   -1    0    0  501  502  0.00000000000E+00 -0.00000000000E+00 -0.75246753202E+02  0.75246753202E+02  0.00000000000E+00 0.  1.
         21    1    1    2  503  504  0.10018011282E+03 -0.45145443909E+02  0.22932673463E+03  0.25429297537E+03  0.00000000000E+00 0.  1.
         21    1    1    2  504  502 -0.13576141459E+03  0.34817854795E+02  0.28916391642E+02  0.14310696143E+03  0.00000000000E+00 0.  1.
         21    1    1    2  505  503  0.28763141574E+02  0.42419344025E+02  0.11748536295E+03  0.12817772649E+03  0.00000000000E+00 0.  1.
          2    1    1    2  501    0  0.68181601947E+01 -0.32091754910E+02  0.83493627586E+03  0.83558060819E+03  0.00000000000E+00 0.  1.
<scales pt_clust_3="131.87799" pt_clust_4="14000.00000" pt_clust_5="45.51375" pt_clust_6="32.80805"></scales>
<clustering>
<clus scale="   32.808">  1  6  2 -1</clus>
<clus scale="   45.514">  1  5  2 -1</clus>
<clus scale="  131.878">  1  3  2 -1</clus>
<clus scale="  131.878">  2  3  1 -1</clus>
</clustering>
</event>
<event>
 6    0  0.6338511E+002  0.8788617E+02  0.7546771E-02  0.1308053E+00
          2   -1    0    0  505    0 -0.00000000000E+00  0.00000000000E+00  0.16570870406E+04  0.16570870406E+04  0.00000000000E+00 0. -1.
         21   -1    0    0  504  502  0.00000000000E+00 -0.00000000000E+00 -0.27976036253E+03  0.27976036253E+03  0.00000000000E+00 0. -1.
         21    1    1    2  503  502 -0.91913641442E+02 -0.42577302839E+02  0.60681986496E+02  0.11808152982E+03  0.00000000000E+00 0. -1.
         21    1    1    2  504  501  0.12710573015E+02  0.64397443209E+02 -0.23684328578E+03  0.24577089204E+03  0.00000000000E+00 0. -1.
         21    1    1    2  505  503  0.10190954489E+03 -0.49700687671E+02  0.32919131627E+03  0.34817041287E+03  0.00000000000E+00 0. -1.
          2    1    1    2  501    0 -0.22706476465E+02  0.27880547302E+02  0.12242966611E+04  0.12248245684E+04  0.00000000000E+00 0. -1.
<scales pt_clust_3="87.88617" pt_clust_4="65.87738" pt_clust_5="14000.00000" pt_clust_6="35.95704"></scales>
<clustering>
<clus scale="   35.957">  1  6  2 -1</clus>
<clus scale="   65.877">  2  4  1 -1</clus>
<clus scale="   87.886">  2  3  1 -1</clus>
<clus scale="   65.877">  2  3  1 -1</clus>
</clustering>
</event>
<event>
 6    0  0.6338511E+002  0.9188708E+02  0.7546771E-02  0.1298345E+00
          2   -1    0    0  504    0 -0.00000000000E+00  0.00000000000E+00  0.11772829909E+04  0.11772829909E+04  0.00000000000E+00 0. -1.
         21   -1    0    0  503  502  0.00000000000E+00 -0.00000000000E+00 -0.17845084484E+04  0.17845084484E+04  0.00000000000E+00 0.  1.
         21    1    1    2  503  501 -0.57454215461E+02  0.51793280303E+02  0.35705201238E+03  0.36533501105E+03  0.00000000000E+00 0.  1.
         21    1    1    2  504  505  0.52991079709E+01 -0.66742829831E+02 -0.88679081193E+01  0.67537587117E+02  0.00000000000E+00 0.  1.
         21    1    1    2  505  502  0.91627477057E+02 -0.81372575354E+01 -0.17402839828E+04  0.17427134447E+04  0.00000000000E+00 0.  1.
          2    1    1    2  501    0 -0.39472369567E+02  0.23086807063E+02  0.78487442100E+03  0.78620539642E+03  0.00000000000E+00 0. -1.
<scales pt_clust_3="91.88708" pt_clust_4="65.05624" pt_clust_5="14000.00000" pt_clust_6="45.72820"></scales>
<clustering>
<clus scale="   45.728">  1  6  2 -1</clus>
<clus scale="   65.056">  1  4  2 -1</clus>
<clus scale="   91.887">  1  3  2 -1</clus>
<clus scale="   91.887">  2  3  1 -1</clus>
</clustering>
</event>
<event>
 6    0  0.6338511E+002  0.8329743E+02  0.7546771E-02  0.1319946E+00
         21   -1    0    0  504  502  0.00000000000E+00  0.00000000000E+00  0.65388329659E+02  0.65388329659E+02  0.00000000000E+00 0. -1.
          1   -1    0    0  503    0 -0.00000000000E+00 -0.00000000000E+00 -0.17352808755E+04  0.17352808755E+04  0.00000000000E+00 0. -1.
         21    1    1    2  503  502  0.59121256316E+02  0.79894588325E+02 -0.55626165796E+02  0.11389793024E+03  0.00000000000E+00 0. -1.
         21    1    1    2  504  505 -0.41531763052E+02  0.72558665049E+01  0.14858800841E+02  0.44702560367E+02  0.00000000000E+00 0. -1.
         21    1    1    2  505  501 -0.43309571037E+02 -0.69384905130E+01 -0.85018340823E+02  0.95665980736E+02  0.00000000000E+00 0. -1.
          1    1    1    2  501    0  0.25720077773E+02 -0.80211964316E+02 -0.15441068401E+04  0.15464027338E+04  0.00000000000E+00 0. -1.
<scales pt_clust_3="83.29743" pt_clust_4="42.16082" pt_clust_5="49.86390" pt_clust_6="14000.00000"></scales>
<clustering>
<clus scale="   42.161">  1  4  2 -1</clus>
<clus scale="   49.864">  1  5  2 -1</clus>
<clus scale="   83.297">  1  3  2 -1</clus>
<clus scale="   42.161">  1  3  2 -1</clus>
</clustering>
</event>
<event>
 6    0  0.6338511E+002  0.1552867E+03  0.7546771E-02  0.1194123E+00
         21   -1    0    0  503  502  0.00000000000E+00  0.00000000000E+00  0.11376664570E+04  0.11376664570E+04  0.00000000000E+00 0.  1.
         -3   -1    0    0    0  501 -0.00000000000E+00 -0.00000000000E+00 -0.12142070790E+03  0.12142070790E+03  0.00000000000E+00 0. -1.
         21    1    1    2  503  504  0.19542693582E+02 -0.57975490305E+02  0.61743946684E+03  0.62046318953E+03  0.00000000000E+00 0.  1.
         21    1    1    2  504  505  0.49093830620E+02 -0.66695271425E+02  0.39574728683E+03  0.40431964888E+03  0.00000000000E+00 0.  1.
         21    1    1    2  505  501  0.18138441935E+02 -0.28279202194E+02  0.42409440794E+02  0.54104316104E+02  0.00000000000E+00 0. -1.
         -3    1    1    2    0  502 -0.86774966138E+02  0.15294996392E+03 -0.39350445325E+02  0.18020001043E+03  0.00000000000E+00 0. -1.
<scales pt_clust_3="49.76193" pt_clust_4="49.76193" pt_clust_5="33.59637" pt_clust_6="143.99745"></scales>
<clustering>
<clus scale="   33.596">  2  5  1 -1</clus>
<clus scale="   49.762">  3  4 -1 -1</clus>
<clus scale="  143.997">  2  6  1 -1</clus>
<clus scale="  155.287">  1  3  2 -1</clus>
</clustering>
</event>
<event>
 6    0  0.6338511E+002  0.1543703E+03  0.7546771E-02  0.1195203E+00
          1   -1    0    0  504    0 -0.00000000000E+00  0.00000000000E+00  0.11659830792E+04  0.11659830792E+04  0.00000000000E+00 0. -1.
         21   -1    0    0  505  502  0.00000000000E+00 -0.00000000000E+00 -0.61549009842E+02  0.61549009842E+02  0.00000000000E+00 0. -1.
         21    1    1    2  503  502 -0.77593721336E+02  0.53454770498E+01  0.12663788211E+03  0.14861531853E+03  0.00000000000E+00 0. -1.
         21    1    1    2  504  503 -0.63270252830E+02 -0.21453939270E+02  0.77598826781E+02  0.10239616361E+03  0.00000000000E+00 0. -1.
         21    1    1    2  505  501  0.15741133740E+03 -0.17033026286E+02  0.12844243948E+03  0.20387720173E+03  0.00000000000E+00 0. -1.
          1    1    1    2  501    0 -0.16547363237E+02  0.33141488506E+02  0.77175492102E+03  0.77264340521E+03  0.00000000000E+00 0. -1.
<scales pt_clust_3="31.99817" pt_clust_4="31.99817" pt_clust_5="150.45996" pt_clust_6="37.04286"></scales>
<clustering>
<clus scale="   31.998">  3  4 -1 -1</clus>
<clus scale="   37.043">  1  6  2 -1</clus>
<clus scale="  150.460">  2  5  1 -1</clus>
<clus scale="  150.460">  2  3  1 -1</clus>
</clustering>
</event>
<event>
 6    0  0.6338511E+002  0.7463575E+02  0.7546771E-02  0.1345003E+00
          4   -1    0    0  503    0 -0.00000000000E+00  0.00000000000E+00  0.83449492090E+03  0.83449492090E+03  0.00000000000E+00 0.  1.
         21   -1    0    0  504  502  0.00000000000E+00 -0.00000000000E+00 -0.57742015283E+03  0.57742015283E+03  0.00000000000E+00 0. -1.
         21    1    1    2  503  505 -0.77924417254E+01  0.67206921728E+02  0.33387601943E+03  0.34066213295E+03  0.00000000000E+00 0.  1.
         21    1    1    2  504  501 -0.65602846939E+02 -0.86994819726E+02  0.27130382124E+03  0.29236551712E+03  0.00000000000E+00 0.  1.
         21    1    1    2  505  502  0.31348979006E+02  0.34361387317E+02 -0.56022366114E+03  0.56215123759E+03  0.00000000000E+00 0. -1.
          4    1    1    2  501    0  0.42046309658E+02 -0.14573489318E+02  0.21211858854E+03  0.21673618607E+03  0.00000000000E+00 0.  1.
<scales pt_clust_3="74.63575" pt_clust_4="14000.00000" pt_clust_5="46.54040" pt_clust_6="44.50032"></scales>
<clustering>
<clus scale="   44.500">  1  6  2 -1</clus>
<clus scale="   46.540">  2  5  1 -1</clus>
<clus scale="   74.636">  1  3  2 -1</clus>
<clus scale="   46.540">  2  3  1 -1</clus>
</clustering>
</event>
<event>
 6    0  0.6338511E+002  0.8146629E+02  0.7546771E-02  0.1324941E+00
         21   -1    0    0  504  502  0.00000000000E+00  0.00000000000E+00  0.30480367381E+03  0.30480367381E+03  0.00000000000E+00 0. -1.
          2   -1    0    0  503    0 -0.00000000000E+00 -0.00000000000E+00 -0.23559232567E+04  0.23559232567E+04  0.00000000000E+00 0. -1.
         21    1    1    2  503  505 -0.34915398217E+02  0.12497021511E+03 -0.87993668670E+03  0.88945219787E+03  0.00000000000E+00 0. -1.
         21    1    1    2  504  501  0.12651775990E+02 -0.45964837677E+02  0.77486135494E+01  0.48299842135E+02  0.00000000000E+00 0.  1.
         21    1    1    2  505  502  0.37716077747E+02 -0.22276152607E+02  0.26965805196E+03  0.27319259595E+03  0.00000000000E+00 0. -1.
          2    1    1    2  501    0 -0.15452455520E+02 -0.56729224822E+02 -0.14485895617E+04  0.14497822946E+04  0.00000000000E+00 0. -1.
<scales pt_clust_3="81.46629" pt_clust_4="14000.00000" pt_clust_5="43.80330" pt_clust_6="59.00786"></scales>
<clustering>
<clus scale="   43.803">  1  5  2 -1</clus>
<clus scale="   59.008">  2  6  1 -1</clus>
<clus scale="   81.466">  2  3  1 -1</clus>
<clus scale="   43.803">  1  3  2 -1</clus>
</clustering>
</event>
<event>
 6    0  0.6338511E+002  0.9996082E+02  0.7546771E-02  0.1280378E+00
         -1   -1    0    0    0  501 -0.00000000000E+00  0.00000000000E+00  0.13197242123E+04  0.13197242123E+04  0.00000000000E+00 0.  1.
         21   -1    0    0  503  502  0.00000000000E+00 -0.00000000000E+00 -0.77223794907E+02  0.77223794907E+02  0.00000000000E+00 0.  1.
         21    1    1    2  503  505 -0.81481695699E+02 -0.56102142657E+02  0.10114241435E+02  0.99443526810E+02  0.00000000000E+00 0.  1.
         21    1    1    2  504  502 -0.48167012391E+00 -0.41883947091E+02  0.49107859001E+02  0.64545169034E+02  0.00000000000E+00 0. -1.
         21    1    1    2  505  501  0.29916877492E+02  0.97801700304E+02  0.83723646822E+02  0.13217352677E+03  0.00000000000E+00 0. -1.
         -1    1    1    2    0  504  0.52046488331E+02  0.18438944368E+00  0.10995546701E+04  0.11007857846E+04  0.00000000000E+00 0.  1.
<scales pt_clust_3="14000.00000" pt_clust_4="41.88672" pt_clust_5="99.96082" pt_clust_6="52.04256"></scales>
<clustering>
<clus scale="   41.887">  2  4  1 -1</clus>
<clus scale="   52.043">  1  6  2 -1</clus>
<clus scale="   99.961">  1  5  2 -1</clus>
<clus scale="   41.887">  2  3  1 -1</clus>
</clustering>
</event>
<event>
 6    0  0.6338511E+002  0.1845417E+03  0.7546771E-02  0.1163479E+00
         21   -1    0    0  503  502  0.00000000000E+00  0.00000000000E+00  0.18739287394E+03  0.18739287394E+03  0.00000000000E+00 0.  1.
          1   -1    0    0  505    0 -0.00000000000E+00 -0.00000000000E+00 -0.19186065605E+04  0.19186065605E+04  0.00000000000E+00 0.  1.
         21    1    1    2  503  501  0.64548015739E+02 -0.65054994496E+02  0.11002368519E+03  0.14319151493E+03  0.00000000000E+00 0.  1.
         21    1    1    2  504  502  0.20384820108E+02  0.39731924346E+02  0.29766574797E+02  0.53667640886E+02  0.00000000000E+00 0.  1.
         21    1    1    2  505  504  0.42346933993E+02 -0.15208877370E+03 -0.66084514722E+03  0.67944136356E+03  0.00000000000E+00 0. -1.
          1    1    1    2  501    0 -0.12727976984E+03  0.17741184385E+03 -0.12101587993E+04  0.12296989151E+04  0.00000000000E+00 0.  1.
<scales pt_clust_3="87.74486" pt_clust_4="44.65609" pt_clust_5="184.54166" pt_clust_6="14000.00000"></scales>
<clustering>
<clus scale="   44.656">  1  4  2 -1</clus>
<clus scale="   87.745">  1  3  2 -1</clus>
<clus scale="  184.542">  2  5  1 -1</clus>
<clus scale="   44.656">  1  3  2 -1</clus>
</clustering>
</event>
<event>
 6    0  0.6338511E+002  0.1008104E+03  0.7546771E-02  0.1278601E+00
         21   -1    0    0  501  502  0.00000000000E+00  0.00000000000E+00  0.21050993035E+03  0.21050993035E+03  0.00000000000E+00 0. -1.
          1   -1    0    0  505    0 -0.00000000000E+00 -0.00000000000E+00 -0.19206654151E+04  0.19206654151E+04  0.00000000000E+00 0.  1.
         21    1    1    2  503  504  0.36042636032E+02 -0.16625829328E+02  0.55621443245E+02  0.68331799052E+02  0.00000000000E+00 0. -1.
         21    1    1    2  504  502  0.52614581186E+02  0.24730033536E+02  0.13452486351E+03  0.14654967627E+03  0.00000000000E+00 0. -1.
         21    1    1    2  505  503 -0.12113315575E+03  0.13403873221E+01 -0.46272916829E+03  0.47832344835E+03  0.00000000000E+00 0.  1.
          1    1    1    2  501    0  0.32475938529E+02 -0.94445915301E+01 -0.14375726232E+04  0.14379704218E+04  0.00000000000E+00 0.  1.
<scales pt_clust_3="37.90470" pt_clust_4="37.90470" pt_clust_5="89.83369" pt_clust_6="33.82140"></scales>
<clustering>
<clus scale="   33.821">  2  6  1 -1</clus>
<clus scale="   37.905">  3  4 -1 -1</clus>
<clus scale="   89.834">  2  5  1 -1</clus>
<clus scale="  100.810">  1  3  2 -1</clus>
</clustering>
</event>
<event>
 6    0  0.6338511E+002  0.1066266E+03  0.7546771E-02  0.1266948E+00
         21   -1    0    0  505  502  0.00000000000E+00  0.00000000000E+00  0.22310719207E+03  0.22310719207E+03  0.00000000000E+00 0.  1.
          2   -1    0    0  503    0 -0.00000000000E+00 -0.00000000000E+00 -0.26324483614E+04  0.26324483614E+04  0.00000000000E+00 0. -1.
         21    1    1    2  503  502  0.66174155567E+02 -0.63355251735E+02  0.16162823164E+02  0.93027649869E+02  0.00000000000E+00 0. -1.
         21    1    1    2  504  501 -0.11052810211E+02 -0.86519482790E+02 -0.35240677483E+02  0.94072795564E+02  0.00000000000E+00 0. -1.
         21    1    1    2  505  504 -0.23434616197E-01  0.11383813373E+03  0.11529915650E+03  0.16202782703E+03  0.00000000000E+00 0.  1.
          2    1    1    2  501    0 -0.55097910740E+02  0.36036600793E+02 -0.25055624715E+04  0.25064272810E+04  0.00000000000E+00 0. -1.
<scales pt_clust_3="72.03633" pt_clust_4="14000.00000" pt_clust_5="106.62656" pt_clust_6="65.83628"></scales>
<clustering>
<clus scale="   65.836">  2  6  1 -1</clus>
<clus scale="   72.036">  2  3  1 -1</clus>
<clus scale="  106.627">  1  5  2 -1</clus>
<clus scale="  106.627">  1  3  2 -1</clus>
</clustering>
</event>
<event>
 6    0  0.6338511E+002  0.1521338E+03  0.7546771E-02  0.1197875E+00
         21   -1    0    0  503  502  0.00000000000E+00  0.00000000000E+00  0.16892632142E+03  0.16892632142E+03  0.00000000000E+00 0. -1.
          1   -1    0    0  504    0 -0.00000000000E+00 -0.00000000000E+00 -0.11090432573E+04  0.11090432573E+04  0.00000000000E+00 0.  1.
         21    1    1    2  503  501 -0.13387331644E+02 -0.67357062158E+02 -0.35973847242E+01  0.68768711257E+02  0.00000000000E+00 0. -1.
         21    1    1    2  504  505  0.11973601020E+03  0.67158159387E+02 -0.17308582919E+03  0.22091997369E+03  0.00000000000E+00 0. -1.
         21    1    1    2  505  502 -0.12357487146E+03 -0.38467869870E+02  0.74462735567E+02  0.14931585601E+03  0.00000000000E+00 0. -1.
          1    1    1    2  501    0  0.17226192900E+02  0.38666772641E+02 -0.83789645749E+03  0.83896503771E+03  0.00000000000E+00 0.  1.
<scales pt_clust_3="63.16708" pt_clust_4="152.13379" pt_clust_5="14000.00000" pt_clust_6="42.33038"></scales>
<clustering>
<clus scale="   42.330">  2  6  1 -1</clus>
<clus scale="   63.167">  1  3  2 -1</clus>
<clus scale="  152.134">  2  4  1 -1</clus>
<clus scale="   63.167">  1  3  2 -1</clus>
</clustering>
</event>
<event>
 6    0  0.6338511E+002  0.1209096E+03  0.7546771E-02  0.1241604E+00
          2   -1    0    0  505    0 -0.00000000000E+00  0.00000000000E+00  0.91992117768E+03  0.91992117768E+03  0.00000000000E+00 0. -1.
         21   -1    0    0  504  502  0.00000000000E+00 -0.00000000000E+00 -0.14759129274E+03  0.14759129274E+03  0.00000000000E+00 0.  1.
         21    1    1    2  503  502  0.66227112064E+02 -0.67660388462E+02 -0.94931733552E+02  0.13407457840E+03  0.00000000000E+00 0.  1.
         21    1    1    2  504  501  0.33324745366E+02 -0.13713289547E+02  0.16964209444E+01  0.36075903425E+02  0.00000000000E+00 0.  1.
         21    1    1    2  505  503 -0.68208058260E+02  0.91451751750E+02  0.19450733155E+03  0.22549692711E+03  0.00000000000E+00 0. -1.
          2    1    1    2  501    0 -0.31343799170E+02 -0.10078073740E+02  0.67105786600E+03  0.67186506148E+03  0.00000000000E+00 0. -1.
<scales pt_clust_3="120.90958" pt_clust_4="34.16244" pt_clust_5="14000.00000" pt_clust_6="32.92418"></scales>
<clustering>
<clus scale="   32.924">  1  6  2 -1</clus>
<clus scale="   34.162">  2  4  1 -1</clus>
<clus scale="  120.910">  2  3  1 -1</clus>
<clus scale="   34.162">  2  3  1 -1</clus>
</clustering>
</event>
<event>
 6    0  0.6338511E+002  0.1443757E+03  0.7546771E-02  0.1207559E+00
         21   -1    0    0  501  502  0.00000000000E+00  0.00000000000E+00  0.76391317706E+03  0.76391317706E+03  0.00000000000E+00 0. -1.
          1   -1    0    0  504    0 -0.00000000000E+00 -0.00000000000E+00 -0.13849499008E+04  0.13849499008E+04  0.00000000000E+00 0.  1.
         21    1    1    2  503  505 -0.30713661402E+02 -0.11376132972E+03  0.50327166346E+03  0.51688232353E+03  0.00000000000E+00 0. -1.
         21    1    1    2  504  503 -0.85563358757E+02 -0.79005535010E+02  0.10171942459E+03  0.15462795434E+03  0.00000000000E+00 0. -1.
         21    1    1    2  505  502  0.24842851205E+01  0.10249754497E+03  0.10010268710E+03  0.14329154324E+03  0.00000000000E+00 0. -1.
          1    1    1    2  501    0  0.11379273504E+03  0.90269319763E+02 -0.13261304989E+04  0.13340612567E+04  0.00000000000E+00 0.  1.
<scales pt_clust_3="43.27522" pt_clust_4="14000.00000" pt_clust_5="102.52765" pt_clust_6="144.37571"></scales>
<clustering>
<clus scale="  102.528">  1  5  2 -1</clus>
<clus scale="   43.275">  1  3  2 -1</clus>
<clus scale="  144.376">  2  6  1 -1</clus>
<clus scale="  102.528">  1  3  2 -1</clus>
</clustering>
</event>
<event>
 6    0  0.6338511E+002  0.1245513E+03  0.7546771E-02  0.1235772E+00
         -2   -1    0    0    0  501 -0.00000000000E+00  0.00000000000E+00  0.16040217327E+04  0.16040217327E+04  0.00000000000E+00 0.  1.
         21   -1    0    0  503  502  0.00000000000E+00 -0.00000000000E+00 -0.32209404300E+02  0.32209404300E+02  0.00000000000E+00 0.  1.
         21    1    1    2  503  504  0.22399941861E+02  0.10628923551E+03  0.32849364667E+03  0.34598733341E+03  0.00000000000E+00 0.  1.
         21    1    1    2  504  501  0.21114215213E+02  0.34465489342E+02  0.44889962441E+02  0.60405204806E+02  0.00000000000E+00 0.  1.
         21    1    1    2  505  502  0.40354680421E+02 -0.78305877329E+02  0.13448294829E+03  0.16076683127E+03  0.00000000000E+00 0.  1.
         -2    1    1    2    0  505 -0.83868837495E+02 -0.62448847521E+02  0.10639457710E+04  0.10690717675E+04  0.00000000000E+00 0.  1.
<scales pt_clust_3="38.74429" pt_clust_4="38.74429" pt_clust_5="88.09263" pt_clust_6="107.13923"></scales>
<clustering>
<clus scale="   38.744">  3  4 -1 -1</clus>
<clus scale="   88.093">  2  5  1 -1</clus>
<clus scale="  107.139">  1  6  2 -1</clus>
<clus scale="   88.093">  2  3  1 -1</clus>
</clustering>
</event>
<event>
 6    0  0.6338511E+002  0.1146075E+03  0.7546771E-02  0.1252268E+00
          1   -1    0    0  503    0 -0.00000000000E+00  0.00000000000E+00  0.80912083125E+02  0.80912083125E+02  0.00000000000E+00 0.  1.
         21   -1    0    0  505  502  0.00000000000E+00 -0.00000000000E+00 -0.99739569567E+03  0.99739569567E+03  0.00000000000E+00 0. -1.
         21    1    1    2  503  504 -0.85529882454E+02 -0.82218197791E+01 -0.31906737535E+02  0.91656963801E+02  0.00000000000E+00 0. -1.
         21    1    1    2  504  502  0.84842261485E+02  0.50545966262E+02 -0.84093887256E+03  0.84671795270E+03  0.00000000000E+00 0. -1.
         21    1    1    2  505  501  0.32663886525E+02 -0.53518222046E+01 -0.74914841381E+02  0.81901190119E+02  0.00000000000E+00 0. -1.
          1    1    1    2  501    0 -0.31976265556E+02 -0.36972324279E+02  0.31276838935E+02  0.58031672173E+02  0.00000000000E+00 0.  1.
<scales pt_clust_3="114.60751" pt_clust_4="14000.00000" pt_clust_5="33.09942" pt_clust_6="48.63146"></scales>
<clustering>
<clus scale="   33.099">  2  5  1 -1</clus>
<clus scale="   48.631">  1  6  2 -1</clus>
<clus scale="  114.608">  1  3  2 -1</clus>
<clus scale="   33.099">  2  3  1 -1</clus>
</clustering>
</event>
<event>
 6    0  0.6338511E+002  0.9577390E+02  0.7546771E-02  0.1289443E+00
         21   -1    0    0  504  502  0.00000000000E+00  0.00000000000E+00  0.37969631730E+03  0.37969631730E+03  0.00000000000E+00 0. -1.
          2   -1    0    0  503    0 -0.00000000000E+00 -0.00000000000E+00 -0.14905635432E+04  0.14905635432E+04  0.00000000000E+00 0.  1.
         21    1    1    2  503  505 -0.50589239765E+02 -0.39767374454E+02 -0.10449789703E+03  0.12272133366E+03  0.00000000000E+00 0.  1.
         21    1    1    2  504  501  0.73774484146E+02 -0.18024274390E+02 -0.48579418603E+03  0.49169455982E+03  0.00000000000E+00 0.  1.
         21    1    1    2  505  502 -0.60881801830E+02  0.74516664721E+02  0.36084745879E+03  0.37345711350E+03  0.00000000000E+00 0. -1.
          2    1    1    2  501    0  0.37696557449E+02 -0.16725015877E+02 -0.88142260167E+03  0.88238685356E+03  0.00000000000E+00 0.  1.
<scales pt_clust_3="61.12564" pt_clust_4="14000.00000" pt_clust_5="95.77390" pt_clust_6="41.24023"></scales>
<clustering>
<clus scale="   41.240">  2  6  1 -1</clus>
<clus scale="   61.126">  2  3  1 -1</clus>
<clus scale="   95.774">  1  5  2 -1</clus>
<clus scale="   95.774">  1  3  2 -1</clus>
</clustering>
</event>
<event>
 6    0  0.6338511E+002  0.2460543E+03  0.7546771E-02  0.1115824E+00
         21   -1    0    0  503  502  0.00000000000E+00  0.00000000000E+00  0.20808248105E+03  0.20808248105E+03  0.00000000000E+00 0.  1.
          2   -1    0    0  505    0 -0.00000000000E+00 -0.00000000000E+00 -0.59032209954E+03  0.59032209954E+03  0.00000000000E+00 0. -1.
         21    1    1    2  503  504 -0.14196231883E+03  0.21290787676E+03 -0.33514250827E+02  0.25808190359E+03  0.00000000000E+00 0.  1.
         21    1    1    2  504  501  0.37609409939E+02 -0.12119307472E+02 -0.10802172170E+03  0.11502190091E+03  0.00000000000E+00 0. -1.
         21    1    1    2  505  502  0.26117929867E+01 -0.33241334846E+02  0.58658153862E+02  0.67472859873E+02  0.00000000000E+00 0. -1.
          2    1    1    2  501    0  0.10174111590E+03 -0.16754723444E+03 -0.29936179982E+03  0.35782791622E+03  0.00000000000E+00 0. -1.
<scales pt_clust_3="233.70010" pt_clust_4="34.18093" pt_clust_5="33.34378" pt_clust_6="34.18093"></scales>
<clustering>
<clus scale="   33.344">  1  5  2 -1</clus>
<clus scale="   34.181">  4  6 -1 -1</clus>
<clus scale="  233.700">  1  3  2 -1</clus>
<clus scale="   33.344">  1  3  2 -1</clus>
</clustering>
</event>
<event>
 6    0  0.6338511E+002  0.1116934E+03  0.7546771E-02  0.1257466E+00
          1   -1    0    0  505    0 -0.00000000000E+00  0.00000000000E+00  0.29356388018E+03  0.29356388018E+03  0.00000000000E+00 0. -1.
         21   -1    0    0  504  502  0.00000000000E+00 -0.00000000000E+00 -0.43652422264E+03  0.43652422264E+03  0.00000000000E+00 0.  1.
         21    1    1    2  503  502 -0.50824130483E+02  0.10376614549E+03 -0.37984683660E+03  0.39703164164E+03  0.00000000000E+00 0.  1.
         21    1    1    2  504  501  0.37027736726E+02 -0.78052537549E+02  0.23429922477E+02  0.89510966770E+02  0.00000000000E+00 0. -1.
         21    1    1    2  505  503  0.13926023477E+02  0.42373391751E+02  0.53194351012E+02  0.69419575323E+02  0.00000000000E+00 0. -1.
          1    1    1    2  501    0 -0.12962972022E+00 -0.68086999697E+02  0.16026222064E+03  0.17412591909E+03  0.00000000000E+00 0. -1.
<scales pt_clust_3="111.69338" pt_clust_4="14000.00000" pt_clust_5="44.60312" pt_clust_6="38.86461"></scales>
<clustering>
<clus scale="   44.603">  1  5  2 -1</clus>
<clus scale="   38.865">  1  6  2 -1</clus>
<clus scale="  111.693">  2  3  1 -1</clus>
<clus scale="  111.693">  2  3  1 -1</clus>
</clustering>
</event>
<event>
 6    0  0.6338511E+002  0.8297735E+02  0.7546771E-02  0.1320808E+00
          1   -1    0    0  503    0 -0.00000000000E+00  0.00000000000E+00  0.29377702096E+03  0.29377702096E+03  0.00000000000E+00 0.  1.
         21   -1    0    0  505  502  0.00000000000E+00 -0.00000000000E+00 -0.92491814717E+03  0.92491814717E+03  0.00000000000E+00 0. -1.
         21    1    1    2  503  502  0.52159846301E+02  0.54086197369E+02 -0.18240443819E+02  0.77321925110E+02  0.00000000000E+00 0. -1.
         21    1    1    2  504  501 -0.93073094040E+02 -0.49745644678E+02 -0.28477467075E+02  0.10930780452E+03  0.00000000000E+00 0. -1.
         21    1    1    2  505  504  0.32839332898E+02  0.35296626660E+02 -0.80569018191E+03  0.80713130460E+03  0.00000000000E+00 0. -1.
          1    1    1    2  501    0  0.80739148412E+01 -0.39637179350E+02  0.22126696659E+03  0.22493413390E+03  0.00000000000E+00 0.  1.
<scales pt_clust_3="14000.00000" pt_clust_4="82.97735" pt_clust_5="47.97210" pt_clust_6="40.45113"></scales>
<clustering>
<clus scale="   40.451">  1  6  2 -1</clus>
<clus scale="   47.972">  2  5  1 -1</clus>
<clus scale="   82.977">  2  4  1 -1</clus>
<clus scale="   47.972">  2  3  1 -1</clus>
</clustering>
</event>
<event>
 6    0  0.6338511E+002  0.1177467E+03  0.7546771E-02  0.1246861E+00
         21   -1    0    0  503  502  0.00000000000E+00  0.00000000000E+00  0.32389769133E+03  0.32389769133E+03  0.00000000000E+00 0. -1.
          1   -1    0    0  505    0 -0.00000000000E+00 -0.00000000000E+00 -0.10948037973E+04  0.10948037973E+04  0.00000000000E+00 0.  1.
         21    1    1    2  503  504 -0.56926140743E+02 -0.97731721484E+02  0.17773626614E+02  0.11449007244E+03  0.00000000000E+00 0.  1.
         21    1    1    2  504  501  0.56490933238E+02  0.82449110706E+02 -0.44840211358E+03  0.45940563433E+03  0.00000000000E+00 0.  1.
         21    1    1    2  505  502 -0.30611487972E+02  0.13603634638E+02  0.25074158954E+03  0.25296930011E+03  0.00000000000E+00 0. -1.
          1    1    1    2  501    0  0.31046695477E+02  0.16789761395E+01 -0.59101920854E+03  0.59183648175E+03  0.00000000000E+00 0.  1.
<scales pt_clust_3="14000.00000" pt_clust_4="117.74674" pt_clust_5="33.43683" pt_clust_6="31.09206"></scales>
<clustering>
<clus scale="   31.092">  2  6  1 -1</clus>
<clus scale="   33.437">  1  5  2 -1</clus>
<clus scale="  117.747">  2  4  1 -1</clus>
<clus scale="   33.437">  1  3  2 -1</clus>
</clustering>
</event>
<event>
 6    0  0.6338511E+002  0.1294527E+03  0.7546771E-02  0.1228270E+00
         21   -1    0    0  504  502  0.00000000000E+00  0.00000000000E+00  0.25590866330E+03  0.25590866330E+03  0.00000000000E+00 0. -1.
         -1   -1    0    0    0  501 -0.00000000000E+00 -0.00000000000E+00 -0.15532919929E+03  0.15532919929E+03  0.00000000000E+00 0. -1.
         21    1    1    2  503  502 -0.60665789959E+02 -0.58147280950E+02  0.61211678755E+02  0.10396304136E+03  0.00000000000E+00 0. -1.
         21    1    1    2  504  501  0.11307565045E+03  0.45642684153E+02  0.12623314933E+03  0.17551115443E+03  0.00000000000E+00 0. -1.
         21    1    1    2  505  503 -0.26937664946E+02 -0.26813231648E+02 -0.62411394780E+01  0.38516736702E+02  0.00000000000E+00 0.  1.
         -1    1    1    2    0  505 -0.25472195546E+02  0.39317828446E+02 -0.80624224591E+02  0.93246930086E+02  0.00000000000E+00 0. -1.
<scales pt_clust_3="32.85144" pt_clust_4="119.88299" pt_clust_5="32.85144" pt_clust_6="46.84789"></scales>
<clustering>
<clus scale="   32.851">  3  5 -1 -1</clus>
<clus scale="   46.848">  2  6  1 -1</clus>
<clus scale="  119.883">  1  4  2 -1</clus>
<clus scale="  119.883">  1  3  2 -1</clus>
</clustering>
</event>
<event>
 6    0  0.6338511E+002  0.9611290E+02  0.7546771E-02  0.1288689E+00
          2   -1    0    0  505    0 -0.00000000000E+00  0.00000000000E+00  0.50173495853E+03  0.50173495853E+03  0.00000000000E+00 0. -1.
         21   -1    0    0  504  502  0.00000000000E+00 -0.00000000000E+00 -0.46622119222E+03  0.46622119222E+03  0.00000000000E+00 0. -1.
         21    1    1    2  503  501  0.35146382045E+02 -0.10650500662E+03 -0.30282825636E+03  0.32292961687E+03  0.00000000000E+00 0. -1.
         21    1    1    2  504  503 -0.37788604615E+02 -0.11908073707E+02 -0.40983873727E+02  0.57004024102E+02  0.00000000000E+00 0. -1.
         21    1    1    2  505  502  0.84255994565E+01  0.78309236330E+02 -0.88484726422E+02  0.11846043234E+03  0.00000000000E+00 0. -1.
          2    1    1    2  501    0 -0.57833768865E+01  0.40103844000E+02  0.46781062281E+03  0.46956207743E+03  0.00000000000E+00 0. -1.
<scales pt_clust_3="96.11290" pt_clust_4="39.62046" pt_clust_5="14000.00000" pt_clust_6="40.50537"></scales>
<clustering>
<clus scale="   39.620">  2  4  1 -1</clus>
<clus scale="   40.505">  1  6  2 -1</clus>
<clus scale="   96.113">  2  3  1 -1</clus>
<clus scale="   39.620">  2  3  1 -1</clus>
</clustering>
</event>
<event>
 6    0  0.6338511E+002  0.6634875E+02  0.7546771E-02  0.1372969E+00
         21   -1    0    0  501  502  0.00000000000E+00  0.00000000000E+00  0.37878784785E+03  0.37878784785E+03  0.00000000000E+00 0. -1.
          1   -1    0    0  504    0 -0.00000000000E+00 -0.00000000000E+00 -0.57790549515E+03  0.57790549515E+03  0.00000000000E+00 0. -1.
         21    1    1    2  503  505  0.65506689045E+02 -0.21041744569E+01  0.43203575281E+02  0.78499062267E+02  0.00000000000E+00 0. -1.
         21    1    1    2  504  503  0.35446897795E+02 -0.72547499321E+02 -0.32517827352E+03  0.33505302833E+03  0.00000000000E+00 0. -1.
         21    1    1    2  505  502 -0.50107507591E+02  0.48473602900E+02  0.30545713056E+03  0.31331216240E+03  0.00000000000E+00 0. -1.
          1    1    1    2  501    0 -0.50846079250E+02  0.26178070878E+02 -0.22260007962E+03  0.22982909001E+03  0.00000000000E+00 0. -1.
<scales pt_clust_3="14000.00000" pt_clust_4="49.52205" pt_clust_5="66.34875" pt_clust_6="57.18929"></scales>
<clustering>
<clus scale="   57.189">  2  6  1 -1</clus>
<clus scale="   49.522">  2  4  1 -1</clus>
<clus scale="   66.349">  1  5  2 -1</clus>
<clus scale="   66.349">  1  3  2 -1</clus>
</clustering>
</event>
<event>
 6    0  0.6338511E+002  0.1281970E+03  0.7546771E-02  0.1230156E+00
         21   -1    0    0  503  502  0.00000000000E+00  0.00000000000E+00  0.56041268383E+02  0.56041268383E+02  0.00000000000E+00 0.  1.
          2   -1    0    0  505    0 -0.00000000000E+00 -0.00000000000E+00 -0.30487853694E+04  0.30487853694E+04  0.00000000000E+00 0.  1.
         21    1    1    2  503  501  0.67322116885E+02 -0.13731246607E+03 -0.19779659781E+03  0.25002094885E+03  0.00000000000E+00 0.  1.
         21    1    1    2  504  502  0.14903430650E+02  0.37472515300E+02  0.12079496020E+02  0.42097694380E+02  0.00000000000E+00 0.  1.
         21    1    1    2  505  504 -0.10341585105E+03  0.37858415754E+02 -0.19984456560E+04  0.20014777385E+04  0.00000000000E+00 0.  1.
          2    1    1    2  501    0  0.21190303519E+02  0.61981535017E+02 -0.80858134318E+03  0.81123025596E+03  0.00000000000E+00 0.  1.
<scales pt_clust_3="128.19698" pt_clust_4="40.32743" pt_clust_5="14000.00000" pt_clust_6="67.34638"></scales>
<clustering>
<clus scale="   40.327">  1  4  2 -1</clus>
<clus scale="   67.346">  2  6  1 -1</clus>
<clus scale="  128.197">  1  3  2 -1</clus>
<clus scale="   40.327">  1  3  2 -1</clus>
</clustering>
</event>
<event>
 6    0  0.6338511E+002  0.7281619E+02  0.7546771E-02  0.1350770E+00
         21   -1    0    0  505  502  0.00000000000E+00  0.00000000000E+00  0.80473493969E+03  0.80473493969E+03  0.00000000000E+00 0.  1.
          1   -1    0    0  504    0 -0.00000000000E+00 -0.00000000000E+00 -0.14833792544E+04  0.14833792544E+04  0.00000000000E+00 0. -1.
         21    1    1    2  503  501 -0.45854137688E+02 -0.33861793588E+02 -0.94274239109E+01  0.57776286915E+02  0.00000000000E+00 0. -1.
         21    1    1    2  504  502 -0.65545128369E+02  0.63851480508E+02  0.62895670137E+03  0.63557824665E+03  0.00000000000E+00 0.  1.
         21    1    1    2  505  503  0.37569293854E+02 -0.31130484902E+02  0.14330906466E+03  0.15138707654E+03  0.00000000000E+00 0.  1.
          1    1    1    2  501    0  0.73829972204E+02  0.11407979817E+01 -0.14414826568E+04  0.14433725840E+04  0.00000000000E+00 0. -1.
<scales pt_clust_3="72.81619" pt_clust_4="44.88823" pt_clust_5="48.79097" pt_clust_6="14000.00000"></scales>
<clustering>
<clus scale="   48.791">  1  5  2 -1</clus>
<clus scale="   44.888">  1  4  2 -1</clus>
<clus scale="   72.816">  1  3  2 -1</clus>
<clus scale="   48.791">  1  3  2 -1</clus>
</clustering>
</event>
<event>
 6    0  0.6338511E+002  0.1062914E+03  0.7546771E-02  0.1267596E+00
          1   -1    0    0  505    0 -0.00000000000E+00  0.00000000000E+00  0.24441318339E+04  0.24441318339E+04  0.00000000000E+00 0.  1.
         21   -1    0    0  504  502  0.00000000000E+00 -0.00000000000E+00 -0.15651086114E+03  0.15651086114E+03  0.00000000000E+00 0. -1.
         21    1    1    2  503  502 -0.36892355528E+01 -0.44591515114E+02 -0.13811585072E+03  0.14518265013E+03  0.00000000000E+00 0. -1.
         21    1    1    2  504  501 -0.76601619016E+02  0.67550813205E+00  0.16059734487E+03  0.17793192948E+03  0.00000000000E+00 0. -1.
         21    1    1    2  505  503  0.66347567208E+02 -0.77797429565E+02  0.67787170570E+03  0.68553956058E+03  0.00000000000E+00 0. -1.
          1    1    1    2  501    0  0.13943287361E+02  0.12171343655E+03  0.15872677729E+04  0.15919885548E+04  0.00000000000E+00 0.  1.
<scales pt_clust_3="44.74387" pt_clust_4="82.72657" pt_clust_5="106.29142" pt_clust_6="14000.00000"></scales>
<clustering>
<clus scale="   44.744">  2  3  1 -1</clus>
<clus scale="   82.727">  2  4  1 -1</clus>
<clus scale="  106.291">  2  5  1 -1</clus>
<clus scale="   44.744">  2  3  1 -1</clus>
</clustering>
</event>
<event>
 6    0  0.6338511E+002  0.9318981E+02  0.7546771E-02  0.1295306E+00
          2   -1    0    0  503    0 -0.00000000000E+00  0.00000000000E+00  0.70511230918E+03  0.70511230918E+03  0.00000000000E+00 0.  1.
         21   -1    0    0  504  502  0.00000000000E+00 -0.00000000000E+00 -0.46057594409E+03  0.46057594409E+03  0.00000000000E+00 0.  1.
         21    1    1    2  503  505 -0.22296848374E+02 -0.46266610518E+02  0.11766836732E+03  0.12838844716E+03  0.00000000000E+00 0. -1.
         21    1    1    2  504  501 -0.20623463688E+02 -0.30173196692E+02 -0.37482188514E+02  0.52351346773E+02  0.00000000000E+00 0.  1.
         21    1    1    2  505  502  0.45637562130E+02  0.12414569192E+03 -0.39860076815E+03  0.41997322804E+03  0.00000000000E+00 0.  1.
          2    1    1    2  501    0 -0.27172500680E+01 -0.47705884706E+02  0.56295095443E+03  0.56497523130E+03  0.00000000000E+00 0.  1.
<scales pt_clust_3="14000.00000" pt_clust_4="36.54790" pt_clust_5="93.18981" pt_clust_6="47.85944"></scales>
<clustering>
<clus scale="   36.548">  2  4  1 -1</clus>
<clus scale="   47.859">  1  6  2 -1</clus>
<clus scale="   93.190">  2  5  1 -1</clus>
<clus scale="   36.548">  2  3  1 -1</clus>
</clustering>
</event>
<event>
 6    0  0.6338511E+002  0.8431544E+02  0.7546771E-02  0.1317233E+00
         21   -1    0    0  503  502  0.00000000000E+00  0.00000000000E+00  0.88310470841E+03  0.88310470841E+03  0.00000000000E+00 0. -1.
          1   -1    0    0  504    0 -0.00000000000E+00 -0.00000000000E+00 -0.19040741550E+04  0.19040741550E+04  0.00000000000E+00 0.  1.
         21    1    1    2  503  501  0.10306099817E+02  0.53723364034E+02  0.10872741131E+03  0.12171304576E+03  0.00000000000E+00 0.  1.
         21    1    1    2  504  505  0.93972143424E+02  0.81429277721E+02 -0.23130449479E+03  0.26260856863E+03  0.00000000000E+00 0.  1.
         21    1    1    2  505  502 -0.36416742850E+02 -0.89524134452E+02  0.74810917566E+03  0.75432624806E+03  0.00000000000E+00 0. -1.
          1    1    1    2  501    0 -0.67861500391E+02 -0.45628507303E+02 -0.16465015388E+04  0.16485310010E+04  0.00000000000E+00 0.  1.
<scales pt_clust_3="54.70298" pt_clust_4="84.31544" pt_clust_5="45.38770" pt_clust_6="14000.00000"></scales>
<clustering>
<clus scale="   54.703">  1  3  2 -1</clus>
<clus scale="   45.388">  1  5  2 -1</clus>
<clus scale="   84.315">  1  4  2 -1</clus>
<clus scale="   54.703">  1  3  2 -1</clus>
</clustering>
</event>
<event>
 6    0  0.6338511E+002  0.1277072E+03  0.7546771E-02  0.1230898E+00
          1   -1    0    0  503    0 -0.00000000000E+00  0.00000000000E+00  0.20214931605E+04  0.20214931605E+04  0.00000000000E+00 0.  1.
         21   -1    0    0  501  502  0.00000000000E+00 -0.00000000000E+00 -0.50591982009E+03  0.50591982009E+03  0.00000000000E+00 0.  1.
         21    1    1    2  503  505 -0.26519347557E+02 -0.41908831503E+02  0.88524095542E+03  0.88662910797E+03  0.00000000000E+00 0.  1.
         21    1    1    2  504  502 -0.35368549200E+02 -0.69065400071E+02 -0.20030173807E+03  0.21480630818E+03  0.00000000000E+00 0.  1.
         21    1    1    2  505  504  0.13588385017E+03 -0.99425299178E+01 -0.27732504161E+03  0.30898617014E+03  0.00000000000E+00 0. -1.
          1    1    1    2  501    0 -0.73995953408E+02  0.12091676149E+03  0.11079591647E+04  0.11169913943E+04  0.00000000000E+00 0.  1.
<scales pt_clust_3="49.59462" pt_clust_4="77.91031" pt_clust_5="127.70720" pt_clust_6="14000.00000"></scales>
<clustering>
<clus scale="   49.595">  1  3  2 -1</clus>
<clus scale="   77.910">  2  4  1 -1</clus>
<clus scale="  127.707">  2  5  1 -1</clus>
<clus scale="   77.910">  2  3  1 -1</clus>
</clustering>
</event>
<event>
 6    0  0.6338511E+002  0.8670635E+02  0.7546771E-02  0.1311030E+00
          1   -1    0    0  505    0 -0.00000000000E+00  0.00000000000E+00  0.79594700589E+03  0.79594700589E+03  0.00000000000E+00 0.  1.
         21   -1    0    0  504  502  0.00000000000E+00 -0.00000000000E+00 -0.60487406741E+02  0.60487406741E+02  0.00000000000E+00 0. -1.
         21    1    1    2  503  502  0.54284655683E+02 -0.73591843861E+02 -0.32560491316E-01  0.91447167182E+02  0.00000000000E+00 0. -1.
         21    1    1    2  504  501 -0.51699716767E+02  0.15300582229E+02  0.31790649603E+03  0.32244613309E+03  0.00000000000E+00 0. -1.
         21    1    1    2  505  503  0.89966381132E+01  0.87416442258E+02  0.15571056425E+03  0.17879696220E+03  0.00000000000E+00 0. -1.
          1    1    1    2  501    0 -0.11581577029E+02 -0.29125180626E+02  0.26187509936E+03  0.26374415015E+03  0.00000000000E+00 0.  1.
<scales pt_clust_3="86.70635" pt_clust_4="58.69594" pt_clust_5="14000.00000" pt_clust_6="31.34341"></scales>
<clustering>
<clus scale="   31.343">  1  6  2 -1</clus>
<clus scale="   58.696">  1  4  2 -1</clus>
<clus scale="   86.706">  2  3  1 -1</clus>
<clus scale="   86.706">  2  3  1 -1</clus>
</clustering>
</event>
<event>
 6    0  0.6338511E+002  0.1175239E+03  0.7546771E-02  0.1247239E+00
         21   -1    0    0  503  502  0.00000000000E+00  0.00000000000E+00  0.96234447329E+02  0.96234447329E+02  0.00000000000E+00 0. -1.
          1   -1    0    0  504    0 -0.00000000000E+00 -0.00000000000E+00 -0.11128989161E+04  0.11128989161E+04  0.00000000000E+00 0. -1.
         21    1    1    2  503  505  0.39838285767E+02  0.33416787920E+02  0.49542937973E+02  0.71821121063E+02  0.00000000000E+00 0. -1.
         21    1    1    2  504  502 -0.11602079016E+03 -0.54410434573E+02 -0.62368894574E+03  0.63671753562E+03  0.00000000000E+00 0. -1.
         21    1    1    2  505  501  0.52777292616E+02  0.57814019257E+02 -0.27021637515E+02  0.82813479172E+02  0.00000000000E+00 0. -1.
          1    1    1    2  501    0  0.23405211775E+02 -0.36820372605E+02 -0.41549682345E+03  0.41778122753E+03  0.00000000000E+00 0. -1.
<scales pt_clust_3="51.91072" pt_clust_4="117.52393" pt_clust_5="14000.00000" pt_clust_6="43.62962"></scales>
<clustering>
<clus scale="   43.630">  2  6  1 -1</clus>
<clus scale="   51.911">  1  3  2 -1</clus>
<clus scale="  117.524">  2  4  1 -1</clus>
<clus scale="   51.911">  1  3  2 -1</clus>
</clustering>
</event>
<event>
 6    0  0.6338511E+002  0.9282157E+02  0.7546771E-02  0.1296159E+00
          4   -1    0    0  503    0 -0.00000000000E+00  0.00000000000E+00  0.66295890751E+03  0.66295890751E+03  0.00000000000E+00 0. -1.
         21   -1    0    0  504  502  0.00000000000E+00 -0.00000000000E+00 -0.17749029978E+03  0.17749029978E+03  0.00000000000E+00 0. -1.
         21    1    1    2  503  505 -0.95078979230E+02 -0.77147007007E+02  0.84085775213E+02  0.14853312955E+03  0.00000000000E+00 0. -1.
         21    1    1    2  504  501 -0.30206174752E+02  0.25277333534E+02 -0.20504883114E+02  0.44405031419E+02  0.00000000000E+00 0. -1.
         21    1    1    2  505  502  0.40083747937E+02  0.22655432912E+02 -0.10412065792E+03  0.11384676936E+03  0.00000000000E+00 0. -1.
          4    1    1    2  501    0  0.85201406046E+02  0.29214240562E+02  0.52600837356E+03  0.53366427695E+03  0.00000000000E+00 0. -1.
<scales pt_clust_3="92.82157" pt_clust_4="39.38726" pt_clust_5="45.13265" pt_clust_6="14000.00000"></scales>
<clustering>
<clus scale="   39.387">  2  4  1 -1</clus>
<clus scale="   45.133">  2  5  1 -1</clus>
<clus scale="   92.822">  2  3  1 -1</clus>
<clus scale="   39.387">  2  3  1 -1</clus>
</clustering>
</event>
<event>
 6    0  0.6338511E+002  0.2200092E+03  0.7546771E-02  0.1133876E+00
         -2   -1    0    0    0  501 -0.00000000000E+00  0.00000000000E+00  0.66224930662E+03  0.66224930662E+03  0.00000000000E+00 0. -1.
         21   -1    0    0  503  502  0.00000000000E+00 -0.00000000000E+00 -0.45361774984E+03  0.45361774984E+03  0.00000000000E+00 0. -1.
         21    1    1    2  503  504  0.35657814393E+02 -0.19620509268E+03 -0.27338571425E+03  0.33838981497E+03  0.00000000000E+00 0. -1.
         21    1    1    2  504  501 -0.30031229391E+02  0.25361778889E+03 -0.54098424535E+00  0.25539019215E+03  0.00000000000E+00 0. -1.
         21    1    1    2  505  502 -0.26956235443E+02 -0.16738260094E+02 -0.52153382557E+01  0.32155990630E+02  0.00000000000E+00 0.  1.
         -2    1    1    2    0  505  0.21329650441E+02 -0.40674436125E+02  0.48777359354E+03  0.48993105871E+03  0.00000000000E+00 0. -1.
<scales pt_clust_3="220.00924" pt_clust_4="14000.00000" pt_clust_5="31.73024" pt_clust_6="45.93359"></scales>
<clustering>
<clus scale="   31.730">  2  5  1 -1</clus>
<clus scale="   45.934">  1  6  2 -1</clus>
<clus scale="  220.009">  2  3  1 -1</clus>
<clus scale="   31.730">  2  3  1 -1</clus>
</clustering>
</event>
<event>
 6    0  0.6338511E+002  0.8340921E+02  0.7546771E-02  0.1319646E+00
         21   -1    0    0  503  502  0.00000000000E+00  0.00000000000E+00  0.75256050070E+02  0.75256050070E+02  0.00000000000E+00 0. -1.
          1   -1    0    0  504    0 -0.00000000000E+00 -0.00000000000E+00 -0.15257369875E+04  0.15257369875E+04  0.00000000000E+00 0.  1.
         21    1    1    2  503  501 -0.32561287989E+02  0.64544607857E+02 -0.48883563087E+02  0.87268818137E+02  0.00000000000E+00 0. -1.
         21    1    1    2  504  505  0.11030545557E+02  0.31433336861E+02 -0.36801530206E+03  0.36951994554E+03  0.00000000000E+00 0.  1.
         21    1    1    2  505  502 -0.50109143952E+02 -0.36809295815E+02  0.35161364433E+02  0.71429490512E+02  0.00000000000E+00 0. -1.
          1    1    1    2  501    0  0.71639886384E+02 -0.59168648902E+02 -0.10687434367E+04  0.10727747833E+04  0.00000000000E+00 0.  1.
<scales pt_clust_3="83.40921" pt_clust_4="33.31257" pt_clust_5="61.74566" pt_clust_6="14000.00000"></scales>
<clustering>
<clus scale="   33.313">  2  4  1 -1</clus>
<clus scale="   61.746">  1  5  2 -1</clus>
<clus scale="   83.409">  1  3  2 -1</clus>
<clus scale="   61.746">  1  3  2 -1</clus>
</clustering>
</event>
<event>
 6    0  0.6338511E+002  0.1304419E+03  0.7546771E-02  0.1226802E+00
         21   -1    0    0  503  502  0.00000000000E+00  0.00000000000E+00  0.19071289633E+03  0.19071289633E+03  0.00000000000E+00 0. -1.
          2   -1    0    0  504    0 -0.00000000000E+00 -0.00000000000E+00 -0.37217241755E+04  0.37217241755E+04  0.00000000000E+00 0. -1.
         21    1    1    2  503  505  0.46533539291E+02  0.16097977512E+02  0.14151724237E+03  0.14983873013E+03  0.00000000000E+00 0. -1.
         21    1    1    2  504  502  0.30657879895E+02 -0.10524630077E+02  0.20159835922E+02  0.38171879994E+02  0.00000000000E+00 0. -1.
         21    1    1    2  505  501 -0.37190802780E+02 -0.13111759456E+03 -0.30371995568E+03  0.33289756817E+03  0.00000000000E+00 0. -1.
          2    1    1    2  501    0 -0.40000616406E+02  0.12554424713E+03 -0.33889684018E+04  0.33915288935E+04  0.00000000000E+00 0. -1.
<scales pt_clust_3="74.47351" pt_clust_4="32.41409" pt_clust_5="130.44188" pt_clust_6="14000.00000"></scales>
<clustering>
<clus scale="   32.414">  1  4  2 -1</clus>
<clus scale="   74.474">  1  3  2 -1</clus>
<clus scale="  130.442">  1  5  2 -1</clus>
<clus scale="   32.414">  1  3  2 -1</clus>
</clustering>
</event>
<event>
 6    0  0.6338511E+002  0.1129031E+03  0.7546771E-02  0.1255286E+00
         21   -1    0    0  505  502  0.00000000000E+00  0.00000000000E+00  0.57655153117E+02  0.57655153117E+02  0.00000000000E+00 0.  1.
          1   -1    0    0  504    0 -0.00000000000E+00 -0.00000000000E+00 -0.37476260784E+04  0.37476260784E+04  0.00000000000E+00 0.  1.
         21    1    1    2  503  502  0.71042353971E+02 -0.92662223963E+02 -0.24194361389E+02  0.11924206863E+03  0.00000000000E+00 0.  1.
         21    1    1    2  504  503 -0.10367697327E+03 -0.41958324826E+01 -0.26044704130E+04  0.26065365242E+04  0.00000000000E+00 0.  1.
         21    1    1    2  505  501  0.39932638287E+02  0.62843632823E+02 -0.14933168263E+03  0.16686488314E+03  0.00000000000E+00 0.  1.
          1    1    1    2  501    0 -0.72980189885E+01  0.34014423622E+02 -0.91197446832E+03  0.91263775561E+03  0.00000000000E+00 0.  1.
<scales pt_clust_3="112.90309" pt_clust_4="14000.00000" pt_clust_5="75.85239" pt_clust_6="34.78853"></scales>
<clustering>
<clus scale="   34.789">  2  6  1 -1</clus>
<clus scale="   75.852">  1  5  2 -1</clus>
<clus scale="  112.903">  1  3  2 -1</clus>
<clus scale="   75.852">  1  3  2 -1</clus>
</clustering>
</event>
<event>
 6    0  0.6338511E+002  0.1362357E+03  0.7546771E-02  0.1218486E+00
         21   -1    0    0  503  502  0.00000000000E+00  0.00000000000E+00  0.41287875503E+03  0.41287875503E+03  0.00000000000E+00 0. -1.
          1   -1    0    0  505    0 -0.00000000000E+00 -0.00000000000E+00 -0.48133236894E+03  0.48133236894E+03  0.00000000000E+00 0. -1.
         21    1    1    2  503  504 -0.25287762598E+02  0.12386859747E+03  0.23627718048E+03  0.26797351807E+03  0.00000000000E+00 0. -1.
         21    1    1    2  504  501 -0.62847731894E+02  0.56824307108E+02 -0.40789232833E+02  0.94035104071E+02  0.00000000000E+00 0. -1.
         21    1    1    2  505  502  0.59169295191E+02 -0.16148522621E+03  0.77754150325E+02  0.18874371955E+03  0.00000000000E+00 0. -1.
          1    1    1    2  501    0  0.28966199301E+02 -0.19207678363E+02 -0.34169571188E+03  0.34345878228E+03  0.00000000000E+00 0. -1.
<scales pt_clust_3="14000.00000" pt_clust_4="68.07741" pt_clust_5="136.23570" pt_clust_6="34.75594"></scales>
<clustering>
<clus scale="   34.756">  2  6  1 -1</clus>
<clus scale="   68.077">  2  4  1 -1</clus>
<clus scale="  136.236">  2  5  1 -1</clus>
<clus scale="  136.236">  1  3  2 -1</clus>
</clustering>
</event>
<event>
 6    0  0.6338511E+002  0.1200795E+03  0.7546771E-02  0.1242966E+00
          1   -1    0    0  503    0 -0.00000000000E+00  0.00000000000E+00  0.26752570521E+03  0.26752570521E+03  0.00000000000E+00 0. -1.
         21   -1    0    0  505  502  0.00000000000E+00 -0.00000000000E+00 -0.46293456826E+03  0.46293456826E+03  0.00000000000E+00 0. -1.
         21    1    1    2  503  502  0.53678356046E+02  0.11140258520E+02 -0.89542976037E+01  0.55548633766E+02  0.00000000000E+00 0.  1.
         21    1    1    2  504  501 -0.29572485528E+02 -0.44051662466E+02  0.41313135048E+02  0.67244746960E+02  0.00000000000E+00 0.  1.
         21    1    1    2  505  504 -0.25111902744E+01  0.10359566312E+03 -0.40372780504E+03  0.41681471670E+03  0.00000000000E+00 0. -1.
          1    1    1    2  501    0 -0.21594680244E+02 -0.70684259176E+02  0.17596010454E+03  0.19085217604E+03  0.00000000000E+00 0. -1.
<scales pt_clust_3="54.82218" pt_clust_4="51.00516" pt_clust_5="103.89968" pt_clust_6="51.00516"></scales>
<clustering>
<clus scale="   51.005">  4  6 -1 -1</clus>
<clus scale="   54.822">  1  3  2 -1</clus>
<clus scale="  103.900">  2  5  1 -1</clus>
<clus scale="  103.900">  2  3  1 -1</clus>
</clustering>
</event>
<event>
 6    0  0.6338511E+002  0.1501607E+03  0.7546771E-02  0.1200276E+00
          2   -1    0    0  504    0 -0.00000000000E+00  0.00000000000E+00  0.69645788113E+03  0.69645788113E+03  0.00000000000E+00 0.  1.
         21   -1    0    0  503  502  0.00000000000E+00 -0.00000000000E+00 -0.77407700484E+03  0.77407700484E+03  0.00000000000E+00 0. -1.
         21    1    1    2  503  505  0.49594724064E+02  0.78411337410E+02 -0.23226484984E+03  0.25010984579E+03  0.00000000000E+00 0. -1.
         21    1    1    2  504  502 -0.14616663073E+03  0.57874063440E+02  0.29972066031E+02  0.16003879498E+03  0.00000000000E+00 0.  1.
         21    1    1    2  505  501  0.10647732493E+03 -0.83903199585E+02 -0.45679139222E+03  0.47648246939E+03  0.00000000000E+00 0. -1.
          2    1    1    2  501    0 -0.99054182665E+01 -0.52382201265E+02  0.58146505233E+03  0.58390377581E+03  0.00000000000E+00 0.  1.
<scales pt_clust_3="88.90543" pt_clust_4="14000.00000" pt_clust_5="150.16070" pt_clust_6="53.31053"></scales>
<clustering>
<clus scale="   53.311">  1  6  2 -1</clus>
<clus scale="   88.905">  2  3  1 -1</clus>
<clus scale="  150.161">  2  5  1 -1</clus>
<clus scale="   88.905">  2  3  1 -1</clus>
</clustering>
</event>
<event>
 6    0  0.6338511E+002  0.1217468E+03  0.7546771E-02  0.1240243E+00
         -3   -1    0    0    0  501 -0.00000000000E+00  0.00000000000E+00  0.20611012443E+04  0.20611012443E+04  0.00000000000E+00 0. -1.
         21   -1    0    0  503  502  0.00000000000E+00 -0.00000000000E+00 -0.24756887690E+02  0.24756887690E+02  0.00000000000E+00 0. -1.
         21    1    1    2  503  504  0.33759049868E+02  0.47614676969E+02  0.63079215302E+02  0.85940783764E+02  0.00000000000E+00 0. -1.
         21    1    1    2  504  505  0.94522514665E+02 -0.42126794466E+02  0.33951741118E+03  0.35493836801E+03  0.00000000000E+00 0. -1.
         21    1    1    2  505  501  0.14193718253E+02 -0.40135663053E+02  0.26469024144E+03  0.26809188163E+03  0.00000000000E+00 0. -1.
         -3    1    1    2    0  502 -0.14247528279E+03  0.34647780550E+02  0.13690574886E+04  0.13768870985E+04  0.00000000000E+00 0. -1.
<scales pt_clust_3="57.36777" pt_clust_4="121.74682" pt_clust_5="42.57151" pt_clust_6="14000.00000"></scales>
<clustering>
<clus scale="   42.572">  1  5  2 -1</clus>
<clus scale="   57.368">  2  3  1 -1</clus>
<clus scale="  121.747">  2  4  1 -1</clus>
<clus scale="   57.368">  2  3  1 -1</clus>
</clustering>
</event>
<event>
 6    0  0.6338511E+002  0.1204913E+03  0.7546771E-02  0.1242289E+00
          1   -1    0    0  504    0 -0.00000000000E+00  0.00000000000E+00  0.10679572237E+04  0.10679572237E+04  0.00000000000E+00 0.  1.
         21   -1    0    0  503  502  0.00000000000E+00 -0.00000000000E+00 -0.25730170025E+03  0.25730170025E+03  0.00000000000E+00 0. -1.
         21    1    1    2  503  505  0.18870689222E+02  0.79864867876E+02 -0.96077437239E+02  0.12635416091E+03  0.00000000000E+00 0. -1.
         21    1    1    2  504  502 -0.86789421277E+02  0.42022795044E+02 -0.11646057484E+03  0.15119981627E+03  0.00000000000E+00 0. -1.
         21    1    1    2  505  501  0.38323255618E+02 -0.78029369902E+02  0.15352934744E+03  0.17643274927E+03  0.00000000000E+00 0.  1.
          1    1    1    2  501    0  0.29595476437E+02 -0.43858293018E+02  0.86966418812E+03  0.87127219753E+03  0.00000000000E+00 0.  1.
<scales pt_clust_3="79.36984" pt_clust_4="120.49131" pt_clust_5="14000.00000" pt_clust_6="52.90975"></scales>
<clustering>
<clus scale="   52.910">  1  6  2 -1</clus>
<clus scale="   79.370">  2  3  1 -1</clus>
<clus scale="  120.491">  2  4  1 -1</clus>
<clus scale="   79.370">  2  3  1 -1</clus>
</clustering>
</event>
<event>
 6    0  0.6338511E+002  0.1988730E+03  0.7546771E-02  0.1150693E+00
         21   -1    0    0  504  502  0.00000000000E+00  0.00000000000E+00  0.65658188311E+03  0.65658188311E+03  0.00000000000E+00 0.  1.
          1   -1    0    0  505    0 -0.00000000000E+00 -0.00000000000E+00 -0.34755296128E+04  0.34755296128E+04  0.00000000000E+00 0. -1.
         21    1    1    2  503  502  0.54216171355E+02  0.35154537560E+02  0.24355803149E+03  0.25198362933E+03  0.00000000000E+00 0.  1.
         21    1    1    2  504  501 -0.59200527274E+02  0.12692959952E+03 -0.80221226337E+02  0.16140406072E+03  0.00000000000E+00 0.  1.
         21    1    1    2  505  503  0.51023617079E+02 -0.22352919951E+03  0.33204073982E+03  0.40350931270E+03  0.00000000000E+00 0.  1.
          1    1    1    2  501    0 -0.46039261160E+02  0.61445062439E+02 -0.33143252746E+04  0.33152144931E+04  0.00000000000E+00 0. -1.
<scales pt_clust_3="64.61606" pt_clust_4="198.87298" pt_clust_5="14000.00000" pt_clust_6="76.77489"></scales>
<clustering>
<clus scale="   64.616">  1  3  2 -1</clus>
<clus scale="   76.775">  2  6  1 -1</clus>
<clus scale="  198.873">  2  4  1 -1</clus>
<clus scale="   64.616">  1  3  2 -1</clus>
</clustering>
</event>
<event>
 6    0  0.6338511E+002  0.1999016E+03  0.7546771E-02  0.1149822E+00
         21   -1    0    0  505  502  0.00000000000E+00  0.00000000000E+00  0.10031840090E+03  0.10031840090E+03  0.00000000000E+00 0. -1.
          1   -1    0    0  503    0 -0.00000000000E+00 -0.00000000000E+00 -0.12207335798E+04  0.12207335798E+04  0.00000000000E+00 0. -1.
         21    1    1    2  503  502 -0.12935597308E+03 -0.94350728311E+02 -0.67177466375E+02  0.17363133269E+03  0.00000000000E+00 0. -1.
         21    1    1    2  504  501  0.13226126063E+03  0.86654806315E+02 -0.22629425138E+03  0.27606373309E+03  0.00000000000E+00 0. -1.
         21    1    1    2  505  504  0.70004217691E+02 -0.81050592392E+01 -0.40294419325E+02  0.81178338912E+02  0.00000000000E+00 0. -1.
          1    1    1    2  501    0 -0.72909505239E+02  0.15800981236E+02 -0.78664904187E+03  0.79017857604E+03  0.00000000000E+00 0. -1.
<scales pt_clust_3="174.61292" pt_clust_4="64.96979" pt_clust_5="64.96979" pt_clust_6="74.60206"></scales>
<clustering>
<clus scale="   64.970">  4  5 -1 -1</clus>
<clus scale="   74.602">  2  6  1 -1</clus>
<clus scale="  174.613">  1  3  2 -1</clus>
<clus scale="  174.613">  1  3  2 -1</clus>
</clustering>
</event>
<event>
 6    0  0.6338511E+002  0.2778838E+03  0.7546771E-02  0.1096850E+00
         -1   -1    0    0    0  501 -0.00000000000E+00  0.00000000000E+00  0.92748479047E+03  0.92748479047E+03  0.00000000000E+00 0.  1.
         21   -1    0    0  503  502  0.00000000000E+00 -0.00000000000E+00 -0.27954653970E+03  0.27954653970E+03  0.00000000000E+00 0.  1.
         21    1    1    2  503  501 -0.34302563905E+02 -0.10055264944E+03  0.19774491211E+03  0.22447839866E+03  0.00000000000E+00 0.  1.
         21    1    1    2  504  502 -0.25086260932E+03  0.12159745753E+03 -0.50496148309E+02  0.28331581570E+03  0.00000000000E+00 0.  1.
         21    1    1    2  505  504  0.29873378425E+03  0.10874628312E+02  0.12840896290E+03  0.32534442234E+03  0.00000000000E+00 0.  1.
         -1    1    1    2    0  505 -0.13568611031E+02 -0.31919436402E+02  0.37228052407E+03  0.37389269347E+03  0.00000000000E+00 0.  1.
<scales pt_clust_3="119.41855" pt_clust_4="14000.00000" pt_clust_5="277.88376" pt_clust_6="34.68368"></scales>
<clustering>
<clus scale="   34.684">  1  6  2 -1</clus>
<clus scale="  119.419">  1  3  2 -1</clus>
<clus scale="  277.884">  1  5  2 -1</clus>
<clus scale="  277.884">  2  3  1 -1</clus>
</clustering>
</event>
<event>
 6    0  0.6338511E+002  0.1709608E+03  0.7546771E-02  0.1176850E+00
          2   -1    0    0  503    0 -0.00000000000E+00  0.00000000000E+00  0.19017953328E+04  0.19017953328E+04  0.00000000000E+00 0. -1.
         21   -1    0    0  505  502  0.00000000000E+00 -0.00000000000E+00 -0.17551360010E+03  0.17551360010E+03  0.00000000000E+00 0. -1.
         21    1    1    2  503  504  0.51507496097E+02 -0.10025805304E+03  0.44855574667E+02  0.12131249701E+03  0.00000000000E+00 0. -1.
         21    1    1    2  504  502  0.19163364749E+02  0.67301419367E+02 -0.60481559629E+02  0.92491808570E+02  0.00000000000E+00 0. -1.
         21    1    1    2  505  501 -0.20745503772E+03  0.12584900562E+03  0.20477119367E+03  0.31750087661E+03  0.00000000000E+00 0. -1.
          2    1    1    2  501    0  0.13678417688E+03 -0.92892371951E+02  0.15371365240E+04  0.15460037507E+04  0.00000000000E+00 0. -1.
<scales pt_clust_3="94.79928" pt_clust_4="69.97654" pt_clust_5="14000.00000" pt_clust_6="170.96076"></scales>
<clustering>
<clus scale="   69.977">  2  4  1 -1</clus>
<clus scale="   94.799">  2  3  1 -1</clus>
<clus scale="  170.961">  1  6  2 -1</clus>
<clus scale="   69.977">  2  3  1 -1</clus>
</clustering>
</event>
<event>
 6    0  0.6338511E+002  0.2026129E+03  0.7546771E-02  0.1147553E+00
          1   -1    0    0  502    0 -0.00000000000E+00  0.00000000000E+00  0.12537592414E+03  0.12537592414E+03  0.00000000000E+00 0. -1.
         21   -1    0    0  503  502  0.00000000000E+00 -0.00000000000E+00 -0.71129199680E+03  0.71129199680E+03  0.00000000000E+00 0. -1.
         21    1    1    2  503  504  0.29934856587E+02  0.29673599536E+02 -0.13690666184E+03  0.14324821885E+03  0.00000000000E+00 0.  1.
         21    1    1    2  504  505  0.14879304317E+03  0.43664747271E+02 -0.27624178197E+03  0.31678936528E+03  0.00000000000E+00 0. -1.
         21    1    1    2  505  501 -0.20039631231E+03 -0.11561263812E+02 -0.21855010715E+03  0.29674314506E+03  0.00000000000E+00 0. -1.
          1    1    1    2  501    0  0.21668412548E+02 -0.61777082995E+02  0.45782478303E+02  0.79887191747E+02  0.00000000000E+00 0. -1.
<scales pt_clust_3="31.37171" pt_clust_4="31.37171" pt_clust_5="193.47150" pt_clust_6="65.46700"></scales>
<clustering>
<clus scale="   31.372">  3  4 -1 -1</clus>
<clus scale="   65.467">  1  6  2 -1</clus>
<clus scale="  193.472">  1  5  2 -1</clus>
<clus scale="  202.613">  2  3  1 -1</clus>
</clustering>
</event>
<event>
 6    0  0.6338511E+002  0.2311566E+03  0.7546771E-02  0.1125828E+00
         -1   -1    0    0    0  501 -0.00000000000E+00  0.00000000000E+00  0.82139385367E+02  0.82139385367E+02  0.00000000000E+00 0.  1.
         21   -1    0    0  504  502  0.00000000000E+00 -0.00000000000E+00 -0.22669833402E+04  0.22669833402E+04  0.00000000000E+00 0.  1.
         21    1    1    2  503  501  0.18450463544E+03 -0.14111512051E+03 -0.43990538640E+03  0.49746576436E+03  0.00000000000E+00 0.  1.
         21    1    1    2  504  503 -0.30280769496E+02 -0.29874478270E+02 -0.22717779657E+03  0.23112585469E+03  0.00000000000E+00 0. -1.
         21    1    1    2  505  502 -0.12875011704E+03  0.19814671080E+03 -0.15520365342E+04  0.15699223277E+04  0.00000000000E+00 0.  1.
         -1    1    1    2    0  505 -0.25473748896E+02 -0.27157112020E+02  0.34275762269E+02  0.50608778835E+02  0.00000000000E+00 0.  1.
<scales pt_clust_3="231.15663" pt_clust_4="44.38740" pt_clust_5="14000.00000" pt_clust_6="37.23467"></scales>
<clustering>
<clus scale="   37.235">  1  6  2 -1</clus>
<clus scale="   44.387">  2  4  1 -1</clus>
<clus scale="  231.157">  1  3  2 -1</clus>
<clus scale="   44.387">  2  3  1 -1</clus>
</clustering>
</event>
<event>
 6    0  0.6338511E+002  0.7228787E+02  0.7546771E-02  0.1352481E+00
          2   -1    0    0  505    0 -0.00000000000E+00  0.00000000000E+00  0.41280470201E+03  0.41280470201E+03  0.00000000000E+00 0.  1.
         21   -1    0    0  503  502  0.00000000000E+00 -0.00000000000E+00 -0.80123638994E+02  0.80123638994E+02  0.00000000000E+00 0.  1.
         21    1    1    2  503  504  0.99311400753E+01 -0.42921768808E+02 -0.14862584607E+02  0.46495184719E+02  0.00000000000E+00 0.  1.
         21    1    1    2  504  501 -0.76084567682E+02  0.69121812878E+02  0.49455613734E+02  0.11407253914E+03  0.00000000000E+00 0.  1.
         21    1    1    2  505  502  0.26769976087E+02  0.30023480018E+02  0.18151852663E+02  0.44130836466E+02  0.00000000000E+00 0.  1.
          2    1    1    2  501    0  0.39383451520E+02 -0.56223524088E+02  0.27993618123E+03  0.28822978069E+03  0.00000000000E+00 0.  1.
<scales pt_clust_3="36.66062" pt_clust_4="14000.00000" pt_clust_5="40.22488" pt_clust_6="72.28787"></scales>
<clustering>
<clus scale="   40.225">  2  5  1 -1</clus>
<clus scale="   36.661">  2  3  1 -1</clus>
<clus scale="   72.288">  1  6  2 -1</clus>
<clus scale="   40.225">  2  3  1 -1</clus>
</clustering>
</event>
<event>
 6    0  0.6338511E+002  0.8283646E+02  0.7546771E-02  0.1321189E+00
         21   -1    0    0  503  502  0.00000000000E+00  0.00000000000E+00  0.21074583797E+04  0.21074583797E+04  0.00000000000E+00 0.  1.
          1   -1    0    0  504    0 -0.00000000000E+00 -0.00000000000E+00 -0.64842089272E+03  0.64842089272E+03  0.00000000000E+00 0. -1.
         21    1    1    2  503  501 -0.88705436819E+02 -0.18820426152E+02  0.27875170534E+03  0.29313030583E+03  0.00000000000E+00 0. -1.
         21    1    1    2  504  505  0.70668235652E+02 -0.84916440487E+02  0.19469416296E+03  0.22385401155E+03  0.00000000000E+00 0. -1.
         21    1    1    2  505  502 -0.13733715713E+02  0.80680482864E+02  0.16105884904E+04  0.16126665001E+04  0.00000000000E+00 0.  1.
          1    1    1    2  501    0  0.31770916880E+02  0.23056383774E+02 -0.62499687175E+03  0.62622845487E+03  0.00000000000E+00 0. -1.
<scales pt_clust_3="79.53458" pt_clust_4="82.83646" pt_clust_5="14000.00000" pt_clust_6="39.25542"></scales>
<clustering>
<clus scale="   39.255">  2  6  1 -1</clus>
<clus scale="   79.535">  2  3  1 -1</clus>
<clus scale="   82.836">  2  4  1 -1</clus>
<clus scale="   82.836">  1  3  2 -1</clus>
</clustering>
</event>
<event>
 6    0  0.6338511E+002  0.8569462E+02  0.7546771E-02  0.1313626E+00
         21   -1    0    0  503  502  0.00000000000E+00  0.00000000000E+00  0.68682112358E+03  0.68682112358E+03  0.00000000000E+00 0.  1.
          2   -1    0    0  504    0 -0.00000000000E+00 -0.00000000000E+00 -0.26085665781E+03  0.26085665781E+03  0.00000000000E+00 0.  1.
         21    1    1    2  503  501  0.96006261846E+02 -0.84518459090E+00  0.16163376081E+03  0.18799837575E+03  0.00000000000E+00 0.  1.
         21    1    1    2  504  505 -0.68220819399E+02  0.64576193574E+02  0.17260967311E+03  0.19651530278E+03  0.00000000000E+00 0.  1.
         21    1    1    2  505  502 -0.27141909636E+02  0.22847355431E+02  0.31847389315E+03  0.32044391948E+03  0.00000000000E+00 0.  1.
          2    1    1    2  501    0 -0.64353281081E+00 -0.86578364414E+02 -0.22675286129E+03  0.24272018339E+03  0.00000000000E+00 0.  1.
<scales pt_clust_3="83.69313" pt_clust_4="14000.00000" pt_clust_5="35.47795" pt_clust_6="85.69462"></scales>
<clustering>
<clus scale="   35.478">  1  5  2 -1</clus>
<clus scale="   83.693">  1  3  2 -1</clus>
<clus scale="   85.695">  2  6  1 -1</clus>
<clus scale="   35.478">  1  3  2 -1</clus>
</clustering>
</event>
<event>
 6    0  0.6338511E+002  0.1086461E+03  0.7546771E-02  0.1263098E+00
         -4   -1    0    0    0  501 -0.00000000000E+00  0.00000000000E+00  0.51772241852E+03  0.51772241852E+03  0.00000000000E+00 0.  1.
         21   -1    0    0  504  502  0.00000000000E+00 -0.00000000000E+00 -0.97037484542E+02  0.97037484542E+02  0.00000000000E+00 0. -1.
         21    1    1    2  503  501 -0.15952740881E+03 -0.51359055149E+02  0.16024089298E+03  0.23187041745E+03  0.00000000000E+00 0. -1.
         21    1    1    2  504  503  0.37519556445E+02  0.54152722976E+01  0.23331112878E+02  0.44512729843E+02  0.00000000000E+00 0. -1.
         21    1    1    2  505  502  0.28997614055E+02  0.24938056401E+02 -0.33882084981E+02  0.51095635436E+02  0.00000000000E+00 0. -1.
         -4    1    1    2    0  505  0.93010238305E+02  0.21005726450E+02  0.27099501309E+03  0.28728112032E+03  0.00000000000E+00 0.  1.
<scales pt_clust_3="108.64614" pt_clust_4="37.90834" pt_clust_5="54.88319" pt_clust_6="14000.00000"></scales>
<clustering>
<clus scale="   37.908">  2  4  1 -1</clus>
<clus scale="   54.883">  2  5  1 -1</clus>
<clus scale="  108.646">  2  3  1 -1</clus>
<clus scale="   37.908">  2  3  1 -1</clus>
</clustering>
</event>
<event>
 6    0  0.6338511E+002  0.6914698E+02  0.7546771E-02  0.1363018E+00
          2   -1    0    0  503    0 -0.00000000000E+00  0.00000000000E+00  0.46110662586E+04  0.46110662586E+04  0.00000000000E+00 0. -1.
         21   -1    0    0  504  502  0.00000000000E+00 -0.00000000000E+00 -0.17832657846E+03  0.17832657846E+03  0.00000000000E+00 0.  1.
         21    1    1    2  503  502  0.10261886999E+03 -0.52455783032E+02  0.35646551939E+04  0.35665177545E+04  0.00000000000E+00 0. -1.
         21    1    1    2  504  505 -0.19732439496E+02  0.66250656214E+02 -0.16799925466E+03  0.18166526411E+03  0.00000000000E+00 0.  1.
         21    1    1    2  505  501 -0.41694029931E+02 -0.31202321725E+02  0.37272831942E+03  0.37634874400E+03  0.00000000000E+00 0. -1.
          2    1    1    2  501    0 -0.41192400558E+02  0.17407448543E+02  0.66335542154E+03  0.66486107452E+03  0.00000000000E+00 0. -1.
<scales pt_clust_3="14000.00000" pt_clust_4="69.14698" pt_clust_5="54.34018" pt_clust_6="44.71949"></scales>
<clustering>
<clus scale="   44.719">  1  6  2 -1</clus>
<clus scale="   54.340">  1  5  2 -1</clus>
<clus scale="   69.147">  2  4  1 -1</clus>
<clus scale="   69.147">  2  3  1 -1</clus>
</clustering>
</event>
<event>
 6    0  0.6338511E+002  0.1356158E+03  0.7546771E-02  0.1219353E+00
         21   -1    0    0  501  502  0.00000000000E+00  0.00000000000E+00  0.12276704593E+04  0.12276704593E+04  0.00000000000E+00 0. -1.
          2   -1    0    0  503    0 -0.00000000000E+00 -0.00000000000E+00 -0.40068788408E+03  0.40068788408E+03  0.00000000000E+00 0. -1.
         21    1    1    2  503  505  0.85810537595E+02 -0.10779646398E+03  0.16961044046E+03  0.21852054256E+03  0.00000000000E+00 0. -1.
         21    1    1    2  504  502 -0.26814920665E+02 -0.14280977312E+02  0.33156128128E+03  0.33295025083E+03  0.00000000000E+00 0.  1.
         21    1    1    2  505  504  0.46970886687E+02  0.15519611771E+03  0.68344535766E+03  0.70241701009E+03  0.00000000000E+00 0. -1.
          2    1    1    2  501    0 -0.10596650362E+03 -0.33118676420E+02 -0.35763450422E+03  0.37447053986E+03  0.00000000000E+00 0. -1.
<scales pt_clust_3="135.61582" pt_clust_4="30.38069" pt_clust_5="14000.00000" pt_clust_6="111.30206"></scales>
<clustering>
<clus scale="   30.381">  1  4  2 -1</clus>
<clus scale="  111.302">  2  6  1 -1</clus>
<clus scale="  135.616">  2  3  1 -1</clus>
<clus scale="   30.381">  1  3  2 -1</clus>
</clustering>
</event>
<event>
 6    0  0.6338511E+002  0.1008718E+03  0.7546771E-02  0.1278473E+00
         21   -1    0    0  504  502  0.00000000000E+00  0.00000000000E+00  0.73559719491E+03  0.73559719491E+03  0.00000000000E+00 0. -1.
          2   -1    0    0  503    0 -0.00000000000E+00 -0.00000000000E+00 -0.20806938035E+03  0.20806938035E+03  0.00000000000E+00 0.  1.
         21    1    1    2  503  505 -0.31201353368E+01  0.47419079909E+02  0.62563763491E+01  0.47931687107E+02  0.00000000000E+00 0. -1.
         21    1    1    2  504  501  0.50851173281E+02 -0.97774426538E+01  0.14601990247E+03  0.15492982969E+03  0.00000000000E+00 0. -1.
         21    1    1    2  505  502 -0.28851428687E+02 -0.92287773816E+02  0.54912408028E+03  0.55757214212E+03  0.00000000000E+00 0. -1.
          2    1    1    2  501    0 -0.18879609257E+02  0.54646136561E+02 -0.17387254454E+03  0.18323291635E+03  0.00000000000E+00 0.  1.
<scales pt_clust_3="47.52162" pt_clust_4="51.50830" pt_clust_5="100.87182" pt_clust_6="14000.00000"></scales>
<clustering>
<clus scale="   47.522">  2  3  1 -1</clus>
<clus scale="   51.508">  1  4  2 -1</clus>
<clus scale="  100.872">  1  5  2 -1</clus>
<clus scale="   51.508">  1  3  2 -1</clus>
</clustering>
</event>
<event>
 6    0  0.6338511E+002  0.9047742E+02  0.7546771E-02  0.1301700E+00
         21   -1    0    0  501  502  0.00000000000E+00  0.00000000000E+00  0.35745013723E+02  0.35745013723E+02  0.00000000000E+00 0.  1.
          2   -1    0    0  504    0 -0.00000000000E+00 -0.00000000000E+00 -0.13723085363E+04  0.13723085363E+04  0.00000000000E+00 0.  1.
         21    1    1    2  503  505  0.62073712703E+02 -0.33437075896E+02 -0.71376571282E+02  0.10032845449E+03  0.00000000000E+00 0.  1.
         21    1    1    2  504  503  0.13429250846E+02 -0.35321407485E+02 -0.34398926185E+03  0.34605860612E+03  0.00000000000E+00 0.  1.
         21    1    1    2  505  502  0.29981137280E+02  0.18291130629E+02 -0.21247670039E+01  0.35184494982E+02  0.00000000000E+00 0.  1.
          2    1    1    2  501    0 -0.10548410083E+03  0.50467352752E+02 -0.91907292240E+03  0.92648199438E+03  0.00000000000E+00 0.  1.
<scales pt_clust_3="14000.00000" pt_clust_4="37.48741" pt_clust_5="35.12028" pt_clust_6="90.47742"></scales>
<clustering>
<clus scale="   35.120">  1  5  2 -1</clus>
<clus scale="   37.487">  2  4  1 -1</clus>
<clus scale="   90.477">  2  6  1 -1</clus>
<clus scale="   35.120">  1  3  2 -1</clus>
</clustering>
</event>
<event>
 6    0  0.6338511E+002  0.1448183E+03  0.7546771E-02  0.1206989E+00
         21   -1    0    0  505  502  0.00000000000E+00  0.00000000000E+00  0.15022845566E+03  0.15022845566E+03  0.00000000000E+00 0.  1.
          2   -1    0    0  503    0 -0.00000000000E+00 -0.00000000000E+00 -0.76388167534E+03  0.76388167534E+03  0.00000000000E+00 0. -1.
         21    1    1    2  503  502  0.15563236688E+02  0.47640674466E+02 -0.22600018446E+02  0.54978259644E+02  0.00000000000E+00 0. -1.
         21    1    1    2  504  501 -0.11900197061E+03 -0.12520866105E+02 -0.12916214335E+03  0.17607129343E+03  0.00000000000E+00 0.  1.
         21    1    1    2  505  504  0.14403904150E+03  0.57186020966E+01  0.61346880358E+02  0.15666329377E+03  0.00000000000E+00 0.  1.
          2    1    1    2  501    0 -0.40600307576E+02 -0.40838410457E+02 -0.52323793824E+03  0.52639728415E+03  0.00000000000E+00 0. -1.
<scales pt_clust_3="50.11834" pt_clust_4="144.81829" pt_clust_5="14000.00000" pt_clust_6="57.05925"></scales>
<clustering>
<clus scale="   50.118">  1  3  2 -1</clus>
<clus scale="   57.059">  2  6  1 -1</clus>
<clus scale="  144.818">  2  4  1 -1</clus>
<clus scale="   50.118">  1  3  2 -1</clus>
</clustering>
</event>
<event>
 6    0  0.6338511E+002  0.9537669E+02  0.7546771E-02  0.1290330E+00
          1   -1    0    0  503    0 -0.00000000000E+00  0.00000000000E+00  0.66586193029E+03  0.66586193029E+03  0.00000000000E+00 0.  1.
         21   -1    0    0  504  502  0.00000000000E+00 -0.00000000000E+00 -0.12786465449E+03  0.12786465449E+03  0.00000000000E+00 0.  1.
         21    1    1    2  503  502 -0.84257288913E+02  0.25481191725E+02  0.36230307222E+03  0.37284326199E+03  0.00000000000E+00 0.  1.
         21    1    1    2  504  505  0.41061824282E+02 -0.39822833224E+02 -0.62968529304E+02  0.85070365828E+02  0.00000000000E+00 0.  1.
         21    1    1    2  505  501  0.62306308522E+02  0.53993498422E+02 -0.10211517231E+02  0.83076164077E+02  0.00000000000E+00 0. -1.
          1    1    1    2  501    0 -0.19110843890E+02 -0.39651856923E+02  0.24887425011E+03  0.25273679289E+03  0.00000000000E+00 0.  1.
<scales pt_clust_3="14000.00000" pt_clust_4="57.58127" pt_clust_5="95.37669" pt_clust_6="44.01698"></scales>
<clustering>
<clus scale="   44.017">  1  6  2 -1</clus>
<clus scale="   57.581">  2  4  1 -1</clus>
<clus scale="   95.377">  2  5  1 -1</clus>
<clus scale="   57.581">  2  3  1 -1</clus>
</clustering>
</event>
<event>
 6    0  0.6338511E+002  0.3303558E+03  0.7546771E-02  0.1070980E+00
          1   -1    0    0  504    0 -0.00000000000E+00  0.00000000000E+00  0.12568077308E+04  0.12568077308E+04  0.00000000000E+00 0.  1.
         21   -1    0    0  503  502  0.00000000000E+00 -0.00000000000E+00 -0.14738109254E+04  0.14738109254E+04  0.00000000000E+00 0. -1.
         21    1    1    2  503  505  0.46452021241E+02  0.87774283522E+01 -0.42300077074E+02  0.63436031137E+02  0.00000000000E+00 0. -1.
         21    1    1    2  504  502 -0.99438166177E+02  0.33572516790E+03 -0.12501004118E+04  0.12982104517E+04  0.00000000000E+00 0. -1.
         21    1    1    2  505  501  0.39327128513E+02 -0.26088528081E+03 -0.25277798912E+02  0.26504097778E+03  0.00000000000E+00 0. -1.
          1    1    1    2  501    0  0.13659016423E+02 -0.83617315437E+02  0.11006750931E+04  0.11039311956E+04  0.00000000000E+00 0.  1.
<scales pt_clust_3="47.27403" pt_clust_4="14000.00000" pt_clust_5="330.35580" pt_clust_6="84.72425"></scales>
<clustering>
<clus scale="   47.274">  2  3  1 -1</clus>
<clus scale="   84.724">  1  6  2 -1</clus>
<clus scale="  330.356">  1  5  2 -1</clus>
<clus scale="   47.274">  2  3  1 -1</clus>
</clustering>
</event>
<event>
 6    0  0.6338511E+002  0.1116684E+03  0.7546771E-02  0.1257511E+00
          1   -1    0    0  504    0 -0.00000000000E+00  0.00000000000E+00  0.91560267136E+03  0.91560267136E+03  0.00000000000E+00 0. -1.
         21   -1    0    0  501  502  0.00000000000E+00 -0.00000000000E+00 -0.11839667055E+04  0.11839667055E+04  0.00000000000E+00 0. -1.
         21    1    1    2  503  505  0.40260292552E+02 -0.56985098139E+02 -0.20216943736E+03  0.21387069451E+03  0.00000000000E+00 0.  1.
         21    1    1    2  504  503 -0.19727114072E+01 -0.66209647916E+02 -0.19695569234E+03  0.20779594272E+03  0.00000000000E+00 0.  1.
         21    1    1    2  505  502  0.13120187896E+02  0.34118746117E+02 -0.77021188020E+03  0.77107883422E+03  0.00000000000E+00 0. -1.
          1    1    1    2  501    0 -0.51407769040E+02  0.89075999937E+02  0.90097297573E+03  0.90682390544E+03  0.00000000000E+00 0. -1.
<scales pt_clust_3="38.76355" pt_clust_4="38.76355" pt_clust_5="36.55445" pt_clust_6="103.00890"></scales>
<clustering>
<clus scale="   36.554">  2  5  1 -1</clus>
<clus scale="   38.764">  3  4 -1 -1</clus>
<clus scale="  103.009">  1  6  2 -1</clus>
<clus scale="   36.554">  2  3  1 -1</clus>
</clustering>
</event>
<event>
 6    0  0.6338511E+002  0.2228180E+03  0.7546771E-02  0.1131799E+00
          2   -1    0    0  505    0 -0.00000000000E+00  0.00000000000E+00  0.12662909943E+04  0.12662909943E+04  0.00000000000E+00 0. -1.
         21   -1    0    0  504  502  0.00000000000E+00 -0.00000000000E+00 -0.40903940736E+03  0.40903940736E+03  0.00000000000E+00 0.  1.
         21    1    1    2  503  502  0.43612836583E+02 -0.11069653923E+03 -0.31743071596E+03  0.33899566774E+03  0.00000000000E+00 0.  1.
         21    1    1    2  504  501 -0.10290648913E+02  0.13616689709E+03  0.69568326150E+03  0.70895875877E+03  0.00000000000E+00 0. -1.
         21    1    1    2  505  503 -0.59237821747E+02 -0.12376044501E+03 -0.51331359569E+00  0.13720798361E+03  0.00000000000E+00 0. -1.
          2    1    1    2  501    0  0.25915634077E+02  0.98290087159E+02  0.47951235499E+03  0.49016799152E+03  0.00000000000E+00 0. -1.
<scales pt_clust_3="118.97816" pt_clust_4="34.57577" pt_clust_5="219.18452" pt_clust_6="34.57577"></scales>
<clustering>
<clus scale="   34.576">  4  6 -1 -1</clus>
<clus scale="  118.978">  2  3  1 -1</clus>
<clus scale="  219.185">  2  5  1 -1</clus>
<clus scale="  118.978">  2  3  1 -1</clus>
</clustering>
</event>
<event>
 6    0  0.6338511E+002  0.9101275E+02  0.7546771E-02  0.1300418E+00
         21   -1    0    0  505  502  0.00000000000E+00  0.00000000000E+00  0.24860398132E+03  0.24860398132E+03  0.00000000000E+00 0.  1.
         -1   -1    0    0    0  501 -0.00000000000E+00 -0.00000000000E+00 -0.48610851737E+03  0.48610851737E+03  0.00000000000E+00 0.  1.
         21    1    1    2  503  501  0.27530387798E+02  0.10108587687E+03 -0.88104410836E+02  0.13688923976E+03  0.00000000000E+00 0. -1.
         21    1    1    2  504  502 -0.17553447836E+02 -0.70024702342E+02 -0.22183840929E+03  0.23328922458E+03  0.00000000000E+00 0.  1.
         21    1    1    2  505  503 -0.41015528464E+02 -0.12176761683E+01  0.21331401980E+03  0.21722483135E+03  0.00000000000E+00 0.  1.
         -1    1    1    2    0  504  0.31038588502E+02 -0.29843498357E+02 -0.14087573573E+03  0.14730920299E+03  0.00000000000E+00 0.  1.
<scales pt_clust_3="91.01275" pt_clust_4="14000.00000" pt_clust_5="41.03360" pt_clust_6="40.38593"></scales>
<clustering>
<clus scale="   41.034">  1  5  2 -1</clus>
<clus scale="   40.386">  2  6  1 -1</clus>
<clus scale="   91.013">  1  3  2 -1</clus>
<clus scale="   41.034">  1  3  2 -1</clus>
</clustering>
</event>
<event>
 6    0  0.6338511E+002  0.2067304E+03  0.7546771E-02  0.1144182E+00
          2   -1    0    0  503    0 -0.00000000000E+00  0.00000000000E+00  0.18828430503E+04  0.18828430503E+04  0.00000000000E+00 0. -1.
         21   -1    0    0  505  502  0.00000000000E+00 -0.00000000000E+00 -0.52525100889E+03  0.52525100889E+03  0.00000000000E+00 0. -1.
         21    1    1    2  503  504  0.22110609057E+03  0.26006177157E+02  0.44309048616E+03  0.49587639938E+03  0.00000000000E+00 0.  1.
         21    1    1    2  504  502  0.39292998231E+02  0.13089301401E+02 -0.15657131702E+03  0.16195631150E+03  0.00000000000E+00 0. -1.
         21    1    1    2  505  501 -0.24173316674E+03 -0.12408194045E+01 -0.29620797840E+03  0.38232921678E+03  0.00000000000E+00 0. -1.
          2    1    1    2  501    0 -0.18665922058E+02 -0.37854659153E+02  0.13672808506E+04  0.13679321315E+04  0.00000000000E+00 0. -1.
<scales pt_clust_3="206.73040" pt_clust_4="41.41581" pt_clust_5="14000.00000" pt_clust_6="42.18064"></scales>
<clustering>
<clus scale="   41.416">  2  4  1 -1</clus>
<clus scale="   42.181">  1  6  2 -1</clus>
<clus scale="  206.730">  1  3  2 -1</clus>
<clus scale="   41.416">  2  3  1 -1</clus>
</clustering>
</event>
<event>
 6    0  0.6338511E+002  0.9095554E+02  0.7546771E-02  0.1300554E+00
         21   -1    0    0  504  502  0.00000000000E+00  0.00000000000E+00  0.79709619002E+02  0.79709619002E+02  0.00000000000E+00 0.  1.
          1   -1    0    0  503    0 -0.00000000000E+00 -0.00000000000E+00 -0.12776509246E+04  0.12776509246E+04  0.00000000000E+00 0. -1.
         21    1    1    2  503  505  0.47310186106E+02  0.73288528606E+01 -0.17892823458E+02  0.51108892817E+02  0.00000000000E+00 0.  1.
         21    1    1    2  504  501 -0.57339079757E+02 -0.10928058429E+03 -0.83929608363E+02  0.14924541980E+03  0.00000000000E+00 0.  1.
         21    1    1    2  505  502 -0.29009205998E+02  0.21763172127E+02  0.17188354517E+02  0.40132396199E+02  0.00000000000E+00 0.  1.
          1    1    1    2  501    0  0.39038099649E+02  0.80188559303E+02 -0.11133072283E+04  0.11168738348E+04  0.00000000000E+00 0. -1.
<scales pt_clust_3="40.52099" pt_clust_4="14000.00000" pt_clust_5="36.26527" pt_clust_6="90.95554"></scales>
<clustering>
<clus scale="   36.265">  1  5  2 -1</clus>
<clus scale="   40.521">  1  3  2 -1</clus>
<clus scale="   90.956">  2  6  1 -1</clus>
<clus scale="   36.265">  1  3  2 -1</clus>
</clustering>
</event>
<event>
 6    0  0.6338511E+002  0.1378511E+03  0.7546771E-02  0.1216250E+00
          2   -1    0    0  503    0 -0.00000000000E+00  0.00000000000E+00  0.13711043813E+04  0.13711043813E+04  0.00000000000E+00 0.  1.
         21   -1    0    0  504  502  0.00000000000E+00 -0.00000000000E+00 -0.54773421244E+03  0.54773421244E+03  0.00000000000E+00 0.  1.
         21    1    1    2  503  502 -0.15043584581E+03 -0.16539438257E+03  0.23105629692E+03  0.32151711905E+03  0.00000000000E+00 0.  1.
         21    1    1    2  504  505  0.67491392652E+02 -0.18743701070E+02 -0.41662510619E+03  0.42247235829E+03  0.00000000000E+00 0.  1.
         21    1    1    2  505  501  0.55942150316E+02  0.84975799297E+02 -0.48304565634E+02  0.11262211909E+03  0.00000000000E+00 0.  1.
          2    1    1    2  501    0  0.27002302843E+02  0.99162284348E+02  0.10572435437E+04  0.10622269973E+04  0.00000000000E+00 0.  1.
<scales pt_clust_3="14000.00000" pt_clust_4="70.04580" pt_clust_5="137.85113" pt_clust_6="102.77513"></scales>
<clustering>
<clus scale="   70.046">  2  4  1 -1</clus>
<clus scale="  102.775">  1  6  2 -1</clus>
<clus scale="  137.851">  2  5  1 -1</clus>
<clus scale="   70.046">  2  3  1 -1</clus>
</clustering>
</event>
<event>
 6    0  0.6338511E+002  0.1492896E+03  0.7546771E-02  0.1201349E+00
         21   -1    0    0  504  502  0.00000000000E+00  0.00000000000E+00  0.23026634935E+03  0.23026634935E+03  0.00000000000E+00 0. -1.
         -1   -1    0    0    0  501 -0.00000000000E+00 -0.00000000000E+00 -0.82995644878E+03  0.82995644878E+03  0.00000000000E+00 0. -1.
         21    1    1    2  503  502  0.37791341501E+02  0.46900013621E+02  0.57610461407E+02  0.83347237708E+02  0.00000000000E+00 0.  1.
         21    1    1    2  504  501  0.12557757759E+03 -0.57716898042E+02  0.11655227516E+03  0.18079104280E+03  0.00000000000E+00 0. -1.
         21    1    1    2  505  503 -0.97802708482E+02  0.94714460581E+01 -0.25796887168E+03  0.27604893920E+03  0.00000000000E+00 0.  1.
         -1    1    1    2    0  505 -0.65566210607E+02  0.13454383624E+01 -0.51588396431E+03  0.52003557841E+03  0.00000000000E+00 0. -1.
<scales pt_clust_3="60.23119" pt_clust_4="14000.00000" pt_clust_5="149.28964" pt_clust_6="65.10461"></scales>
<clustering>
<clus scale="   60.231">  1  3  2 -1</clus>
<clus scale="   65.105">  2  6  1 -1</clus>
<clus scale="  149.290">  2  5  1 -1</clus>
<clus scale="   60.231">  1  3  2 -1</clus>
</clustering>
</event>
<event>
 6    0  0.6338511E+002  0.2147721E+03  0.7546771E-02  0.1137842E+00
          2   -1    0    0  505    0 -0.00000000000E+00  0.00000000000E+00  0.29013106065E+04  0.29013106065E+04  0.00000000000E+00 0. -1.
         21   -1    0    0  504  502  0.00000000000E+00 -0.00000000000E+00 -0.79273130898E+03  0.79273130898E+03  0.00000000000E+00 0. -1.
         21    1    1    2  503  501 -0.16628653142E+03  0.11046572014E+03  0.96346683856E+03  0.98393202756E+03  0.00000000000E+00 0.  1.
         21    1    1    2  504  503  0.15481484769E+03 -0.54590150243E+02 -0.21167349084E+03  0.26786822934E+03  0.00000000000E+00 0. -1.
         21    1    1    2  505  502  0.39478811937E+02 -0.44531895946E+02 -0.54097579773E+03  0.54423935918E+03  0.00000000000E+00 0. -1.
          2    1    1    2  501    0 -0.28007128203E+02 -0.11343673946E+02  0.18977617475E+04  0.18980022994E+04  0.00000000000E+00 0. -1.
<scales pt_clust_3="14000.00000" pt_clust_4="214.77214" pt_clust_5="59.49551" pt_clust_6="30.21718"></scales>
<clustering>
<clus scale="   30.217">  1  6  2 -1</clus>
<clus scale="   59.496">  2  5  1 -1</clus>
<clus scale="  214.772">  2  4  1 -1</clus>
<clus scale="   59.496">  2  3  1 -1</clus>
</clustering>
</event>
<event>
 6    0  0.6338511E+002  0.9981450E+02  0.7546771E-02  0.1280687E+00
         21   -1    0    0  503  502  0.00000000000E+00  0.00000000000E+00  0.13042320488E+03  0.13042320488E+03  0.00000000000E+00 0.  1.
         -3   -1    0    0    0  501 -0.00000000000E+00 -0.00000000000E+00 -0.87331588354E+03  0.87331588354E+03  0.00000000000E+00 0.  1.
         21    1    1    2  503  504 -0.96710604156E+02  0.41942514269E+02 -0.33688686505E+02  0.11066635920E+03  0.00000000000E+00 0.  1.
         21    1    1    2  504  501  0.10136580933E+03 -0.48119413210E+02 -0.67226276824E+02  0.13080473051E+03  0.00000000000E+00 0.  1.
         21    1    1    2  505  502  0.58888371232E+02  0.32408653142E+02  0.39078220111E+02  0.77751323795E+02  0.00000000000E+00 0.  1.
         -3    1    1    2    0  505 -0.63543576402E+02 -0.26231754201E+02 -0.68105593545E+03  0.68451667492E+03  0.00000000000E+00 0.  1.
<scales pt_clust_3="99.81450" pt_clust_4="14000.00000" pt_clust_5="67.21727" pt_clust_6="67.14017"></scales>
<clustering>
<clus scale="   67.217">  1  5  2 -1</clus>
<clus scale="   67.140">  2  6  1 -1</clus>
<clus scale="   99.815">  1  3  2 -1</clus>
<clus scale="   67.217">  1  3  2 -1</clus>
</clustering>
</event>
<event>
 6    0  0.6338511E+002  0.1426244E+03  0.7546771E-02  0.1209841E+00
         21   -1    0    0  503  502  0.00000000000E+00  0.00000000000E+00  0.46882715546E+03  0.46882715546E+03  0.00000000000E+00 0. -1.
          1   -1    0    0  505    0 -0.00000000000E+00 -0.00000000000E+00 -0.22557539069E+04  0.22557539069E+04  0.00000000000E+00 0. -1.
         21    1    1    2  503  504  0.50564894026E+02  0.70532560705E+02  0.29067975730E+03  0.30335848749E+03  0.00000000000E+00 0. -1.
         21    1    1    2  504  501  0.54002415385E+02  0.49983470658E+02  0.12310337619E+03  0.14341913902E+03  0.00000000000E+00 0. -1.
         21    1    1    2  505  502  0.26815239864E+01 -0.43859217097E+02  0.23404610048E+02  0.49785512619E+02  0.00000000000E+00 0.  1.
          1    1    1    2  501    0 -0.10724883340E+03 -0.76656814267E+02 -0.22241144950E+04  0.22280179233E+04  0.00000000000E+00 0. -1.
<scales pt_clust_3="54.04661" pt_clust_4="54.04661" pt_clust_5="43.94111" pt_clust_6="131.93326"></scales>
<clustering>
<clus scale="   43.941">  1  5  2 -1</clus>
<clus scale="   54.047">  3  4 -1 -1</clus>
<clus scale="  131.933">  2  6  1 -1</clus>
<clus scale="   43.941">  1  3  2 -1</clus>
</clustering>
</event>
<event>
 6    0  0.6338511E+002  0.9579712E+02  0.7546771E-02  0.1289391E+00
         21   -1    0    0  505  502  0.00000000000E+00  0.00000000000E+00  0.75137864899E+02  0.75137864899E+02  0.00000000000E+00 0. -1.
          2   -1    0    0  503    0 -0.00000000000E+00 -0.00000000000E+00 -0.20499231237E+04  0.20499231237E+04  0.00000000000E+00 0.  1.
         21    1    1    2  503  504  0.12520686585E+03 -0.13718901000E+02 -0.15031052652E+04  0.15083734305E+04  0.00000000000E+00 0.  1.
         21    1    1    2  504  502 -0.21086998625E+02 -0.25174439892E+02  0.55775007621E+02  0.64724534838E+02  0.00000000000E+00 0. -1.
         21    1    1    2  505  501 -0.36477120299E+02  0.29989351728E+02 -0.46780580709E+02  0.66470777443E+02  0.00000000000E+00 0. -1.
          2    1    1    2  501    0 -0.67642746930E+02  0.89039891644E+01 -0.48067442047E+03  0.48549224579E+03  0.00000000000E+00 0.  1.
<scales pt_clust_3="95.79712" pt_clust_4="32.83921" pt_clust_5="52.15678" pt_clust_6="14000.00000"></scales>
<clustering>
<clus scale="   32.839">  1  4  2 -1</clus>
<clus scale="   52.157">  1  5  2 -1</clus>
<clus scale="   95.797">  1  3  2 -1</clus>
<clus scale="   32.839">  1  3  2 -1</clus>
</clustering>
</event>
<event>
 6    0  0.6338511E+002  0.1158037E+03  0.7546771E-02  0.1250185E+00
         21   -1    0    0  504  502  0.00000000000E+00  0.00000000000E+00  0.31049278366E+02  0.31049278366E+02  0.00000000000E+00 0.  1.
          2   -1    0    0  503    0 -0.00000000000E+00 -0.00000000000E+00 -0.38296559245E+04  0.38296559245E+04  0.00000000000E+00 0.  1.
         21    1    1    2  503  502 -0.10682030331E+03 -0.82099914166E+02 -0.11695279878E+04  0.11772623698E+04  0.00000000000E+00 0.  1.
         21    1    1    2  504  505 -0.37415914648E+02  0.80972512190E+01 -0.29684311656E+01  0.38396975530E+02  0.00000000000E+00 0.  1.
         21    1    1    2  505  501  0.84569361553E+02  0.88168074577E+02 -0.40349748907E+03  0.42158725072E+03  0.00000000000E+00 0.  1.
          2    1    1    2  501    0  0.59666856404E+02 -0.14165411629E+02 -0.22226127380E+04  0.22234586067E+04  0.00000000000E+00 0.  1.
<scales pt_clust_3="115.80366" pt_clust_4="38.28206" pt_clust_5="14000.00000" pt_clust_6="60.11139"></scales>
<clustering>
<clus scale="   38.282">  1  4  2 -1</clus>
<clus scale="   60.111">  2  6  1 -1</clus>
<clus scale="  115.804">  2  3  1 -1</clus>
<clus scale="   38.282">  1  3  2 -1</clus>
</clustering>
</event>
<event>
 6    0  0.6338511E+002  0.6591376E+02  0.7546771E-02  0.1374567E+00
          2   -1    0    0  505    0 -0.00000000000E+00  0.00000000000E+00  0.15811734719E+04  0.15811734719E+04  0.00000000000E+00 0. -1.
         21   -1    0    0  504  502  0.00000000000E+00 -0.00000000000E+00 -0.12150084108E+03  0.12150084108E+03  0.00000000000E+00 0. -1.
         21    1    1    2  503  502  0.24298562124E+02 -0.95625170394E+02  0.96037618832E+02  0.13768739073E+03  0.00000000000E+00 0. -1.
         21    1    1    2  504  501 -0.66636944260E-01  0.35981386683E+02 -0.92701845651E+02  0.99439915603E+02  0.00000000000E+00 0. -1.
         21    1    1    2  505  503 -0.55334937203E+02  0.66602831606E+01  0.12226225565E+04  0.12238922462E+04  0.00000000000E+00 0. -1.
          2    1    1    2  501    0  0.31103012024E+02  0.52983500550E+02  0.23371430120E+03  0.24165476050E+03  0.00000000000E+00 0. -1.
<scales pt_clust_3="14000.00000" pt_clust_4="35.98145" pt_clust_5="55.85043" pt_clust_6="65.91376"></scales>
<clustering>
<clus scale="   35.981">  2  4  1 -1</clus>
<clus scale="   55.850">  1  5  2 -1</clus>
<clus scale="   65.914">  1  6  2 -1</clus>
<clus scale="   35.981">  2  3  1 -1</clus>
</clustering>
</event>
<event>
 6    0  0.6338511E+002  0.9997375E+02  0.7546771E-02  0.1280351E+00
         21   -1    0    0  504  502  0.00000000000E+00  0.00000000000E+00  0.53723929698E+02  0.53723929698E+02  0.00000000000E+00 0. -1.
          2   -1    0    0  502    0 -0.00000000000E+00 -0.00000000000E+00 -0.12479613477E+04  0.12479613477E+04  0.00000000000E+00 0.  1.
         21    1    1    2  503  501  0.70052255900E+02  0.58569633489E+02 -0.12623207125E+03  0.15579555942E+03  0.00000000000E+00 0.  1.
         21    1    1    2  504  505 -0.31129661978E+02  0.12071133186E+02 -0.18184539073E+02  0.38019015934E+02  0.00000000000E+00 0.  1.
         21    1    1    2  505  503  0.53187838053E+02 -0.27152351701E+02 -0.70450350868E+01  0.60131762314E+02  0.00000000000E+00 0. -1.
          2    1    1    2  501    0 -0.92110431975E+02 -0.43488414975E+02 -0.10427757726E+04  0.10477389397E+04  0.00000000000E+00 0.  1.
<scales pt_clust_3="14000.00000" pt_clust_4="33.38814" pt_clust_5="39.64607" pt_clust_6="99.97375"></scales>
<clustering>
<clus scale="   33.388">  1  4  2 -1</clus>
<clus scale="   39.646">  1  5  2 -1</clus>
<clus scale="   99.974">  2  6  1 -1</clus>
<clus scale="   33.388">  1  3  2 -1</clus>
</clustering>
</event>
<event>
 6    0  0.6338511E+002  0.1514137E+03  0.7546771E-02  0.1198746E+00
          1   -1    0    0  505    0 -0.00000000000E+00  0.00000000000E+00  0.98879516158E+03  0.98879516158E+03  0.00000000000E+00 0. -1.
         21   -1    0    0  504  502  0.00000000000E+00 -0.00000000000E+00 -0.24153191457E+03  0.24153191457E+03  0.00000000000E+00 0. -1.
         21    1    1    2  503  501 -0.44303495086E+02  0.46264283933E+02  0.16393881003E+03  0.17600885511E+03  0.00000000000E+00 0.  1.
         21    1    1    2  504  503 -0.60981814679E+02  0.91978439026E+01  0.76805249289E+02  0.98500905439E+02  0.00000000000E+00 0.  1.
         21    1    1    2  505  502  0.11181901429E+03 -0.88089437130E+02 -0.20166924746E+03  0.24684757698E+03  0.00000000000E+00 0. -1.
          1    1    1    2  501    0 -0.65337045267E+01  0.32627309295E+02  0.70818843514E+03  0.70896973862E+03  0.00000000000E+00 0. -1.
<scales pt_clust_3="51.07963" pt_clust_4="51.07963" pt_clust_5="140.31842" pt_clust_6="33.27507"></scales>
<clustering>
<clus scale="   33.275">  1  6  2 -1</clus>
<clus scale="   51.080">  3  4 -1 -1</clus>
<clus scale="  140.318">  2  5  1 -1</clus>
<clus scale="  140.318">  2  3  1 -1</clus>
</clustering>
</event>
<event>
 6    0  0.6338511E+002  0.1262107E+03  0.7546771E-02  0.1233189E+00
          2   -1    0    0  504    0 -0.00000000000E+00  0.00000000000E+00  0.19308421132E+04  0.19308421132E+04  0.00000000000E+00 0.  1.
         21   -1    0    0  505  502  0.00000000000E+00 -0.00000000000E+00 -0.13574176710E+02  0.13574176710E+02  0.00000000000E+00 0.  1.
         21    1    1    2  503  502  0.16165866960E+02 -0.37291339436E+02  0.98829111695E+02  0.10686052859E+03  0.00000000000E+00 0. -1.
         21    1    1    2  504  503 -0.74171172719E+02 -0.67198145161E+02  0.37881177329E+03  0.39181030252E+03  0.00000000000E+00 0.  1.
         21    1    1    2  505  501  0.12115261986E+02  0.79609627679E+02  0.84056615326E+03  0.84441454890E+03  0.00000000000E+00 0.  1.
          2    1    1    2  501    0  0.45890043773E+02  0.24879856917E+02  0.59906089824E+03  0.60133090990E+03  0.00000000000E+00 0.  1.
<scales pt_clust_3="40.64455" pt_clust_4="112.06211" pt_clust_5="48.76367" pt_clust_6="48.76367"></scales>
<clustering>
<clus scale="   40.645">  2  3  1 -1</clus>
<clus scale="   48.764">  5  6 -1 -1</clus>
<clus scale="  112.062">  2  4  1 -1</clus>
<clus scale="   40.645">  2  3  1 -1</clus>
</clustering>
</event>
<event>
 6    0  0.6338511E+002  0.1633263E+03  0.7546771E-02  0.1184992E+00
          2   -1    0    0  504    0 -0.00000000000E+00  0.00000000000E+00  0.26454343894E+03  0.26454343894E+03  0.00000000000E+00 0. -1.
         21   -1    0    0  501  502  0.00000000000E+00 -0.00000000000E+00 -0.20413374755E+03  0.20413374755E+03  0.00000000000E+00 0. -1.
         21    1    1    2  503  505  0.79702517424E+01  0.62449641895E+02  0.21544372761E+01  0.62993049503E+02  0.00000000000E+00 0. -1.
         21    1    1    2  504  503  0.37677828158E+02  0.49722082474E+02  0.87510113915E+01  0.62995907967E+02  0.00000000000E+00 0. -1.
         21    1    1    2  505  502  0.23371477043E+01  0.79361791516E+02 -0.75033309713E+02  0.10924172179E+03  0.00000000000E+00 0. -1.
          2    1    1    2  501    0 -0.47985227604E+02 -0.19153351589E+03  0.12453755243E+03  0.23344650723E+03  0.00000000000E+00 0. -1.
<scales pt_clust_3="32.83559" pt_clust_4="32.83559" pt_clust_5="79.39620" pt_clust_6="159.96073"></scales>
<clustering>
<clus scale="   32.836">  3  4 -1 -1</clus>
<clus scale="   79.396">  2  5  1 -1</clus>
<clus scale="  159.961">  1  6  2 -1</clus>
<clus scale="   79.396">  2  3  1 -1</clus>
</clustering>
</event>
<event>
 6    0  0.6338511E+002  0.5431211E+02  0.7546771E-02  0.1423380E+00
          2   -1    0    0  503    0 -0.00000000000E+00  0.00000000000E+00  0.10597983337E+04  0.10597983337E+04  0.00000000000E+00 0. -1.
         21   -1    0    0  504  502  0.00000000000E+00 -0.00000000000E+00 -0.57537078605E+02  0.57537078605E+02  0.00000000000E+00 0. -1.
         21    1    1    2  503  505  0.27380633312E+02  0.36587316359E+02  0.30893648851E+03  0.31229807033E+03  0.00000000000E+00 0. -1.
         21    1    1    2  504  501 -0.89720847254E+02  0.25823298254E+02  0.11896255456E+01  0.93370704043E+02  0.00000000000E+00 0. -1.
         21    1    1    2  505  502  0.46538687714E+02  0.32139590005E+01  0.60310320138E+02  0.76246401237E+02  0.00000000000E+00 0. -1.
          2    1    1    2  501    0  0.15801526228E+02 -0.65624573614E+02  0.63182482094E+03  0.63542023673E+03  0.00000000000E+00 0. -1.
<scales pt_clust_3="45.69826" pt_clust_4="54.31211" pt_clust_5="49.46942" pt_clust_6="14000.00000"></scales>
<clustering>
<clus scale="   45.698">  1  3  2 -1</clus>
<clus scale="   49.469">  2  5  1 -1</clus>
<clus scale="   54.312">  2  4  1 -1</clus>
<clus scale="   49.469">  2  3  1 -1</clus>
</clustering>
</event>
<event>
 6    0  0.6338511E+002  0.1778369E+03  0.7546771E-02  0.1169913E+00
          2   -1    0    0  504    0 -0.00000000000E+00  0.00000000000E+00  0.16740264846E+04  0.16740264846E+04  0.00000000000E+00 0.  1.
         21   -1    0    0  503  502  0.00000000000E+00 -0.00000000000E+00 -0.10334766451E+03  0.10334766451E+03  0.00000000000E+00 0.  1.
         21    1    1    2  503  501  0.95960308073E+02  0.49559728395E+02  0.73734575263E+03  0.74521359779E+03  0.00000000000E+00 0.  1.
         21    1    1    2  504  505 -0.12402598290E+03 -0.71388664030E+02  0.36415535799E+02  0.14766474540E+03  0.00000000000E+00 0.  1.
         21    1    1    2  505  502 -0.34164153871E+02  0.82459672471E+01 -0.35318723162E+02  0.49825672011E+02  0.00000000000E+00 0.  1.
          2    1    1    2  501    0  0.62229828698E+02  0.13582968388E+02  0.83223625482E+03  0.83467013391E+03  0.00000000000E+00 0.  1.
<scales pt_clust_3="45.13583" pt_clust_4="167.90525" pt_clust_5="35.14520" pt_clust_6="45.13583"></scales>
<clustering>
<clus scale="   35.145">  2  5  1 -1</clus>
<clus scale="   45.136">  3  6 -1 -1</clus>
<clus scale="  167.905">  2  4  1 -1</clus>
<clus scale="   35.145">  2  3  1 -1</clus>
</clustering>
</event>
<event>
 6    0  0.6338511E+002  0.1718599E+03  0.7546771E-02  0.1175922E+00
          1   -1    0    0  503    0 -0.00000000000E+00  0.00000000000E+00  0.78019437030E+03  0.78019437030E+03  0.00000000000E+00 0.  1.
         21   -1    0    0  505  502  0.00000000000E+00 -0.00000000000E+00 -0.11259260328E+03  0.11259260328E+03  0.00000000000E+00 0.  1.
         21    1    1    2  503  504  0.24435432501E+02 -0.42224966280E+02  0.49223289445E+02  0.69303465733E+02  0.00000000000E+00 0.  1.
         21    1    1    2  504  502  0.33356444344E+01  0.21009519349E+03  0.32658763999E+03  0.38834340917E+03  0.00000000000E+00 0.  1.
         21    1    1    2  505  501 -0.62943392096E+02 -0.15201008451E+03  0.26005570294E+02  0.16656898297E+03  0.00000000000E+00 0.  1.
          1    1    1    2  501    0  0.35172315161E+02 -0.15860142705E+02  0.26578526730E+03  0.26857111571E+03  0.00000000000E+00 0.  1.
<scales pt_clust_3="52.47090" pt_clust_4="14000.00000" pt_clust_5="171.85987" pt_clust_6="38.58284"></scales>
<clustering>
<clus scale="   38.583">  1  6  2 -1</clus>
<clus scale="   52.471">  1  3  2 -1</clus>
<clus scale="  171.860">  2  5  1 -1</clus>
<clus scale="  171.860">  2  3  1 -1</clus>
</clustering>
</event>
<event>
 6    0  0.6338511E+002  0.7747405E+02  0.7546771E-02  0.1336376E+00
          2   -1    0    0  503    0 -0.00000000000E+00  0.00000000000E+00  0.79888782934E+03  0.79888782934E+03  0.00000000000E+00 0. -1.
         21   -1    0    0  504  502  0.00000000000E+00 -0.00000000000E+00 -0.25906590232E+03  0.25906590232E+03  0.00000000000E+00 0.  1.
         21    1    1    2  503  505  0.37152324957E+02  0.10827636234E+03  0.12320601213E+03  0.16817784430E+03  0.00000000000E+00 0. -1.
         21    1    1    2  504  501  0.27884941608E+02 -0.47880652158E+02 -0.24498858703E+02  0.60583173384E+02  0.00000000000E+00 0.  1.
         21    1    1    2  505  502 -0.61596107536E+02  0.13786884385E+02 -0.18665863402E+03  0.19704213838E+03  0.00000000000E+00 0.  1.
          2    1    1    2  501    0 -0.34411590292E+01 -0.74182594564E+02  0.62777340761E+03  0.63215057559E+03  0.00000000000E+00 0. -1.
<scales pt_clust_3="14000.00000" pt_clust_4="55.40873" pt_clust_5="46.70000" pt_clust_6="77.47405"></scales>
<clustering>
<clus scale="   55.409">  2  4  1 -1</clus>
<clus scale="   46.700">  2  5  1 -1</clus>
<clus scale="   77.474">  1  6  2 -1</clus>
<clus scale="   55.409">  2  3  1 -1</clus>
</clustering>
</event>
<event>
 6    0  0.6338511E+002  0.6939812E+02  0.7546771E-02  0.1362152E+00
         21   -1    0    0  501  502  0.00000000000E+00  0.00000000000E+00  0.15238065669E+04  0.15238065669E+04  0.00000000000E+00 0.  1.
          2   -1    0    0  505    0 -0.00000000000E+00 -0.00000000000E+00 -0.62129034001E+03  0.62129034001E+03  0.00000000000E+00 0. -1.
         21    1    1    2  503  502  0.25830108262E+02  0.19633688839E+02  0.79072258163E+03  0.79138794363E+03  0.00000000000E+00 0.  1.
         21    1    1    2  504  503 -0.84601577407E+02 -0.12444297105E+02  0.71754797657E+03  0.72262534284E+03  0.00000000000E+00 0.  1.
         21    1    1    2  505  504  0.87963335035E+02 -0.60620256726E+02 -0.27997704804E+03  0.29966566581E+03  0.00000000000E+00 0. -1.
          2    1    1    2  501    0 -0.29191865891E+02  0.53430864991E+02 -0.32577728326E+03  0.33141795464E+03  0.00000000000E+00 0. -1.
<scales pt_clust_3="32.44497" pt_clust_4="59.61278" pt_clust_5="69.39812" pt_clust_6="14000.00000"></scales>
<clustering>
<clus scale="   32.445">  1  3  2 -1</clus>
<clus scale="   59.613">  1  4  2 -1</clus>
<clus scale="   69.398">  1  5  2 -1</clus>
<clus scale="   32.445">  1  3  2 -1</clus>
</clustering>
</event>
<event>
 6    0  0.6338511E+002  0.1014216E+03  0.7546771E-02  0.1277335E+00
          2   -1    0    0  503    0 -0.00000000000E+00  0.00000000000E+00  0.67797149279E+02  0.67797149279E+02  0.00000000000E+00 0.  1.
         21   -1    0    0  504  502  0.00000000000E+00 -0.00000000000E+00 -0.11958323054E+04  0.11958323054E+04  0.00000000000E+00 0.  1.
         21    1    1    2  503  502 -0.85720748071E+02 -0.10728236837E+03 -0.88920528841E+03  0.89974640769E+03  0.00000000000E+00 0.  1.
         21    1    1    2  504  505  0.14006247859E+02  0.33793380244E+02 -0.14781103524E+03  0.15227038341E+03  0.00000000000E+00 0. -1.
         21    1    1    2  505  501  0.86724867459E+02  0.21915049493E+02 -0.12070826597E+03  0.15023966688E+03  0.00000000000E+00 0.  1.
          2    1    1    2  501    0 -0.15010367247E+02  0.51573938633E+02  0.29689433448E+02  0.61372996745E+02  0.00000000000E+00 0.  1.
<scales pt_clust_3="14000.00000" pt_clust_4="36.58097" pt_clust_5="101.42160" pt_clust_6="54.14722"></scales>
<clustering>
<clus scale="   36.581">  2  4  1 -1</clus>
<clus scale="   54.147">  1  6  2 -1</clus>
<clus scale="  101.422">  1  5  2 -1</clus>
<clus scale="   36.581">  2  3  1 -1</clus>
</clustering>
</event>
<event>
 6    0  0.6338511E+002  0.8565864E+02  0.7546771E-02  0.1313719E+00
         21   -1    0    0  503  502  0.00000000000E+00  0.00000000000E+00  0.12973531130E+03  0.12973531130E+03  0.00000000000E+00 0. -1.
          2   -1    0    0  504    0 -0.00000000000E+00 -0.00000000000E+00 -0.34482888691E+03  0.34482888691E+03  0.00000000000E+00 0. -1.
         21    1    1    2  503  501 -0.58857972831E+01 -0.90770607274E+02 -0.45634057591E+02  0.10176646288E+03  0.00000000000E+00 0. -1.
         21    1    1    2  504  505 -0.60116783345E+01  0.79796071384E+02 -0.20692950962E+02  0.82654410072E+02  0.00000000000E+00 0. -1.
         21    1    1    2  505  502 -0.38860473489E+02  0.15968932883E+02  0.61109599636E+02  0.74158791690E+02  0.00000000000E+00 0. -1.
          2    1    1    2  501    0  0.50757949106E+02 -0.49943969936E+01 -0.20987616669E+03  0.21598453357E+03  0.00000000000E+00 0. -1.
<scales pt_clust_3="85.65864" pt_clust_4="14000.00000" pt_clust_5="42.01361" pt_clust_6="49.02777"></scales>
<clustering>
<clus scale="   42.014">  1  5  2 -1</clus>
<clus scale="   49.028">  2  6  1 -1</clus>
<clus scale="   85.659">  2  3  1 -1</clus>
<clus scale="   42.014">  1  3  2 -1</clus>
</clustering>
</event>
<event>
 6    0  0.6338511E+002  0.1085945E+03  0.7546771E-02  0.1263195E+00
         21   -1    0    0  501  502  0.00000000000E+00  0.00000000000E+00  0.29315447128E+03  0.29315447128E+03  0.00000000000E+00 0. -1.
          2   -1    0    0  503    0 -0.00000000000E+00 -0.00000000000E+00 -0.41936259294E+03  0.41936259294E+03  0.00000000000E+00 0. -1.
         21    1    1    2  503  505 -0.48069817308E+02  0.72794201145E+01 -0.24260857818E+02  0.54334947459E+02  0.00000000000E+00 0.  1.
         21    1    1    2  504  502  0.58634401426E+02  0.96219734899E+02  0.23153296714E+03  0.25749513643E+03  0.00000000000E+00 0. -1.
         21    1    1    2  505  504  0.39049195269E+02 -0.10759607795E+03 -0.73604445025E+02  0.13608589188E+03  0.00000000000E+00 0. -1.
          2    1    1    2  501    0 -0.49613779386E+02  0.40969229367E+01 -0.25987578595E+03  0.26460108845E+03  0.00000000000E+00 0. -1.
<scales pt_clust_3="48.61787" pt_clust_4="14000.00000" pt_clust_5="108.59454" pt_clust_6="83.28199"></scales>
<clustering>
<clus scale="   48.618">  2  3  1 -1</clus>
<clus scale="   83.282">  2  6  1 -1</clus>
<clus scale="  108.595">  2  5  1 -1</clus>
<clus scale="  108.595">  1  3  2 -1</clus>
</clustering>
</event>
<event>
 6    0  0.6338511E+002  0.9415598E+02  0.7546771E-02  0.1293088E+00
         -4   -1    0    0    0  501 -0.00000000000E+00  0.00000000000E+00  0.35728770291E+03  0.35728770291E+03  0.00000000000E+00 0.  1.
         21   -1    0    0  505  502  0.00000000000E+00 -0.00000000000E+00 -0.10332163965E+04  0.10332163965E+04  0.00000000000E+00 0. -1.
         21    1    1    2  503  501  0.13794006707E+01  0.59933799182E+02  0.24184370571E+01  0.59998432217E+02  0.00000000000E+00 0.  1.
         21    1    1    2  504  503 -0.70249305282E+02 -0.84044456342E+02 -0.12692707346E+02  0.11027030586E+03  0.00000000000E+00 0.  1.
         21    1    1    2  505  504  0.64619722089E+02  0.67487801910E+02 -0.93889888039E+03  0.94353665508E+03  0.00000000000E+00 0. -1.
         -4    1    1    2    0  502  0.42501825223E+01 -0.43377144750E+02  0.27324445706E+03  0.27669870627E+03  0.00000000000E+00 0.  1.
<scales pt_clust_3="43.59098" pt_clust_4="94.15598" pt_clust_5="14000.00000" pt_clust_6="43.58487"></scales>
<clustering>
<clus scale="   43.585">  1  6  2 -1</clus>
<clus scale="   43.591">  1  3  2 -1</clus>
<clus scale="   94.156">  1  4  2 -1</clus>
<clus scale="   94.156">  2  3  1 -1</clus>
</clustering>
</event>
<event>
 6    0  0.6338511E+002  0.1295721E+03  0.7546771E-02  0.1228092E+00
         21   -1    0    0  501  502  0.00000000000E+00  0.00000000000E+00  0.13864410278E+04  0.13864410278E+04  0.00000000000E+00 0. -1.
          1   -1    0    0  504    0 -0.00000000000E+00 -0.00000000000E+00 -0.65920119226E+02  0.65920119226E+02  0.00000000000E+00 0. -1.
         21    1    1    2  503  502  0.34975121910E+02  0.30912461371E+02  0.67202620270E+03  0.67364534923E+03  0.00000000000E+00 0. -1.
         21    1    1    2  504  505 -0.15263485219E+03 -0.22260728688E+02  0.33393270105E+03  0.36783690268E+03  0.00000000000E+00 0. -1.
         21    1    1    2  505  503  0.10295805231E+03  0.22803002023E+02  0.34742222001E+03  0.36307373410E+03  0.00000000000E+00 0. -1.
          1    1    1    2  501    0  0.14701677970E+02 -0.31454734706E+02 -0.32860215231E+02  0.47805160972E+02  0.00000000000E+00 0. -1.
<scales pt_clust_3="46.37947" pt_clust_4="129.57208" pt_clust_5="14000.00000" pt_clust_6="34.72088"></scales>
<clustering>
<clus scale="   34.721">  2  6  1 -1</clus>
<clus scale="   46.379">  1  3  2 -1</clus>
<clus scale="  129.572">  2  4  1 -1</clus>
<clus scale="   46.379">  1  3  2 -1</clus>
</clustering>
</event>
<event>
 6    0  0.6338511E+002  0.2204758E+03  0.7546771E-02  0.1133529E+00
         -2   -1    0    0    0  501 -0.00000000000E+00  0.00000000000E+00  0.20179145143E+04  0.20179145143E+04  0.00000000000E+00 0. -1.
         21   -1    0    0  503  502  0.00000000000E+00 -0.00000000000E+00 -0.84682047395E+02  0.84682047395E+02  0.00000000000E+00 0. -1.
         21    1    1    2  503  504 -0.11900706035E+03 -0.22179479826E+03  0.27987456054E+03  0.37641118818E+03  0.00000000000E+00 0. -1.
         21    1    1    2  504  501 -0.30742836682E+01 -0.48875351084E+02  0.13622462263E+03  0.14475979751E+03  0.00000000000E+00 0. -1.
         21    1    1    2  505  502  0.79679534843E+02  0.12933691709E+03  0.17724403330E+03  0.23343588784E+03  0.00000000000E+00 0. -1.
         -2    1    1    2    0  505  0.42401809171E+02  0.14133323226E+03  0.13398892504E+04  0.13479896881E+04  0.00000000000E+00 0. -1.
<scales pt_clust_3="44.79722" pt_clust_4="44.79722" pt_clust_5="195.69134" pt_clust_6="147.55676"></scales>
<clustering>
<clus scale="   44.797">  3  4 -1 -1</clus>
<clus scale="  147.557">  1  6  2 -1</clus>
<clus scale="  195.691">  2  5  1 -1</clus>
<clus scale="  195.691">  2  3  1 -1</clus>
</clustering>
</event>
<event>
 6    0  0.6338511E+002  0.9272701E+02  0.7546771E-02  0.1296379E+00
         21   -1    0    0  505  502  0.00000000000E+00  0.00000000000E+00  0.29226666178E+03  0.29226666178E+03  0.00000000000E+00 0. -1.
          2   -1    0    0  503    0 -0.00000000000E+00 -0.00000000000E+00 -0.67880852195E+03  0.67880852195E+03  0.00000000000E+00 0. -1.
         21    1    1    2  503  502  0.11007357255E+03 -0.62690799953E+02 -0.44573007265E+02  0.13428730673E+03  0.00000000000E+00 0. -1.
         21    1    1    2  504  501 -0.13761712863E+02  0.49926671535E+02 -0.47196466998E+02  0.70068279332E+02  0.00000000000E+00 0.  1.
         21    1    1    2  505  504 -0.25016932195E+02 -0.42035149803E+02  0.22956944349E+03  0.23472309238E+03  0.00000000000E+00 0. -1.
          2    1    1    2  501    0 -0.71294927489E+02  0.54799278221E+02 -0.52434182940E+03  0.53199650528E+03  0.00000000000E+00 0. -1.
<scales pt_clust_3="14000.00000" pt_clust_4="45.83887" pt_clust_5="48.91626" pt_clust_6="92.72701"></scales>
<clustering>
<clus scale="   48.916">  1  5  2 -1</clus>
<clus scale="   45.839">  1  4  2 -1</clus>
<clus scale="   92.727">  2  6  1 -1</clus>
<clus scale="   48.916">  1  3  2 -1</clus>
</clustering>
</event>
<event>
 6    0  0.6338511E+002  0.1117044E+03  0.7546771E-02  0.1257446E+00
         -1   -1    0    0    0  501 -0.00000000000E+00  0.00000000000E+00  0.23314213049E+03  0.23314213049E+03  0.00000000000E+00 0.  1.
         21   -1    0    0  504  502  0.00000000000E+00 -0.00000000000E+00 -0.14286066346E+04  0.14286066346E+04  0.00000000000E+00 0. -1.
         21    1    1    2  503  502 -0.46366255333E+02 -0.44808866660E+02 -0.15358121654E+03  0.16656786676E+03  0.00000000000E+00 0. -1.
         21    1    1    2  504  505  0.15588890675E+01  0.59983424635E+02 -0.10477618456E+04  0.10494785974E+04  0.00000000000E+00 0. -1.
         21    1    1    2  505  501 -0.66891718776E+01  0.86514660486E+02 -0.19572999047E+03  0.21410222014E+03  0.00000000000E+00 0. -1.
         -1    1    1    2    0  503  0.51496538143E+02 -0.10168921846E+03  0.20160854849E+03  0.23160008077E+03  0.00000000000E+00 0.  1.
<scales pt_clust_3="49.71092" pt_clust_4="60.00368" pt_clust_5="111.70436" pt_clust_6="14000.00000"></scales>
<clustering>
<clus scale="   60.004">  2  4  1 -1</clus>
<clus scale="   49.711">  2  3  1 -1</clus>
<clus scale="  111.704">  2  5  1 -1</clus>
<clus scale="   60.004">  2  3  1 -1</clus>
</clustering>
</event>
<event>
 6    0  0.6338511E+002  0.9009310E+02  0.7546771E-02  0.1302626E+00
         21   -1    0    0  505  502  0.00000000000E+00  0.00000000000E+00  0.14056241056E+03  0.14056241056E+03  0.00000000000E+00 0.  1.
          1   -1    0    0  503    0 -0.00000000000E+00 -0.00000000000E+00 -0.88034634096E+03  0.88034634096E+03  0.00000000000E+00 0. -1.
         21    1    1    2  503  504  0.59188116060E+02  0.50829735192E+02 -0.35023296633E+02  0.85519157909E+02  0.00000000000E+00 0.  1.
         21    1    1    2  504  502  0.28771525370E+02 -0.90321074998E+02  0.85376639242E+02  0.12757299005E+03  0.00000000000E+00 0.  1.
         21    1    1    2  505  501 -0.49241758434E+02  0.45929870267E+02 -0.12901853019E+03  0.14553379294E+03  0.00000000000E+00 0.  1.
          1    1    1    2  501    0 -0.38717882995E+02 -0.64385304615E+01 -0.66111874282E+03  0.66228281062E+03  0.00000000000E+00 0. -1.
<scales pt_clust_3="68.99358" pt_clust_4="90.09310" pt_clust_5="14000.00000" pt_clust_6="39.24958"></scales>
<clustering>
<clus scale="   39.250">  2  6  1 -1</clus>
<clus scale="   68.994">  2  3  1 -1</clus>
<clus scale="   90.093">  1  4  2 -1</clus>
<clus scale="   90.093">  1  3  2 -1</clus>
</clustering>
</event>
<event>
 6    0  0.6338511E+002  0.1359961E+03  0.7546771E-02  0.1218820E+00
          2   -1    0    0  503    0 -0.00000000000E+00  0.00000000000E+00  0.87784213647E+03  0.87784213647E+03  0.00000000000E+00 0. -1.
         21   -1    0    0  504  502  0.00000000000E+00 -0.00000000000E+00 -0.87460549666E+03  0.87460549666E+03  0.00000000000E+00 0. -1.
         21    1    1    2  503  502 -0.30276691619E+02 -0.19827719688E+03 -0.19765857091E+03  0.28160155452E+03  0.00000000000E+00 0. -1.
         21    1    1    2  504  505  0.38658918032E+02  0.65315608344E+02 -0.35186983186E+03  0.35996252473E+03  0.00000000000E+00 0. -1.
         21    1    1    2  505  501  0.56904390429E+02  0.14302895036E+02 -0.27037909187E+03  0.27667225335E+03  0.00000000000E+00 0.  1.
          2    1    1    2  501    0 -0.65286616842E+02  0.11865869350E+03  0.82314413443E+03  0.83421130053E+03  0.00000000000E+00 0. -1.
<scales pt_clust_3="135.99612" pt_clust_4="134.57384" pt_clust_5="45.16466" pt_clust_6="14000.00000"></scales>
<clustering>
<clus scale="   45.165">  4  5 -1 -1</clus>
<clus scale="  134.574">  2  4  1 -1</clus>
<clus scale="  135.996">  2  3  1 -1</clus>
<clus scale="  134.574">  2  3  1 -1</clus>
</clustering>
</event>
<event>
 6    0  0.6338511E+002  0.7687095E+02  0.7546771E-02  0.1338173E+00
         21   -1    0    0  501  502  0.00000000000E+00  0.00000000000E+00  0.39309474105E+03  0.39309474105E+03  0.00000000000E+00 0. -1.
         -2   -1    0    0    0  501 -0.00000000000E+00 -0.00000000000E+00 -0.14848927934E+03  0.14848927934E+03  0.00000000000E+00 0.  1.
         21    1    1    2  503  505 -0.84274103130E+02  0.27901529909E+02  0.17504305468E+03  0.19626688671E+03  0.00000000000E+00 0. -1.
         21    1    1    2  504  503  0.90777121219E+02  0.54032315752E+01 -0.26569134574E+02  0.94739640913E+02  0.00000000000E+00 0.  1.
         21    1    1    2  505  502  0.40122644700E+02  0.33336713556E+02  0.14609173634E+03  0.15512562172E+03  0.00000000000E+00 0. -1.
         -2    1    1    2    0  504 -0.46625662789E+02 -0.66641475040E+02 -0.49960194735E+02  0.95451871034E+02  0.00000000000E+00 0.  1.
<scales pt_clust_3="75.64642" pt_clust_4="14000.00000" pt_clust_5="52.16477" pt_clust_6="76.87095"></scales>
<clustering>
<clus scale="   52.165">  1  5  2 -1</clus>
<clus scale="   75.646">  1  3  2 -1</clus>
<clus scale="   76.871">  2  6  1 -1</clus>
<clus scale="   52.165">  1  3  2 -1</clus>
</clustering>
</event>
<event>
 6    0  0.6338511E+002  0.1439694E+03  0.7546771E-02  0.1208085E+00
          2   -1    0    0  503    0 -0.00000000000E+00  0.00000000000E+00  0.31347637034E+04  0.31347637034E+04  0.00000000000E+00 0. -1.
         21   -1    0    0  505  502  0.00000000000E+00 -0.00000000000E+00 -0.27079223167E+03  0.27079223167E+03  0.00000000000E+00 0.  1.
         21    1    1    2  503  504  0.56696610587E+02  0.14376162030E+03  0.31107118019E+03  0.34734304120E+03  0.00000000000E+00 0.  1.
         21    1    1    2  504  502 -0.13829501347E+03 -0.17461439134E+02 -0.10753583878E+03  0.17605217758E+03  0.00000000000E+00 0.  1.
         21    1    1    2  505  501  0.15236485540E+03 -0.94619344174E+02 -0.37398912094E+02  0.18321175748E+03  0.00000000000E+00 0.  1.
          2    1    1    2  501    0 -0.70766452514E+02 -0.31680836996E+02  0.26978350424E+04  0.26989489588E+04  0.00000000000E+00 0. -1.
<scales pt_clust_3="119.90666" pt_clust_4="143.96940" pt_clust_5="14000.00000" pt_clust_6="77.53429"></scales>
<clustering>
<clus scale="   77.534">  1  6  2 -1</clus>
<clus scale="  119.907">  1  3  2 -1</clus>
<clus scale="  143.969">  2  4  1 -1</clus>
<clus scale="  143.969">  2  3  1 -1</clus>
</clustering>
</event>
<event>
 6    0  0.6338511E+002  0.1212961E+03  0.7546771E-02  0.1240974E+00
          1   -1    0    0  504    0 -0.00000000000E+00  0.00000000000E+00  0.13554175472E+04  0.13554175472E+04  0.00000000000E+00 0. -1.
         21   -1    0    0  501  502  0.00000000000E+00 -0.00000000000E+00 -0.46088432799E+02  0.46088432799E+02  0.00000000000E+00 0. -1.
         21    1    1    2  503  505  0.36307225025E+02  0.12448278137E+02  0.13333422405E+03  0.13874865593E+03  0.00000000000E+00 0. -1.
         21    1    1    2  504  503  0.42724187168E+02  0.10717068794E+03  0.11878075423E+03  0.16558919076E+03  0.00000000000E+00 0. -1.
         21    1    1    2  505  502 -0.36364286970E+02 -0.51161644487E+01  0.40570193533E+01  0.36945851073E+02  0.00000000000E+00 0. -1.
          1    1    1    2  501    0 -0.42667125222E+02 -0.11450280163E+03  0.10531571168E+04  0.10602222823E+04  0.00000000000E+00 0. -1.
<scales pt_clust_3="35.09474" pt_clust_4="121.29607" pt_clust_5="36.72243" pt_clust_6="14000.00000"></scales>
<clustering>
<clus scale="   36.722">  2  5  1 -1</clus>
<clus scale="   35.095">  2  3  1 -1</clus>
<clus scale="  121.296">  2  4  1 -1</clus>
<clus scale="   36.722">  2  3  1 -1</clus>
</clustering>
</event>
<event>
 6    0  0.6338511E+002  0.2850868E+03  0.7546771E-02  0.1092943E+00
          1   -1    0    0  504    0 -0.00000000000E+00  0.00000000000E+00  0.97852153821E+03  0.97852153821E+03  0.00000000000E+00 0. -1.
         21   -1    0    0  505  502  0.00000000000E+00 -0.00000000000E+00 -0.24031838969E+03  0.24031838969E+03  0.00000000000E+00 0.  1.
         21    1    1    2  503  502  0.22057173779E+03  0.22674433118E+03  0.15192403680E+02  0.31669495159E+03  0.00000000000E+00 0.  1.
         21    1    1    2  504  503 -0.45839138106E+02  0.14788536398E+02  0.21783815631E+03  0.22309950636E+03  0.00000000000E+00 0. -1.
         21    1    1    2  505  501 -0.16329939354E+03 -0.19018198861E+03  0.99051600463E+02  0.26953126029E+03  0.00000000000E+00 0.  1.
          1    1    1    2  501    0 -0.11433206146E+02 -0.51350878967E+02  0.40612098806E+03  0.40951420966E+03  0.00000000000E+00 0. -1.
<scales pt_clust_3="285.08679" pt_clust_4="48.16562" pt_clust_5="14000.00000" pt_clust_6="56.44361"></scales>
<clustering>
<clus scale="   48.166">  1  4  2 -1</clus>
<clus scale="   56.444">  1  6  2 -1</clus>
<clus scale="  285.087">  2  3  1 -1</clus>
<clus scale="  285.087">  2  3  1 -1</clus>
</clustering>
</event>
<event>
 6    0  0.6338511E+002  0.8564892E+02  0.7546771E-02  0.1313744E+00
          2   -1    0    0  505    0 -0.00000000000E+00  0.00000000000E+00  0.28270174365E+04  0.28270174365E+04  0.00000000000E+00 0.  1.
         21   -1    0    0  503  502  0.00000000000E+00 -0.00000000000E+00 -0.80433022546E+02  0.80433022546E+02  0.00000000000E+00 0. -1.
         21    1    1    2  503  501  0.81760852611E+01  0.30312663607E+02 -0.72043859450E+02  0.78587681157E+02  0.00000000000E+00 0. -1.
         21    1    1    2  504  502 -0.55584161558E+02  0.36606154255E+02  0.46283730174E+03  0.46759809391E+03  0.00000000000E+00 0. -1.
         21    1    1    2  505  504  0.19958935406E+02 -0.10558658652E+03  0.18938781229E+04  0.18969241499E+04  0.00000000000E+00 0. -1.
          2    1    1    2  501    0  0.27449140891E+02  0.38667768656E+02  0.46191284883E+03  0.46434053407E+03  0.00000000000E+00 0.  1.
<scales pt_clust_3="31.39595" pt_clust_4="85.64892" pt_clust_5="14000.00000" pt_clust_6="54.46700"></scales>
<clustering>
<clus scale="   31.396">  2  3  1 -1</clus>
<clus scale="   54.467">  2  6  1 -1</clus>
<clus scale="   85.649">  2  4  1 -1</clus>
<clus scale="   31.396">  2  3  1 -1</clus>
</clustering>
</event>
<event>
 6    0  0.6338511E+002  0.8048019E+02  0.7546771E-02  0.1327694E+00
         21   -1    0    0  504  502  0.00000000000E+00  0.00000000000E+00  0.26316788933E+03  0.26316788933E+03  0.00000000000E+00 0.  1.
          2   -1    0    0  502    0 -0.00000000000E+00 -0.00000000000E+00 -0.44833560122E+03  0.44833560122E+03  0.00000000000E+00 0. -1.
         21    1    1    2  503  501 -0.99585749600E+01  0.70731886384E+02 -0.52386508822E+02  0.88580580678E+02  0.00000000000E+00 0. -1.
         21    1    1    2  504  505  0.43018372856E+02 -0.16472803142E+02  0.39412393589E+02  0.60624008569E+02  0.00000000000E+00 0.  1.
         21    1    1    2  505  503 -0.89548871554E+02 -0.57028101111E+02  0.17816862428E+03  0.20740121357E+03  0.00000000000E+00 0.  1.
          2    1    1    2  501    0  0.56489073658E+02  0.27690178684E+01 -0.35036222093E+03  0.35489768773E+03  0.00000000000E+00 0. -1.
<scales pt_clust_3="14000.00000" pt_clust_4="46.06445" pt_clust_5="80.48019" pt_clust_6="57.00579"></scales>
<clustering>
<clus scale="   46.064">  1  4  2 -1</clus>
<clus scale="   57.006">  2  6  1 -1</clus>
<clus scale="   80.480">  1  5  2 -1</clus>
<clus scale="   46.064">  1  3  2 -1</clus>
</clustering>
</event>
<event>
 6    0  0.6338511E+002  0.1621104E+03  0.7546771E-02  0.1186335E+00
         21   -1    0    0  505  502  0.00000000000E+00  0.00000000000E+00  0.39713828924E+03  0.39713828924E+03  0.00000000000E+00 0. -1.
          1   -1    0    0  503    0 -0.00000000000E+00 -0.00000000000E+00 -0.12569235901E+04  0.12569235901E+04  0.00000000000E+00 0.  1.
         21    1    1    2  503  504  0.22265706227E+02  0.49596318475E+02 -0.80684567814E+03  0.80867515407E+03  0.00000000000E+00 0.  1.
         21    1    1    2  504  502 -0.10965478378E+03 -0.15121353011E+03  0.23087162528E+03  0.29697038683E+03  0.00000000000E+00 0. -1.
         21    1    1    2  505  501 -0.90206170184E+01  0.36782687753E+02  0.12124744689E+03  0.12702472604E+03  0.00000000000E+00 0.  1.
          1    1    1    2  501    0  0.96409694570E+02  0.64834523883E+02 -0.40505869487E+03  0.42139161238E+03  0.00000000000E+00 0.  1.
<scales pt_clust_3="54.46514" pt_clust_4="162.11036" pt_clust_5="37.87265" pt_clust_6="14000.00000"></scales>
<clustering>
<clus scale="   37.873">  1  5  2 -1</clus>
<clus scale="   54.465">  2  3  1 -1</clus>
<clus scale="  162.110">  1  4  2 -1</clus>
<clus scale="   37.873">  1  3  2 -1</clus>
</clustering>
</event>
<event>
 6    0  0.6338511E+002  0.1695383E+03  0.7546771E-02  0.1178330E+00
          1   -1    0    0  505    0 -0.00000000000E+00  0.00000000000E+00  0.15149073702E+04  0.15149073702E+04  0.00000000000E+00 0. -1.
         21   -1    0    0  504  502  0.00000000000E+00 -0.00000000000E+00 -0.55543885596E+03  0.55543885596E+03  0.00000000000E+00 0. -1.
         21    1    1    2  503  502  0.90657803156E+02  0.14430598916E+03 -0.52019457894E+03  0.54739880868E+03  0.00000000000E+00 0. -1.
         21    1    1    2  504  501 -0.12233788142E+03 -0.81891238897E+02  0.52746418499E+03  0.54762322695E+03  0.00000000000E+00 0. -1.
         21    1    1    2  505  503  0.47991455458E+02 -0.35200899255E+02  0.67241157739E+02  0.89797864114E+02  0.00000000000E+00 0. -1.
          1    1    1    2  501    0 -0.16311377190E+02 -0.27213851009E+02  0.88495775042E+03  0.88552632640E+03  0.00000000000E+00 0. -1.
<scales pt_clust_3="169.53829" pt_clust_4="14000.00000" pt_clust_5="60.01348" pt_clust_6="31.72782"></scales>
<clustering>
<clus scale="   31.728">  1  6  2 -1</clus>
<clus scale="   60.013">  1  5  2 -1</clus>
<clus scale="  169.538">  2  3  1 -1</clus>
<clus scale="  169.538">  2  3  1 -1</clus>
</clustering>
</event>
<event>
 6    0  0.6338511E+002  0.1395900E+03  0.7546771E-02  0.1213882E+00
          1   -1    0    0  503    0 -0.00000000000E+00  0.00000000000E+00  0.11443321968E+04  0.11443321968E+04  0.00000000000E+00 0.  1.
         21   -1    0    0  505  502  0.00000000000E+00 -0.00000000000E+00 -0.14369798805E+03  0.14369798805E+03  0.00000000000E+00 0.  1.
         21    1    1    2  503  504  0.87587064868E+02 -0.62560147042E+02  0.56245970515E+02  0.12144494691E+03  0.00000000000E+00 0.  1.
         21    1    1    2  504  502  0.31958040933E+02 -0.15520852041E+02 -0.69966956753E+02  0.78470301807E+02  0.00000000000E+00 0.  1.
         21    1    1    2  505  501 -0.16360248305E+03  0.81310332844E+02  0.19367406089E+03  0.26624572212E+03  0.00000000000E+00 0.  1.
          1    1    1    2  501    0  0.44057377246E+02 -0.32293337609E+01  0.82068113407E+03  0.82186921399E+03  0.00000000000E+00 0.  1.
<scales pt_clust_3="139.58996" pt_clust_4="35.52764" pt_clust_5="14000.00000" pt_clust_6="44.45792"></scales>
<clustering>
<clus scale="   35.528">  2  4  1 -1</clus>
<clus scale="   44.458">  1  6  2 -1</clus>
<clus scale="  139.590">  2  3  1 -1</clus>
<clus scale="   35.528">  2  3  1 -1</clus>
</clustering>
</event>
<event>
 6    0  0.6338511E+002  0.1811938E+03  0.7546771E-02  0.1166653E+00
          4   -1    0    0  505    0 -0.00000000000E+00  0.00000000000E+00  0.16057560420E+03  0.16057560420E+03  0.00000000000E+00 0.  1.
         21   -1    0    0  504  502  0.00000000000E+00 -0.00000000000E+00 -0.77412020531E+03  0.77412020531E+03  0.00000000000E+00 0.  1.
         21    1    1    2  503  501  0.11106910592E+03  0.10263035737E+03 -0.43226378083E+03  0.45795339584E+03  0.00000000000E+00 0.  1.
         21    1    1    2  504  503  0.42266998444E+02 -0.20940221665E+02 -0.13841724214E+03  0.14623380239E+03  0.00000000000E+00 0. -1.
         21    1    1    2  505  502 -0.73938869805E+01  0.32551932491E+02 -0.12383441436E+03  0.12825466873E+03  0.00000000000E+00 0. -1.
          4    1    1    2  501    0 -0.14594221738E+03 -0.11424206819E+03  0.80970836211E+02  0.20225394255E+03  0.00000000000E+00 0.  1.
<scales pt_clust_3="14000.00000" pt_clust_4="42.91938" pt_clust_5="33.38110" pt_clust_6="181.19380"></scales>
<clustering>
<clus scale="   33.381">  2  5  1 -1</clus>
<clus scale="   42.919">  2  4  1 -1</clus>
<clus scale="  181.194">  1  6  2 -1</clus>
<clus scale="   33.381">  2  3  1 -1</clus>
</clustering>
</event>
<event>
 6    0  0.6338511E+002  0.1312879E+03  0.7546771E-02  0.1225557E+00
         21   -1    0    0  505  502  0.00000000000E+00  0.00000000000E+00  0.33532972232E+03  0.33532972232E+03  0.00000000000E+00 0.  1.
          4   -1    0    0  503    0 -0.00000000000E+00 -0.00000000000E+00 -0.44612990428E+03  0.44612990428E+03  0.00000000000E+00 0.  1.
         21    1    1    2  503  502 -0.22581268362E+02  0.11307767118E+03  0.72765830034E+02  0.13635006205E+03  0.00000000000E+00 0.  1.
         21    1    1    2  504  501 -0.30574938233E+01 -0.10656966271E+03 -0.95667574967E+02  0.14324359036E+03  0.00000000000E+00 0.  1.
         21    1    1    2  505  504  0.26561700031E+02  0.46557448171E+02  0.20105570072E+03  0.20807814561E+03  0.00000000000E+00 0.  1.
          4    1    1    2  501    0 -0.92293784504E+00 -0.53065456634E+02 -0.28895413774E+03  0.29378782858E+03  0.00000000000E+00 0.  1.
<scales pt_clust_3="131.28786" pt_clust_4="14000.00000" pt_clust_5="52.54855" pt_clust_6="53.07348"></scales>
<clustering>
<clus scale="   53.073">  2  6  1 -1</clus>
<clus scale="   52.549">  1  5  2 -1</clus>
<clus scale="  131.288">  1  3  2 -1</clus>
<clus scale="   52.549">  1  3  2 -1</clus>
</clustering>
</event>
<event>
 6    0  0.6338511E+002  0.1139363E+03  0.7546771E-02  0.1253449E+00
         -2   -1    0    0    0  501 -0.00000000000E+00  0.00000000000E+00  0.20212338148E+04  0.20212338148E+04  0.00000000000E+00 0. -1.
         21   -1    0    0  503  502  0.00000000000E+00 -0.00000000000E+00 -0.59661331324E+03  0.59661331324E+03  0.00000000000E+00 0. -1.
         21    1    1    2  503  505 -0.14104464872E+02  0.57692924099E+02 -0.14054818757E+03  0.15258178938E+03  0.00000000000E+00 0. -1.
         21    1    1    2  504  502 -0.87910792968E+02 -0.55413614088E+01 -0.43885278580E+03  0.44760560967E+03  0.00000000000E+00 0. -1.
         21    1    1    2  505  501  0.13324555984E+03  0.17126459468E+02  0.79654010638E+03  0.80778947499E+03  0.00000000000E+00 0. -1.
         -2    1    1    2    0  504 -0.31230302005E+02 -0.69278022157E+02  0.12074813685E+04  0.12098702540E+04  0.00000000000E+00 0. -1.
<scales pt_clust_3="59.39200" pt_clust_4="14000.00000" pt_clust_5="113.93628" pt_clust_6="75.86780"></scales>
<clustering>
<clus scale="   59.392">  2  3  1 -1</clus>
<clus scale="   75.868">  1  6  2 -1</clus>
<clus scale="  113.936">  1  5  2 -1</clus>
<clus scale="   59.392">  2  3  1 -1</clus>
</clustering>
</event>
<event>
 6    0  0.6338511E+002  0.9106956E+02  0.7546771E-02  0.1300282E+00
         21   -1    0    0  504  502  0.00000000000E+00  0.00000000000E+00  0.64288900613E+03  0.64288900613E+03  0.00000000000E+00 0.  1.
         -1   -1    0    0    0  501 -0.00000000000E+00 -0.00000000000E+00 -0.80745371682E+03  0.80745371682E+03  0.00000000000E+00 0.  1.
         21    1    1    2  503  501  0.99085195993E+02  0.33626408274E+02  0.19103140191E+03  0.21781094535E+03  0.00000000000E+00 0.  1.
         21    1    1    2  504  503 -0.72400277453E+02 -0.35454602976E+02  0.41430237325E+03  0.42207260694E+03  0.00000000000E+00 0.  1.
         21    1    1    2  505  502 -0.75330977582E+01  0.39652082606E+02 -0.98045378194E+00  0.40373215211E+02  0.00000000000E+00 0.  1.
         -1    1    1    2    0  505 -0.19151820782E+02 -0.37823887905E+02 -0.76891803207E+03  0.77008595545E+03  0.00000000000E+00 0.  1.
<scales pt_clust_3="14000.00000" pt_clust_4="91.06956" pt_clust_5="40.36131" pt_clust_6="42.36626"></scales>
<clustering>
<clus scale="   40.361">  1  5  2 -1</clus>
<clus scale="   42.366">  2  6  1 -1</clus>
<clus scale="   91.070">  1  4  2 -1</clus>
<clus scale="   40.361">  1  3  2 -1</clus>
</clustering>
</event>
<event>
 6    0  0.6338511E+002  0.1151079E+03  0.7546771E-02  0.1251393E+00
         21   -1    0    0  504  502  0.00000000000E+00  0.00000000000E+00  0.25425809688E+03  0.25425809688E+03  0.00000000000E+00 0. -1.
          1   -1    0    0  505    0 -0.00000000000E+00 -0.00000000000E+00 -0.54152732514E+03  0.54152732514E+03  0.00000000000E+00 0. -1.
         21    1    1    2  503  502  0.30133614540E+02 -0.17307383748E+01  0.99779503745E+02  0.10424480586E+03  0.00000000000E+00 0. -1.
         21    1    1    2  504  501  0.40333795922E+02  0.71643719942E+02 -0.27502323189E+02  0.86694956493E+02  0.00000000000E+00 0.  1.
         21    1    1    2  505  503  0.44101607335E+02 -0.98885242046E+02  0.89520872484E+02  0.14048925039E+03  0.00000000000E+00 0. -1.
          1    1    1    2  501    0 -0.11456901780E+03  0.28972260479E+02 -0.44906728130E+03  0.46435640929E+03  0.00000000000E+00 0. -1.
<scales pt_clust_3="30.18328" pt_clust_4="84.96117" pt_clust_5="14000.00000" pt_clust_6="115.10788"></scales>
<clustering>
<clus scale="   30.183">  1  3  2 -1</clus>
<clus scale="   84.961">  1  4  2 -1</clus>
<clus scale="  115.108">  2  6  1 -1</clus>
<clus scale="   30.183">  1  3  2 -1</clus>
</clustering>
</event>
<event>
 6    0  0.6338511E+002  0.1592598E+03  0.7546771E-02  0.1189535E+00
         21   -1    0    0  503  502  0.00000000000E+00  0.00000000000E+00  0.11986116079E+04  0.11986116079E+04  0.00000000000E+00 0.  1.
          2   -1    0    0  504    0 -0.00000000000E+00 -0.00000000000E+00 -0.10197581108E+04  0.10197581108E+04  0.00000000000E+00 0.  1.
         21    1    1    2  503  501 -0.70790336569E+02 -0.14494819236E+03  0.10394875881E+04  0.10519295109E+04  0.00000000000E+00 0.  1.
         21    1    1    2  504  505  0.58617362558E+02  0.19678134734E+03 -0.15101882474E+02  0.20588093819E+03  0.00000000000E+00 0. -1.
         21    1    1    2  505  502  0.33469389668E+02 -0.49659559840E+01  0.51734612937E+02  0.61816914670E+02  0.00000000000E+00 0. -1.
          2    1    1    2  501    0 -0.21296415657E+02 -0.46867199000E+02 -0.89726682142E+03  0.89874235489E+03  0.00000000000E+00 0.  1.
<scales pt_clust_3="14000.00000" pt_clust_4="159.25976" pt_clust_5="33.83579" pt_clust_6="51.47283"></scales>
<clustering>
<clus scale="   33.836">  1  5  2 -1</clus>
<clus scale="   51.473">  2  6  1 -1</clus>
<clus scale="  159.260">  2  4  1 -1</clus>
<clus scale="   33.836">  1  3  2 -1</clus>
</clustering>
</event>
<event>
 6    0  0.6338511E+002  0.9336288E+02  0.7546771E-02  0.1294906E+00
          2   -1    0    0  505    0 -0.00000000000E+00  0.00000000000E+00  0.15415079926E+04  0.15415079926E+04  0.00000000000E+00 0. -1.
         21   -1    0    0  503  502  0.00000000000E+00 -0.00000000000E+00 -0.74953292842E+02  0.74953292842E+02  0.00000000000E+00 0. -1.
         21    1    1    2  503  501  0.38711710503E+02 -0.27480250950E+02 -0.25175692500E+02  0.53736172316E+02  0.00000000000E+00 0. -1.
         21    1    1    2  504  502 -0.27313223227E+02  0.11080307461E+03  0.90507921982E+02  0.14565375878E+03  0.00000000000E+00 0. -1.
         21    1    1    2  505  504 -0.50723932391E+02 -0.10340955570E+03  0.43970338128E+03  0.45453879596E+03  0.00000000000E+00 0. -1.
          2    1    1    2  501    0  0.39325445116E+02  0.20086732040E+02  0.96151908900E+03  0.96253255839E+03  0.00000000000E+00 0. -1.
<scales pt_clust_3="47.98719" pt_clust_4="93.36288" pt_clust_5="14000.00000" pt_clust_6="44.15844"></scales>
<clustering>
<clus scale="   44.158">  1  6  2 -1</clus>
<clus scale="   47.987">  2  3  1 -1</clus>
<clus scale="   93.363">  2  4  1 -1</clus>
<clus scale="   47.987">  2  3  1 -1</clus>
</clustering>
</event>
<event>
 6    0  0.6338511E+002  0.1457028E+03  0.7546771E-02  0.1205855E+00
         21   -1    0    0  501  502  0.00000000000E+00  0.00000000000E+00  0.78403690520E+02  0.78403690520E+02  0.00000000000E+00 0.  1.
          2   -1    0    0  503    0 -0.00000000000E+00 -0.00000000000E+00 -0.12953460833E+04  0.12953460833E+04  0.00000000000E+00 0.  1.
         21    1    1    2  503  504  0.51996961355E+02 -0.13800816700E+03 -0.30629835150E+03  0.33995384728E+03  0.00000000000E+00 0. -1.
         21    1    1    2  504  505  0.50691565810E+02  0.54960640244E+02 -0.19059296429E+02  0.77159339037E+02  0.00000000000E+00 0.  1.
         21    1    1    2  505  502  0.30951441646E+02  0.52845420876E+01  0.16508240090E+02  0.35474499516E+02  0.00000000000E+00 0.  1.
          2    1    1    2  501    0 -0.13363996881E+03  0.77762984665E+02 -0.90809298499E+03  0.92116208804E+03  0.00000000000E+00 0.  1.
<scales pt_clust_3="14000.00000" pt_clust_4="89.18736" pt_clust_5="31.39933" pt_clust_6="145.70282"></scales>
<clustering>
<clus scale="   31.399">  1  5  2 -1</clus>
<clus scale="   89.187">  1  4  2 -1</clus>
<clus scale="  145.703">  2  6  1 -1</clus>
<clus scale="   31.399">  1  3  2 -1</clus>
</clustering>
</event>
<event>
 6    0  0.6338511E+002  0.2512335E+03  0.7546771E-02  0.1112528E+00
          2   -1    0    0  504    0 -0.00000000000E+00  0.00000000000E+00  0.22494204377E+04  0.22494204377E+04  0.00000000000E+00 0.  1.
         21   -1    0    0  503  502  0.00000000000E+00 -0.00000000000E+00 -0.36771284620E+03  0.36771284620E+03  0.00000000000E+00 0.  1.
         21    1    1    2  503  505  0.19575691020E+02  0.12140468186E+03 -0.21471685882E+03  0.24743814160E+03  0.00000000000E+00 0.  1.
         21    1    1    2  504  502  0.42356517656E+02 -0.14732934908E+03  0.37518721260E+03  0.40529675077E+03  0.00000000000E+00 0.  1.
         21    1    1    2  505  501 -0.54989133728E+02  0.11018794169E+03 -0.89155437641E+02  0.15203249450E+03  0.00000000000E+00 0. -1.
          2    1    1    2  501    0 -0.69430749474E+01 -0.84263274478E+02  0.18103926754E+04  0.18123658970E+04  0.00000000000E+00 0.  1.
<scales pt_clust_3="110.27754" pt_clust_4="225.32005" pt_clust_5="110.27754" pt_clust_6="84.54884"></scales>
<clustering>
<clus scale="   84.549">  1  6  2 -1</clus>
<clus scale="  110.278">  3  5 -1 -1</clus>
<clus scale="  225.320">  1  4  2 -1</clus>
<clus scale="  251.234">  2  3  1 -1</clus>
</clustering>
</event>
<event>
 6    0  0.6338511E+002  0.1182493E+03  0.7546771E-02  0.1246013E+00
         -1   -1    0    0    0  501 -0.00000000000E+00  0.00000000000E+00  0.70453677941E+03  0.70453677941E+03  0.00000000000E+00 0. -1.
         21   -1    0    0  503  502  0.00000000000E+00 -0.00000000000E+00 -0.32947261682E+03  0.32947261682E+03  0.00000000000E+00 0. -1.
         21    1    1    2  503  501  0.44872405467E+01  0.31544239098E+02  0.87717159908E+02  0.93324565310E+02  0.00000000000E+00 0.  1.
         21    1    1    2  504  502 -0.12304156939E+03 -0.69009118871E+01 -0.29227933708E+03  0.31719719619E+03  0.00000000000E+00 0. -1.
         21    1    1    2  505  504  0.82082176151E+02 -0.34834844350E+02  0.72427036303E+02  0.11487656685E+03  0.00000000000E+00 0.  1.
         -1    1    1    2    0  505  0.36472152697E+02  0.10191517139E+02  0.50719930346E+03  0.50861106788E+03  0.00000000000E+00 0. -1.
<scales pt_clust_3="31.86180" pt_clust_4="14000.00000" pt_clust_5="118.24927" pt_clust_6="54.14158"></scales>
<clustering>
<clus scale="   31.862">  1  3  2 -1</clus>
<clus scale="   54.142">  1  6  2 -1</clus>
<clus scale="  118.249">  1  5  2 -1</clus>
<clus scale="  118.249">  2  3  1 -1</clus>
</clustering>
</event>
<event>
 6    0  0.6338511E+002  0.2012022E+03  0.7546771E-02  0.1148729E+00
         21   -1    0    0  504  502  0.00000000000E+00  0.00000000000E+00  0.49433687912E+03  0.49433687912E+03  0.00000000000E+00 0. -1.
          1   -1    0    0  505    0 -0.00000000000E+00 -0.00000000000E+00 -0.73335635973E+03  0.73335635973E+03  0.00000000000E+00 0. -1.
         21    1    1    2  503  502  0.41934612224E+02  0.37073700310E+01  0.16077145037E+03  0.16619180349E+03  0.00000000000E+00 0. -1.
         21    1    1    2  504  501  0.19670058721E+03  0.23368716344E+02  0.14537765673E+03  0.24570690057E+03  0.00000000000E+00 0. -1.
         21    1    1    2  505  503 -0.19032527320E+03 -0.56581728792E+02  0.60434714111E+02  0.20755133418E+03  0.00000000000E+00 0. -1.
          1    1    1    2  501    0 -0.48309926237E+02  0.29505642417E+02 -0.60560330182E+03  0.60824320060E+03  0.00000000000E+00 0. -1.
<scales pt_clust_3="42.09817" pt_clust_4="201.20219" pt_clust_5="14000.00000" pt_clust_6="56.47272"></scales>
<clustering>
<clus scale="   42.098">  1  3  2 -1</clus>
<clus scale="   56.473">  2  6  1 -1</clus>
<clus scale="  201.202">  2  4  1 -1</clus>
<clus scale="   42.098">  1  3  2 -1</clus>
</clustering>
</event>
<event>
 6    0  0.6338511E+002  0.1005632E+03  0.7546771E-02  0.1279116E+00
          1   -1    0    0  503    0 -0.00000000000E+00  0.00000000000E+00  0.41854502562E+03  0.41854502562E+03  0.00000000000E+00 0. -1.
         21   -1    0    0  504  502  0.00000000000E+00 -0.00000000000E+00 -0.15598827114E+03  0.15598827114E+03  0.00000000000E+00 0. -1.
         21    1    1    2  503  505  0.86599628673E+01  0.65394761446E+02  0.67016062295E+02  0.94035218865E+02  0.00000000000E+00 0.  1.
         21    1    1    2  504  501  0.24930246883E+02 -0.14288637662E+03 -0.69776170139E+02  0.16095573227E+03  0.00000000000E+00 0. -1.
         21    1    1    2  505  502  0.14581000902E+01  0.34908617344E+02 -0.11886643555E+02  0.36905689477E+02  0.00000000000E+00 0.  1.
          1    1    1    2  501    0 -0.35048309840E+02  0.42582997825E+02  0.27720350588E+03  0.28263665615E+03  0.00000000000E+00 0. -1.
<scales pt_clust_3="100.56324" pt_clust_4="14000.00000" pt_clust_5="34.93906" pt_clust_6="55.69094"></scales>
<clustering>
<clus scale="   34.939">  2  5  1 -1</clus>
<clus scale="   55.691">  1  6  2 -1</clus>
<clus scale="  100.563">  1  3  2 -1</clus>
<clus scale="   34.939">  2  3  1 -1</clus>
</clustering>
</event>
<event>
 6    0  0.6338511E+002  0.6837992E+02  0.7546771E-02  0.1365690E+00
         21   -1    0    0  503  502  0.00000000000E+00  0.00000000000E+00  0.86808844474E+03  0.86808844474E+03  0.00000000000E+00 0.  1.
          2   -1    0    0  505    0 -0.00000000000E+00 -0.00000000000E+00 -0.20049607462E+03  0.20049607462E+03  0.00000000000E+00 0. -1.
         21    1    1    2  503  501 -0.52114470169E+02 -0.85074822281E+01  0.10004137991E+03  0.11312193841E+03  0.00000000000E+00 0.  1.
         21    1    1    2  504  502  0.86191411947E+01 -0.50099403238E+02  0.70384314369E+03  0.70567656240E+03  0.00000000000E+00 0.  1.
         21    1    1    2  505  504  0.88629330143E+02  0.45322561337E+02  0.61892834702E+01  0.99737655666E+02  0.00000000000E+00 0.  1.
          2    1    1    2  501    0 -0.45134001169E+02  0.13284324129E+02 -0.14248143695E+03  0.15004836289E+03  0.00000000000E+00 0. -1.
<scales pt_clust_3="68.37992" pt_clust_4="50.48981" pt_clust_5="14000.00000" pt_clust_6="47.04839"></scales>
<clustering>
<clus scale="   47.048">  2  6  1 -1</clus>
<clus scale="   50.490">  1  4  2 -1</clus>
<clus scale="   68.380">  1  3  2 -1</clus>
<clus scale="   50.490">  1  3  2 -1</clus>
</clustering>
</event>
<event>
 6    0  0.6338511E+002  0.7622858E+02  0.7546771E-02  0.1340108E+00
         -2   -1    0    0    0  501 -0.00000000000E+00  0.00000000000E+00  0.29755488017E+04  0.29755488017E+04  0.00000000000E+00 0. -1.
         21   -1    0    0  504  502  0.00000000000E+00 -0.00000000000E+00 -0.76806844629E+01  0.76806844629E+01  0.00000000000E+00 0. -1.
         21    1    1    2  503  501 -0.71426184417E+02  0.30423678164E+02  0.55782214334E+03  0.56319876031E+03  0.00000000000E+00 0. -1.
         21    1    1    2  504  503 -0.30019796878E+02 -0.21631045808E+02  0.17116003849E+03  0.17511381762E+03  0.00000000000E+00 0. -1.
         21    1    1    2  505  502  0.80431698184E+02  0.42523271240E+02  0.83611877716E+03  0.84105415770E+03  0.00000000000E+00 0. -1.
         -2    1    1    2    0  505  0.21014283111E+02 -0.51315903597E+02  0.14027671583E+04  0.14038627506E+04  0.00000000000E+00 0. -1.
<scales pt_clust_3="14000.00000" pt_clust_4="37.00122" pt_clust_5="76.22858" pt_clust_6="56.38786"></scales>
<clustering>
<clus scale="   37.001">  2  4  1 -1</clus>
<clus scale="   56.388">  1  6  2 -1</clus>
<clus scale="   76.229">  2  5  1 -1</clus>
<clus scale="   37.001">  2  3  1 -1</clus>
</clustering>
</event>
<event>
 6    0  0.6338511E+002  0.1176948E+03  0.7546771E-02  0.1246949E+00
         21   -1    0    0  503  502  0.00000000000E+00  0.00000000000E+00  0.10489241418E+03  0.10489241418E+03  0.00000000000E+00 0. -1.
          1   -1    0    0  505    0 -0.00000000000E+00 -0.00000000000E+00 -0.36185910634E+04  0.36185910634E+04  0.00000000000E+00 0.  1.
         21    1    1    2  503  504 -0.82014425645E+02  0.13920360549E+03 -0.15665753786E+02  0.16232506164E+03  0.00000000000E+00 0. -1.
         21    1    1    2  504  501  0.15329798980E+02 -0.89342081535E+02 -0.48195051019E+03  0.49040116695E+03  0.00000000000E+00 0. -1.
         21    1    1    2  505  502  0.14052461116E+02 -0.40545134634E+02  0.10115434451E+02  0.44087431543E+02  0.00000000000E+00 0. -1.
          1    1    1    2  501    0  0.52632165549E+02 -0.93163893229E+01 -0.30261978197E+04  0.30266698175E+04  0.00000000000E+00 0.  1.
<scales pt_clust_3="14000.00000" pt_clust_4="117.69484" pt_clust_5="42.91130" pt_clust_6="53.51389"></scales>
<clustering>
<clus scale="   42.911">  1  5  2 -1</clus>
<clus scale="   53.514">  2  6  1 -1</clus>
<clus scale="  117.695">  2  4  1 -1</clus>
<clus scale="   42.911">  1  3  2 -1</clus>
</clustering>
</event>
<event>
 6    0  0.6338511E+002  0.7153324E+02  0.7546771E-02  0.1354955E+00
          1   -1    0    0  504    0 -0.00000000000E+00  0.00000000000E+00  0.90276402041E+03  0.90276402041E+03  0.00000000000E+00 0.  1.
         21   -1    0    0  503  502  0.00000000000E+00 -0.00000000000E+00 -0.49337232153E+02  0.49337232153E+02  0.00000000000E+00 0. -1.
         21    1    1    2  503  501 -0.63212755610E+01 -0.92173194386E+02  0.10582531716E+03  0.14048079598E+03  0.00000000000E+00 0.  1.
         21    1    1    2  504  505 -0.27839336981E+02  0.79369987138E+02  0.16938183105E+03  0.18911591216E+03  0.00000000000E+00 0.  1.
         21    1    1    2  505  502  0.35766152224E+02  0.57255229203E+02  0.32409565628E+02  0.74884970856E+02  0.00000000000E+00 0. -1.
          1    1    1    2  501    0 -0.16055396812E+01 -0.44452021955E+02  0.54581007441E+03  0.54761957356E+03  0.00000000000E+00 0.  1.
<scales pt_clust_3="14000.00000" pt_clust_4="71.53324" pt_clust_5="61.79021" pt_clust_6="44.48101"></scales>
<clustering>
<clus scale="   44.481">  1  6  2 -1</clus>
<clus scale="   61.790">  2  5  1 -1</clus>
<clus scale="   71.533">  1  4  2 -1</clus>
<clus scale="   61.790">  2  3  1 -1</clus>
</clustering>
</event>
<event>
 6    0  0.6338511E+002  0.1384935E+03  0.7546771E-02  0.1215370E+00
          2   -1    0    0  504    0 -0.00000000000E+00  0.00000000000E+00  0.53491949015E+03  0.53491949015E+03  0.00000000000E+00 0.  1.
         21   -1    0    0  505  502  0.00000000000E+00 -0.00000000000E+00 -0.75761636290E+03  0.75761636290E+03  0.00000000000E+00 0.  1.
         21    1    1    2  503  502 -0.10914614880E+03 -0.13064892246E+03 -0.18643119468E+03  0.25246507301E+03  0.00000000000E+00 0.  1.
         21    1    1    2  504  503  0.51650969020E+02  0.12723724438E+03  0.43037879106E+03  0.45175551215E+03  0.00000000000E+00 0.  1.
         21    1    1    2  505  501  0.23801698236E+02 -0.76358884536E+02 -0.49170486636E+03  0.49816751769E+03  0.00000000000E+00 0.  1.
          2    1    1    2  501    0  0.33693481544E+02  0.79770562618E+02  0.25060397223E+02  0.90147750209E+02  0.00000000000E+00 0.  1.
<scales pt_clust_3="14000.00000" pt_clust_4="138.49354" pt_clust_5="79.98250" pt_clust_6="79.28562"></scales>
<clustering>
<clus scale="   79.982">  2  5  1 -1</clus>
<clus scale="   79.286">  2  6  1 -1</clus>
<clus scale="  138.494">  1  4  2 -1</clus>
<clus scale="   79.982">  2  3  1 -1</clus>
</clustering>
</event>
<event>
 6    0  0.6338511E+002  0.1156250E+03  0.7546771E-02  0.1250494E+00
          1   -1    0    0  503    0 -0.00000000000E+00  0.00000000000E+00  0.30575057227E+03  0.30575057227E+03  0.00000000000E+00 0. -1.
         21   -1    0    0  505  502  0.00000000000E+00 -0.00000000000E+00 -0.26694936442E+03  0.26694936442E+03  0.00000000000E+00 0. -1.
         21    1    1    2  503  502 -0.57114048946E+02  0.26517056757E+02  0.51796685680E+02  0.81535670314E+02  0.00000000000E+00 0.  1.
         21    1    1    2  504  501 -0.38460877248E+02 -0.33797663424E+02 -0.14980245729E+02  0.53347248230E+02  0.00000000000E+00 0.  1.
         21    1    1    2  505  504  0.13391799227E+03  0.15720345859E+02 -0.19493313874E+03  0.23702338810E+03  0.00000000000E+00 0. -1.
          1    1    1    2  501    0 -0.38343066073E+02 -0.84397391918E+01  0.19691790664E+03  0.20079363005E+03  0.00000000000E+00 0. -1.
<scales pt_clust_3="14000.00000" pt_clust_4="57.47044" pt_clust_5="115.62495" pt_clust_6="39.26092"></scales>
<clustering>
<clus scale="   39.261">  1  6  2 -1</clus>
<clus scale="   57.470">  1  4  2 -1</clus>
<clus scale="  115.625">  2  5  1 -1</clus>
<clus scale="  115.625">  2  3  1 -1</clus>
</clustering>
</event>
<event>
 6    0  0.6338511E+002  0.6719056E+02  0.7546771E-02  0.1369916E+00
          4   -1    0    0  504    0 -0.00000000000E+00  0.00000000000E+00  0.43517499397E+03  0.43517499397E+03  0.00000000000E+00 0. -1.
         21   -1    0    0  505  502  0.00000000000E+00 -0.00000000000E+00 -0.57365352258E+03  0.57365352258E+03  0.00000000000E+00 0. -1.
         21    1    1    2  503  501  0.90107266193E+02  0.16712197614E+02 -0.21009267577E+02  0.94021307660E+02  0.00000000000E+00 0. -1.
         21    1    1    2  504  502 -0.85086101701E+02 -0.87783449229E+01 -0.18255142046E+03  0.20159792944E+03  0.00000000000E+00 0. -1.
         21    1    1    2  505  503  0.56395097909E+02 -0.33899190300E+02 -0.31781223118E+03  0.32455227076E+03  0.00000000000E+00 0. -1.
          4    1    1    2  501    0 -0.61416262401E+02  0.25965337609E+02  0.38289439060E+03  0.38865700868E+03  0.00000000000E+00 0. -1.
<scales pt_clust_3="14000.00000" pt_clust_4="54.53687" pt_clust_5="65.79941" pt_clust_6="67.19056"></scales>
<clustering>
<clus scale="   65.799">  2  5  1 -1</clus>
<clus scale="   54.537">  2  4  1 -1</clus>
<clus scale="   67.191">  1  6  2 -1</clus>
<clus scale="   65.799">  2  3  1 -1</clus>
</clustering>
</event>
<event>
 6    0  0.6338511E+002  0.2344167E+03  0.7546771E-02  0.1123569E+00
          1   -1    0    0  503    0 -0.00000000000E+00  0.00000000000E+00  0.10430889127E+04  0.10430889127E+04  0.00000000000E+00 0.  1.
         21   -1    0    0  504  502  0.00000000000E+00 -0.00000000000E+00 -0.12646203415E+03  0.12646203415E+03  0.00000000000E+00 0.  1.
         21    1    1    2  503  502  0.15043680018E+02  0.26194662439E+02  0.47773955770E+02  0.56522769736E+02  0.00000000000E+00 0.  1.
         21    1    1    2  504  505 -0.25578854287E+03 -0.59393408060E+02  0.78624529028E+02  0.27411160528E+03  0.00000000000E+00 0.  1.
         21    1    1    2  505  501  0.12862490797E+03  0.35254455123E+02  0.62603424760E+03  0.64008290301E+03  0.00000000000E+00 0.  1.
          1    1    1    2  501    0  0.11211995489E+03 -0.20557095015E+01  0.16419414614E+03  0.19883366881E+03  0.00000000000E+00 0.  1.
<scales pt_clust_3="30.20716" pt_clust_4="234.41669" pt_clust_5="14000.00000" pt_clust_6="114.90829"></scales>
<clustering>
<clus scale="   30.207">  1  3  2 -1</clus>
<clus scale="  114.908">  1  6  2 -1</clus>
<clus scale="  234.417">  2  4  1 -1</clus>
<clus scale="  234.417">  2  3  1 -1</clus>
</clustering>
</event>
<event>
 6    0  0.6338511E+002  0.1438243E+03  0.7546771E-02  0.1208274E+00
         21   -1    0    0  501  502  0.00000000000E+00  0.00000000000E+00  0.38162090061E+02  0.38162090061E+02  0.00000000000E+00 0. -1.
          2   -1    0    0  505    0 -0.00000000000E+00 -0.00000000000E+00 -0.11749327294E+04  0.11749327294E+04  0.00000000000E+00 0. -1.
         21    1    1    2  503  504  0.64302453452E+00  0.44464189123E+02 -0.93072295662E+02  0.10315003546E+03  0.00000000000E+00 0. -1.
         21    1    1    2  504  502  0.42275621987E+02  0.74511718810E+02 -0.62653540190E+02  0.10613524651E+03  0.00000000000E+00 0. -1.
         21    1    1    2  505  503  0.54776105951E+02 -0.14992118506E+01 -0.36552494622E+03  0.36960946379E+03  0.00000000000E+00 0.  1.
          2    1    1    2  501    0 -0.97694752473E+02 -0.11747669608E+03 -0.61551985731E+03  0.63420007374E+03  0.00000000000E+00 0. -1.
<scales pt_clust_3="42.94211" pt_clust_4="42.94211" pt_clust_5="54.79662" pt_clust_6="130.89279"></scales>
<clustering>
<clus scale="   42.942">  3  4 -1 -1</clus>
<clus scale="   54.797">  2  5  1 -1</clus>
<clus scale="  130.893">  2  6  1 -1</clus>
<clus scale="  143.824">  1  3  2 -1</clus>
</clustering>
</event>
<event>
 6    0  0.6338511E+002  0.8814639E+02  0.7546771E-02  0.1307404E+00
          2   -1    0    0  504    0 -0.00000000000E+00  0.00000000000E+00  0.84110926031E+03  0.84110926031E+03  0.00000000000E+00 0. -1.
         21   -1    0    0  505  502  0.00000000000E+00 -0.00000000000E+00 -0.10155352462E+03  0.10155352462E+03  0.00000000000E+00 0. -1.
         21    1    1    2  503  501  0.23757771515E+02  0.68781296555E+02  0.65716888633E+02  0.98051047494E+02  0.00000000000E+00 0. -1.
         21    1    1    2  504  502  0.33439356640E+01 -0.12001827553E+03  0.63555940823E+02  0.13584890865E+03  0.00000000000E+00 0. -1.
         21    1    1    2  505  503  0.22629696990E+02  0.40747124660E+02 -0.36986164655E+02  0.59501325446E+02  0.00000000000E+00 0. -1.
          2    1    1    2  501    0 -0.49731404169E+02  0.10489854315E+02  0.64726907088E+03  0.64926150334E+03  0.00000000000E+00 0. -1.
<scales pt_clust_3="14000.00000" pt_clust_4="88.14639" pt_clust_5="46.60935" pt_clust_6="50.57590"></scales>
<clustering>
<clus scale="   46.609">  2  5  1 -1</clus>
<clus scale="   50.576">  1  6  2 -1</clus>
<clus scale="   88.146">  2  4  1 -1</clus>
<clus scale="   46.609">  2  3  1 -1</clus>
</clustering>
</event>
<event>
 6    0  0.6338511E+002  0.1602171E+03  0.7546771E-02  0.1188452E+00
         21   -1    0    0  503  502  0.00000000000E+00  0.00000000000E+00  0.20222659775E+03  0.20222659775E+03  0.00000000000E+00 0. -1.
         -3   -1    0    0    0  501 -0.00000000000E+00 -0.00000000000E+00 -0.63385460410E+03  0.63385460410E+03  0.00000000000E+00 0. -1.
         21    1    1    2  503  501  0.52543549167E+02 -0.10535588609E+03 -0.27461592365E+03  0.29878854197E+03  0.00000000000E+00 0. -1.
         21    1    1    2  504  502 -0.29721438537E+02 -0.68680602614E+01  0.10030874238E+03  0.10484454186E+03  0.00000000000E+00 0. -1.
         21    1    1    2  505  504 -0.82633368090E+02 -0.98168886283E+02 -0.83910206271E+02  0.15331773046E+03  0.00000000000E+00 0. -1.
         -3    1    1    2    0  505  0.59811257460E+02  0.21039283263E+03 -0.17341061881E+03  0.27913038756E+03  0.00000000000E+00 0. -1.
<scales pt_clust_3="116.92339" pt_clust_4="30.50466" pt_clust_5="160.21714" pt_clust_6="14000.00000"></scales>
<clustering>
<clus scale="   30.505">  1  4  2 -1</clus>
<clus scale="  116.923">  2  3  1 -1</clus>
<clus scale="  160.217">  1  5  2 -1</clus>
<clus scale="   30.505">  1  3  2 -1</clus>
</clustering>
</event>
<event>
 6    0  0.6338511E+002  0.1541955E+03  0.7546771E-02  0.1195410E+00
         21   -1    0    0  504  502  0.00000000000E+00  0.00000000000E+00  0.42454171137E+03  0.42454171137E+03  0.00000000000E+00 0.  1.
          2   -1    0    0  503    0 -0.00000000000E+00 -0.00000000000E+00 -0.25669549838E+03  0.25669549838E+03  0.00000000000E+00 0.  1.
         21    1    1    2  503  502 -0.16124244017E+03  0.30889630259E+02  0.20241291905E+03  0.26062287614E+03  0.00000000000E+00 0.  1.
         21    1    1    2  504  505  0.18102254730E+02 -0.29956649485E+02  0.16545772826E+03  0.16911934341E+03  0.00000000000E+00 0.  1.
         21    1    1    2  505  501  0.88580000149E+02  0.96368875033E+01 -0.82226033634E+02  0.12124523345E+03  0.00000000000E+00 0.  1.
          2    1    1    2  501    0  0.54560185293E+02 -0.10569868278E+02 -0.11779840067E+03  0.13024975676E+03  0.00000000000E+00 0.  1.
<scales pt_clust_3="145.00437" pt_clust_4="35.00132" pt_clust_5="41.36100" pt_clust_6="41.36100"></scales>
<clustering>
<clus scale="   35.001">  1  4  2 -1</clus>
<clus scale="   41.361">  5  6 -1 -1</clus>
<clus scale="  145.004">  1  3  2 -1</clus>
<clus scale="   35.001">  1  3  2 -1</clus>
</clustering>
</event>
<event>
 6    0  0.6338511E+002  0.8599074E+02  0.7546771E-02  0.1312862E+00
          2   -1    0    0  503    0 -0.00000000000E+00  0.00000000000E+00  0.25507043805E+04  0.25507043805E+04  0.00000000000E+00 0.  1.
         21   -1    0    0  505  502  0.00000000000E+00 -0.00000000000E+00 -0.41023609060E+03  0.41023609060E+03  0.00000000000E+00 0. -1.
         21    1    1    2  503  504 -0.86332893925E+02  0.90345676714E+01  0.11475048603E+04  0.11507833838E+04  0.00000000000E+00 0.  1.
         21    1    1    2  504  502  0.35357554332E+02 -0.30326755919E+02  0.36856648659E+02  0.59399337735E+02  0.00000000000E+00 0.  1.
         21    1    1    2  505  501  0.29203730302E+02  0.89112210974E+02 -0.39083817838E+03  0.40193074737E+03  0.00000000000E+00 0. -1.
          2    1    1    2  501    0  0.21771609291E+02 -0.67820022726E+02  0.13469449593E+04  0.13488270022E+04  0.00000000000E+00 0.  1.
<scales pt_clust_3="85.99074" pt_clust_4="46.58185" pt_clust_5="14000.00000" pt_clust_6="71.32254"></scales>
<clustering>
<clus scale="   46.582">  2  4  1 -1</clus>
<clus scale="   71.323">  1  6  2 -1</clus>
<clus scale="   85.991">  1  3  2 -1</clus>
<clus scale="   46.582">  2  3  1 -1</clus>
</clustering>
</event>
<event>
 6    0  0.6338511E+002  0.7563997E+02  0.7546771E-02  0.1341901E+00
          2   -1    0    0  504    0 -0.00000000000E+00  0.00000000000E+00  0.15098827914E+04  0.15098827914E+04  0.00000000000E+00 0.  1.
         21   -1    0    0  505  502  0.00000000000E+00 -0.00000000000E+00 -0.12365912864E+04  0.12365912864E+04  0.00000000000E+00 0. -1.
         21    1    1    2  503  502 -0.72031186254E+02  0.91225745481E+01 -0.74954642260E+03  0.75305481393E+03  0.00000000000E+00 0. -1.
         21    1    1    2  504  503  0.35240125644E+02  0.33796276635E+02 -0.56905830415E+02  0.74982186585E+02  0.00000000000E+00 0.  1.
         21    1    1    2  505  501  0.74321443572E+02 -0.57575698600E+02 -0.41380227431E+03  0.42434768795E+03  0.00000000000E+00 0. -1.
          2    1    1    2  501    0 -0.37530382962E+02  0.14656847417E+02  0.14935460323E+04  0.14940893893E+04  0.00000000000E+00 0.  1.
<scales pt_clust_3="14000.00000" pt_clust_4="44.35176" pt_clust_5="75.63997" pt_clust_6="40.29085"></scales>
<clustering>
<clus scale="   40.291">  1  6  2 -1</clus>
<clus scale="   44.352">  1  4  2 -1</clus>
<clus scale="   75.640">  1  5  2 -1</clus>
<clus scale="   75.640">  2  3  1 -1</clus>
</clustering>
</event>
<event>
 6    0  0.6338511E+002  0.1285226E+03  0.7546771E-02  0.1229665E+00
          2   -1    0    0  505    0 -0.00000000000E+00  0.00000000000E+00  0.90085787094E+03  0.90085787094E+03  0.00000000000E+00 0. -1.
         21   -1    0    0  503  502  0.00000000000E+00 -0.00000000000E+00 -0.95154453737E+02  0.95154453737E+02  0.00000000000E+00 0.  1.
         21    1    1    2  503  501 -0.72866261214E+02  0.61959518851E+01 -0.90570626079E+01  0.73687938132E+02  0.00000000000E+00 0.  1.
         21    1    1    2  504  502  0.80885987828E+02 -0.10247151381E+03  0.69905415853E+02  0.14808687091E+03  0.00000000000E+00 0.  1.
         21    1    1    2  505  504  0.41023460564E+02  0.92720485981E-01  0.28883840944E+02  0.50171796674E+02  0.00000000000E+00 0.  1.
          2    1    1    2  501    0 -0.49043187178E+02  0.96182841439E+02  0.71597122301E+03  0.72406571896E+03  0.00000000000E+00 0. -1.
<scales pt_clust_3="73.12921" pt_clust_4="36.34579" pt_clust_5="36.34579" pt_clust_6="110.96936"></scales>
<clustering>
<clus scale="   36.346">  4  5 -1 -1</clus>
<clus scale="   73.129">  2  3  1 -1</clus>
<clus scale="  110.969">  1  6  2 -1</clus>
<clus scale="   73.129">  2  3  1 -1</clus>
</clustering>
</event>
<event>
 6    0  0.6338511E+002  0.1730973E+03  0.7546771E-02  0.1174656E+00
          2   -1    0    0  502    0 -0.00000000000E+00  0.00000000000E+00  0.65328942747E+03  0.65328942747E+03  0.00000000000E+00 0. -1.
         21   -1    0    0  504  502  0.00000000000E+00 -0.00000000000E+00 -0.14947285751E+03  0.14947285751E+03  0.00000000000E+00 0. -1.
         21    1    1    2  503  505  0.58927468602E+02 -0.62347882576E+02  0.20474768426E+02  0.88198192496E+02  0.00000000000E+00 0. -1.
         21    1    1    2  504  503 -0.32830391467E+02 -0.95518298902E+01 -0.70189117501E+02  0.78074222851E+02  0.00000000000E+00 0. -1.
         21    1    1    2  505  501 -0.18638325424E+02 -0.82278004872E+02  0.28200378146E+02  0.88951214652E+02  0.00000000000E+00 0. -1.
          2    1    1    2  501    0 -0.74587517106E+01  0.15417771734E+03  0.52533054090E+03  0.54753865498E+03  0.00000000000E+00 0. -1.
<scales pt_clust_3="75.06658" pt_clust_4="34.19170" pt_clust_5="75.06658" pt_clust_6="153.26408"></scales>
<clustering>
<clus scale="   34.192">  2  4  1 -1</clus>
<clus scale="   75.067">  3  5 -1 -1</clus>
<clus scale="  153.264">  1  6  2 -1</clus>
<clus scale="   34.192">  2  3  1 -1</clus>
</clustering>
</event>
<event>
 6    0  0.6338511E+002  0.1177037E+03  0.7546771E-02  0.1246934E+00
         21   -1    0    0  503  502  0.00000000000E+00  0.00000000000E+00  0.47608339363E+02  0.47608339363E+02  0.00000000000E+00 0.  1.
          1   -1    0    0  505    0 -0.00000000000E+00 -0.00000000000E+00 -0.14694509500E+04  0.14694509500E+04  0.00000000000E+00 0.  1.
         21    1    1    2  503  504  0.61053286642E+02  0.37100263799E+02 -0.78610706847E+02  0.10622418093E+03  0.00000000000E+00 0.  1.
         21    1    1    2  504  501  0.32397576231E+02  0.24585017310E+02 -0.10468292688E+01  0.40683189075E+02  0.00000000000E+00 0. -1.
         21    1    1    2  505  502 -0.10663849312E+03  0.55277306870E+02 -0.33063170985E+03  0.35177361531E+03  0.00000000000E+00 0. -1.
          1    1    1    2  501    0  0.13187630245E+02 -0.11696258798E+03 -0.10115533646E+04  0.10183783040E+04  0.00000000000E+00 0.  1.
<scales pt_clust_3="39.19274" pt_clust_4="39.19274" pt_clust_5="102.06150" pt_clust_6="117.70370"></scales>
<clustering>
<clus scale="   39.193">  3  4 -1 -1</clus>
<clus scale="  117.704">  2  6  1 -1</clus>
<clus scale="  102.061">  2  5  1 -1</clus>
<clus scale="  117.704">  1  3  2 -1</clus>
</clustering>
</event>
<event>
 6    0  0.6338511E+002  0.1525900E+03  0.7546771E-02  0.1197326E+00
          1   -1    0    0  504    0 -0.00000000000E+00  0.00000000000E+00  0.65897737053E+03  0.65897737053E+03  0.00000000000E+00 0. -1.
         21   -1    0    0  505  502  0.00000000000E+00 -0.00000000000E+00 -0.20691290399E+03  0.20691290399E+03  0.00000000000E+00 0. -1.
         21    1    1    2  503  502 -0.11557793876E+02 -0.31712219293E+02 -0.13244796800E+02  0.36258407218E+02  0.00000000000E+00 0. -1.
         21    1    1    2  504  503 -0.11768117198E+02 -0.73634807300E+02  0.38693814430E+02  0.84010622564E+02  0.00000000000E+00 0. -1.
         21    1    1    2  505  501  0.62885360179E+02  0.15714053836E+03 -0.11207748893E+03  0.20300019912E+03  0.00000000000E+00 0. -1.
          1    1    1    2  501    0 -0.39559449104E+02 -0.51793511766E+02  0.53869293783E+03  0.54262104561E+03  0.00000000000E+00 0. -1.
<scales pt_clust_3="31.37571" pt_clust_4="31.37571" pt_clust_5="145.28878" pt_clust_6="65.17298"></scales>
<clustering>
<clus scale="   31.376">  3  4 -1 -1</clus>
<clus scale="   65.173">  1  6  2 -1</clus>
<clus scale="  145.289">  2  5  1 -1</clus>
<clus scale="  145.289">  2  3  1 -1</clus>
</clustering>
</event>
<event>
 6    0  0.6338511E+002  0.1512679E+03  0.7546771E-02  0.1198924E+00
         21   -1    0    0  505  502  0.00000000000E+00  0.00000000000E+00  0.23440362846E+03  0.23440362846E+03  0.00000000000E+00 0.  1.
          1   -1    0    0  504    0 -0.00000000000E+00 -0.00000000000E+00 -0.17784737463E+04  0.17784737463E+04  0.00000000000E+00 0. -1.
         21    1    1    2  503  501 -0.58866735356E+02 -0.68061923978E+02 -0.71118443517E+03  0.71685494967E+03  0.00000000000E+00 0. -1.
         21    1    1    2  504  502  0.11855740393E+03  0.10800423981E+03 -0.73919752691E+02  0.17659247912E+03  0.00000000000E+00 0.  1.
         21    1    1    2  505  503 -0.30601797643E+02 -0.40704733576E+01  0.17833730191E+03  0.18098959093E+03  0.00000000000E+00 0.  1.
          1    1    1    2  501    0 -0.29088870935E+02 -0.35871842475E+02 -0.93730323191E+03  0.93844035508E+03  0.00000000000E+00 0. -1.
<scales pt_clust_3="44.85446" pt_clust_4="137.58433" pt_clust_5="30.87133" pt_clust_6="44.85446"></scales>
<clustering>
<clus scale="   30.871">  1  5  2 -1</clus>
<clus scale="   44.854">  3  6 -1 -1</clus>
<clus scale="  137.584">  1  4  2 -1</clus>
<clus scale="   30.871">  1  3  2 -1</clus>
</clustering>
</event>
<event>
 6    0  0.6338511E+002  0.9767608E+02  0.7546771E-02  0.1285260E+00
          2   -1    0    0  505    0 -0.00000000000E+00  0.00000000000E+00  0.43799292546E+03  0.43799292546E+03  0.00000000000E+00 0.  1.
         21   -1    0    0  503  502  0.00000000000E+00 -0.00000000000E+00 -0.69725242853E+03  0.69725242853E+03  0.00000000000E+00 0. -1.
         21    1    1    2  503  501 -0.98742292209E+02 -0.81639486878E+02 -0.60202075351E+03  0.61550307371E+03  0.00000000000E+00 0. -1.
         21    1    1    2  504  502  0.20990087704E+02  0.23262813208E+02 -0.64842307779E+02  0.72015742295E+02  0.00000000000E+00 0.  1.
         21    1    1    2  505  504 -0.20695673165E+02  0.66193631904E+02  0.81590923543E+02  0.10708401653E+03  0.00000000000E+00 0.  1.
          2    1    1    2  501    0  0.98447877670E+02 -0.78169582343E+01  0.32601263468E+03  0.34064252145E+03  0.00000000000E+00 0.  1.
<scales pt_clust_3="97.67608" pt_clust_4="31.33277" pt_clust_5="69.67874" pt_clust_6="14000.00000"></scales>
<clustering>
<clus scale="   31.333">  2  4  1 -1</clus>
<clus scale="   69.679">  1  5  2 -1</clus>
<clus scale="   97.676">  2  3  1 -1</clus>
<clus scale="   31.333">  2  3  1 -1</clus>
</clustering>
</event>
<event>
 6    0  0.6338511E+002  0.8764116E+02  0.7546771E-02  0.1308667E+00
          2   -1    0    0  504    0 -0.00000000000E+00  0.00000000000E+00  0.10724111698E+04  0.10724111698E+04  0.00000000000E+00 0.  1.
         21   -1    0    0  505  502  0.00000000000E+00 -0.00000000000E+00 -0.51224638449E+02  0.51224638449E+02  0.00000000000E+00 0. -1.
         21    1    1    2  503  502  0.16104194121E+02 -0.32660930691E+02 -0.31673043083E+00  0.36416778826E+02  0.00000000000E+00 0. -1.
         21    1    1    2  504  503 -0.71010994594E+02 -0.74712567052E+02  0.76251171609E+02  0.12821376759E+03  0.00000000000E+00 0. -1.
         21    1    1    2  505  501 -0.10130678760E+02  0.50639960558E+02  0.14144180134E+03  0.15057496281E+03  0.00000000000E+00 0. -1.
          2    1    1    2  501    0  0.65037479233E+02  0.56733537186E+02  0.80381028885E+03  0.80843029904E+03  0.00000000000E+00 0.  1.
<scales pt_clust_3="36.41540" pt_clust_4="14000.00000" pt_clust_5="46.77148" pt_clust_6="87.64116"></scales>
<clustering>
<clus scale="   36.415">  2  3  1 -1</clus>
<clus scale="   46.771">  2  5  1 -1</clus>
<clus scale="   87.641">  1  6  2 -1</clus>
<clus scale="   36.415">  2  3  1 -1</clus>
</clustering>
</event>
<event>
 6    0  0.6338511E+002  0.9966754E+02  0.7546771E-02  0.1280997E+00
         21   -1    0    0  505  502  0.00000000000E+00  0.00000000000E+00  0.75622301124E+03  0.75622301124E+03  0.00000000000E+00 0. -1.
          4   -1    0    0  504    0 -0.00000000000E+00 -0.00000000000E+00 -0.46799939326E+02  0.46799939326E+02  0.00000000000E+00 0. -1.
         21    1    1    2  503  502  0.35703044109E+02  0.39938553100E+01  0.10952390410E+03  0.11526553608E+03  0.00000000000E+00 0. -1.
         21    1    1    2  504  503 -0.30636612540E+02  0.11533794940E+03  0.11635829692E+03  0.16667542669E+03  0.00000000000E+00 0. -1.
         21    1    1    2  505  501  0.14275246351E+02 -0.88725524689E+02  0.47559990967E+03  0.48401578019E+03  0.00000000000E+00 0. -1.
          4    1    1    2  501    0 -0.19341677920E+02 -0.30606280021E+02  0.79409612212E+01  0.37066207610E+02  0.00000000000E+00 0. -1.
<scales pt_clust_3="35.92573" pt_clust_4="14000.00000" pt_clust_5="99.66754" pt_clust_6="35.43449"></scales>
<clustering>
<clus scale="   35.926">  1  3  2 -1</clus>
<clus scale="   35.434">  2  6  1 -1</clus>
<clus scale="   99.668">  1  5  2 -1</clus>
<clus scale="   35.926">  1  3  2 -1</clus>
</clustering>
</event>
<event>
 6    0  0.6338511E+002  0.9081971E+02  0.7546771E-02  0.1300879E+00
          2   -1    0    0  503    0 -0.00000000000E+00  0.00000000000E+00  0.20418852324E+04  0.20418852324E+04  0.00000000000E+00 0. -1.
         21   -1    0    0  505  502  0.00000000000E+00 -0.00000000000E+00 -0.30041350594E+03  0.30041350594E+03  0.00000000000E+00 0. -1.
         21    1    1    2  503  502  0.35202345560E+02 -0.11585424408E+02 -0.23955278712E+03  0.24240248557E+03  0.00000000000E+00 0. -1.
         21    1    1    2  504  501 -0.15316379097E+03  0.34302050446E+02  0.20475353008E+03  0.25799183245E+03  0.00000000000E+00 0. -1.
         21    1    1    2  505  504  0.29697009787E+02 -0.25729084546E+02 -0.19567836701E+02  0.43895311994E+02  0.00000000000E+00 0. -1.
          2    1    1    2  501    0  0.88264435628E+02  0.30124585079E+01  0.17958388202E+04  0.17980091084E+04  0.00000000000E+00 0. -1.
<scales pt_clust_3="37.05978" pt_clust_4="90.81971" pt_clust_5="58.05068" pt_clust_6="14000.00000"></scales>
<clustering>
<clus scale="   37.060">  2  3  1 -1</clus>
<clus scale="   58.051">  2  5  1 -1</clus>
<clus scale="   90.820">  2  4  1 -1</clus>
<clus scale="   37.060">  2  3  1 -1</clus>
</clustering>
</event>
<event>
 6    0  0.6338511E+002  0.1055362E+03  0.7546771E-02  0.1269067E+00
         21   -1    0    0  505  502  0.00000000000E+00  0.00000000000E+00  0.28253485645E+03  0.28253485645E+03  0.00000000000E+00 0. -1.
          1   -1    0    0  503    0 -0.00000000000E+00 -0.00000000000E+00 -0.14749157710E+03  0.14749157710E+03  0.00000000000E+00 0. -1.
         21    1    1    2  503  502  0.12593892167E+03 -0.21845947593E+02  0.15268969076E+03  0.19912809717E+03  0.00000000000E+00 0. -1.
         21    1    1    2  504  501 -0.86757652478E+02 -0.72199050124E+02 -0.11766893464E+02  0.11348150900E+03  0.00000000000E+00 0. -1.
         21    1    1    2  505  504 -0.24034766184E+02  0.27672113807E+02  0.23209789415E+02  0.43383293937E+02  0.00000000000E+00 0. -1.
          1    1    1    2  501    0 -0.15146503004E+02  0.66372883910E+02 -0.29089307368E+02  0.74033533449E+02  0.00000000000E+00 0. -1.
<scales pt_clust_3="105.53620" pt_clust_4="14000.00000" pt_clust_5="36.65264" pt_clust_6="71.01088"></scales>
<clustering>
<clus scale="   36.653">  1  5  2 -1</clus>
<clus scale="   71.011">  2  6  1 -1</clus>
<clus scale="  105.536">  1  3  2 -1</clus>
<clus scale="   36.653">  1  3  2 -1</clus>
</clustering>
</event>
<event>
 6    0  0.6338511E+002  0.1105368E+03  0.7546771E-02  0.1259579E+00
         21   -1    0    0  505  502  0.00000000000E+00  0.00000000000E+00  0.10743575470E+04  0.10743575470E+04  0.00000000000E+00 0. -1.
         -2   -1    0    0    0  501 -0.00000000000E+00 -0.00000000000E+00 -0.57289885754E+03  0.57289885754E+03  0.00000000000E+00 0. -1.
         21    1    1    2  503  504  0.50532692728E+02  0.27229286566E+02  0.95677126552E+02  0.11157553328E+03  0.00000000000E+00 0. -1.
         21    1    1    2  504  502  0.22975235306E+01  0.32659388358E+02  0.12838698329E+03  0.13249578008E+03  0.00000000000E+00 0.  1.
         21    1    1    2  505  501 -0.16098071676E+03 -0.80645044739E+02  0.82510082637E+03  0.84451748833E+03  0.00000000000E+00 0. -1.
         -2    1    1    2    0  503  0.10815050050E+03  0.20756369816E+02 -0.54770624679E+03  0.55866760280E+03  0.00000000000E+00 0. -1.
<scales pt_clust_3="59.40250" pt_clust_4="32.74010" pt_clust_5="14000.00000" pt_clust_6="110.53677"></scales>
<clustering>
<clus scale="   32.740">  1  4  2 -1</clus>
<clus scale="   59.402">  1  3  2 -1</clus>
<clus scale="  110.537">  2  6  1 -1</clus>
<clus scale="   32.740">  1  3  2 -1</clus>
</clustering>
</event>
<event>
 6    0  0.7441474E+002  0.7742746E+02  0.7546771E-02  0.1336515E+00
         21   -1    0    0  504  502  0.00000000000E+00  0.00000000000E+00  0.14266219474E+04  0.14266219474E+04  0.00000000000E+00 0.  1.
          1   -1    0    0  505    0 -0.00000000000E+00 -0.00000000000E+00 -0.18984139196E+04  0.18984139196E+04  0.00000000000E+00 0. -1.
         21    1    1    2  503  502 -0.43722241667E+02  0.43235524511E+01  0.65336327397E+02  0.78734764875E+02  0.00000000000E+00 0.  1.
         21    1    1    2  504  501  0.12985467417E+03  0.62546330010E+01  0.13220686572E+04  0.13284452910E+04  0.00000000000E+00 0.  1.
         21    1    1    2  505  503 -0.48440388443E+02  0.14489636037E+02  0.70585649230E+01  0.51051387089E+02  0.00000000000E+00 0.  1.
          1    1    1    2  501    0 -0.37692044058E+02 -0.25067821489E+02 -0.18662555217E+04  0.18668044241E+04  0.00000000000E+00 0. -1.
<scales pt_clust_3="43.93549" pt_clust_4="77.42746" pt_clust_5="14000.00000" pt_clust_6="45.27372"></scales>
<clustering>
<clus scale="   43.935">  1  3  2 -1</clus>
<clus scale="   45.274">  2  6  1 -1</clus>
<clus scale="   77.427">  1  4  2 -1</clus>
<clus scale="   43.935">  1  3  2 -1</clus>
</clustering>
</event>
<event>
 6    0  0.6338511E+002  0.8906762E+02  0.7546771E-02  0.1305125E+00
          2   -1    0    0  505    0 -0.00000000000E+00  0.00000000000E+00  0.92656168520E+03  0.92656168520E+03  0.00000000000E+00 0.  1.
         21   -1    0    0  503  502  0.00000000000E+00 -0.00000000000E+00 -0.27060984234E+03  0.27060984234E+03  0.00000000000E+00 0.  1.
         21    1    1    2  503  504  0.24138715812E+02 -0.85312015579E+02 -0.25128677782E+03  0.26646925209E+03  0.00000000000E+00 0.  1.
         21    1    1    2  504  501 -0.73101405007E+02  0.93594505590E+02  0.38535508879E+03  0.40323974426E+03  0.00000000000E+00 0.  1.
         21    1    1    2  505  502  0.15739887566E+02 -0.27030028936E+02  0.12928175127E+03  0.13301179548E+03  0.00000000000E+00 0. -1.
          2    1    1    2  501    0  0.33222801630E+02  0.18747538925E+02  0.39260178061E+03  0.39445073571E+03  0.00000000000E+00 0.  1.
<scales pt_clust_3="14000.00000" pt_clust_4="89.06762" pt_clust_5="31.27885" pt_clust_6="41.36070"></scales>
<clustering>
<clus scale="   31.279">  1  5  2 -1</clus>
<clus scale="   41.361">  1  6  2 -1</clus>
<clus scale="   89.068">  1  4  2 -1</clus>
<clus scale="   89.068">  2  3  1 -1</clus>
</clustering>
</event>
<event>
 6    0  0.6338511E+002  0.9688554E+02  0.7546771E-02  0.1286985E+00
          2   -1    0    0  503    0 -0.00000000000E+00  0.00000000000E+00  0.27603032042E+04  0.27603032042E+04  0.00000000000E+00 0. -1.
         21   -1    0    0  505  502  0.00000000000E+00 -0.00000000000E+00 -0.57151747123E+02  0.57151747123E+02  0.00000000000E+00 0.  1.
         21    1    1    2  503  502 -0.32773231340E+02  0.14416759069E+03  0.66025191549E+02  0.16191882169E+03  0.00000000000E+00 0.  1.
         21    1    1    2  504  501  0.17699170187E+02 -0.45886309610E+02  0.11779863916E+04  0.11790126177E+04  0.00000000000E+00 0. -1.
         21    1    1    2  505  504  0.43258623610E+02 -0.61292424964E+02  0.16175212233E+03  0.17830260501E+03  0.00000000000E+00 0. -1.
          2    1    1    2  501    0 -0.28184562457E+02 -0.36988856117E+02  0.12973877516E+04  0.12982209069E+04  0.00000000000E+00 0. -1.
<scales pt_clust_3="84.59467" pt_clust_4="45.92474" pt_clust_5="75.02046" pt_clust_6="45.92474"></scales>
<clustering>
<clus scale="   45.925">  4  6 -1 -1</clus>
<clus scale="   75.020">  2  5  1 -1</clus>
<clus scale="   84.595">  2  3  1 -1</clus>
<clus scale="   75.020">  2  3  1 -1</clus>
</clustering>
</event>
<event>
 6    0  0.6338511E+002  0.1565246E+03  0.7546771E-02  0.1192677E+00
         21   -1    0    0  504  502  0.00000000000E+00  0.00000000000E+00  0.13101168596E+04  0.13101168596E+04  0.00000000000E+00 0. -1.
          2   -1    0    0  503    0 -0.00000000000E+00 -0.00000000000E+00 -0.17476706167E+03  0.17476706167E+03  0.00000000000E+00 0.  1.
         21    1    1    2  503  505  0.11769989612E+03  0.77478166914E+01  0.47827571436E+03  0.49260628615E+03  0.00000000000E+00 0. -1.
         21    1    1    2  504  501 -0.88089358130E+02 -0.56134439523E+02 -0.75625779103E+02  0.12895762398E+03  0.00000000000E+00 0.  1.
         21    1    1    2  505  502  0.18197145530E+02  0.26345216923E+02  0.78702265361E+03  0.78767370392E+03  0.00000000000E+00 0. -1.
          2    1    1    2  501    0 -0.47807683524E+02  0.22041405909E+02 -0.54322790946E+02  0.75646307210E+02  0.00000000000E+00 0.  1.
<scales pt_clust_3="138.39850" pt_clust_4="52.22970" pt_clust_5="32.01885" pt_clust_6="52.22970"></scales>
<clustering>
<clus scale="   32.019">  1  5  2 -1</clus>
<clus scale="   52.230">  4  6 -1 -1</clus>
<clus scale="  138.399">  1  3  2 -1</clus>
<clus scale="   32.019">  1  3  2 -1</clus>
</clustering>
</event>
<event>
 6    0  0.6338511E+002  0.1422182E+03  0.7546771E-02  0.1210375E+00
          2   -1    0    0  502    0 -0.00000000000E+00  0.00000000000E+00  0.96184106200E+03  0.96184106200E+03  0.00000000000E+00 0.  1.
         21   -1    0    0  505  502  0.00000000000E+00 -0.00000000000E+00 -0.10481050946E+03  0.10481050946E+03  0.00000000000E+00 0.  1.
         21    1    1    2  503  501 -0.49195171357E+01  0.56408977965E+02  0.15901102230E+03  0.16879182343E+03  0.00000000000E+00 0.  1.
         21    1    1    2  504  503  0.15652736642E+03 -0.14210552132E+03  0.42226300410E+03  0.47222964780E+03  0.00000000000E+00 0.  1.
         21    1    1    2  505  504 -0.10755467311E+03  0.78253688785E+02 -0.12810055410E+02  0.13362539068E+03  0.00000000000E+00 0.  1.
          2    1    1    2  501    0 -0.44053176174E+02  0.74428545703E+01  0.28856658154E+03  0.29200470954E+03  0.00000000000E+00 0.  1.
<scales pt_clust_3="60.29757" pt_clust_4="14000.00000" pt_clust_5="142.21819" pt_clust_6="44.67749"></scales>
<clustering>
<clus scale="   44.677">  1  6  2 -1</clus>
<clus scale="   60.298">  1  3  2 -1</clus>
<clus scale="  142.218">  2  5  1 -1</clus>
<clus scale="  142.218">  2  3  1 -1</clus>
</clustering>
</event>
<event>
 6    0  0.6338511E+002  0.7146973E+02  0.7546771E-02  0.1355165E+00
         -1   -1    0    0    0  501 -0.00000000000E+00  0.00000000000E+00  0.14780183508E+03  0.14780183508E+03  0.00000000000E+00 0.  1.
         21   -1    0    0  505  502  0.00000000000E+00 -0.00000000000E+00 -0.89752952339E+03  0.89752952339E+03  0.00000000000E+00 0.  1.
         21    1    1    2  503  501  0.36878453337E+02  0.13497647912E+02  0.44154304707E+02  0.59091534452E+02  0.00000000000E+00 0.  1.
         21    1    1    2  504  503  0.89436967497E+02 -0.36934382415E+02 -0.38676962319E+03  0.39869018195E+03  0.00000000000E+00 0.  1.
         21    1    1    2  505  504 -0.22561712545E+02  0.26977558011E+02 -0.46658397995E+03  0.46790750139E+03  0.00000000000E+00 0.  1.
         -1    1    1    2    0  502 -0.10375370829E+03 -0.35408235084E+01  0.59471610124E+02  0.11964214068E+03  0.00000000000E+00 0.  1.
<scales pt_clust_3="39.06835" pt_clust_4="71.46973" pt_clust_5="35.16844" pt_clust_6="14000.00000"></scales>
<clustering>
<clus scale="   35.168">  2  5  1 -1</clus>
<clus scale="   39.068">  1  3  2 -1</clus>
<clus scale="   71.470">  2  4  1 -1</clus>
<clus scale="   35.168">  2  3  1 -1</clus>
</clustering>
</event>
<event>
 6    0  0.6338511E+002  0.1023897E+03  0.7546771E-02  0.1275349E+00
          2   -1    0    0  505    0 -0.00000000000E+00  0.00000000000E+00  0.89551798122E+03  0.89551798122E+03  0.00000000000E+00 0. -1.
         21   -1    0    0  503  502  0.00000000000E+00 -0.00000000000E+00 -0.33442832671E+03  0.33442832671E+03  0.00000000000E+00 0.  1.
         21    1    1    2  503  501 -0.29178344914E+02 -0.11366854302E+02 -0.75193938802E+02  0.81453726871E+02  0.00000000000E+00 0.  1.
         21    1    1    2  504  502  0.12426494647E+03  0.60146252641E+02 -0.19055949625E+03  0.23531313232E+03  0.00000000000E+00 0.  1.
         21    1    1    2  505  504 -0.74694819357E+02 -0.17445263063E+02 -0.83427128169E+01  0.77157333412E+02  0.00000000000E+00 0. -1.
          2    1    1    2  501    0 -0.20391782201E+02 -0.31334135276E+02  0.83518580239E+03  0.83602211533E+03  0.00000000000E+00 0. -1.
<scales pt_clust_3="31.31423" pt_clust_4="14000.00000" pt_clust_5="102.38972" pt_clust_6="37.42675"></scales>
<clustering>
<clus scale="   31.314">  2  3  1 -1</clus>
<clus scale="   37.427">  1  6  2 -1</clus>
<clus scale="  102.390">  1  5  2 -1</clus>
<clus scale="   31.314">  2  3  1 -1</clus>
</clustering>
</event>
<event>
 6    0  0.6338511E+002  0.1138356E+03  0.7546771E-02  0.1253627E+00
         21   -1    0    0  503  502  0.00000000000E+00  0.00000000000E+00  0.21676486197E+03  0.21676486197E+03  0.00000000000E+00 0. -1.
          2   -1    0    0  505    0 -0.00000000000E+00 -0.00000000000E+00 -0.16745084215E+04  0.16745084215E+04  0.00000000000E+00 0.  1.
         21    1    1    2  503  504 -0.16765212025E+02  0.30625603587E+02  0.86281161807E+02  0.93077595650E+02  0.00000000000E+00 0. -1.
         21    1    1    2  504  501 -0.10035606463E+02  0.42504516055E+02 -0.33924117862E+01  0.43804745632E+02  0.00000000000E+00 0. -1.
         21    1    1    2  505  502 -0.87277631797E+02 -0.79496976876E+02  0.71628846548E+02  0.13808637153E+03  0.00000000000E+00 0. -1.
          2    1    1    2  501    0  0.11407845029E+03  0.63668572341E+01 -0.16122611561E+04  0.16163045707E+04  0.00000000000E+00 0.  1.
<scales pt_clust_3="34.91418" pt_clust_4="49.04698" pt_clust_5="14000.00000" pt_clust_6="113.83562"></scales>
<clustering>
<clus scale="   34.914">  1  3  2 -1</clus>
<clus scale="   49.047">  1  4  2 -1</clus>
<clus scale="  113.836">  2  6  1 -1</clus>
<clus scale="   34.914">  1  3  2 -1</clus>
</clustering>
</event>
<event>
 6    0  0.6338511E+002  0.1802407E+03  0.7546771E-02  0.1167570E+00
         21   -1    0    0  504  502  0.00000000000E+00  0.00000000000E+00  0.20019043479E+03  0.20019043479E+03  0.00000000000E+00 0. -1.
          1   -1    0    0  502    0 -0.00000000000E+00 -0.00000000000E+00 -0.89193857429E+03  0.89193857429E+03  0.00000000000E+00 0.  1.
         21    1    1    2  503  501  0.11149255587E+03 -0.39352983172E+02 -0.77702531387E+02  0.14148120258E+03  0.00000000000E+00 0.  1.
         21    1    1    2  504  505 -0.16039012171E+03 -0.21257642155E+02  0.12037053369E+03  0.20165798738E+03  0.00000000000E+00 0. -1.
         21    1    1    2  505  503  0.49201704496E+02  0.17492591181E+02 -0.97391177184E+02  0.11050719372E+03  0.00000000000E+00 0. -1.
          1    1    1    2  501    0 -0.30413865117E+00  0.43118034146E+02 -0.63702496463E+03  0.63848262539E+03  0.00000000000E+00 0.  1.
<scales pt_clust_3="59.02725" pt_clust_4="161.08039" pt_clust_5="59.02725" pt_clust_6="43.11911"></scales>
<clustering>
<clus scale="   43.119">  2  6  1 -1</clus>
<clus scale="   59.027">  3  5 -1 -1</clus>
<clus scale="  161.080">  1  4  2 -1</clus>
<clus scale="  161.080">  1  3  2 -1</clus>
</clustering>
</event>
<event>
 6    0  0.6338511E+002  0.6527390E+02  0.7546771E-02  0.1376944E+00
         -1   -1    0    0    0  501 -0.00000000000E+00  0.00000000000E+00  0.40720061251E+03  0.40720061251E+03  0.00000000000E+00 0. -1.
         21   -1    0    0  501  502  0.00000000000E+00 -0.00000000000E+00 -0.17961465645E+03  0.17961465645E+03  0.00000000000E+00 0.  1.
         21    1    1    2  503  504  0.12106311481E+03 -0.36867007773E+02 -0.56532873738E+02  0.13860526629E+03  0.00000000000E+00 0.  1.
         21    1    1    2  504  505 -0.54177638347E+02 -0.20144766689E+02  0.14695106179E+02  0.59640374474E+02  0.00000000000E+00 0.  1.
         21    1    1    2  505  502 -0.36578647487E+02  0.17445219672E+00 -0.50427332918E+02  0.62297221373E+02  0.00000000000E+00 0.  1.
         -1    1    1    2    0  503 -0.30306828980E+02  0.56837322265E+02  0.31985105654E+03  0.32627240682E+03  0.00000000000E+00 0. -1.
<scales pt_clust_3="14000.00000" pt_clust_4="64.08504" pt_clust_5="36.57906" pt_clust_6="65.27390"></scales>
<clustering>
<clus scale="   36.579">  2  5  1 -1</clus>
<clus scale="   64.085">  2  4  1 -1</clus>
<clus scale="   65.274">  1  6  2 -1</clus>
<clus scale="   36.579">  2  3  1 -1</clus>
</clustering>
</event>
<event>
 6    0  0.6338511E+002  0.1549596E+03  0.7546771E-02  0.1194508E+00
          2   -1    0    0  504    0 -0.00000000000E+00  0.00000000000E+00  0.43844605346E+04  0.43844605346E+04  0.00000000000E+00 0. -1.
         21   -1    0    0  503  502  0.00000000000E+00 -0.00000000000E+00 -0.70769980572E+02  0.70769980572E+02  0.00000000000E+00 0. -1.
         21    1    1    2  503  501  0.13900187877E+03 -0.13041037801E+03  0.21382834115E+03  0.28644536734E+03  0.00000000000E+00 0. -1.
         21    1    1    2  504  505 -0.83934085591E+02  0.74891686785E+02  0.28618688823E+03  0.30750061864E+03  0.00000000000E+00 0. -1.
         21    1    1    2  505  502 -0.23718639030E+02 -0.30406512310E+02 -0.72716912700E+01  0.39242927034E+02  0.00000000000E+00 0. -1.
          2    1    1    2  501    0 -0.31349154149E+02  0.85925203537E+02  0.38209470159E+04  0.38220416021E+04  0.00000000000E+00 0. -1.
<scales pt_clust_3="154.95956" pt_clust_4="14000.00000" pt_clust_5="38.56332" pt_clust_6="91.23073"></scales>
<clustering>
<clus scale="   38.563">  2  5  1 -1</clus>
<clus scale="   91.231">  1  6  2 -1</clus>
<clus scale="  154.960">  2  3  1 -1</clus>
<clus scale="   38.563">  2  3  1 -1</clus>
</clustering>
</event>
<event>
 6    0  0.6338511E+002  0.7498528E+02  0.7546771E-02  0.1343917E+00
         21   -1    0    0  505  502  0.00000000000E+00  0.00000000000E+00  0.37083401875E+03  0.37083401875E+03  0.00000000000E+00 0.  1.
         -1   -1    0    0    0  501 -0.00000000000E+00 -0.00000000000E+00 -0.10459878400E+04  0.10459878400E+04  0.00000000000E+00 0. -1.
         21    1    1    2  503  502  0.63791059747E+02 -0.77255571426E+02 -0.23241926525E+03  0.25309373260E+03  0.00000000000E+00 0. -1.
         21    1    1    2  504  501 -0.56569603655E+02 -0.52912830423E+01  0.26832593699E+01  0.56879852451E+02  0.00000000000E+00 0. -1.
         21    1    1    2  505  504 -0.34933853526E+02  0.65895808998E+02  0.32616740330E+03  0.33458602293E+03  0.00000000000E+00 0.  1.
         -1    1    1    2    0  503  0.27712397434E+02  0.16651045469E+02 -0.77158521869E+03  0.77226225079E+03  0.00000000000E+00 0. -1.
<scales pt_clust_3="14000.00000" pt_clust_4="53.95278" pt_clust_5="74.98528" pt_clust_6="32.33008"></scales>
<clustering>
<clus scale="   32.330">  2  6  1 -1</clus>
<clus scale="   53.953">  2  4  1 -1</clus>
<clus scale="   74.985">  1  5  2 -1</clus>
<clus scale="   74.985">  1  3  2 -1</clus>
</clustering>
</event>
<event>
 6    0  0.8103007E+002  0.2242595E+03  0.7546771E-02  0.1130747E+00
          1   -1    0    0  503    0 -0.00000000000E+00  0.00000000000E+00  0.80122701769E+03  0.80122701769E+03  0.00000000000E+00 0.  1.
         21   -1    0    0  505  502  0.00000000000E+00 -0.00000000000E+00 -0.94754669530E+03  0.94754669530E+03  0.00000000000E+00 0.  1.
         21    1    1    2  503  502 -0.13728600639E+03 -0.49701609927E+02 -0.74535880070E+03  0.75952448239E+03  0.00000000000E+00 0.  1.
         21    1    1    2  504  501 -0.61694274741E+02  0.88898846257E+02 -0.93646649438E+02  0.14310444910E+03  0.00000000000E+00 0.  1.
         21    1    1    2  505  504 -0.26856863320E+02 -0.25257850592E+02 -0.54304877661E+02  0.65637412058E+02  0.00000000000E+00 0. -1.
          1    1    1    2  501    0  0.22583714445E+03 -0.13939385737E+02  0.74699065019E+03  0.78050736944E+03  0.00000000000E+00 0.  1.
<scales pt_clust_3="14000.00000" pt_clust_4="107.59366" pt_clust_5="36.86801" pt_clust_6="224.25950"></scales>
<clustering>
<clus scale="   36.868">  2  5  1 -1</clus>
<clus scale="  107.594">  2  4  1 -1</clus>
<clus scale="  224.260">  1  6  2 -1</clus>
<clus scale="   36.868">  2  3  1 -1</clus>
</clustering>
</event>
<event>
 6    0  0.6338511E+002  0.1182617E+03  0.7546771E-02  0.1245993E+00
         -1   -1    0    0    0  501 -0.00000000000E+00  0.00000000000E+00  0.47008872398E+03  0.47008872398E+03  0.00000000000E+00 0. -1.
         21   -1    0    0  503  502  0.00000000000E+00 -0.00000000000E+00 -0.26964773715E+03  0.26964773715E+03  0.00000000000E+00 0. -1.
         21    1    1    2  503  505 -0.93771806697E+01 -0.71245178768E+02 -0.11116571742E+03  0.13236927039E+03  0.00000000000E+00 0. -1.
         21    1    1    2  504  502 -0.69352265412E+01  0.15770365668E+03 -0.10000122403E+02  0.15817251072E+03  0.00000000000E+00 0. -1.
         21    1    1    2  505  501  0.75873406581E+02 -0.75977560283E+02 -0.13909063924E+02  0.10827199801E+03  0.00000000000E+00 0. -1.
         -1    1    1    2    0  504 -0.59560999370E+02 -0.10480917631E+02  0.33551589058E+03  0.34092268201E+03  0.00000000000E+00 0. -1.
<scales pt_clust_3="73.46643" pt_clust_4="14000.00000" pt_clust_5="118.26172" pt_clust_6="60.47613"></scales>
<clustering>
<clus scale="   60.476">  1  6  2 -1</clus>
<clus scale="   73.466">  2  3  1 -1</clus>
<clus scale="  118.262">  1  5  2 -1</clus>
<clus scale="   73.466">  2  3  1 -1</clus>
</clustering>
</event>
<event>
 6    0  0.6338511E+002  0.8408703E+02  0.7546771E-02  0.1317837E+00
          2   -1    0    0  504    0 -0.00000000000E+00  0.00000000000E+00  0.15575031039E+04  0.15575031039E+04  0.00000000000E+00 0.  1.
         21   -1    0    0  503  502  0.00000000000E+00 -0.00000000000E+00 -0.11910906470E+04  0.11910906470E+04  0.00000000000E+00 0. -1.
         21    1    1    2  503  505  0.40669758821E+01 -0.59157951447E+02 -0.53487740258E+03  0.53815428950E+03  0.00000000000E+00 0.  1.
         21    1    1    2  504  502 -0.87486009882E+02  0.39608437149E+02 -0.63541714248E+03  0.64263331315E+03  0.00000000000E+00 0. -1.
         21    1    1    2  505  501  0.67701432324E+02 -0.41174782414E+02  0.90695049153E+02  0.12043437460E+03  0.00000000000E+00 0.  1.
          2    1    1    2  501    0  0.15717601676E+02  0.60724296712E+02  0.14460119529E+04  0.14473717736E+04  0.00000000000E+00 0.  1.
<scales pt_clust_3="59.29758" pt_clust_4="84.08703" pt_clust_5="14000.00000" pt_clust_6="62.66703"></scales>
<clustering>
<clus scale="   59.298">  2  3  1 -1</clus>
<clus scale="   62.667">  1  6  2 -1</clus>
<clus scale="   84.087">  2  4  1 -1</clus>
<clus scale="   59.298">  2  3  1 -1</clus>
</clustering>
</event>
<event>
 6    0  0.6338511E+002  0.1048931E+03  0.7546771E-02  0.1270330E+00
          2   -1    0    0  504    0 -0.00000000000E+00  0.00000000000E+00  0.33098862290E+03  0.33098862290E+03  0.00000000000E+00 0. -1.
         21   -1    0    0  503  502  0.00000000000E+00 -0.00000000000E+00 -0.74371701949E+03  0.74371701949E+03  0.00000000000E+00 0. -1.
         21    1    1    2  503  505  0.17229902724E+02  0.30231518570E+02 -0.37548405048E+03  0.37709294136E+03  0.00000000000E+00 0. -1.
         21    1    1    2  504  502 -0.95073326734E+02  0.12235169140E+02 -0.32990258904E+02  0.10137550988E+03  0.00000000000E+00 0. -1.
         21    1    1    2  505  501  0.11216823817E+02 -0.12412164360E+03 -0.27705073084E+03  0.30379122272E+03  0.00000000000E+00 0. -1.
          2    1    1    2  501    0  0.66626600193E+02  0.81654955886E+02  0.27279664363E+03  0.29244596843E+03  0.00000000000E+00 0. -1.
<scales pt_clust_3="34.79676" pt_clust_4="93.62340" pt_clust_5="14000.00000" pt_clust_6="104.89313"></scales>
<clustering>
<clus scale="   34.797">  2  3  1 -1</clus>
<clus scale="   93.623">  2  4  1 -1</clus>
<clus scale="  104.893">  1  6  2 -1</clus>
<clus scale="   34.797">  2  3  1 -1</clus>
</clustering>
</event>
<event>
 6    0  0.6338511E+002  0.1182013E+03  0.7546771E-02  0.1246094E+00
         21   -1    0    0  504  502  0.00000000000E+00  0.00000000000E+00  0.22732954698E+03  0.22732954698E+03  0.00000000000E+00 0. -1.
          2   -1    0    0  503    0 -0.00000000000E+00 -0.00000000000E+00 -0.65656303446E+03  0.65656303446E+03  0.00000000000E+00 0. -1.
         21    1    1    2  503  502  0.70334094732E+02 -0.11293251855E+03 -0.21446221179E+02  0.13476119260E+03  0.00000000000E+00 0. -1.
         21    1    1    2  504  505 -0.10408639058E+02 -0.35929224053E+02  0.27723405408E+02  0.46560027013E+02  0.00000000000E+00 0.  1.
         21    1    1    2  505  501 -0.42172792171E+02  0.12372842611E+03  0.10099217209E+03  0.16518682348E+03  0.00000000000E+00 0. -1.
          2    1    1    2  501    0 -0.17752663502E+02  0.25133316495E+02 -0.53650284380E+03  0.53738453835E+03  0.00000000000E+00 0. -1.
<scales pt_clust_3="14000.00000" pt_clust_4="35.94463" pt_clust_5="118.20131" pt_clust_6="30.77078"></scales>
<clustering>
<clus scale="   30.771">  2  6  1 -1</clus>
<clus scale="   35.945">  1  4  2 -1</clus>
<clus scale="  118.201">  1  5  2 -1</clus>
<clus scale="   35.945">  1  3  2 -1</clus>
</clustering>
</event>
<event>
 6    0  0.1816608E+003  0.9609045E+02  0.7546771E-02  0.1288739E+00
         21   -1    0    0  505  502  0.00000000000E+00  0.00000000000E+00  0.20460641011E+03  0.20460641011E+03  0.00000000000E+00 0. -1.
          2   -1    0    0  504    0 -0.00000000000E+00 -0.00000000000E+00 -0.25154262141E+04  0.25154262141E+04  0.00000000000E+00 0.  1.
         21    1    1    2  503  502  0.12149776434E+03  0.30165903922E+02  0.13702373694E+03  0.18559955006E+03  0.00000000000E+00 0. -1.
         21    1    1    2  504  503 -0.14130728044E+02 -0.31255955437E+02 -0.57504008265E+02  0.66957622358E+02  0.00000000000E+00 0.  1.
         21    1    1    2  505  501 -0.60411273581E+02 -0.21524903988E+02  0.11428679386E+02  0.65141831260E+02  0.00000000000E+00 0. -1.
          2    1    1    2  501    0 -0.46955762712E+02  0.22614955503E+02 -0.24017682121E+04  0.24023336206E+04  0.00000000000E+00 0.  1.
<scales pt_clust_3="96.09045" pt_clust_4="34.30178" pt_clust_5="14000.00000" pt_clust_6="61.31463"></scales>
<clustering>
<clus scale="   34.302">  2  4  1 -1</clus>
<clus scale="   61.315">  2  6  1 -1</clus>
<clus scale="   96.090">  1  3  2 -1</clus>
<clus scale="   96.090">  1  3  2 -1</clus>
</clustering>
</event>
<event>
 6    0  0.6338511E+002  0.8131819E+02  0.7546771E-02  0.1325352E+00
         21   -1    0    0  501  502  0.00000000000E+00  0.00000000000E+00  0.50329200266E+02  0.50329200266E+02  0.00000000000E+00 0.  1.
          1   -1    0    0  505    0 -0.00000000000E+00 -0.00000000000E+00 -0.35609924920E+04  0.35609924920E+04  0.00000000000E+00 0.  1.
         21    1    1    2  503  502 -0.40366714728E+02  0.67441717427E+02 -0.33229580448E+00  0.78600046615E+02  0.00000000000E+00 0.  1.
         21    1    1    2  504  503  0.89011599612E+02 -0.65086749822E+02 -0.30260069199E+03  0.32206603153E+03  0.00000000000E+00 0.  1.
         21    1    1    2  505  504 -0.62508403114E+02  0.30978460889E+02 -0.92029930648E+03  0.92293974831E+03  0.00000000000E+00 0.  1.
          1    1    1    2  501    0  0.13863518230E+02 -0.33333428494E+02 -0.22874309975E+04  0.22877158659E+04  0.00000000000E+00 0.  1.
<scales pt_clust_3="14000.00000" pt_clust_4="81.31819" pt_clust_5="52.92058" pt_clust_6="36.10145"></scales>
<clustering>
<clus scale="   36.101">  2  6  1 -1</clus>
<clus scale="   52.921">  2  5  1 -1</clus>
<clus scale="   81.318">  2  4  1 -1</clus>
<clus scale="   81.318">  1  3  2 -1</clus>
</clustering>
</event>
<event>
 6    0  0.9213104E+002  0.1937219E+03  0.7546771E-02  0.1155147E+00
         21   -1    0    0  504  502  0.00000000000E+00  0.00000000000E+00  0.24038669112E+04  0.24038669112E+04  0.00000000000E+00 0. -1.
          2   -1    0    0  503    0 -0.00000000000E+00 -0.00000000000E+00 -0.78027673597E+03  0.78027673597E+03  0.00000000000E+00 0.  1.
         21    1    1    2  503  505  0.38040410512E+02  0.71320969607E+02 -0.53611152302E+03  0.54217093122E+03  0.00000000000E+00 0.  1.
         21    1    1    2  504  501 -0.17510323986E+02 -0.31105515431E+02  0.18793163339E+04  0.18796553002E+04  0.00000000000E+00 0. -1.
         21    1    1    2  505  502 -0.10212271010E+03 -0.13137774108E+03  0.49117480978E+03  0.51859603983E+03  0.00000000000E+00 0.  1.
          2    1    1    2  501    0  0.81592623570E+02  0.91162286905E+02 -0.21078944545E+03  0.24372137593E+03  0.00000000000E+00 0.  1.
<scales pt_clust_3="80.62545" pt_clust_4="35.69544" pt_clust_5="193.72190" pt_clust_6="14000.00000"></scales>
<clustering>
<clus scale="   35.695">  1  4  2 -1</clus>
<clus scale="   80.625">  2  3  1 -1</clus>
<clus scale="  193.722">  1  5  2 -1</clus>
<clus scale="   35.695">  1  3  2 -1</clus>
</clustering>
</event>
<event>
 6    0  0.6338511E+002  0.1210633E+03  0.7546771E-02  0.1241353E+00
         -4   -1    0    0    0  501 -0.00000000000E+00  0.00000000000E+00  0.48730776152E+03  0.48730776152E+03  0.00000000000E+00 0.  1.
         21   -1    0    0  505  502  0.00000000000E+00 -0.00000000000E+00 -0.20165813875E+03  0.20165813875E+03  0.00000000000E+00 0.  1.
         21    1    1    2  503  501 -0.19673471054E+02  0.32378325703E+02  0.13827373117E+03  0.14337024158E+03  0.00000000000E+00 0.  1.
         21    1    1    2  504  503  0.11007175874E+03  0.96665298999E+02  0.24825336037E+03  0.28825284567E+03  0.00000000000E+00 0.  1.
         21    1    1    2  505  504 -0.48730389321E+02 -0.10969017191E+03 -0.14865304918E+03  0.19106102085E+03  0.00000000000E+00 0.  1.
         -4    1    1    2    0  502 -0.41667898366E+02 -0.19353452794E+02  0.47775580414E+02  0.66281792169E+02  0.00000000000E+00 0.  1.
<scales pt_clust_3="37.88669" pt_clust_4="14000.00000" pt_clust_5="121.06326" pt_clust_6="47.04495"></scales>
<clustering>
<clus scale="   37.887">  1  3  2 -1</clus>
<clus scale="   47.045">  1  6  2 -1</clus>
<clus scale="  121.063">  2  5  1 -1</clus>
<clus scale="  121.063">  2  3  1 -1</clus>
</clustering>
</event>
<event>
 6    0  0.6338511E+002  0.1693267E+03  0.7546771E-02  0.1178552E+00
         21   -1    0    0  505  502  0.00000000000E+00  0.00000000000E+00  0.41271490156E+03  0.41271490156E+03  0.00000000000E+00 0. -1.
          3   -1    0    0  504    0 -0.00000000000E+00 -0.00000000000E+00 -0.24356263586E+03  0.24356263586E+03  0.00000000000E+00 0. -1.
         21    1    1    2  503  502  0.16738459749E+03 -0.66613991065E+02  0.27082270111E+03  0.32526906203E+03  0.00000000000E+00 0. -1.
         21    1    1    2  504  503 -0.14571085107E+03  0.64588062354E+02  0.10127673243E+02  0.15970547794E+03  0.00000000000E+00 0. -1.
         21    1    1    2  505  501  0.77099749221E+00  0.31168207803E+02  0.18268079926E+02  0.36135499983E+02  0.00000000000E+00 0.  1.
          3    1    1    2  501    0 -0.22444743908E+02 -0.29142279092E+02 -0.13006618857E+03  0.13516749746E+03  0.00000000000E+00 0. -1.
<scales pt_clust_3="14000.00000" pt_clust_4="169.32665" pt_clust_5="31.17774" pt_clust_6="36.61739"></scales>
<clustering>
<clus scale="   31.178">  1  5  2 -1</clus>
<clus scale="   36.617">  2  6  1 -1</clus>
<clus scale="  169.327">  2  4  1 -1</clus>
<clus scale="   31.178">  1  3  2 -1</clus>
</clustering>
</event>
<event>
 6    0  0.6338511E+002  0.8380889E+02  0.7546771E-02  0.1318577E+00
         21   -1    0    0  505  502  0.00000000000E+00  0.00000000000E+00  0.12440505354E+03  0.12440505354E+03  0.00000000000E+00 0. -1.
          2   -1    0    0  503    0 -0.00000000000E+00 -0.00000000000E+00 -0.13490343186E+04  0.13490343186E+04  0.00000000000E+00 0. -1.
         21    1    1    2  503  504  0.41210855967E+02  0.72977291222E+02 -0.21691929792E+03  0.23254677270E+03  0.00000000000E+00 0. -1.
         21    1    1    2  504  502 -0.36659508407E+02 -0.24631391135E+02  0.94310322274E+02  0.10413962682E+03  0.00000000000E+00 0. -1.
         21    1    1    2  505  501 -0.11416627097E+02  0.37805752886E+02 -0.92374371358E+01  0.40557916248E+02  0.00000000000E+00 0. -1.
          2    1    1    2  501    0  0.68652795367E+01 -0.86151652972E+02 -0.10927828523E+04  0.10961950564E+04  0.00000000000E+00 0. -1.
<scales pt_clust_3="83.80889" pt_clust_4="48.09915" pt_clust_5="39.49195" pt_clust_6="14000.00000"></scales>
<clustering>
<clus scale="   39.492">  1  5  2 -1</clus>
<clus scale="   48.099">  1  4  2 -1</clus>
<clus scale="   83.809">  1  3  2 -1</clus>
<clus scale="   39.492">  1  3  2 -1</clus>
</clustering>
</event>
<event>
 6    0  0.6338511E+002  0.1348655E+03  0.7546771E-02  0.1220410E+00
         21   -1    0    0  503  502  0.00000000000E+00  0.00000000000E+00  0.14620174098E+03  0.14620174098E+03  0.00000000000E+00 0. -1.
          2   -1    0    0  505    0 -0.00000000000E+00 -0.00000000000E+00 -0.21666946193E+04  0.21666946193E+04  0.00000000000E+00 0.  1.
         21    1    1    2  503  501 -0.81142142270E+02 -0.16260253015E+02  0.36752445383E+02  0.90549352962E+02  0.00000000000E+00 0. -1.
         21    1    1    2  504  502  0.10289466715E+03 -0.11435860389E+03 -0.37244292849E+01  0.15388006429E+03  0.00000000000E+00 0. -1.
         21    1    1    2  505  504  0.48200839153E+01  0.18200520862E+03 -0.17529201661E+04  0.17623502030E+04  0.00000000000E+00 0.  1.
          2    1    1    2  501    0 -0.26572608795E+02 -0.51386351711E+02 -0.30060072831E+03  0.30611674005E+03  0.00000000000E+00 0.  1.
<scales pt_clust_3="83.27974" pt_clust_4="134.86547" pt_clust_5="14000.00000" pt_clust_6="57.85033"></scales>
<clustering>
<clus scale="   57.850">  2  6  1 -1</clus>
<clus scale="   83.280">  1  3  2 -1</clus>
<clus scale="  134.865">  1  4  2 -1</clus>
<clus scale="   83.280">  1  3  2 -1</clus>
</clustering>
</event>
<event>
 6    0  0.6338511E+002  0.1856574E+03  0.7546771E-02  0.1162437E+00
         21   -1    0    0  503  502  0.00000000000E+00  0.00000000000E+00  0.14081875578E+03  0.14081875578E+03  0.00000000000E+00 0. -1.
          1   -1    0    0  504    0 -0.00000000000E+00 -0.00000000000E+00 -0.33262425166E+04  0.33262425166E+04  0.00000000000E+00 0. -1.
         21    1    1    2  503  505  0.96975491541E+02  0.14192243742E+03  0.28066606686E+01  0.17191306393E+03  0.00000000000E+00 0. -1.
         21    1    1    2  504  502 -0.13795701977E+02  0.29899499934E+02 -0.83003455096E+03  0.83068746065E+03  0.00000000000E+00 0. -1.
         21    1    1    2  505  501 -0.10086017461E+03 -0.20288769635E+03 -0.18923439818E+03  0.29520475878E+03  0.00000000000E+00 0. -1.
          1    1    1    2  501    0  0.17680385044E+02  0.31065758994E+02 -0.21689614723E+04  0.21692559890E+04  0.00000000000E+00 0. -1.
<scales pt_clust_3="185.65737" pt_clust_4="32.92873" pt_clust_5="14000.00000" pt_clust_6="57.33381"></scales>
<clustering>
<clus scale="   32.929">  2  4  1 -1</clus>
<clus scale="   57.334">  2  6  1 -1</clus>
<clus scale="  185.657">  1  3  2 -1</clus>
<clus scale="  185.657">  1  3  2 -1</clus>
</clustering>
</event>
<event>
 6    0  0.6338511E+002  0.1211553E+03  0.7546771E-02  0.1241203E+00
         21   -1    0    0  503  502  0.00000000000E+00  0.00000000000E+00  0.53978186767E+03  0.53978186767E+03  0.00000000000E+00 0. -1.
          1   -1    0    0  505    0 -0.00000000000E+00 -0.00000000000E+00 -0.21761877675E+04  0.21761877675E+04  0.00000000000E+00 0.  1.
         21    1    1    2  503  504 -0.21985890572E+02  0.12149450962E+03  0.50414383564E+03  0.51904267866E+03  0.00000000000E+00 0. -1.
         21    1    1    2  504  501 -0.42665171816E+02 -0.77098895086E+02 -0.15711118603E+03  0.18013461990E+03  0.00000000000E+00 0.  1.
         21    1    1    2  505  502  0.70799941025E+02  0.85526682976E+01 -0.61660295200E+02  0.94274979652E+02  0.00000000000E+00 0.  1.
          1    1    1    2  501    0 -0.61488786368E+01 -0.52948282833E+02 -0.19217782542E+04  0.19225173569E+04  0.00000000000E+00 0.  1.
<scales pt_clust_3="121.15534" pt_clust_4="14000.00000" pt_clust_5="69.34138" pt_clust_6="53.30412"></scales>
<clustering>
<clus scale="   53.304">  2  6  1 -1</clus>
<clus scale="   69.341">  2  5  1 -1</clus>
<clus scale="  121.155">  1  3  2 -1</clus>
<clus scale="  121.155">  1  3  2 -1</clus>
</clustering>
</event>
<event>
 6    0  0.6338511E+002  0.7355113E+02  0.7546771E-02  0.1348417E+00
          2   -1    0    0  504    0 -0.00000000000E+00  0.00000000000E+00  0.28398124380E+03  0.28398124380E+03  0.00000000000E+00 0.  1.
         21   -1    0    0  501  502  0.00000000000E+00 -0.00000000000E+00 -0.28604860376E+03  0.28604860376E+03  0.00000000000E+00 0.  1.
         21    1    1    2  503  505 -0.99632618870E+02 -0.38948757952E+02 -0.90945619710E+02  0.14040929539E+03  0.00000000000E+00 0.  1.
         21    1    1    2  504  503  0.38405904474E+02 -0.16419599469E+02  0.10167904962E+02  0.42988405838E+02  0.00000000000E+00 0. -1.
         21    1    1    2  505  502  0.61732378041E+02  0.18421307885E+02 -0.14564375934E+03  0.15925556730E+03  0.00000000000E+00 0.  1.
          2    1    1    2  501    0 -0.50566364539E+00  0.36947049536E+02  0.22435411412E+03  0.22737657902E+03  0.00000000000E+00 0.  1.
<scales pt_clust_3="14000.00000" pt_clust_4="38.17763" pt_clust_5="73.55113" pt_clust_6="36.95051"></scales>
<clustering>
<clus scale="   36.951">  1  6  2 -1</clus>
<clus scale="   38.178">  1  4  2 -1</clus>
<clus scale="   73.551">  2  5  1 -1</clus>
<clus scale="   73.551">  2  3  1 -1</clus>
</clustering>
</event>
<event>
 6    0  0.6338511E+002  0.1104843E+03  0.7546771E-02  0.1259676E+00
         -2   -1    0    0    0  501 -0.00000000000E+00  0.00000000000E+00  0.10908875381E+03  0.10908875381E+03  0.00000000000E+00 0. -1.
         21   -1    0    0  504  502  0.00000000000E+00 -0.00000000000E+00 -0.35389235152E+03  0.35389235152E+03  0.00000000000E+00 0.  1.
         21    1    1    2  503  501  0.62960720255E+02 -0.87875595893E+02 -0.19557990297E+03  0.22346738262E+03  0.00000000000E+00 0.  1.
         21    1    1    2  504  503 -0.35488391745E+02 -0.38052582432E+02 -0.74842227816E+02  0.91152531741E+02  0.00000000000E+00 0.  1.
         21    1    1    2  505  502 -0.33209362371E+02  0.89384455756E+02 -0.11393925175E+02  0.96032620555E+02  0.00000000000E+00 0. -1.
         -2    1    1    2    0  505  0.57370338612E+01  0.36543722568E+02  0.37012458252E+02  0.52328570423E+02  0.00000000000E+00 0. -1.
<scales pt_clust_3="110.48427" pt_clust_4="48.22570" pt_clust_5="14000.00000" pt_clust_6="36.99131"></scales>
<clustering>
<clus scale="   36.991">  1  6  2 -1</clus>
<clus scale="   48.226">  2  4  1 -1</clus>
<clus scale="  110.484">  2  3  1 -1</clus>
<clus scale="   48.226">  2  3  1 -1</clus>
</clustering>
</event>
<event>
 6    0  0.6338511E+002  0.8741857E+02  0.7546771E-02  0.1309226E+00
         21   -1    0    0  503  502  0.00000000000E+00  0.00000000000E+00  0.79581294207E+03  0.79581294207E+03  0.00000000000E+00 0.  1.
          2   -1    0    0  505    0 -0.00000000000E+00 -0.00000000000E+00 -0.27662151488E+03  0.27662151488E+03  0.00000000000E+00 0. -1.
         21    1    1    2  503  501 -0.56760056403E+02  0.22722838656E+02  0.63854596697E+03  0.64146627606E+03  0.00000000000E+00 0.  1.
         21    1    1    2  504  502  0.10327028740E+03 -0.95354399723E+02  0.10834803391E+03  0.17747256199E+03  0.00000000000E+00 0. -1.
         21    1    1    2  505  504 -0.16458294665E+02  0.27430531497E+02 -0.17633752013E+02  0.36527506506E+02  0.00000000000E+00 0. -1.
          2    1    1    2  501    0 -0.30051936331E+02  0.45201029571E+02 -0.21006882168E+03  0.21696811239E+03  0.00000000000E+00 0. -1.
<scales pt_clust_3="61.28861" pt_clust_4="87.41857" pt_clust_5="31.98921" pt_clust_6="14000.00000"></scales>
<clustering>
<clus scale="   31.989">  2  5  1 -1</clus>
<clus scale="   61.289">  1  3  2 -1</clus>
<clus scale="   87.419">  1  4  2 -1</clus>
<clus scale="   61.289">  1  3  2 -1</clus>
</clustering>
</event>
<event>
 6    0  0.6338511E+002  0.1313584E+03  0.7546771E-02  0.1225454E+00
         21   -1    0    0  504  502  0.00000000000E+00  0.00000000000E+00  0.60669442616E+03  0.60669442616E+03  0.00000000000E+00 0.  1.
          1   -1    0    0  503    0 -0.00000000000E+00 -0.00000000000E+00 -0.46870710137E+03  0.46870710137E+03  0.00000000000E+00 0.  1.
         21    1    1    2  503  505  0.56541832667E+02 -0.40294189818E+02 -0.10632016537E+03  0.12698258990E+03  0.00000000000E+00 0.  1.
         21    1    1    2  504  501 -0.30119078202E+02  0.11715036594E+03  0.19535427550E+03  0.22977088603E+03  0.00000000000E+00 0.  1.
         21    1    1    2  505  502 -0.47704219072E+02 -0.39631734089E+01  0.37796639237E+03  0.38098555488E+03  0.00000000000E+00 0.  1.
          1    1    1    2  501    0  0.21281464607E+02 -0.72893002713E+02 -0.32901317771E+03  0.33766249672E+03  0.00000000000E+00 0.  1.
<scales pt_clust_3="67.78332" pt_clust_4="14000.00000" pt_clust_5="47.86856" pt_clust_6="131.35837"></scales>
<clustering>
<clus scale="   47.869">  1  5  2 -1</clus>
<clus scale="   67.783">  2  3  1 -1</clus>
<clus scale="  131.358">  2  6  1 -1</clus>
<clus scale="   47.869">  1  3  2 -1</clus>
</clustering>
</event>
<event>
 6    0  0.6338511E+002  0.1029843E+03  0.7546771E-02  0.1274143E+00
         21   -1    0    0  501  502  0.00000000000E+00  0.00000000000E+00  0.19143012620E+03  0.19143012620E+03  0.00000000000E+00 0.  1.
          2   -1    0    0  505    0 -0.00000000000E+00 -0.00000000000E+00 -0.35682073813E+03  0.35682073813E+03  0.00000000000E+00 0.  1.
         21    1    1    2  503  502 -0.95904930060E+02 -0.44150209356E+02  0.14469204612E+03  0.17911667931E+03  0.00000000000E+00 0.  1.
         21    1    1    2  504  503  0.39357166468E+02 -0.42804169042E+02 -0.39629503538E+02  0.70368181662E+02  0.00000000000E+00 0.  1.
         21    1    1    2  505  504  0.12424909342E+02  0.29663723560E+02 -0.19519219117E+02  0.37620669618E+02  0.00000000000E+00 0. -1.
          2    1    1    2  501    0  0.44122854250E+02  0.57290654837E+02 -0.25093393540E+03  0.26114533374E+03  0.00000000000E+00 0.  1.
<scales pt_clust_3="102.98430" pt_clust_4="56.11237" pt_clust_5="32.16077" pt_clust_6="14000.00000"></scales>
<clustering>
<clus scale="   32.161">  2  5  1 -1</clus>
<clus scale="   56.112">  2  4  1 -1</clus>
<clus scale="  102.984">  1  3  2 -1</clus>
<clus scale="  102.984">  1  3  2 -1</clus>
</clustering>
</event>
<event>
 6    0  0.6338511E+002  0.7992899E+02  0.7546771E-02  0.1329253E+00
          2   -1    0    0  503    0 -0.00000000000E+00  0.00000000000E+00  0.12859721948E+04  0.12859721948E+04  0.00000000000E+00 0. -1.
         21   -1    0    0  505  502  0.00000000000E+00 -0.00000000000E+00 -0.10701170008E+03  0.10701170008E+03  0.00000000000E+00 0.  1.
         21    1    1    2  503  502  0.79110185711E+02 -0.45909991166E+02  0.74403039367E+02  0.11790657759E+03  0.00000000000E+00 0.  1.
         21    1    1    2  504  501 -0.71508004546E+02  0.37438812719E+02  0.74211728781E+02  0.10964688824E+03  0.00000000000E+00 0. -1.
         21    1    1    2  505  504  0.24180693287E+02 -0.65260351354E+02 -0.47716197718E+02  0.84382788004E+02  0.00000000000E+00 0.  1.
          2    1    1    2  501    0 -0.31782874452E+02  0.73731529800E+02  0.10780619243E+04  0.10810476410E+04  0.00000000000E+00 0. -1.
<scales pt_clust_3="14000.00000" pt_clust_4="61.74004" pt_clust_5="69.59612" pt_clust_6="79.92899"></scales>
<clustering>
<clus scale="   69.596">  2  5  1 -1</clus>
<clus scale="   61.740">  2  4  1 -1</clus>
<clus scale="   79.929">  1  6  2 -1</clus>
<clus scale="   69.596">  2  3  1 -1</clus>
</clustering>
</event>
<event>
 6    0  0.6338511E+002  0.1146828E+03  0.7546771E-02  0.1252136E+00
          2   -1    0    0  504    0 -0.00000000000E+00  0.00000000000E+00  0.19798067132E+04  0.19798067132E+04  0.00000000000E+00 0. -1.
         21   -1    0    0  503  502  0.00000000000E+00 -0.00000000000E+00 -0.10017327397E+03  0.10017327397E+03  0.00000000000E+00 0.  1.
         21    1    1    2  503  501  0.95678903946E+02 -0.11718032425E+03  0.93012850693E+01  0.15156581064E+03  0.00000000000E+00 0.  1.
         21    1    1    2  504  505 -0.40901298705E+02  0.11373163302E+03  0.62477488612E+03  0.63635796444E+03  0.00000000000E+00 0. -1.
         21    1    1    2  505  502 -0.19019355431E+02  0.36268903792E+02 -0.43710537070E+01  0.41185863762E+02  0.00000000000E+00 0.  1.
          2    1    1    2  501    0 -0.35758249810E+02 -0.32820212566E+02  0.12499283218E+04  0.12508703483E+04  0.00000000000E+00 0. -1.
<scales pt_clust_3="114.68276" pt_clust_4="14000.00000" pt_clust_5="40.95326" pt_clust_6="48.47340"></scales>
<clustering>
<clus scale="   40.953">  2  5  1 -1</clus>
<clus scale="   48.473">  1  6  2 -1</clus>
<clus scale="  114.683">  2  3  1 -1</clus>
<clus scale="   40.953">  2  3  1 -1</clus>
</clustering>
</event>
<event>
 6    0  0.6338511E+002  0.1067227E+03  0.7546771E-02  0.1266762E+00
         21   -1    0    0  503  502  0.00000000000E+00  0.00000000000E+00  0.46107509371E+03  0.46107509371E+03  0.00000000000E+00 0. -1.
          2   -1    0    0  505    0 -0.00000000000E+00 -0.00000000000E+00 -0.15654046910E+04  0.15654046910E+04  0.00000000000E+00 0.  1.
         21    1    1    2  503  504  0.69511669295E+02 -0.16318056676E+02  0.11891113125E+03  0.13870114736E+03  0.00000000000E+00 0. -1.
         21    1    1    2  504  501 -0.11693817637E+03  0.69276800237E+02 -0.20070425904E+02  0.13739226376E+03  0.00000000000E+00 0. -1.
         21    1    1    2  505  502  0.49692778891E+02  0.65997989365E+01  0.27070455843E+03  0.27530689707E+03  0.00000000000E+00 0. -1.
          2    1    1    2  501    0 -0.22662718122E+01 -0.59558542497E+02 -0.14738748611E+04  0.14750794765E+04  0.00000000000E+00 0.  1.
<scales pt_clust_3="106.72269" pt_clust_4="14000.00000" pt_clust_5="50.12913" pt_clust_6="59.57468"></scales>
<clustering>
<clus scale="   50.129">  1  5  2 -1</clus>
<clus scale="   59.575">  2  6  1 -1</clus>
<clus scale="  106.723">  1  3  2 -1</clus>
<clus scale="   50.129">  1  3  2 -1</clus>
</clustering>
</event>
<event>
 6    0  0.6338511E+002  0.1795194E+03  0.7546771E-02  0.1168269E+00
         21   -1    0    0  505  502  0.00000000000E+00  0.00000000000E+00  0.62184170164E+03  0.62184170164E+03  0.00000000000E+00 0.  1.
          3   -1    0    0  502    0 -0.00000000000E+00 -0.00000000000E+00 -0.38058819082E+03  0.38058819082E+03  0.00000000000E+00 0. -1.
         21    1    1    2  503  501 -0.14803487748E+03  0.55195994792E+02  0.14675018089E+03  0.21563055995E+03  0.00000000000E+00 0.  1.
         21    1    1    2  504  503  0.30499313380E+02 -0.29825810603E+02  0.16198001737E+03  0.16750317347E+03  0.00000000000E+00 0.  1.
         21    1    1    2  505  504  0.12094597083E+03 -0.66192534491E+02  0.25731820785E+03  0.29192814111E+03  0.00000000000E+00 0.  1.
          3    1    1    2  501    0 -0.34104067273E+01  0.40822350303E+02 -0.32479489529E+03  0.32736801793E+03  0.00000000000E+00 0. -1.
<scales pt_clust_3="170.63496" pt_clust_4="31.02477" pt_clust_5="31.02477" pt_clust_6="40.96456"></scales>
<clustering>
<clus scale="   31.025">  4  5 -1 -1</clus>
<clus scale="   40.965">  2  6  1 -1</clus>
<clus scale="  170.635">  2  3  1 -1</clus>
<clus scale="  179.519">  1  3  2 -1</clus>
</clustering>
</event>
<event>
 6    0  0.6338511E+002  0.6939209E+02  0.7546771E-02  0.1362173E+00
         21   -1    0    0  501  502  0.00000000000E+00  0.00000000000E+00  0.79307643222E+02  0.79307643222E+02  0.00000000000E+00 0.  1.
          1   -1    0    0  505    0 -0.00000000000E+00 -0.00000000000E+00 -0.86878144092E+03  0.86878144092E+03  0.00000000000E+00 0. -1.
         21    1    1    2  503  504 -0.42575907663E+02  0.39385481146E+02 -0.22666241732E+03  0.23396532962E+03  0.00000000000E+00 0.  1.
         21    1    1    2  504  502  0.11272637146E+02  0.67835528878E+02  0.51586639465E+02  0.85964601422E+02  0.00000000000E+00 0.  1.
         21    1    1    2  505  503  0.30687767147E+02 -0.17739758903E+02 -0.10144167416E+03  0.10745627648E+03  0.00000000000E+00 0. -1.
          1    1    1    2  501    0  0.61550337020E+00 -0.89481251121E+02 -0.51295634568E+03  0.52070287662E+03  0.00000000000E+00 0. -1.
<scales pt_clust_3="47.63964" pt_clust_4="14000.00000" pt_clust_5="35.44627" pt_clust_6="69.39209"></scales>
<clustering>
<clus scale="   35.446">  2  5  1 -1</clus>
<clus scale="   47.640">  2  3  1 -1</clus>
<clus scale="   69.392">  2  6  1 -1</clus>
<clus scale="   69.392">  1  3  2 -1</clus>
</clustering>
</event>
<event>
 6    0  0.6338511E+002  0.7496558E+02  0.7546771E-02  0.1343978E+00
         21   -1    0    0  505  502  0.00000000000E+00  0.00000000000E+00  0.18538860904E+04  0.18538860904E+04  0.00000000000E+00 0. -1.
         -1   -1    0    0    0  501 -0.00000000000E+00 -0.00000000000E+00 -0.51332889114E+03  0.51332889114E+03  0.00000000000E+00 0. -1.
         21    1    1    2  503  504  0.54162700737E+02 -0.82681697114E+02 -0.57556817226E+02  0.11437940548E+03  0.00000000000E+00 0. -1.
         21    1    1    2  504  502  0.25096508286E+02  0.39287285877E+02  0.20403533907E+03  0.20929344268E+03  0.00000000000E+00 0. -1.
         21    1    1    2  505  501 -0.89635414412E+02 -0.23994464528E+01  0.16162661780E+04  0.16187515630E+04  0.00000000000E+00 0. -1.
         -1    1    1    2    0  503  0.10376205388E+02  0.45793857689E+02 -0.42218750054E+03  0.42479057034E+03  0.00000000000E+00 0. -1.
<scales pt_clust_3="74.96558" pt_clust_4="46.61894" pt_clust_5="14000.00000" pt_clust_6="46.98935"></scales>
<clustering>
<clus scale="   46.619">  1  4  2 -1</clus>
<clus scale="   46.989">  2  6  1 -1</clus>
<clus scale="   74.966">  2  3  1 -1</clus>
<clus scale="   46.619">  1  3  2 -1</clus>
</clustering>
</event>
<event>
 6    0  0.6338511E+002  0.1803821E+03  0.7546771E-02  0.1167434E+00
         -4   -1    0    0    0  501 -0.00000000000E+00  0.00000000000E+00  0.62376325853E+03  0.62376325853E+03  0.00000000000E+00 0. -1.
         21   -1    0    0  505  502  0.00000000000E+00 -0.00000000000E+00 -0.40626227568E+03  0.40626227568E+03  0.00000000000E+00 0.  1.
         21    1    1    2  503  502  0.16951641463E+03 -0.10679243341E+03 -0.23729999703E+03  0.31056678388E+03  0.00000000000E+00 0.  1.
         21    1    1    2  504  501 -0.58476572089E+02  0.69047836385E+02  0.10819635593E+03  0.14104454839E+03  0.00000000000E+00 0. -1.
         21    1    1    2  505  504 -0.27760892369E+02 -0.13049715460E+02 -0.10861337239E+03  0.11286198155E+03  0.00000000000E+00 0.  1.
         -4    1    1    2    0  503 -0.83278950169E+02  0.50794312486E+02  0.45521799633E+03  0.46555222038E+03  0.00000000000E+00 0. -1.
<scales pt_clust_3="14000.00000" pt_clust_4="90.94122" pt_clust_5="30.67511" pt_clust_6="180.38207"></scales>
<clustering>
<clus scale="   30.675">  2  5  1 -1</clus>
<clus scale="   90.941">  1  4  2 -1</clus>
<clus scale="  180.382">  1  6  2 -1</clus>
<clus scale="   30.675">  2  3  1 -1</clus>
</clustering>
</event>
<event>
 6    0  0.6338511E+002  0.1887372E+03  0.7546771E-02  0.1159605E+00
          3   -1    0    0  503    0 -0.00000000000E+00  0.00000000000E+00  0.80992535018E+03  0.80992535018E+03  0.00000000000E+00 0. -1.
         21   -1    0    0  505  502  0.00000000000E+00 -0.00000000000E+00 -0.11062602752E+04  0.11062602752E+04  0.00000000000E+00 0.  1.
         21    1    1    2  503  504  0.29996081653E+02  0.14219984353E+03 -0.13404827279E+03  0.19771064679E+03  0.00000000000E+00 0.  1.
         21    1    1    2  504  502  0.38389825759E+02 -0.25415128125E+03 -0.20394324722E+03  0.32811507215E+03  0.00000000000E+00 0.  1.
         21    1    1    2  505  501 -0.35317690433E+02  0.90637280117E+02 -0.67029775579E+03  0.67731937609E+03  0.00000000000E+00 0.  1.
          3    1    1    2  501    0 -0.33068216979E+02  0.21314157604E+02  0.71195435080E+03  0.71304053034E+03  0.00000000000E+00 0. -1.
<scales pt_clust_3="188.73721" pt_clust_4="14000.00000" pt_clust_5="98.42695" pt_clust_6="39.34209"></scales>
<clustering>
<clus scale="   39.342">  1  6  2 -1</clus>
<clus scale="   98.427">  2  5  1 -1</clus>
<clus scale="  188.737">  1  3  2 -1</clus>
<clus scale="   98.427">  2  3  1 -1</clus>
</clustering>
</event>
<event>
 6    0  0.6338511E+002  0.6917765E+02  0.7546771E-02  0.1362912E+00
          2   -1    0    0  505    0 -0.00000000000E+00  0.00000000000E+00  0.83523689561E+03  0.83523689561E+03  0.00000000000E+00 0.  1.
         21   -1    0    0  504  502  0.00000000000E+00 -0.00000000000E+00 -0.60915706616E+02  0.60915706616E+02  0.00000000000E+00 0.  1.
         21    1    1    2  503  502  0.93724259147E+01  0.45470912570E+02 -0.21749610088E+02  0.51268818950E+02  0.00000000000E+00 0.  1.
         21    1    1    2  504  501  0.54526651188E+02  0.10111029735E+01  0.38830215801E+02  0.66947469543E+02  0.00000000000E+00 0.  1.
         21    1    1    2  505  503 -0.94701825569E+02  0.13906580712E+02  0.28007894475E+03  0.29598318203E+03  0.00000000000E+00 0.  1.
          2    1    1    2  501    0  0.30802748466E+02 -0.60388596256E+02  0.47716163853E+03  0.48195313170E+03  0.00000000000E+00 0.  1.
<scales pt_clust_3="46.42678" pt_clust_4="69.17765" pt_clust_5="14000.00000" pt_clust_6="64.29585"></scales>
<clustering>
<clus scale="   46.427">  2  3  1 -1</clus>
<clus scale="   64.296">  1  6  2 -1</clus>
<clus scale="   69.178">  2  4  1 -1</clus>
<clus scale="   46.427">  2  3  1 -1</clus>
</clustering>
</event>
<event>
 6    0  0.6338511E+002  0.8077722E+02  0.7546771E-02  0.1326860E+00
          2   -1    0    0  504    0 -0.00000000000E+00  0.00000000000E+00  0.25845829889E+04  0.25845829889E+04  0.00000000000E+00 0.  1.
         21   -1    0    0  505  502  0.00000000000E+00 -0.00000000000E+00 -0.20644787997E+03  0.20644787997E+03  0.00000000000E+00 0. -1.
         21    1    1    2  503  502 -0.42122712993E+02 -0.44616734038E+01 -0.17002226473E+03  0.17521929113E+03  0.00000000000E+00 0. -1.
         21    1    1    2  504  503 -0.68296677005E+02  0.71448468763E+02  0.71207481014E+02  0.12181882092E+03  0.00000000000E+00 0. -1.
         21    1    1    2  505  501  0.54423718395E+02 -0.94379754166E+01  0.89362583958E+02  0.10505564200E+03  0.00000000000E+00 0.  1.
          2    1    1    2  501    0  0.55995671603E+02 -0.57548819942E+02  0.23875873087E+04  0.23889371148E+04  0.00000000000E+00 0.  1.
<scales pt_clust_3="42.35835" pt_clust_4="14000.00000" pt_clust_5="45.86466" pt_clust_6="80.77722"></scales>
<clustering>
<clus scale="   42.358">  2  3  1 -1</clus>
<clus scale="   45.865">  2  5  1 -1</clus>
<clus scale="   80.777">  1  6  2 -1</clus>
<clus scale="   42.358">  2  3  1 -1</clus>
</clustering>
</event>
<event>
 6    0  0.6338511E+002  0.9306851E+02  0.7546771E-02  0.1295587E+00
          2   -1    0    0  503    0 -0.00000000000E+00  0.00000000000E+00  0.17455452283E+04  0.17455452283E+04  0.00000000000E+00 0. -1.
         21   -1    0    0  504  502  0.00000000000E+00 -0.00000000000E+00 -0.64533503296E+02  0.64533503296E+02  0.00000000000E+00 0.  1.
         21    1    1    2  503  502  0.46958313837E+02 -0.16072667624E+03  0.78194632911E+03  0.79967381432E+03  0.00000000000E+00 0.  1.
         21    1    1    2  504  505 -0.29310165002E+02  0.21398057914E+02 -0.21423984229E+02  0.42142018879E+02  0.00000000000E+00 0.  1.
         21    1    1    2  505  501  0.82303544928E+01  0.68895360203E+02  0.31651938156E+02  0.76263717334E+02  0.00000000000E+00 0.  1.
          2    1    1    2  501    0 -0.25878503329E+02  0.70433258121E+02  0.88883744195E+03  0.89199918105E+03  0.00000000000E+00 0. -1.
<scales pt_clust_3="14000.00000" pt_clust_4="36.28998" pt_clust_5="93.06851" pt_clust_6="76.50055"></scales>
<clustering>
<clus scale="   36.290">  2  4  1 -1</clus>
<clus scale="   76.501">  1  6  2 -1</clus>
<clus scale="   93.069">  2  5  1 -1</clus>
<clus scale="   36.290">  2  3  1 -1</clus>
</clustering>
</event>
<event>
 6    0  0.6338511E+002  0.2737707E+03  0.7546771E-02  0.1099141E+00
          2   -1    0    0  504    0 -0.00000000000E+00  0.00000000000E+00  0.26029589215E+04  0.26029589215E+04  0.00000000000E+00 0. -1.
         21   -1    0    0  503  502  0.00000000000E+00 -0.00000000000E+00 -0.36204065636E+03  0.36204065636E+03  0.00000000000E+00 0. -1.
         21    1    1    2  503  501 -0.22408002617E+03  0.13791795697E+03  0.11671809257E+02  0.26338081197E+03  0.00000000000E+00 0. -1.
         21    1    1    2  504  505  0.22532024062E+03 -0.17195076893E+03  0.62556042366E+02  0.29025770654E+03  0.00000000000E+00 0. -1.
         21    1    1    2  505  502 -0.46720918176E+02 -0.10739279272E+01 -0.11749773913E+03  0.12645044965E+03  0.00000000000E+00 0.  1.
          2    1    1    2  501    0  0.45480703725E+02  0.35106739887E+02  0.22841881527E+04  0.22849106097E+04  0.00000000000E+00 0. -1.
<scales pt_clust_3="14000.00000" pt_clust_4="273.77068" pt_clust_5="46.73326" pt_clust_6="57.39751"></scales>
<clustering>
<clus scale="   46.733">  2  5  1 -1</clus>
<clus scale="   57.398">  1  6  2 -1</clus>
<clus scale="  273.771">  2  4  1 -1</clus>
<clus scale="   46.733">  2  3  1 -1</clus>
</clustering>
</event>
<event>
 6    0  0.6338511E+002  0.1090697E+03  0.7546771E-02  0.1262302E+00
          1   -1    0    0  505    0 -0.00000000000E+00  0.00000000000E+00  0.81459203229E+03  0.81459203229E+03  0.00000000000E+00 0.  1.
         21   -1    0    0  504  502  0.00000000000E+00 -0.00000000000E+00 -0.13420557206E+03  0.13420557206E+03  0.00000000000E+00 0. -1.
         21    1    1    2  503  502  0.60191515505E+02 -0.17018332361E+01  0.61431650872E+02  0.86021872242E+02  0.00000000000E+00 0.  1.
         21    1    1    2  504  501  0.58924573571E+02  0.73963059418E+02 -0.85866069661E+02  0.12773261701E+03  0.00000000000E+00 0. -1.
         21    1    1    2  505  503 -0.84065538836E+02 -0.20716126108E+02  0.12602369986E+03  0.15289913547E+03  0.00000000000E+00 0.  1.
          1    1    1    2  501    0 -0.35050550240E+02 -0.51545100074E+02  0.57879717916E+03  0.58214397963E+03  0.00000000000E+00 0.  1.
<scales pt_clust_3="60.21557" pt_clust_4="14000.00000" pt_clust_5="109.06970" pt_clust_6="61.89193"></scales>
<clustering>
<clus scale="   60.216">  2  3  1 -1</clus>
<clus scale="   61.892">  1  6  2 -1</clus>
<clus scale="  109.070">  1  5  2 -1</clus>
<clus scale="   60.216">  2  3  1 -1</clus>
</clustering>
</event>
<event>
 6    0  0.6338511E+002  0.2153860E+03  0.7546771E-02  0.1137370E+00
         -4   -1    0    0    0  501 -0.00000000000E+00  0.00000000000E+00  0.97626368825E+03  0.97626368825E+03  0.00000000000E+00 0. -1.
         21   -1    0    0  505  502  0.00000000000E+00 -0.00000000000E+00 -0.96328205409E+03  0.96328205409E+03  0.00000000000E+00 0.  1.
         21    1    1    2  503  502  0.91047636192E+02 -0.21258327859E+03  0.12909922766E+03  0.26485455060E+03  0.00000000000E+00 0. -1.
         21    1    1    2  504  501 -0.47795911050E+02  0.22566067272E+03  0.54358622523E+02  0.23698533323E+03  0.00000000000E+00 0. -1.
         21    1    1    2  505  504  0.37001533009E+02 -0.49858194282E+02 -0.79980705322E+03  0.80221336025E+03  0.00000000000E+00 0.  1.
         -4    1    1    2    0  503 -0.80253258150E+02  0.36780800156E+02  0.62933083720E+03  0.63549249826E+03  0.00000000000E+00 0. -1.
<scales pt_clust_3="14000.00000" pt_clust_4="215.38596" pt_clust_5="62.08827" pt_clust_6="87.24915"></scales>
<clustering>
<clus scale="   62.088">  2  5  1 -1</clus>
<clus scale="   87.249">  1  6  2 -1</clus>
<clus scale="  215.386">  2  4  1 -1</clus>
<clus scale="   62.088">  2  3  1 -1</clus>
</clustering>
</event>
<event>
 6    0  0.6338511E+002  0.8408776E+02  0.7546771E-02  0.1317836E+00
          2   -1    0    0  504    0 -0.00000000000E+00  0.00000000000E+00  0.17972719951E+04  0.17972719951E+04  0.00000000000E+00 0.  1.
         21   -1    0    0  505  502  0.00000000000E+00 -0.00000000000E+00 -0.10989166251E+03  0.10989166251E+03  0.00000000000E+00 0.  1.
         21    1    1    2  503  501  0.50947927102E+02 -0.58277193216E+02 -0.28409251569E+01  0.77459624197E+02  0.00000000000E+00 0.  1.
         21    1    1    2  504  502 -0.68368799812E+02  0.43809769143E+02  0.66885856464E+02  0.10520126641E+03  0.00000000000E+00 0.  1.
         21    1    1    2  505  503  0.52209534358E+02  0.20564418775E+02 -0.34775564798E+02  0.66015685291E+02  0.00000000000E+00 0.  1.
          2    1    1    2  501    0 -0.34788661647E+02 -0.60969947023E+01  0.16581109661E+04  0.16584870817E+04  0.00000000000E+00 0.  1.
<scales pt_clust_3="84.08776" pt_clust_4="14000.00000" pt_clust_5="52.23039" pt_clust_6="35.31889"></scales>
<clustering>
<clus scale="   35.319">  1  6  2 -1</clus>
<clus scale="   52.230">  2  5  1 -1</clus>
<clus scale="   84.088">  2  3  1 -1</clus>
<clus scale="   52.230">  2  3  1 -1</clus>
</clustering>
</event>
<event>
 6    0  0.6338511E+002  0.8940643E+02  0.7546771E-02  0.1304296E+00
         21   -1    0    0  504  502  0.00000000000E+00  0.00000000000E+00  0.55197910232E+03  0.55197910232E+03  0.00000000000E+00 0.  1.
          2   -1    0    0  505    0 -0.00000000000E+00 -0.00000000000E+00 -0.19874799618E+04  0.19874799618E+04  0.00000000000E+00 0. -1.
         21    1    1    2  503  502 -0.11267240807E+02 -0.39203095733E+02  0.39486814758E+03  0.39696937842E+03  0.00000000000E+00 0.  1.
         21    1    1    2  504  501  0.11044609909E+03  0.57384700678E+02 -0.11832953882E+03  0.17173591481E+03  0.00000000000E+00 0.  1.
         21    1    1    2  505  503 -0.29587459536E+02 -0.47060210455E+02  0.12257598168E+03  0.13459179936E+03  0.00000000000E+00 0.  1.
          2    1    1    2  501    0 -0.69591398749E+02  0.28878605511E+02 -0.18346154499E+04  0.18361619716E+04  0.00000000000E+00 0. -1.
<scales pt_clust_3="40.79011" pt_clust_4="14000.00000" pt_clust_5="89.40643" pt_clust_6="75.32283"></scales>
<clustering>
<clus scale="   40.790">  1  3  2 -1</clus>
<clus scale="   75.323">  2  6  1 -1</clus>
<clus scale="   89.406">  1  5  2 -1</clus>
<clus scale="   40.790">  1  3  2 -1</clus>
</clustering>
</event>
<event>
 6    0  0.6338511E+002  0.9505547E+02  0.7546771E-02  0.1291051E+00
         21   -1    0    0  503  502  0.00000000000E+00  0.00000000000E+00  0.51886257343E+03  0.51886257343E+03  0.00000000000E+00 0. -1.
          2   -1    0    0  504    0 -0.00000000000E+00 -0.00000000000E+00 -0.44065723598E+03  0.44065723598E+03  0.00000000000E+00 0. -1.
         21    1    1    2  503  505  0.45017637234E+02 -0.91669875568E+02  0.12918862975E+02  0.10294100626E+03  0.00000000000E+00 0.  1.
         21    1    1    2  504  502 -0.26514658731E+02  0.90585475467E+02  0.41888159669E+03  0.42938391626E+03  0.00000000000E+00 0. -1.
         21    1    1    2  505  501 -0.44764410315E+02  0.49843549067E+02  0.22831597969E+01  0.67033160697E+02  0.00000000000E+00 0.  1.
          2    1    1    2  501    0  0.26261431812E+02 -0.48759148966E+02 -0.35587828202E+03  0.36016172620E+03  0.00000000000E+00 0. -1.
<scales pt_clust_3="95.05547" pt_clust_4="14000.00000" pt_clust_5="46.19091" pt_clust_6="55.38156"></scales>
<clustering>
<clus scale="   55.382">  2  6  1 -1</clus>
<clus scale="   46.191">  2  5  1 -1</clus>
<clus scale="   95.055">  2  3  1 -1</clus>
<clus scale="   95.055">  1  3  2 -1</clus>
</clustering>
</event>
<event>
 6    0  0.6338511E+002  0.7264013E+02  0.7546771E-02  0.1351339E+00
         21   -1    0    0  505  502  0.00000000000E+00  0.00000000000E+00  0.53321346613E+03  0.53321346613E+03  0.00000000000E+00 0. -1.
          1   -1    0    0  503    0 -0.00000000000E+00 -0.00000000000E+00 -0.81204663331E+03  0.81204663331E+03  0.00000000000E+00 0.  1.
         21    1    1    2  503  504 -0.62593510130E+02  0.19298548220E+02  0.20250937843E+03  0.21283897628E+03  0.00000000000E+00 0. -1.
         21    1    1    2  504  502  0.31923014942E+02 -0.16415425056E+01  0.65745207161E+02  0.73104075190E+02  0.00000000000E+00 0.  1.
         21    1    1    2  505  501  0.31761169144E+02 -0.90171558435E+02  0.24547956262E+03  0.26343860287E+03  0.00000000000E+00 0. -1.
          1    1    1    2  501    0 -0.10906739562E+01  0.72514552721E+02 -0.79256731540E+03  0.79587844510E+03  0.00000000000E+00 0.  1.
<scales pt_clust_3="51.74367" pt_clust_4="31.96519" pt_clust_5="14000.00000" pt_clust_6="72.64013"></scales>
<clustering>
<clus scale="   31.965">  1  4  2 -1</clus>
<clus scale="   51.744">  1  3  2 -1</clus>
<clus scale="   72.640">  2  6  1 -1</clus>
<clus scale="   31.965">  1  3  2 -1</clus>
</clustering>
</event>
<event>
 6    0  0.6338511E+002  0.1127656E+03  0.7546771E-02  0.1255532E+00
         -3   -1    0    0    0  501 -0.00000000000E+00  0.00000000000E+00  0.15337653051E+04  0.15337653051E+04  0.00000000000E+00 0.  1.
         21   -1    0    0  503  502  0.00000000000E+00 -0.00000000000E+00 -0.14085964612E+03  0.14085964612E+03  0.00000000000E+00 0.  1.
         21    1    1    2  503  505  0.16348454536E+02  0.36335437674E+02 -0.10306336172E+03  0.11049702497E+03  0.00000000000E+00 0.  1.
         21    1    1    2  504  502  0.39901746715E+02 -0.38901410322E+02  0.93393367320E+03  0.93559477075E+03  0.00000000000E+00 0.  1.
         21    1    1    2  505  501 -0.97878953606E+02  0.36012948613E+02  0.53525630192E+02  0.11722719443E+03  0.00000000000E+00 0.  1.
         -3    1    1    2    0  504  0.41628752355E+02 -0.33446975964E+02  0.50850971732E+03  0.51130596108E+03  0.00000000000E+00 0.  1.
<scales pt_clust_3="39.84390" pt_clust_4="30.91372" pt_clust_5="108.25343" pt_clust_6="30.91372"></scales>
<clustering>
<clus scale="   30.914">  4  6 -1 -1</clus>
<clus scale="   39.844">  2  3  1 -1</clus>
<clus scale="  108.253">  2  5  1 -1</clus>
<clus scale="   39.844">  2  3  1 -1</clus>
</clustering>
</event>
<event>
 6    0  0.6338511E+002  0.1615995E+03  0.7546771E-02  0.1186903E+00
          1   -1    0    0  503    0 -0.00000000000E+00  0.00000000000E+00  0.54200286834E+03  0.54200286834E+03  0.00000000000E+00 0.  1.
         21   -1    0    0  501  502  0.00000000000E+00 -0.00000000000E+00 -0.14358789971E+04  0.14358789971E+04  0.00000000000E+00 0.  1.
         21    1    1    2  503  505  0.15373238762E+02  0.37648943435E+02  0.13621422144E+03  0.14215517413E+03  0.00000000000E+00 0.  1.
         21    1    1    2  504  502  0.19783393270E+02  0.23413816784E+02 -0.71091127934E+03  0.71157180703E+03  0.00000000000E+00 0. -1.
         21    1    1    2  505  504 -0.18215148680E+01  0.13721971648E+03 -0.68936367218E+03  0.70289034780E+03  0.00000000000E+00 0.  1.
          1    1    1    2  501    0 -0.33335117164E+02 -0.19828247670E+03  0.37018460135E+03  0.42126453646E+03  0.00000000000E+00 0.  1.
<scales pt_clust_3="40.78622" pt_clust_4="30.65272" pt_clust_5="161.59948" pt_clust_6="14000.00000"></scales>
<clustering>
<clus scale="   30.653">  2  4  1 -1</clus>
<clus scale="   40.786">  1  3  2 -1</clus>
<clus scale="  161.599">  2  5  1 -1</clus>
<clus scale="   30.653">  2  3  1 -1</clus>
</clustering>
</event>
<event>
 6    0  0.6338511E+002  0.1121845E+03  0.7546771E-02  0.1256577E+00
          2   -1    0    0  505    0 -0.00000000000E+00  0.00000000000E+00  0.64810261175E+03  0.64810261175E+03  0.00000000000E+00 0. -1.
         21   -1    0    0  504  502  0.00000000000E+00 -0.00000000000E+00 -0.40480339670E+03  0.40480339670E+03  0.00000000000E+00 0.  1.
         21    1    1    2  503  502 -0.23245183125E+01  0.51708054236E+02 -0.31348754710E+03  0.31773191286E+03  0.00000000000E+00 0.  1.
         21    1    1    2  504  501  0.87403365271E+02  0.39917145353E+02 -0.51594669406E+02  0.10906299402E+03  0.00000000000E+00 0.  1.
         21    1    1    2  505  503 -0.62700139654E+02 -0.49967992890E+02  0.20750844870E+03  0.22245867955E+03  0.00000000000E+00 0. -1.
          2    1    1    2  501    0 -0.22378707304E+02 -0.41657206699E+02  0.40087298286E+03  0.40365242202E+03  0.00000000000E+00 0. -1.
<scales pt_clust_3="51.41014" pt_clust_4="112.18446" pt_clust_5="14000.00000" pt_clust_6="47.28773"></scales>
<clustering>
<clus scale="   47.288">  1  6  2 -1</clus>
<clus scale="   51.410">  2  3  1 -1</clus>
<clus scale="  112.184">  2  4  1 -1</clus>
<clus scale="   51.410">  2  3  1 -1</clus>
</clustering>
</event>
<event>
 6    0  0.6338511E+002  0.8819143E+02  0.7546771E-02  0.1307291E+00
         -2   -1    0    0    0  501 -0.00000000000E+00  0.00000000000E+00  0.68773242732E+02  0.68773242732E+02  0.00000000000E+00 0. -1.
         21   -1    0    0  504  502  0.00000000000E+00 -0.00000000000E+00 -0.57077014067E+03  0.57077014067E+03  0.00000000000E+00 0.  1.
         21    1    1    2  503  502 -0.13876145708E+02  0.39649696302E+02 -0.81920750525E+02  0.92063321704E+02  0.00000000000E+00 0. -1.
         21    1    1    2  504  501  0.94120207427E+02 -0.57494574188E+02 -0.28462741921E+03  0.30524909053E+03  0.00000000000E+00 0.  1.
         21    1    1    2  505  503  0.65742325766E+01  0.36264983664E+02 -0.14806925298E+03  0.15258726438E+03  0.00000000000E+00 0. -1.
         -2    1    1    2    0  505 -0.86818294295E+02 -0.18420105778E+02  0.12620524766E+02  0.89643706788E+02  0.00000000000E+00 0. -1.
<scales pt_clust_3="83.41767" pt_clust_4="88.19143" pt_clust_5="31.65570" pt_clust_6="14000.00000"></scales>
<clustering>
<clus scale="   31.656">  3  5 -1 -1</clus>
<clus scale="   83.418">  2  3  1 -1</clus>
<clus scale="   88.191">  2  4  1 -1</clus>
<clus scale="   83.418">  2  3  1 -1</clus>
</clustering>
</event>
<event>
 6    0  0.6338511E+002  0.1812470E+03  0.7546771E-02  0.1166602E+00
         21   -1    0    0  504  502  0.00000000000E+00  0.00000000000E+00  0.10734771443E+04  0.10734771443E+04  0.00000000000E+00 0.  1.
         -2   -1    0    0    0  501 -0.00000000000E+00 -0.00000000000E+00 -0.85242624264E+02  0.85242624264E+02  0.00000000000E+00 0.  1.
         21    1    1    2  503  502  0.15027536635E+03 -0.39952460917E+02  0.44850193839E+03  0.47469239893E+03  0.00000000000E+00 0.  1.
         21    1    1    2  504  501 -0.13751332782E+03 -0.42494079155E+02  0.34906439145E+03  0.37757331933E+03  0.00000000000E+00 0. -1.
         21    1    1    2  505  503  0.37798783529E+02  0.24515024496E+02  0.21969372299E+03  0.22426561569E+03  0.00000000000E+00 0.  1.
         -2    1    1    2    0  505 -0.50560822058E+02  0.57931515576E+02 -0.29025532816E+02  0.82188434584E+02  0.00000000000E+00 0.  1.
<scales pt_clust_3="43.21836" pt_clust_4="162.49251" pt_clust_5="43.21836" pt_clust_6="76.89250"></scales>
<clustering>
<clus scale="   43.218">  3  5 -1 -1</clus>
<clus scale="   76.893">  2  6  1 -1</clus>
<clus scale="  162.493">  2  4  1 -1</clus>
<clus scale="  181.247">  1  3  2 -1</clus>
</clustering>
</event>
<event>
 6    0  0.6338511E+002  0.1000443E+03  0.7546771E-02  0.1280203E+00
         21   -1    0    0  501  502  0.00000000000E+00  0.00000000000E+00  0.27973459410E+02  0.27973459410E+02  0.00000000000E+00 0.  1.
          2   -1    0    0  505    0 -0.00000000000E+00 -0.00000000000E+00 -0.15063823823E+04  0.15063823823E+04  0.00000000000E+00 0.  1.
         21    1    1    2  503  502 -0.15861452518E+02 -0.49449761013E+02 -0.18801952706E+02  0.55230226921E+02  0.00000000000E+00 0.  1.
         21    1    1    2  504  503 -0.26771296086E+02  0.74460286239E+02 -0.31783614648E+03  0.32753755896E+03  0.00000000000E+00 0.  1.
         21    1    1    2  505  504  0.15209411592E+02  0.53043716942E+02 -0.25155342804E+03  0.25753463703E+03  0.00000000000E+00 0.  1.
          2    1    1    2  501    0  0.27423337012E+02 -0.78054242168E+02 -0.89021739566E+03  0.89405341880E+03  0.00000000000E+00 0.  1.
<scales pt_clust_3="51.93134" pt_clust_4="34.57357" pt_clust_5="34.57357" pt_clust_6="91.07593"></scales>
<clustering>
<clus scale="   34.574">  4  5 -1 -1</clus>
<clus scale="   51.931">  1  3  2 -1</clus>
<clus scale="   91.076">  2  6  1 -1</clus>
<clus scale="   51.931">  1  3  2 -1</clus>
</clustering>
</event>
<event>
 6    0  0.6338511E+002  0.8843647E+02  0.7546771E-02  0.1306683E+00
          2   -1    0    0  503    0 -0.00000000000E+00  0.00000000000E+00  0.17282514351E+04  0.17282514351E+04  0.00000000000E+00 0.  1.
         21   -1    0    0  505  502  0.00000000000E+00 -0.00000000000E+00 -0.38351268391E+02  0.38351268391E+02  0.00000000000E+00 0.  1.
         21    1    1    2  503  504  0.31089752323E+02 -0.47306796892E+02  0.13527052772E+03  0.14663772162E+03  0.00000000000E+00 0.  1.
         21    1    1    2  504  502 -0.86212940325E+01  0.43931189442E+02  0.22753787102E+02  0.50219627080E+02  0.00000000000E+00 0.  1.
         21    1    1    2  505  501 -0.86365341601E+02 -0.56269908519E+02  0.13361461444E+03  0.16875467409E+03  0.00000000000E+00 0.  1.
          2    1    1    2  501    0  0.63896883310E+02  0.59645515968E+02  0.13982612375E+04  0.14009906807E+04  0.00000000000E+00 0.  1.
<scales pt_clust_3="47.20139" pt_clust_4="44.76914" pt_clust_5="88.43647" pt_clust_6="14000.00000"></scales>
<clustering>
<clus scale="   44.769">  2  4  1 -1</clus>
<clus scale="   47.201">  2  3  1 -1</clus>
<clus scale="   88.436">  2  5  1 -1</clus>
<clus scale="   44.769">  2  3  1 -1</clus>
</clustering>
</event>
<event>
 6    0  0.6338511E+002  0.2453567E+03  0.7546771E-02  0.1116275E+00
         21   -1    0    0  503  502  0.00000000000E+00  0.00000000000E+00  0.22043251197E+03  0.22043251197E+03  0.00000000000E+00 0. -1.
          2   -1    0    0  504    0 -0.00000000000E+00 -0.00000000000E+00 -0.35243526326E+04  0.35243526326E+04  0.00000000000E+00 0. -1.
         21    1    1    2  503  501 -0.12747255835E+03  0.24619857574E+03 -0.21178824429E+04  0.21359515523E+04  0.00000000000E+00 0. -1.
         21    1    1    2  504  505  0.30267884502E+02 -0.26927571307E+03 -0.43726703519E+03  0.51442007596E+03  0.00000000000E+00 0. -1.
         21    1    1    2  505  502  0.10246527865E+03  0.74210795808E+02  0.14883265987E+03  0.19533954077E+03  0.00000000000E+00 0. -1.
          2    1    1    2  501    0 -0.52606048073E+01 -0.51133658472E+02 -0.89760330235E+03  0.89907397548E+03  0.00000000000E+00 0. -1.
<scales pt_clust_3="245.35669" pt_clust_4="14000.00000" pt_clust_5="126.21344" pt_clust_6="51.40355"></scales>
<clustering>
<clus scale="   51.404">  2  6  1 -1</clus>
<clus scale="  126.213">  1  5  2 -1</clus>
<clus scale="  245.357">  2  3  1 -1</clus>
<clus scale="  126.213">  1  3  2 -1</clus>
</clustering>
</event>
<event>
 6    0  0.6338511E+002  0.1927132E+03  0.7546771E-02  0.1156037E+00
         21   -1    0    0  504  502  0.00000000000E+00  0.00000000000E+00  0.39259098408E+03  0.39259098408E+03  0.00000000000E+00 0. -1.
          2   -1    0    0  505    0 -0.00000000000E+00 -0.00000000000E+00 -0.69255940265E+03  0.69255940265E+03  0.00000000000E+00 0. -1.
         21    1    1    2  503  501  0.21777418112E+02 -0.17922835028E+03  0.22683205308E+03  0.28991350053E+03  0.00000000000E+00 0. -1.
         21    1    1    2  504  503  0.29775252642E+02  0.12534635854E+02  0.69754159380E+02  0.76872137454E+02  0.00000000000E+00 0.  1.
         21    1    1    2  505  502 -0.34606868882E+02 -0.25961064943E+02  0.36390435518E+02  0.56532079954E+02  0.00000000000E+00 0.  1.
          2    1    1    2  501    0 -0.16945801872E+02  0.19265477937E+03 -0.63294506655E+03  0.66183266879E+03  0.00000000000E+00 0. -1.
<scales pt_clust_3="192.71318" pt_clust_4="32.30608" pt_clust_5="38.71834" pt_clust_6="14000.00000"></scales>
<clustering>
<clus scale="   32.306">  1  4  2 -1</clus>
<clus scale="   38.718">  1  5  2 -1</clus>
<clus scale="  192.713">  1  3  2 -1</clus>
<clus scale="   32.306">  1  3  2 -1</clus>
</clustering>
</event>
<event>
 6    0  0.6338511E+002  0.1070253E+03  0.7546771E-02  0.1266180E+00
         -1   -1    0    0    0  501 -0.00000000000E+00  0.00000000000E+00  0.91055435038E+03  0.91055435038E+03  0.00000000000E+00 0. -1.
         21   -1    0    0  503  502  0.00000000000E+00 -0.00000000000E+00 -0.11682836629E+04  0.11682836629E+04  0.00000000000E+00 0. -1.
         21    1    1    2  503  505  0.39005718098E+02 -0.79989274779E+00 -0.29890258045E+03  0.30143795128E+03  0.00000000000E+00 0. -1.
         21    1    1    2  504  502 -0.31609727999E+02 -0.91872774199E+02 -0.44473411546E+03  0.45522325841E+03  0.00000000000E+00 0. -1.
         21    1    1    2  505  501  0.14834005960E+02  0.13079628429E+03 -0.40721623753E+03  0.42796352628E+03  0.00000000000E+00 0. -1.
         -1    1    1    2    0  504 -0.22229996059E+02 -0.38123617342E+02  0.89312362096E+03  0.89421327727E+03  0.00000000000E+00 0. -1.
<scales pt_clust_3="39.01392" pt_clust_4="107.02525" pt_clust_5="14000.00000" pt_clust_6="44.11954"></scales>
<clustering>
<clus scale="   39.014">  2  3  1 -1</clus>
<clus scale="   44.120">  1  6  2 -1</clus>
<clus scale="  107.025">  2  4  1 -1</clus>
<clus scale="   39.014">  2  3  1 -1</clus>
</clustering>
</event>
<event>
 6    0  0.6338511E+002  0.1056299E+03  0.7546771E-02  0.1268884E+00
         21   -1    0    0  503  502  0.00000000000E+00  0.00000000000E+00  0.76701346887E+03  0.76701346887E+03  0.00000000000E+00 0. -1.
          2   -1    0    0  505    0 -0.00000000000E+00 -0.00000000000E+00 -0.98435073033E+03  0.98435073033E+03  0.00000000000E+00 0.  1.
         21    1    1    2  503  501  0.90680499070E+02 -0.24935087029E+02  0.38851957457E+03  0.39974012971E+03  0.00000000000E+00 0. -1.
         21    1    1    2  504  502 -0.13483994506E+03 -0.61770438920E+01  0.35887355716E+03  0.38341908753E+03  0.00000000000E+00 0. -1.
         21    1    1    2  505  504  0.23413344123E+01  0.33189053110E+02 -0.24380601381E+03  0.24606577873E+03  0.00000000000E+00 0. -1.
          2    1    1    2  501    0  0.41818111580E+02 -0.20769221897E+01 -0.72092437938E+03  0.72213920323E+03  0.00000000000E+00 0.  1.
<scales pt_clust_3="105.62988" pt_clust_4="14000.00000" pt_clust_5="33.27154" pt_clust_6="53.51374"></scales>
<clustering>
<clus scale="   33.272">  2  5  1 -1</clus>
<clus scale="   53.514">  2  6  1 -1</clus>
<clus scale="  105.630">  1  3  2 -1</clus>
<clus scale="  105.630">  1  3  2 -1</clus>
</clustering>
</event>
<event>
 6    0  0.6338511E+002  0.7441790E+02  0.7546771E-02  0.1345683E+00
         -2   -1    0    0    0  501 -0.00000000000E+00  0.00000000000E+00  0.15884893062E+04  0.15884893062E+04  0.00000000000E+00 0. -1.
         21   -1    0    0  505  502  0.00000000000E+00 -0.00000000000E+00 -0.98117337615E+02  0.98117337615E+02  0.00000000000E+00 0.  1.
         21    1    1    2  503  502 -0.26667418845E+02 -0.85922383703E+02  0.77489064518E+02  0.11873652500E+03  0.00000000000E+00 0.  1.
         21    1    1    2  504  501  0.77680527894E+02 -0.17007424770E+02  0.13729901067E+03  0.15866485195E+03  0.00000000000E+00 0. -1.
         21    1    1    2  505  504 -0.14384889629E+02  0.35805044416E+02 -0.60052941546E+02  0.71381244340E+02  0.00000000000E+00 0.  1.
         -2    1    1    2    0  503 -0.36628219420E+02  0.67124764058E+02  0.13356368350E+04  0.13378240226E+04  0.00000000000E+00 0. -1.
<scales pt_clust_3="72.58733" pt_clust_4="74.41790" pt_clust_5="38.58661" pt_clust_6="14000.00000"></scales>
<clustering>
<clus scale="   38.587">  2  5  1 -1</clus>
<clus scale="   72.587">  2  3  1 -1</clus>
<clus scale="   74.418">  2  4  1 -1</clus>
<clus scale="   38.587">  2  3  1 -1</clus>
</clustering>
</event>
<event>
 6    0  0.6338511E+002  0.8389968E+02  0.7546771E-02  0.1318335E+00
          2   -1    0    0  502    0 -0.00000000000E+00  0.00000000000E+00  0.39328393750E+04  0.39328393750E+04  0.00000000000E+00 0. -1.
         21   -1    0    0  503  502  0.00000000000E+00 -0.00000000000E+00 -0.66788227528E+01  0.66788227528E+01  0.00000000000E+00 0. -1.
         21    1    1    2  503  505  0.35189245534E+02  0.20072594196E+02  0.42866693760E+03  0.43057697968E+03  0.00000000000E+00 0. -1.
         21    1    1    2  504  501  0.45426247315E+02 -0.67375626814E+02  0.11336890014E+04  0.11365974533E+04  0.00000000000E+00 0. -1.
         21    1    1    2  505  504  0.26352443329E+02  0.47130350425E+02  0.24678045541E+03  0.25261891135E+03  0.00000000000E+00 0. -1.
          2    1    1    2  501    0 -0.10696793618E+03  0.17268219353E+00  0.21170241578E+04  0.21197248534E+04  0.00000000000E+00 0. -1.
<scales pt_clust_3="40.51163" pt_clust_4="14000.00000" pt_clust_5="72.48102" pt_clust_6="83.89968"></scales>
<clustering>
<clus scale="   40.512">  2  3  1 -1</clus>
<clus scale="   72.481">  2  5  1 -1</clus>
<clus scale="   83.900">  1  6  2 -1</clus>
<clus scale="   40.512">  2  3  1 -1</clus>
</clustering>
</event>
<event>
 6    0  0.6338511E+002  0.1254946E+03  0.7546771E-02  0.1234298E+00
         21   -1    0    0  504  502  0.00000000000E+00  0.00000000000E+00  0.89143894011E+02  0.89143894011E+02  0.00000000000E+00 0.  1.
          2   -1    0    0  505    0 -0.00000000000E+00 -0.00000000000E+00 -0.23051006657E+04  0.23051006657E+04  0.00000000000E+00 0. -1.
         21    1    1    2  503  501  0.12037966588E+03 -0.33973332217E+02 -0.16040022919E+04  0.16088719041E+04  0.00000000000E+00 0.  1.
         21    1    1    2  504  503  0.10649327337E+02 -0.35155571823E+02 -0.55200260216E+02  0.66305287353E+02  0.00000000000E+00 0. -1.
         21    1    1    2  505  502 -0.10954870488E+03  0.11132782212E+03  0.40762039203E+01  0.15624153788E+03  0.00000000000E+00 0.  1.
          2    1    1    2  501    0 -0.21480288332E+02 -0.42198918077E+02 -0.56083042343E+03  0.56282583036E+03  0.00000000000E+00 0. -1.
<scales pt_clust_3="14000.00000" pt_clust_4="36.73312" pt_clust_5="125.49459" pt_clust_6="47.66861"></scales>
<clustering>
<clus scale="   36.733">  1  4  2 -1</clus>
<clus scale="   47.669">  2  6  1 -1</clus>
<clus scale="  125.495">  1  5  2 -1</clus>
<clus scale="   36.733">  1  3  2 -1</clus>
</clustering>
</event>
<event>
 6    0  0.6338511E+002  0.7811506E+02  0.7546771E-02  0.1334487E+00
         21   -1    0    0  503  502  0.00000000000E+00  0.00000000000E+00  0.11120162268E+03  0.11120162268E+03  0.00000000000E+00 0.  1.
          2   -1    0    0  504    0 -0.00000000000E+00 -0.00000000000E+00 -0.82578845051E+03  0.82578845051E+03  0.00000000000E+00 0.  1.
         21    1    1    2  503  505  0.54063598580E+02  0.62728500137E+01  0.67515293408E+02  0.86721025032E+02  0.00000000000E+00 0.  1.
         21    1    1    2  504  502 -0.48515901348E+01  0.90975465529E+02 -0.10904627793E+03  0.14209561564E+03  0.00000000000E+00 0.  1.
         21    1    1    2  505  501 -0.84187109126E+02 -0.28550949328E+02 -0.11773118415E+03  0.14752375325E+03  0.00000000000E+00 0.  1.
          2    1    1    2  501    0  0.34975100681E+02 -0.68697366215E+02 -0.55532465916E+03  0.56064967926E+03  0.00000000000E+00 0.  1.
<scales pt_clust_3="54.42629" pt_clust_4="14000.00000" pt_clust_5="65.82894" pt_clust_6="78.11506"></scales>
<clustering>
<clus scale="   54.426">  1  3  2 -1</clus>
<clus scale="   65.829">  1  5  2 -1</clus>
<clus scale="   78.115">  2  6  1 -1</clus>
<clus scale="   54.426">  1  3  2 -1</clus>
</clustering>
</event>
<event>
 6    0  0.6338511E+002  0.9436922E+02  0.7546771E-02  0.1292603E+00
         21   -1    0    0  503  502  0.00000000000E+00  0.00000000000E+00  0.68601531364E+03  0.68601531364E+03  0.00000000000E+00 0. -1.
         -2   -1    0    0    0  501 -0.00000000000E+00 -0.00000000000E+00 -0.28131669561E+03  0.28131669561E+03  0.00000000000E+00 0. -1.
         21    1    1    2  503  501 -0.43452238480E+02  0.69802336091E+02  0.26729345559E+02  0.86457625845E+02  0.00000000000E+00 0. -1.
         21    1    1    2  504  502  0.27751067509E+02  0.16314769212E+02  0.57261802754E+03  0.57352218694E+03  0.00000000000E+00 0. -1.
         21    1    1    2  505  504  0.89660934721E+01 -0.12256018156E+03 -0.14859277934E+02  0.12378282222E+03  0.00000000000E+00 0. -1.
         -2    1    1    2    0  505  0.67350774988E+01  0.36443076258E+02 -0.17978947714E+03  0.18356937426E+03  0.00000000000E+00 0. -1.
<scales pt_clust_3="94.36922" pt_clust_4="32.19151" pt_clust_5="14000.00000" pt_clust_6="37.41527"></scales>
<clustering>
<clus scale="   32.192">  1  4  2 -1</clus>
<clus scale="   37.415">  2  6  1 -1</clus>
<clus scale="   94.369">  1  3  2 -1</clus>
<clus scale="   32.192">  1  3  2 -1</clus>
</clustering>
</event>
<event>
 6    0  0.6338511E+002  0.8771115E+02  0.7546771E-02  0.1308491E+00
         -1   -1    0    0    0  501 -0.00000000000E+00  0.00000000000E+00  0.32016163026E+03  0.32016163026E+03  0.00000000000E+00 0. -1.
         21   -1    0    0  504  502  0.00000000000E+00 -0.00000000000E+00 -0.10226615537E+03  0.10226615537E+03  0.00000000000E+00 0.  1.
         21    1    1    2  503  505 -0.89362705531E+02  0.14438895321E+02  0.55352783338E+02  0.10610421981E+03  0.00000000000E+00 0.  1.
         21    1    1    2  504  501  0.86852779685E+02  0.71187972443E+02  0.35402141707E+02  0.11774737533E+03  0.00000000000E+00 0.  1.
         21    1    1    2  505  502 -0.34809179884E+02 -0.18827987852E+02 -0.10634938921E+02  0.40978946504E+02  0.00000000000E+00 0. -1.
         -1    1    1    2    0  503  0.37319105729E+02 -0.66798879913E+02  0.13777548876E+03  0.15759724399E+03  0.00000000000E+00 0. -1.
<scales pt_clust_3="14000.00000" pt_clust_4="87.71115" pt_clust_5="39.57489" pt_clust_6="76.61853"></scales>
<clustering>
<clus scale="   39.575">  2  5  1 -1</clus>
<clus scale="   76.619">  1  6  2 -1</clus>
<clus scale="   87.711">  2  4  1 -1</clus>
<clus scale="   39.575">  2  3  1 -1</clus>
</clustering>
</event>
<event>
 6    0  0.6338511E+002  0.1285899E+03  0.7546771E-02  0.1229563E+00
         -4   -1    0    0    0  501 -0.00000000000E+00  0.00000000000E+00  0.11865495040E+03  0.11865495040E+03  0.00000000000E+00 0.  1.
         21   -1    0    0  504  502  0.00000000000E+00 -0.00000000000E+00 -0.84960740104E+03  0.84960740104E+03  0.00000000000E+00 0.  1.
         21    1    1    2  503  502 -0.10556561063E+03 -0.20108267977E+02 -0.65843035642E+03  0.66714239473E+03  0.00000000000E+00 0.  1.
         21    1    1    2  504  505  0.83661084766E+02  0.23084150024E+02 -0.60127163918E+02  0.10558092123E+03  0.00000000000E+00 0.  1.
         21    1    1    2  505  501  0.28680193070E+02  0.52611545644E+02 -0.84906517673E+02  0.10392134022E+03  0.00000000000E+00 0.  1.
         -4    1    1    2    0  503 -0.67756672047E+01 -0.55587427692E+02  0.72511587365E+02  0.91617695265E+02  0.00000000000E+00 0.  1.
<scales pt_clust_3="109.67828" pt_clust_4="55.77738" pt_clust_5="55.77738" pt_clust_6="55.99886"></scales>
<clustering>
<clus scale="   55.777">  4  5 -1 -1</clus>
<clus scale="   55.999">  1  6  2 -1</clus>
<clus scale="  109.678">  2  3  1 -1</clus>
<clus scale="  109.678">  2  3  1 -1</clus>
</clustering>
</event>
<event>
 6    0  0.6338511E+002  0.1835047E+03  0.7546771E-02  0.1164454E+00
         21   -1    0    0  503  502  0.00000000000E+00  0.00000000000E+00  0.24133196395E+03  0.24133196395E+03  0.00000000000E+00 0. -1.
          2   -1    0    0  505    0 -0.00000000000E+00 -0.00000000000E+00 -0.10528371100E+04  0.10528371100E+04  0.00000000000E+00 0. -1.
         21    1    1    2  503  501  0.13760853260E+03 -0.46611923110E+02 -0.33283400521E+03  0.36316284865E+03  0.00000000000E+00 0. -1.
         21    1    1    2  504  502 -0.11606476534E+03  0.62294254050E+02  0.13101458579E+03  0.18578596699E+03  0.00000000000E+00 0. -1.
         21    1    1    2  505  504 -0.54768649107E+02 -0.60332868613E+01  0.56043208278E+02  0.78592917426E+02  0.00000000000E+00 0. -1.
          2    1    1    2  501    0  0.33224881852E+02 -0.96490440780E+01 -0.66572893490E+03  0.66662734087E+03  0.00000000000E+00 0. -1.
<scales pt_clust_3="176.40219" pt_clust_4="32.69943" pt_clust_5="32.69943" pt_clust_6="34.59764"></scales>
<clustering>
<clus scale="   32.699">  4  5 -1 -1</clus>
<clus scale="   34.598">  2  6  1 -1</clus>
<clus scale="  176.402">  2  3  1 -1</clus>
<clus scale="  183.505">  1  3  2 -1</clus>
</clustering>
</event>
<event>
 6    0  0.6338511E+002  0.2800660E+03  0.7546771E-02  0.1095653E+00
          2   -1    0    0  504    0 -0.00000000000E+00  0.00000000000E+00  0.42251058816E+04  0.42251058816E+04  0.00000000000E+00 0.  1.
         21   -1    0    0  505  502  0.00000000000E+00 -0.00000000000E+00 -0.11533968851E+04  0.11533968851E+04  0.00000000000E+00 0.  1.
         21    1    1    2  503  502 -0.16180426465E+03  0.12870619828E+02 -0.10215884091E+04  0.10344027990E+04  0.00000000000E+00 0.  1.
         21    1    1    2  504  503  0.32685214364E+03  0.18866005583E+03  0.21773459498E+03  0.43569862786E+03  0.00000000000E+00 0. -1.
         21    1    1    2  505  501 -0.24149973591E+03 -0.21681725878E+03  0.16578745559E+04  0.16893430348E+04  0.00000000000E+00 0.  1.
          2    1    1    2  501    0  0.76451856927E+02  0.15286583120E+02  0.22176882548E+04  0.22190583051E+04  0.00000000000E+00 0.  1.
<scales pt_clust_3="162.07590" pt_clust_4="14000.00000" pt_clust_5="280.06596" pt_clust_6="77.96516"></scales>
<clustering>
<clus scale="   77.965">  1  6  2 -1</clus>
<clus scale="  162.076">  2  3  1 -1</clus>
<clus scale="  280.066">  1  5  2 -1</clus>
<clus scale="  162.076">  2  3  1 -1</clus>
</clustering>
</event>
<event>
 6    0  0.6338511E+002  0.1265242E+03  0.7546771E-02  0.1232706E+00
          2   -1    0    0  503    0 -0.00000000000E+00  0.00000000000E+00  0.14927847825E+04  0.14927847825E+04  0.00000000000E+00 0.  1.
         21   -1    0    0  505  502  0.00000000000E+00 -0.00000000000E+00 -0.29691096741E+03  0.29691096741E+03  0.00000000000E+00 0.  1.
         21    1    1    2  503  504  0.13945228408E+02  0.30552595693E+02  0.76472214409E+02  0.83522033474E+02  0.00000000000E+00 0. -1.
         21    1    1    2  504  502 -0.23823970684E+02 -0.16710027304E+03 -0.19409572085E+03  0.25722214462E+03  0.00000000000E+00 0.  1.
         21    1    1    2  505  501  0.83391741537E+00  0.88253304460E+02 -0.38337416505E+02  0.96224210418E+02  0.00000000000E+00 0.  1.
          2    1    1    2  501    0  0.90448248606E+01  0.48294372889E+02  0.13518347381E+04  0.13527273614E+04  0.00000000000E+00 0.  1.
<scales pt_clust_3="33.58468" pt_clust_4="126.52421" pt_clust_5="14000.00000" pt_clust_6="80.70720"></scales>
<clustering>
<clus scale="   33.585">  1  3  2 -1</clus>
<clus scale="   80.707">  1  6  2 -1</clus>
<clus scale="  126.524">  1  4  2 -1</clus>
<clus scale="  126.524">  2  3  1 -1</clus>
</clustering>
</event>
<event>
 6    0  0.6338511E+002  0.8326881E+02  0.7546771E-02  0.1320023E+00
         -3   -1    0    0    0  501 -0.00000000000E+00  0.00000000000E+00  0.10902290153E+04  0.10902290153E+04  0.00000000000E+00 0. -1.
         21   -1    0    0  505  502  0.00000000000E+00 -0.00000000000E+00 -0.54954602660E+02  0.54954602660E+02  0.00000000000E+00 0.  1.
         21    1    1    2  503  501 -0.35595782969E+02  0.60757627380E+02  0.19681726874E+03  0.20903489260E+03  0.00000000000E+00 0. -1.
         21    1    1    2  504  502  0.78845030313E+02 -0.63664804790E+02  0.42079288790E+03  0.43282375244E+03  0.00000000000E+00 0. -1.
         21    1    1    2  505  503 -0.26616325425E+02  0.52633961624E+02 -0.20190962859E+02  0.62341299927E+02  0.00000000000E+00 0.  1.
         -3    1    1    2    0  504 -0.16632921919E+02 -0.49726784214E+02  0.43785521882E+03  0.44098367295E+03  0.00000000000E+00 0. -1.
<scales pt_clust_3="83.26881" pt_clust_4="14000.00000" pt_clust_5="57.79970" pt_clust_6="52.43479"></scales>
<clustering>
<clus scale="   52.435">  1  6  2 -1</clus>
<clus scale="   57.800">  2  5  1 -1</clus>
<clus scale="   83.269">  1  3  2 -1</clus>
<clus scale="   57.800">  2  3  1 -1</clus>
</clustering>
</event>
<event>
 6    0  0.6338511E+002  0.6320593E+02  0.7546771E-02  0.1384850E+00
          2   -1    0    0  503    0 -0.00000000000E+00  0.00000000000E+00  0.19157120509E+04  0.19157120509E+04  0.00000000000E+00 0.  1.
         21   -1    0    0  505  502  0.00000000000E+00 -0.00000000000E+00 -0.12624706188E+04  0.12624706188E+04  0.00000000000E+00 0.  1.
         21    1    1    2  503  504  0.64781118790E+02  0.85761279428E+02  0.19904022135E+03  0.22620477474E+03  0.00000000000E+00 0.  1.
         21    1    1    2  504  502 -0.61318135333E+02 -0.57584790159E+02 -0.39646218236E+02  0.92993249211E+02  0.00000000000E+00 0.  1.
         21    1    1    2  505  501  0.36519342780E+02  0.82850595213E+01 -0.11818353181E+04  0.11824284433E+04  0.00000000000E+00 0.  1.
          2    1    1    2  501    0 -0.39982326237E+02 -0.36461548790E+02  0.16756827470E+04  0.16765562024E+04  0.00000000000E+00 0.  1.
<scales pt_clust_3="14000.00000" pt_clust_4="63.20593" pt_clust_5="37.44736" pt_clust_6="53.93434"></scales>
<clustering>
<clus scale="   37.447">  2  5  1 -1</clus>
<clus scale="   53.934">  1  6  2 -1</clus>
<clus scale="   63.206">  2  4  1 -1</clus>
<clus scale="   37.447">  2  3  1 -1</clus>
</clustering>
</event>
<event>
 6    0  0.6338511E+002  0.1013993E+03  0.7546771E-02  0.1277381E+00
          4   -1    0    0  503    0 -0.00000000000E+00  0.00000000000E+00  0.60710424647E+03  0.60710424647E+03  0.00000000000E+00 0.  1.
         21   -1    0    0  504  502  0.00000000000E+00 -0.00000000000E+00 -0.96171754680E+03  0.96171754680E+03  0.00000000000E+00 0.  1.
         21    1    1    2  503  505 -0.94382811090E+02 -0.27149842104E+02 -0.14629207355E+02  0.99293719154E+02  0.00000000000E+00 0.  1.
         21    1    1    2  504  501  0.49022672475E+02  0.86374578623E+02 -0.85991338403E+03  0.86562972354E+03  0.00000000000E+00 0.  1.
         21    1    1    2  505  502  0.29192006646E+02 -0.16254431795E+02 -0.34233889166E+02  0.47836586128E+02  0.00000000000E+00 0.  1.
          4    1    1    2  501    0  0.16168131969E+02 -0.42970304724E+02  0.55416318022E+03  0.55606176445E+03  0.00000000000E+00 0.  1.
<scales pt_clust_3="14000.00000" pt_clust_4="101.39935" pt_clust_5="33.41227" pt_clust_6="45.93768"></scales>
<clustering>
<clus scale="   33.412">  2  5  1 -1</clus>
<clus scale="   45.938">  1  6  2 -1</clus>
<clus scale="  101.399">  2  4  1 -1</clus>
<clus scale="   33.412">  2  3  1 -1</clus>
</clustering>
</event>
<event>
 6    0  0.6338511E+002  0.6854825E+02  0.7546771E-02  0.1365101E+00
          2   -1    0    0  503    0 -0.00000000000E+00  0.00000000000E+00  0.94920989054E+03  0.94920989054E+03  0.00000000000E+00 0.  1.
         21   -1    0    0  505  502  0.00000000000E+00 -0.00000000000E+00 -0.58706266678E+02  0.58706266678E+02  0.00000000000E+00 0. -1.
         21    1    1    2  503  504 -0.67565753411E+02 -0.44245176473E+02  0.19062752291E+03  0.20703047884E+03  0.00000000000E+00 0. -1.
         21    1    1    2  504  502  0.42392492763E+02  0.48921966343E+02  0.93445868904E+00  0.64740678453E+02  0.00000000000E+00 0. -1.
         21    1    1    2  505  501  0.31418430770E+02 -0.54931234978E+02  0.39150258361E+02  0.74413043870E+02  0.00000000000E+00 0. -1.
          2    1    1    2  501    0 -0.62451701220E+01  0.50254445108E+02  0.65979138390E+03  0.66173195606E+03  0.00000000000E+00 0.  1.
<scales pt_clust_3="14000.00000" pt_clust_4="68.54825" pt_clust_5="54.22038" pt_clust_6="50.64101"></scales>
<clustering>
<clus scale="   50.641">  1  6  2 -1</clus>
<clus scale="   54.220">  2  5  1 -1</clus>
<clus scale="   68.548">  2  4  1 -1</clus>
<clus scale="   54.220">  2  3  1 -1</clus>
</clustering>
</event>
<event>
 6    0  0.6338511E+002  0.8577394E+02  0.7546771E-02  0.1313421E+00
         -1   -1    0    0    0  501 -0.00000000000E+00  0.00000000000E+00  0.95241492382E+03  0.95241492382E+03  0.00000000000E+00 0. -1.
         21   -1    0    0  505  502  0.00000000000E+00 -0.00000000000E+00 -0.42886501497E+02  0.42886501497E+02  0.00000000000E+00 0. -1.
         21    1    1    2  503  502 -0.42637630982E+02 -0.34992974100E+02  0.96115398790E+02  0.11081807477E+03  0.00000000000E+00 0. -1.
         21    1    1    2  504  501  0.92004277761E+02 -0.23016085535E+02  0.25190040676E+03  0.26916229723E+03  0.00000000000E+00 0. -1.
         21    1    1    2  505  504  0.33790166399E+02  0.58001050865E+02  0.23806084934E+02  0.71222376586E+02  0.00000000000E+00 0. -1.
         -1    1    1    2    0  503 -0.83156813178E+02  0.80087700372E-02  0.53770653183E+03  0.54409867673E+03  0.00000000000E+00 0. -1.
<scales pt_clust_3="55.15864" pt_clust_4="14000.00000" pt_clust_5="35.06418" pt_clust_6="85.77394"></scales>
<clustering>
<clus scale="   55.159">  2  3  1 -1</clus>
<clus scale="   35.064">  2  5  1 -1</clus>
<clus scale="   85.774">  1  6  2 -1</clus>
<clus scale="   55.159">  2  3  1 -1</clus>
</clustering>
</event>
<event>
 6    0  0.6338511E+002  0.1493546E+03  0.7546771E-02  0.1201268E+00
          2   -1    0    0  503    0 -0.00000000000E+00  0.00000000000E+00  0.19850051851E+04  0.19850051851E+04  0.00000000000E+00 0. -1.
         21   -1    0    0  505  502  0.00000000000E+00 -0.00000000000E+00 -0.97209740828E+02  0.97209740828E+02  0.00000000000E+00 0.  1.
         21    1    1    2  503  502 -0.14802825888E+03  0.68968299046E+02  0.86512634784E+02  0.18480646006E+03  0.00000000000E+00 0.  1.
         21    1    1    2  504  501  0.86215379543E+02 -0.17942249816E+02  0.16758480780E+02  0.89642973380E+02  0.00000000000E+00 0.  1.
         21    1    1    2  505  504  0.27816501053E+02 -0.33485530285E+02  0.30101822748E+02  0.52925969071E+02  0.00000000000E+00 0.  1.
          2    1    1    2  501    0  0.33996378287E+02 -0.17540518944E+02  0.17544225060E+04  0.17548395234E+04  0.00000000000E+00 0. -1.
<scales pt_clust_3="140.80076" pt_clust_4="35.02705" pt_clust_5="35.02705" pt_clust_6="38.25472"></scales>
<clustering>
<clus scale="   35.027">  4  5 -1 -1</clus>
<clus scale="   38.255">  1  6  2 -1</clus>
<clus scale="  140.801">  1  3  2 -1</clus>
<clus scale="  149.355">  2  3  1 -1</clus>
</clustering>
</event>
<event>
 6    0  0.6338511E+002  0.1034622E+03  0.7546771E-02  0.1273179E+00
         21   -1    0    0  503  502  0.00000000000E+00  0.00000000000E+00  0.44077010666E+03  0.44077010666E+03  0.00000000000E+00 0.  1.
          1   -1    0    0  505    0 -0.00000000000E+00 -0.00000000000E+00 -0.17266332993E+04  0.17266332993E+04  0.00000000000E+00 0.  1.
         21    1    1    2  503  501 -0.58044995887E+02 -0.57180295366E+02 -0.58628030093E+02  0.10037954791E+03  0.00000000000E+00 0.  1.
         21    1    1    2  504  502  0.93049554627E+02  0.49849124968E+02  0.41233845080E+03  0.42563617432E+03  0.00000000000E+00 0.  1.
         21    1    1    2  505  504 -0.12316335647E+02 -0.30169669339E+02 -0.81300857462E+03  0.81366138133E+03  0.00000000000E+00 0.  1.
          1    1    1    2  501    0 -0.22688223094E+02  0.37500839738E+02 -0.82656503874E+03  0.82772630242E+03  0.00000000000E+00 0.  1.
<scales pt_clust_3="103.46224" pt_clust_4="14000.00000" pt_clust_5="32.58682" pt_clust_6="35.33985"></scales>
<clustering>
<clus scale="   32.587">  2  5  1 -1</clus>
<clus scale="   35.340">  2  6  1 -1</clus>
<clus scale="  103.462">  2  3  1 -1</clus>
<clus scale="  103.462">  1  3  2 -1</clus>
</clustering>
</event>
<event>
 6    0  0.6338511E+002  0.1378323E+03  0.7546771E-02  0.1216276E+00
         21   -1    0    0  505  502  0.00000000000E+00  0.00000000000E+00  0.69277094100E+02  0.69277094100E+02  0.00000000000E+00 0.  1.
          1   -1    0    0  502    0 -0.00000000000E+00 -0.00000000000E+00 -0.10118207265E+04  0.10118207265E+04  0.00000000000E+00 0. -1.
         21    1    1    2  503  501 -0.30128056175E+02 -0.84239876350E+02 -0.41680905320E+03  0.42630252564E+03  0.00000000000E+00 0. -1.
         21    1    1    2  504  503 -0.13129763815E+02  0.12631563996E+03 -0.11368721192E+03  0.17044885963E+03  0.00000000000E+00 0.  1.
         21    1    1    2  505  504  0.54339853545E+02 -0.16898714339E+01  0.14085098736E+02  0.56161066186E+02  0.00000000000E+00 0.  1.
          1    1    1    2  501    0 -0.11082033555E+02 -0.40385892176E+02 -0.42613246600E+03  0.42818536913E+03  0.00000000000E+00 0. -1.
<scales pt_clust_3="33.30273" pt_clust_4="128.95135" pt_clust_5="54.36612" pt_clust_6="33.30273"></scales>
<clustering>
<clus scale="   33.303">  3  6 -1 -1</clus>
<clus scale="   54.366">  1  5  2 -1</clus>
<clus scale="  128.951">  1  4  2 -1</clus>
<clus scale="   54.366">  1  3  2 -1</clus>
</clustering>
</event>
<event>
 6    0  0.6338511E+002  0.2259019E+03  0.7546771E-02  0.1129558E+00
          1   -1    0    0  503    0 -0.00000000000E+00  0.00000000000E+00  0.29051816283E+04  0.29051816283E+04  0.00000000000E+00 0.  1.
         21   -1    0    0  504  502  0.00000000000E+00 -0.00000000000E+00 -0.80435100002E+02  0.80435100002E+02  0.00000000000E+00 0.  1.
         21    1    1    2  503  505  0.25403559274E+03 -0.65335665556E+02  0.60650259539E+03  0.66079363631E+03  0.00000000000E+00 0.  1.
         21    1    1    2  504  501 -0.27370659800E+02  0.18924972899E+02  0.84295652863E+02  0.90625960457E+02  0.00000000000E+00 0. -1.
         21    1    1    2  505  502 -0.17293061395E+03  0.89656513045E+02  0.14199884315E+03  0.24105385089E+03  0.00000000000E+00 0.  1.
          1    1    1    2  501    0 -0.53734318991E+02 -0.43245820388E+02  0.19919494369E+04  0.19931432807E+04  0.00000000000E+00 0.  1.
<scales pt_clust_3="14000.00000" pt_clust_4="33.27623" pt_clust_5="225.90194" pt_clust_6="69.04870"></scales>
<clustering>
<clus scale="   33.276">  2  4  1 -1</clus>
<clus scale="   69.049">  1  6  2 -1</clus>
<clus scale="  225.902">  2  5  1 -1</clus>
<clus scale="   33.276">  2  3  1 -1</clus>
</clustering>
</event>
<event>
 6    0  0.6338511E+002  0.8721234E+02  0.7546771E-02  0.1309746E+00
         21   -1    0    0  503  502  0.00000000000E+00  0.00000000000E+00  0.47291318893E+02  0.47291318893E+02  0.00000000000E+00 0. -1.
          2   -1    0    0  504    0 -0.00000000000E+00 -0.00000000000E+00 -0.24992590148E+04  0.24992590148E+04  0.00000000000E+00 0.  1.
         21    1    1    2  503  501  0.20289482684E+02  0.35513018375E+02 -0.74994175717E+02  0.85422268602E+02  0.00000000000E+00 0.  1.
         21    1    1    2  504  505 -0.73271223502E+02 -0.11303904440E+03 -0.26597741289E+03  0.29814506859E+03  0.00000000000E+00 0. -1.
         21    1    1    2  505  502  0.36452640305E+02  0.31386291094E+02  0.32090085069E+01  0.48209874397E+02  0.00000000000E+00 0. -1.
          2    1    1    2  501    0  0.16529100514E+02  0.46139734931E+02 -0.21142051158E+04  0.21147731221E+04  0.00000000000E+00 0.  1.
<scales pt_clust_3="40.90034" pt_clust_4="14000.00000" pt_clust_5="87.21234" pt_clust_6="49.28295"></scales>
<clustering>
<clus scale="   40.900">  1  3  2 -1</clus>
<clus scale="   49.283">  2  6  1 -1</clus>
<clus scale="   87.212">  1  5  2 -1</clus>
<clus scale="   40.900">  1  3  2 -1</clus>
</clustering>
</event>
<event>
 6    0  0.6338511E+002  0.8384892E+02  0.7546771E-02  0.1318470E+00
         21   -1    0    0  503  502  0.00000000000E+00  0.00000000000E+00  0.12702533867E+03  0.12702533867E+03  0.00000000000E+00 0.  1.
          2   -1    0    0  504    0 -0.00000000000E+00 -0.00000000000E+00 -0.15675304627E+04  0.15675304627E+04  0.00000000000E+00 0.  1.
         21    1    1    2  503  501  0.45076324030E+02  0.96894977720E+02  0.76608294305E+02  0.13148894422E+03  0.00000000000E+00 0.  1.
         21    1    1    2  504  505  0.87547063889E+02 -0.36637050825E+02 -0.82675367787E+03  0.83218291605E+03  0.00000000000E+00 0.  1.
         21    1    1    2  505  502 -0.52707695170E+02 -0.30301184948E+02 -0.35328638832E+02  0.70316254601E+02  0.00000000000E+00 0. -1.
          2    1    1    2  501    0 -0.79915692749E+02 -0.29956741947E+02 -0.65503110163E+03  0.66056768650E+03  0.00000000000E+00 0.  1.
<scales pt_clust_3="68.29337" pt_clust_4="14000.00000" pt_clust_5="60.79690" pt_clust_6="83.84892"></scales>
<clustering>
<clus scale="   60.797">  1  5  2 -1</clus>
<clus scale="   68.293">  1  3  2 -1</clus>
<clus scale="   83.849">  1  6  2 -1</clus>
<clus scale="   60.797">  1  3  2 -1</clus>
</clustering>
</event>
<event>
 6    0  0.6338511E+002  0.1099145E+03  0.7546771E-02  0.1260728E+00
         21   -1    0    0  503  502  0.00000000000E+00  0.00000000000E+00  0.29079905911E+03  0.29079905911E+03  0.00000000000E+00 0.  1.
          4   -1    0    0  504    0 -0.00000000000E+00 -0.00000000000E+00 -0.30704377772E+03  0.30704377772E+03  0.00000000000E+00 0.  1.
         21    1    1    2  503  505  0.80111903589E+02 -0.63853976134E+02 -0.29754735032E+02  0.10667985574E+03  0.00000000000E+00 0.  1.
         21    1    1    2  504  502 -0.99534683503E+02  0.50657100027E+02  0.22579738370E+03  0.25190822434E+03  0.00000000000E+00 0.  1.
         21    1    1    2  505  501  0.11814110773E+01  0.51805510680E+02 -0.52132701229E+02  0.73505273324E+02  0.00000000000E+00 0.  1.
          4    1    1    2  501    0  0.18241368837E+02 -0.38608634574E+02 -0.16015466604E+03  0.16574948342E+03  0.00000000000E+00 0.  1.
<scales pt_clust_3="109.91451" pt_clust_4="14000.00000" pt_clust_5="36.14657" pt_clust_6="42.70099"></scales>
<clustering>
<clus scale="   42.701">  2  6  1 -1</clus>
<clus scale="   36.147">  2  5  1 -1</clus>
<clus scale="  109.915">  2  3  1 -1</clus>
<clus scale="  109.915">  1  3  2 -1</clus>
</clustering>
</event>
<event>
 6    0  0.6338511E+002  0.9048321E+02  0.7546771E-02  0.1301686E+00
         21   -1    0    0  504  502  0.00000000000E+00  0.00000000000E+00  0.38432199972E+03  0.38432199972E+03  0.00000000000E+00 0. -1.
          1   -1    0    0  503    0 -0.00000000000E+00 -0.00000000000E+00 -0.55765186059E+03  0.55765186059E+03  0.00000000000E+00 0. -1.
         21    1    1    2  503  505  0.47614505792E+02  0.11088662037E+03 -0.13096673995E+02  0.12138577597E+03  0.00000000000E+00 0.  1.
         21    1    1    2  504  501  0.54024352384E+02 -0.54207873478E+02  0.18198559115E+03  0.19742309790E+03  0.00000000000E+00 0.  1.
         21    1    1    2  505  502 -0.74968702011E+02 -0.34147951592E+02  0.12769182925E+03  0.15195917918E+03  0.00000000000E+00 0. -1.
          1    1    1    2  501    0 -0.26670156165E+02 -0.22530795297E+02 -0.46991060728E+03  0.47120580726E+03  0.00000000000E+00 0. -1.
<scales pt_clust_3="90.48321" pt_clust_4="76.33998" pt_clust_5="14000.00000" pt_clust_6="34.91323"></scales>
<clustering>
<clus scale="   34.913">  2  6  1 -1</clus>
<clus scale="   76.340">  1  4  2 -1</clus>
<clus scale="   90.483">  2  3  1 -1</clus>
<clus scale="   76.340">  1  3  2 -1</clus>
</clustering>
</event>
<event>
 6    0  0.6338511E+002  0.1040279E+03  0.7546771E-02  0.1272047E+00
         21   -1    0    0  505  502  0.00000000000E+00  0.00000000000E+00  0.17123299684E+03  0.17123299684E+03  0.00000000000E+00 0.  1.
          2   -1    0    0  503    0 -0.00000000000E+00 -0.00000000000E+00 -0.24562967845E+04  0.24562967845E+04  0.00000000000E+00 0.  1.
         21    1    1    2  503  504  0.42185795255E+01  0.64014003634E+02 -0.77222114967E+03  0.77488134129E+03  0.00000000000E+00 0.  1.
         21    1    1    2  504  502  0.36932002062E+02 -0.58168210937E+02 -0.14392505919E+02  0.70389329919E+02  0.00000000000E+00 0.  1.
         21    1    1    2  505  501 -0.64251482716E+02  0.11136993427E+03  0.11010297278E+03  0.16927545571E+03  0.00000000000E+00 0.  1.
          2    1    1    2  501    0  0.23100901129E+02 -0.11721572697E+03 -0.16085531049E+04  0.16129836545E+04  0.00000000000E+00 0.  1.
<scales pt_clust_3="64.15286" pt_clust_4="14000.00000" pt_clust_5="104.02789" pt_clust_6="62.17550"></scales>
<clustering>
<clus scale="   64.153">  2  3  1 -1</clus>
<clus scale="   62.175">  2  6  1 -1</clus>
<clus scale="  104.028">  1  5  2 -1</clus>
<clus scale="  104.028">  1  3  2 -1</clus>
</clustering>
</event>
<event>
 6    0  0.6338511E+002  0.8260405E+02  0.7546771E-02  0.1321820E+00
          1   -1    0    0  503    0 -0.00000000000E+00  0.00000000000E+00  0.43220523614E+03  0.43220523614E+03  0.00000000000E+00 0. -1.
         21   -1    0    0  505  502  0.00000000000E+00 -0.00000000000E+00 -0.51887855858E+03  0.51887855858E+03  0.00000000000E+00 0. -1.
         21    1    1    2  503  502  0.56506779997E+02  0.65566525919E+02 -0.10630744704E+03  0.13708850719E+03  0.00000000000E+00 0. -1.
         21    1    1    2  504  501 -0.61086131269E+02  0.91165055492E+01 -0.10461794115E+03  0.12148884606E+03  0.00000000000E+00 0.  1.
         21    1    1    2  505  504 -0.28103478665E+02 -0.77720253406E+02 -0.27743371962E+03  0.28948179923E+03  0.00000000000E+00 0. -1.
          1    1    1    2  501    0  0.32682829936E+02  0.30372219370E+01  0.40168578537E+03  0.40302464225E+03  0.00000000000E+00 0. -1.
<scales pt_clust_3="82.60405" pt_clust_4="52.80089" pt_clust_5="14000.00000" pt_clust_6="32.82365"></scales>
<clustering>
<clus scale="   32.824">  1  6  2 -1</clus>
<clus scale="   52.801">  1  4  2 -1</clus>
<clus scale="   82.604">  1  3  2 -1</clus>
<clus scale="   82.604">  2  3  1 -1</clus>
</clustering>
</event>
<event>
 6    0  0.6338511E+002  0.3519230E+03  0.7546771E-02  0.1061829E+00
          2   -1    0    0  502    0 -0.00000000000E+00  0.00000000000E+00  0.98888834262E+03  0.98888834262E+03  0.00000000000E+00 0.  1.
         21   -1    0    0  505  502  0.00000000000E+00 -0.00000000000E+00 -0.10491771107E+04  0.10491771107E+04  0.00000000000E+00 0. -1.
         21    1    1    2  503  501  0.18005966246E+03 -0.19807633475E+03  0.29007492434E+03  0.39471404607E+03  0.00000000000E+00 0. -1.
         21    1    1    2  504  503 -0.23189823955E+03  0.27912428315E+03 -0.66118496054E+03  0.75422325010E+03  0.00000000000E+00 0. -1.
         21    1    1    2  505  504  0.26045749354E+02  0.21357455315E+02 -0.28350184267E+03  0.28549573859E+03  0.00000000000E+00 0. -1.
          2    1    1    2  501    0  0.25792827733E+02 -0.10240540371E+03  0.59432311082E+03  0.60363241855E+03  0.00000000000E+00 0.  1.
<scales pt_clust_3="14000.00000" pt_clust_4="351.92302" pt_clust_5="33.68267" pt_clust_6="105.51650"></scales>
<clustering>
<clus scale="   33.683">  2  5  1 -1</clus>
<clus scale="  105.516">  1  6  2 -1</clus>
<clus scale="  351.923">  2  4  1 -1</clus>
<clus scale="   33.683">  2  3  1 -1</clus>
</clustering>
</event>
<event>
 6    0  0.6338511E+002  0.9153127E+02  0.7546771E-02  0.1299185E+00
          3   -1    0    0  503    0 -0.00000000000E+00  0.00000000000E+00  0.45556457915E+03  0.45556457915E+03  0.00000000000E+00 0.  1.
         21   -1    0    0  504  502  0.00000000000E+00 -0.00000000000E+00 -0.12230179202E+03  0.12230179202E+03  0.00000000000E+00 0.  1.
         21    1    1    2  503  502 -0.66866708555E+02  0.73727150693E+02 -0.60135330513E+02  0.11628889645E+03  0.00000000000E+00 0.  1.
         21    1    1    2  504  505  0.21805120819E+02 -0.76721393315E+02  0.37653834799E+02  0.88201172108E+02  0.00000000000E+00 0.  1.
         21    1    1    2  505  501  0.33787615984E+02  0.44338848494E+02  0.10388023606E+03  0.11789249307E+03  0.00000000000E+00 0.  1.
          3    1    1    2  501    0  0.11273971752E+02 -0.41344605871E+02  0.25186404678E+03  0.25548380954E+03  0.00000000000E+00 0.  1.
<scales pt_clust_3="14000.00000" pt_clust_4="91.53127" pt_clust_5="45.45622" pt_clust_6="42.85416"></scales>
<clustering>
<clus scale="   42.854">  1  6  2 -1</clus>
<clus scale="   45.456">  1  5  2 -1</clus>
<clus scale="   91.531">  1  4  2 -1</clus>
<clus scale="   91.531">  2  3  1 -1</clus>
</clustering>
</event>
<event>
 6    0  0.6338511E+002  0.2244436E+03  0.7546771E-02  0.1130613E+00
         21   -1    0    0  504  502  0.00000000000E+00  0.00000000000E+00  0.85721042019E+03  0.85721042019E+03  0.00000000000E+00 0. -1.
          1   -1    0    0  503    0 -0.00000000000E+00 -0.00000000000E+00 -0.80942623636E+03  0.80942623636E+03  0.00000000000E+00 0.  1.
         21    1    1    2  503  505  0.62754414572E+02 -0.66161580321E+02  0.65490894729E+02  0.11226989156E+03  0.00000000000E+00 0.  1.
         21    1    1    2  504  501  0.89832534686E+02  0.22884749707E+03  0.51985493644E+02  0.25128380918E+03  0.00000000000E+00 0.  1.
         21    1    1    2  505  502  0.48872058865E+02 -0.55173762851E+02  0.59536735202E+03  0.59991241535E+03  0.00000000000E+00 0. -1.
          1    1    1    2  501    0 -0.20145900812E+03 -0.10751215390E+03 -0.66505955656E+03  0.70317054045E+03  0.00000000000E+00 0.  1.
<scales pt_clust_3="116.41576" pt_clust_4="224.44365" pt_clust_5="73.70632" pt_clust_6="14000.00000"></scales>
<clustering>
<clus scale="   73.706">  1  5  2 -1</clus>
<clus scale="  116.416">  1  3  2 -1</clus>
<clus scale="  224.444">  1  4  2 -1</clus>
<clus scale="   73.706">  1  3  2 -1</clus>
</clustering>
</event>
<event>
 6    0  0.6338511E+002  0.3148408E+03  0.7546771E-02  0.1078049E+00
          1   -1    0    0  502    0 -0.00000000000E+00  0.00000000000E+00  0.25060887779E+04  0.25060887779E+04  0.00000000000E+00 0. -1.
         21   -1    0    0  505  502  0.00000000000E+00 -0.00000000000E+00 -0.24001044777E+03  0.24001044777E+03  0.00000000000E+00 0.  1.
         21    1    1    2  503  501  0.49762608698E+02 -0.15914321223E+01  0.11102673986E+02  0.51010971862E+02  0.00000000000E+00 0.  1.
         21    1    1    2  504  503  0.13665102482E+03 -0.12090935379E+03 -0.37691400925E+01  0.18250145434E+03  0.00000000000E+00 0.  1.
         21    1    1    2  505  504 -0.22930141769E+02 -0.14937707545E+03 -0.66994236945E+02  0.16531040456E+03  0.00000000000E+00 0.  1.
          1    1    1    2  501    0 -0.16348349175E+03  0.27187786137E+03  0.23257390332E+04  0.23472763949E+04  0.00000000000E+00 0. -1.
<scales pt_clust_3="35.87938" pt_clust_4="35.87938" pt_clust_5="151.12677" pt_clust_6="307.25715"></scales>
<clustering>
<clus scale="   35.879">  3  4 -1 -1</clus>
<clus scale="  151.127">  2  5  1 -1</clus>
<clus scale="  307.257">  1  6  2 -1</clus>
<clus scale="  151.127">  2  3  1 -1</clus>
</clustering>
</event>
<event>
 6    0  0.6338511E+002  0.1876725E+03  0.7546771E-02  0.1160578E+00
         21   -1    0    0  505  502  0.00000000000E+00  0.00000000000E+00  0.82410538933E+02  0.82410538933E+02  0.00000000000E+00 0.  1.
          2   -1    0    0  503    0 -0.00000000000E+00 -0.00000000000E+00 -0.24492829044E+04  0.24492829044E+04  0.00000000000E+00 0. -1.
         21    1    1    2  503  502  0.27866226693E+02 -0.15596829826E+02 -0.11131212215E+03  0.11580231529E+03  0.00000000000E+00 0. -1.
         21    1    1    2  504  501 -0.63063107332E+02  0.11821743066E+03 -0.11373527241E+04  0.11452176804E+04  0.00000000000E+00 0. -1.
         21    1    1    2  505  504  0.45943329231E+02 -0.16610989446E+03 -0.23346517443E+02  0.17392051752E+03  0.00000000000E+00 0.  1.
          2    1    1    2  501    0 -0.10746448593E+02  0.63489293626E+02 -0.10948610018E+04  0.10967529302E+04  0.00000000000E+00 0. -1.
<scales pt_clust_3="31.93411" pt_clust_4="49.07138" pt_clust_5="173.29755" pt_clust_6="49.07138"></scales>
<clustering>
<clus scale="   31.934">  2  3  1 -1</clus>
<clus scale="   49.071">  4  6 -1 -1</clus>
<clus scale="  173.298">  1  5  2 -1</clus>
<clus scale="  173.298">  1  3  2 -1</clus>
</clustering>
</event>
<event>
 6    0  0.6338511E+002  0.6177239E+02  0.7546771E-02  0.1390541E+00
          1   -1    0    0  503    0 -0.00000000000E+00  0.00000000000E+00  0.12648272862E+04  0.12648272862E+04  0.00000000000E+00 0.  1.
         21   -1    0    0  505  502  0.00000000000E+00 -0.00000000000E+00 -0.12112032722E+03  0.12112032722E+03  0.00000000000E+00 0.  1.
         21    1    1    2  503  502 -0.68981661086E+02 -0.77432130491E+02  0.18850940342E+03  0.21515110870E+03  0.00000000000E+00 0.  1.
         21    1    1    2  504  501  0.35314978166E+02  0.38333329754E+02  0.35539277150E+03  0.35919439568E+03  0.00000000000E+00 0.  1.
         21    1    1    2  505  504  0.52823244294E+01  0.60558983009E+02 -0.96683228441E+02  0.11420569179E+03  0.00000000000E+00 0.  1.
          1    1    1    2  501    0  0.28384358490E+02 -0.21460182272E+02  0.69648801250E+03  0.69739641725E+03  0.00000000000E+00 0.  1.
<scales pt_clust_3="14000.00000" pt_clust_4="58.68568" pt_clust_5="61.77239" pt_clust_6="35.58386"></scales>
<clustering>
<clus scale="   35.584">  1  6  2 -1</clus>
<clus scale="   58.686">  1  4  2 -1</clus>
<clus scale="   61.772">  2  5  1 -1</clus>
<clus scale="   61.772">  2  3  1 -1</clus>
</clustering>
</event>
<event>
 6    0  0.6338511E+002  0.8234959E+02  0.7546771E-02  0.1322513E+00
         -1   -1    0    0    0  501 -0.00000000000E+00  0.00000000000E+00  0.51250179021E+03  0.51250179021E+03  0.00000000000E+00 0. -1.
         21   -1    0    0  503  502  0.00000000000E+00 -0.00000000000E+00 -0.66732781183E+03  0.66732781183E+03  0.00000000000E+00 0. -1.
         21    1    1    2  503  505  0.33004374679E+02  0.10801635125E+02 -0.29971881946E+02  0.45872407575E+02  0.00000000000E+00 0.  1.
         21    1    1    2  504  502 -0.65857150165E+02  0.64250059028E+02 -0.60836404444E+03  0.61528208562E+03  0.00000000000E+00 0. -1.
         21    1    1    2  505  501  0.37030744718E+02  0.31313015203E+02  0.40883656094E+02  0.63429128254E+02  0.00000000000E+00 0. -1.
         -1    1    1    2    0  504 -0.41779692329E+01 -0.10636470936E+03  0.44262624868E+03  0.45524598059E+03  0.00000000000E+00 0. -1.
<scales pt_clust_3="34.72699" pt_clust_4="82.34959" pt_clust_5="49.07201" pt_clust_6="14000.00000"></scales>
<clustering>
<clus scale="   34.727">  2  3  1 -1</clus>
<clus scale="   49.072">  1  5  2 -1</clus>
<clus scale="   82.350">  2  4  1 -1</clus>
<clus scale="   34.727">  2  3  1 -1</clus>
</clustering>
</event>
<event>
 6    0  0.6338511E+002  0.1452074E+03  0.7546771E-02  0.1206489E+00
         21   -1    0    0  501  502  0.00000000000E+00  0.00000000000E+00  0.12613449261E+04  0.12613449261E+04  0.00000000000E+00 0.  1.
          1   -1    0    0  503    0 -0.00000000000E+00 -0.00000000000E+00 -0.37129086743E+03  0.37129086743E+03  0.00000000000E+00 0. -1.
         21    1    1    2  503  504 -0.48989102155E+02 -0.72641155589E+02 -0.33237019402E+03  0.34372462159E+03  0.00000000000E+00 0. -1.
         21    1    1    2  504  505  0.64053501504E+02  0.14128640535E+02  0.31860832695E+03  0.32529023277E+03  0.00000000000E+00 0.  1.
         21    1    1    2  505  502  0.69602606428E+02 -0.23519246385E+02  0.80901278640E+03  0.81234190236E+03  0.00000000000E+00 0.  1.
          1    1    1    2  501    0 -0.84667005777E+02  0.82031761439E+02  0.94803139366E+02  0.15127903683E+03  0.00000000000E+00 0. -1.
<scales pt_clust_3="87.61661" pt_clust_4="64.95240" pt_clust_5="64.95240" pt_clust_6="127.90549"></scales>
<clustering>
<clus scale="   64.952">  4  5 -1 -1</clus>
<clus scale="   87.617">  2  3  1 -1</clus>
<clus scale="  127.905">  2  6  1 -1</clus>
<clus scale="  145.207">  1  3  2 -1</clus>
</clustering>
</event>
<event>
 6    0  0.6338511E+002  0.1356108E+03  0.7546771E-02  0.1219360E+00
         21   -1    0    0  503  502  0.00000000000E+00  0.00000000000E+00  0.51942704697E+03  0.51942704697E+03  0.00000000000E+00 0.  1.
          2   -1    0    0  505    0 -0.00000000000E+00 -0.00000000000E+00 -0.36932606633E+03  0.36932606633E+03  0.00000000000E+00 0.  1.
         21    1    1    2  503  504 -0.60478388129E+01  0.39315094641E+02  0.14934564926E+03  0.15455217881E+03  0.00000000000E+00 0.  1.
         21    1    1    2  504  501  0.14672220852E+03 -0.75069455229E+02  0.29515552284E+03  0.33805267673E+03  0.00000000000E+00 0.  1.
         21    1    1    2  505  502 -0.74133631359E+02  0.74404446339E+02 -0.14700553373E+02  0.10605622661E+03  0.00000000000E+00 0.  1.
          2    1    1    2  501    0 -0.66540738350E+02 -0.38650085751E+02 -0.27969963809E+03  0.29009203115E+03  0.00000000000E+00 0.  1.
<scales pt_clust_3="39.77754" pt_clust_4="14000.00000" pt_clust_5="135.61085" pt_clust_6="76.74779"></scales>
<clustering>
<clus scale="   39.778">  1  3  2 -1</clus>
<clus scale="   76.748">  2  6  1 -1</clus>
<clus scale="  135.611">  2  5  1 -1</clus>
<clus scale="   39.778">  1  3  2 -1</clus>
</clustering>
</event>
<event>
 6    0  0.6338511E+002  0.9475906E+02  0.7546771E-02  0.1291720E+00
          1   -1    0    0  503    0 -0.00000000000E+00  0.00000000000E+00  0.23741392393E+04  0.23741392393E+04  0.00000000000E+00 0. -1.
         21   -1    0    0  505  502  0.00000000000E+00 -0.00000000000E+00 -0.61881354264E+02  0.61881354264E+02  0.00000000000E+00 0. -1.
         21    1    1    2  503  502 -0.70381161341E+02  0.43204477787E+01  0.37494359856E+03  0.38151654780E+03  0.00000000000E+00 0. -1.
         21    1    1    2  504  501  0.60416331441E+02  0.44358713201E+02  0.64500512530E+02  0.98884501607E+02  0.00000000000E+00 0.  1.
         21    1    1    2  505  504  0.48866643952E+02  0.40048348128E+02 -0.15312059311E+02  0.65009831866E+02  0.00000000000E+00 0. -1.
          1    1    1    2  501    0 -0.38901814052E+02 -0.88727509108E+02  0.18881258333E+04  0.18906097123E+04  0.00000000000E+00 0. -1.
<scales pt_clust_3="63.83681" pt_clust_4="94.75906" pt_clust_5="63.18084" pt_clust_6="14000.00000"></scales>
<clustering>
<clus scale="   63.181">  2  5  1 -1</clus>
<clus scale="   63.837">  2  3  1 -1</clus>
<clus scale="   94.759">  2  4  1 -1</clus>
<clus scale="   63.181">  2  3  1 -1</clus>
</clustering>
</event>
<event>
 6    0  0.6338511E+002  0.7925882E+02  0.7546771E-02  0.1331168E+00
         21   -1    0    0  503  502  0.00000000000E+00  0.00000000000E+00  0.69799041673E+03  0.69799041673E+03  0.00000000000E+00 0. -1.
         -3   -1    0    0    0  501 -0.00000000000E+00 -0.00000000000E+00 -0.10363955614E+04  0.10363955614E+04  0.00000000000E+00 0.  1.
         21    1    1    2  503  505  0.50955759480E+02  0.10275727882E+02  0.67798095125E+03  0.67997077162E+03  0.00000000000E+00 0. -1.
         21    1    1    2  504  502 -0.43125957406E+02 -0.32568043024E+02 -0.58965071818E+02  0.79983781626E+02  0.00000000000E+00 0.  1.
         21    1    1    2  505  501 -0.83313228578E+02  0.32753567433E+02 -0.31394663992E+03  0.32646038497E+03  0.00000000000E+00 0.  1.
         -3    1    1    2    0  504  0.75483426504E+02 -0.10461252290E+02 -0.64347438417E+03  0.64797103990E+03  0.00000000000E+00 0.  1.
<scales pt_clust_3="51.98154" pt_clust_4="30.77143" pt_clust_5="14000.00000" pt_clust_6="79.25882"></scales>
<clustering>
<clus scale="   51.982">  1  3  2 -1</clus>
<clus scale="   30.771">  1  4  2 -1</clus>
<clus scale="   79.259">  2  6  1 -1</clus>
<clus scale="   51.982">  1  3  2 -1</clus>
</clustering>
</event>
<event>
 6    0  0.7074630E+002  0.8411662E+02  0.7546771E-02  0.1317759E+00
         21   -1    0    0  503  502  0.00000000000E+00  0.00000000000E+00  0.43408129331E+03  0.43408129331E+03  0.00000000000E+00 0. -1.
          1   -1    0    0  505    0 -0.00000000000E+00 -0.00000000000E+00 -0.13338161038E+04  0.13338161038E+04  0.00000000000E+00 0. -1.
         21    1    1    2  503  501 -0.43518916832E+02 -0.23898518727E+02 -0.37542349760E+02  0.62245187325E+02  0.00000000000E+00 0. -1.
         21    1    1    2  504  502  0.30662755350E+02  0.56713813833E+01  0.36572077631E+03  0.36704775623E+03  0.00000000000E+00 0. -1.
         21    1    1    2  505  504  0.85366671548E+02 -0.24310748107E+02  0.17405622277E+02  0.90451295025E+02  0.00000000000E+00 0.  1.
          1    1    1    2  501    0 -0.72510510066E+02  0.42537885451E+02 -0.12453188594E+04  0.12481531586E+04  0.00000000000E+00 0. -1.
<scales pt_clust_3="44.28336" pt_clust_4="31.18283" pt_clust_5="14000.00000" pt_clust_6="84.11662"></scales>
<clustering>
<clus scale="   31.183">  1  4  2 -1</clus>
<clus scale="   44.283">  1  3  2 -1</clus>
<clus scale="   84.117">  2  6  1 -1</clus>
<clus scale="   31.183">  1  3  2 -1</clus>
</clustering>
</event>
<event>
 6    0  0.6338511E+002  0.7654271E+02  0.7546771E-02  0.1339159E+00
         21   -1    0    0  504  502  0.00000000000E+00  0.00000000000E+00  0.12616812181E+03  0.12616812181E+03  0.00000000000E+00 0. -1.
          2   -1    0    0  505    0 -0.00000000000E+00 -0.00000000000E+00 -0.10042648900E+04  0.10042648900E+04  0.00000000000E+00 0. -1.
         21    1    1    2  503  501  0.99290622234E+02  0.23289858317E+02 -0.11695451674E+03  0.15517539802E+03  0.00000000000E+00 0. -1.
         21    1    1    2  504  503 -0.12823454990E+02 -0.68217306305E+02  0.83023562228E+02  0.10821716020E+03  0.00000000000E+00 0. -1.
         21    1    1    2  505  502 -0.42623850714E+02  0.18492398713E+02 -0.40180214121E+02  0.61426468779E+02  0.00000000000E+00 0. -1.
          2    1    1    2  501    0 -0.43843316529E+02  0.26435049275E+02 -0.80398559955E+03  0.80561398481E+03  0.00000000000E+00 0. -1.
<scales pt_clust_3="76.54271" pt_clust_4="14000.00000" pt_clust_5="46.46247" pt_clust_6="51.52069"></scales>
<clustering>
<clus scale="   46.462">  1  5  2 -1</clus>
<clus scale="   51.521">  2  6  1 -1</clus>
<clus scale="   76.543">  2  3  1 -1</clus>
<clus scale="   46.462">  1  3  2 -1</clus>
</clustering>
</event>
<event>
 6    0  0.6338511E+002  0.8273729E+02  0.7546771E-02  0.1321458E+00
         21   -1    0    0  501  502  0.00000000000E+00  0.00000000000E+00  0.96020461839E+03  0.96020461839E+03  0.00000000000E+00 0. -1.
          1   -1    0    0  505    0 -0.00000000000E+00 -0.00000000000E+00 -0.45720963267E+02  0.45720963267E+02  0.00000000000E+00 0.  1.
         21    1    1    2  503  502  0.28474683027E+02  0.21780399076E+02  0.46734889842E+03  0.46872186445E+03  0.00000000000E+00 0. -1.
         21    1    1    2  504  503  0.47728692459E+02 -0.31251892981E+01  0.28749865133E+03  0.29145028634E+03  0.00000000000E+00 0. -1.
         21    1    1    2  505  504 -0.60423114993E+02  0.70178881094E+02  0.10614285988E+03  0.14086282292E+03  0.00000000000E+00 0. -1.
          1    1    1    2  501    0 -0.15780260494E+02 -0.88834090872E+02  0.53493245492E+02  0.10489060795E+03  0.00000000000E+00 0.  1.
<scales pt_clust_3="35.84959" pt_clust_4="65.19974" pt_clust_5="14000.00000" pt_clust_6="82.73729"></scales>
<clustering>
<clus scale="   35.850">  1  3  2 -1</clus>
<clus scale="   65.200">  1  4  2 -1</clus>
<clus scale="   82.737">  2  6  1 -1</clus>
<clus scale="   35.850">  1  3  2 -1</clus>
</clustering>
</event>
<event>
 6    0  0.6338511E+002  0.2602121E+03  0.7546771E-02  0.1107016E+00
         21   -1    0    0  505  502  0.00000000000E+00  0.00000000000E+00  0.11121380534E+04  0.11121380534E+04  0.00000000000E+00 0.  1.
          1   -1    0    0  504    0 -0.00000000000E+00 -0.00000000000E+00 -0.11819880056E+04  0.11819880056E+04  0.00000000000E+00 0. -1.
         21    1    1    2  503  501  0.91466700193E+02  0.30264295940E+03  0.54700655818E+03  0.63180304906E+03  0.00000000000E+00 0.  1.
         21    1    1    2  504  502  0.28839528274E+02 -0.85949229949E+01  0.43577989113E+02  0.52958778568E+02  0.00000000000E+00 0.  1.
         21    1    1    2  505  503 -0.13390613612E+03 -0.35150306175E+02  0.44909426807E+03  0.46994899609E+03  0.00000000000E+00 0.  1.
          1    1    1    2  501    0  0.13599907657E+02 -0.25889773023E+03 -0.11095287676E+04  0.11394152352E+04  0.00000000000E+00 0. -1.
<scales pt_clust_3="14000.00000" pt_clust_4="30.09304" pt_clust_5="127.51572" pt_clust_6="260.21208"></scales>
<clustering>
<clus scale="   30.093">  1  4  2 -1</clus>
<clus scale="  127.516">  1  5  2 -1</clus>
<clus scale="  260.212">  2  6  1 -1</clus>
<clus scale="   30.093">  1  3  2 -1</clus>
</clustering>
</event>
<event>
 6    0  0.6338511E+002  0.1386845E+03  0.7546771E-02  0.1215110E+00
         -1   -1    0    0    0  501 -0.00000000000E+00  0.00000000000E+00  0.77393144164E+02  0.77393144164E+02  0.00000000000E+00 0.  1.
         21   -1    0    0  503  502  0.00000000000E+00 -0.00000000000E+00 -0.65785617058E+03  0.65785617058E+03  0.00000000000E+00 0.  1.
         21    1    1    2  503  505 -0.12471637172E+03 -0.17112835898E+02 -0.25708977910E+03  0.28625544020E+03  0.00000000000E+00 0.  1.
         21    1    1    2  504  502  0.93856852233E+02  0.37505576921E+00 -0.16284837745E+03  0.18795968561E+03  0.00000000000E+00 0.  1.
         21    1    1    2  505  501 -0.30202332424E+02 -0.19341424809E+02 -0.18311890739E+03  0.18659797920E+03  0.00000000000E+00 0.  1.
         -1    1    1    2    0  504  0.61061851911E+02  0.36079204938E+02  0.22594037522E+02  0.74436209732E+02  0.00000000000E+00 0.  1.
<scales pt_clust_3="35.71790" pt_clust_4="121.47203" pt_clust_5="35.71790" pt_clust_6="70.92432"></scales>
<clustering>
<clus scale="   35.718">  3  5 -1 -1</clus>
<clus scale="   70.924">  1  6  2 -1</clus>
<clus scale="  121.472">  2  4  1 -1</clus>
<clus scale="  121.472">  2  3  1 -1</clus>
</clustering>
</event>
<event>
 6    0  0.6338511E+002  0.7225029E+02  0.7546771E-02  0.1352604E+00
          2   -1    0    0  503    0 -0.00000000000E+00  0.00000000000E+00  0.95274490586E+03  0.95274490586E+03  0.00000000000E+00 0. -1.
         21   -1    0    0  504  502  0.00000000000E+00 -0.00000000000E+00 -0.83371917524E+02  0.83371917524E+02  0.00000000000E+00 0. -1.
         21    1    1    2  503  505 -0.14293548530E+02 -0.74402720964E+02  0.19314400120E+03  0.20747210804E+03  0.00000000000E+00 0.  1.
         21    1    1    2  504  501  0.44087878362E+02  0.60219457510E+02  0.23195056676E+03  0.24366203952E+03  0.00000000000E+00 0.  1.
         21    1    1    2  505  502 -0.71524767926E+02 -0.16640715385E+02 -0.49452237312E+02  0.88533776665E+02  0.00000000000E+00 0. -1.
          2    1    1    2  501    0  0.41730438094E+02  0.30823978839E+02  0.49373065769E+03  0.49644889916E+03  0.00000000000E+00 0. -1.
<scales pt_clust_3="61.04089" pt_clust_4="72.25029" pt_clust_5="14000.00000" pt_clust_6="51.88012"></scales>
<clustering>
<clus scale="   51.880">  1  6  2 -1</clus>
<clus scale="   61.041">  1  3  2 -1</clus>
<clus scale="   72.250">  1  4  2 -1</clus>
<clus scale="   72.250">  2  3  1 -1</clus>
</clustering>
</event>
<event>
 6    0  0.6338511E+002  0.2501836E+03  0.7546771E-02  0.1113189E+00
         21   -1    0    0  504  502  0.00000000000E+00  0.00000000000E+00  0.17675024220E+04  0.17675024220E+04  0.00000000000E+00 0. -1.
         -3   -1    0    0    0  501 -0.00000000000E+00 -0.00000000000E+00 -0.18330167066E+03  0.18330167066E+03  0.00000000000E+00 0.  1.
         21    1    1    2  503  502  0.24910725459E+03 -0.17199384933E+02  0.15761069765E+04  0.15957642195E+04  0.00000000000E+00 0. -1.
         21    1    1    2  504  505 -0.25355429976E+03  0.37819998431E+02  0.37848614475E+02  0.25913828900E+03  0.00000000000E+00 0.  1.
         21    1    1    2  505  501 -0.20392031557E+02 -0.44119814045E+02  0.28055628857E+01  0.48685358430E+02  0.00000000000E+00 0.  1.
         -3    1    1    2    0  503  0.24839076727E+02  0.23499200546E+02 -0.32560402476E+02  0.47216225689E+02  0.00000000000E+00 0.  1.
<scales pt_clust_3="250.18359" pt_clust_4="14000.00000" pt_clust_5="43.57277" pt_clust_6="34.19345"></scales>
<clustering>
<clus scale="   34.193">  2  6  1 -1</clus>
<clus scale="   43.573">  2  5  1 -1</clus>
<clus scale="  250.184">  1  3  2 -1</clus>
<clus scale="  250.184">  1  3  2 -1</clus>
</clustering>
</event>
<event>
 6    0  0.6338511E+002  0.7486050E+02  0.7546771E-02  0.1344304E+00
          2   -1    0    0  503    0 -0.00000000000E+00  0.00000000000E+00  0.52534956985E+03  0.52534956985E+03  0.00000000000E+00 0.  1.
         21   -1    0    0  501  502  0.00000000000E+00 -0.00000000000E+00 -0.28948162554E+03  0.28948162554E+03  0.00000000000E+00 0.  1.
         21    1    1    2  503  504 -0.39373801213E+02  0.39286735041E+02  0.12997250228E+03  0.14137395489E+03  0.00000000000E+00 0.  1.
         21    1    1    2  504  505 -0.44717541144E+02 -0.86149237730E+02 -0.41751293018E+02  0.10566229278E+03  0.00000000000E+00 0.  1.
         21    1    1    2  505  502  0.45136850645E+02  0.96432437377E+01 -0.20547074855E+03  0.21059096834E+03  0.00000000000E+00 0.  1.
          2    1    1    2  501    0  0.38954491712E+02  0.37219258951E+02  0.35311748360E+03  0.35720397938E+03  0.00000000000E+00 0.  1.
<scales pt_clust_3="53.92993" pt_clust_4="14000.00000" pt_clust_5="46.15547" pt_clust_6="74.86050"></scales>
<clustering>
<clus scale="   46.155">  2  5  1 -1</clus>
<clus scale="   53.930">  1  3  2 -1</clus>
<clus scale="   74.861">  1  6  2 -1</clus>
<clus scale="   46.155">  2  3  1 -1</clus>
</clustering>
</event>
<event>
 6    0  0.6338511E+002  0.8848709E+02  0.7546771E-02  0.1306557E+00
          2   -1    0    0  505    0 -0.00000000000E+00  0.00000000000E+00  0.80775720384E+03  0.80775720384E+03  0.00000000000E+00 0. -1.
         21   -1    0    0  501  502  0.00000000000E+00 -0.00000000000E+00 -0.14877323820E+03  0.14877323820E+03  0.00000000000E+00 0. -1.
         21    1    1    2  503  504 -0.96432041122E+02 -0.90801839328E+02 -0.23195079876E+02  0.13446978958E+03  0.00000000000E+00 0. -1.
         21    1    1    2  504  502  0.12855647808E+02  0.66029831049E+02 -0.31698969746E+02  0.74364177881E+02  0.00000000000E+00 0. -1.
         21    1    1    2  505  503  0.84235283512E+02 -0.27327079880E+02  0.10837257353E+03  0.13995344575E+03  0.00000000000E+00 0. -1.
          2    1    1    2  501    0 -0.65889019715E+00  0.52099088159E+02  0.60550544173E+03  0.60774302882E+03  0.00000000000E+00 0. -1.
<scales pt_clust_3="88.48709" pt_clust_4="72.68890" pt_clust_5="14000.00000" pt_clust_6="52.10325"></scales>
<clustering>
<clus scale="   52.103">  1  6  2 -1</clus>
<clus scale="   72.689">  2  4  1 -1</clus>
<clus scale="   88.487">  2  3  1 -1</clus>
<clus scale="   72.689">  2  3  1 -1</clus>
</clustering>
</event>
<event>
 6    0  0.6338511E+002  0.8340773E+02  0.7546771E-02  0.1319650E+00
         21   -1    0    0  503  502  0.00000000000E+00  0.00000000000E+00  0.24486661661E+03  0.24486661661E+03  0.00000000000E+00 0. -1.
          2   -1    0    0  505    0 -0.00000000000E+00 -0.00000000000E+00 -0.35316377259E+04  0.35316377259E+04  0.00000000000E+00 0. -1.
         21    1    1    2  503  504 -0.26750441826E+02  0.43039371974E+02 -0.13184705584E+02  0.52362296924E+02  0.00000000000E+00 0. -1.
         21    1    1    2  504  501 -0.11368943984E+03  0.48218419463E+02 -0.72258876023E+03  0.73306535938E+03  0.00000000000E+00 0. -1.
         21    1    1    2  505  502  0.70224672306E+02 -0.54818290242E+02  0.21043262322E+03  0.22851354109E+03  0.00000000000E+00 0. -1.
          2    1    1    2  501    0  0.70215209356E+02 -0.36439501194E+02 -0.27614302667E+04  0.27625631451E+04  0.00000000000E+00 0. -1.
<scales pt_clust_3="50.67518" pt_clust_4="83.40773" pt_clust_5="46.00559" pt_clust_6="14000.00000"></scales>
<clustering>
<clus scale="   50.675">  1  3  2 -1</clus>
<clus scale="   46.006">  1  5  2 -1</clus>
<clus scale="   83.408">  1  4  2 -1</clus>
<clus scale="   50.675">  1  3  2 -1</clus>
</clustering>
</event>
<event>
 6    0  0.6338511E+002  0.1912834E+03  0.7546771E-02  0.1157309E+00
         21   -1    0    0  504  502  0.00000000000E+00  0.00000000000E+00  0.26172331747E+03  0.26172331747E+03  0.00000000000E+00 0.  1.
          1   -1    0    0  503    0 -0.00000000000E+00 -0.00000000000E+00 -0.58033850446E+03  0.58033850446E+03  0.00000000000E+00 0. -1.
         21    1    1    2  503  502  0.16493639258E+03  0.11373448845E+03 -0.79207034828E+02  0.21543746616E+03  0.00000000000E+00 0.  1.
         21    1    1    2  504  505  0.86910758719E+02 -0.17011185975E+02  0.95891341159E+02  0.13052972741E+03  0.00000000000E+00 0.  1.
         21    1    1    2  505  501 -0.10856716676E+03 -0.15755787095E+03 -0.10538606011E+03  0.21844343447E+03  0.00000000000E+00 0. -1.
          1    1    1    2  501    0 -0.14327998454E+03  0.60834568476E+02 -0.22991343322E+03  0.27765119389E+03  0.00000000000E+00 0. -1.
<scales pt_clust_3="14000.00000" pt_clust_4="88.55993" pt_clust_5="191.28343" pt_clust_6="141.76459"></scales>
<clustering>
<clus scale="   88.560">  1  4  2 -1</clus>
<clus scale="  141.765">  2  6  1 -1</clus>
<clus scale="  191.283">  1  5  2 -1</clus>
<clus scale="   88.560">  1  3  2 -1</clus>
</clustering>
</event>
<event>
 6    0  0.6338511E+002  0.1122512E+03  0.7546771E-02  0.1256457E+00
         21   -1    0    0  505  502  0.00000000000E+00  0.00000000000E+00  0.16342048130E+04  0.16342048130E+04  0.00000000000E+00 0.  1.
          2   -1    0    0  503    0 -0.00000000000E+00 -0.00000000000E+00 -0.15340977292E+03  0.15340977292E+03  0.00000000000E+00 0. -1.
         21    1    1    2  503  504 -0.14654044385E+01 -0.66927131720E+02 -0.37970286446E+02  0.76961880326E+02  0.00000000000E+00 0. -1.
         21    1    1    2  504  502  0.96244665791E+02  0.11462530807E+03  0.15108602779E+04  0.15182558336E+04  0.00000000000E+00 0.  1.
         21    1    1    2  505  501 -0.20647916554E+02 -0.28460678451E+02  0.79893060090E+02  0.87288302346E+02  0.00000000000E+00 0.  1.
          2    1    1    2  501    0 -0.74131344799E+02 -0.19237497897E+02 -0.71988011497E+02  0.10510856961E+03  0.00000000000E+00 0. -1.
<scales pt_clust_3="67.30708" pt_clust_4="112.25118" pt_clust_5="35.16172" pt_clust_6="14000.00000"></scales>
<clustering>
<clus scale="   35.162">  1  5  2 -1</clus>
<clus scale="   67.307">  2  3  1 -1</clus>
<clus scale="  112.251">  1  4  2 -1</clus>
<clus scale="   35.162">  1  3  2 -1</clus>
</clustering>
</event>
<event>
 6    0  0.6338511E+002  0.1472523E+03  0.7546771E-02  0.1203891E+00
          2   -1    0    0  504    0 -0.00000000000E+00  0.00000000000E+00  0.21588411986E+04  0.21588411986E+04  0.00000000000E+00 0.  1.
         21   -1    0    0  505  502  0.00000000000E+00 -0.00000000000E+00 -0.16309123992E+03  0.16309123992E+03  0.00000000000E+00 0. -1.
         21    1    1    2  503  501 -0.11752746308E+02 -0.16565194298E+03  0.52168521352E+03  0.54747982179E+03  0.00000000000E+00 0.  1.
         21    1    1    2  504  502 -0.42068537410E+02  0.88516780374E+02 -0.11642843965E+03  0.15218595141E+03  0.00000000000E+00 0. -1.
         21    1    1    2  505  503  0.11860345339E+02  0.59012051801E+02  0.42702024198E+02  0.73800765036E+02  0.00000000000E+00 0. -1.
          2    1    1    2  501    0  0.41960938379E+02  0.18123110805E+02  0.15477911607E+04  0.15484659003E+04  0.00000000000E+00 0.  1.
<scales pt_clust_3="147.25226" pt_clust_4="14000.00000" pt_clust_5="62.77783" pt_clust_6="45.70741"></scales>
<clustering>
<clus scale="   45.707">  1  6  2 -1</clus>
<clus scale="   62.778">  2  5  1 -1</clus>
<clus scale="  147.252">  1  3  2 -1</clus>
<clus scale="   62.778">  2  3  1 -1</clus>
</clustering>
</event>
<event>
 6    0  0.6338511E+002  0.7847949E+02  0.7546771E-02  0.1333423E+00
          1   -1    0    0  503    0 -0.00000000000E+00  0.00000000000E+00  0.20078145397E+03  0.20078145397E+03  0.00000000000E+00 0. -1.
         21   -1    0    0  505  502  0.00000000000E+00 -0.00000000000E+00 -0.15578722237E+03  0.15578722237E+03  0.00000000000E+00 0. -1.
         21    1    1    2  503  504 -0.75642245019E+02  0.23953969847E+02  0.26245899803E+02  0.83572657965E+02  0.00000000000E+00 0. -1.
         21    1    1    2  504  502 -0.51921579588E+01  0.31531866720E+02 -0.36662011174E+02  0.48634557533E+02  0.00000000000E+00 0.  1.
         21    1    1    2  505  501  0.47492210958E+02 -0.89962089410E+02 -0.46406729444E+02  0.11181355987E+03  0.00000000000E+00 0. -1.
          1    1    1    2  501    0  0.33342192019E+02  0.34476252843E+02  0.10181707242E+03  0.11254790098E+03  0.00000000000E+00 0. -1.
<scales pt_clust_3="78.47949" pt_clust_4="31.95649" pt_clust_5="14000.00000" pt_clust_6="48.88045"></scales>
<clustering>
<clus scale="   31.956">  2  4  1 -1</clus>
<clus scale="   48.880">  1  6  2 -1</clus>
<clus scale="   78.479">  1  3  2 -1</clus>
<clus scale="   31.956">  2  3  1 -1</clus>
</clustering>
</event>
<event>
 6    0  0.6338511E+002  0.8796731E+02  0.7546771E-02  0.1307850E+00
          2   -1    0    0  503    0 -0.00000000000E+00  0.00000000000E+00  0.88361062102E+03  0.88361062102E+03  0.00000000000E+00 0.  1.
         21   -1    0    0  505  502  0.00000000000E+00 -0.00000000000E+00 -0.71675680552E+02  0.71675680552E+02  0.00000000000E+00 0. -1.
         21    1    1    2  503  502  0.25117778699E+01 -0.34928457866E+02  0.10910939074E+02  0.36679078348E+02  0.00000000000E+00 0. -1.
         21    1    1    2  504  501 -0.99592119078E+02  0.20564622416E+02  0.23024907865E+03  0.25170644031E+03  0.00000000000E+00 0. -1.
         21    1    1    2  505  504  0.22773281273E+02  0.55832242113E+02 -0.24857265192E+02  0.65220742346E+02  0.00000000000E+00 0. -1.
          2    1    1    2  501    0  0.74307059935E+02 -0.41468406663E+02  0.59563218793E+03  0.60168004056E+03  0.00000000000E+00 0.  1.
<scales pt_clust_3="35.01865" pt_clust_4="14000.00000" pt_clust_5="38.14815" pt_clust_6="87.96731"></scales>
<clustering>
<clus scale="   35.019">  2  3  1 -1</clus>
<clus scale="   38.148">  2  5  1 -1</clus>
<clus scale="   87.967">  1  6  2 -1</clus>
<clus scale="   35.019">  2  3  1 -1</clus>
</clustering>
</event>
<event>
 6    0  0.6338511E+002  0.1039735E+03  0.7546771E-02  0.1272155E+00
         -1   -1    0    0    0  501 -0.00000000000E+00  0.00000000000E+00  0.63045500482E+03  0.63045500482E+03  0.00000000000E+00 0.  1.
         21   -1    0    0  505  502  0.00000000000E+00 -0.00000000000E+00 -0.59223855741E+03  0.59223855741E+03  0.00000000000E+00 0.  1.
         21    1    1    2  503  502  0.53763428521E+02 -0.38196191074E+02 -0.67976279575E+02  0.94711297340E+02  0.00000000000E+00 0.  1.
         21    1    1    2  504  501 -0.27948657795E+02  0.25814729781E+02 -0.22370088033E+03  0.22691322484E+03  0.00000000000E+00 0.  1.
         21    1    1    2  505  504 -0.96499749444E+02  0.59010936428E+02 -0.27130279483E+03  0.29393825669E+03  0.00000000000E+00 0.  1.
         -1    1    1    2    0  503  0.70684978718E+02 -0.46629475136E+02  0.60119640214E+03  0.60713078337E+03  0.00000000000E+00 0.  1.
<scales pt_clust_3="65.95040" pt_clust_4="34.67596" pt_clust_5="34.67596" pt_clust_6="85.06263"></scales>
<clustering>
<clus scale="   34.676">  4  5 -1 -1</clus>
<clus scale="   65.950">  2  3  1 -1</clus>
<clus scale="   85.063">  1  6  2 -1</clus>
<clus scale="   65.950">  2  3  1 -1</clus>
</clustering>
</event>
<event>
 6    0  0.6338511E+002  0.1501489E+03  0.7546771E-02  0.1200290E+00
         21   -1    0    0  503  502  0.00000000000E+00  0.00000000000E+00  0.63672772575E+02  0.63672772575E+02  0.00000000000E+00 0.  1.
          2   -1    0    0  505    0 -0.00000000000E+00 -0.00000000000E+00 -0.13680716309E+04  0.13680716309E+04  0.00000000000E+00 0.  1.
         21    1    1    2  503  501 -0.76906727250E+02  0.63675173207E+02 -0.42828937495E+02  0.10864386898E+03  0.00000000000E+00 0.  1.
         21    1    1    2  504  502  0.29467403058E+02 -0.21721108486E+02 -0.29577007623E+02  0.47063082950E+02  0.00000000000E+00 0.  1.
         21    1    1    2  505  504  0.13938693479E+03 -0.96046673799E+02 -0.10615571983E+04  0.10749685420E+04  0.00000000000E+00 0.  1.
          2    1    1    2  501    0 -0.91947610595E+02  0.54092609078E+02 -0.17043571492E+03  0.20106890951E+03  0.00000000000E+00 0.  1.
<scales pt_clust_3="77.95920" pt_clust_4="36.60785" pt_clust_5="150.14886" pt_clust_6="14000.00000"></scales>
<clustering>
<clus scale="   36.608">  1  4  2 -1</clus>
<clus scale="   77.959">  1  3  2 -1</clus>
<clus scale="  150.149">  2  5  1 -1</clus>
<clus scale="   36.608">  1  3  2 -1</clus>
</clustering>
</event>
<event>
 6    0  0.6338511E+002  0.1250753E+03  0.7546771E-02  0.1234952E+00
          2   -1    0    0  503    0 -0.00000000000E+00  0.00000000000E+00  0.78721724158E+03  0.78721724158E+03  0.00000000000E+00 0. -1.
         21   -1    0    0  504  502  0.00000000000E+00 -0.00000000000E+00 -0.21142041020E+03  0.21142041020E+03  0.00000000000E+00 0.  1.
         21    1    1    2  503  505 -0.41599822329E+02  0.48903380884E+02  0.33523432412E+03  0.34132702493E+03  0.00000000000E+00 0. -1.
         21    1    1    2  504  501  0.13931654780E+03 -0.18538878189E+02 -0.12289978112E+03  0.18670068745E+03  0.00000000000E+00 0.  1.
         21    1    1    2  505  502 -0.10141847041E+03  0.53923809073E+01 -0.37610085468E+01  0.10163133915E+03  0.00000000000E+00 0. -1.
          2    1    1    2  501    0  0.37017449380E+01 -0.35756883602E+02  0.36722329693E+03  0.36897860026E+03  0.00000000000E+00 0. -1.
<scales pt_clust_3="43.50415" pt_clust_4="125.07528" pt_clust_5="14000.00000" pt_clust_6="35.94799"></scales>
<clustering>
<clus scale="   35.948">  1  6  2 -1</clus>
<clus scale="   43.504">  1  3  2 -1</clus>
<clus scale="  125.075">  2  4  1 -1</clus>
<clus scale="  125.075">  2  3  1 -1</clus>
</clustering>
</event>
<event>
 6    0  0.6338511E+002  0.9182270E+02  0.7546771E-02  0.1298497E+00
         21   -1    0    0  505  502  0.00000000000E+00  0.00000000000E+00  0.10203036822E+03  0.10203036822E+03  0.00000000000E+00 0. -1.
         -2   -1    0    0    0  501 -0.00000000000E+00 -0.00000000000E+00 -0.22786237175E+04  0.22786237175E+04  0.00000000000E+00 0.  1.
         21    1    1    2  503  502  0.24287019732E+01 -0.82088762045E+02  0.86148850656E+01  0.82575297106E+02  0.00000000000E+00 0. -1.
         21    1    1    2  504  503  0.47850200182E+02  0.54956760977E+02 -0.94179571203E+02  0.11907845677E+03  0.00000000000E+00 0. -1.
         21    1    1    2  505  501 -0.96123483487E+02 -0.29213243766E+02 -0.14855698805E+02  0.10155702573E+03  0.00000000000E+00 0. -1.
         -2    1    1    2    0  504  0.45844581333E+02  0.56345244835E+02 -0.20761729643E+04  0.20774433061E+04  0.00000000000E+00 0.  1.
<scales pt_clust_3="72.57665" pt_clust_4="91.82270" pt_clust_5="14000.00000" pt_clust_6="72.63961"></scales>
<clustering>
<clus scale="   72.640">  2  6  1 -1</clus>
<clus scale="   72.577">  1  3  2 -1</clus>
<clus scale="   91.823">  2  4  1 -1</clus>
<clus scale="   72.577">  1  3  2 -1</clus>
</clustering>
</event>
<event>
 6    0  0.6338511E+002  0.1120680E+03  0.7546771E-02  0.1256787E+00
         21   -1    0    0  503  502  0.00000000000E+00  0.00000000000E+00  0.39069536572E+03  0.39069536572E+03  0.00000000000E+00 0. -1.
          2   -1    0    0  505    0 -0.00000000000E+00 -0.00000000000E+00 -0.11055738814E+04  0.11055738814E+04  0.00000000000E+00 0. -1.
         21    1    1    2  503  504 -0.63997921927E+02 -0.11041898407E+02  0.32857661768E+02  0.72782439285E+02  0.00000000000E+00 0. -1.
         21    1    1    2  504  501  0.48152712575E+02  0.81589665782E+02 -0.80654862656E+02  0.12442171901E+03  0.00000000000E+00 0. -1.
         21    1    1    2  505  502 -0.47761983247E+02 -0.48471122932E+02  0.31115767822E+03  0.31851178552E+03  0.00000000000E+00 0. -1.
          2    1    1    2  501    0  0.63607192598E+02 -0.22076644444E+02 -0.97823899298E+03  0.98055330327E+03  0.00000000000E+00 0. -1.
<scales pt_clust_3="64.94349" pt_clust_4="14000.00000" pt_clust_5="112.06804" pt_clust_6="67.13486"></scales>
<clustering>
<clus scale="   64.943">  1  3  2 -1</clus>
<clus scale="   67.135">  2  6  1 -1</clus>
<clus scale="  112.068">  1  5  2 -1</clus>
<clus scale="   64.943">  1  3  2 -1</clus>
</clustering>
</event>
<event>
 6    0  0.6338511E+002  0.1140944E+03  0.7546771E-02  0.1253170E+00
          2   -1    0    0  502    0 -0.00000000000E+00  0.00000000000E+00  0.12746987629E+04  0.12746987629E+04  0.00000000000E+00 0.  1.
         21   -1    0    0  503  502  0.00000000000E+00 -0.00000000000E+00 -0.33145019060E+03  0.33145019060E+03  0.00000000000E+00 0. -1.
         21    1    1    2  503  505  0.23380045343E+02  0.10134101418E+03 -0.30298294094E+03  0.32033621427E+03  0.00000000000E+00 0. -1.
         21    1    1    2  504  501  0.48222816011E+01 -0.41168044142E+02  0.10006799995E+03  0.10831281952E+03  0.00000000000E+00 0. -1.
         21    1    1    2  505  504  0.34316913611E+02 -0.57216386638E+02  0.60594243169E+02  0.90127841231E+02  0.00000000000E+00 0.  1.
          2    1    1    2  501    0 -0.62519240555E+02 -0.29565833958E+01  0.10855692702E+04  0.10873720785E+04  0.00000000000E+00 0.  1.
<scales pt_clust_3="103.25972" pt_clust_4="38.24977" pt_clust_5="38.24977" pt_clust_6="62.58911"></scales>
<clustering>
<clus scale="   38.250">  4  5 -1 -1</clus>
<clus scale="   62.589">  1  6  2 -1</clus>
<clus scale="  103.260">  2  3  1 -1</clus>
<clus scale="  103.260">  2  3  1 -1</clus>
</clustering>
</event>
<event>
 6    0  0.6338511E+002  0.1208300E+03  0.7546771E-02  0.1241734E+00
          2   -1    0    0  504    0 -0.00000000000E+00  0.00000000000E+00  0.15190075283E+04  0.15190075283E+04  0.00000000000E+00 0. -1.
         21   -1    0    0  503  502  0.00000000000E+00 -0.00000000000E+00 -0.14931916902E+03  0.14931916902E+03  0.00000000000E+00 0. -1.
         21    1    1    2  503  505 -0.77352357783E+02  0.33780014464E+01  0.93672192256E+02  0.12152891734E+03  0.00000000000E+00 0. -1.
         21    1    1    2  504  502  0.12675335311E+03 -0.48695597985E+02 -0.99687776212E+02  0.16844977446E+03  0.00000000000E+00 0. -1.
         21    1    1    2  505  501 -0.47291047740E+02  0.15036330373E+02  0.59933463182E+03  0.60138551307E+03  0.00000000000E+00 0. -1.
          2    1    1    2  501    0 -0.21099475885E+01  0.30281266165E+02  0.77636931137E+03  0.77696249240E+03  0.00000000000E+00 0. -1.
<scales pt_clust_3="14000.00000" pt_clust_4="120.82996" pt_clust_5="62.95276" pt_clust_6="30.35469"></scales>
<clustering>
<clus scale="   30.355">  1  6  2 -1</clus>
<clus scale="   62.953">  1  5  2 -1</clus>
<clus scale="  120.830">  2  4  1 -1</clus>
<clus scale="  120.830">  2  3  1 -1</clus>
</clustering>
</event>
<event>
 6    0  0.6338511E+002  0.1522704E+03  0.7546771E-02  0.1197711E+00
         21   -1    0    0  505  502  0.00000000000E+00  0.00000000000E+00  0.33416197615E+02  0.33416197615E+02  0.00000000000E+00 0. -1.
          1   -1    0    0  503    0 -0.00000000000E+00 -0.00000000000E+00 -0.21051520643E+04  0.21051520643E+04  0.00000000000E+00 0. -1.
         21    1    1    2  503  504  0.11880031231E+03 -0.11913606760E+03 -0.36849399930E+03  0.40508609496E+03  0.00000000000E+00 0. -1.
         21    1    1    2  504  502 -0.41202981421E+01  0.54104387245E+02 -0.50485957714E+02  0.74115406645E+02  0.00000000000E+00 0. -1.
         21    1    1    2  505  501 -0.66816787926E+02  0.33897816458E+02 -0.54321109956E+03  0.54835375789E+03  0.00000000000E+00 0. -1.
          1    1    1    2  501    0 -0.47863226237E+02  0.31133863893E+02 -0.11095448101E+04  0.11110130024E+04  0.00000000000E+00 0. -1.
<scales pt_clust_3="136.64173" pt_clust_4="54.26105" pt_clust_5="57.88853" pt_clust_6="57.88853"></scales>
<clustering>
<clus scale="   54.261">  1  4  2 -1</clus>
<clus scale="   57.889">  5  6 -1 -1</clus>
<clus scale="  136.642">  1  3  2 -1</clus>
<clus scale="   54.261">  1  3  2 -1</clus>
</clustering>
</event>
<event>
 6    0  0.6338511E+002  0.1083316E+03  0.7546771E-02  0.1263691E+00
         21   -1    0    0  501  502  0.00000000000E+00  0.00000000000E+00  0.80385844564E+02  0.80385844564E+02  0.00000000000E+00 0. -1.
          1   -1    0    0  504    0 -0.00000000000E+00 -0.00000000000E+00 -0.12387560190E+04  0.12387560190E+04  0.00000000000E+00 0.  1.
         21    1    1    2  503  505 -0.77453402572E+02  0.28671952877E+02 -0.21999402038E+03  0.23498612609E+03  0.00000000000E+00 0.  1.
         21    1    1    2  504  503  0.28732194434E+02  0.14404637069E+02 -0.63089310058E+02  0.70804615737E+02  0.00000000000E+00 0. -1.
         21    1    1    2  505  502  0.96181645143E+02 -0.61305857427E+02  0.20701231987E+02  0.11592177545E+03  0.00000000000E+00 0. -1.
          1    1    1    2  501    0 -0.47460437006E+02  0.18229267481E+02 -0.89598807603E+03  0.89742934633E+03  0.00000000000E+00 0.  1.
<scales pt_clust_3="108.33165" pt_clust_4="32.14082" pt_clust_5="14000.00000" pt_clust_6="38.78909"></scales>
<clustering>
<clus scale="   32.141">  2  4  1 -1</clus>
<clus scale="   38.789">  2  6  1 -1</clus>
<clus scale="  108.332">  2  3  1 -1</clus>
<clus scale="  108.332">  1  3  2 -1</clus>
</clustering>
</event>
<event>
 6    0  0.6338511E+002  0.1550286E+03  0.7546771E-02  0.1194427E+00
          1   -1    0    0  504    0 -0.00000000000E+00  0.00000000000E+00  0.25600416149E+04  0.25600416149E+04  0.00000000000E+00 0. -1.
         21   -1    0    0  503  502  0.00000000000E+00 -0.00000000000E+00 -0.47272424191E+02  0.47272424191E+02  0.00000000000E+00 0. -1.
         21    1    1    2  503  505 -0.28910341001E+02  0.10085837894E+03  0.53054620754E+03  0.54082113379E+03  0.00000000000E+00 0. -1.
         21    1    1    2  504  502  0.17110230083E+02 -0.17146453703E+03  0.13848105986E+03  0.22106526496E+03  0.00000000000E+00 0. -1.
         21    1    1    2  505  501  0.69594367054E+01  0.33339820357E+02  0.49911325024E+03  0.50027393890E+03  0.00000000000E+00 0.  1.
          1    1    1    2  501    0  0.48406742127E+01  0.37266337734E+02  0.13446286731E+04  0.13451537014E+04  0.00000000000E+00 0. -1.
<scales pt_clust_3="14000.00000" pt_clust_4="155.02860" pt_clust_5="31.49417" pt_clust_6="78.85998"></scales>
<clustering>
<clus scale="   31.494">  5  6 -1 -1</clus>
<clus scale="   78.860">  1  5  2 -1</clus>
<clus scale="  155.029">  2  4  1 -1</clus>
<clus scale="  155.029">  2  3  1 -1</clus>
</clustering>
</event>
<event>
 6    0  0.6338511E+002  0.9180187E+02  0.7546771E-02  0.1298546E+00
         21   -1    0    0  505  502  0.00000000000E+00  0.00000000000E+00  0.33057579608E+03  0.33057579608E+03  0.00000000000E+00 0.  1.
          2   -1    0    0  504    0 -0.00000000000E+00 -0.00000000000E+00 -0.68046903886E+03  0.68046903886E+03  0.00000000000E+00 0. -1.
         21    1    1    2  503  501  0.25555713809E+02 -0.76506538546E+02 -0.88110788288E+01  0.81141728221E+02  0.00000000000E+00 0.  1.
         21    1    1    2  504  502 -0.14233140469E+03  0.64786508211E+02  0.24896446198E+03  0.29400480223E+03  0.00000000000E+00 0.  1.
         21    1    1    2  505  503  0.25823014964E+02  0.17083215320E+02  0.71618748043E+01  0.31779817467E+02  0.00000000000E+00 0.  1.
          2    1    1    2  501    0  0.90952675913E+02 -0.53631849855E+01 -0.59720850074E+03  0.60411848702E+03  0.00000000000E+00 0. -1.
<scales pt_clust_3="79.80516" pt_clust_4="91.80187" pt_clust_5="30.96231" pt_clust_6="14000.00000"></scales>
<clustering>
<clus scale="   30.962">  1  5  2 -1</clus>
<clus scale="   79.805">  1  3  2 -1</clus>
<clus scale="   91.802">  1  4  2 -1</clus>
<clus scale="   30.962">  1  3  2 -1</clus>
</clustering>
</event>
<event>
 6    0  0.6338511E+002  0.1056566E+03  0.7546771E-02  0.1268831E+00
          2   -1    0    0  504    0 -0.00000000000E+00  0.00000000000E+00  0.10630270654E+04  0.10630270654E+04  0.00000000000E+00 0. -1.
         21   -1    0    0  505  502  0.00000000000E+00 -0.00000000000E+00 -0.90501920319E+02  0.90501920319E+02  0.00000000000E+00 0. -1.
         21    1    1    2  503  501 -0.22282371306E+02 -0.30076774172E+02  0.33469945859E+02  0.50213082871E+02  0.00000000000E+00 0. -1.
         21    1    1    2  504  502  0.43928257609E+02 -0.61428225466E+02  0.11111672266E+02  0.76332089982E+02  0.00000000000E+00 0. -1.
         21    1    1    2  505  503 -0.28335606642E+02 -0.18353379117E+02 -0.40261726757E+02  0.52542932639E+02  0.00000000000E+00 0. -1.
          2    1    1    2  501    0  0.66897203390E+01  0.10985837875E+03  0.96820525369E+03  0.97444088020E+03  0.00000000000E+00 0. -1.
<scales pt_clust_3="43.49120" pt_clust_4="14000.00000" pt_clust_5="33.76023" pt_clust_6="105.65655"></scales>
<clustering>
<clus scale="   33.760">  2  5  1 -1</clus>
<clus scale="   43.491">  2  3  1 -1</clus>
<clus scale="  105.657">  1  6  2 -1</clus>
<clus scale="   33.760">  2  3  1 -1</clus>
</clustering>
</event>
<event>
 6    0  0.6338511E+002  0.1099722E+03  0.7546771E-02  0.1260621E+00
          2   -1    0    0  505    0 -0.00000000000E+00  0.00000000000E+00  0.68952292554E+03  0.68952292554E+03  0.00000000000E+00 0.  1.
         21   -1    0    0  504  502  0.00000000000E+00 -0.00000000000E+00 -0.14513627780E+04  0.14513627780E+04  0.00000000000E+00 0.  1.
         21    1    1    2  503  501 -0.52521239950E+02  0.59788751100E+02 -0.11569170934E+03  0.14041989536E+03  0.00000000000E+00 0. -1.
         21    1    1    2  504  503 -0.21967314078E+02  0.48015468653E+02 -0.12795401787E+04  0.12806291880E+04  0.00000000000E+00 0.  1.
         21    1    1    2  505  502 -0.24853527568E+02 -0.57595950750E+02 -0.12889225298E+02  0.64040014867E+02  0.00000000000E+00 0.  1.
          2    1    1    2  501    0  0.99342081596E+02 -0.50208269002E+02  0.64628126088E+03  0.65579660537E+03  0.00000000000E+00 0.  1.
<scales pt_clust_3="14000.00000" pt_clust_4="52.80197" pt_clust_5="55.48607" pt_clust_6="109.97215"></scales>
<clustering>
<clus scale="   52.802">  2  4  1 -1</clus>
<clus scale="   55.486">  2  5  1 -1</clus>
<clus scale="  109.972">  1  6  2 -1</clus>
<clus scale="   52.802">  2  3  1 -1</clus>
</clustering>
</event>
<event>
 6    0  0.6338511E+002  0.1336205E+03  0.7546771E-02  0.1222180E+00
          2   -1    0    0  503    0 -0.00000000000E+00  0.00000000000E+00  0.21206383086E+04  0.21206383086E+04  0.00000000000E+00 0. -1.
         21   -1    0    0  505  502  0.00000000000E+00 -0.00000000000E+00 -0.10650173264E+03  0.10650173264E+03  0.00000000000E+00 0. -1.
         21    1    1    2  503  504 -0.18260922156E+03 -0.75238147643E+02  0.24137302925E+03  0.31187793430E+03  0.00000000000E+00 0. -1.
         21    1    1    2  504  502  0.51963439263E+02  0.28215121423E+02 -0.50505111095E+02  0.77762833949E+02  0.00000000000E+00 0. -1.
         21    1    1    2  505  501  0.82244763834E+02  0.41344324841E+02  0.30834930738E+03  0.32179628608E+03  0.00000000000E+00 0.  1.
          2    1    1    2  501    0  0.48401018458E+02  0.56787013793E+01  0.15149193504E+04  0.15157029869E+04  0.00000000000E+00 0. -1.
<scales pt_clust_3="14000.00000" pt_clust_4="60.14952" pt_clust_5="133.62050" pt_clust_6="48.73301"></scales>
<clustering>
<clus scale="   48.733">  1  6  2 -1</clus>
<clus scale="   60.150">  2  4  1 -1</clus>
<clus scale="  133.620">  1  5  2 -1</clus>
<clus scale="   60.150">  2  3  1 -1</clus>
</clustering>
</event>
<event>
 6    0  0.6338511E+002  0.9838734E+02  0.7546771E-02  0.1283724E+00
         21   -1    0    0  505  502  0.00000000000E+00  0.00000000000E+00  0.41805941537E+03  0.41805941537E+03  0.00000000000E+00 0.  1.
         -4   -1    0    0    0  501 -0.00000000000E+00 -0.00000000000E+00 -0.15658907434E+04  0.15658907434E+04  0.00000000000E+00 0. -1.
         21    1    1    2  503  502  0.28536551285E+02  0.20650805961E+02  0.21940531901E+03  0.22221495124E+03  0.00000000000E+00 0.  1.
         21    1    1    2  504  501  0.53359044296E+02  0.63887233852E+02 -0.10737875693E+03  0.13586376889E+03  0.00000000000E+00 0.  1.
         21    1    1    2  505  504  0.27938291619E+01 -0.11354943379E+03  0.16384043726E+03  0.19936140118E+03  0.00000000000E+00 0.  1.
         -4    1    1    2    0  503 -0.84689424742E+02  0.29011393980E+02 -0.14236983274E+04  0.14265100375E+04  0.00000000000E+00 0. -1.
<scales pt_clust_3="35.22486" pt_clust_4="85.70678" pt_clust_5="98.38734" pt_clust_6="14000.00000"></scales>
<clustering>
<clus scale="   35.225">  1  3  2 -1</clus>
<clus scale="   85.707">  2  4  1 -1</clus>
<clus scale="   98.387">  1  5  2 -1</clus>
<clus scale="   35.225">  1  3  2 -1</clus>
</clustering>
</event>
<event>
 6    0  0.6338511E+002  0.2394845E+03  0.7546771E-02  0.1120137E+00
          2   -1    0    0  503    0 -0.00000000000E+00  0.00000000000E+00  0.85624115405E+03  0.85624115405E+03  0.00000000000E+00 0.  1.
         21   -1    0    0  504  502  0.00000000000E+00 -0.00000000000E+00 -0.89792953345E+03  0.89792953345E+03  0.00000000000E+00 0. -1.
         21    1    1    2  503  502 -0.37519114363E+02 -0.61277907243E+02 -0.41124599003E+03  0.41747566417E+03  0.00000000000E+00 0. -1.
         21    1    1    2  504  505 -0.22129791147E+02  0.60803524308E+02 -0.13940748097E+03  0.15369203614E+03  0.00000000000E+00 0.  1.
         21    1    1    2  505  501  0.29553067364E+03 -0.13799510708E+02 -0.25047714459E+03  0.38764365791E+03  0.00000000000E+00 0. -1.
          2    1    1    2  501    0 -0.23588176813E+03  0.14273893643E+02  0.75944223618E+03  0.79535932928E+03  0.00000000000E+00 0.  1.
<scales pt_clust_3="56.94082" pt_clust_4="64.70546" pt_clust_5="239.48450" pt_clust_6="14000.00000"></scales>
<clustering>
<clus scale="   64.705">  2  4  1 -1</clus>
<clus scale="   56.941">  2  3  1 -1</clus>
<clus scale="  239.484">  2  5  1 -1</clus>
<clus scale="   64.705">  2  3  1 -1</clus>
</clustering>
</event>
<event>
 6    0  0.6338511E+002  0.1177691E+03  0.7546771E-02  0.1246823E+00
          2   -1    0    0  504    0 -0.00000000000E+00  0.00000000000E+00  0.22352995146E+04  0.22352995146E+04  0.00000000000E+00 0.  1.
         21   -1    0    0  503  502  0.00000000000E+00 -0.00000000000E+00 -0.11825424011E+04  0.11825424011E+04  0.00000000000E+00 0. -1.
         21    1    1    2  503  505  0.18516285796E+02 -0.62676752941E+02 -0.18514601373E+03  0.19634223845E+03  0.00000000000E+00 0. -1.
         21    1    1    2  504  502  0.31168167610E+01  0.29887096811E+02 -0.98415568273E+03  0.98461432092E+03  0.00000000000E+00 0. -1.
         21    1    1    2  505  501  0.98394732634E+02 -0.96960537230E+01  0.47434439336E+03  0.48453910098E+03  0.00000000000E+00 0. -1.
          2    1    1    2  501    0 -0.12002783519E+03  0.42485709853E+02  0.17477144166E+04  0.17523462554E+04  0.00000000000E+00 0.  1.
<scales pt_clust_3="40.15839" pt_clust_4="30.04918" pt_clust_5="14000.00000" pt_clust_6="117.76911"></scales>
<clustering>
<clus scale="   30.049">  2  4  1 -1</clus>
<clus scale="   40.158">  2  3  1 -1</clus>
<clus scale="  117.769">  1  6  2 -1</clus>
<clus scale="   30.049">  2  3  1 -1</clus>
</clustering>
</event>
<event>
 6    0  0.6338511E+002  0.8930930E+02  0.7546771E-02  0.1304533E+00
         21   -1    0    0  505  502  0.00000000000E+00  0.00000000000E+00  0.70000649491E+03  0.70000649491E+03  0.00000000000E+00 0. -1.
          2   -1    0    0  503    0 -0.00000000000E+00 -0.00000000000E+00 -0.98443625384E+03  0.98443625384E+03  0.00000000000E+00 0.  1.
         21    1    1    2  503  502 -0.29237358352E+02 -0.14727370603E+02  0.40794322452E+02  0.52305786607E+02  0.00000000000E+00 0.  1.
         21    1    1    2  504  501  0.91296988711E+01 -0.11110471022E+03  0.35235805740E+03  0.36957246739E+03  0.00000000000E+00 0. -1.
         21    1    1    2  505  504  0.14473326057E+02  0.36820390043E+02  0.28909097867E+03  0.29178555865E+03  0.00000000000E+00 0. -1.
          2    1    1    2  501    0  0.56343334236E+01  0.89011690781E+02 -0.96667311745E+03  0.97077893611E+03  0.00000000000E+00 0.  1.
<scales pt_clust_3="32.73711" pt_clust_4="89.30930" pt_clust_5="30.31067" pt_clust_6="14000.00000"></scales>
<clustering>
<clus scale="   32.737">  1  3  2 -1</clus>
<clus scale="   30.311">  1  5  2 -1</clus>
<clus scale="   89.309">  1  4  2 -1</clus>
<clus scale="   32.737">  1  3  2 -1</clus>
</clustering>
</event>
<event>
 6    0  0.6338511E+002  0.1173142E+03  0.7546771E-02  0.1247595E+00
         -4   -1    0    0    0  501 -0.00000000000E+00  0.00000000000E+00  0.36492353129E+03  0.36492353129E+03  0.00000000000E+00 0. -1.
         21   -1    0    0  505  502  0.00000000000E+00 -0.00000000000E+00 -0.61290004359E+03  0.61290004359E+03  0.00000000000E+00 0.  1.
         21    1    1    2  503  504 -0.88545850839E+02  0.35706933128E+02 -0.15324987979E+03  0.18055713342E+03  0.00000000000E+00 0.  1.
         21    1    1    2  504  502 -0.85027433084E+02 -0.75145601822E+02 -0.23668897198E+03  0.26248465728E+03  0.00000000000E+00 0.  1.
         21    1    1    2  505  501  0.54550324025E+02  0.42895485453E+02 -0.17924744391E+03  0.19221187964E+03  0.00000000000E+00 0.  1.
         -4    1    1    2    0  503  0.11902295990E+03 -0.34568167582E+01  0.32120978337E+03  0.34256990454E+03  0.00000000000E+00 0. -1.
<scales pt_clust_3="14000.00000" pt_clust_4="73.03223" pt_clust_5="69.39568" pt_clust_6="117.31422"></scales>
<clustering>
<clus scale="   69.396">  2  5  1 -1</clus>
<clus scale="   73.032">  2  4  1 -1</clus>
<clus scale="  117.314">  1  6  2 -1</clus>
<clus scale="   69.396">  2  3  1 -1</clus>
</clustering>
</event>
<event>
 6    0  0.6338511E+002  0.2140219E+03  0.7546771E-02  0.1138420E+00
          1   -1    0    0  504    0 -0.00000000000E+00  0.00000000000E+00  0.14661619440E+04  0.14661619440E+04  0.00000000000E+00 0.  1.
         21   -1    0    0  505  502  0.00000000000E+00 -0.00000000000E+00 -0.14938073326E+04  0.14938073326E+04  0.00000000000E+00 0.  1.
         21    1    1    2  503  501  0.14679566425E+03 -0.18666955699E+03 -0.73244324741E+02  0.24851402708E+03  0.00000000000E+00 0.  1.
         21    1    1    2  504  502 -0.13286467371E+02  0.11516608992E+03  0.15712345153E+03  0.19526273967E+03  0.00000000000E+00 0.  1.
         21    1    1    2  505  503 -0.15636576089E+03  0.14316873673E+03 -0.13041132409E+04  0.13212338489E+04  0.00000000000E+00 0.  1.
          1    1    1    2  501    0  0.22856564017E+02 -0.71665269662E+02  0.11925887255E+04  0.11949586610E+04  0.00000000000E+00 0.  1.
<scales pt_clust_3="14000.00000" pt_clust_4="68.82605" pt_clust_5="214.02186" pt_clust_6="75.22189"></scales>
<clustering>
<clus scale="   75.222">  1  6  2 -1</clus>
<clus scale="   68.826">  1  4  2 -1</clus>
<clus scale="  214.022">  2  5  1 -1</clus>
<clus scale="  214.022">  2  3  1 -1</clus>
</clustering>
</event>
<event>
 6    0  0.6338511E+002  0.1148923E+03  0.7546771E-02  0.1251769E+00
          1   -1    0    0  505    0 -0.00000000000E+00  0.00000000000E+00  0.12900920975E+03  0.12900920975E+03  0.00000000000E+00 0. -1.
         21   -1    0    0  504  502  0.00000000000E+00 -0.00000000000E+00 -0.57174674452E+03  0.57174674452E+03  0.00000000000E+00 0. -1.
         21    1    1    2  503  502 -0.10665657093E+03  0.20589948219E+02 -0.17310116269E+03  0.20436140197E+03  0.00000000000E+00 0. -1.
         21    1    1    2  504  501  0.41616639698E+02  0.57106548403E+02 -0.21898493641E+03  0.23010324844E+03  0.00000000000E+00 0. -1.
         21    1    1    2  505  503  0.12160105500E+03 -0.82565366284E+02 -0.11043550479E+03  0.18384737422E+03  0.00000000000E+00 0. -1.
          1    1    1    2  501    0 -0.56561123777E+02  0.48688696617E+01  0.59784069115E+02  0.82443929641E+02  0.00000000000E+00 0. -1.
<scales pt_clust_3="14000.00000" pt_clust_4="68.00124" pt_clust_5="114.89227" pt_clust_6="56.77030"></scales>
<clustering>
<clus scale="   56.770">  1  6  2 -1</clus>
<clus scale="   68.001">  2  4  1 -1</clus>
<clus scale="  114.892">  1  5  2 -1</clus>
<clus scale="   68.001">  2  3  1 -1</clus>
</clustering>
</event>
<event>
 6    0  0.6338511E+002  0.1424372E+03  0.7546771E-02  0.1210087E+00
         21   -1    0    0  503  502  0.00000000000E+00  0.00000000000E+00  0.42525484964E+03  0.42525484964E+03  0.00000000000E+00 0.  1.
          2   -1    0    0  504    0 -0.00000000000E+00 -0.00000000000E+00 -0.71044624222E+03  0.71044624222E+03  0.00000000000E+00 0.  1.
         21    1    1    2  503  505 -0.15556648551E+02  0.27576208454E+02 -0.80030380605E+01  0.32657391277E+02  0.00000000000E+00 0. -1.
         21    1    1    2  504  502 -0.10055098054E+03  0.29994339037E+02  0.39867157168E+03  0.41224893223E+03  0.00000000000E+00 0.  1.
         21    1    1    2  505  501  0.75205527227E+02 -0.50305689799E+02 -0.56891162012E+03  0.57606159850E+03  0.00000000000E+00 0.  1.
          2    1    1    2  501    0  0.40902101866E+02 -0.72648576930E+01 -0.10694830607E+03  0.11473316986E+03  0.00000000000E+00 0.  1.
<scales pt_clust_3="31.66159" pt_clust_4="129.12370" pt_clust_5="40.70486" pt_clust_6="40.70486"></scales>
<clustering>
<clus scale="   31.662">  1  3  2 -1</clus>
<clus scale="   40.705">  5  6 -1 -1</clus>
<clus scale="  129.124">  1  4  2 -1</clus>
<clus scale="   31.662">  1  3  2 -1</clus>
</clustering>
</event>
<event>
 6    0  0.6338511E+002  0.7197104E+02  0.7546771E-02  0.1353516E+00
          2   -1    0    0  504    0 -0.00000000000E+00  0.00000000000E+00  0.15840276364E+04  0.15840276364E+04  0.00000000000E+00 0.  1.
         21   -1    0    0  505  502  0.00000000000E+00 -0.00000000000E+00 -0.39940642584E+03  0.39940642584E+03  0.00000000000E+00 0. -1.
         21    1    1    2  503  502  0.17205134661E+02  0.40325345724E+02  0.23705353482E+02  0.49840685692E+02  0.00000000000E+00 0.  1.
         21    1    1    2  504  503  0.10467562833E+03 -0.81938219680E+01  0.33877543355E+03  0.35467297650E+03  0.00000000000E+00 0.  1.
         21    1    1    2  505  501 -0.57979916337E+02 -0.60321016107E+01 -0.37514497002E+03  0.37964694847E+03  0.00000000000E+00 0. -1.
          2    1    1    2  501    0 -0.63900846657E+02 -0.26099422146E+02  0.11972853935E+04  0.11992734515E+04  0.00000000000E+00 0.  1.
<scales pt_clust_3="43.84233" pt_clust_4="14000.00000" pt_clust_5="52.99147" pt_clust_6="71.97104"></scales>
<clustering>
<clus scale="   43.842">  2  3  1 -1</clus>
<clus scale="   52.991">  2  5  1 -1</clus>
<clus scale="   71.971">  1  6  2 -1</clus>
<clus scale="   43.842">  2  3  1 -1</clus>
</clustering>
</event>
<event>
 6    0  0.6338511E+002  0.1022209E+03  0.7546771E-02  0.1275694E+00
         21   -1    0    0  504  502  0.00000000000E+00  0.00000000000E+00  0.19720709777E+04  0.19720709777E+04  0.00000000000E+00 0. -1.
          2   -1    0    0  505    0 -0.00000000000E+00 -0.00000000000E+00 -0.99482055066E+02  0.99482055066E+02  0.00000000000E+00 0.  1.
         21    1    1    2  503  502 -0.10348732839E+03  0.25370408571E+01  0.18626468086E+04  0.18655211597E+04  0.00000000000E+00 0. -1.
         21    1    1    2  504  501  0.82951285876E+02  0.21289080751E+02  0.62469332589E+02  0.10600263347E+03  0.00000000000E+00 0.  1.
         21    1    1    2  505  503  0.46159086532E+02  0.42207309177E+01 -0.35572534404E+02  0.58428426668E+02  0.00000000000E+00 0.  1.
          2    1    1    2  501    0 -0.25623044017E+02 -0.28046852526E+02 -0.16954684153E+02  0.41600812925E+02  0.00000000000E+00 0.  1.
<scales pt_clust_3="102.22090" pt_clust_4="14000.00000" pt_clust_5="32.45253" pt_clust_6="37.98903"></scales>
<clustering>
<clus scale="   37.989">  2  6  1 -1</clus>
<clus scale="   32.453">  2  5  1 -1</clus>
<clus scale="  102.221">  1  3  2 -1</clus>
<clus scale="  102.221">  1  3  2 -1</clus>
</clustering>
</event>
<event>
 6    0  0.6338511E+002  0.7706823E+02  0.7546771E-02  0.1337583E+00
         21   -1    0    0  501  502  0.00000000000E+00  0.00000000000E+00  0.10132826775E+03  0.10132826775E+03  0.00000000000E+00 0.  1.
         -3   -1    0    0    0  501 -0.00000000000E+00 -0.00000000000E+00 -0.18389863761E+04  0.18389863761E+04  0.00000000000E+00 0. -1.
         21    1    1    2  503  504 -0.79030556305E+01 -0.85028640840E+02 -0.75052942974E+01  0.85724310985E+02  0.00000000000E+00 0. -1.
         21    1    1    2  504  502 -0.40520882030E+02  0.25119856099E+02  0.44252721100E+02  0.65048077417E+02  0.00000000000E+00 0.  1.
         21    1    1    2  505  503  0.79925108346E+02  0.41481255023E+02 -0.26856188405E+03  0.28325642628E+03  0.00000000000E+00 0.  1.
         -3    1    1    2    0  505 -0.31501170686E+02  0.18427529717E+02 -0.15058436511E+04  0.15062858292E+04  0.00000000000E+00 0. -1.
<scales pt_clust_3="14000.00000" pt_clust_4="48.81489" pt_clust_5="77.06823" pt_clust_6="36.49517"></scales>
<clustering>
<clus scale="   36.495">  2  6  1 -1</clus>
<clus scale="   48.815">  1  4  2 -1</clus>
<clus scale="   77.068">  2  5  1 -1</clus>
<clus scale="   48.815">  1  3  2 -1</clus>
</clustering>
</event>
<event>
 6    0  0.6338511E+002  0.1163365E+03  0.7546771E-02  0.1249266E+00
         21   -1    0    0  503  502  0.00000000000E+00  0.00000000000E+00  0.11188568347E+03  0.11188568347E+03  0.00000000000E+00 0. -1.
          1   -1    0    0  505    0 -0.00000000000E+00 -0.00000000000E+00 -0.64855332852E+03  0.64855332852E+03  0.00000000000E+00 0. -1.
         21    1    1    2  503  504 -0.90027293894E+01  0.13091277442E+03 -0.13866361815E+03  0.19091045713E+03  0.00000000000E+00 0. -1.
         21    1    1    2  504  501  0.34233608609E+01 -0.10151511878E+03 -0.25134345080E+03  0.27109144030E+03  0.00000000000E+00 0. -1.
         21    1    1    2  505  502 -0.25844968346E+02 -0.15250553242E+02  0.71515289601E+02  0.77556291877E+02  0.00000000000E+00 0. -1.
          1    1    1    2  501    0  0.31424336874E+02 -0.14147102394E+02 -0.21817586570E+03  0.22088082268E+03  0.00000000000E+00 0. -1.
<scales pt_clust_3="14000.00000" pt_clust_4="116.33650" pt_clust_5="30.00903" pt_clust_6="33.84696"></scales>
<clustering>
<clus scale="   30.009">  1  5  2 -1</clus>
<clus scale="   33.847">  2  6  1 -1</clus>
<clus scale="  116.337">  2  4  1 -1</clus>
<clus scale="   30.009">  1  3  2 -1</clus>
</clustering>
</event>
<event>
 6    0  0.6338511E+002  0.8569994E+02  0.7546771E-02  0.1313612E+00
          2   -1    0    0  505    0 -0.00000000000E+00  0.00000000000E+00  0.20117302217E+04  0.20117302217E+04  0.00000000000E+00 0. -1.
         21   -1    0    0  503  502  0.00000000000E+00 -0.00000000000E+00 -0.33109785516E+03  0.33109785516E+03  0.00000000000E+00 0. -1.
         21    1    1    2  503  504  0.97401072232E+02  0.20614916983E+02 -0.20060770579E+03  0.22395400264E+03  0.00000000000E+00 0. -1.
         21    1    1    2  504  501 -0.23960300509E+02 -0.44173322088E+02  0.24472065405E+03  0.24982709401E+03  0.00000000000E+00 0. -1.
         21    1    1    2  505  502 -0.66468449821E+02  0.59564362938E+02 -0.98912365657E+02  0.13322771571E+03  0.00000000000E+00 0.  1.
          2    1    1    2  501    0 -0.69723219016E+01 -0.36005957833E+02  0.17354317839E+04  0.17358192645E+04  0.00000000000E+00 0. -1.
<scales pt_clust_3="85.69994" pt_clust_4="82.17215" pt_clust_5="14000.00000" pt_clust_6="36.67482"></scales>
<clustering>
<clus scale="   36.675">  1  6  2 -1</clus>
<clus scale="   82.172">  1  4  2 -1</clus>
<clus scale="   85.700">  2  3  1 -1</clus>
<clus scale="   85.700">  2  3  1 -1</clus>
</clustering>
</event>
<event>
 6    0  0.6338511E+002  0.1172207E+03  0.7546771E-02  0.1247754E+00
         -3   -1    0    0    0  501 -0.00000000000E+00  0.00000000000E+00  0.76067063873E+03  0.76067063873E+03  0.00000000000E+00 0. -1.
         21   -1    0    0  503  502  0.00000000000E+00 -0.00000000000E+00 -0.92984757562E+03  0.92984757562E+03  0.00000000000E+00 0.  1.
         21    1    1    2  503  501  0.11353634943E+03  0.67471360934E+02 -0.23388065612E+02  0.13412639114E+03  0.00000000000E+00 0. -1.
         21    1    1    2  504  502 -0.50121462859E+02 -0.51839153387E+01 -0.54840309553E+03  0.55071316419E+03  0.00000000000E+00 0.  1.
         21    1    1    2  505  504 -0.52933821468E+02 -0.23744324521E+02 -0.29816768086E+03  0.30375935921E+03  0.00000000000E+00 0.  1.
         -3    1    1    2    0  505 -0.10481065100E+02 -0.38543121075E+02  0.70078190511E+03  0.70191929980E+03  0.00000000000E+00 0. -1.
<scales pt_clust_3="108.42838" pt_clust_4="41.20032" pt_clust_5="41.20032" pt_clust_6="39.94277"></scales>
<clustering>
<clus scale="   39.943">  1  6  2 -1</clus>
<clus scale="   41.200">  4  5 -1 -1</clus>
<clus scale="  108.428">  1  3  2 -1</clus>
<clus scale="  117.221">  2  3  1 -1</clus>
</clustering>
</event>
<event>
 6    0  0.6338511E+002  0.1128198E+03  0.7546771E-02  0.1255435E+00
         -3   -1    0    0    0  501 -0.00000000000E+00  0.00000000000E+00  0.66822072496E+03  0.66822072496E+03  0.00000000000E+00 0. -1.
         21   -1    0    0  505  502  0.00000000000E+00 -0.00000000000E+00 -0.56132920015E+03  0.56132920015E+03  0.00000000000E+00 0. -1.
         21    1    1    2  503  502  0.95039704549E+02 -0.70482903106E+02 -0.48900889091E+03  0.50312034391E+03  0.00000000000E+00 0. -1.
         21    1    1    2  504  503 -0.58672443826E+02  0.17305727612E+01  0.71941230856E+02  0.92849293178E+02  0.00000000000E+00 0.  1.
         21    1    1    2  505  501  0.23982736650E+01  0.52557839102E+02 -0.41223043545E+02  0.66838742409E+02  0.00000000000E+00 0.  1.
         -3    1    1    2    0  504 -0.38765534387E+02  0.16194491242E+02  0.56518222841E+03  0.56674154560E+03  0.00000000000E+00 0. -1.
<scales pt_clust_3="14000.00000" pt_clust_4="112.81977" pt_clust_5="54.64146" pt_clust_6="42.01224"></scales>
<clustering>
<clus scale="   42.012">  1  6  2 -1</clus>
<clus scale="   54.641">  1  5  2 -1</clus>
<clus scale="  112.820">  1  4  2 -1</clus>
<clus scale="  112.820">  2  3  1 -1</clus>
</clustering>
</event>
<event>
 6    0  0.6338511E+002  0.1492468E+03  0.7546771E-02  0.1201402E+00
         21   -1    0    0  505  502  0.00000000000E+00  0.00000000000E+00  0.51120631930E+03  0.51120631930E+03  0.00000000000E+00 0. -1.
          2   -1    0    0  503    0 -0.00000000000E+00 -0.00000000000E+00 -0.30008732807E+03  0.30008732807E+03  0.00000000000E+00 0.  1.
         21    1    1    2  503  504 -0.22498750478E+02  0.10995182477E+03  0.26115360999E+03  0.28424778900E+03  0.00000000000E+00 0. -1.
         21    1    1    2  504  502  0.19275940186E+02  0.35442014492E+02  0.21661751640E+03  0.22034256664E+03  0.00000000000E+00 0. -1.
         21    1    1    2  505  501  0.12454061729E+02 -0.69137922244E+02 -0.16467649796E+03  0.17903492656E+03  0.00000000000E+00 0.  1.
          2    1    1    2  501    0 -0.92312514372E+01 -0.76255917019E+02 -0.10197563719E+03  0.12766836517E+03  0.00000000000E+00 0.  1.
<scales pt_clust_3="143.04134" pt_clust_4="40.34474" pt_clust_5="40.94566" pt_clust_6="40.94566"></scales>
<clustering>
<clus scale="   40.345">  1  4  2 -1</clus>
<clus scale="   40.946">  5  6 -1 -1</clus>
<clus scale="  143.041">  1  3  2 -1</clus>
<clus scale="   40.345">  1  3  2 -1</clus>
</clustering>
</event>
<event>
 6    0  0.6338511E+002  0.1217407E+03  0.7546771E-02  0.1240253E+00
         21   -1    0    0  504  502  0.00000000000E+00  0.00000000000E+00  0.10400689421E+03  0.10400689421E+03  0.00000000000E+00 0.  1.
          1   -1    0    0  505    0 -0.00000000000E+00 -0.00000000000E+00 -0.14231834476E+04  0.14231834476E+04  0.00000000000E+00 0.  1.
         21    1    1    2  503  501  0.12913050197E+03  0.49480490700E+02 -0.31894055813E+03  0.34762923514E+03  0.00000000000E+00 0.  1.
         21    1    1    2  504  503  0.62258793443E+02  0.49795146664E+02  0.46364945978E+02  0.92224845936E+02  0.00000000000E+00 0.  1.
         21    1    1    2  505  502 -0.13650894723E+03 -0.43853149525E+02 -0.26030133803E+03  0.29717768755E+03  0.00000000000E+00 0.  1.
          1    1    1    2  501    0 -0.54880348189E+02 -0.55422487840E+02 -0.78629960317E+03  0.79015857315E+03  0.00000000000E+00 0.  1.
<scales pt_clust_3="121.74070" pt_clust_4="76.92557" pt_clust_5="14000.00000" pt_clust_6="77.99683"></scales>
<clustering>
<clus scale="   77.997">  2  6  1 -1</clus>
<clus scale="   76.926">  1  4  2 -1</clus>
<clus scale="  121.741">  2  3  1 -1</clus>
<clus scale="   76.926">  1  3  2 -1</clus>
</clustering>
</event>
<event>
 6    0  0.6338511E+002  0.1396022E+03  0.7546771E-02  0.1213865E+00
          2   -1    0    0  503    0 -0.00000000000E+00  0.00000000000E+00  0.22498645751E+04  0.22498645751E+04  0.00000000000E+00 0. -1.
         21   -1    0    0  505  502  0.00000000000E+00 -0.00000000000E+00 -0.19152470564E+04  0.19152470564E+04  0.00000000000E+00 0.  1.
         21    1    1    2  503  504  0.13548549906E+03 -0.87564248775E+02  0.26828132351E+02  0.16353460430E+03  0.00000000000E+00 0.  1.
         21    1    1    2  504  502 -0.40956298447E+01  0.52246232180E+02 -0.18259823190E+04  0.18267342095E+04  0.00000000000E+00 0.  1.
         21    1    1    2  505  501 -0.13979946607E+03 -0.39272474406E+01  0.22025549997E+03  0.26090572867E+03  0.00000000000E+00 0. -1.
          2    1    1    2  501    0  0.84095968588E+01  0.39245264036E+02  0.19135162054E+04  0.19139370889E+04  0.00000000000E+00 0. -1.
<scales pt_clust_3="139.60217" pt_clust_4="52.44954" pt_clust_5="14000.00000" pt_clust_6="40.13617"></scales>
<clustering>
<clus scale="   40.136">  1  6  2 -1</clus>
<clus scale="   52.450">  2  4  1 -1</clus>
<clus scale="  139.602">  2  3  1 -1</clus>
<clus scale="   52.450">  2  3  1 -1</clus>
</clustering>
</event>
<event>
 6    0  0.6338511E+002  0.1147151E+03  0.7546771E-02  0.1252079E+00
         21   -1    0    0  504  502  0.00000000000E+00  0.00000000000E+00  0.25449077894E+03  0.25449077894E+03  0.00000000000E+00 0.  1.
          4   -1    0    0  503    0 -0.00000000000E+00 -0.00000000000E+00 -0.51971007737E+03  0.51971007737E+03  0.00000000000E+00 0. -1.
         21    1    1    2  503  505  0.14045585030E+02 -0.49220997898E+02 -0.56681032162E+02  0.76372275728E+02  0.00000000000E+00 0.  1.
         21    1    1    2  504  501 -0.99421586548E+02  0.63219504401E+02  0.22172038711E+03  0.25108024149E+03  0.00000000000E+00 0.  1.
         21    1    1    2  505  502  0.81861515091E+02  0.17937526121E+02 -0.25064910180E+03  0.26428778770E+03  0.00000000000E+00 0. -1.
          4    1    1    2  501    0  0.35144864271E+01 -0.31936032624E+02 -0.17960955157E+03  0.18246055138E+03  0.00000000000E+00 0. -1.
<scales pt_clust_3="57.41743" pt_clust_4="14000.00000" pt_clust_5="114.71514" pt_clust_6="32.12883"></scales>
<clustering>
<clus scale="   32.129">  2  6  1 -1</clus>
<clus scale="   57.417">  2  3  1 -1</clus>
<clus scale="  114.715">  2  5  1 -1</clus>
<clus scale="  114.715">  1  3  2 -1</clus>
</clustering>
</event>
<event>
 6    0  0.6338511E+002  0.1026445E+03  0.7546771E-02  0.1274831E+00
          1   -1    0    0  505    0 -0.00000000000E+00  0.00000000000E+00  0.10404084923E+04  0.10404084923E+04  0.00000000000E+00 0. -1.
         21   -1    0    0  503  502  0.00000000000E+00 -0.00000000000E+00 -0.52414848215E+03  0.52414848215E+03  0.00000000000E+00 0. -1.
         21    1    1    2  503  504  0.46011319720E+02 -0.27281089043E+02 -0.38994671111E+03  0.39359844622E+03  0.00000000000E+00 0. -1.
         21    1    1    2  504  501 -0.22890323765E+02  0.56341261776E+02  0.97975456505E+01  0.61597861987E+02  0.00000000000E+00 0.  1.
         21    1    1    2  505  502  0.80091541360E+02 -0.26347798424E+02 -0.86646074786E+02  0.12089831990E+03  0.00000000000E+00 0. -1.
          1    1    1    2  501    0 -0.10321253732E+03 -0.27123743085E+01  0.98305525040E+03  0.98846234636E+03  0.00000000000E+00 0. -1.
<scales pt_clust_3="53.49111" pt_clust_4="52.86054" pt_clust_5="14000.00000" pt_clust_6="102.64446"></scales>
<clustering>
<clus scale="   53.491">  2  3  1 -1</clus>
<clus scale="   52.861">  2  4  1 -1</clus>
<clus scale="  102.644">  1  6  2 -1</clus>
<clus scale="   53.491">  2  3  1 -1</clus>
</clustering>
</event>
<event>
 6    0  0.6338511E+002  0.9962988E+02  0.7546771E-02  0.1281076E+00
         21   -1    0    0  505  502  0.00000000000E+00  0.00000000000E+00  0.78297730352E+02  0.78297730352E+02  0.00000000000E+00 0. -1.
          2   -1    0    0  503    0 -0.00000000000E+00 -0.00000000000E+00 -0.37936035022E+04  0.37936035022E+04  0.00000000000E+00 0. -1.
         21    1    1    2  503  502 -0.53971666594E+01 -0.83429305902E+02 -0.38311298986E+03  0.39212898578E+03  0.00000000000E+00 0. -1.
         21    1    1    2  504  501 -0.74910290190E+02  0.10447450912E+03 -0.37602237157E+03  0.39739061206E+03  0.00000000000E+00 0. -1.
         21    1    1    2  505  504  0.43230036663E+02  0.39143162089E+01  0.55455817876E+02  0.70423757906E+02  0.00000000000E+00 0. -1.
          2    1    1    2  501    0  0.37077420186E+02 -0.24959519422E+02 -0.30116262283E+04  0.30119578768E+04  0.00000000000E+00 0. -1.
<scales pt_clust_3="99.62988" pt_clust_4="14000.00000" pt_clust_5="43.40689" pt_clust_6="45.06036"></scales>
<clustering>
<clus scale="   43.407">  1  5  2 -1</clus>
<clus scale="   45.060">  2  6  1 -1</clus>
<clus scale="   99.630">  2  3  1 -1</clus>
<clus scale="   43.407">  1  3  2 -1</clus>
</clustering>
</event>
<event>
 6    0  0.6338511E+002  0.1053101E+03  0.7546771E-02  0.1269510E+00
          2   -1    0    0  505    0 -0.00000000000E+00  0.00000000000E+00  0.29415533841E+04  0.29415533841E+04  0.00000000000E+00 0.  1.
         21   -1    0    0  504  502  0.00000000000E+00 -0.00000000000E+00 -0.20357321454E+03  0.20357321454E+03  0.00000000000E+00 0.  1.
         21    1    1    2  503  501 -0.70152266952E+02 -0.46937180964E+02  0.25071811852E+01  0.84443623044E+02  0.00000000000E+00 0.  1.
         21    1    1    2  504  503 -0.52192254283E+00 -0.39777491979E+02 -0.44574416615E+02  0.59744454871E+02  0.00000000000E+00 0.  1.
         21    1    1    2  505  502  0.29728563895E+02 -0.11205285810E+02 -0.10716541312E+03  0.11177554165E+03  0.00000000000E+00 0.  1.
          2    1    1    2  501    0  0.40945625599E+02  0.97919958753E+02  0.28872128182E+04  0.28891629791E+04  0.00000000000E+00 0.  1.
<scales pt_clust_3="14000.00000" pt_clust_4="48.67779" pt_clust_5="31.77021" pt_clust_6="105.31010"></scales>
<clustering>
<clus scale="   31.770">  2  5  1 -1</clus>
<clus scale="   48.678">  2  4  1 -1</clus>
<clus scale="  105.310">  1  6  2 -1</clus>
<clus scale="   31.770">  2  3  1 -1</clus>
</clustering>
</event>
<event>
 6    0  0.6338511E+002  0.9549010E+02  0.7546771E-02  0.1290076E+00
         21   -1    0    0  501  502  0.00000000000E+00  0.00000000000E+00  0.48553682025E+02  0.48553682025E+02  0.00000000000E+00 0. -1.
          2   -1    0    0  505    0 -0.00000000000E+00 -0.00000000000E+00 -0.84753630036E+03  0.84753630036E+03  0.00000000000E+00 0. -1.
         21    1    1    2  503  502  0.30582628520E+02 -0.94208673198E+02 -0.14146957976E+03  0.17269688263E+03  0.00000000000E+00 0. -1.
         21    1    1    2  504  503 -0.11485635273E+03  0.52924507462E+02 -0.24442147558E+03  0.27519964204E+03  0.00000000000E+00 0. -1.
         21    1    1    2  505  504  0.72544918958E+02 -0.40661203290E+02 -0.27389290105E+03  0.28624014387E+03  0.00000000000E+00 0. -1.
          2    1    1    2  501    0  0.11728805249E+02  0.81945369026E+02 -0.13919866194E+03  0.16195331384E+03  0.00000000000E+00 0. -1.
<scales pt_clust_3="69.54141" pt_clust_4="95.49010" pt_clust_5="14000.00000" pt_clust_6="82.78048"></scales>
<clustering>
<clus scale="   82.780">  1  6  2 -1</clus>
<clus scale="   69.541">  1  3  2 -1</clus>
<clus scale="   95.490">  1  4  2 -1</clus>
<clus scale="   82.780">  1  3  2 -1</clus>
</clustering>
</event>
<event>
 6    0  0.6338511E+002  0.1268244E+03  0.7546771E-02  0.1232245E+00
         21   -1    0    0  504  502  0.00000000000E+00  0.00000000000E+00  0.11380205192E+04  0.11380205192E+04  0.00000000000E+00 0.  1.
          1   -1    0    0  502    0 -0.00000000000E+00 -0.00000000000E+00 -0.18054592686E+04  0.18054592686E+04  0.00000000000E+00 0.  1.
         21    1    1    2  503  505  0.10605323924E+02 -0.41054779247E+02  0.17621793529E+03  0.18124769933E+03  0.00000000000E+00 0.  1.
         21    1    1    2  504  503 -0.35087610049E+02  0.87851810852E+02  0.71018278585E+03  0.71645563043E+03  0.00000000000E+00 0.  1.
         21    1    1    2  505  501  0.29523749106E+02 -0.13792636306E+03  0.22448012404E+03  0.26511631311E+03  0.00000000000E+00 0.  1.
          1    1    1    2  501    0 -0.50414629807E+01  0.91129331453E+02 -0.17783195946E+04  0.17806601450E+04  0.00000000000E+00 0.  1.
<scales pt_clust_3="38.91408" pt_clust_4="105.10524" pt_clust_5="38.91408" pt_clust_6="91.26868"></scales>
<clustering>
<clus scale="   38.914">  3  5 -1 -1</clus>
<clus scale="   91.269">  2  6  1 -1</clus>
<clus scale="  105.105">  1  4  2 -1</clus>
<clus scale="  105.105">  1  3  2 -1</clus>
</clustering>
</event>
<event>
 6    0  0.6756207E+002  0.1295304E+03  0.7546771E-02  0.1228154E+00
         21   -1    0    0  501  502  0.00000000000E+00  0.00000000000E+00  0.22724298956E+03  0.22724298956E+03  0.00000000000E+00 0. -1.
          2   -1    0    0  505    0 -0.00000000000E+00 -0.00000000000E+00 -0.10345498010E+04  0.10345498010E+04  0.00000000000E+00 0. -1.
         21    1    1    2  503  504 -0.95694212991E+02  0.32693007106E+02  0.68473485599E+02  0.12212630079E+03  0.00000000000E+00 0. -1.
         21    1    1    2  504  502 -0.33440744534E+02  0.27838110072E+01  0.12038650452E+03  0.12497577153E+03  0.00000000000E+00 0. -1.
         21    1    1    2  505  503  0.21314185173E+02 -0.37700370132E+02 -0.70335579677E+02  0.82599674128E+02  0.00000000000E+00 0.  1.
          2    1    1    2  501    0  0.10782077235E+03  0.22235520184E+01 -0.92583122187E+03  0.93209104412E+03  0.00000000000E+00 0. -1.
<scales pt_clust_3="14000.00000" pt_clust_4="33.55642" pt_clust_5="42.23240" pt_clust_6="129.53040"></scales>
<clustering>
<clus scale="   33.556">  1  4  2 -1</clus>
<clus scale="   42.232">  2  5  1 -1</clus>
<clus scale="  129.530">  2  6  1 -1</clus>
<clus scale="   33.556">  1  3  2 -1</clus>
</clustering>
</event>
<event>
 6    0  0.6338511E+002  0.1143813E+03  0.7546771E-02  0.1252665E+00
          2   -1    0    0  503    0 -0.00000000000E+00  0.00000000000E+00  0.95709149750E+03  0.95709149750E+03  0.00000000000E+00 0.  1.
         21   -1    0    0  501  502  0.00000000000E+00 -0.00000000000E+00 -0.75042776071E+03  0.75042776071E+03  0.00000000000E+00 0.  1.
         21    1    1    2  503  504  0.67957200971E+02  0.11289624987E+02  0.55978137005E+03  0.56400427219E+03  0.00000000000E+00 0.  1.
         21    1    1    2  504  505 -0.10990333742E+03  0.88393220403E+02 -0.42329324491E+03  0.44617180119E+03  0.00000000000E+00 0.  1.
         21    1    1    2  505  502  0.67337364545E+02  0.18117001922E+02 -0.30002565416E+03  0.30802262835E+03  0.00000000000E+00 0.  1.
          2    1    1    2  501    0 -0.25391228098E+02 -0.11779984731E+03  0.37020126581E+03  0.38932055648E+03  0.00000000000E+00 0.  1.
<scales pt_clust_3="68.88858" pt_clust_4="114.38134" pt_clust_5="70.42563" pt_clust_6="14000.00000"></scales>
<clustering>
<clus scale="   68.889">  1  3  2 -1</clus>
<clus scale="   70.426">  2  5  1 -1</clus>
<clus scale="  114.381">  2  4  1 -1</clus>
<clus scale="   70.426">  2  3  1 -1</clus>
</clustering>
</event>
<event>
 6    0  0.6338511E+002  0.1469756E+03  0.7546771E-02  0.1204239E+00
         21   -1    0    0  503  502  0.00000000000E+00  0.00000000000E+00  0.67546700029E+03  0.67546700029E+03  0.00000000000E+00 0. -1.
          2   -1    0    0  504    0 -0.00000000000E+00 -0.00000000000E+00 -0.12813644566E+04  0.12813644566E+04  0.00000000000E+00 0.  1.
         21    1    1    2  503  501  0.21271537833E+01  0.12690727411E+03 -0.21197533183E+03  0.24706987333E+03  0.00000000000E+00 0.  1.
         21    1    1    2  504  505 -0.32134411125E+02 -0.16222111159E+03 -0.42997800061E+03  0.46068361207E+03  0.00000000000E+00 0.  1.
         21    1    1    2  505  502 -0.28473601203E+01  0.41618541456E+02  0.64142754985E+03  0.64278263213E+03  0.00000000000E+00 0. -1.
          2    1    1    2  501    0  0.32854617462E+02 -0.63047039702E+01 -0.60537167368E+03  0.60629533932E+03  0.00000000000E+00 0.  1.
<scales pt_clust_3="146.97562" pt_clust_4="14000.00000" pt_clust_5="41.70728" pt_clust_6="33.45408"></scales>
<clustering>
<clus scale="   33.454">  2  6  1 -1</clus>
<clus scale="   41.707">  1  5  2 -1</clus>
<clus scale="  146.976">  1  3  2 -1</clus>
<clus scale="   41.707">  1  3  2 -1</clus>
</clustering>
</event>
<event>
 6    0  0.6338511E+002  0.1475601E+03  0.7546771E-02  0.1203504E+00
          1   -1    0    0  503    0 -0.00000000000E+00  0.00000000000E+00  0.27646945583E+03  0.27646945583E+03  0.00000000000E+00 0.  1.
         21   -1    0    0  504  502  0.00000000000E+00 -0.00000000000E+00 -0.82789225575E+03  0.82789225575E+03  0.00000000000E+00 0.  1.
         21    1    1    2  503  502  0.50162185146E+02  0.11645409174E+02 -0.35179778570E+03  0.35554682167E+03  0.00000000000E+00 0.  1.
         21    1    1    2  504  505 -0.72310581941E+02 -0.21702107579E+02 -0.27423535449E+03  0.28443774607E+03  0.00000000000E+00 0.  1.
         21    1    1    2  505  501 -0.11321892120E+03 -0.55543669358E+02 -0.14879584589E+03  0.19504826858E+03  0.00000000000E+00 0.  1.
          1    1    1    2  501    0  0.13536731799E+03  0.65600367763E+02  0.22340618616E+03  0.26932887526E+03  0.00000000000E+00 0.  1.
<scales pt_clust_3="51.49622" pt_clust_4="45.26542" pt_clust_5="147.56009" pt_clust_6="14000.00000"></scales>
<clustering>
<clus scale="   51.496">  2  3  1 -1</clus>
<clus scale="   45.265">  2  4  1 -1</clus>
<clus scale="  147.560">  2  5  1 -1</clus>
<clus scale="   51.496">  2  3  1 -1</clus>
</clustering>
</event>
<event>
 6    0  0.6338511E+002  0.2676828E+03  0.7546771E-02  0.1102613E+00
         21   -1    0    0  503  502  0.00000000000E+00  0.00000000000E+00  0.49618599371E+03  0.49618599371E+03  0.00000000000E+00 0. -1.
          3   -1    0    0  504    0 -0.00000000000E+00 -0.00000000000E+00 -0.10075589396E+04  0.10075589396E+04  0.00000000000E+00 0. -1.
         21    1    1    2  503  501 -0.23949181196E+02 -0.26856542562E+02  0.15928526605E+01  0.36019082969E+02  0.00000000000E+00 0.  1.
         21    1    1    2  504  505  0.23479936942E+03 -0.23229130581E+03 -0.28965172518E+03  0.43930412761E+03  0.00000000000E+00 0. -1.
         21    1    1    2  505  502 -0.10295812634E+03  0.25085511689E+03  0.35125931330E+03  0.44374741761E+03  0.00000000000E+00 0. -1.
          3    1    1    2  501    0 -0.10789206188E+03  0.82927314769E+01 -0.57457338663E+03  0.58467430509E+03  0.00000000000E+00 0. -1.
<scales pt_clust_3="35.98385" pt_clust_4="14000.00000" pt_clust_5="267.68281" pt_clust_6="108.44156"></scales>
<clustering>
<clus scale="   35.984">  1  3  2 -1</clus>
<clus scale="  108.442">  2  6  1 -1</clus>
<clus scale="  267.683">  1  5  2 -1</clus>
<clus scale="   35.984">  1  3  2 -1</clus>
</clustering>
</event>
<event>
 6    0  0.6338511E+002  0.1752712E+03  0.7546771E-02  0.1172460E+00
          2   -1    0    0  505    0 -0.00000000000E+00  0.00000000000E+00  0.36475451704E+04  0.36475451704E+04  0.00000000000E+00 0. -1.
         21   -1    0    0  504  502  0.00000000000E+00 -0.00000000000E+00 -0.20148831499E+03  0.20148831499E+03  0.00000000000E+00 0.  1.
         21    1    1    2  503  501 -0.34215242654E+02  0.13344044831E+03  0.17417948686E+03  0.22207100152E+03  0.00000000000E+00 0.  1.
         21    1    1    2  504  503 -0.45007609868E+02 -0.18084868289E+01  0.76694750416E+01  0.45692192091E+02  0.00000000000E+00 0.  1.
         21    1    1    2  505  502  0.65542408006E+02 -0.18616649901E+03 -0.96775646101E+02  0.21981651047E+03  0.00000000000E+00 0.  1.
          2    1    1    2  501    0  0.13680444516E+02  0.54534537523E+02  0.33609835396E+04  0.33614537813E+04  0.00000000000E+00 0. -1.
<scales pt_clust_3="175.27124" pt_clust_4="45.04393" pt_clust_5="14000.00000" pt_clust_6="56.20794"></scales>
<clustering>
<clus scale="   45.044">  2  4  1 -1</clus>
<clus scale="   56.208">  1  6  2 -1</clus>
<clus scale="  175.271">  1  3  2 -1</clus>
<clus scale="   45.044">  2  3  1 -1</clus>
</clustering>
</event>
<event>
 6    0  0.6338511E+002  0.7565245E+02  0.7546771E-02  0.1341862E+00
         21   -1    0    0  505  502  0.00000000000E+00  0.00000000000E+00  0.15512239811E+04  0.15512239811E+04  0.00000000000E+00 0. -1.
          2   -1    0    0  504    0 -0.00000000000E+00 -0.00000000000E+00 -0.10576884019E+03  0.10576884019E+03  0.00000000000E+00 0.  1.
         21    1    1    2  503  502  0.62136397129E+02 -0.11351796147E+02  0.13635016075E+04  0.13649638929E+04  0.00000000000E+00 0. -1.
         21    1    1    2  504  503  0.31158504279E+02  0.42734021023E+01 -0.20376720724E+02  0.37474325903E+02  0.00000000000E+00 0. -1.
         21    1    1    2  505  501 -0.34069286674E+02 -0.64437890727E+02  0.13720560890E+03  0.15536517360E+03  0.00000000000E+00 0. -1.
          2    1    1    2  501    0 -0.59225614734E+02  0.71516284772E+02 -0.34875354818E+02  0.99189428882E+02  0.00000000000E+00 0.  1.
<scales pt_clust_3="63.44922" pt_clust_4="31.45019" pt_clust_5="75.65245" pt_clust_6="14000.00000"></scales>
<clustering>
<clus scale="   31.450">  2  4  1 -1</clus>
<clus scale="   63.449">  1  3  2 -1</clus>
<clus scale="   75.652">  1  5  2 -1</clus>
<clus scale="   63.449">  1  3  2 -1</clus>
</clustering>
</event>
<event>
 6    0  0.6338511E+002  0.1286279E+03  0.7546771E-02  0.1229506E+00
         21   -1    0    0  504  502  0.00000000000E+00  0.00000000000E+00  0.20019285681E+03  0.20019285681E+03  0.00000000000E+00 0.  1.
          2   -1    0    0  505    0 -0.00000000000E+00 -0.00000000000E+00 -0.26474229261E+03  0.26474229261E+03  0.00000000000E+00 0.  1.
         21    1    1    2  503  501  0.52197219563E+01 -0.48844773642E+02  0.26137809851E+02  0.55643890170E+02  0.00000000000E+00 0.  1.
         21    1    1    2  504  503  0.10252153552E+02 -0.72751911268E+02  0.12710753611E+03  0.14681373567E+03  0.00000000000E+00 0.  1.
         21    1    1    2  505  502 -0.34090003674E+02  0.31524404559E+02 -0.36046717320E+02  0.58781649031E+02  0.00000000000E+00 0.  1.
          2    1    1    2  501    0  0.18618128165E+02  0.90072280352E+02 -0.18174806444E+03  0.20369587455E+03  0.00000000000E+00 0.  1.
<scales pt_clust_3="40.71880" pt_clust_4="40.71880" pt_clust_5="46.43185" pt_clust_6="118.59731"></scales>
<clustering>
<clus scale="   40.719">  3  4 -1 -1</clus>
<clus scale="   46.432">  2  5  1 -1</clus>
<clus scale="  118.597">  2  6  1 -1</clus>
<clus scale="  128.628">  1  3  2 -1</clus>
</clustering>
</event>
<event>
 6    0  0.6338511E+002  0.7207764E+02  0.7546771E-02  0.1353167E+00
          2   -1    0    0  503    0 -0.00000000000E+00  0.00000000000E+00  0.74124677209E+02  0.74124677209E+02  0.00000000000E+00 0.  1.
         21   -1    0    0  505  502  0.00000000000E+00 -0.00000000000E+00 -0.11329514596E+04  0.11329514596E+04  0.00000000000E+00 0. -1.
         21    1    1    2  503  504 -0.14221585398E+02 -0.99790030315E+02 -0.34555210183E+03  0.35995355079E+03  0.00000000000E+00 0. -1.
         21    1    1    2  504  502 -0.43805949773E+01  0.35014928985E+02 -0.65026082937E+03  0.65121761422E+03  0.00000000000E+00 0. -1.
         21    1    1    2  505  501 -0.37695871452E+02  0.20048930574E+02 -0.10450503958E+03  0.11289039658E+03  0.00000000000E+00 0.  1.
          2    1    1    2  501    0  0.56298051828E+02  0.44726170757E+02  0.41491188372E+02  0.83014575242E+02  0.00000000000E+00 0.  1.
<scales pt_clust_3="72.07764" pt_clust_4="35.28789" pt_clust_5="47.71943" pt_clust_6="14000.00000"></scales>
<clustering>
<clus scale="   35.288">  2  4  1 -1</clus>
<clus scale="   47.719">  2  5  1 -1</clus>
<clus scale="   72.078">  2  3  1 -1</clus>
<clus scale="   35.288">  2  3  1 -1</clus>
</clustering>
</event>
<event>
 6    0  0.6338511E+002  0.1165642E+03  0.7546771E-02  0.1248875E+00
         21   -1    0    0  505  502  0.00000000000E+00  0.00000000000E+00  0.28745509811E+03  0.28745509811E+03  0.00000000000E+00 0. -1.
          2   -1    0    0  503    0 -0.00000000000E+00 -0.00000000000E+00 -0.39170068398E+03  0.39170068398E+03  0.00000000000E+00 0.  1.
         21    1    1    2  503  502  0.40636285987E+02 -0.88485710554E+02  0.17421701386E+01  0.97386158502E+02  0.00000000000E+00 0. -1.
         21    1    1    2  504  501 -0.70986448466E+02  0.12260467150E+03 -0.11060586932E+03  0.17973491500E+03  0.00000000000E+00 0.  1.
         21    1    1    2  505  504 -0.40335405073E+02  0.45764051134E+02  0.18371593254E+03  0.19357902042E+03  0.00000000000E+00 0. -1.
          2    1    1    2  501    0  0.70685567552E+02 -0.79883012083E+02 -0.17909781922E+03  0.20845568817E+03  0.00000000000E+00 0.  1.
<scales pt_clust_3="68.63229" pt_clust_4="116.56417" pt_clust_5="61.00240" pt_clust_6="14000.00000"></scales>
<clustering>
<clus scale="   61.002">  1  5  2 -1</clus>
<clus scale="   68.632">  1  3  2 -1</clus>
<clus scale="  116.564">  1  4  2 -1</clus>
<clus scale="   61.002">  1  3  2 -1</clus>
</clustering>
</event>
<event>
 6    0  0.6338511E+002  0.1274332E+03  0.7546771E-02  0.1231315E+00
         -3   -1    0    0    0  501 -0.00000000000E+00  0.00000000000E+00  0.25313968459E+03  0.25313968459E+03  0.00000000000E+00 0.  1.
         21   -1    0    0  504  502  0.00000000000E+00 -0.00000000000E+00 -0.10407418528E+04  0.10407418528E+04  0.00000000000E+00 0.  1.
         21    1    1    2  503  505 -0.17109561332E+03 -0.73470492559E+02  0.98001827228E+01  0.18646089605E+03  0.00000000000E+00 0. -1.
         21    1    1    2  504  501 -0.25340244264E+02  0.22230670106E+02 -0.78652171621E+02  0.85571576902E+02  0.00000000000E+00 0. -1.
         21    1    1    2  505  502  0.13084992425E+03  0.38240471466E+02 -0.85726751408E+03  0.86803895479E+03  0.00000000000E+00 0.  1.
         -3    1    1    2    0  503  0.65585933336E+02  0.12999350986E+02  0.13851733481E+03  0.15381010961E+03  0.00000000000E+00 0.  1.
<scales pt_clust_3="14000.00000" pt_clust_4="33.70950" pt_clust_5="127.43316" pt_clust_6="66.69833"></scales>
<clustering>
<clus scale="   33.710">  2  4  1 -1</clus>
<clus scale="   66.698">  1  6  2 -1</clus>
<clus scale="  127.433">  2  5  1 -1</clus>
<clus scale="   33.710">  2  3  1 -1</clus>
</clustering>
</event>
<event>
 6    0  0.6338511E+002  0.9442771E+02  0.7546771E-02  0.1292470E+00
          1   -1    0    0  503    0 -0.00000000000E+00  0.00000000000E+00  0.78742464167E+03  0.78742464167E+03  0.00000000000E+00 0.  1.
         21   -1    0    0  501  502  0.00000000000E+00 -0.00000000000E+00 -0.35330872939E+03  0.35330872939E+03  0.00000000000E+00 0. -1.
         21    1    1    2  503  504 -0.33286324320E+02  0.11652875407E+03 -0.25160422895E+02  0.12377389382E+03  0.00000000000E+00 0. -1.
         21    1    1    2  504  505  0.82075551685E+02 -0.38551156669E+02  0.28886438227E+02  0.95168346514E+02  0.00000000000E+00 0. -1.
         21    1    1    2  505  502 -0.33907646303E+02  0.14565102036E+02 -0.24104086499E+03  0.24384948077E+03  0.00000000000E+00 0. -1.
          1    1    1    2  501    0 -0.14881581062E+02 -0.92542699437E+02  0.67143076193E+03  0.67794164996E+03  0.00000000000E+00 0.  1.
<scales pt_clust_3="94.42771" pt_clust_4="79.65375" pt_clust_5="36.90353" pt_clust_6="14000.00000"></scales>
<clustering>
<clus scale="   36.904">  2  5  1 -1</clus>
<clus scale="   79.654">  2  4  1 -1</clus>
<clus scale="   94.428">  2  3  1 -1</clus>
<clus scale="   36.904">  2  3  1 -1</clus>
</clustering>
</event>
<event>
 6    0  0.6338511E+002  0.1171435E+03  0.7546771E-02  0.1247885E+00
         -2   -1    0    0    0  501 -0.00000000000E+00  0.00000000000E+00  0.38759977456E+03  0.38759977456E+03  0.00000000000E+00 0.  1.
         21   -1    0    0  503  502  0.00000000000E+00 -0.00000000000E+00 -0.24800785378E+03  0.24800785378E+03  0.00000000000E+00 0.  1.
         21    1    1    2  503  504  0.11039158683E+02  0.27932875899E+02 -0.63573645145E+00  0.30041849831E+02  0.00000000000E+00 0.  1.
         21    1    1    2  504  501 -0.21021254399E+02  0.23915727439E+02  0.96960630857E+01  0.33284663057E+02  0.00000000000E+00 0.  1.
         21    1    1    2  505  502  0.59090798825E+02  0.68759599632E+02 -0.19860475884E+03  0.21831961726E+03  0.00000000000E+00 0.  1.
         -2    1    1    2    0  505 -0.49108703109E+02 -0.12060820297E+03  0.32913635298E+03  0.35396149819E+03  0.00000000000E+00 0.  1.
<scales pt_clust_3="30.03512" pt_clust_4="32.56338" pt_clust_5="117.14346" pt_clust_6="14000.00000"></scales>
<clustering>
<clus scale="   30.035">  2  3  1 -1</clus>
<clus scale="   32.563">  1  4  2 -1</clus>
<clus scale="  117.143">  2  5  1 -1</clus>
<clus scale="   30.035">  2  3  1 -1</clus>
</clustering>
</event>
<event>
 6    0  0.6338511E+002  0.1207786E+03  0.7546771E-02  0.1241818E+00
          1   -1    0    0  505    0 -0.00000000000E+00  0.00000000000E+00  0.20851945721E+04  0.20851945721E+04  0.00000000000E+00 0.  1.
         21   -1    0    0  503  502  0.00000000000E+00 -0.00000000000E+00 -0.22677949151E+03  0.22677949151E+03  0.00000000000E+00 0.  1.
         21    1    1    2  503  504 -0.41051184732E+01 -0.36105040239E+02 -0.17380321591E+03  0.17756121139E+03  0.00000000000E+00 0.  1.
         21    1    1    2  504  501  0.11098927894E+03  0.96858995583E+02  0.64156222746E+02  0.16067453433E+03  0.00000000000E+00 0.  1.
         21    1    1    2  505  502 -0.62086588076E+02 -0.14578673809E+02  0.47144176147E+03  0.47573586853E+03  0.00000000000E+00 0.  1.
          1    1    1    2  501    0 -0.44797572394E+02 -0.46175281535E+02  0.14966203122E+04  0.14980024493E+04  0.00000000000E+00 0.  1.
<scales pt_clust_3="36.33767" pt_clust_4="120.77862" pt_clust_5="64.30604" pt_clust_6="14000.00000"></scales>
<clustering>
<clus scale="   36.338">  2  3  1 -1</clus>
<clus scale="   64.306">  1  5  2 -1</clus>
<clus scale="  120.779">  2  4  1 -1</clus>
<clus scale="   36.338">  2  3  1 -1</clus>
</clustering>
</event>
<event>
 6    0  0.6338511E+002  0.1029068E+03  0.7546771E-02  0.1274299E+00
         21   -1    0    0  505  502  0.00000000000E+00  0.00000000000E+00  0.59654780659E+03  0.59654780659E+03  0.00000000000E+00 0.  1.
          2   -1    0    0  503    0 -0.00000000000E+00 -0.00000000000E+00 -0.11183281092E+04  0.11183281092E+04  0.00000000000E+00 0.  1.
         21    1    1    2  503  504  0.38825329504E+02  0.70469749544E+02  0.57189457832E+02  0.98711832619E+02  0.00000000000E+00 0. -1.
         21    1    1    2  504  502  0.59485169520E+02  0.10978335595E+02  0.49122815734E+03  0.49493849295E+03  0.00000000000E+00 0.  1.
         21    1    1    2  505  501 -0.72077992314E+02 -0.64916853328E+02 -0.67799729554E+02  0.11834795372E+03  0.00000000000E+00 0.  1.
          2    1    1    2  501    0 -0.26232506710E+02 -0.16531231812E+02 -0.10023981882E+04  0.10028776365E+04  0.00000000000E+00 0.  1.
<scales pt_clust_3="14000.00000" pt_clust_4="60.02825" pt_clust_5="102.90682" pt_clust_6="31.00687"></scales>
<clustering>
<clus scale="   31.007">  2  6  1 -1</clus>
<clus scale="   60.028">  1  4  2 -1</clus>
<clus scale="  102.907">  2  5  1 -1</clus>
<clus scale="   60.028">  1  3  2 -1</clus>
</clustering>
</event>
<event>
 6    0  0.6338511E+002  0.1383103E+03  0.7546771E-02  0.1215621E+00
         21   -1    0    0  505  502  0.00000000000E+00  0.00000000000E+00  0.44156469480E+02  0.44156469480E+02  0.00000000000E+00 0. -1.
          4   -1    0    0  504    0 -0.00000000000E+00 -0.00000000000E+00 -0.15068754381E+04  0.15068754381E+04  0.00000000000E+00 0. -1.
         21    1    1    2  503  502  0.12932857320E+02 -0.42252763334E+02 -0.57476003482E+01  0.44559956436E+02  0.00000000000E+00 0. -1.
         21    1    1    2  504  503 -0.43085398983E+02 -0.11562668464E+03 -0.29223078692E+03  0.31721398870E+03  0.00000000000E+00 0. -1.
         21    1    1    2  505  501  0.34668609051E+02  0.11320815728E+02 -0.36741835443E+02  0.51769062132E+02  0.00000000000E+00 0.  1.
          4    1    1    2  501    0 -0.45160673886E+01  0.14655863225E+03 -0.11279987459E+04  0.11374889003E+04  0.00000000000E+00 0. -1.
<scales pt_clust_3="47.89433" pt_clust_4="138.31028" pt_clust_5="36.47017" pt_clust_6="14000.00000"></scales>
<clustering>
<clus scale="   36.470">  1  5  2 -1</clus>
<clus scale="   47.894">  1  3  2 -1</clus>
<clus scale="  138.310">  1  4  2 -1</clus>
<clus scale="   36.470">  1  3  2 -1</clus>
</clustering>
</event>
<event>
 6    0  0.6338511E+002  0.1093772E+03  0.7546771E-02  0.1261728E+00
         21   -1    0    0  504  502  0.00000000000E+00  0.00000000000E+00  0.56734261593E+02  0.56734261593E+02  0.00000000000E+00 0. -1.
          2   -1    0    0  505    0 -0.00000000000E+00 -0.00000000000E+00 -0.24932647641E+04  0.24932647641E+04  0.00000000000E+00 0. -1.
         21    1    1    2  503  502  0.75530439461E+02  0.90840383222E+02 -0.24920352777E+02  0.12073875306E+03  0.00000000000E+00 0. -1.
         21    1    1    2  504  501 -0.77466028671E+02  0.32531258347E+02 -0.67909937853E+03  0.68427716189E+03  0.00000000000E+00 0.  1.
         21    1    1    2  505  503  0.27185647724E+02 -0.72361724157E+02 -0.25696224713E+03  0.26833724120E+03  0.00000000000E+00 0. -1.
          2    1    1    2  501    0 -0.25250058514E+02 -0.51009917412E+02 -0.14755485241E+04  0.14766458696E+04  0.00000000000E+00 0. -1.
<scales pt_clust_3="14000.00000" pt_clust_4="109.37716" pt_clust_5="87.99444" pt_clust_6="56.91728"></scales>
<clustering>
<clus scale="   56.917">  2  6  1 -1</clus>
<clus scale="   87.994">  2  5  1 -1</clus>
<clus scale="  109.377">  2  4  1 -1</clus>
<clus scale="  109.377">  1  3  2 -1</clus>
</clustering>
</event>
<event>
 6    0  0.6338511E+002  0.1667883E+03  0.7546771E-02  0.1181239E+00
         21   -1    0    0  504  502  0.00000000000E+00  0.00000000000E+00  0.17064633382E+04  0.17064633382E+04  0.00000000000E+00 0.  1.
         -4   -1    0    0    0  501 -0.00000000000E+00 -0.00000000000E+00 -0.99099267493E+02  0.99099267493E+02  0.00000000000E+00 0.  1.
         21    1    1    2  503  502  0.23242470627E+01  0.19066224824E+03  0.41145758309E+03  0.45349182761E+03  0.00000000000E+00 0.  1.
         21    1    1    2  504  505 -0.40852726260E+02 -0.32805913067E+01  0.90653983112E+03  0.90746579711E+03  0.00000000000E+00 0.  1.
         21    1    1    2  505  501  0.34643615754E+02 -0.14699088164E+03  0.34450114256E+03  0.37614829074E+03  0.00000000000E+00 0.  1.
         -4    1    1    2    0  503  0.38848634427E+01 -0.40390775300E+02 -0.55134486027E+02  0.68456690270E+02  0.00000000000E+00 0.  1.
<scales pt_clust_3="14000.00000" pt_clust_4="40.97939" pt_clust_5="166.78834" pt_clust_6="40.57717"></scales>
<clustering>
<clus scale="   40.577">  2  6  1 -1</clus>
<clus scale="   40.979">  1  4  2 -1</clus>
<clus scale="  166.788">  1  5  2 -1</clus>
<clus scale="   40.979">  1  3  2 -1</clus>
</clustering>
</event>
<event>
 6    0  0.6338511E+002  0.1702144E+03  0.7546771E-02  0.1177624E+00
         21   -1    0    0  505  502  0.00000000000E+00  0.00000000000E+00  0.39265356474E+03  0.39265356474E+03  0.00000000000E+00 0. -1.
         -2   -1    0    0    0  501 -0.00000000000E+00 -0.00000000000E+00 -0.58123806630E+03  0.58123806630E+03  0.00000000000E+00 0. -1.
         21    1    1    2  503  501 -0.57333072306E+02 -0.24545508821E+02 -0.13564020029E+02  0.63824335663E+02  0.00000000000E+00 0. -1.
         21    1    1    2  504  502  0.58804533657E+02 -0.39995010127E+02 -0.68171631630E+01  0.71442618424E+02  0.00000000000E+00 0. -1.
         21    1    1    2  505  503  0.11546743879E+03  0.88732070740E+02  0.31172565737E+03  0.34406248744E+03  0.00000000000E+00 0. -1.
         -2    1    1    2    0  504 -0.11693890014E+03 -0.24191551792E+02 -0.47992897574E+03  0.49456218951E+03  0.00000000000E+00 0. -1.
<scales pt_clust_3="62.36636" pt_clust_4="68.79749" pt_clust_5="14000.00000" pt_clust_6="170.21436"></scales>
<clustering>
<clus scale="   62.366">  2  3  1 -1</clus>
<clus scale="   68.797">  1  4  2 -1</clus>
<clus scale="  170.214">  2  6  1 -1</clus>
<clus scale="   68.797">  1  3  2 -1</clus>
</clustering>
</event>
<event>
 6    0  0.6338511E+002  0.2324929E+03  0.7546771E-02  0.1124897E+00
          2   -1    0    0  503    0 -0.00000000000E+00  0.00000000000E+00  0.31652464695E+04  0.31652464695E+04  0.00000000000E+00 0.  1.
         21   -1    0    0  505  502  0.00000000000E+00 -0.00000000000E+00 -0.66149561880E+02  0.66149561880E+02  0.00000000000E+00 0.  1.
         21    1    1    2  503  504 -0.10037283699E+03  0.12605960419E+03  0.57186500759E+03  0.59413409018E+03  0.00000000000E+00 0. -1.
         21    1    1    2  504  502 -0.16998253494E+02  0.53318721612E+02  0.72348229738E+02  0.91466349235E+02  0.00000000000E+00 0.  1.
         21    1    1    2  505  501 -0.35652519609E+02  0.62506949038E+02 -0.23010127594E+01  0.71996635284E+02  0.00000000000E+00 0.  1.
          2    1    1    2  501    0  0.15302361009E+03 -0.24188527484E+03  0.24571846831E+04  0.24737989567E+04  0.00000000000E+00 0.  1.
<scales pt_clust_3="14000.00000" pt_clust_4="55.96273" pt_clust_5="108.16231" pt_clust_6="232.49290"></scales>
<clustering>
<clus scale="   55.963">  2  4  1 -1</clus>
<clus scale="  108.162">  2  5  1 -1</clus>
<clus scale="  232.493">  1  6  2 -1</clus>
<clus scale="   55.963">  2  3  1 -1</clus>
</clustering>
</event>
<event>
 6    0  0.6338511E+002  0.1056789E+03  0.7546771E-02  0.1268788E+00
         21   -1    0    0  505  502  0.00000000000E+00  0.00000000000E+00  0.96079758871E+02  0.96079758871E+02  0.00000000000E+00 0.  1.
          1   -1    0    0  503    0 -0.00000000000E+00 -0.00000000000E+00 -0.82119798678E+03  0.82119798678E+03  0.00000000000E+00 0. -1.
         21    1    1    2  503  502  0.48162460381E+02  0.30531750650E+02 -0.56388129611E+02  0.80196206573E+02  0.00000000000E+00 0. -1.
         21    1    1    2  504  501 -0.12336416713E+02  0.92721563829E+02 -0.18230391279E+03  0.20490044459E+03  0.00000000000E+00 0. -1.
         21    1    1    2  505  504  0.18018147964E+02 -0.10675471415E+03  0.30276673235E+02  0.11241841304E+03  0.00000000000E+00 0.  1.
          1    1    1    2  501    0 -0.53844191632E+02 -0.16498600331E+02 -0.51670285875E+03  0.51976268145E+03  0.00000000000E+00 0. -1.
<scales pt_clust_3="44.90820" pt_clust_4="14000.00000" pt_clust_5="105.67892" pt_clust_6="56.31519"></scales>
<clustering>
<clus scale="   56.315">  2  6  1 -1</clus>
<clus scale="   44.908">  2  3  1 -1</clus>
<clus scale="  105.679">  1  5  2 -1</clus>
<clus scale="  105.679">  1  3  2 -1</clus>
</clustering>
</event>
<event>
 6    0  0.6338511E+002  0.1216834E+03  0.7546771E-02  0.1240346E+00
         21   -1    0    0  504  502  0.00000000000E+00  0.00000000000E+00  0.14471486249E+03  0.14471486249E+03  0.00000000000E+00 0. -1.
          1   -1    0    0  502    0 -0.00000000000E+00 -0.00000000000E+00 -0.10634710365E+04  0.10634710365E+04  0.00000000000E+00 0.  1.
         21    1    1    2  503  505 -0.64873898760E+02 -0.40722191954E+02  0.27681001606E+02  0.81444198737E+02  0.00000000000E+00 0. -1.
         21    1    1    2  504  503 -0.19715832838E+02 -0.28891996428E+02  0.54618858352E+02  0.64858933153E+02  0.00000000000E+00 0. -1.
         21    1    1    2  505  501  0.12105888745E+03  0.27269152872E+02 -0.10074438776E+03  0.15983833268E+03  0.00000000000E+00 0.  1.
          1    1    1    2  501    0 -0.36469155855E+02  0.42345035510E+02 -0.90031164623E+03  0.90204443444E+03  0.00000000000E+00 0.  1.
<scales pt_clust_3="34.65412" pt_clust_4="34.65412" pt_clust_5="110.34971" pt_clust_6="55.88471"></scales>
<clustering>
<clus scale="   34.654">  3  4 -1 -1</clus>
<clus scale="   55.885">  2  6  1 -1</clus>
<clus scale="  110.350">  2  5  1 -1</clus>
<clus scale="  121.683">  1  3  2 -1</clus>
</clustering>
</event>
<event>
 6    0  0.6338511E+002  0.9911442E+02  0.7546771E-02  0.1282169E+00
          2   -1    0    0  504    0 -0.00000000000E+00  0.00000000000E+00  0.25440697904E+03  0.25440697904E+03  0.00000000000E+00 0. -1.
         21   -1    0    0  505  502  0.00000000000E+00 -0.00000000000E+00 -0.44352966547E+03  0.44352966547E+03  0.00000000000E+00 0. -1.
         21    1    1    2  503  501 -0.93813057174E+02 -0.14539627315E+02 -0.19106241254E+03  0.21334745357E+03  0.00000000000E+00 0. -1.
         21    1    1    2  504  502  0.29504477406E+02 -0.16738530334E+02 -0.65207163060E+02  0.73502834633E+02  0.00000000000E+00 0.  1.
         21    1    1    2  505  503 -0.32860478846E+02  0.53476355474E+02 -0.15520531716E+03  0.16741631384E+03  0.00000000000E+00 0. -1.
          2    1    1    2  501    0  0.97169058614E+02 -0.22198197825E+02  0.22235220632E+03  0.24367004247E+03  0.00000000000E+00 0. -1.
<scales pt_clust_3="14000.00000" pt_clust_4="33.92186" pt_clust_5="50.45449" pt_clust_6="99.11442"></scales>
<clustering>
<clus scale="   33.922">  2  4  1 -1</clus>
<clus scale="   50.454">  2  5  1 -1</clus>
<clus scale="   99.114">  1  6  2 -1</clus>
<clus scale="   33.922">  2  3  1 -1</clus>
</clustering>
</event>
<event>
 6    0  0.6338511E+002  0.3002948E+03  0.7546771E-02  0.1085093E+00
         21   -1    0    0  505  502  0.00000000000E+00  0.00000000000E+00  0.26468397509E+03  0.26468397509E+03  0.00000000000E+00 0. -1.
          1   -1    0    0  504    0 -0.00000000000E+00 -0.00000000000E+00 -0.10856897615E+04  0.10856897615E+04  0.00000000000E+00 0. -1.
         21    1    1    2  503  501 -0.49807152740E+02  0.43532912459E+02 -0.16197602178E+01  0.66170163627E+02  0.00000000000E+00 0.  1.
         21    1    1    2  504  502  0.29128214217E+03 -0.17539212157E+03 -0.26697051711E+03  0.43229728158E+03  0.00000000000E+00 0. -1.
         21    1    1    2  505  503  0.32942607660E+02  0.43647283899E+02  0.11366287570E+03  0.12613306507E+03  0.00000000000E+00 0. -1.
          1    1    1    2  501    0 -0.27441759709E+03  0.88211925215E+02 -0.66607838481E+03  0.72577322633E+03  0.00000000000E+00 0. -1.
<scales pt_clust_3="68.11807" pt_clust_4="14000.00000" pt_clust_5="54.68364" pt_clust_6="300.29479"></scales>
<clustering>
<clus scale="   54.684">  1  5  2 -1</clus>
<clus scale="   68.118">  1  3  2 -1</clus>
<clus scale="  300.295">  2  6  1 -1</clus>
<clus scale="   54.684">  1  3  2 -1</clus>
</clustering>
</event>
<event>
 6    0  0.6338511E+002  0.1013540E+03  0.7546771E-02  0.1277474E+00
         21   -1    0    0  504  502  0.00000000000E+00  0.00000000000E+00  0.45318414552E+03  0.45318414552E+03  0.00000000000E+00 0.  1.
         -3   -1    0    0    0  501 -0.00000000000E+00 -0.00000000000E+00 -0.33630647313E+03  0.33630647313E+03  0.00000000000E+00 0.  1.
         21    1    1    2  503  505  0.78650628191E+02 -0.39650068595E+02 -0.32753011899E+02  0.93972384470E+02  0.00000000000E+00 0.  1.
         21    1    1    2  504  501 -0.59796767493E+02  0.13274105644E+03  0.11872316004E+03  0.18785907004E+03  0.00000000000E+00 0.  1.
         21    1    1    2  505  502  0.36733622784E+00 -0.53969276244E+02  0.26454306699E+03  0.26999231842E+03  0.00000000000E+00 0.  1.
         -3    1    1    2    0  503 -0.19221196925E+02 -0.39121711599E+02 -0.23363554273E+03  0.23766684573E+03  0.00000000000E+00 0.  1.
<scales pt_clust_3="14000.00000" pt_clust_4="101.35396" pt_clust_5="55.02847" pt_clust_6="43.58856"></scales>
<clustering>
<clus scale="   43.589">  2  6  1 -1</clus>
<clus scale="   55.028">  1  5  2 -1</clus>
<clus scale="  101.354">  1  4  2 -1</clus>
<clus scale="   55.028">  1  3  2 -1</clus>
</clustering>
</event>
<event>
 6    0  0.6338511E+002  0.6822257E+02  0.7546771E-02  0.1366244E+00
          2   -1    0    0  504    0 -0.00000000000E+00  0.00000000000E+00  0.89871009143E+03  0.89871009143E+03  0.00000000000E+00 0. -1.
         21   -1    0    0  505  502  0.00000000000E+00 -0.00000000000E+00 -0.10042894793E+04  0.10042894793E+04  0.00000000000E+00 0.  1.
         21    1    1    2  503  502  0.95483428695E+02 -0.86249109344E+01 -0.24625605461E+02  0.98984315365E+02  0.00000000000E+00 0.  1.
         21    1    1    2  504  503 -0.58227630586E+02  0.48834887688E+02  0.20778254636E+02  0.78784764294E+02  0.00000000000E+00 0.  1.
         21    1    1    2  505  501 -0.43268074532E+02  0.23405657335E+02 -0.91155953473E+03  0.91288593834E+03  0.00000000000E+00 0.  1.
          2    1    1    2  501    0  0.60122764235E+01 -0.63615634088E+02  0.80982749767E+03  0.81234455273E+03  0.00000000000E+00 0. -1.
<scales pt_clust_3="14000.00000" pt_clust_4="68.22257" pt_clust_5="49.19300" pt_clust_6="63.52739"></scales>
<clustering>
<clus scale="   49.193">  2  5  1 -1</clus>
<clus scale="   63.527">  1  6  2 -1</clus>
<clus scale="   68.223">  1  4  2 -1</clus>
<clus scale="   49.193">  2  3  1 -1</clus>
</clustering>
</event>
<event>
 6    0  0.6338511E+002  0.2254619E+03  0.7546771E-02  0.1129875E+00
          2   -1    0    0  505    0 -0.00000000000E+00  0.00000000000E+00  0.38744963177E+04  0.38744963177E+04  0.00000000000E+00 0. -1.
         21   -1    0    0  504  502  0.00000000000E+00 -0.00000000000E+00 -0.10303176164E+03  0.10303176164E+03  0.00000000000E+00 0.  1.
         21    1    1    2  503  501  0.19994304276E+03  0.11961953534E+03  0.34045464016E+03  0.41254747072E+03  0.00000000000E+00 0.  1.
         21    1    1    2  504  503  0.42529859354E+02  0.28438844373E+02 -0.38467000570E+02  0.64009897194E+02  0.00000000000E+00 0.  1.
         21    1    1    2  505  502 -0.13387687005E+03 -0.14332757532E+03  0.63931801854E+03  0.66872515954E+03  0.00000000000E+00 0. -1.
          2    1    1    2  501    0 -0.10859603207E+03 -0.47308043991E+01  0.28301588979E+04  0.28322455519E+04  0.00000000000E+00 0. -1.
<scales pt_clust_3="14000.00000" pt_clust_4="51.16206" pt_clust_5="225.46191" pt_clust_6="107.81951"></scales>
<clustering>
<clus scale="   51.162">  2  4  1 -1</clus>
<clus scale="  107.820">  1  6  2 -1</clus>
<clus scale="  225.462">  1  5  2 -1</clus>
<clus scale="   51.162">  2  3  1 -1</clus>
</clustering>
</event>
<event>
 6    0  0.6338511E+002  0.7342247E+02  0.7546771E-02  0.1348827E+00
         21   -1    0    0  503  502  0.00000000000E+00  0.00000000000E+00  0.45100500634E+03  0.45100500634E+03  0.00000000000E+00 0.  1.
          2   -1    0    0  504    0 -0.00000000000E+00 -0.00000000000E+00 -0.19453963398E+04  0.19453963398E+04  0.00000000000E+00 0. -1.
         21    1    1    2  503  501  0.69046858221E+02  0.85061823631E+02 -0.11468819920E+03  0.15860758338E+03  0.00000000000E+00 0.  1.
         21    1    1    2  504  505 -0.36761853900E+02 -0.15592616195E+00 -0.38202171410E+03  0.38378646179E+03  0.00000000000E+00 0.  1.
         21    1    1    2  505  502  0.34658418028E+01 -0.65272183479E+02  0.42537438545E+03  0.43036709655E+03  0.00000000000E+00 0.  1.
          2    1    1    2  501    0 -0.35750846124E+02 -0.19633713990E+02 -0.14230558056E+04  0.14236402044E+04  0.00000000000E+00 0. -1.
<scales pt_clust_3="73.42247" pt_clust_4="36.76218" pt_clust_5="65.36129" pt_clust_6="14000.00000"></scales>
<clustering>
<clus scale="   36.762">  2  4  1 -1</clus>
<clus scale="   65.361">  1  5  2 -1</clus>
<clus scale="   73.422">  1  3  2 -1</clus>
<clus scale="   65.361">  1  3  2 -1</clus>
</clustering>
</event>
<event>
 6    0  0.6338511E+002  0.1255173E+03  0.7546771E-02  0.1234263E+00
          1   -1    0    0  505    0 -0.00000000000E+00  0.00000000000E+00  0.18863777860E+04  0.18863777860E+04  0.00000000000E+00 0. -1.
         21   -1    0    0  504  502  0.00000000000E+00 -0.00000000000E+00 -0.16402648933E+03  0.16402648933E+03  0.00000000000E+00 0. -1.
         21    1    1    2  503  502  0.12290044284E+02  0.11037225473E+03 -0.64164400047E+02  0.12825813829E+03  0.00000000000E+00 0. -1.
         21    1    1    2  504  501 -0.78151709745E+02 -0.18879098209E+03  0.96891287149E+02  0.22613634422E+03  0.00000000000E+00 0.  1.
         21    1    1    2  505  503 -0.24937477770E+02  0.37428662440E+02  0.67869106269E+03  0.68017963887E+03  0.00000000000E+00 0.  1.
          1    1    1    2  501    0  0.90799143231E+02  0.40990064913E+02  0.10109333469E+04  0.10158301539E+04  0.00000000000E+00 0. -1.
<scales pt_clust_3="125.51732" pt_clust_4="14000.00000" pt_clust_5="44.97536" pt_clust_6="100.62136"></scales>
<clustering>
<clus scale="   44.975">  1  5  2 -1</clus>
<clus scale="  100.621">  1  6  2 -1</clus>
<clus scale="  125.517">  2  3  1 -1</clus>
<clus scale="  125.517">  2  3  1 -1</clus>
</clustering>
</event>
<event>
 6    0  0.6338511E+002  0.1395463E+03  0.7546771E-02  0.1213941E+00
         -4   -1    0    0    0  501 -0.00000000000E+00  0.00000000000E+00  0.56203534247E+03  0.56203534247E+03  0.00000000000E+00 0.  1.
         21   -1    0    0  505  502  0.00000000000E+00 -0.00000000000E+00 -0.16038852756E+03  0.16038852756E+03  0.00000000000E+00 0.  1.
         21    1    1    2  503  502 -0.76151061998E+02  0.52859141677E+02 -0.68917078058E+02  0.11551033179E+03  0.00000000000E+00 0.  1.
         21    1    1    2  504  503 -0.51904698700E+02  0.48972974320E+01 -0.19949045739E+02  0.55821552246E+02  0.00000000000E+00 0.  1.
         21    1    1    2  505  501  0.11270542005E+03 -0.24486718206E+02  0.83389969603E+02  0.14232356835E+03  0.00000000000E+00 0.  1.
         -4    1    1    2    0  504  0.15350340651E+02 -0.33269720903E+02  0.40712296911E+03  0.40876841765E+03  0.00000000000E+00 0.  1.
<scales pt_clust_3="31.13252" pt_clust_4="31.13252" pt_clust_5="133.22852" pt_clust_6="36.64024"></scales>
<clustering>
<clus scale="   31.133">  3  4 -1 -1</clus>
<clus scale="   36.640">  1  6  2 -1</clus>
<clus scale="  133.229">  1  5  2 -1</clus>
<clus scale="  139.546">  2  3  1 -1</clus>
</clustering>
</event>
<event>
 6    0  0.6338511E+002  0.1447741E+03  0.7546771E-02  0.1207046E+00
         21   -1    0    0  505  502  0.00000000000E+00  0.00000000000E+00  0.30285996075E+03  0.30285996075E+03  0.00000000000E+00 0.  1.
          2   -1    0    0  503    0 -0.00000000000E+00 -0.00000000000E+00 -0.80423528448E+03  0.80423528448E+03  0.00000000000E+00 0.  1.
         21    1    1    2  503  502 -0.39685594377E+02 -0.22479281088E+03  0.35430274617E+02  0.23100229129E+03  0.00000000000E+00 0.  1.
         21    1    1    2  504  501  0.63404408084E+02  0.42941846667E+02  0.56282330422E+02  0.95035897836E+02  0.00000000000E+00 0. -1.
         21    1    1    2  505  504 -0.22465736487E+02  0.41430034352E+02  0.80340223083E+02  0.93143483441E+02  0.00000000000E+00 0.  1.
          2    1    1    2  501    0 -0.12530772197E+01  0.14042092986E+03 -0.67342815185E+03  0.68791357266E+03  0.00000000000E+00 0.  1.
<scales pt_clust_3="144.77407" pt_clust_4="79.90405" pt_clust_5="47.12915" pt_clust_6="14000.00000"></scales>
<clustering>
<clus scale="   47.129">  1  5  2 -1</clus>
<clus scale="   79.904">  1  4  2 -1</clus>
<clus scale="  144.774">  1  3  2 -1</clus>
<clus scale="   47.129">  1  3  2 -1</clus>
</clustering>
</event>
<event>
 6    0  0.6338511E+002  0.8797659E+02  0.7546771E-02  0.1307827E+00
         21   -1    0    0  504  502  0.00000000000E+00  0.00000000000E+00  0.93107851289E+02  0.93107851289E+02  0.00000000000E+00 0. -1.
          2   -1    0    0  503    0 -0.00000000000E+00 -0.00000000000E+00 -0.15177618284E+04  0.15177618284E+04  0.00000000000E+00 0.  1.
         21    1    1    2  503  505 -0.81862668576E+02  0.13133165889E+03 -0.13615569151E+03  0.20612586802E+03  0.00000000000E+00 0. -1.
         21    1    1    2  504  501  0.56380673650E+02 -0.21500984569E+02 -0.11095515951E+03  0.12630170276E+03  0.00000000000E+00 0. -1.
         21    1    1    2  505  502  0.27266430966E+02 -0.58201230911E+02  0.29199951276E+02  0.70593758164E+02  0.00000000000E+00 0. -1.
          2    1    1    2  501    0 -0.17844360406E+01 -0.51629443413E+02 -0.12067430774E+04  0.12078483508E+04  0.00000000000E+00 0.  1.
<scales pt_clust_3="14000.00000" pt_clust_4="87.97659" pt_clust_5="67.35615" pt_clust_6="51.66027"></scales>
<clustering>
<clus scale="   51.660">  2  6  1 -1</clus>
<clus scale="   67.356">  1  5  2 -1</clus>
<clus scale="   87.977">  2  4  1 -1</clus>
<clus scale="   67.356">  1  3  2 -1</clus>
</clustering>
</event>
<event>
 6    0  0.6338511E+002  0.1009371E+03  0.7546771E-02  0.1278338E+00
          2   -1    0    0  504    0 -0.00000000000E+00  0.00000000000E+00  0.26597996010E+04  0.26597996010E+04  0.00000000000E+00 0. -1.
         21   -1    0    0  505  502  0.00000000000E+00 -0.00000000000E+00 -0.18812163501E+03  0.18812163501E+03  0.00000000000E+00 0. -1.
         21    1    1    2  503  501 -0.73980209441E+02  0.65148350793E+02  0.69319060853E+03  0.70016469402E+03  0.00000000000E+00 0.  1.
         21    1    1    2  504  502  0.19508632983E+02  0.33763856703E+02 -0.25143506652E+02  0.46398067924E+02  0.00000000000E+00 0. -1.
         21    1    1    2  505  503  0.74983165985E+02 -0.70591577503E+02 -0.13087588153E+03  0.16653570897E+03  0.00000000000E+00 0. -1.
          2    1    1    2  501    0 -0.20511589527E+02 -0.28320629993E+02  0.19345067457E+04  0.19348227651E+04  0.00000000000E+00 0. -1.
<scales pt_clust_3="14000.00000" pt_clust_4="38.48494" pt_clust_5="100.93707" pt_clust_6="34.96832"></scales>
<clustering>
<clus scale="   34.968">  1  6  2 -1</clus>
<clus scale="   38.485">  2  4  1 -1</clus>
<clus scale="  100.937">  2  5  1 -1</clus>
<clus scale="   38.485">  2  3  1 -1</clus>
</clustering>
</event>
<event>
 6    0  0.6338511E+002  0.9538447E+02  0.7546771E-02  0.1290313E+00
          2   -1    0    0  504    0 -0.00000000000E+00  0.00000000000E+00  0.35616807328E+04  0.35616807328E+04  0.00000000000E+00 0.  1.
         21   -1    0    0  503  502  0.00000000000E+00 -0.00000000000E+00 -0.10577929480E+03  0.10577929480E+03  0.00000000000E+00 0. -1.
         21    1    1    2  503  505 -0.43771014148E+02  0.41523147719E+02 -0.66413903193E+02  0.89726696213E+02  0.00000000000E+00 0. -1.
         21    1    1    2  504  502  0.12247603517E+03  0.36918227289E+02  0.16008601908E+03  0.20491673480E+03  0.00000000000E+00 0.  1.
         21    1    1    2  505  501 -0.62541044534E+02 -0.25612710484E+02  0.22102450962E+03  0.23112599820E+03  0.00000000000E+00 0.  1.
          2    1    1    2  501    0 -0.16163976490E+02 -0.52828664523E+02  0.31412048125E+04  0.31416905984E+04  0.00000000000E+00 0.  1.
<scales pt_clust_3="59.66556" pt_clust_4="14000.00000" pt_clust_5="95.38447" pt_clust_6="55.24619"></scales>
<clustering>
<clus scale="   55.246">  1  6  2 -1</clus>
<clus scale="   59.666">  2  3  1 -1</clus>
<clus scale="   95.384">  1  5  2 -1</clus>
<clus scale="   59.666">  2  3  1 -1</clus>
</clustering>
</event>
<event>
 6    0  0.6338511E+002  0.1040443E+03  0.7546771E-02  0.1272014E+00
         21   -1    0    0  505  502  0.00000000000E+00  0.00000000000E+00  0.69920671593E+02  0.69920671593E+02  0.00000000000E+00 0. -1.
          1   -1    0    0  504    0 -0.00000000000E+00 -0.00000000000E+00 -0.13780594531E+04  0.13780594531E+04  0.00000000000E+00 0. -1.
         21    1    1    2  503  501  0.55669742526E+02 -0.36972530125E+02 -0.41000779155E+02  0.78403776108E+02  0.00000000000E+00 0. -1.
         21    1    1    2  504  502 -0.13517931098E+03  0.90583574937E+02 -0.42295697666E+03  0.45317925181E+03  0.00000000000E+00 0. -1.
         21    1    1    2  505  503  0.24873176696E+02 -0.37673985568E+02  0.20687062067E+02  0.49658419673E+02  0.00000000000E+00 0. -1.
          1    1    1    2  501    0  0.54636391755E+02 -0.15937059244E+02 -0.86486808780E+03  0.86673867714E+03  0.00000000000E+00 0. -1.
<scales pt_clust_3="104.04426" pt_clust_4="14000.00000" pt_clust_5="45.14426" pt_clust_6="57.84533"></scales>
<clustering>
<clus scale="   45.144">  1  5  2 -1</clus>
<clus scale="   57.845">  2  6  1 -1</clus>
<clus scale="  104.044">  1  3  2 -1</clus>
<clus scale="   45.144">  1  3  2 -1</clus>
</clustering>
</event>
<event>
 6    0  0.6338511E+002  0.2706817E+03  0.7546771E-02  0.1100890E+00
          2   -1    0    0  503    0 -0.00000000000E+00  0.00000000000E+00  0.12526899570E+04  0.12526899570E+04  0.00000000000E+00 0.  1.
         21   -1    0    0  501  502  0.00000000000E+00 -0.00000000000E+00 -0.71883230873E+03  0.71883230873E+03  0.00000000000E+00 0. -1.
         21    1    1    2  503  504  0.10137394494E+03  0.26728978344E+02  0.20846287227E+03  0.23334070393E+03  0.00000000000E+00 0. -1.
         21    1    1    2  504  505  0.12132237411E+03 -0.15164491104E+03 -0.74057871084E+02  0.20784577401E+03  0.00000000000E+00 0. -1.
         21    1    1    2  505  502  0.61853809488E+02 -0.66553975498E+02 -0.53098312320E+03  0.53870066133E+03  0.00000000000E+00 0. -1.
          2    1    1    2  501    0 -0.28455012854E+03  0.19146990819E+03  0.93043577031E+03  0.99163512648E+03  0.00000000000E+00 0.  1.
<scales pt_clust_3="107.87097" pt_clust_4="14000.00000" pt_clust_5="90.85882" pt_clust_6="270.68165"></scales>
<clustering>
<clus scale="   90.859">  2  5  1 -1</clus>
<clus scale="  107.871">  1  3  2 -1</clus>
<clus scale="  270.682">  1  6  2 -1</clus>
<clus scale="   90.859">  2  3  1 -1</clus>
</clustering>
</event>
<event>
 6    0  0.6338511E+002  0.1516854E+03  0.7546771E-02  0.1198417E+00
          1   -1    0    0  504    0 -0.00000000000E+00  0.00000000000E+00  0.19640316759E+04  0.19640316759E+04  0.00000000000E+00 0.  1.
         21   -1    0    0  505  502  0.00000000000E+00 -0.00000000000E+00 -0.26262273617E+03  0.26262273617E+03  0.00000000000E+00 0. -1.
         21    1    1    2  503  502 -0.13881799360E+03 -0.80294365919E+01 -0.20894119237E+03  0.25098073446E+03  0.00000000000E+00 0. -1.
         21    1    1    2  504  503  0.18421407184E+03  0.27899149568E+02  0.10978487281E+04  0.11135461448E+04  0.00000000000E+00 0.  1.
         21    1    1    2  505  501 -0.85828099935E+00 -0.49366999561E+02  0.15295480125E+01  0.49398145805E+02  0.00000000000E+00 0.  1.
          1    1    1    2  501    0 -0.44537797239E+02  0.29497286584E+02  0.81097185600E+03  0.81272938702E+03  0.00000000000E+00 0.  1.
<scales pt_clust_3="14000.00000" pt_clust_4="151.68542" pt_clust_5="49.37446" pt_clust_6="53.32258"></scales>
<clustering>
<clus scale="   49.374">  2  5  1 -1</clus>
<clus scale="   53.323">  1  6  2 -1</clus>
<clus scale="  151.685">  1  4  2 -1</clus>
<clus scale="   49.374">  2  3  1 -1</clus>
</clustering>
</event>
<event>
 6    0  0.6338511E+002  0.6613574E+02  0.7546771E-02  0.1373750E+00
         21   -1    0    0  505  502  0.00000000000E+00  0.00000000000E+00  0.42960530429E+03  0.42960530429E+03  0.00000000000E+00 0.  1.
          1   -1    0    0  503    0 -0.00000000000E+00 -0.00000000000E+00 -0.95092762917E+03  0.95092762917E+03  0.00000000000E+00 0.  1.
         21    1    1    2  503  502  0.12219448998E+01 -0.31489492972E+02 -0.37388294732E+01  0.31734211237E+02  0.00000000000E+00 0. -1.
         21    1    1    2  504  501  0.24001188517E+02  0.12355556716E+03  0.54045689982E+02  0.13697799762E+03  0.00000000000E+00 0.  1.
         21    1    1    2  505  504 -0.52801611233E+01 -0.29785059034E+02  0.31817848050E+03  0.31961316508E+03  0.00000000000E+00 0.  1.
          1    1    1    2  501    0 -0.19942972293E+02 -0.62281015159E+02 -0.88980766589E+03  0.89220755952E+03  0.00000000000E+00 0.  1.
<scales pt_clust_3="35.25976" pt_clust_4="66.13574" pt_clust_5="30.24946" pt_clust_6="14000.00000"></scales>
<clustering>
<clus scale="   30.249">  1  5  2 -1</clus>
<clus scale="   35.260">  1  3  2 -1</clus>
<clus scale="   66.136">  1  4  2 -1</clus>
<clus scale="   30.249">  1  3  2 -1</clus>
</clustering>
</event>
<event>
 6    0  0.6338511E+002  0.9141389E+02  0.7546771E-02  0.1299463E+00
         21   -1    0    0  503  502  0.00000000000E+00  0.00000000000E+00  0.46490286741E+03  0.46490286741E+03  0.00000000000E+00 0.  1.
          1   -1    0    0  504    0 -0.00000000000E+00 -0.00000000000E+00 -0.43868106612E+04  0.43868106612E+04  0.00000000000E+00 0.  1.
         21    1    1    2  503  501  0.55200831488E+02  0.66607284397E+02 -0.34121514110E+03  0.35201056042E+03  0.00000000000E+00 0.  1.
         21    1    1    2  504  505 -0.10670377436E+03 -0.51746751732E+02 -0.11234780060E+03  0.16335681828E+03  0.00000000000E+00 0.  1.
         21    1    1    2  505  502  0.16924745782E+02  0.38032588220E+02  0.43274593834E+03  0.43474357032E+03  0.00000000000E+00 0.  1.
          1    1    1    2  501    0  0.34578197093E+02 -0.52893120885E+02 -0.39010907904E+04  0.39016025796E+04  0.00000000000E+00 0.  1.
<scales pt_clust_3="91.41389" pt_clust_4="14000.00000" pt_clust_5="41.62841" pt_clust_6="63.00810"></scales>
<clustering>
<clus scale="   41.628">  1  5  2 -1</clus>
<clus scale="   63.008">  2  6  1 -1</clus>
<clus scale="   91.414">  2  3  1 -1</clus>
<clus scale="   41.628">  1  3  2 -1</clus>
</clustering>
</event>
<event>
 6    0  0.6338511E+002  0.9047850E+02  0.7546771E-02  0.1301697E+00
         -2   -1    0    0    0  501 -0.00000000000E+00  0.00000000000E+00  0.81265363014E+03  0.81265363014E+03  0.00000000000E+00 0. -1.
         21   -1    0    0  505  502  0.00000000000E+00 -0.00000000000E+00 -0.71502129984E+02  0.71502129984E+02  0.00000000000E+00 0. -1.
         21    1    1    2  503  502  0.27174012919E+01 -0.89638982933E+02  0.18999417783E+03  0.21009597603E+03  0.00000000000E+00 0. -1.
         21    1    1    2  504  503  0.18800165943E+02  0.60728076196E+02  0.22947337446E+03  0.23811630575E+03  0.00000000000E+00 0. -1.
         21    1    1    2  505  501 -0.67852418708E+02  0.66572237764E+02 -0.13029615917E+02  0.95945737041E+02  0.00000000000E+00 0. -1.
         -2    1    1    2    0  504  0.46334851474E+02 -0.37661331026E+02  0.33471356379E+03  0.33999774131E+03  0.00000000000E+00 0. -1.
<scales pt_clust_3="90.47850" pt_clust_4="59.25335" pt_clust_5="14000.00000" pt_clust_6="59.71009"></scales>
<clustering>
<clus scale="   59.710">  1  6  2 -1</clus>
<clus scale="   59.253">  1  4  2 -1</clus>
<clus scale="   90.478">  1  3  2 -1</clus>
<clus scale="   90.478">  2  3  1 -1</clus>
</clustering>
</event>
<event>
 6    0  0.6338511E+002  0.6854138E+02  0.7546771E-02  0.1365125E+00
         21   -1    0    0  501  502  0.00000000000E+00  0.00000000000E+00  0.11161820862E+03  0.11161820862E+03  0.00000000000E+00 0. -1.
          1   -1    0    0  505    0 -0.00000000000E+00 -0.00000000000E+00 -0.17154329787E+04  0.17154329787E+04  0.00000000000E+00 0. -1.
         21    1    1    2  503  504 -0.56455931081E+02  0.10254578539E+03 -0.15278158775E+03  0.19247109864E+03  0.00000000000E+00 0. -1.
         21    1    1    2  504  502  0.84878809130E+00 -0.65991937851E+02  0.77570953599E+02  0.10184747982E+03  0.00000000000E+00 0. -1.
         21    1    1    2  505  503  0.29112368188E+02 -0.51325654393E+02 -0.46941444981E+03  0.47310863284E+03  0.00000000000E+00 0. -1.
          1    1    1    2  501    0  0.26494774802E+02  0.14771806854E+02 -0.10591896861E+04  0.10596239760E+04  0.00000000000E+00 0. -1.
<scales pt_clust_3="14000.00000" pt_clust_4="68.54138" pt_clust_5="63.05234" pt_clust_6="30.33446"></scales>
<clustering>
<clus scale="   30.334">  2  6  1 -1</clus>
<clus scale="   63.052">  2  5  1 -1</clus>
<clus scale="   68.541">  1  4  2 -1</clus>
<clus scale="   68.541">  1  3  2 -1</clus>
</clustering>
</event>
<event>
 6    0  0.6338511E+002  0.1200794E+03  0.7546771E-02  0.1242966E+00
         21   -1    0    0  503  502  0.00000000000E+00  0.00000000000E+00  0.72253239887E+03  0.72253239887E+03  0.00000000000E+00 0. -1.
         -3   -1    0    0    0  501 -0.00000000000E+00 -0.00000000000E+00 -0.86976741059E+02  0.86976741059E+02  0.00000000000E+00 0.  1.
         21    1    1    2  503  501 -0.13943404205E+03  0.94654215521E+02  0.21597224307E+03  0.27394394021E+03  0.00000000000E+00 0. -1.
         21    1    1    2  504  505  0.98200758984E+02 -0.58296021208E+01  0.19197389020E+03  0.21571126035E+03  0.00000000000E+00 0. -1.
         21    1    1    2  505  502 -0.62700198660E+01 -0.53229502460E+02  0.25054770560E+03  0.25621640436E+03  0.00000000000E+00 0. -1.
         -3    1    1    2    0  504  0.47503302933E+02 -0.35595110940E+02 -0.22938181055E+02  0.63637535012E+02  0.00000000000E+00 0.  1.
<scales pt_clust_3="120.07935" pt_clust_4="14000.00000" pt_clust_5="53.59751" pt_clust_6="60.55997"></scales>
<clustering>
<clus scale="   53.598">  1  5  2 -1</clus>
<clus scale="   60.560">  2  6  1 -1</clus>
<clus scale="  120.079">  2  3  1 -1</clus>
<clus scale="   53.598">  1  3  2 -1</clus>
</clustering>
</event>
<event>
 6    0  0.6338511E+002  0.1789946E+03  0.7546771E-02  0.1168780E+00
         -2   -1    0    0    0  501 -0.00000000000E+00  0.00000000000E+00  0.72815094583E+03  0.72815094583E+03  0.00000000000E+00 0.  1.
         21   -1    0    0  503  502  0.00000000000E+00 -0.00000000000E+00 -0.26747858493E+04  0.26747858493E+04  0.00000000000E+00 0. -1.
         21    1    1    2  503  501 -0.46906114080E+02  0.13407131176E+03 -0.87247607638E+03  0.88396255805E+03  0.00000000000E+00 0. -1.
         21    1    1    2  504  505  0.21682813576E+03 -0.11815094975E+02 -0.23458005248E+03  0.31965894004E+03  0.00000000000E+00 0. -1.
         21    1    1    2  505  502 -0.25675057572E+02 -0.15592799534E+02 -0.15074600536E+04  0.15077593167E+04  0.00000000000E+00 0. -1.
         -2    1    1    2    0  504 -0.14424696411E+03 -0.10666341725E+03  0.66788127893E+03  0.69155598037E+03  0.00000000000E+00 0.  1.
<scales pt_clust_3="139.11330" pt_clust_4="178.99460" pt_clust_5="30.03904" pt_clust_6="14000.00000"></scales>
<clustering>
<clus scale="   30.039">  2  5  1 -1</clus>
<clus scale="  139.113">  2  3  1 -1</clus>
<clus scale="  178.995">  2  4  1 -1</clus>
<clus scale="   30.039">  2  3  1 -1</clus>
</clustering>
</event>
<event>
 6    0  0.6338511E+002  0.1090403E+03  0.7546771E-02  0.1262357E+00
         21   -1    0    0  503  502  0.00000000000E+00  0.00000000000E+00  0.79989037558E+02  0.79989037558E+02  0.00000000000E+00 0.  1.
          2   -1    0    0  504    0 -0.00000000000E+00 -0.00000000000E+00 -0.21633680385E+04  0.21633680385E+04  0.00000000000E+00 0.  1.
         21    1    1    2  503  505  0.70597390969E+02 -0.67236805942E+01 -0.90050500863E+01  0.71486295326E+02  0.00000000000E+00 0.  1.
         21    1    1    2  504  502 -0.87323888246E+02  0.12334559113E+03 -0.16364997476E+03  0.22275751513E+03  0.00000000000E+00 0.  1.
         21    1    1    2  505  501  0.40571782460E+01 -0.84935990351E+02 -0.75923396429E+02  0.11399537393E+03  0.00000000000E+00 0.  1.
          2    1    1    2  501    0  0.12669319030E+02 -0.31685920181E+02 -0.18348005797E+04  0.18351178917E+04  0.00000000000E+00 0.  1.
<scales pt_clust_3="72.92546" pt_clust_4="14000.00000" pt_clust_5="109.04033" pt_clust_6="34.12491"></scales>
<clustering>
<clus scale="   34.125">  2  6  1 -1</clus>
<clus scale="   72.925">  1  3  2 -1</clus>
<clus scale="  109.040">  1  5  2 -1</clus>
<clus scale="   72.925">  1  3  2 -1</clus>
</clustering>
</event>
<event>
 6    0  0.6338511E+002  0.1038891E+03  0.7546771E-02  0.1272324E+00
          2   -1    0    0  505    0 -0.00000000000E+00  0.00000000000E+00  0.10408537990E+04  0.10408537990E+04  0.00000000000E+00 0. -1.
         21   -1    0    0  503  502  0.00000000000E+00 -0.00000000000E+00 -0.58100650304E+03  0.58100650304E+03  0.00000000000E+00 0. -1.
         21    1    1    2  503  501  0.25206807047E+02 -0.29745343265E+02 -0.15652522836E+03  0.16130813891E+03  0.00000000000E+00 0. -1.
         21    1    1    2  504  502  0.51318794614E+01  0.50513814018E+02 -0.40329537534E+03  0.40647895562E+03  0.00000000000E+00 0. -1.
         21    1    1    2  505  504  0.76348097830E+02 -0.41521277436E+02  0.12166670835E+03  0.14951868259E+03  0.00000000000E+00 0. -1.
          2    1    1    2  501    0 -0.10668678434E+03  0.20752806683E+02  0.89800119127E+03  0.90455452487E+03  0.00000000000E+00 0. -1.
<scales pt_clust_3="38.98934" pt_clust_4="36.63755" pt_clust_5="14000.00000" pt_clust_6="103.88913"></scales>
<clustering>
<clus scale="   38.989">  2  3  1 -1</clus>
<clus scale="   36.638">  2  4  1 -1</clus>
<clus scale="  103.889">  1  6  2 -1</clus>
<clus scale="   38.989">  2  3  1 -1</clus>
</clustering>
</event>
<event>
 6    0  0.6338511E+002  0.1957157E+03  0.7546771E-02  0.1153405E+00
         21   -1    0    0  505  502  0.00000000000E+00  0.00000000000E+00  0.20549323955E+03  0.20549323955E+03  0.00000000000E+00 0.  1.
         -4   -1    0    0    0  501 -0.00000000000E+00 -0.00000000000E+00 -0.17575736271E+04  0.17575736271E+04  0.00000000000E+00 0.  1.
         21    1    1    2  503  502 -0.85033523731E+01  0.33719271786E+02 -0.41211057896E+02  0.53922607358E+02  0.00000000000E+00 0.  1.
         21    1    1    2  504  501  0.22774978227E+03 -0.14106376850E+03 -0.33247974192E+03  0.42697977574E+03  0.00000000000E+00 0. -1.
         21    1    1    2  505  504 -0.79071456289E+02 -0.15067858432E+02  0.13417730622E+03  0.15647007721E+03  0.00000000000E+00 0.  1.
         -4    1    1    2    0  503 -0.14017497360E+03  0.12241235515E+03 -0.13125668940E+04  0.13256944063E+04  0.00000000000E+00 0.  1.
<scales pt_clust_3="34.77494" pt_clust_4="14000.00000" pt_clust_5="85.80880" pt_clust_6="195.71572"></scales>
<clustering>
<clus scale="   34.775">  1  3  2 -1</clus>
<clus scale="   85.809">  1  5  2 -1</clus>
<clus scale="  195.716">  2  6  1 -1</clus>
<clus scale="   34.775">  1  3  2 -1</clus>
</clustering>
</event>
<event>
 6    0  0.6338511E+002  0.8258106E+02  0.7546771E-02  0.1321882E+00
         21   -1    0    0  504  502  0.00000000000E+00  0.00000000000E+00  0.20708403969E+03  0.20708403969E+03  0.00000000000E+00 0. -1.
          1   -1    0    0  503    0 -0.00000000000E+00 -0.00000000000E+00 -0.18252040602E+04  0.18252040602E+04  0.00000000000E+00 0.  1.
         21    1    1    2  503  505 -0.12955613127E+03 -0.45759552836E+02 -0.20988529324E+03  0.25085965029E+03  0.00000000000E+00 0. -1.
         21    1    1    2  504  501  0.67314437099E+02  0.23777249164E+02  0.13493519493E+03  0.15265679759E+03  0.00000000000E+00 0. -1.
         21    1    1    2  505  502 -0.17340165818E+02  0.34779323909E+02  0.32731758186E+02  0.50809947019E+02  0.00000000000E+00 0.  1.
          1    1    1    2  501    0  0.79581859993E+02 -0.12797020237E+02 -0.15759016803E+04  0.15779617049E+04  0.00000000000E+00 0.  1.
<scales pt_clust_3="82.58106" pt_clust_4="75.14861" pt_clust_5="38.86236" pt_clust_6="14000.00000"></scales>
<clustering>
<clus scale="   38.862">  1  5  2 -1</clus>
<clus scale="   75.149">  1  4  2 -1</clus>
<clus scale="   82.581">  1  3  2 -1</clus>
<clus scale="   38.862">  1  3  2 -1</clus>
</clustering>
</event>
<event>
 6    0  0.6338511E+002  0.1312470E+03  0.7546771E-02  0.1225617E+00
          2   -1    0    0  505    0 -0.00000000000E+00  0.00000000000E+00  0.84757935800E+03  0.84757935800E+03  0.00000000000E+00 0. -1.
         21   -1    0    0  504  502  0.00000000000E+00 -0.00000000000E+00 -0.11946459144E+03  0.11946459144E+03  0.00000000000E+00 0.  1.
         21    1    1    2  503  502  0.66617242614E+02  0.10628388995E+03 -0.74452911145E+02  0.14586760522E+03  0.00000000000E+00 0.  1.
         21    1    1    2  504  501 -0.28323423879E+02 -0.40643841031E+02  0.24267166292E+03  0.24767655145E+03  0.00000000000E+00 0. -1.
         21    1    1    2  505  503 -0.32633319595E+02 -0.10353572541E+02  0.50083386249E+02  0.60666923363E+02  0.00000000000E+00 0. -1.
          2    1    1    2  501    0 -0.56604991408E+01 -0.55286476375E+02  0.50981262854E+03  0.51283286941E+03  0.00000000000E+00 0. -1.
<scales pt_clust_3="124.26315" pt_clust_4="39.26286" pt_clust_5="34.23638" pt_clust_6="39.26286"></scales>
<clustering>
<clus scale="   34.236">  1  5  2 -1</clus>
<clus scale="   39.263">  4  6 -1 -1</clus>
<clus scale="  124.263">  2  3  1 -1</clus>
<clus scale="  124.263">  2  3  1 -1</clus>
</clustering>
</event>
<event>
 6    0  0.6338511E+002  0.2442796E+03  0.7546771E-02  0.1116974E+00
         21   -1    0    0  503  502  0.00000000000E+00  0.00000000000E+00  0.55479399352E+03  0.55479399352E+03  0.00000000000E+00 0.  1.
          1   -1    0    0  504    0 -0.00000000000E+00 -0.00000000000E+00 -0.88397716572E+03  0.88397716572E+03  0.00000000000E+00 0.  1.
         21    1    1    2  503  501 -0.10641032466E+03 -0.15498333157E+03  0.43213307263E+03  0.47125575086E+03  0.00000000000E+00 0.  1.
         21    1    1    2  504  505  0.14844183672E+03 -0.45914641068E+02 -0.10579733295E+03  0.18797927761E+03  0.00000000000E+00 0.  1.
         21    1    1    2  505  502 -0.78427040856E+02 -0.26586422730E+02  0.19907680309E+01  0.82834785980E+02  0.00000000000E+00 0.  1.
          1    1    1    2  501    0  0.36395528791E+02  0.22748439536E+03 -0.65750967991E+03  0.69670134479E+03  0.00000000000E+00 0.  1.
<scales pt_clust_3="14000.00000" pt_clust_4="150.05255" pt_clust_5="82.81086" pt_clust_6="244.27957"></scales>
<clustering>
<clus scale="   82.811">  1  5  2 -1</clus>
<clus scale="  150.053">  2  4  1 -1</clus>
<clus scale="  244.280">  2  6  1 -1</clus>
<clus scale="   82.811">  1  3  2 -1</clus>
</clustering>
</event>
<event>
 6    0  0.6338511E+002  0.1236500E+03  0.7546771E-02  0.1237194E+00
         21   -1    0    0  504  502  0.00000000000E+00  0.00000000000E+00  0.21761937308E+03  0.21761937308E+03  0.00000000000E+00 0.  1.
          2   -1    0    0  505    0 -0.00000000000E+00 -0.00000000000E+00 -0.73671800527E+03  0.73671800527E+03  0.00000000000E+00 0.  1.
         21    1    1    2  503  502 -0.27917098320E+02  0.12362357516E+02  0.13686530175E+03  0.14022946582E+03  0.00000000000E+00 0.  1.
         21    1    1    2  504  501 -0.96525296457E+02  0.40723265846E+02  0.25967003886E+02  0.10793425095E+03  0.00000000000E+00 0.  1.
         21    1    1    2  505  503  0.60410813247E+02 -0.34735096480E+02 -0.10891925952E+03  0.12930351263E+03  0.00000000000E+00 0.  1.
          2    1    1    2  501    0  0.64031581531E+02 -0.18350526882E+02 -0.57301167831E+03  0.57687014895E+03  0.00000000000E+00 0.  1.
<scales pt_clust_3="30.53182" pt_clust_4="14000.00000" pt_clust_5="65.77245" pt_clust_6="123.64998"></scales>
<clustering>
<clus scale="   30.532">  1  3  2 -1</clus>
<clus scale="   65.772">  2  5  1 -1</clus>
<clus scale="  123.650">  2  6  1 -1</clus>
<clus scale="   30.532">  1  3  2 -1</clus>
</clustering>
</event>
<event>
 6    0  0.6338511E+002  0.8305845E+02  0.7546771E-02  0.1320589E+00
          3   -1    0    0  503    0 -0.00000000000E+00  0.00000000000E+00  0.17226338393E+03  0.17226338393E+03  0.00000000000E+00 0. -1.
         21   -1    0    0  504  502  0.00000000000E+00 -0.00000000000E+00 -0.16033555554E+03  0.16033555554E+03  0.00000000000E+00 0. -1.
         21    1    1    2  503  505  0.88711242406E+02  0.44332797080E+02  0.67512561910E+01  0.99401513501E+02  0.00000000000E+00 0. -1.
         21    1    1    2  504  501 -0.84867005034E+02 -0.29660288281E+02 -0.43811359751E+02  0.10000788213E+03  0.00000000000E+00 0. -1.
         21    1    1    2  505  502  0.32369229039E+02 -0.34363568759E+01 -0.30823523441E+02  0.44829288802E+02  0.00000000000E+00 0. -1.
          3    1    1    2  501    0 -0.36213466411E+02 -0.11236151924E+02  0.79811455392E+02  0.88360255043E+02  0.00000000000E+00 0. -1.
<scales pt_clust_3="83.05845" pt_clust_4="14000.00000" pt_clust_5="32.55112" pt_clust_6="36.87619"></scales>
<clustering>
<clus scale="   32.551">  2  5  1 -1</clus>
<clus scale="   36.876">  1  6  2 -1</clus>
<clus scale="   83.058">  1  3  2 -1</clus>
<clus scale="   32.551">  2  3  1 -1</clus>
</clustering>
</event>
<event>
 6    0  0.6338511E+002  0.7811473E+02  0.7546771E-02  0.1334488E+00
          2   -1    0    0  504    0 -0.00000000000E+00  0.00000000000E+00  0.20698430809E+04  0.20698430809E+04  0.00000000000E+00 0.  1.
         21   -1    0    0  505  502  0.00000000000E+00 -0.00000000000E+00 -0.51154992655E+03  0.51154992655E+03  0.00000000000E+00 0. -1.
         21    1    1    2  503  502 -0.25843096315E+02  0.30073433753E+02 -0.17007220166E+03  0.17463341840E+03  0.00000000000E+00 0. -1.
         21    1    1    2  504  503  0.89219694722E+02  0.16673718585E+02  0.73032586586E+03  0.73594431662E+03  0.00000000000E+00 0.  1.
         21    1    1    2  505  501 -0.35855246546E+02 -0.77966017718E+02 -0.33058368483E+03  0.34154043875E+03  0.00000000000E+00 0. -1.
          2    1    1    2  501    0 -0.27521351862E+02  0.31218865380E+02  0.13286231750E+04  0.13292748337E+04  0.00000000000E+00 0.  1.
<scales pt_clust_3="39.65195" pt_clust_4="78.11473" pt_clust_5="14000.00000" pt_clust_6="41.65590"></scales>
<clustering>
<clus scale="   39.652">  2  3  1 -1</clus>
<clus scale="   41.656">  1  6  2 -1</clus>
<clus scale="   78.115">  1  4  2 -1</clus>
<clus scale="   39.652">  2  3  1 -1</clus>
</clustering>
</event>
<event>
 6    0  0.6338511E+002  0.9214174E+02  0.7546771E-02  0.1297747E+00
          2   -1    0    0  503    0 -0.00000000000E+00  0.00000000000E+00  0.13006633174E+04  0.13006633174E+04  0.00000000000E+00 0. -1.
         21   -1    0    0  504  502  0.00000000000E+00 -0.00000000000E+00 -0.49457209392E+03  0.49457209392E+03  0.00000000000E+00 0.  1.
         21    1    1    2  503  505 -0.12851249605E+01  0.79213318776E+02  0.34639807336E+02  0.86465702276E+02  0.00000000000E+00 0. -1.
         21    1    1    2  504  501 -0.16256586668E+02  0.47177113858E+02 -0.40731981628E+02  0.64413127616E+02  0.00000000000E+00 0.  1.
         21    1    1    2  505  502  0.26134595996E+01 -0.93221053698E+02 -0.41058727660E+03  0.42104501746E+03  0.00000000000E+00 0.  1.
          2    1    1    2  501    0  0.14928252029E+02 -0.33169378936E+02  0.12227706744E+04  0.12233115640E+04  0.00000000000E+00 0. -1.
<scales pt_clust_3="14000.00000" pt_clust_4="44.37681" pt_clust_5="92.14174" pt_clust_6="36.37390"></scales>
<clustering>
<clus scale="   36.374">  1  6  2 -1</clus>
<clus scale="   44.377">  1  4  2 -1</clus>
<clus scale="   92.142">  2  5  1 -1</clus>
<clus scale="   92.142">  2  3  1 -1</clus>
</clustering>
</event>
<event>
 6    0  0.6338511E+002  0.8217350E+02  0.7546771E-02  0.1322994E+00
         21   -1    0    0  504  502  0.00000000000E+00  0.00000000000E+00  0.83168264893E+02  0.83168264893E+02  0.00000000000E+00 0. -1.
          2   -1    0    0  502    0 -0.00000000000E+00 -0.00000000000E+00 -0.29574259034E+03  0.29574259034E+03  0.00000000000E+00 0. -1.
         21    1    1    2  503  505 -0.68030021032E+02 -0.75750012836E+02 -0.96699443132E+02  0.14041698796E+03  0.00000000000E+00 0. -1.
         21    1    1    2  504  503  0.50328097871E+02  0.36671626848E+02  0.91545968144E+01  0.62940704586E+02  0.00000000000E+00 0. -1.
         21    1    1    2  505  501  0.11009447713E+02  0.71562263977E+02 -0.36642084477E+02  0.81148061710E+02  0.00000000000E+00 0. -1.
          2    1    1    2  501    0  0.66924754491E+01 -0.32483877988E+02 -0.88387394651E+02  0.94405100974E+02  0.00000000000E+00 0. -1.
<scales pt_clust_3="82.17350" pt_clust_4="60.59609" pt_clust_5="14000.00000" pt_clust_6="33.16612"></scales>
<clustering>
<clus scale="   33.166">  2  6  1 -1</clus>
<clus scale="   60.596">  1  4  2 -1</clus>
<clus scale="   82.174">  1  3  2 -1</clus>
<clus scale="   60.596">  1  3  2 -1</clus>
</clustering>
</event>
<event>
 6    0  0.6338511E+002  0.1125807E+03  0.7546771E-02  0.1255864E+00
         21   -1    0    0  504  502  0.00000000000E+00  0.00000000000E+00  0.29812329205E+03  0.29812329205E+03  0.00000000000E+00 0. -1.
          2   -1    0    0  505    0 -0.00000000000E+00 -0.00000000000E+00 -0.55740149400E+03  0.55740149400E+03  0.00000000000E+00 0.  1.
         21    1    1    2  503  502 -0.81661758153E+02  0.69493442432E+02  0.94657340065E+02  0.14303144170E+03  0.00000000000E+00 0. -1.
         21    1    1    2  504  501  0.23611861671E+02  0.22184877392E+02  0.13552577510E+03  0.13934462499E+03  0.00000000000E+00 0.  1.
         21    1    1    2  505  503 -0.90747730800E+02 -0.15540277676E+02 -0.32828633811E+03  0.34095244634E+03  0.00000000000E+00 0.  1.
          2    1    1    2  501    0  0.14879762728E+03 -0.76138042148E+02 -0.16117497901E+03  0.23219627302E+03  0.00000000000E+00 0.  1.
<scales pt_clust_3="112.58065" pt_clust_4="32.39890" pt_clust_5="91.00664" pt_clust_6="14000.00000"></scales>
<clustering>
<clus scale="   32.399">  1  4  2 -1</clus>
<clus scale="   91.007">  2  5  1 -1</clus>
<clus scale="  112.581">  1  3  2 -1</clus>
<clus scale="   32.399">  1  3  2 -1</clus>
</clustering>
</event>
<event>
 6    0  0.6338511E+002  0.1321061E+03  0.7546771E-02  0.1224364E+00
         21   -1    0    0  504  502  0.00000000000E+00  0.00000000000E+00  0.86184376776E+03  0.86184376776E+03  0.00000000000E+00 0. -1.
          2   -1    0    0  503    0 -0.00000000000E+00 -0.00000000000E+00 -0.28275814975E+04  0.28275814975E+04  0.00000000000E+00 0.  1.
         21    1    1    2  503  505  0.13845810402E+03  0.67695072474E+02 -0.41950394706E+03  0.44691926677E+03  0.00000000000E+00 0.  1.
         21    1    1    2  504  501 -0.14801566477E+02 -0.31431425694E+02  0.65132574504E+03  0.65225167462E+03  0.00000000000E+00 0. -1.
         21    1    1    2  505  502 -0.93131150395E+02 -0.46426933140E+02  0.18244313845E+03  0.21003421165E+03  0.00000000000E+00 0.  1.
          2    1    1    2  501    0 -0.30525387147E+02  0.10163286360E+02 -0.23800026662E+04  0.23802201122E+04  0.00000000000E+00 0.  1.
<scales pt_clust_3="14000.00000" pt_clust_4="34.74616" pt_clust_5="132.10608" pt_clust_6="32.17284"></scales>
<clustering>
<clus scale="   32.173">  2  6  1 -1</clus>
<clus scale="   34.746">  1  4  2 -1</clus>
<clus scale="  132.106">  1  5  2 -1</clus>
<clus scale="   34.746">  1  3  2 -1</clus>
</clustering>
</event>
<event>
 6    0  0.6338511E+002  0.7182121E+02  0.7546771E-02  0.1354007E+00
          1   -1    0    0  504    0 -0.00000000000E+00  0.00000000000E+00  0.20233071126E+03  0.20233071126E+03  0.00000000000E+00 0.  1.
         21   -1    0    0  503  502  0.00000000000E+00 -0.00000000000E+00 -0.71784919043E+03  0.71784919043E+03  0.00000000000E+00 0.  1.
         21    1    1    2  503  501 -0.90019009048E+01  0.62569849809E+02 -0.33107608486E+03  0.33705696001E+03  0.00000000000E+00 0.  1.
         21    1    1    2  504  505 -0.83130213010E+02 -0.80916171267E+02  0.61789203913E+02  0.13143806453E+03  0.00000000000E+00 0.  1.
         21    1    1    2  505  502  0.69527553475E+02 -0.26073379283E+02 -0.33864370706E+03  0.34668928759E+03  0.00000000000E+00 0.  1.
          1    1    1    2  501    0  0.22604560439E+02  0.44419700740E+02  0.92412108836E+02  0.10499558956E+03  0.00000000000E+00 0.  1.
<scales pt_clust_3="64.39531" pt_clust_4="71.82121" pt_clust_5="14000.00000" pt_clust_6="49.84051"></scales>
<clustering>
<clus scale="   49.841">  1  6  2 -1</clus>
<clus scale="   64.395">  2  3  1 -1</clus>
<clus scale="   71.821">  1  4  2 -1</clus>
<clus scale="   64.395">  2  3  1 -1</clus>
</clustering>
</event>
<event>
 6    0  0.6338511E+002  0.8987754E+02  0.7546771E-02  0.1303149E+00
         21   -1    0    0  505  502  0.00000000000E+00  0.00000000000E+00  0.88061924432E+02  0.88061924432E+02  0.00000000000E+00 0. -1.
         -3   -1    0    0    0  501 -0.00000000000E+00 -0.00000000000E+00 -0.97479865116E+03  0.97479865116E+03  0.00000000000E+00 0.  1.
         21    1    1    2  503  501 -0.24471157327E+02 -0.70215873388E+02 -0.22864778770E+02  0.77793987716E+02  0.00000000000E+00 0. -1.
         21    1    1    2  504  502 -0.21071839762E+02  0.74330782014E+02 -0.24110955339E+03  0.25318551365E+03  0.00000000000E+00 0.  1.
         21    1    1    2  505  503 -0.10005163522E+02 -0.37250217313E+02  0.45981526241E+02  0.60016520579E+02  0.00000000000E+00 0. -1.
         -3    1    1    2    0  504  0.55548160610E+02  0.33135308687E+02 -0.66874392081E+03  0.67186455365E+03  0.00000000000E+00 0.  1.
<scales pt_clust_3="14000.00000" pt_clust_4="89.87754" pt_clust_5="38.57048" pt_clust_6="63.46003"></scales>
<clustering>
<clus scale="   38.570">  1  5  2 -1</clus>
<clus scale="   63.460">  2  6  1 -1</clus>
<clus scale="   89.878">  2  4  1 -1</clus>
<clus scale="   38.570">  1  3  2 -1</clus>
</clustering>
</event>
<event>
 6    0  0.6338511E+002  0.1731629E+03  0.7546771E-02  0.1174589E+00
         21   -1    0    0  504  502  0.00000000000E+00  0.00000000000E+00  0.21821812050E+03  0.21821812050E+03  0.00000000000E+00 0. -1.
          2   -1    0    0  505    0 -0.00000000000E+00 -0.00000000000E+00 -0.12929407188E+04  0.12929407188E+04  0.00000000000E+00 0. -1.
         21    1    1    2  503  502 -0.10640960176E+03 -0.91858783936E+02  0.23623196293E+02  0.14254506282E+03  0.00000000000E+00 0. -1.
         21    1    1    2  504  501  0.15191792325E+03  0.27912029424E+02 -0.14989329633E+03  0.21523507399E+03  0.00000000000E+00 0. -1.
         21    1    1    2  505  503 -0.15127082057E+03 -0.56894950936E+02  0.27814222041E+02  0.16399246186E+03  0.00000000000E+00 0. -1.
          2    1    1    2  501    0  0.10576249907E+03  0.12084170545E+03 -0.97626672035E+03  0.98938624068E+03  0.00000000000E+00 0. -1.
<scales pt_clust_3="49.28466" pt_clust_4="154.46079" pt_clust_5="49.28466" pt_clust_6="164.90240"></scales>
<clustering>
<clus scale="   49.285">  3  5 -1 -1</clus>
<clus scale="  154.461">  1  4  2 -1</clus>
<clus scale="  164.902">  2  6  1 -1</clus>
<clus scale="  154.461">  1  3  2 -1</clus>
</clustering>
</event>
<event>
 6    0  0.6900596E+002  0.1627257E+03  0.7546771E-02  0.1185653E+00
         21   -1    0    0  505  502  0.00000000000E+00  0.00000000000E+00  0.98276189092E+03  0.98276189092E+03  0.00000000000E+00 0.  1.
          2   -1    0    0  504    0 -0.00000000000E+00 -0.00000000000E+00 -0.16099758360E+04  0.16099758360E+04  0.00000000000E+00 0.  1.
         21    1    1    2  503  502  0.11282718718E+03 -0.80585702829E+02  0.89216607267E+03  0.90287558993E+03  0.00000000000E+00 0.  1.
         21    1    1    2  504  503 -0.10487068904E+03 -0.55275402340E+01 -0.14772496103E+04  0.14809776590E+04  0.00000000000E+00 0.  1.
         21    1    1    2  505  501  0.70099595457E+01 -0.46220177557E+02  0.31822678159E+02  0.56551986627E+02  0.00000000000E+00 0. -1.
          2    1    1    2  501    0 -0.14966457685E+02  0.13233342062E+03 -0.73953085566E+02  0.15233249139E+03  0.00000000000E+00 0.  1.
<scales pt_clust_3="162.72567" pt_clust_4="105.00723" pt_clust_5="46.74874" pt_clust_6="14000.00000"></scales>
<clustering>
<clus scale="   46.749">  1  5  2 -1</clus>
<clus scale="  105.007">  2  4  1 -1</clus>
<clus scale="  162.726">  1  3  2 -1</clus>
<clus scale="   46.749">  1  3  2 -1</clus>
</clustering>
</event>
<event>
 6    0  0.6338511E+002  0.6461480E+02  0.7546771E-02  0.1379426E+00
          2   -1    0    0  503    0 -0.00000000000E+00  0.00000000000E+00  0.95059969639E+03  0.95059969639E+03  0.00000000000E+00 0. -1.
         21   -1    0    0  505  502  0.00000000000E+00 -0.00000000000E+00 -0.94012143987E+03  0.94012143987E+03  0.00000000000E+00 0.  1.
         21    1    1    2  503  504  0.43597889306E+02 -0.52003366808E+02 -0.12460526183E+02  0.68995585540E+02  0.00000000000E+00 0. -1.
         21    1    1    2  504  502  0.53127576673E+02  0.76057841181E+02 -0.81805904437E+03  0.82330306369E+03  0.00000000000E+00 0.  1.
         21    1    1    2  505  501 -0.32952377202E+02 -0.36329027152E+02 -0.69801543321E+02  0.85310684132E+02  0.00000000000E+00 0.  1.
          2    1    1    2  501    0 -0.63773088776E+02  0.12274552778E+02  0.91079937039E+03  0.91311180290E+03  0.00000000000E+00 0. -1.
<scales pt_clust_3="64.61480" pt_clust_4="46.85960" pt_clust_5="49.04750" pt_clust_6="14000.00000"></scales>
<clustering>
<clus scale="   49.048">  2  5  1 -1</clus>
<clus scale="   46.860">  2  4  1 -1</clus>
<clus scale="   64.615">  2  3  1 -1</clus>
<clus scale="   49.048">  2  3  1 -1</clus>
</clustering>
</event>
<event>
 6    0  0.6338511E+002  0.7395132E+02  0.7546771E-02  0.1347150E+00
          4   -1    0    0  504    0 -0.00000000000E+00  0.00000000000E+00  0.12372316679E+04  0.12372316679E+04  0.00000000000E+00 0. -1.
         21   -1    0    0  505  502  0.00000000000E+00 -0.00000000000E+00 -0.20257124323E+03  0.20257124323E+03  0.00000000000E+00 0. -1.
         21    1    1    2  503  502  0.72642712294E+02  0.12603294337E+02  0.51610449555E+02  0.89996917619E+02  0.00000000000E+00 0. -1.
         21    1    1    2  504  503  0.36153745730E+02  0.18992113413E+02  0.48482757633E+03  0.48654452260E+03  0.00000000000E+00 0. -1.
         21    1    1    2  505  501 -0.22341859948E+02  0.37993654619E+02 -0.17524912796E+03  0.18070676066E+03  0.00000000000E+00 0. -1.
          4    1    1    2  501    0 -0.86454598076E+02 -0.69589062370E+02  0.67347152673E+03  0.68255471022E+03  0.00000000000E+00 0. -1.
<scales pt_clust_3="14000.00000" pt_clust_4="40.83863" pt_clust_5="44.06895" pt_clust_6="73.95132"></scales>
<clustering>
<clus scale="   40.839">  1  4  2 -1</clus>
<clus scale="   44.069">  2  5  1 -1</clus>
<clus scale="   73.951">  1  6  2 -1</clus>
<clus scale="   44.069">  2  3  1 -1</clus>
</clustering>
</event>
<event>
 6    0  0.6338511E+002  0.1143002E+03  0.7546771E-02  0.1252808E+00
          2   -1    0    0  503    0 -0.00000000000E+00  0.00000000000E+00  0.40933239543E+03  0.40933239543E+03  0.00000000000E+00 0.  1.
         21   -1    0    0  505  502  0.00000000000E+00 -0.00000000000E+00 -0.26016902786E+03  0.26016902786E+03  0.00000000000E+00 0. -1.
         21    1    1    2  503  502 -0.57311833947E+02  0.95378790855E+02  0.10538321866E+02  0.11177126770E+03  0.00000000000E+00 0. -1.
         21    1    1    2  504  501  0.37113556661E+02 -0.10740406711E+03 -0.50515229102E+02  0.12435770218E+03  0.00000000000E+00 0. -1.
         21    1    1    2  505  504  0.29403498534E+02 -0.47529655097E+02 -0.11258177732E+03  0.12569125039E+03  0.00000000000E+00 0. -1.
          2    1    1    2  501    0 -0.92052212481E+01  0.59554931355E+02  0.30172205213E+03  0.30768120301E+03  0.00000000000E+00 0.  1.
<scales pt_clust_3="114.30024" pt_clust_4="14000.00000" pt_clust_5="55.88948" pt_clust_6="59.17668"></scales>
<clustering>
<clus scale="   55.889">  2  5  1 -1</clus>
<clus scale="   59.177">  1  6  2 -1</clus>
<clus scale="  114.300">  2  3  1 -1</clus>
<clus scale="   55.889">  2  3  1 -1</clus>
</clustering>
</event>
<event>
 6    0  0.6338511E+002  0.8499717E+02  0.7546771E-02  0.1315440E+00
          2   -1    0    0  504    0 -0.00000000000E+00  0.00000000000E+00  0.58159404890E+03  0.58159404890E+03  0.00000000000E+00 0.  1.
         21   -1    0    0  503  502  0.00000000000E+00 -0.00000000000E+00 -0.46445468974E+03  0.46445468974E+03  0.00000000000E+00 0. -1.
         21    1    1    2  503  505  0.42334927312E+02  0.15407289669E+02 -0.83142413194E+02  0.94563690268E+02  0.00000000000E+00 0. -1.
         21    1    1    2  504  502 -0.11019667943E+03 -0.66682470552E+02 -0.35210287684E+03  0.37492171972E+03  0.00000000000E+00 0. -1.
         21    1    1    2  505  501  0.71818654865E+02  0.17722866438E+02  0.10804855582E+03  0.13094468144E+03  0.00000000000E+00 0. -1.
          2    1    1    2  501    0 -0.39569027458E+01  0.33552314445E+02  0.44433609337E+03  0.44561864722E+03  0.00000000000E+00 0.  1.
<scales pt_clust_3="45.39645" pt_clust_4="84.99717" pt_clust_5="14000.00000" pt_clust_6="33.78483"></scales>
<clustering>
<clus scale="   33.785">  1  6  2 -1</clus>
<clus scale="   45.396">  2  3  1 -1</clus>
<clus scale="   84.997">  2  4  1 -1</clus>
<clus scale="   45.396">  2  3  1 -1</clus>
</clustering>
</event>
<event>
 6    0  0.6338511E+002  0.1536220E+03  0.7546771E-02  0.1196092E+00
          1   -1    0    0  504    0 -0.00000000000E+00  0.00000000000E+00  0.14803049345E+04  0.14803049345E+04  0.00000000000E+00 0.  1.
         21   -1    0    0  503  502  0.00000000000E+00 -0.00000000000E+00 -0.56761207879E+03  0.56761207879E+03  0.00000000000E+00 0.  1.
         21    1    1    2  503  501 -0.28780115225E+02 -0.93032235138E+02 -0.13458404254E+03  0.16612090872E+03  0.00000000000E+00 0.  1.
         21    1    1    2  504  505  0.10998542859E+03  0.51663890752E+02  0.41921690684E+02  0.12854330111E+03  0.00000000000E+00 0.  1.
         21    1    1    2  505  502  0.76684313995E+01 -0.87290616184E+02 -0.36430499183E+03  0.37469532101E+03  0.00000000000E+00 0.  1.
          1    1    1    2  501    0 -0.88873744768E+02  0.12865896057E+03  0.13696601994E+04  0.13785574825E+04  0.00000000000E+00 0.  1.
<scales pt_clust_3="14000.00000" pt_clust_4="116.31798" pt_clust_5="87.62680" pt_clust_6="153.62199"></scales>
<clustering>
<clus scale="   87.627">  2  5  1 -1</clus>
<clus scale="  116.318">  2  4  1 -1</clus>
<clus scale="  153.622">  1  6  2 -1</clus>
<clus scale="   87.627">  2  3  1 -1</clus>
</clustering>
</event>
<event>
 6    0  0.6338511E+002  0.1167900E+03  0.7546771E-02  0.1248488E+00
          2   -1    0    0  504    0 -0.00000000000E+00  0.00000000000E+00  0.20237971293E+03  0.20237971293E+03  0.00000000000E+00 0.  1.
         21   -1    0    0  503  502  0.00000000000E+00 -0.00000000000E+00 -0.10276963830E+04  0.10276963830E+04  0.00000000000E+00 0. -1.
         21    1    1    2  503  505 -0.81385260027E+02  0.72375346195E+02 -0.84195875757E+03  0.84897367493E+03  0.00000000000E+00 0. -1.
         21    1    1    2  504  502 -0.29139725506E+02 -0.53708576539E+02 -0.90840230146E+02  0.10947914052E+03  0.00000000000E+00 0.  1.
         21    1    1    2  505  501  0.16829831045E+03  0.42843615935E+01  0.27916293216E+02  0.17065168174E+03  0.00000000000E+00 0. -1.
          2    1    1    2  501    0 -0.57773324914E+02 -0.22951131250E+02  0.79566024460E+02  0.10097159871E+03  0.00000000000E+00 0.  1.
<scales pt_clust_3="116.79000" pt_clust_4="61.10429" pt_clust_5="14000.00000" pt_clust_6="62.70811"></scales>
<clustering>
<clus scale="   61.104">  2  4  1 -1</clus>
<clus scale="   62.708">  1  6  2 -1</clus>
<clus scale="  116.790">  2  3  1 -1</clus>
<clus scale="   61.104">  2  3  1 -1</clus>
</clustering>
</event>
<event>
 6    0  0.6338511E+002  0.6576300E+02  0.7546771E-02  0.1375124E+00
         21   -1    0    0  505  502  0.00000000000E+00  0.00000000000E+00  0.39155714758E+02  0.39155714758E+02  0.00000000000E+00 0.  1.
          1   -1    0    0  504    0 -0.00000000000E+00 -0.00000000000E+00 -0.10687888318E+04  0.10687888318E+04  0.00000000000E+00 0. -1.
         21    1    1    2  503  502  0.62310227005E+02 -0.31128674764E+02 -0.83178002222E+02  0.10849027070E+03  0.00000000000E+00 0.  1.
         21    1    1    2  504  503  0.71983507951E+01 -0.32226372884E+02 -0.24806114130E+03  0.25024924613E+03  0.00000000000E+00 0. -1.
         21    1    1    2  505  501 -0.67689603703E+02 -0.23563082434E+02 -0.34323926581E+02  0.79468441782E+02  0.00000000000E+00 0.  1.
          1    1    1    2  501    0 -0.18189740965E+01  0.86918130083E+02 -0.66407004690E+03  0.66973658791E+03  0.00000000000E+00 0. -1.
<scales pt_clust_3="14000.00000" pt_clust_4="33.02053" pt_clust_5="65.76300" pt_clust_6="60.83098"></scales>
<clustering>
<clus scale="   33.021">  2  4  1 -1</clus>
<clus scale="   60.831">  2  6  1 -1</clus>
<clus scale="   65.763">  1  5  2 -1</clus>
<clus scale="   65.763">  1  3  2 -1</clus>
</clustering>
</event>
<event>
 6    0  0.6338511E+002  0.8103885E+02  0.7546771E-02  0.1326129E+00
          1   -1    0    0  503    0 -0.00000000000E+00  0.00000000000E+00  0.27504316686E+03  0.27504316686E+03  0.00000000000E+00 0.  1.
         21   -1    0    0  505  502  0.00000000000E+00 -0.00000000000E+00 -0.10964667472E+03  0.10964667472E+03  0.00000000000E+00 0. -1.
         21    1    1    2  503  502 -0.38226836360E+02  0.29448263513E+02 -0.19820343929E+02  0.52166438210E+02  0.00000000000E+00 0.  1.
         21    1    1    2  504  501  0.81001541270E+02  0.39999347821E+02  0.63112843157E+02  0.11020176262E+03  0.00000000000E+00 0. -1.
         21    1    1    2  505  504  0.22400988486E+02 -0.27356000333E+02 -0.33335794534E+02  0.48594549453E+02  0.00000000000E+00 0. -1.
          1    1    1    2  501    0 -0.65175693396E+02 -0.42091611001E+02  0.15543978744E+03  0.17372709129E+03  0.00000000000E+00 0.  1.
<scales pt_clust_3="30.49510" pt_clust_4="14000.00000" pt_clust_5="35.35753" pt_clust_6="81.03885"></scales>
<clustering>
<clus scale="   35.358">  2  5  1 -1</clus>
<clus scale="   30.495">  2  3  1 -1</clus>
<clus scale="   81.039">  1  6  2 -1</clus>
<clus scale="   35.358">  2  3  1 -1</clus>
</clustering>
</event>
<event>
 6    0  0.6338511E+002  0.7238631E+02  0.7546771E-02  0.1352161E+00
          2   -1    0    0  505    0 -0.00000000000E+00  0.00000000000E+00  0.53342553971E+03  0.53342553971E+03  0.00000000000E+00 0. -1.
         21   -1    0    0  504  502  0.00000000000E+00 -0.00000000000E+00 -0.31261778611E+03  0.31261778611E+03  0.00000000000E+00 0. -1.
         21    1    1    2  503  501  0.52545489549E+02 -0.51917068450E+02  0.39352389491E+02  0.83696003651E+02  0.00000000000E+00 0. -1.
         21    1    1    2  504  503  0.98643801085E-01  0.50451477385E+02 -0.80702055214E+02  0.95174487215E+02  0.00000000000E+00 0. -1.
         21    1    1    2  505  502 -0.32922515978E+02 -0.69169178936E+02 -0.19221637003E+03  0.20691882534E+03  0.00000000000E+00 0. -1.
          2    1    1    2  501    0 -0.19721617372E+02  0.70634770001E+02  0.45437378935E+03  0.46025400962E+03  0.00000000000E+00 0. -1.
<scales pt_clust_3="72.38631" pt_clust_4="50.45157" pt_clust_5="40.88242" pt_clust_6="14000.00000"></scales>
<clustering>
<clus scale="   50.452">  2  4  1 -1</clus>
<clus scale="   40.882">  2  5  1 -1</clus>
<clus scale="   72.386">  2  3  1 -1</clus>
<clus scale="   50.452">  2  3  1 -1</clus>
</clustering>
</event>
<event>
 6    0  0.6338511E+002  0.1111000E+03  0.7546771E-02  0.1258546E+00
          2   -1    0    0  504    0 -0.00000000000E+00  0.00000000000E+00  0.77815127416E+03  0.77815127416E+03  0.00000000000E+00 0. -1.
         21   -1    0    0  505  502  0.00000000000E+00 -0.00000000000E+00 -0.40755961340E+03  0.40755961340E+03  0.00000000000E+00 0.  1.
         21    1    1    2  503  501 -0.78360455726E+02  0.39671747428E+02 -0.13587605229E+03  0.16179156391E+03  0.00000000000E+00 0.  1.
         21    1    1    2  504  502  0.83102635860E+02 -0.11259251560E+03  0.61024633431E+03  0.62608602540E+03  0.00000000000E+00 0. -1.
         21    1    1    2  505  503  0.22025138733E+02  0.57235479979E+02 -0.24535201181E+03  0.25290040847E+03  0.00000000000E+00 0.  1.
          2    1    1    2  501    0 -0.26767318867E+02  0.15685288188E+02  0.14157339056E+03  0.14493288978E+03  0.00000000000E+00 0. -1.
<scales pt_clust_3="111.09998" pt_clust_4="14000.00000" pt_clust_5="61.35719" pt_clust_6="31.02447"></scales>
<clustering>
<clus scale="   31.024">  1  6  2 -1</clus>
<clus scale="   61.357">  2  5  1 -1</clus>
<clus scale="  111.100">  2  3  1 -1</clus>
<clus scale="   61.357">  2  3  1 -1</clus>
</clustering>
</event>
<event>
 6    0  0.6338511E+002  0.1183185E+03  0.7546771E-02  0.1245897E+00
          2   -1    0    0  505    0 -0.00000000000E+00  0.00000000000E+00  0.45035123389E+03  0.45035123389E+03  0.00000000000E+00 0.  1.
         21   -1    0    0  503  502  0.00000000000E+00 -0.00000000000E+00 -0.13064933382E+04  0.13064933382E+04  0.00000000000E+00 0.  1.
         21    1    1    2  503  501 -0.57638806671E+02 -0.15651864380E+03 -0.26527782169E+03  0.31335704966E+03  0.00000000000E+00 0.  1.
         21    1    1    2  504  502 -0.35882342085E+02 -0.23903231890E+01 -0.60122143269E+03  0.60229599637E+03  0.00000000000E+00 0.  1.
         21    1    1    2  505  504  0.13157006757E+02  0.73444780567E+02 -0.40385351771E+03  0.41068833242E+03  0.00000000000E+00 0.  1.
          2    1    1    2  501    0  0.80364141998E+02  0.85464186422E+02  0.41421066775E+03  0.43050319367E+03  0.00000000000E+00 0.  1.
<scales pt_clust_3="14000.00000" pt_clust_4="35.96187" pt_clust_5="72.46091" pt_clust_6="118.31852"></scales>
<clustering>
<clus scale="   35.962">  2  4  1 -1</clus>
<clus scale="   72.461">  2  5  1 -1</clus>
<clus scale="  118.319">  1  6  2 -1</clus>
<clus scale="   35.962">  2  3  1 -1</clus>
</clustering>
</event>
<event>
 6    0  0.6338511E+002  0.9518456E+02  0.7546771E-02  0.1290761E+00
          1   -1    0    0  505    0 -0.00000000000E+00  0.00000000000E+00  0.18352786018E+04  0.18352786018E+04  0.00000000000E+00 0. -1.
         21   -1    0    0  504  502  0.00000000000E+00 -0.00000000000E+00 -0.28258349537E+03  0.28258349537E+03  0.00000000000E+00 0.  1.
         21    1    1    2  503  501 -0.81542167931E+02 -0.14053133303E+02 -0.43506050018E+02  0.93484715834E+02  0.00000000000E+00 0.  1.
         21    1    1    2  504  503  0.11241126787E+02 -0.51944852867E+02 -0.99381298759E+02  0.11269992553E+03  0.00000000000E+00 0.  1.
         21    1    1    2  505  502 -0.25123631232E+02  0.67852171019E+02 -0.94519017028E+02  0.11903343454E+03  0.00000000000E+00 0.  1.
          1    1    1    2  501    0  0.95424672376E+02 -0.18541848494E+01  0.17901014722E+04  0.17926440213E+04  0.00000000000E+00 0. -1.
<scales pt_clust_3="95.18456" pt_clust_4="53.14725" pt_clust_5="40.78368" pt_clust_6="14000.00000"></scales>
<clustering>
<clus scale="   53.147">  2  4  1 -1</clus>
<clus scale="   40.784">  2  5  1 -1</clus>
<clus scale="   95.185">  2  3  1 -1</clus>
<clus scale="   53.147">  2  3  1 -1</clus>
</clustering>
</event>
<event>
 6    0  0.6338511E+002  0.8962485E+02  0.7546771E-02  0.1303763E+00
         21   -1    0    0  505  502  0.00000000000E+00  0.00000000000E+00  0.99390046851E+03  0.99390046851E+03  0.00000000000E+00 0.  1.
          2   -1    0    0  503    0 -0.00000000000E+00 -0.00000000000E+00 -0.78997960931E+02  0.78997960931E+02  0.00000000000E+00 0. -1.
         21    1    1    2  503  504  0.47677093673E+02  0.24798112008E+02  0.17665860957E+03  0.18465187775E+03  0.00000000000E+00 0.  1.
         21    1    1    2  504  502 -0.23090411400E+02 -0.19888765718E+02  0.42739107093E+03  0.42847620425E+03  0.00000000000E+00 0.  1.
         21    1    1    2  505  501 -0.30850033182E+02  0.84719424508E+02  0.35024729075E+03  0.36166596483E+03  0.00000000000E+00 0.  1.
          2    1    1    2  501    0  0.62633509087E+01 -0.89628770798E+02 -0.39394463674E+02  0.98104382612E+02  0.00000000000E+00 0. -1.
<scales pt_clust_3="44.32854" pt_clust_4="30.47507" pt_clust_5="14000.00000" pt_clust_6="89.62485"></scales>
<clustering>
<clus scale="   30.475">  1  4  2 -1</clus>
<clus scale="   44.329">  1  3  2 -1</clus>
<clus scale="   89.625">  2  6  1 -1</clus>
<clus scale="   30.475">  1  3  2 -1</clus>
</clustering>
</event>
<event>
 6    0  0.6338511E+002  0.1476903E+03  0.7546771E-02  0.1203340E+00
         21   -1    0    0  504  502  0.00000000000E+00  0.00000000000E+00  0.50209563817E+02  0.50209563817E+02  0.00000000000E+00 0.  1.
          2   -1    0    0  503    0 -0.00000000000E+00 -0.00000000000E+00 -0.17559794831E+04  0.17559794831E+04  0.00000000000E+00 0.  1.
         21    1    1    2  503  505 -0.12510524961E+03 -0.13363367317E+03 -0.74465335761E+03  0.76682325544E+03  0.00000000000E+00 0.  1.
         21    1    1    2  504  501 -0.43675152093E+02  0.59587559907E+02 -0.54543553308E+02  0.91832431164E+02  0.00000000000E+00 0.  1.
         21    1    1    2  505  502  0.10802315704E+03  0.72117976688E+02 -0.20078901087E+03  0.23913642948E+03  0.00000000000E+00 0.  1.
          2    1    1    2  501    0  0.60757244654E+02  0.19281365780E+01 -0.70578399747E+03  0.70839693081E+03  0.00000000000E+00 0.  1.
<scales pt_clust_3="147.69034" pt_clust_4="71.56748" pt_clust_5="14000.00000" pt_clust_6="60.78783"></scales>
<clustering>
<clus scale="   60.788">  2  6  1 -1</clus>
<clus scale="   71.567">  1  4  2 -1</clus>
<clus scale="  147.690">  2  3  1 -1</clus>
<clus scale="   71.567">  1  3  2 -1</clus>
</clustering>
</event>
<event>
 6    0  0.6338511E+002  0.8197299E+02  0.7546771E-02  0.1323544E+00
         21   -1    0    0  504  502  0.00000000000E+00  0.00000000000E+00  0.47421157291E+02  0.47421157291E+02  0.00000000000E+00 0. -1.
          2   -1    0    0  502    0 -0.00000000000E+00 -0.00000000000E+00 -0.32734140356E+04  0.32734140356E+04  0.00000000000E+00 0.  1.
         21    1    1    2  503  501  0.88986043904E+02  0.60435350485E+02 -0.79571580744E+02  0.13380053834E+03  0.00000000000E+00 0. -1.
         21    1    1    2  504  505 -0.66256472088E+02 -0.18294388919E+01 -0.16278926719E+03  0.17576578863E+03  0.00000000000E+00 0. -1.
         21    1    1    2  505  503  0.58573039884E+02 -0.50572009404E+02 -0.99833638249E+02  0.12631343738E+03  0.00000000000E+00 0. -1.
          2    1    1    2  501    0 -0.81302611700E+02 -0.80339021890E+01 -0.28837983921E+04  0.28849554286E+04  0.00000000000E+00 0.  1.
<scales pt_clust_3="81.97299" pt_clust_4="66.28172" pt_clust_5="63.22395" pt_clust_6="14000.00000"></scales>
<clustering>
<clus scale="   66.282">  1  4  2 -1</clus>
<clus scale="   63.224">  1  5  2 -1</clus>
<clus scale="   81.973">  1  3  2 -1</clus>
<clus scale="   66.282">  1  3  2 -1</clus>
</clustering>
</event>
<event>
 6    0  0.6338511E+002  0.7464014E+02  0.7546771E-02  0.1344989E+00
         21   -1    0    0  504  502  0.00000000000E+00  0.00000000000E+00  0.13005394803E+04  0.13005394803E+04  0.00000000000E+00 0. -1.
          2   -1    0    0  503    0 -0.00000000000E+00 -0.00000000000E+00 -0.34687807773E+03  0.34687807773E+03  0.00000000000E+00 0.  1.
         21    1    1    2  503  502  0.48200347141E+02  0.45122481371E+02  0.38409569376E+03  0.38972915436E+03  0.00000000000E+00 0. -1.
         21    1    1    2  504  505 -0.36570042797E+02 -0.23828790917E+02  0.56424898339E+03  0.56593470875E+03  0.00000000000E+00 0. -1.
         21    1    1    2  505  501 -0.62602569025E+02  0.33353952747E+02  0.34077152440E+03  0.34807585330E+03  0.00000000000E+00 0. -1.
          2    1    1    2  501    0  0.50972264680E+02 -0.54647643201E+02 -0.33545479897E+03  0.34367784163E+03  0.00000000000E+00 0.  1.
<scales pt_clust_3="43.59611" pt_clust_4="43.64836" pt_clust_5="14000.00000" pt_clust_6="74.64014"></scales>
<clustering>
<clus scale="   43.648">  1  4  2 -1</clus>
<clus scale="   43.596">  1  3  2 -1</clus>
<clus scale="   74.640">  2  6  1 -1</clus>
<clus scale="   43.648">  1  3  2 -1</clus>
</clustering>
</event>
<event>
 6    0  0.6338511E+002  0.9097202E+02  0.7546771E-02  0.1300515E+00
          2   -1    0    0  503    0 -0.00000000000E+00  0.00000000000E+00  0.81426985636E+02  0.81426985636E+02  0.00000000000E+00 0.  1.
         21   -1    0    0  505  502  0.00000000000E+00 -0.00000000000E+00 -0.22074783701E+04  0.22074783701E+04  0.00000000000E+00 0. -1.
         21    1    1    2  503  502 -0.30691303171E+02 -0.28365819709E+02 -0.14768906756E+04  0.14774818589E+04  0.00000000000E+00 0. -1.
         21    1    1    2  504  501 -0.14446997921E+01 -0.11396068375E+03 -0.24809332379E+03  0.27301908708E+03  0.00000000000E+00 0. -1.
         21    1    1    2  505  504  0.91441906241E+01  0.56636679705E+02 -0.43840811302E+03  0.44214590722E+03  0.00000000000E+00 0. -1.
          2    1    1    2  501    0  0.22991812339E+02  0.85689823755E+02  0.37340727985E+02  0.96258502463E+02  0.00000000000E+00 0.  1.
<scales pt_clust_3="41.79205" pt_clust_4="90.97202" pt_clust_5="40.62818" pt_clust_6="14000.00000"></scales>
<clustering>
<clus scale="   41.792">  2  3  1 -1</clus>
<clus scale="   40.628">  2  5  1 -1</clus>
<clus scale="   90.972">  2  4  1 -1</clus>
<clus scale="   41.792">  2  3  1 -1</clus>
</clustering>
</event>
<event>
 6    0  0.6338511E+002  0.1343149E+03  0.7546771E-02  0.1221190E+00
         21   -1    0    0  505  502  0.00000000000E+00  0.00000000000E+00  0.46026312877E+02  0.46026312877E+02  0.00000000000E+00 0.  1.
          4   -1    0    0  503    0 -0.00000000000E+00 -0.00000000000E+00 -0.16262362301E+04  0.16262362301E+04  0.00000000000E+00 0. -1.
         21    1    1    2  503  504 -0.13914294812E+03 -0.87064094583E+02 -0.84668550642E+03  0.86244841200E+03  0.00000000000E+00 0. -1.
         21    1    1    2  504  502  0.22279351696E+01  0.52037392095E+02  0.38343313117E+01  0.52226008538E+02  0.00000000000E+00 0.  1.
         21    1    1    2  505  501  0.10524707871E+03  0.36216532687E+02 -0.31581260024E+03  0.33485247989E+03  0.00000000000E+00 0.  1.
          4    1    1    2  501    0  0.31667934239E+02 -0.11898301992E+01 -0.42154614187E+03  0.42273564255E+03  0.00000000000E+00 0. -1.
<scales pt_clust_3="134.31494" pt_clust_4="52.09229" pt_clust_5="14000.00000" pt_clust_6="31.69028"></scales>
<clustering>
<clus scale="   31.690">  2  6  1 -1</clus>
<clus scale="   52.092">  1  4  2 -1</clus>
<clus scale="  134.315">  2  3  1 -1</clus>
<clus scale="   52.092">  1  3  2 -1</clus>
</clustering>
</event>
<event>
 6    0  0.6338511E+002  0.2418283E+03  0.7546771E-02  0.1118581E+00
         -3   -1    0    0    0  501 -0.00000000000E+00  0.00000000000E+00  0.97795869267E+03  0.97795869267E+03  0.00000000000E+00 0.  1.
         21   -1    0    0  505  502  0.00000000000E+00 -0.00000000000E+00 -0.23285698117E+03  0.23285698117E+03  0.00000000000E+00 0.  1.
         21    1    1    2  503  502 -0.95642636634E+02  0.23693567169E+03  0.12127531216E+03  0.28283162448E+03  0.00000000000E+00 0.  1.
         21    1    1    2  504  501 -0.17525755481E+02 -0.26163580666E+03  0.22207039414E+03  0.34362145943E+03  0.00000000000E+00 0.  1.
         21    1    1    2  505  504  0.68691055258E+01 -0.46562120607E+02 -0.76203423454E+02  0.89566608913E+02  0.00000000000E+00 0.  1.
         -3    1    1    2    0  503  0.10629928659E+03  0.71262255570E+02  0.47795942865E+03  0.49479598102E+03  0.00000000000E+00 0.  1.
<scales pt_clust_3="14000.00000" pt_clust_4="241.82829" pt_clust_5="47.06608" pt_clust_6="126.86328"></scales>
<clustering>
<clus scale="   47.066">  2  5  1 -1</clus>
<clus scale="  126.863">  1  6  2 -1</clus>
<clus scale="  241.828">  1  4  2 -1</clus>
<clus scale="   47.066">  2  3  1 -1</clus>
</clustering>
</event>
<event>
 6    0  0.6338511E+002  0.9666242E+02  0.7546771E-02  0.1287475E+00
         -1   -1    0    0    0  501 -0.00000000000E+00  0.00000000000E+00  0.73295546459E+02  0.73295546459E+02  0.00000000000E+00 0. -1.
         21   -1    0    0  503  502  0.00000000000E+00 -0.00000000000E+00 -0.77072601150E+03  0.77072601150E+03  0.00000000000E+00 0. -1.
         21    1    1    2  503  505 -0.40486936764E+01  0.50272273831E+02 -0.12494892590E+03  0.13474393315E+03  0.00000000000E+00 0.  1.
         21    1    1    2  504  502 -0.86646905263E+02 -0.15866415040E+01 -0.55451290743E+03  0.56124394708E+03  0.00000000000E+00 0. -1.
         21    1    1    2  505  501  0.36461326748E+02  0.28130827770E+02 -0.27305954304E+02  0.53538649214E+02  0.00000000000E+00 0. -1.
         -1    1    1    2    0  504  0.54234272191E+02 -0.76816460096E+02  0.93373225925E+01  0.94495028520E+02  0.00000000000E+00 0. -1.
<scales pt_clust_3="52.57274" pt_clust_4="96.66242" pt_clust_5="46.05184" pt_clust_6="14000.00000"></scales>
<clustering>
<clus scale="   46.052">  1  5  2 -1</clus>
<clus scale="   52.573">  2  3  1 -1</clus>
<clus scale="   96.662">  2  4  1 -1</clus>
<clus scale="   52.573">  2  3  1 -1</clus>
</clustering>
</event>
<event>
 6    0  0.6338511E+002  0.1444882E+03  0.7546771E-02  0.1207414E+00
         -2   -1    0    0    0  501 -0.00000000000E+00  0.00000000000E+00  0.14596751431E+04  0.14596751431E+04  0.00000000000E+00 0.  1.
         21   -1    0    0  503  502  0.00000000000E+00 -0.00000000000E+00 -0.34458155951E+03  0.34458155951E+03  0.00000000000E+00 0.  1.
         21    1    1    2  503  504 -0.16509231109E+03  0.18980441212E+02 -0.22880579878E+03  0.28278582335E+03  0.00000000000E+00 0.  1.
         21    1    1    2  504  501  0.11064038510E+03  0.49270443407E+02 -0.40084413403E+02  0.12757598366E+03  0.00000000000E+00 0. -1.
         21    1    1    2  505  502  0.53049347807E+02 -0.35972198506E+02  0.21227263891E+03  0.22173837196E+03  0.00000000000E+00 0. -1.
         -2    1    1    2    0  505  0.14025781793E+01 -0.32278686113E+02  0.11717111568E+04  0.11721565236E+04  0.00000000000E+00 0.  1.
<scales pt_clust_3="14000.00000" pt_clust_4="144.48824" pt_clust_5="81.02823" pt_clust_6="32.30914"></scales>
<clustering>
<clus scale="   32.309">  1  6  2 -1</clus>
<clus scale="   81.028">  1  5  2 -1</clus>
<clus scale="  144.488">  1  4  2 -1</clus>
<clus scale="  144.488">  2  3  1 -1</clus>
</clustering>
</event>
<event>
 6    0  0.6338511E+002  0.1056745E+03  0.7546771E-02  0.1268796E+00
         21   -1    0    0  504  502  0.00000000000E+00  0.00000000000E+00  0.14544168741E+04  0.14544168741E+04  0.00000000000E+00 0. -1.
          2   -1    0    0  503    0 -0.00000000000E+00 -0.00000000000E+00 -0.14077890725E+04  0.14077890725E+04  0.00000000000E+00 0.  1.
         21    1    1    2  503  502 -0.28674531429E+02  0.92721223633E+02  0.51606546575E+02  0.10992128872E+03  0.00000000000E+00 0. -1.
         21    1    1    2  504  505  0.25936245348E+02 -0.24399819220E+02  0.11814535216E+04  0.11819900438E+04  0.00000000000E+00 0. -1.
         21    1    1    2  505  501 -0.28284773568E+02 -0.10514180249E+03  0.17603014676E+03  0.20698173739E+03  0.00000000000E+00 0.  1.
          2    1    1    2  501    0  0.31023059648E+02  0.36820398079E+02 -0.13624624133E+04  0.13633128766E+04  0.00000000000E+00 0.  1.
<scales pt_clust_3="105.67453" pt_clust_4="35.60955" pt_clust_5="14000.00000" pt_clust_6="48.14439"></scales>
<clustering>
<clus scale="   35.610">  1  4  2 -1</clus>
<clus scale="   48.144">  2  6  1 -1</clus>
<clus scale="  105.675">  2  3  1 -1</clus>
<clus scale="   35.610">  1  3  2 -1</clus>
</clustering>
</event>
<event>
 6    0  0.6338511E+002  0.1506771E+03  0.7546771E-02  0.1199643E+00
         21   -1    0    0  503  502  0.00000000000E+00  0.00000000000E+00  0.16672316915E+03  0.16672316915E+03  0.00000000000E+00 0.  1.
          1   -1    0    0  504    0 -0.00000000000E+00 -0.00000000000E+00 -0.15087374041E+04  0.15087374041E+04  0.00000000000E+00 0.  1.
         21    1    1    2  503  501  0.28444441618E+00  0.65567201315E+02 -0.11231787302E+03  0.13005553966E+03  0.00000000000E+00 0.  1.
         21    1    1    2  504  505 -0.15398874246E+03 -0.16781919119E+03 -0.21707297213E+03  0.31463707501E+03  0.00000000000E+00 0.  1.
         21    1    1    2  505  502  0.90444090673E+02  0.10414385082E+03  0.64159583216E+02  0.15212668181E+03  0.00000000000E+00 0.  1.
          1    1    1    2  501    0  0.63260207373E+02 -0.18918609396E+01 -0.10767829730E+04  0.10786412767E+04  0.00000000000E+00 0.  1.
<scales pt_clust_3="67.49916" pt_clust_4="14000.00000" pt_clust_5="150.67715" pt_clust_6="63.28849"></scales>
<clustering>
<clus scale="   63.288">  2  6  1 -1</clus>
<clus scale="   67.499">  2  3  1 -1</clus>
<clus scale="  150.677">  1  5  2 -1</clus>
<clus scale="  150.677">  1  3  2 -1</clus>
</clustering>
</event>
<event>
 6    0  0.6338511E+002  0.1474472E+03  0.7546771E-02  0.1203645E+00
          2   -1    0    0  504    0 -0.00000000000E+00  0.00000000000E+00  0.13273049175E+04  0.13273049175E+04  0.00000000000E+00 0.  1.
         21   -1    0    0  503  502  0.00000000000E+00 -0.00000000000E+00 -0.35876738936E+03  0.35876738936E+03  0.00000000000E+00 0.  1.
         21    1    1    2  503  505  0.16785086791E+02 -0.67124532809E+02 -0.20896990645E+03  0.22012692667E+03  0.00000000000E+00 0.  1.
         21    1    1    2  504  502 -0.63630779568E+01  0.21311193792E+03 -0.51460220395E+02  0.21932929838E+03  0.00000000000E+00 0.  1.
         21    1    1    2  505  501  0.20508187144E+02 -0.11934224374E+03  0.43331324180E+03  0.44991501686E+03  0.00000000000E+00 0.  1.
          2    1    1    2  501    0 -0.30930195979E+02 -0.26645161379E+02  0.79565441319E+03  0.79670106494E+03  0.00000000000E+00 0.  1.
<scales pt_clust_3="69.38509" pt_clust_4="147.44720" pt_clust_5="14000.00000" pt_clust_6="40.82452"></scales>
<clustering>
<clus scale="   40.825">  1  6  2 -1</clus>
<clus scale="   69.385">  2  3  1 -1</clus>
<clus scale="  147.447">  2  4  1 -1</clus>
<clus scale="   69.385">  2  3  1 -1</clus>
</clustering>
</event>
<event>
 6    0  0.6338511E+002  0.1279523E+03  0.7546771E-02  0.1230526E+00
          2   -1    0    0  505    0 -0.00000000000E+00  0.00000000000E+00  0.30234761168E+03  0.30234761168E+03  0.00000000000E+00 0. -1.
         21   -1    0    0  503  502  0.00000000000E+00 -0.00000000000E+00 -0.53890429134E+03  0.53890429134E+03  0.00000000000E+00 0. -1.
         21    1    1    2  503  504  0.43807212513E+02 -0.74076416053E+01 -0.35348053336E+03  0.35626174716E+03  0.00000000000E+00 0. -1.
         21    1    1    2  504  501  0.70899017498E+02 -0.61873678094E+02 -0.13329456248E+03  0.16316391485E+03  0.00000000000E+00 0. -1.
         21    1    1    2  505  502 -0.14363265527E+03  0.43341854498E+02  0.14094259308E+03  0.20584865935E+03  0.00000000000E+00 0. -1.
          2    1    1    2  501    0  0.28926425256E+02  0.25939465201E+02  0.10927582310E+03  0.11597758166E+03  0.00000000000E+00 0. -1.
<scales pt_clust_3="44.60701" pt_clust_4="127.95226" pt_clust_5="14000.00000" pt_clust_6="38.85349"></scales>
<clustering>
<clus scale="   38.853">  1  6  2 -1</clus>
<clus scale="   44.607">  2  3  1 -1</clus>
<clus scale="  127.952">  2  4  1 -1</clus>
<clus scale="   44.607">  2  3  1 -1</clus>
</clustering>
</event>
<event>
 6    0  0.6338511E+002  0.1144102E+03  0.7546771E-02  0.1252614E+00
         21   -1    0    0  505  502  0.00000000000E+00  0.00000000000E+00  0.18856553287E+03  0.18856553287E+03  0.00000000000E+00 0. -1.
          2   -1    0    0  504    0 -0.00000000000E+00 -0.00000000000E+00 -0.25496431891E+04  0.25496431891E+04  0.00000000000E+00 0. -1.
         21    1    1    2  503  502 -0.36959154324E+02 -0.89636349360E+01  0.10929933657E+03  0.11572670743E+03  0.00000000000E+00 0. -1.
         21    1    1    2  504  503  0.85986172124E+02  0.55702784514E+02  0.24764211102E+02  0.10540250543E+03  0.00000000000E+00 0. -1.
         21    1    1    2  505  501 -0.17066814220E+02  0.71736901470E+02 -0.13562768469E+03  0.15437722641E+03  0.00000000000E+00 0. -1.
          2    1    1    2  501    0 -0.31960203580E+02 -0.11847605105E+03 -0.23595135192E+04  0.23627022827E+04  0.00000000000E+00 0. -1.
<scales pt_clust_3="38.03059" pt_clust_4="72.53847" pt_clust_5="14000.00000" pt_clust_6="114.41023"></scales>
<clustering>
<clus scale="   38.031">  1  3  2 -1</clus>
<clus scale="   72.538">  1  4  2 -1</clus>
<clus scale="  114.410">  2  6  1 -1</clus>
<clus scale="   38.031">  1  3  2 -1</clus>
</clustering>
</event>
<event>
 6    0  0.6338511E+002  0.1256030E+03  0.7546771E-02  0.1234130E+00
          1   -1    0    0  503    0 -0.00000000000E+00  0.00000000000E+00  0.26886259801E+03  0.26886259801E+03  0.00000000000E+00 0. -1.
         21   -1    0    0  504  502  0.00000000000E+00 -0.00000000000E+00 -0.42567060474E+03  0.42567060474E+03  0.00000000000E+00 0.  1.
         21    1    1    2  503  505 -0.55381637910E+01  0.41891375697E+02 -0.16652885373E+02  0.45418908036E+02  0.00000000000E+00 0. -1.
         21    1    1    2  504  501 -0.32882494757E+02 -0.15676616409E+02 -0.24405533078E+03  0.24675903072E+03  0.00000000000E+00 0.  1.
         21    1    1    2  505  502 -0.17841351034E+02  0.73089519582E+02 -0.12538965852E+03  0.14622912892E+03  0.00000000000E+00 0.  1.
          1    1    1    2  501    0  0.56262009582E+02 -0.99304278869E+02  0.22928986795E+03  0.25612613507E+03  0.00000000000E+00 0. -1.
<scales pt_clust_3="39.00343" pt_clust_4="36.42821" pt_clust_5="39.00343" pt_clust_6="113.97563"></scales>
<clustering>
<clus scale="   36.428">  2  4  1 -1</clus>
<clus scale="   39.003">  3  5 -1 -1</clus>
<clus scale="  113.976">  1  6  2 -1</clus>
<clus scale="   36.428">  2  3  1 -1</clus>
</clustering>
</event>
<event>
 6    0  0.6338511E+002  0.1228272E+03  0.7546771E-02  0.1238505E+00
          2   -1    0    0  505    0 -0.00000000000E+00  0.00000000000E+00  0.96243537295E+03  0.96243537295E+03  0.00000000000E+00 0.  1.
         21   -1    0    0  504  502  0.00000000000E+00 -0.00000000000E+00 -0.14042253420E+03  0.14042253420E+03  0.00000000000E+00 0. -1.
         21    1    1    2  503  501  0.39867776550E+02 -0.65985300368E+02  0.20775862362E+03  0.22160132030E+03  0.00000000000E+00 0.  1.
         21    1    1    2  504  503 -0.14949055292E+02  0.27941404675E+02  0.14571305205E+02  0.34878636509E+02  0.00000000000E+00 0. -1.
         21    1    1    2  505  502 -0.62508090927E+02  0.86855100330E+02 -0.98524129253E+02  0.14545815182E+03  0.00000000000E+00 0. -1.
          2    1    1    2  501    0  0.37589369669E+02 -0.48811204637E+02  0.69820703918E+03  0.70091979852E+03  0.00000000000E+00 0.  1.
<scales pt_clust_3="14000.00000" pt_clust_4="31.68906" pt_clust_5="122.82719" pt_clust_6="61.28214"></scales>
<clustering>
<clus scale="   31.689">  2  4  1 -1</clus>
<clus scale="   61.282">  1  6  2 -1</clus>
<clus scale="  122.827">  2  5  1 -1</clus>
<clus scale="   31.689">  2  3  1 -1</clus>
</clustering>
</event>
<event>
 6    0  0.6338511E+002  0.1018999E+03  0.7546771E-02  0.1276351E+00
         -2   -1    0    0    0  501 -0.00000000000E+00  0.00000000000E+00  0.26860790202E+02  0.26860790202E+02  0.00000000000E+00 0.  1.
         21   -1    0    0  505  502  0.00000000000E+00 -0.00000000000E+00 -0.19871666432E+04  0.19871666432E+04  0.00000000000E+00 0.  1.
         21    1    1    2  503  504 -0.19614738305E+02 -0.11613820330E+03 -0.87176535807E+03  0.87968611434E+03  0.00000000000E+00 0.  1.
         21    1    1    2  504  501 -0.23527447249E+02  0.45580228247E+02 -0.66116270713E+02  0.83680698098E+02  0.00000000000E+00 0. -1.
         21    1    1    2  505  503  0.73619339545E+02  0.68931395833E+02 -0.10139940977E+04  0.10189972398E+04  0.00000000000E+00 0.  1.
         -2    1    1    2    0  502 -0.30477153992E+02  0.16265792167E+01 -0.84301265015E+01  0.31663381188E+02  0.00000000000E+00 0.  1.
<scales pt_clust_3="101.89985" pt_clust_4="62.06346" pt_clust_5="14000.00000" pt_clust_6="30.52053"></scales>
<clustering>
<clus scale="   30.521">  1  6  2 -1</clus>
<clus scale="   62.063">  1  4  2 -1</clus>
<clus scale="  101.900">  1  3  2 -1</clus>
<clus scale="  101.900">  2  3  1 -1</clus>
</clustering>
</event>
<event>
 6    0  0.6338511E+002  0.1247950E+03  0.7546771E-02  0.1235390E+00
          2   -1    0    0  505    0 -0.00000000000E+00  0.00000000000E+00  0.14017418683E+04  0.14017418683E+04  0.00000000000E+00 0. -1.
         21   -1    0    0  504  502  0.00000000000E+00 -0.00000000000E+00 -0.60540483028E+02  0.60540483028E+02  0.00000000000E+00 0.  1.
         21    1    1    2  503  501  0.32115733733E+02 -0.11817247812E+03  0.37600828655E+03  0.39544707167E+03  0.00000000000E+00 0.  1.
         21    1    1    2  504  503  0.22510333985E+02  0.24631903281E+02 -0.25577637646E+02  0.42043564822E+02  0.00000000000E+00 0.  1.
         21    1    1    2  505  502  0.86509359479E+01  0.12450885534E+03  0.23807754218E+03  0.26880887232E+03  0.00000000000E+00 0.  1.
          2    1    1    2  501    0 -0.63277003665E+02 -0.30968280496E+02  0.75269319418E+03  0.75598284250E+03  0.00000000000E+00 0. -1.
<scales pt_clust_3="124.79498" pt_clust_4="33.36834" pt_clust_5="14000.00000" pt_clust_6="68.54233"></scales>
<clustering>
<clus scale="   33.368">  2  4  1 -1</clus>
<clus scale="   68.542">  1  6  2 -1</clus>
<clus scale="  124.795">  1  3  2 -1</clus>
<clus scale="   33.368">  2  3  1 -1</clus>
</clustering>
</event>
<event>
 6    0  0.6338511E+002  0.1027841E+03  0.7546771E-02  0.1274548E+00
         -1   -1    0    0    0  501 -0.00000000000E+00  0.00000000000E+00  0.28952659990E+03  0.28952659990E+03  0.00000000000E+00 0.  1.
         21   -1    0    0  505  502  0.00000000000E+00 -0.00000000000E+00 -0.12641558009E+04  0.12641558009E+04  0.00000000000E+00 0. -1.
         21    1    1    2  503  501  0.33347635901E+02 -0.31780759413E+02 -0.37021493646E+03  0.37306994072E+03  0.00000000000E+00 0. -1.
         21    1    1    2  504  502 -0.10989569371E+03  0.58506404042E+02  0.13026772439E+03  0.18019362594E+03  0.00000000000E+00 0.  1.
         21    1    1    2  505  503  0.41016835290E+02 -0.26789568673E+02 -0.86446900103E+03  0.86585605935E+03  0.00000000000E+00 0. -1.
         -1    1    1    2    0  504  0.35531222521E+02  0.63924043404E-01  0.12978701208E+03  0.13456277481E+03  0.00000000000E+00 0.  1.
<scales pt_clust_3="38.00793" pt_clust_4="95.03641" pt_clust_5="38.00793" pt_clust_6="35.53128"></scales>
<clustering>
<clus scale="   35.531">  1  6  2 -1</clus>
<clus scale="   38.008">  3  5 -1 -1</clus>
<clus scale="   95.036">  1  4  2 -1</clus>
<clus scale="  102.784">  2  3  1 -1</clus>
</clustering>
</event>
<event>
 6    0  0.6338511E+002  0.7580133E+02  0.7546771E-02  0.1341407E+00
         21   -1    0    0  505  502  0.00000000000E+00  0.00000000000E+00  0.68656373927E+03  0.68656373927E+03  0.00000000000E+00 0.  1.
          2   -1    0    0  503    0 -0.00000000000E+00 -0.00000000000E+00 -0.89663659504E+03  0.89663659504E+03  0.00000000000E+00 0. -1.
         21    1    1    2  503  502 -0.54817103092E+02 -0.59906310659E+02  0.33730621345E+03  0.34694259249E+03  0.00000000000E+00 0.  1.
         21    1    1    2  504  501  0.61046339257E+02  0.93698204076E+02  0.13778571327E+02  0.11267589810E+03  0.00000000000E+00 0.  1.
         21    1    1    2  505  504  0.52429945509E+02 -0.13120182317E+02  0.27745301352E+03  0.28266802628E+03  0.00000000000E+00 0.  1.
          2    1    1    2  501    0 -0.58659181674E+02 -0.20671711100E+02 -0.83861065408E+03  0.84091381744E+03  0.00000000000E+00 0. -1.
<scales pt_clust_3="14000.00000" pt_clust_4="75.80133" pt_clust_5="54.04663" pt_clust_6="62.06734"></scales>
<clustering>
<clus scale="   54.047">  1  5  2 -1</clus>
<clus scale="   62.067">  2  6  1 -1</clus>
<clus scale="   75.801">  2  4  1 -1</clus>
<clus scale="   54.047">  1  3  2 -1</clus>
</clustering>
</event>
<event>
 6    0  0.6338511E+002  0.1032257E+03  0.7546771E-02  0.1273655E+00
          2   -1    0    0  505    0 -0.00000000000E+00  0.00000000000E+00  0.92204649411E+03  0.92204649411E+03  0.00000000000E+00 0. -1.
         21   -1    0    0  503  502  0.00000000000E+00 -0.00000000000E+00 -0.70914571497E+03  0.70914571497E+03  0.00000000000E+00 0.  1.
         21    1    1    2  503  501 -0.72049494196E+02  0.16384086158E+03 -0.28307335682E+03  0.33491115670E+03  0.00000000000E+00 0.  1.
         21    1    1    2  504  502  0.43792374770E+02 -0.31865036472E+02 -0.35483931291E+03  0.35894859050E+03  0.00000000000E+00 0.  1.
         21    1    1    2  505  504 -0.30352176531E+02 -0.47859866591E+02 -0.20306017387E+02  0.60200961723E+02  0.00000000000E+00 0. -1.
          2    1    1    2  501    0  0.58609295956E+02 -0.84115958516E+02  0.87111946627E+03  0.87713150015E+03  0.00000000000E+00 0. -1.
<scales pt_clust_3="103.22574" pt_clust_4="54.15859" pt_clust_5="57.40112" pt_clust_6="14000.00000"></scales>
<clustering>
<clus scale="   54.159">  2  4  1 -1</clus>
<clus scale="   57.401">  2  5  1 -1</clus>
<clus scale="  103.226">  2  3  1 -1</clus>
<clus scale="   54.159">  2  3  1 -1</clus>
</clustering>
</event>
<event>
 6    0  0.6338511E+002  0.1287228E+03  0.7546771E-02  0.1229363E+00
         21   -1    0    0  505  502  0.00000000000E+00  0.00000000000E+00  0.19694966488E+03  0.19694966488E+03  0.00000000000E+00 0.  1.
          2   -1    0    0  503    0 -0.00000000000E+00 -0.00000000000E+00 -0.76162888496E+03  0.76162888496E+03  0.00000000000E+00 0. -1.
         21    1    1    2  503  502 -0.10871881958E+03  0.16177153614E+01  0.20688444039E+02  0.11068157231E+03  0.00000000000E+00 0.  1.
         21    1    1    2  504  501  0.76618080289E+02  0.29230523412E+02  0.47543017198E+02  0.94789726292E+02  0.00000000000E+00 0.  1.
         21    1    1    2  505  504  0.57958894193E+02 -0.92347702909E+01  0.45250706023E+02  0.74108979172E+02  0.00000000000E+00 0.  1.
          2    1    1    2  501    0 -0.25858154907E+02 -0.21613468483E+02 -0.67816138734E+03  0.67899827207E+03  0.00000000000E+00 0. -1.
<scales pt_clust_3="123.14323" pt_clust_4="31.71380" pt_clust_5="31.71380" pt_clust_6="33.70143"></scales>
<clustering>
<clus scale="   31.714">  4  5 -1 -1</clus>
<clus scale="   33.701">  2  6  1 -1</clus>
<clus scale="  123.143">  2  3  1 -1</clus>
<clus scale="  128.723">  1  3  2 -1</clus>
</clustering>
</event>
<event>
 6    0  0.6338511E+002  0.1136794E+03  0.7546771E-02  0.1253904E+00
          2   -1    0    0  503    0 -0.00000000000E+00  0.00000000000E+00  0.94397387481E+03  0.94397387481E+03  0.00000000000E+00 0. -1.
         21   -1    0    0  504  502  0.00000000000E+00 -0.00000000000E+00 -0.21626120708E+04  0.21626120708E+04  0.00000000000E+00 0.  1.
         21    1    1    2  503  502 -0.13585505384E+03  0.89715580661E+01 -0.13861780761E+04  0.13928484280E+04  0.00000000000E+00 0.  1.
         21    1    1    2  504  505  0.25370675232E+02 -0.16586837788E+02 -0.67789133065E+03  0.67856867782E+03  0.00000000000E+00 0.  1.
         21    1    1    2  505  501  0.14051779654E+03  0.62927148936E+02 -0.30519159512E+02  0.15696017430E+03  0.00000000000E+00 0. -1.
          2    1    1    2  501    0 -0.30033417935E+02 -0.55311869214E+02  0.87595037028E+03  0.87820866556E+03  0.00000000000E+00 0. -1.
<scales pt_clust_3="113.67936" pt_clust_4="30.31162" pt_clust_5="14000.00000" pt_clust_6="62.94161"></scales>
<clustering>
<clus scale="   30.312">  2  4  1 -1</clus>
<clus scale="   62.942">  1  6  2 -1</clus>
<clus scale="  113.679">  2  3  1 -1</clus>
<clus scale="   30.312">  2  3  1 -1</clus>
</clustering>
</event>
<event>
 6    0  0.6338511E+002  0.2164693E+03  0.7546771E-02  0.1136543E+00
          2   -1    0    0  503    0 -0.00000000000E+00  0.00000000000E+00  0.14123970382E+04  0.14123970382E+04  0.00000000000E+00 0. -1.
         21   -1    0    0  504  502  0.00000000000E+00 -0.00000000000E+00 -0.11900557854E+03  0.11900557854E+03  0.00000000000E+00 0. -1.
         21    1    1    2  503  505  0.14090951743E+03  0.82472284610E+02  0.63540781736E+02  0.17519874650E+03  0.00000000000E+00 0. -1.
         21    1    1    2  504  501 -0.17645945012E+03 -0.12520896292E+03  0.33342228416E+03  0.39747407652E+03  0.00000000000E+00 0. -1.
         21    1    1    2  505  502  0.35658376780E+02  0.83012024749E+01 -0.19956838127E+02  0.41697783936E+02  0.00000000000E+00 0. -1.
          2    1    1    2  501    0 -0.10844408898E+00  0.34435475833E+02  0.91638523189E+03  0.91703200980E+03  0.00000000000E+00 0. -1.
<scales pt_clust_3="35.46095" pt_clust_4="202.80643" pt_clust_5="35.46095" pt_clust_6="34.43565"></scales>
<clustering>
<clus scale="   34.436">  1  6  2 -1</clus>
<clus scale="   35.461">  3  5 -1 -1</clus>
<clus scale="  202.806">  1  4  2 -1</clus>
<clus scale="  216.469">  2  3  1 -1</clus>
</clustering>
</event>
<event>
 6    0  0.6338511E+002  0.2275791E+03  0.7546771E-02  0.1128355E+00
         21   -1    0    0  505  502  0.00000000000E+00  0.00000000000E+00  0.48108459071E+02  0.48108459071E+02  0.00000000000E+00 0. -1.
          2   -1    0    0  503    0 -0.00000000000E+00 -0.00000000000E+00 -0.36123657868E+04  0.36123657868E+04  0.00000000000E+00 0. -1.
         21    1    1    2  503  502  0.14492899391E+03  0.24319690972E+03 -0.69052686540E+03  0.74630858364E+03  0.00000000000E+00 0. -1.
         21    1    1    2  504  501 -0.70913989799E+02 -0.15933548654E+03 -0.68616708217E+03  0.70798436132E+03  0.00000000000E+00 0. -1.
         21    1    1    2  505  504 -0.45772805078E+02  0.29227621344E+02 -0.88163786657E+02  0.10354833080E+03  0.00000000000E+00 0. -1.
          2    1    1    2  501    0 -0.28242199036E+02 -0.11308904452E+03 -0.20993995935E+04  0.21026329702E+04  0.00000000000E+00 0. -1.
<scales pt_clust_3="14000.00000" pt_clust_4="227.57914" pt_clust_5="54.30841" pt_clust_6="115.88987"></scales>
<clustering>
<clus scale="   54.308">  1  5  2 -1</clus>
<clus scale="  115.890">  2  6  1 -1</clus>
<clus scale="  227.579">  1  4  2 -1</clus>
<clus scale="   54.308">  1  3  2 -1</clus>
</clustering>
</event>
<event>
 6    0  0.6338511E+002  0.1836474E+03  0.7546771E-02  0.1164319E+00
         21   -1    0    0  505  502  0.00000000000E+00  0.00000000000E+00  0.19730110925E+03  0.19730110925E+03  0.00000000000E+00 0. -1.
          2   -1    0    0  504    0 -0.00000000000E+00 -0.00000000000E+00 -0.34733415287E+04  0.34733415287E+04  0.00000000000E+00 0.  1.
         21    1    1    2  503  501  0.11540188289E+03 -0.68997454044E+02 -0.34464022918E+03  0.36993936098E+03  0.00000000000E+00 0. -1.
         21    1    1    2  504  502 -0.16425264160E+03  0.10348414077E+03 -0.83148630184E+02  0.21119089082E+03  0.00000000000E+00 0. -1.
         21    1    1    2  505  503  0.18887206647E+02  0.63844550287E+02  0.11048249894E+03  0.12899316163E+03  0.00000000000E+00 0. -1.
          2    1    1    2  501    0  0.29963552067E+02 -0.98331237017E+02 -0.29587340590E+04  0.29605192245E+04  0.00000000000E+00 0.  1.
<scales pt_clust_3="14000.00000" pt_clust_4="183.64737" pt_clust_5="66.57968" pt_clust_6="102.15659"></scales>
<clustering>
<clus scale="   66.580">  1  5  2 -1</clus>
<clus scale="  102.157">  2  6  1 -1</clus>
<clus scale="  183.647">  1  4  2 -1</clus>
<clus scale="   66.580">  1  3  2 -1</clus>
</clustering>
</event>
<event>
 6    0  0.6338511E+002  0.8655278E+02  0.7546771E-02  0.1311421E+00
          1   -1    0    0  504    0 -0.00000000000E+00  0.00000000000E+00  0.54103983599E+03  0.54103983599E+03  0.00000000000E+00 0.  1.
         21   -1    0    0  503  502  0.00000000000E+00 -0.00000000000E+00 -0.96857689508E+03  0.96857689508E+03  0.00000000000E+00 0. -1.
         21    1    1    2  503  505 -0.67661698762E+02  0.51343048018E+02 -0.42599841828E+03  0.43438331740E+03  0.00000000000E+00 0. -1.
         21    1    1    2  504  502 -0.23746647703E+02 -0.52776965307E+02 -0.38480644310E+03  0.38913405144E+03  0.00000000000E+00 0. -1.
         21    1    1    2  505  501  0.79803767950E+02 -0.53076987618E+02 -0.13460285230E+03  0.16523842120E+03  0.00000000000E+00 0. -1.
          1    1    1    2  501    0  0.11604578515E+02  0.54510904908E+02  0.51787065459E+03  0.52086094102E+03  0.00000000000E+00 0.  1.
<scales pt_clust_3="86.55278" pt_clust_4="52.44825" pt_clust_5="14000.00000" pt_clust_6="55.73244"></scales>
<clustering>
<clus scale="   55.732">  1  6  2 -1</clus>
<clus scale="   52.448">  2  4  1 -1</clus>
<clus scale="   86.553">  2  3  1 -1</clus>
<clus scale="   52.448">  2  3  1 -1</clus>
</clustering>
</event>
<event>
 6    0  0.6338511E+002  0.1235536E+03  0.7546771E-02  0.1237347E+00
          2   -1    0    0  505    0 -0.00000000000E+00  0.00000000000E+00  0.11535724832E+04  0.11535724832E+04  0.00000000000E+00 0.  1.
         21   -1    0    0  503  502  0.00000000000E+00 -0.00000000000E+00 -0.35413736439E+03  0.35413736439E+03  0.00000000000E+00 0.  1.
         21    1    1    2  503  501 -0.73339767916E+02 -0.79425626615E+02 -0.16097688898E+03  0.19390902636E+03  0.00000000000E+00 0.  1.
         21    1    1    2  504  502 -0.31895974065E+02  0.12193658510E+02 -0.17004723905E+03  0.17344192681E+03  0.00000000000E+00 0.  1.
         21    1    1    2  505  504  0.90714420819E+02  0.31209508359E+02  0.98973031133E+03  0.99436875892E+03  0.00000000000E+00 0.  1.
          2    1    1    2  501    0  0.14521321162E+02  0.36022459746E+02  0.14072893549E+03  0.14599013548E+03  0.00000000000E+00 0.  1.
<scales pt_clust_3="14000.00000" pt_clust_4="34.14731" pt_clust_5="123.55359" pt_clust_6="38.83347"></scales>
<clustering>
<clus scale="   34.147">  2  4  1 -1</clus>
<clus scale="   38.833">  1  6  2 -1</clus>
<clus scale="  123.554">  1  5  2 -1</clus>
<clus scale="   34.147">  2  3  1 -1</clus>
</clustering>
</event>
<event>
 6    0  0.6338511E+002  0.9371805E+02  0.7546771E-02  0.1294090E+00
          2   -1    0    0  503    0 -0.00000000000E+00  0.00000000000E+00  0.60851370227E+03  0.60851370227E+03  0.00000000000E+00 0.  1.
         21   -1    0    0  504  502  0.00000000000E+00 -0.00000000000E+00 -0.66057292933E+02  0.66057292933E+02  0.00000000000E+00 0.  1.
         21    1    1    2  503  502  0.20106858250E+02  0.32641254330E+02  0.27375441955E+02  0.47107876785E+02  0.00000000000E+00 0. -1.
         21    1    1    2  504  505 -0.12371344959E+03  0.15307942433E+02  0.47152226259E+02  0.13327671647E+03  0.00000000000E+00 0.  1.
         21    1    1    2  505  501  0.53889906050E+02 -0.44510121184E+02  0.94995967054E+02  0.11793857138E+03  0.00000000000E+00 0.  1.
          2    1    1    2  501    0  0.49716685292E+02 -0.34390755794E+01  0.37293277406E+03  0.37624783057E+03  0.00000000000E+00 0.  1.
<scales pt_clust_3="38.33715" pt_clust_4="93.71805" pt_clust_5="14000.00000" pt_clust_6="50.37070"></scales>
<clustering>
<clus scale="   38.337">  2  3  1 -1</clus>
<clus scale="   50.371">  1  6  2 -1</clus>
<clus scale="   93.718">  2  4  1 -1</clus>
<clus scale="   38.337">  2  3  1 -1</clus>
</clustering>
</event>
<event>
 6    0  0.6338511E+002  0.7738843E+02  0.7546771E-02  0.1336630E+00
         -3   -1    0    0    0  501 -0.00000000000E+00  0.00000000000E+00  0.25622651528E+02  0.25622651528E+02  0.00000000000E+00 0. -1.
         21   -1    0    0  503  502  0.00000000000E+00 -0.00000000000E+00 -0.87210266395E+03  0.87210266395E+03  0.00000000000E+00 0. -1.
         21    1    1    2  503  501  0.11874719960E+02 -0.64580167649E+02 -0.14999864281E+03  0.16374125892E+03  0.00000000000E+00 0. -1.
         21    1    1    2  504  502 -0.42112784568E+02 -0.33002297297E+02 -0.40987749040E+03  0.41335480569E+03  0.00000000000E+00 0. -1.
         21    1    1    2  505  504 -0.20321478889E+02  0.87772660989E+02 -0.15463145004E+03  0.17896337017E+03  0.00000000000E+00 0. -1.
         -3    1    1    2    0  505  0.50559543497E+02  0.98098039571E+01 -0.13197242918E+03  0.14166588070E+03  0.00000000000E+00 0. -1.
<scales pt_clust_3="14000.00000" pt_clust_4="49.70572" pt_clust_5="77.38843" pt_clust_6="51.50242"></scales>
<clustering>
<clus scale="   51.502">  1  6  2 -1</clus>
<clus scale="   49.706">  2  4  1 -1</clus>
<clus scale="   77.388">  1  5  2 -1</clus>
<clus scale="   49.706">  2  3  1 -1</clus>
</clustering>
</event>
<event>
 6    0  0.6338511E+002  0.7199637E+02  0.7546771E-02  0.1353433E+00
         21   -1    0    0  505  502  0.00000000000E+00  0.00000000000E+00  0.64638094862E+03  0.64638094862E+03  0.00000000000E+00 0.  1.
          4   -1    0    0  503    0 -0.00000000000E+00 -0.00000000000E+00 -0.11418050274E+04  0.11418050274E+04  0.00000000000E+00 0. -1.
         21    1    1    2  503  502  0.27778981818E+02 -0.63247610068E+02  0.10117790540E+02  0.69816199378E+02  0.00000000000E+00 0.  1.
         21    1    1    2  504  501  0.58610300793E+02  0.47078025319E+02  0.41648418496E+02  0.85942414384E+02  0.00000000000E+00 0.  1.
         21    1    1    2  505  504 -0.15854970351E+02  0.31045033104E+02  0.54086478750E+03  0.54198698557E+03  0.00000000000E+00 0.  1.
          4    1    1    2  501    0 -0.70534312260E+02 -0.14875448354E+02 -0.10880550754E+04  0.10904403767E+04  0.00000000000E+00 0. -1.
<scales pt_clust_3="55.83264" pt_clust_4="71.99637" pt_clust_5="34.85935" pt_clust_6="14000.00000"></scales>
<clustering>
<clus scale="   34.859">  1  5  2 -1</clus>
<clus scale="   55.833">  1  3  2 -1</clus>
<clus scale="   71.996">  1  4  2 -1</clus>
<clus scale="   34.859">  1  3  2 -1</clus>
</clustering>
</event>
<event>
 6    0  0.6338511E+002  0.1312791E+03  0.7546771E-02  0.1225570E+00
         21   -1    0    0  505  502  0.00000000000E+00  0.00000000000E+00  0.16433407608E+03  0.16433407608E+03  0.00000000000E+00 0.  1.
          2   -1    0    0  503    0 -0.00000000000E+00 -0.00000000000E+00 -0.15073114739E+04  0.15073114739E+04  0.00000000000E+00 0.  1.
         21    1    1    2  503  502 -0.67731691230E+01  0.92877663182E+02 -0.28006535908E+03  0.29514190061E+03  0.00000000000E+00 0.  1.
         21    1    1    2  504  501  0.97879374073E+02 -0.69621540644E+02  0.54515642995E+02  0.13190711172E+03  0.00000000000E+00 0.  1.
         21    1    1    2  505  504  0.28440894686E+02  0.22054679364E+02  0.54721411295E+02  0.65496001607E+02  0.00000000000E+00 0.  1.
          2    1    1    2  501    0 -0.11954709964E+03 -0.45310801902E+02 -0.11721490930E+04  0.11791005360E+04  0.00000000000E+00 0.  1.
<scales pt_clust_3="94.59045" pt_clust_4="131.27912" pt_clust_5="35.99018" pt_clust_6="14000.00000"></scales>
<clustering>
<clus scale="   35.990">  1  5  2 -1</clus>
<clus scale="   94.590">  2  3  1 -1</clus>
<clus scale="  131.279">  1  4  2 -1</clus>
<clus scale="   35.990">  1  3  2 -1</clus>
</clustering>
</event>
<event>
 6    0  0.6338511E+002  0.1357924E+03  0.7546771E-02  0.1219105E+00
          2   -1    0    0  502    0 -0.00000000000E+00  0.00000000000E+00  0.38380573041E+04  0.38380573041E+04  0.00000000000E+00 0. -1.
         21   -1    0    0  504  502  0.00000000000E+00 -0.00000000000E+00 -0.15407835202E+02  0.15407835202E+02  0.00000000000E+00 0.  1.
         21    1    1    2  503  501  0.38339306910E+02 -0.22021056186E+02  0.69992742193E+03  0.70132248312E+03  0.00000000000E+00 0. -1.
         21    1    1    2  504  505 -0.51843702577E+02  0.80093578784E+02  0.23991112221E+03  0.25818616814E+03  0.00000000000E+00 0.  1.
         21    1    1    2  505  503 -0.37958305795E+02  0.72382344433E+01  0.70330176774E+02  0.80246861507E+02  0.00000000000E+00 0. -1.
          2    1    1    2  501    0  0.51462701462E+02 -0.65310757042E+02  0.28124807479E+04  0.28137096265E+04  0.00000000000E+00 0. -1.
<scales pt_clust_3="38.22796" pt_clust_4="135.23037" pt_clust_5="32.42582" pt_clust_6="38.22796"></scales>
<clustering>
<clus scale="   32.426">  4  5 -1 -1</clus>
<clus scale="   38.228">  3  6 -1 -1</clus>
<clus scale="  135.230">  2  4  1 -1</clus>
<clus scale="  135.230">  2  3  1 -1</clus>
</clustering>
</event>
<event>
 6    0  0.6338511E+002  0.1319175E+03  0.7546771E-02  0.1224638E+00
         21   -1    0    0  503  502  0.00000000000E+00  0.00000000000E+00  0.38343074079E+03  0.38343074079E+03  0.00000000000E+00 0. -1.
          2   -1    0    0  505    0 -0.00000000000E+00 -0.00000000000E+00 -0.44238778531E+03  0.44238778531E+03  0.00000000000E+00 0.  1.
         21    1    1    2  503  504 -0.42229662559E+01  0.42164489070E+02  0.16231690816E+03  0.16775713474E+03  0.00000000000E+00 0. -1.
         21    1    1    2  504  501 -0.92481502706E+01  0.10940343532E+03  0.15106600374E+03  0.18675003997E+03  0.00000000000E+00 0. -1.
         21    1    1    2  505  502 -0.12092124221E+02 -0.12085212277E+03 -0.27975281397E+02  0.12463575497E+03  0.00000000000E+00 0. -1.
          2    1    1    2  501    0  0.25563240748E+02 -0.30715801613E+02 -0.34436467503E+03  0.34667559642E+03  0.00000000000E+00 0.  1.
<scales pt_clust_3="41.45043" pt_clust_4="14000.00000" pt_clust_5="131.91755" pt_clust_6="39.96173"></scales>
<clustering>
<clus scale="   39.962">  2  6  1 -1</clus>
<clus scale="   41.450">  1  3  2 -1</clus>
<clus scale="  131.918">  2  5  1 -1</clus>
<clus scale="   41.450">  1  3  2 -1</clus>
</clustering>
</event>
<event>
 6    0  0.6338511E+002  0.9070281E+02  0.7546771E-02  0.1301159E+00
         21   -1    0    0  504  502  0.00000000000E+00  0.00000000000E+00  0.18763720135E+03  0.18763720135E+03  0.00000000000E+00 0.  1.
         -2   -1    0    0    0  501 -0.00000000000E+00 -0.00000000000E+00 -0.44266085935E+03  0.44266085935E+03  0.00000000000E+00 0. -1.
         21    1    1    2  503  505  0.39184162482E+02  0.10865132453E+03 -0.50828782530E+02  0.12619062582E+03  0.00000000000E+00 0.  1.
         21    1    1    2  504  501  0.63987036864E+02 -0.19582635269E+02  0.10904577239E+02  0.67799190965E+02  0.00000000000E+00 0.  1.
         21    1    1    2  505  502 -0.10819065015E+02 -0.68627241676E+02  0.91821318325E+02  0.11514297619E+03  0.00000000000E+00 0.  1.
         -2    1    1    2    0  503 -0.92352134332E+02 -0.20441447590E+02 -0.30692077103E+03  0.32116526772E+03  0.00000000000E+00 0. -1.
<scales pt_clust_3="14000.00000" pt_clust_4="66.91652" pt_clust_5="88.97729" pt_clust_6="90.70281"></scales>
<clustering>
<clus scale="   66.917">  1  4  2 -1</clus>
<clus scale="   88.977">  1  5  2 -1</clus>
<clus scale="   90.703">  2  6  1 -1</clus>
<clus scale="   66.917">  1  3  2 -1</clus>
</clustering>
</event>
<event>
 6    0  0.6338511E+002  0.2442322E+03  0.7546771E-02  0.1117005E+00
          2   -1    0    0  504    0 -0.00000000000E+00  0.00000000000E+00  0.34255202284E+04  0.34255202284E+04  0.00000000000E+00 0.  1.
         21   -1    0    0  505  502  0.00000000000E+00 -0.00000000000E+00 -0.11249337546E+03  0.11249337546E+03  0.00000000000E+00 0.  1.
         21    1    1    2  503  502  0.58773685346E+02  0.30720154306E+02  0.53579939380E+02  0.85257749640E+02  0.00000000000E+00 0.  1.
         21    1    1    2  504  503  0.68131903720E+02  0.22151590166E+03  0.16860969122E+03  0.28660160322E+03  0.00000000000E+00 0.  1.
         21    1    1    2  505  501  0.31255646399E+02 -0.96055104179E+02  0.42279206138E+02  0.10950356041E+03  0.00000000000E+00 0.  1.
          2    1    1    2  501    0 -0.15816123546E+03 -0.15618095179E+03  0.30485580162E+04  0.30566506906E+04  0.00000000000E+00 0.  1.
<scales pt_clust_3="51.26179" pt_clust_4="51.26179" pt_clust_5="101.01237" pt_clust_6="224.64695"></scales>
<clustering>
<clus scale="   51.262">  3  4 -1 -1</clus>
<clus scale="  101.012">  2  5  1 -1</clus>
<clus scale="  224.647">  1  6  2 -1</clus>
<clus scale="  101.012">  2  3  1 -1</clus>
</clustering>
</event>
<event>
 6    0  0.6338511E+002  0.1281509E+03  0.7546771E-02  0.1230226E+00
         21   -1    0    0  504  502  0.00000000000E+00  0.00000000000E+00  0.50380423974E+02  0.50380423974E+02  0.00000000000E+00 0. -1.
          2   -1    0    0  505    0 -0.00000000000E+00 -0.00000000000E+00 -0.30472495501E+04  0.30472495501E+04  0.00000000000E+00 0. -1.
         21    1    1    2  503  501 -0.86125113625E+02  0.76337003077E+02 -0.12897824609E+03  0.17285907902E+03  0.00000000000E+00 0. -1.
         21    1    1    2  504  503 -0.36626490878E+02 -0.21348495541E+02  0.88749500754E+01  0.43313079257E+02  0.00000000000E+00 0. -1.
         21    1    1    2  505  502  0.10748794020E+03 -0.21453378501E+02 -0.14191933141E+04  0.14234196737E+04  0.00000000000E+00 0. -1.
          2    1    1    2  501    0  0.15263664305E+02 -0.33535129035E+02 -0.14575725160E+04  0.14580381421E+04  0.00000000000E+00 0. -1.
<scales pt_clust_3="128.15088" pt_clust_4="42.43603" pt_clust_5="14000.00000" pt_clust_6="36.84541"></scales>
<clustering>
<clus scale="   36.845">  2  6  1 -1</clus>
<clus scale="   42.436">  1  4  2 -1</clus>
<clus scale="  128.151">  1  3  2 -1</clus>
<clus scale="   42.436">  1  3  2 -1</clus>
</clustering>
</event>
<event>
 6    0  0.6338511E+002  0.1177170E+03  0.7546771E-02  0.1246911E+00
          1   -1    0    0  504    0 -0.00000000000E+00  0.00000000000E+00  0.37211566697E+04  0.37211566697E+04  0.00000000000E+00 0.  1.
         21   -1    0    0  503  502  0.00000000000E+00 -0.00000000000E+00 -0.38714760069E+02  0.38714760069E+02  0.00000000000E+00 0. -1.
         21    1    1    2  503  501  0.13742738527E+03 -0.97848883628E+02  0.74349411220E+03  0.76239372055E+03  0.00000000000E+00 0. -1.
         21    1    1    2  504  505 -0.63650584011E+02  0.45425436359E+02  0.19182063540E+03  0.20714734678E+03  0.00000000000E+00 0. -1.
         21    1    1    2  505  502 -0.27562324615E+02  0.55485650893E+02  0.23425811337E+02  0.66235246131E+02  0.00000000000E+00 0. -1.
          1    1    1    2  501    0 -0.46214476647E+02 -0.30622036238E+01  0.27237013507E+04  0.27240951163E+04  0.00000000000E+00 0.  1.
<scales pt_clust_3="14000.00000" pt_clust_4="117.71702" pt_clust_5="62.78472" pt_clust_6="46.31582"></scales>
<clustering>
<clus scale="   46.316">  1  6  2 -1</clus>
<clus scale="   62.785">  2  5  1 -1</clus>
<clus scale="  117.717">  2  4  1 -1</clus>
<clus scale="   62.785">  2  3  1 -1</clus>
</clustering>
</event>
<event>
 6    0  0.6338511E+002  0.9957233E+02  0.7546771E-02  0.1281198E+00
          1   -1    0    0  505    0 -0.00000000000E+00  0.00000000000E+00  0.28590516564E+04  0.28590516564E+04  0.00000000000E+00 0.  1.
         21   -1    0    0  501  502  0.00000000000E+00 -0.00000000000E+00 -0.27328068347E+02  0.27328068347E+02  0.00000000000E+00 0.  1.
         21    1    1    2  503  502 -0.69695140623E+01 -0.36756586355E+02  0.29324572039E+02  0.47534737740E+02  0.00000000000E+00 0.  1.
         21    1    1    2  504  503 -0.87578703608E+02  0.11978684538E+02  0.14242024249E+03  0.16762172795E+03  0.00000000000E+00 0.  1.
         21    1    1    2  505  504  0.13157158736E+03 -0.28640467070E+02  0.89733792499E+03  0.90738454394E+03  0.00000000000E+00 0.  1.
          1    1    1    2  501    0 -0.37023369695E+02  0.53418368887E+02  0.17626408485E+04  0.17638387151E+04  0.00000000000E+00 0.  1.
<scales pt_clust_3="37.41151" pt_clust_4="99.57233" pt_clust_5="14000.00000" pt_clust_6="64.13781"></scales>
<clustering>
<clus scale="   37.412">  2  3  1 -1</clus>
<clus scale="   64.138">  1  6  2 -1</clus>
<clus scale="   99.572">  2  4  1 -1</clus>
<clus scale="   37.412">  2  3  1 -1</clus>
</clustering>
</event>
<event>
 6    0  0.6338511E+002  0.1058297E+03  0.7546771E-02  0.1268494E+00
          2   -1    0    0  505    0 -0.00000000000E+00  0.00000000000E+00  0.58095453137E+04  0.58095453137E+04  0.00000000000E+00 0. -1.
         21   -1    0    0  504  502  0.00000000000E+00 -0.00000000000E+00 -0.10304147828E+02  0.10304147828E+02  0.00000000000E+00 0. -1.
         21    1    1    2  503  502  0.29164022740E+02  0.14733227998E+02  0.11546615065E+03  0.12000016740E+03  0.00000000000E+00 0. -1.
         21    1    1    2  504  501 -0.13158536554E+03 -0.21631589888E+02  0.96387237491E+03  0.97305323041E+03  0.00000000000E+00 0. -1.
         21    1    1    2  505  503  0.54886101867E+02  0.91210539588E+02  0.10029483244E+04  0.10085817706E+04  0.00000000000E+00 0. -1.
          2    1    1    2  501    0  0.47535240932E+02 -0.84312177698E+02  0.37169543159E+04  0.37182142931E+04  0.00000000000E+00 0. -1.
<scales pt_clust_3="32.67427" pt_clust_4="14000.00000" pt_clust_5="105.82966" pt_clust_6="96.93966"></scales>
<clustering>
<clus scale="   32.674">  2  3  1 -1</clus>
<clus scale="   96.940">  1  6  2 -1</clus>
<clus scale="  105.830">  1  5  2 -1</clus>
<clus scale="   32.674">  2  3  1 -1</clus>
</clustering>
</event>
<event>
 6    0  0.6338511E+002  0.2164433E+03  0.7546771E-02  0.1136563E+00
         21   -1    0    0  505  502  0.00000000000E+00  0.00000000000E+00  0.56002009927E+02  0.56002009927E+02  0.00000000000E+00 0.  1.
          2   -1    0    0  504    0 -0.00000000000E+00 -0.00000000000E+00 -0.16774196063E+04  0.16774196063E+04  0.00000000000E+00 0. -1.
         21    1    1    2  503  501 -0.14970638833E+02  0.33048408047E+02 -0.11153616973E+03  0.11728868001E+03  0.00000000000E+00 0.  1.
         21    1    1    2  504  502  0.41951112662E+02  0.68082854642E+02 -0.24977481311E+03  0.26226442423E+03  0.00000000000E+00 0. -1.
         21    1    1    2  505  503  0.76346081915E+02 -0.20096002124E+03 -0.23401965633E+03  0.31777170092E+03  0.00000000000E+00 0.  1.
          2    1    1    2  501    0 -0.10332655574E+03  0.99828758547E+02 -0.10260869572E+04  0.10360968111E+04  0.00000000000E+00 0. -1.
<scales pt_clust_3="33.56406" pt_clust_4="79.96981" pt_clust_5="205.87998" pt_clust_6="33.56406"></scales>
<clustering>
<clus scale="   33.564">  3  6 -1 -1</clus>
<clus scale="   79.970">  2  4  1 -1</clus>
<clus scale="  205.880">  1  5  2 -1</clus>
<clus scale="  205.880">  1  3  2 -1</clus>
</clustering>
</event>
<event>
 6    0  0.6338511E+002  0.1105141E+03  0.7546771E-02  0.1259621E+00
          2   -1    0    0  503    0 -0.00000000000E+00  0.00000000000E+00  0.26514758882E+04  0.26514758882E+04  0.00000000000E+00 0. -1.
         21   -1    0    0  501  502  0.00000000000E+00 -0.00000000000E+00 -0.20170165408E+03  0.20170165408E+03  0.00000000000E+00 0.  1.
         21    1    1    2  503  505 -0.55597505772E+02  0.68224470098E+02  0.36880157066E+03  0.37915730178E+03  0.00000000000E+00 0. -1.
         21    1    1    2  504  502  0.29110569562E+02 -0.36087067707E+02 -0.14147388601E+03  0.14887767508E+03  0.00000000000E+00 0.  1.
         21    1    1    2  505  504  0.67266168954E+02 -0.37695891445E+02 -0.22104476340E+02  0.80214248060E+02  0.00000000000E+00 0.  1.
          2    1    1    2  501    0 -0.40779232744E+02  0.55584890530E+01  0.22445510258E+04  0.22449283174E+04  0.00000000000E+00 0. -1.
<scales pt_clust_3="110.51414" pt_clust_4="46.09319" pt_clust_5="14000.00000" pt_clust_6="41.15632"></scales>
<clustering>
<clus scale="   41.156">  1  6  2 -1</clus>
<clus scale="   46.093">  2  4  1 -1</clus>
<clus scale="  110.514">  1  3  2 -1</clus>
<clus scale="   46.093">  2  3  1 -1</clus>
</clustering>
</event>
<event>
 6    0  0.6338511E+002  0.9156915E+02  0.7546771E-02  0.1299096E+00
         21   -1    0    0  501  502  0.00000000000E+00  0.00000000000E+00  0.22356668157E+03  0.22356668157E+03  0.00000000000E+00 0.  1.
          1   -1    0    0  505    0 -0.00000000000E+00 -0.00000000000E+00 -0.80697368936E+03  0.80697368936E+03  0.00000000000E+00 0. -1.
         21    1    1    2  503  502  0.28623141395E+02 -0.69889242540E+02  0.15000246249E+03  0.16794204119E+03  0.00000000000E+00 0.  1.
         21    1    1    2  504  503 -0.19116988494E+01 -0.82028477052E+02  0.35210179444E+01  0.82126263810E+02  0.00000000000E+00 0.  1.
         21    1    1    2  505  504  0.30857409723E+02  0.87290963682E+02 -0.65427930004E+03  0.66079746862E+03  0.00000000000E+00 0. -1.
          1    1    1    2  501    0 -0.57568852269E+02  0.64626755910E+02 -0.82651188190E+02  0.11967459731E+03  0.00000000000E+00 0. -1.
<scales pt_clust_3="75.52344" pt_clust_4="91.56915" pt_clust_5="14000.00000" pt_clust_6="66.52778"></scales>
<clustering>
<clus scale="   75.523">  1  3  2 -1</clus>
<clus scale="   66.528">  1  6  2 -1</clus>
<clus scale="   91.569">  1  4  2 -1</clus>
<clus scale="   75.523">  1  3  2 -1</clus>
</clustering>
</event>
<event>
 6    0  0.6338511E+002  0.9838979E+02  0.7546771E-02  0.1283719E+00
          1   -1    0    0  502    0 -0.00000000000E+00  0.00000000000E+00  0.84592945016E+03  0.84592945016E+03  0.00000000000E+00 0. -1.
         21   -1    0    0  505  502  0.00000000000E+00 -0.00000000000E+00 -0.84427693960E+03  0.84427693960E+03  0.00000000000E+00 0. -1.
         21    1    1    2  503  504 -0.25545839174E+02 -0.66512092274E+02 -0.64665955185E+03  0.65057284320E+03  0.00000000000E+00 0. -1.
         21    1    1    2  504  501  0.86691736540E+02  0.70744905765E+02 -0.33042632614E+02  0.11667096659E+03  0.00000000000E+00 0. -1.
         21    1    1    2  505  503  0.13252030918E+02 -0.37711593540E+02 -0.11535626486E+03  0.12208541458E+03  0.00000000000E+00 0. -1.
          1    1    1    2  501    0 -0.74397928283E+02  0.33478780048E+02  0.79671095987E+03  0.80087716538E+03  0.00000000000E+00 0. -1.
<scales pt_clust_3="14000.00000" pt_clust_4="98.38979" pt_clust_5="39.97225" pt_clust_6="81.50450"></scales>
<clustering>
<clus scale="   39.972">  2  5  1 -1</clus>
<clus scale="   81.504">  1  6  2 -1</clus>
<clus scale="   98.390">  1  4  2 -1</clus>
<clus scale="   39.972">  2  3  1 -1</clus>
</clustering>
</event>
<event>
 6    0  0.6338511E+002  0.1037323E+03  0.7546771E-02  0.1272638E+00
         21   -1    0    0  501  502  0.00000000000E+00  0.00000000000E+00  0.29498787821E+02  0.29498787821E+02  0.00000000000E+00 0.  1.
          1   -1    0    0  504    0 -0.00000000000E+00 -0.00000000000E+00 -0.42641689613E+04  0.42641689613E+04  0.00000000000E+00 0.  1.
         21    1    1    2  503  502  0.74516993278E+01  0.32785043614E+02 -0.42210910122E+01  0.33885166622E+02  0.00000000000E+00 0.  1.
         21    1    1    2  504  505 -0.27196221054E+02 -0.81550520587E+02 -0.70340056538E+03  0.70863423373E+03  0.00000000000E+00 0.  1.
         21    1    1    2  505  503  0.77318487238E+02  0.58818005264E+02 -0.18825610367E+03  0.21184444005E+03  0.00000000000E+00 0.  1.
          1    1    1    2  501    0 -0.57573965512E+02 -0.10052528291E+02 -0.33387924135E+04  0.33393039087E+04  0.00000000000E+00 0.  1.
<scales pt_clust_3="33.62123" pt_clust_4="103.73229" pt_clust_5="14000.00000" pt_clust_6="58.22115"></scales>
<clustering>
<clus scale="   33.621">  1  3  2 -1</clus>
<clus scale="   58.221">  2  6  1 -1</clus>
<clus scale="  103.732">  2  4  1 -1</clus>
<clus scale="   33.621">  1  3  2 -1</clus>
</clustering>
</event>
<event>
 6    0  0.6338511E+002  0.1870039E+03  0.7546771E-02  0.1161192E+00
         21   -1    0    0  504  502  0.00000000000E+00  0.00000000000E+00  0.65784487812E+03  0.65784487812E+03  0.00000000000E+00 0.  1.
          1   -1    0    0  505    0 -0.00000000000E+00 -0.00000000000E+00 -0.18364819256E+04  0.18364819256E+04  0.00000000000E+00 0.  1.
         21    1    1    2  503  501 -0.14301919429E+03 -0.37424234679E+02 -0.23673109138E+02  0.14971799949E+03  0.00000000000E+00 0.  1.
         21    1    1    2  504  503  0.11432927477E+03  0.21014716329E+03  0.52174690264E+03  0.57397982867E+03  0.00000000000E+00 0.  1.
         21    1    1    2  505  502 -0.26399500563E+01 -0.39465297987E+02  0.35383700941E+02  0.53070569752E+02  0.00000000000E+00 0.  1.
          1    1    1    2  501    0  0.31329869579E+02 -0.13325763062E+03 -0.17120945420E+04  0.17175584058E+04  0.00000000000E+00 0.  1.
<scales pt_clust_3="187.00394" pt_clust_4="14000.00000" pt_clust_5="39.55350" pt_clust_6="137.05940"></scales>
<clustering>
<clus scale="   39.553">  1  5  2 -1</clus>
<clus scale="  137.059">  2  6  1 -1</clus>
<clus scale="  187.004">  2  3  1 -1</clus>
<clus scale="   39.553">  1  3  2 -1</clus>
</clustering>
</event>
<event>
 6    0  0.6338511E+002  0.9279515E+02  0.7546771E-02  0.1296221E+00
         21   -1    0    0  504  502  0.00000000000E+00  0.00000000000E+00  0.86804675657E+02  0.86804675657E+02  0.00000000000E+00 0. -1.
          2   -1    0    0  503    0 -0.00000000000E+00 -0.00000000000E+00 -0.10784623720E+04  0.10784623720E+04  0.00000000000E+00 0.  1.
         21    1    1    2  503  505 -0.28795037130E+02 -0.32949828534E+02 -0.94367478776E+02  0.10401954823E+03  0.00000000000E+00 0.  1.
         21    1    1    2  504  501  0.54764803718E+02  0.50970059122E+02  0.12767903033E+02  0.75895652056E+02  0.00000000000E+00 0. -1.
         21    1    1    2  505  502 -0.60358349422E+02  0.51252290063E+02 -0.75565454089E+01  0.79542623543E+02  0.00000000000E+00 0. -1.
          2    1    1    2  501    0  0.34388582833E+02 -0.69272520650E+02 -0.90250157520E+03  0.90580922384E+03  0.00000000000E+00 0.  1.
<scales pt_clust_3="43.75895" pt_clust_4="73.41116" pt_clust_5="92.79515" pt_clust_6="14000.00000"></scales>
<clustering>
<clus scale="   43.759">  2  3  1 -1</clus>
<clus scale="   73.411">  1  4  2 -1</clus>
<clus scale="   92.795">  1  5  2 -1</clus>
<clus scale="   73.411">  1  3  2 -1</clus>
</clustering>
</event>
<event>
 6    0  0.6338511E+002  0.9526019E+02  0.7546771E-02  0.1290591E+00
         21   -1    0    0  505  502  0.00000000000E+00  0.00000000000E+00  0.51282806486E+02  0.51282806486E+02  0.00000000000E+00 0.  1.
          1   -1    0    0  504    0 -0.00000000000E+00 -0.00000000000E+00 -0.16194686713E+04  0.16194686713E+04  0.00000000000E+00 0.  1.
         21    1    1    2  503  501  0.43687897438E+02  0.29596996038E+02 -0.73198815515E+03  0.73388778013E+03  0.00000000000E+00 0.  1.
         21    1    1    2  504  502 -0.16465084202E+02  0.55589327114E+02  0.17988685637E+02  0.60703089689E+02  0.00000000000E+00 0.  1.
         21    1    1    2  505  503 -0.68145051498E+02 -0.72784931051E+02 -0.23214605436E+03  0.25265230018E+03  0.00000000000E+00 0.  1.
          1    1    1    2  501    0  0.40922238261E+02 -0.12401392102E+02 -0.62204034097E+03  0.62350830781E+03  0.00000000000E+00 0.  1.
<scales pt_clust_3="36.85681" pt_clust_4="57.97648" pt_clust_5="86.01219" pt_clust_6="36.85681"></scales>
<clustering>
<clus scale="   36.857">  3  6 -1 -1</clus>
<clus scale="   57.976">  1  4  2 -1</clus>
<clus scale="   86.012">  1  5  2 -1</clus>
<clus scale="   57.976">  1  3  2 -1</clus>
</clustering>
</event>
<event>
 6    0  0.6338511E+002  0.9856100E+02  0.7546771E-02  0.1283351E+00
         21   -1    0    0  503  502  0.00000000000E+00  0.00000000000E+00  0.26301511878E+02  0.26301511878E+02  0.00000000000E+00 0.  1.
          1   -1    0    0  505    0 -0.00000000000E+00 -0.00000000000E+00 -0.21829737362E+04  0.21829737362E+04  0.00000000000E+00 0. -1.
         21    1    1    2  503  501  0.62354120009E+02  0.40070595493E+02 -0.51060819334E+03  0.51595970386E+03  0.00000000000E+00 0. -1.
         21    1    1    2  504  502  0.45581975301E+02 -0.33567662813E+02 -0.42779650091E+02  0.70954935847E+02  0.00000000000E+00 0. -1.
         21    1    1    2  505  504 -0.14512532767E+03  0.62956754077E+01 -0.56640272784E+03  0.58473331217E+03  0.00000000000E+00 0.  1.
          1    1    1    2  501    0  0.37189232365E+02 -0.12798608087E+02 -0.10368816531E+04  0.10376272962E+04  0.00000000000E+00 0. -1.
<scales pt_clust_3="98.56100" pt_clust_4="58.47427" pt_clust_5="14000.00000" pt_clust_6="39.32993"></scales>
<clustering>
<clus scale="   39.330">  2  6  1 -1</clus>
<clus scale="   58.474">  1  4  2 -1</clus>
<clus scale="   98.561">  2  3  1 -1</clus>
<clus scale="   58.474">  1  3  2 -1</clus>
</clustering>
</event>
<event>
 6    0  0.6338511E+002  0.1397340E+03  0.7546771E-02  0.1213687E+00
          2   -1    0    0  503    0 -0.00000000000E+00  0.00000000000E+00  0.17334418789E+04  0.17334418789E+04  0.00000000000E+00 0. -1.
         21   -1    0    0  501  502  0.00000000000E+00 -0.00000000000E+00 -0.35218412993E+03  0.35218412993E+03  0.00000000000E+00 0. -1.
         21    1    1    2  503  504  0.11965033413E+02 -0.36418283507E+02  0.71321306003E+02  0.80970254341E+02  0.00000000000E+00 0.  1.
         21    1    1    2  504  505  0.13606178538E+03 -0.32288373108E+02 -0.25801732474E+02  0.14220083641E+03  0.00000000000E+00 0.  1.
         21    1    1    2  505  502 -0.11184705772E+03  0.89251119608E+02 -0.24362722475E+03  0.28254159218E+03  0.00000000000E+00 0. -1.
          2    1    1    2  501    0 -0.36179761072E+02 -0.20544462993E+02  0.15793654002E+04  0.15799133259E+04  0.00000000000E+00 0. -1.
<scales pt_clust_3="38.33345" pt_clust_4="14000.00000" pt_clust_5="139.73396" pt_clust_6="60.55638"></scales>
<clustering>
<clus scale="   38.333">  1  3  2 -1</clus>
<clus scale="   60.556">  1  6  2 -1</clus>
<clus scale="  139.734">  2  5  1 -1</clus>
<clus scale="  139.734">  2  3  1 -1</clus>
</clustering>
</event>
<event>
 6    0  0.6338511E+002  0.6816666E+02  0.7546771E-02  0.1366441E+00
          2   -1    0    0  504    0 -0.00000000000E+00  0.00000000000E+00  0.63293033758E+03  0.63293033758E+03  0.00000000000E+00 0.  1.
         21   -1    0    0  503  502  0.00000000000E+00 -0.00000000000E+00 -0.36645891588E+03  0.36645891588E+03  0.00000000000E+00 0. -1.
         21    1    1    2  503  501  0.31648169225E+02  0.30253455362E+02 -0.28207817642E+03  0.28545573351E+03  0.00000000000E+00 0. -1.
         21    1    1    2  504  505 -0.24911879979E+02 -0.11401257978E+03  0.24574060945E+03  0.27204396197E+03  0.00000000000E+00 0.  1.
         21    1    1    2  505  502 -0.17896071236E+02  0.25460995494E+02 -0.63545859818E+02  0.70757388005E+02  0.00000000000E+00 0.  1.
          2    1    1    2  501    0  0.11159781989E+02  0.58298128924E+02  0.36635484850E+03  0.37113216997E+03  0.00000000000E+00 0.  1.
<scales pt_clust_3="56.33900" pt_clust_4="68.16666" pt_clust_5="31.12124" pt_clust_6="14000.00000"></scales>
<clustering>
<clus scale="   31.121">  2  5  1 -1</clus>
<clus scale="   56.339">  2  3  1 -1</clus>
<clus scale="   68.167">  2  4  1 -1</clus>
<clus scale="   31.121">  2  3  1 -1</clus>
</clustering>
</event>
<event>
 6    0  0.6338511E+002  0.9911696E+02  0.7546771E-02  0.1282164E+00
         -4   -1    0    0    0  501 -0.00000000000E+00  0.00000000000E+00  0.39844910385E+03  0.39844910385E+03  0.00000000000E+00 0. -1.
         21   -1    0    0  503  502  0.00000000000E+00 -0.00000000000E+00 -0.12199320071E+04  0.12199320071E+04  0.00000000000E+00 0. -1.
         21    1    1    2  503  504  0.89590773672E+02 -0.41544922036E+02 -0.11836878971E+04  0.11878002884E+04  0.00000000000E+00 0. -1.
         21    1    1    2  504  501  0.31265419299E+02  0.20300708028E+01  0.14813170530E+02  0.34656567236E+02  0.00000000000E+00 0. -1.
         21    1    1    2  505  502 -0.14271001645E+03  0.63341350206E+02  0.30466798798E+03  0.34234610899E+03  0.00000000000E+00 0. -1.
         -4    1    1    2    0  505  0.21853823477E+02 -0.23826498973E+02  0.42723835392E+02  0.53578146333E+02  0.00000000000E+00 0. -1.
<scales pt_clust_3="14000.00000" pt_clust_4="31.33126" pt_clust_5="99.11696" pt_clust_6="35.00278"></scales>
<clustering>
<clus scale="   31.331">  1  4  2 -1</clus>
<clus scale="   35.003">  1  6  2 -1</clus>
<clus scale="   99.117">  1  5  2 -1</clus>
<clus scale="   99.117">  2  3  1 -1</clus>
</clustering>
</event>
<event>
 6    0  0.6338511E+002  0.1557466E+03  0.7546771E-02  0.1193584E+00
         21   -1    0    0  503  502  0.00000000000E+00  0.00000000000E+00  0.15004971888E+02  0.15004971888E+02  0.00000000000E+00 0.  1.
          2   -1    0    0  502    0 -0.00000000000E+00 -0.00000000000E+00 -0.39586516785E+04  0.39586516785E+04  0.00000000000E+00 0. -1.
         21    1    1    2  503  505  0.45439863574E+02  0.46029764442E+02 -0.11725386275E+03  0.13391037580E+03  0.00000000000E+00 0.  1.
         21    1    1    2  504  501  0.70578795048E+02 -0.19403300932E+02 -0.75675681029E+03  0.76028857963E+03  0.00000000000E+00 0.  1.
         21    1    1    2  505  504 -0.16950265756E+03 -0.48420460659E+02 -0.18282975848E+04  0.18367764563E+04  0.00000000000E+00 0.  1.
          2    1    1    2  501    0  0.53483998938E+02  0.21793997148E+02 -0.12413384487E+04  0.12426812386E+04  0.00000000000E+00 0. -1.
<scales pt_clust_3="64.68014" pt_clust_4="56.91932" pt_clust_5="141.95379" pt_clust_6="56.91932"></scales>
<clustering>
<clus scale="   56.919">  4  6 -1 -1</clus>
<clus scale="   64.680">  1  3  2 -1</clus>
<clus scale="  141.954">  1  5  2 -1</clus>
<clus scale="   64.680">  1  3  2 -1</clus>
</clustering>
</event>
<event>
 6    0  0.6338511E+002  0.7277149E+02  0.7546771E-02  0.1350914E+00
         21   -1    0    0  504  502  0.00000000000E+00  0.00000000000E+00  0.13068349152E+03  0.13068349152E+03  0.00000000000E+00 0.  1.
          1   -1    0    0  505    0 -0.00000000000E+00 -0.00000000000E+00 -0.27416250831E+03  0.27416250831E+03  0.00000000000E+00 0. -1.
         21    1    1    2  503  502 -0.62983860053E+02 -0.49119684518E+01  0.67493248192E+02  0.92446917811E+02  0.00000000000E+00 0.  1.
         21    1    1    2  504  501 -0.47184501528E+02  0.58789208663E+02 -0.45595262786E+02  0.88099240792E+02  0.00000000000E+00 0.  1.
         21    1    1    2  505  503  0.52994539578E+02 -0.58319159386E+02 -0.44470575999E+02  0.90483024410E+02  0.00000000000E+00 0.  1.
          1    1    1    2  501    0  0.57173822003E+02  0.44419191754E+01 -0.12090642620E+03  0.13381681682E+03  0.00000000000E+00 0. -1.
<scales pt_clust_3="58.30117" pt_clust_4="72.77149" pt_clust_5="14000.00000" pt_clust_6="57.34611"></scales>
<clustering>
<clus scale="   57.346">  2  6  1 -1</clus>
<clus scale="   58.301">  1  3  2 -1</clus>
<clus scale="   72.771">  2  4  1 -1</clus>
<clus scale="   58.301">  1  3  2 -1</clus>
</clustering>
</event>
<event>
 6    0  0.6338511E+002  0.9862780E+02  0.7546771E-02  0.1283208E+00
          1   -1    0    0  505    0 -0.00000000000E+00  0.00000000000E+00  0.46627646634E+03  0.46627646634E+03  0.00000000000E+00 0. -1.
         21   -1    0    0  501  502  0.00000000000E+00 -0.00000000000E+00 -0.81940753679E+03  0.81940753679E+03  0.00000000000E+00 0.  1.
         21    1    1    2  503  504 -0.87689323052E+02  0.12534294998E+03 -0.35625864479E+03  0.38771187043E+03  0.00000000000E+00 0.  1.
         21    1    1    2  504  502  0.14158925054E+02 -0.55523165815E+02 -0.36720043137E+03  0.37164425718E+03  0.00000000000E+00 0.  1.
         21    1    1    2  505  503  0.61913868995E+02 -0.35030456061E+02 -0.60838368226E+02  0.93604311195E+02  0.00000000000E+00 0.  1.
          1    1    1    2  501    0  0.11616529002E+02 -0.34789328101E+02  0.43116637394E+03  0.43272356431E+03  0.00000000000E+00 0. -1.
<scales pt_clust_3="98.62780" pt_clust_4="59.66781" pt_clust_5="14000.00000" pt_clust_6="36.67753"></scales>
<clustering>
<clus scale="   36.678">  1  6  2 -1</clus>
<clus scale="   59.668">  2  4  1 -1</clus>
<clus scale="   98.628">  2  3  1 -1</clus>
<clus scale="   59.668">  2  3  1 -1</clus>
</clustering>
</event>
<event>
 6    0  0.6338511E+002  0.6008458E+02  0.7546771E-02  0.1397477E+00
         21   -1    0    0  504  502  0.00000000000E+00  0.00000000000E+00  0.14054183606E+03  0.14054183606E+03  0.00000000000E+00 0. -1.
          2   -1    0    0  503    0 -0.00000000000E+00 -0.00000000000E+00 -0.14966896753E+04  0.14966896753E+04  0.00000000000E+00 0.  1.
         21    1    1    2  503  505 -0.24420452760E+02 -0.76135052915E+02 -0.32248311017E+03  0.33224728914E+03  0.00000000000E+00 0.  1.
         21    1    1    2  504  501 -0.75626404359E+01 -0.56537009802E+02  0.79545016390E+02  0.97882769884E+02  0.00000000000E+00 0. -1.
         21    1    1    2  505  502  0.49333758463E+02  0.90664196155E+02 -0.10828614736E+02  0.10378379009E+03  0.00000000000E+00 0. -1.
          2    1    1    2  501    0 -0.17350665268E+02  0.42007866563E+02 -0.11023811308E+04  0.11033176623E+04  0.00000000000E+00 0.  1.
<scales pt_clust_3="14000.00000" pt_clust_4="56.12729" pt_clust_5="60.08458" pt_clust_6="45.45004"></scales>
<clustering>
<clus scale="   45.450">  2  6  1 -1</clus>
<clus scale="   56.127">  1  4  2 -1</clus>
<clus scale="   60.085">  1  5  2 -1</clus>
<clus scale="   56.127">  1  3  2 -1</clus>
</clustering>
</event>
<event>
 6    0  0.6338511E+002  0.8427571E+02  0.7546771E-02  0.1317338E+00
         21   -1    0    0  501  502  0.00000000000E+00  0.00000000000E+00  0.81794918521E+03  0.81794918521E+03  0.00000000000E+00 0.  1.
          2   -1    0    0  504    0 -0.00000000000E+00 -0.00000000000E+00 -0.29497339474E+03  0.29497339474E+03  0.00000000000E+00 0.  1.
         21    1    1    2  503  502 -0.86206840185E+02  0.28991464645E+02  0.60427219847E+03  0.61107856627E+03  0.00000000000E+00 0.  1.
         21    1    1    2  504  505  0.35833938016E+02 -0.33253825385E+02 -0.15638986046E+02  0.51327048435E+02  0.00000000000E+00 0.  1.
         21    1    1    2  505  503  0.75931567676E+02  0.26540588193E+02  0.18282224382E+03  0.19973477070E+03  0.00000000000E+00 0.  1.
          2    1    1    2  501    0 -0.25558665507E+02 -0.22278227454E+02 -0.24847966577E+03  0.25078219455E+03  0.00000000000E+00 0.  1.
<scales pt_clust_3="14000.00000" pt_clust_4="52.51902" pt_clust_5="84.27571" pt_clust_6="33.90523"></scales>
<clustering>
<clus scale="   33.905">  2  6  1 -1</clus>
<clus scale="   52.519">  2  4  1 -1</clus>
<clus scale="   84.276">  2  5  1 -1</clus>
<clus scale="   84.276">  1  3  2 -1</clus>
</clustering>
</event>
<event>
 6    0  0.6338511E+002  0.6541473E+02  0.7546771E-02  0.1376418E+00
         21   -1    0    0  503  502  0.00000000000E+00  0.00000000000E+00  0.71679784329E+02  0.71679784329E+02  0.00000000000E+00 0. -1.
          2   -1    0    0  504    0 -0.00000000000E+00 -0.00000000000E+00 -0.40842320081E+03  0.40842320081E+03  0.00000000000E+00 0.  1.
         21    1    1    2  503  501 -0.19711906926E+02 -0.38001254213E+02 -0.29816201583E+02  0.52169535874E+02  0.00000000000E+00 0. -1.
         21    1    1    2  504  505  0.39263722871E+02 -0.55692145320E+02 -0.88747086634E+02  0.11188967946E+03  0.00000000000E+00 0. -1.
         21    1    1    2  505  502  0.24407177257E+02  0.95586804749E+02 -0.54425560285E+01  0.98803688999E+02  0.00000000000E+00 0. -1.
          2    1    1    2  501    0 -0.43958993202E+02 -0.18934052158E+01 -0.21273757224E+03  0.21724008080E+03  0.00000000000E+00 0.  1.
<scales pt_clust_3="42.80952" pt_clust_4="14000.00000" pt_clust_5="65.41473" pt_clust_6="44.81466"></scales>
<clustering>
<clus scale="   42.810">  1  3  2 -1</clus>
<clus scale="   44.815">  2  6  1 -1</clus>
<clus scale="   65.415">  1  5  2 -1</clus>
<clus scale="   42.810">  1  3  2 -1</clus>
</clustering>
</event>
<event>
 6    0  0.6338511E+002  0.2127108E+03  0.7546771E-02  0.1139437E+00
         21   -1    0    0  504  502  0.00000000000E+00  0.00000000000E+00  0.59088370224E+03  0.59088370224E+03  0.00000000000E+00 0. -1.
         -3   -1    0    0    0  501 -0.00000000000E+00 -0.00000000000E+00 -0.20576866301E+03  0.20576866301E+03  0.00000000000E+00 0.  1.
         21    1    1    2  503  505 -0.90837897718E+02  0.47217927264E+02 -0.39627162691E+02  0.10977872444E+03  0.00000000000E+00 0.  1.
         21    1    1    2  504  501 -0.10574928663E+03 -0.13630087466E+03  0.12324625881E+03  0.21201528333E+03  0.00000000000E+00 0.  1.
         21    1    1    2  505  502  0.21839066262E+03  0.14169071078E+03  0.32223387062E+03  0.41425282910E+03  0.00000000000E+00 0. -1.
         -3    1    1    2    0  503 -0.21803478271E+02 -0.52607763377E+02 -0.20737927507E+02  0.60605528374E+02  0.00000000000E+00 0.  1.
<scales pt_clust_3="103.38962" pt_clust_4="212.71082" pt_clust_5="14000.00000" pt_clust_6="56.94707"></scales>
<clustering>
<clus scale="   56.947">  2  6  1 -1</clus>
<clus scale="  103.390">  2  3  1 -1</clus>
<clus scale="  212.711">  1  4  2 -1</clus>
<clus scale="  212.711">  1  3  2 -1</clus>
</clustering>
</event>
<event>
 6    0  0.6338511E+002  0.1894476E+03  0.7546771E-02  0.1158960E+00
         21   -1    0    0  504  502  0.00000000000E+00  0.00000000000E+00  0.13259397603E+03  0.13259397603E+03  0.00000000000E+00 0. -1.
          2   -1    0    0  503    0 -0.00000000000E+00 -0.00000000000E+00 -0.70922639664E+03  0.70922639664E+03  0.00000000000E+00 0.  1.
         21    1    1    2  503  505 -0.53288664076E+02  0.17702078336E+03 -0.39914706325E+03  0.43988000360E+03  0.00000000000E+00 0.  1.
         21    1    1    2  504  501 -0.18107396287E+02 -0.37291918915E+02 -0.20306116191E+02  0.46161708931E+02  0.00000000000E+00 0. -1.
         21    1    1    2  505  502  0.13144300640E+03 -0.12649093263E+03  0.48391078043E+01  0.18248462109E+03  0.00000000000E+00 0. -1.
          2    1    1    2  501    0 -0.60046946035E+02 -0.13237931816E+02 -0.16201834897E+03  0.17329403905E+03  0.00000000000E+00 0.  1.
<scales pt_clust_3="14000.00000" pt_clust_4="41.45558" pt_clust_5="189.44763" pt_clust_6="62.71891"></scales>
<clustering>
<clus scale="   41.456">  1  4  2 -1</clus>
<clus scale="   62.719">  2  6  1 -1</clus>
<clus scale="  189.448">  1  5  2 -1</clus>
<clus scale="   41.456">  1  3  2 -1</clus>
</clustering>
</event>
<event>
 6    0  0.6338511E+002  0.8730192E+02  0.7546771E-02  0.1309520E+00
          2   -1    0    0  504    0 -0.00000000000E+00  0.00000000000E+00  0.21144391205E+04  0.21144391205E+04  0.00000000000E+00 0. -1.
         21   -1    0    0  501  502  0.00000000000E+00 -0.00000000000E+00 -0.95083890798E+03  0.95083890798E+03  0.00000000000E+00 0.  1.
         21    1    1    2  503  502  0.78146040723E+02  0.38988268169E+02 -0.91892992596E+03  0.92307047270E+03  0.00000000000E+00 0.  1.
         21    1    1    2  504  505 -0.66837537848E+02  0.15904194643E+02  0.14837347812E+03  0.16350806978E+03  0.00000000000E+00 0. -1.
         21    1    1    2  505  503  0.58488818034E+02 -0.60398519109E+02  0.60131533740E+02  0.10336694005E+03  0.00000000000E+00 0.  1.
          2    1    1    2  501    0 -0.69797320909E+02  0.55060562974E+01  0.18740251266E+04  0.18753325459E+04  0.00000000000E+00 0. -1.
<scales pt_clust_3="87.30192" pt_clust_4="68.70371" pt_clust_5="81.67377" pt_clust_6="14000.00000"></scales>
<clustering>
<clus scale="   68.704">  1  4  2 -1</clus>
<clus scale="   81.674">  1  5  2 -1</clus>
<clus scale="   87.302">  2  3  1 -1</clus>
<clus scale="   87.302">  2  3  1 -1</clus>
</clustering>
</event>
<event>
 6    0  0.6338511E+002  0.1053605E+03  0.7546771E-02  0.1269411E+00
          2   -1    0    0  505    0 -0.00000000000E+00  0.00000000000E+00  0.91952693296E+03  0.91952693296E+03  0.00000000000E+00 0.  1.
         21   -1    0    0  501  502  0.00000000000E+00 -0.00000000000E+00 -0.14977795273E+03  0.14977795273E+03  0.00000000000E+00 0.  1.
         21    1    1    2  503  504  0.79642840116E+02 -0.10776439135E+03 -0.17969468882E+02  0.13520002898E+03  0.00000000000E+00 0.  1.
         21    1    1    2  504  502 -0.19663146902E+02  0.23110733211E+02 -0.62922649803E+02  0.69857033961E+02  0.00000000000E+00 0.  1.
         21    1    1    2  505  503 -0.13400219202E+02  0.10127773345E+03  0.62037125334E+03  0.62872667920E+03  0.00000000000E+00 0.  1.
          2    1    1    2  501    0 -0.46579474012E+02 -0.16624075305E+02  0.23026984557E+03  0.23552114354E+03  0.00000000000E+00 0.  1.
<scales pt_clust_3="14000.00000" pt_clust_4="30.34379" pt_clust_5="105.36050" pt_clust_6="49.80365"></scales>
<clustering>
<clus scale="   30.344">  2  4  1 -1</clus>
<clus scale="   49.804">  1  6  2 -1</clus>
<clus scale="  105.361">  1  5  2 -1</clus>
<clus scale="   30.344">  2  3  1 -1</clus>
</clustering>
</event>
<event>
 6    0  0.6338511E+002  0.1579655E+03  0.7546771E-02  0.1191013E+00
         21   -1    0    0  504  502  0.00000000000E+00  0.00000000000E+00  0.68608478806E+03  0.68608478806E+03  0.00000000000E+00 0.  1.
          2   -1    0    0  503    0 -0.00000000000E+00 -0.00000000000E+00 -0.15743005851E+03  0.15743005851E+03  0.00000000000E+00 0.  1.
         21    1    1    2  503  505  0.81589506485E+02  0.93977656713E+02  0.29711448973E+02  0.12795084107E+03  0.00000000000E+00 0.  1.
         21    1    1    2  504  501 -0.52614175880E+02  0.14244787954E+03  0.39518034856E+03  0.42335228567E+03  0.00000000000E+00 0.  1.
         21    1    1    2  505  502 -0.77520551366E+01 -0.19003118597E+03  0.13423177524E+03  0.23278770475E+03  0.00000000000E+00 0.  1.
          2    1    1    2  501    0 -0.21223275468E+02 -0.46394350289E+02 -0.30468843227E+02  0.59424015077E+02  0.00000000000E+00 0.  1.
<scales pt_clust_3="103.27038" pt_clust_4="157.96552" pt_clust_5="14000.00000" pt_clust_6="51.01826"></scales>
<clustering>
<clus scale="   51.018">  2  6  1 -1</clus>
<clus scale="  103.270">  2  3  1 -1</clus>
<clus scale="  157.966">  1  4  2 -1</clus>
<clus scale="  157.966">  1  3  2 -1</clus>
</clustering>
</event>
<event>
 6    0  0.6338511E+002  0.9130635E+02  0.7546771E-02  0.1299719E+00
         21   -1    0    0  504  502  0.00000000000E+00  0.00000000000E+00  0.48177380797E+03  0.48177380797E+03  0.00000000000E+00 0.  1.
          4   -1    0    0  503    0 -0.00000000000E+00 -0.00000000000E+00 -0.19256431022E+03  0.19256431022E+03  0.00000000000E+00 0. -1.
         21    1    1    2  503  505 -0.31385921748E+02  0.62922534564E+02 -0.13925518996E+03  0.15600105567E+03  0.00000000000E+00 0. -1.
         21    1    1    2  504  501 -0.58072984364E+02 -0.28876195237E+02  0.30362626138E+03  0.31047578450E+03  0.00000000000E+00 0.  1.
         21    1    1    2  505  502 -0.32765814935E+02 -0.56113818576E+01  0.54951364852E+02  0.64224128907E+02  0.00000000000E+00 0.  1.
          4    1    1    2  501    0  0.12222472105E+03 -0.28434957470E+02  0.69887061476E+02  0.14363714910E+03  0.00000000000E+00 0. -1.
<scales pt_clust_3="70.50916" pt_clust_4="91.30635" pt_clust_5="33.24284" pt_clust_6="14000.00000"></scales>
<clustering>
<clus scale="   33.243">  1  5  2 -1</clus>
<clus scale="   70.509">  2  3  1 -1</clus>
<clus scale="   91.306">  1  4  2 -1</clus>
<clus scale="   33.243">  1  3  2 -1</clus>
</clustering>
</event>
<event>
 6    0  0.6338511E+002  0.7274615E+02  0.7546771E-02  0.1350996E+00
         21   -1    0    0  505  502  0.00000000000E+00  0.00000000000E+00  0.31072915585E+03  0.31072915585E+03  0.00000000000E+00 0. -1.
          3   -1    0    0  503    0 -0.00000000000E+00 -0.00000000000E+00 -0.14909084015E+03  0.14909084015E+03  0.00000000000E+00 0.  1.
         21    1    1    2  503  504  0.35142159832E+02  0.14638625489E+02 -0.41808521927E+01  0.38298045367E+02  0.00000000000E+00 0. -1.
         21    1    1    2  504  502  0.50935972240E+02 -0.66258568215E+02  0.22458107281E+03  0.23962748047E+03  0.00000000000E+00 0. -1.
         21    1    1    2  505  501 -0.28925010928E+01  0.55534277433E+02  0.27461839931E+02  0.62020764144E+02  0.00000000000E+00 0. -1.
          3    1    1    2  501    0 -0.83185630980E+02 -0.39143347074E+01 -0.86223744852E+02  0.11987370602E+03  0.00000000000E+00 0.  1.
<scales pt_clust_3="38.06916" pt_clust_4="72.74615" pt_clust_5="14000.00000" pt_clust_6="55.42458"></scales>
<clustering>
<clus scale="   38.069">  2  3  1 -1</clus>
<clus scale="   55.425">  2  6  1 -1</clus>
<clus scale="   72.746">  1  4  2 -1</clus>
<clus scale="   72.746">  1  3  2 -1</clus>
</clustering>
</event>
<event>
 6    0  0.6338511E+002  0.7905801E+02  0.7546771E-02  0.1331746E+00
         21   -1    0    0  505  502  0.00000000000E+00  0.00000000000E+00  0.33677427547E+03  0.33677427547E+03  0.00000000000E+00 0. -1.
          3   -1    0    0  503    0 -0.00000000000E+00 -0.00000000000E+00 -0.35693620932E+03  0.35693620932E+03  0.00000000000E+00 0. -1.
         21    1    1    2  503  502 -0.32919459259E+02 -0.27074747136E+02  0.22183280086E+03  0.22589051389E+03  0.00000000000E+00 0. -1.
         21    1    1    2  504  501  0.57546331294E+02  0.39361197642E+02  0.67007988281E+01  0.70041308027E+02  0.00000000000E+00 0. -1.
         21    1    1    2  505  504 -0.18052463639E+00  0.66351752341E+02  0.53078550555E+02  0.84970113316E+02  0.00000000000E+00 0. -1.
          3    1    1    2  501    0 -0.24446347399E+02 -0.78638202847E+02 -0.30177408409E+03  0.31280854956E+03  0.00000000000E+00 0. -1.
<scales pt_clust_3="42.62315" pt_clust_4="79.05801" pt_clust_5="53.78090" pt_clust_6="14000.00000"></scales>
<clustering>
<clus scale="   42.623">  1  3  2 -1</clus>
<clus scale="   53.781">  1  5  2 -1</clus>
<clus scale="   79.058">  1  4  2 -1</clus>
<clus scale="   42.623">  1  3  2 -1</clus>
</clustering>
</event>
<event>
 6    0  0.6338511E+002  0.1532038E+03  0.7546771E-02  0.1196591E+00
          1   -1    0    0  505    0 -0.00000000000E+00  0.00000000000E+00  0.36102768994E+04  0.36102768994E+04  0.00000000000E+00 0. -1.
         21   -1    0    0  504  502  0.00000000000E+00 -0.00000000000E+00 -0.20333024613E+03  0.20333024613E+03  0.00000000000E+00 0. -1.
         21    1    1    2  503  502  0.68843112093E+02  0.16206498540E+02 -0.29037870255E+02  0.76454055396E+02  0.00000000000E+00 0. -1.
         21    1    1    2  504  501 -0.16300206968E+03 -0.13775486265E+03 -0.36625546575E+02  0.21653523401E+03  0.00000000000E+00 0. -1.
         21    1    1    2  505  503  0.23324081403E+02  0.13150811041E+03  0.16521150001E+03  0.21244584160E+03  0.00000000000E+00 0.  1.
          1    1    1    2  501    0  0.70834876187E+02 -0.99597462935E+01  0.33073985701E+04  0.33081720145E+04  0.00000000000E+00 0. -1.
<scales pt_clust_3="70.72499" pt_clust_4="14000.00000" pt_clust_5="153.20382" pt_clust_6="71.70096"></scales>
<clustering>
<clus scale="   70.725">  2  3  1 -1</clus>
<clus scale="   71.701">  1  6  2 -1</clus>
<clus scale="  153.204">  1  5  2 -1</clus>
<clus scale="   70.725">  2  3  1 -1</clus>
</clustering>
</event>
<event>
 6    0  0.6338511E+002  0.9332186E+02  0.7546771E-02  0.1295001E+00
         21   -1    0    0  505  502  0.00000000000E+00  0.00000000000E+00  0.19055673689E+03  0.19055673689E+03  0.00000000000E+00 0.  1.
          2   -1    0    0  503    0 -0.00000000000E+00 -0.00000000000E+00 -0.47060854110E+03  0.47060854110E+03  0.00000000000E+00 0. -1.
         21    1    1    2  503  504 -0.10877922268E+03  0.36690697565E+02 -0.11336600340E+03  0.16134118290E+03  0.00000000000E+00 0.  1.
         21    1    1    2  504  502  0.23515310332E+02 -0.20171027932E+02  0.87311463007E+02  0.92645192861E+02  0.00000000000E+00 0.  1.
         21    1    1    2  505  501  0.72970614375E+02  0.16905827757E+02  0.57015034133E+02  0.94134115450E+02  0.00000000000E+00 0.  1.
          2    1    1    2  501    0  0.12293297970E+02 -0.33425497390E+02 -0.31101229795E+03  0.31304478678E+03  0.00000000000E+00 0. -1.
<scales pt_clust_3="93.32186" pt_clust_4="30.98129" pt_clust_5="14000.00000" pt_clust_6="35.88807"></scales>
<clustering>
<clus scale="   30.981">  1  4  2 -1</clus>
<clus scale="   35.888">  2  6  1 -1</clus>
<clus scale="   93.322">  2  3  1 -1</clus>
<clus scale="   30.981">  1  3  2 -1</clus>
</clustering>
</event>
<event>
 6    0  0.6338511E+002  0.1330385E+03  0.7546771E-02  0.1223016E+00
         21   -1    0    0  503  502  0.00000000000E+00  0.00000000000E+00  0.11457626051E+03  0.11457626051E+03  0.00000000000E+00 0.  1.
          1   -1    0    0  504    0 -0.00000000000E+00 -0.00000000000E+00 -0.55573654285E+03  0.55573654285E+03  0.00000000000E+00 0.  1.
         21    1    1    2  503  501 -0.11238047509E+03 -0.11093086090E+03 -0.38469003030E+02  0.16252658637E+03  0.00000000000E+00 0.  1.
         21    1    1    2  504  505  0.27601360622E+02 -0.40292411887E+02 -0.17834269870E+03  0.18490925273E+03  0.00000000000E+00 0.  1.
         21    1    1    2  505  502  0.32781915241E+02  0.20081672204E+02  0.18007078848E+02  0.42452119076E+02  0.00000000000E+00 0.  1.
          1    1    1    2  501    0  0.51997199227E+02  0.13114160058E+03 -0.24235565945E+03  0.28042484519E+03  0.00000000000E+00 0.  1.
<scales pt_clust_3="133.03850" pt_clust_4="48.93876" pt_clust_5="38.44382" pt_clust_6="14000.00000"></scales>
<clustering>
<clus scale="   38.444">  1  5  2 -1</clus>
<clus scale="   48.939">  2  4  1 -1</clus>
<clus scale="  133.039">  1  3  2 -1</clus>
<clus scale="   38.444">  1  3  2 -1</clus>
</clustering>
</event>
<event>
 6    0  0.6338511E+002  0.1645631E+03  0.7546771E-02  0.1183639E+00
          1   -1    0    0  503    0 -0.00000000000E+00  0.00000000000E+00  0.26886043592E+04  0.26886043592E+04  0.00000000000E+00 0.  1.
         21   -1    0    0  505  502  0.00000000000E+00 -0.00000000000E+00 -0.77920133688E+03  0.77920133688E+03  0.00000000000E+00 0. -1.
         21    1    1    2  503  502 -0.12551296370E+03  0.28050366217E+02 -0.26018660621E+03  0.29023679497E+03  0.00000000000E+00 0. -1.
         21    1    1    2  504  501  0.19952596229E+03 -0.33873657700E+02  0.31078006505E+03  0.37086693456E+03  0.00000000000E+00 0. -1.
         21    1    1    2  505  504 -0.39920882471E+02 -0.17977222379E+02 -0.47274934243E+03  0.47477236456E+03  0.00000000000E+00 0. -1.
          1    1    1    2  501    0 -0.34092116121E+02  0.23800513863E+02  0.23315589059E+04  0.23319296020E+04  0.00000000000E+00 0.  1.
<scales pt_clust_3="164.56308" pt_clust_4="14000.00000" pt_clust_5="43.84246" pt_clust_6="41.57808"></scales>
<clustering>
<clus scale="   41.578">  1  6  2 -1</clus>
<clus scale="   43.842">  2  5  1 -1</clus>
<clus scale="  164.563">  2  3  1 -1</clus>
<clus scale="   43.842">  2  3  1 -1</clus>
</clustering>
</event>
<event>
 6    0  0.6338511E+002  0.7253750E+02  0.7546771E-02  0.1351671E+00
         21   -1    0    0  503  502  0.00000000000E+00  0.00000000000E+00  0.99530900511E+02  0.99530900511E+02  0.00000000000E+00 0.  1.
          1   -1    0    0  505    0 -0.00000000000E+00 -0.00000000000E+00 -0.52496685992E+03  0.52496685992E+03  0.00000000000E+00 0.  1.
         21    1    1    2  503  501  0.52386998957E+02 -0.30706965050E+02 -0.11584743298E+03  0.13079733595E+03  0.00000000000E+00 0.  1.
         21    1    1    2  504  502  0.34952016356E+02  0.54920616156E+02  0.33731479066E+02  0.73319371289E+02  0.00000000000E+00 0.  1.
         21    1    1    2  505  504 -0.95418739484E+02 -0.58871903202E+02 -0.46407971420E+02  0.12134387765E+03  0.00000000000E+00 0.  1.
          1    1    1    2  501    0  0.80797241708E+01  0.34658252096E+02 -0.29691203407E+03  0.29903717555E+03  0.00000000000E+00 0.  1.
<scales pt_clust_3="58.00569" pt_clust_4="72.53750" pt_clust_5="14000.00000" pt_clust_6="35.58759"></scales>
<clustering>
<clus scale="   35.588">  2  6  1 -1</clus>
<clus scale="   58.006">  2  3  1 -1</clus>
<clus scale="   72.538">  1  4  2 -1</clus>
<clus scale="   72.538">  1  3  2 -1</clus>
</clustering>
</event>
<event>
 6    0  0.6338511E+002  0.1287398E+03  0.7546771E-02  0.1229338E+00
         -1   -1    0    0    0  501 -0.00000000000E+00  0.00000000000E+00  0.40183770027E+03  0.40183770027E+03  0.00000000000E+00 0.  1.
         21   -1    0    0  504  502  0.00000000000E+00 -0.00000000000E+00 -0.13317926165E+04  0.13317926165E+04  0.00000000000E+00 0.  1.
         21    1    1    2  503  501  0.53014260353E+02  0.23677039245E+02 -0.13463320362E+03  0.14661928081E+03  0.00000000000E+00 0.  1.
         21    1    1    2  504  505 -0.21158110507E+02  0.70271870733E+02 -0.10675993793E+04  0.10701187953E+04  0.00000000000E+00 0.  1.
         21    1    1    2  505  503  0.62361026907E+02 -0.18620831477E+02 -0.10348122314E+03  0.12224564035E+03  0.00000000000E+00 0.  1.
         -1    1    1    2    0  502 -0.94217176753E+02 -0.75328078501E+02  0.37575888984E+03  0.39464660027E+03  0.00000000000E+00 0.  1.
<scales pt_clust_3="44.83109" pt_clust_4="73.38802" pt_clust_5="44.83109" pt_clust_6="119.67076"></scales>
<clustering>
<clus scale="   44.831">  3  5 -1 -1</clus>
<clus scale="   73.388">  2  4  1 -1</clus>
<clus scale="  119.671">  1  6  2 -1</clus>
<clus scale="   73.388">  2  3  1 -1</clus>
</clustering>
</event>
<event>
 6    0  0.6338511E+002  0.1191230E+03  0.7546771E-02  0.1244551E+00
         21   -1    0    0  503  502  0.00000000000E+00  0.00000000000E+00  0.63550366513E+03  0.63550366513E+03  0.00000000000E+00 0.  1.
          1   -1    0    0  504    0 -0.00000000000E+00 -0.00000000000E+00 -0.10439449254E+04  0.10439449254E+04  0.00000000000E+00 0. -1.
         21    1    1    2  503  501 -0.16893995172E+02 -0.12984639349E+03  0.19511914962E+03  0.23498292603E+03  0.00000000000E+00 0.  1.
         21    1    1    2  504  505  0.31918341110E+02  0.21747539517E+02  0.79645865313E+02  0.88516664170E+02  0.00000000000E+00 0.  1.
         21    1    1    2  505  502  0.33667156479E+02  0.60201845926E+02  0.33167533086E+03  0.33877170009E+03  0.00000000000E+00 0.  1.
          1    1    1    2  501    0 -0.48691502418E+02  0.47897008047E+02 -0.10148816060E+04  0.10171773002E+04  0.00000000000E+00 0. -1.
<scales pt_clust_3="108.70703" pt_clust_4="36.45249" pt_clust_5="36.45249" pt_clust_6="68.30070"></scales>
<clustering>
<clus scale="   36.452">  4  5 -1 -1</clus>
<clus scale="   68.301">  2  6  1 -1</clus>
<clus scale="  108.707">  2  3  1 -1</clus>
<clus scale="  119.123">  1  3  2 -1</clus>
</clustering>
</event>
<event>
 6    0  0.6338511E+002  0.1702210E+03  0.7546771E-02  0.1177618E+00
         21   -1    0    0  501  502  0.00000000000E+00  0.00000000000E+00  0.21612572323E+04  0.21612572323E+04  0.00000000000E+00 0. -1.
          1   -1    0    0  505    0 -0.00000000000E+00 -0.00000000000E+00 -0.18005662512E+03  0.18005662512E+03  0.00000000000E+00 0.  1.
         21    1    1    2  503  502 -0.92477260587E+01 -0.47186257610E+02  0.88538973084E+03  0.88669444501E+03  0.00000000000E+00 0. -1.
         21    1    1    2  504  503 -0.74200763144E+02 -0.91211742438E+02  0.11880091295E+04  0.11938136483E+04  0.00000000000E+00 0. -1.
         21    1    1    2  505  504  0.14051265804E+02  0.13948636512E+03  0.62731916548E+01  0.14033259443E+03  0.00000000000E+00 0.  1.
          1    1    1    2  501    0  0.69397223399E+02 -0.10883650716E+01 -0.98471444821E+02  0.12047316962E+03  0.00000000000E+00 0.  1.
<scales pt_clust_3="37.36172" pt_clust_4="37.36172" pt_clust_5="159.88048" pt_clust_6="69.40576"></scales>
<clustering>
<clus scale="   37.362">  3  4 -1 -1</clus>
<clus scale="   69.406">  2  6  1 -1</clus>
<clus scale="  159.880">  2  5  1 -1</clus>
<clus scale="  170.221">  1  3  2 -1</clus>
</clustering>
</event>
<event>
 6    0  0.6338511E+002  0.5208527E+02  0.7546771E-02  0.1434408E+00
          2   -1    0    0  505    0 -0.00000000000E+00  0.00000000000E+00  0.61979143320E+03  0.61979143320E+03  0.00000000000E+00 0. -1.
         21   -1    0    0  504  502  0.00000000000E+00 -0.00000000000E+00 -0.10743383649E+04  0.10743383649E+04  0.00000000000E+00 0.  1.
         21    1    1    2  503  502  0.21339425881E+02  0.43405202141E+02 -0.77973269742E+03  0.78123137552E+03  0.00000000000E+00 0.  1.
         21    1    1    2  504  501 -0.16842399970E+02 -0.89615400920E+02 -0.27681714483E+03  0.29144865447E+03  0.00000000000E+00 0. -1.
         21    1    1    2  505  503 -0.10410762107E+02  0.78325325902E+02  0.16205494008E+03  0.18029155346E+03  0.00000000000E+00 0. -1.
          2    1    1    2  501    0  0.59137361959E+01 -0.32115127123E+02  0.43994797045E+03  0.44115821467E+03  0.00000000000E+00 0. -1.
<scales pt_clust_3="52.08527" pt_clust_4="14000.00000" pt_clust_5="47.89271" pt_clust_6="32.65507"></scales>
<clustering>
<clus scale="   32.655">  1  6  2 -1</clus>
<clus scale="   47.893">  1  5  2 -1</clus>
<clus scale="   52.085">  2  3  1 -1</clus>
<clus scale="   52.085">  2  3  1 -1</clus>
</clustering>
</event>
<event>
 6    0  0.6338511E+002  0.1118725E+03  0.7546771E-02  0.1257141E+00
         21   -1    0    0  505  502  0.00000000000E+00  0.00000000000E+00  0.32240186182E+03  0.32240186182E+03  0.00000000000E+00 0. -1.
          1   -1    0    0  504    0 -0.00000000000E+00 -0.00000000000E+00 -0.13235433016E+04  0.13235433016E+04  0.00000000000E+00 0. -1.
         21    1    1    2  503  502 -0.11097644173E+03  0.10805798726E+03  0.89468308754E+02  0.17887671034E+03  0.00000000000E+00 0. -1.
         21    1    1    2  504  503  0.54136936613E+02  0.91639038119E+01 -0.68563020723E+03  0.68782524387E+03  0.00000000000E+00 0. -1.
         21    1    1    2  505  501  0.66045355681E+02 -0.74061884754E+02  0.17307601970E+03  0.19950553972E+03  0.00000000000E+00 0. -1.
          1    1    1    2  501    0 -0.92058505688E+01 -0.43160006321E+02 -0.57805556102E+03  0.57973766952E+03  0.00000000000E+00 0. -1.
<scales pt_clust_3="111.87250" pt_clust_4="54.97649" pt_clust_5="14000.00000" pt_clust_6="44.13087"></scales>
<clustering>
<clus scale="   44.131">  2  6  1 -1</clus>
<clus scale="   54.976">  2  4  1 -1</clus>
<clus scale="  111.873">  2  3  1 -1</clus>
<clus scale="  111.873">  1  3  2 -1</clus>
</clustering>
</event>
<event>
 6    0  0.6338511E+002  0.6712443E+02  0.7546771E-02  0.1370154E+00
          2   -1    0    0  503    0 -0.00000000000E+00  0.00000000000E+00  0.19135561949E+04  0.19135561949E+04  0.00000000000E+00 0.  1.
         21   -1    0    0  505  502  0.00000000000E+00 -0.00000000000E+00 -0.14473822695E+03  0.14473822695E+03  0.00000000000E+00 0.  1.
         21    1    1    2  503  504  0.94094534579E+02 -0.85095469964E+02  0.15784237721E+03  0.20250737392E+03  0.00000000000E+00 0.  1.
         21    1    1    2  504  502 -0.25435563067E+02 -0.22303505828E+02 -0.62859189485E+02  0.71384115484E+02  0.00000000000E+00 0. -1.
         21    1    1    2  505  501 -0.13297404924E+02  0.72410512039E+02 -0.29862546725E+02  0.79447309132E+02  0.00000000000E+00 0.  1.
          2    1    1    2  501    0 -0.55361566588E+02  0.34988463753E+02  0.17036973269E+04  0.17049556233E+04  0.00000000000E+00 0.  1.
<scales pt_clust_3="67.12443" pt_clust_4="33.82919" pt_clust_5="64.72580" pt_clust_6="14000.00000"></scales>
<clustering>
<clus scale="   33.829">  2  4  1 -1</clus>
<clus scale="   64.726">  2  5  1 -1</clus>
<clus scale="   67.124">  2  3  1 -1</clus>
<clus scale="   33.829">  2  3  1 -1</clus>
</clustering>
</event>
<event>
 6    0  0.6338511E+002  0.1123497E+03  0.7546771E-02  0.1256279E+00
          2   -1    0    0  503    0 -0.00000000000E+00  0.00000000000E+00  0.25442547881E+03  0.25442547881E+03  0.00000000000E+00 0.  1.
         21   -1    0    0  505  502  0.00000000000E+00 -0.00000000000E+00 -0.16323343761E+04  0.16323343761E+04  0.00000000000E+00 0.  1.
         21    1    1    2  503  504  0.46179279835E+02  0.73051015163E+02  0.41203564462E+02  0.95742939305E+02  0.00000000000E+00 0.  1.
         21    1    1    2  504  502 -0.14391307174E+02 -0.34859175651E+02 -0.10266312715E+04  0.10273237267E+04  0.00000000000E+00 0.  1.
         21    1    1    2  505  501 -0.39209889324E+01 -0.81403373919E+02 -0.57157937026E+03  0.57736025145E+03  0.00000000000E+00 0. -1.
          2    1    1    2  501    0 -0.27866983728E+02  0.43211534407E+02  0.17909818002E+03  0.18633293744E+03  0.00000000000E+00 0.  1.
<scales pt_clust_3="112.34971" pt_clust_4="37.71302" pt_clust_5="14000.00000" pt_clust_6="51.28983"></scales>
<clustering>
<clus scale="   37.713">  2  4  1 -1</clus>
<clus scale="   51.290">  1  6  2 -1</clus>
<clus scale="  112.350">  1  3  2 -1</clus>
<clus scale="   37.713">  2  3  1 -1</clus>
</clustering>
</event>
<event>
 6    0  0.6338511E+002  0.6693241E+02  0.7546771E-02  0.1370847E+00
         21   -1    0    0  505  502  0.00000000000E+00  0.00000000000E+00  0.31096622304E+03  0.31096622304E+03  0.00000000000E+00 0.  1.
          2   -1    0    0  503    0 -0.00000000000E+00 -0.00000000000E+00 -0.11766731551E+04  0.11766731551E+04  0.00000000000E+00 0.  1.
         21    1    1    2  503  502 -0.92740831489E+02 -0.52982177580E+02  0.19187901836E+03  0.21960312077E+03  0.00000000000E+00 0.  1.
         21    1    1    2  504  501  0.28379426770E+02  0.66903371310E+02 -0.49087288711E+03  0.49622338141E+03  0.00000000000E+00 0.  1.
         21    1    1    2  505  504  0.32469919887E+02  0.24847082683E+02  0.97489475376E+02  0.10571599228E+03  0.00000000000E+00 0.  1.
          2    1    1    2  501    0  0.31891484833E+02 -0.38768276412E+02 -0.66420253873E+03  0.66609688373E+03  0.00000000000E+00 0.  1.
<scales pt_clust_3="14000.00000" pt_clust_4="66.93241" pt_clust_5="40.88610" pt_clust_6="50.20691"></scales>
<clustering>
<clus scale="   40.886">  1  5  2 -1</clus>
<clus scale="   50.207">  2  6  1 -1</clus>
<clus scale="   66.932">  2  4  1 -1</clus>
<clus scale="   40.886">  1  3  2 -1</clus>
</clustering>
</event>
<event>
 6    0  0.6338511E+002  0.9974763E+02  0.7546771E-02  0.1280828E+00
          2   -1    0    0  504    0 -0.00000000000E+00  0.00000000000E+00  0.23182799648E+04  0.23182799648E+04  0.00000000000E+00 0.  1.
         21   -1    0    0  503  502  0.00000000000E+00 -0.00000000000E+00 -0.58564723735E+03  0.58564723735E+03  0.00000000000E+00 0. -1.
         21    1    1    2  503  505  0.37387750991E+02  0.35349721341E+01 -0.18166090125E+03  0.18550208354E+03  0.00000000000E+00 0. -1.
         21    1    1    2  504  502  0.16215996258E+03  0.74298341828E+01 -0.84150484497E+02  0.18284518025E+03  0.00000000000E+00 0. -1.
         21    1    1    2  505  501 -0.10474816509E+03  0.18517937092E+02 -0.25690009943E+03  0.27805170953E+03  0.00000000000E+00 0. -1.
          2    1    1    2  501    0 -0.94799548479E+02 -0.29482743409E+02  0.22553442126E+04  0.22575282288E+04  0.00000000000E+00 0.  1.
<scales pt_clust_3="37.55449" pt_clust_4="14000.00000" pt_clust_5="82.55716" pt_clust_6="99.74763"></scales>
<clustering>
<clus scale="   37.554">  2  3  1 -1</clus>
<clus scale="   82.557">  2  5  1 -1</clus>
<clus scale="   99.748">  1  6  2 -1</clus>
<clus scale="   37.554">  2  3  1 -1</clus>
</clustering>
</event>
<event>
 6    0  0.6338511E+002  0.1267126E+03  0.7546771E-02  0.1232417E+00
         21   -1    0    0  504  502  0.00000000000E+00  0.00000000000E+00  0.48285679334E+02  0.48285679334E+02  0.00000000000E+00 0.  1.
          1   -1    0    0  503    0 -0.00000000000E+00 -0.00000000000E+00 -0.23823346144E+04  0.23823346144E+04  0.00000000000E+00 0.  1.
         21    1    1    2  503  502  0.17667680624E+03  0.64569123268E+02 -0.60998020351E+03  0.63832571169E+03  0.00000000000E+00 0.  1.
         21    1    1    2  504  505 -0.42307802261E+02 -0.41779400266E+01 -0.37140469190E+01  0.42675513583E+02  0.00000000000E+00 0.  1.
         21    1    1    2  505  501 -0.20116956270E+02 -0.30923796547E+02 -0.14420993745E+02  0.39609824325E+02  0.00000000000E+00 0.  1.
          1    1    1    2  501    0 -0.11425204771E+03 -0.29467386694E+02 -0.17059336909E+04  0.17100092442E+04  0.00000000000E+00 0.  1.
<scales pt_clust_3="14000.00000" pt_clust_4="80.26205" pt_clust_5="33.75463" pt_clust_6="126.71260"></scales>
<clustering>
<clus scale="   33.755">  4  5 -1 -1</clus>
<clus scale="   80.262">  1  4  2 -1</clus>
<clus scale="  126.713">  2  6  1 -1</clus>
<clus scale="   80.262">  1  3  2 -1</clus>
</clustering>
</event>
<event>
 6    0  0.6338511E+002  0.1485314E+03  0.7546771E-02  0.1202289E+00
          1   -1    0    0  505    0 -0.00000000000E+00  0.00000000000E+00  0.17849387329E+04  0.17849387329E+04  0.00000000000E+00 0.  1.
         21   -1    0    0  503  502  0.00000000000E+00 -0.00000000000E+00 -0.60021975684E+03  0.60021975684E+03  0.00000000000E+00 0.  1.
         21    1    1    2  503  501 -0.13487871128E+03  0.37616489655E+02  0.12616486580E+03  0.18848034490E+03  0.00000000000E+00 0.  1.
         21    1    1    2  504  502  0.14541238911E+03  0.37610427631E+02 -0.55774459291E+03  0.57761435067E+03  0.00000000000E+00 0.  1.
         21    1    1    2  505  504 -0.23643231318E+02 -0.25416414294E+02  0.34980466606E+03  0.35152283126E+03  0.00000000000E+00 0.  1.
          1    1    1    2  501    0  0.13109553489E+02 -0.49810502992E+02  0.12664940372E+04  0.12675409630E+04  0.00000000000E+00 0.  1.
<scales pt_clust_3="148.53143" pt_clust_4="14000.00000" pt_clust_5="34.71306" pt_clust_6="72.68022"></scales>
<clustering>
<clus scale="   34.713">  1  5  2 -1</clus>
<clus scale="   72.680">  1  6  2 -1</clus>
<clus scale="  148.531">  1  3  2 -1</clus>
<clus scale="  148.531">  2  3  1 -1</clus>
</clustering>
</event>
<event>
 6    0  0.6338511E+002  0.1252024E+03  0.7546771E-02  0.1234753E+00
         -4   -1    0    0    0  501 -0.00000000000E+00  0.00000000000E+00  0.37161627923E+03  0.37161627923E+03  0.00000000000E+00 0.  1.
         21   -1    0    0  504  502  0.00000000000E+00 -0.00000000000E+00 -0.22233137361E+03  0.22233137361E+03  0.00000000000E+00 0. -1.
         21    1    1    2  503  501  0.16660183913E+03 -0.67195632266E+02  0.14557216600E+02  0.18023134675E+03  0.00000000000E+00 0. -1.
         21    1    1    2  504  503  0.12331555305E+02  0.32652306951E+02 -0.84460325546E+02  0.91388111901E+02  0.00000000000E+00 0. -1.
         21    1    1    2  505  502 -0.63044456030E+02  0.20355379508E+02 -0.81632332768E+01  0.66750155720E+02  0.00000000000E+00 0. -1.
         -4    1    1    2    0  505 -0.11588893841E+03  0.14187945807E+02  0.22735124785E+03  0.25557803847E+03  0.00000000000E+00 0.  1.
<scales pt_clust_3="14000.00000" pt_clust_4="34.90330" pt_clust_5="66.48830" pt_clust_6="125.20239"></scales>
<clustering>
<clus scale="   34.903">  2  4  1 -1</clus>
<clus scale="   66.488">  2  5  1 -1</clus>
<clus scale="  125.202">  1  6  2 -1</clus>
<clus scale="   34.903">  2  3  1 -1</clus>
</clustering>
</event>
<event>
 6    0  0.6338511E+002  0.1077463E+03  0.7546771E-02  0.1264801E+00
         -1   -1    0    0    0  501 -0.00000000000E+00  0.00000000000E+00  0.14661497887E+04  0.14661497887E+04  0.00000000000E+00 0. -1.
         21   -1    0    0  504  502  0.00000000000E+00 -0.00000000000E+00 -0.27013673151E+03  0.27013673151E+03  0.00000000000E+00 0. -1.
         21    1    1    2  503  502  0.54874938227E+02 -0.12796342121E+03 -0.20311214371E+03  0.24625279478E+03  0.00000000000E+00 0. -1.
         21    1    1    2  504  505 -0.56762668856E+02 -0.27612827330E+02  0.50933094758E+02  0.81108870973E+02  0.00000000000E+00 0.  1.
         21    1    1    2  505  501  0.57574691621E+02  0.63680829711E+02  0.37243078413E+02  0.93579592207E+02  0.00000000000E+00 0. -1.
         -1    1    1    2    0  503 -0.55686960992E+02  0.91895418834E+02  0.13109490277E+04  0.13153452622E+04  0.00000000000E+00 0. -1.
<scales pt_clust_3="14000.00000" pt_clust_4="63.12265" pt_clust_5="79.42553" pt_clust_6="107.74635"></scales>
<clustering>
<clus scale="   63.123">  2  4  1 -1</clus>
<clus scale="   79.426">  2  5  1 -1</clus>
<clus scale="  107.746">  1  6  2 -1</clus>
<clus scale="   63.123">  2  3  1 -1</clus>
</clustering>
</event>
<event>
 6    0  0.6338511E+002  0.1066476E+03  0.7546771E-02  0.1266907E+00
         21   -1    0    0  505  502  0.00000000000E+00  0.00000000000E+00  0.70021471002E+03  0.70021471002E+03  0.00000000000E+00 0.  1.
          2   -1    0    0  503    0 -0.00000000000E+00 -0.00000000000E+00 -0.93495882207E+03  0.93495882207E+03  0.00000000000E+00 0.  1.
         21    1    1    2  503  502  0.34092030189E+01 -0.44644822107E+02  0.55954031730E+03  0.56132891382E+03  0.00000000000E+00 0.  1.
         21    1    1    2  504  501  0.36752680159E+02 -0.77105046146E+01 -0.18199974753E+03  0.18583358007E+03  0.00000000000E+00 0.  1.
         21    1    1    2  505  504 -0.96846460916E+02  0.68268961479E+02  0.11098432936E+03  0.16234965185E+03  0.00000000000E+00 0.  1.
          2    1    1    2  501    0  0.56684577738E+02 -0.15913634757E+02 -0.72326901117E+03  0.72566138635E+03  0.00000000000E+00 0.  1.
<scales pt_clust_3="44.77480" pt_clust_4="35.92047" pt_clust_5="96.69945" pt_clust_6="35.92047"></scales>
<clustering>
<clus scale="   35.920">  4  6 -1 -1</clus>
<clus scale="   44.775">  1  3  2 -1</clus>
<clus scale="   96.699">  1  5  2 -1</clus>
<clus scale="   44.775">  1  3  2 -1</clus>
</clustering>
</event>
<event>
 6    0  0.6338511E+002  0.1202007E+03  0.7546771E-02  0.1242766E+00
         21   -1    0    0  501  502  0.00000000000E+00  0.00000000000E+00  0.40532989484E+02  0.40532989484E+02  0.00000000000E+00 0. -1.
         -1   -1    0    0    0  501 -0.00000000000E+00 -0.00000000000E+00 -0.18484178997E+04  0.18484178997E+04  0.00000000000E+00 0. -1.
         21    1    1    2  503  505  0.13690954757E+03 -0.60534590202E+02 -0.76813873302E+03  0.78258914763E+03  0.00000000000E+00 0. -1.
         21    1    1    2  504  502  0.28383778005E+02  0.44546630557E+02 -0.10110150974E+02  0.53779701567E+02  0.00000000000E+00 0. -1.
         21    1    1    2  505  504 -0.12301706387E+03 -0.13355380552E+02 -0.35427200761E+03  0.37526020248E+03  0.00000000000E+00 0. -1.
         -1    1    1    2    0  503 -0.42276261708E+02  0.29343340196E+02 -0.67536401864E+03  0.67732183753E+03  0.00000000000E+00 0. -1.
<scales pt_clust_3="120.20070" pt_clust_4="52.89472" pt_clust_5="14000.00000" pt_clust_6="51.46177"></scales>
<clustering>
<clus scale="   51.462">  2  6  1 -1</clus>
<clus scale="   52.895">  1  4  2 -1</clus>
<clus scale="  120.201">  2  3  1 -1</clus>
<clus scale="   52.895">  1  3  2 -1</clus>
</clustering>
</event>
<event>
 6    0  0.6338511E+002  0.1047293E+03  0.7546771E-02  0.1270654E+00
         21   -1    0    0  504  502  0.00000000000E+00  0.00000000000E+00  0.14444363675E+04  0.14444363675E+04  0.00000000000E+00 0.  1.
         -4   -1    0    0    0  501 -0.00000000000E+00 -0.00000000000E+00 -0.12385681371E+04  0.12385681371E+04  0.00000000000E+00 0.  1.
         21    1    1    2  503  501 -0.15838624071E+03  0.10485996654E+02  0.62985505749E+03  0.64954872859E+03  0.00000000000E+00 0.  1.
         21    1    1    2  504  505  0.33123647788E+02  0.44446868397E+00  0.53488300402E+03  0.53590782938E+03  0.00000000000E+00 0.  1.
         21    1    1    2  505  503  0.69305448140E+02 -0.43731129176E+01  0.26420366822E+03  0.27317750193E+03  0.00000000000E+00 0.  1.
         -4    1    1    2    0  502  0.55957144784E+02 -0.65573524207E+01 -0.12230734994E+04  0.12243704447E+04  0.00000000000E+00 0.  1.
<scales pt_clust_3="104.72927" pt_clust_4="33.12663" pt_clust_5="14000.00000" pt_clust_6="56.36348"></scales>
<clustering>
<clus scale="   33.127">  1  4  2 -1</clus>
<clus scale="   56.363">  2  6  1 -1</clus>
<clus scale="  104.729">  2  3  1 -1</clus>
<clus scale="   33.127">  1  3  2 -1</clus>
</clustering>
</event>
<event>
 6    0  0.7347153E+002  0.9305265E+02  0.7546771E-02  0.1295623E+00
         21   -1    0    0  503  502  0.00000000000E+00  0.00000000000E+00  0.27761620965E+03  0.27761620965E+03  0.00000000000E+00 0.  1.
          1   -1    0    0  504    0 -0.00000000000E+00 -0.00000000000E+00 -0.16206542235E+04  0.16206542235E+04  0.00000000000E+00 0.  1.
         21    1    1    2  503  501 -0.24245018888E+02  0.12425054150E+03  0.24737949657E+03  0.27788960637E+03  0.00000000000E+00 0.  1.
         21    1    1    2  504  505  0.55634857877E+02 -0.11581058393E+02 -0.17610896356E+03  0.18505060219E+03  0.00000000000E+00 0. -1.
         21    1    1    2  505  502 -0.13911323171E+02 -0.38704915511E+02 -0.35218028940E+02  0.54147067875E+02  0.00000000000E+00 0. -1.
          1    1    1    2  501    0 -0.17478515817E+02 -0.73964567596E+02 -0.13790905179E+04  0.13811831567E+04  0.00000000000E+00 0.  1.
<scales pt_clust_3="14000.00000" pt_clust_4="56.73595" pt_clust_5="41.12901" pt_clust_6="93.05265"></scales>
<clustering>
<clus scale="   41.129">  1  5  2 -1</clus>
<clus scale="   56.736">  2  4  1 -1</clus>
<clus scale="   93.053">  2  6  1 -1</clus>
<clus scale="   41.129">  1  3  2 -1</clus>
</clustering>
</event>
<event>
 6    0  0.6338511E+002  0.9211428E+02  0.7546771E-02  0.1297811E+00
         21   -1    0    0  501  502  0.00000000000E+00  0.00000000000E+00  0.55708377565E+03  0.55708377565E+03  0.00000000000E+00 0.  1.
          2   -1    0    0  505    0 -0.00000000000E+00 -0.00000000000E+00 -0.39434561196E+02  0.39434561196E+02  0.00000000000E+00 0.  1.
         21    1    1    2  503  502  0.67370482701E+01 -0.61480991585E+02  0.16969682457E+03  0.18061647880E+03  0.00000000000E+00 0.  1.
         21    1    1    2  504  503 -0.96594200767E+02  0.16285534210E+02  0.13290344011E+03  0.16510294558E+03  0.00000000000E+00 0.  1.
         21    1    1    2  505  504  0.33816656587E+01  0.35576163702E+02  0.31361114096E+02  0.47545962643E+02  0.00000000000E+00 0.  1.
          2    1    1    2  501    0  0.86475486838E+02  0.96192936736E+01  0.18368783568E+03  0.20325294982E+03  0.00000000000E+00 0.  1.
<scales pt_clust_3="55.76691" pt_clust_4="92.11428" pt_clust_5="35.73652" pt_clust_6="14000.00000"></scales>
<clustering>
<clus scale="   35.737">  2  5  1 -1</clus>
<clus scale="   55.767">  1  3  2 -1</clus>
<clus scale="   92.114">  2  4  1 -1</clus>
<clus scale="   55.767">  1  3  2 -1</clus>
</clustering>
</event>
<event>
 6    0  0.6338511E+002  0.9292445E+02  0.7546771E-02  0.1295920E+00
         -2   -1    0    0    0  501 -0.00000000000E+00  0.00000000000E+00  0.28148900450E+02  0.28148900450E+02  0.00000000000E+00 0. -1.
         21   -1    0    0  503  502  0.00000000000E+00 -0.00000000000E+00 -0.23429354218E+04  0.23429354218E+04  0.00000000000E+00 0.  1.
         21    1    1    2  503  505 -0.57592837436E+02  0.83554712784E+02 -0.15242061508E+04  0.15275806738E+04  0.00000000000E+00 0.  1.
         21    1    1    2  504  501 -0.31327544487E+02  0.13906806050E+02 -0.91081181913E+02  0.97316987196E+02  0.00000000000E+00 0. -1.
         21    1    1    2  505  504  0.62170288542E+02 -0.53812793776E+02 -0.68904866500E+03  0.69393733456E+03  0.00000000000E+00 0. -1.
         -2    1    1    2    0  502  0.26750093381E+02 -0.43648725057E+02 -0.10450523671E+02  0.52249326695E+02  0.00000000000E+00 0. -1.
<scales pt_clust_3="14000.00000" pt_clust_4="34.27556" pt_clust_5="92.92445" pt_clust_6="32.04286"></scales>
<clustering>
<clus scale="   34.276">  1  4  2 -1</clus>
<clus scale="   32.043">  1  6  2 -1</clus>
<clus scale="   92.924">  1  5  2 -1</clus>
<clus scale="   92.924">  2  3  1 -1</clus>
</clustering>
</event>
<event>
 6    0  0.6338511E+002  0.1023483E+03  0.7546771E-02  0.1275434E+00
         21   -1    0    0  505  502  0.00000000000E+00  0.00000000000E+00  0.31492763431E+03  0.31492763431E+03  0.00000000000E+00 0. -1.
          2   -1    0    0  502    0 -0.00000000000E+00 -0.00000000000E+00 -0.19531743661E+04  0.19531743661E+04  0.00000000000E+00 0.  1.
         21    1    1    2  503  504  0.87063160664E+02  0.30710033232E+02  0.77608040293E+02  0.12060724690E+03  0.00000000000E+00 0. -1.
         21    1    1    2  504  501 -0.11022700718E+03  0.81540257998E+02 -0.57296697703E+03  0.58914341510E+03  0.00000000000E+00 0.  1.
         21    1    1    2  505  503  0.91707404400E+01 -0.67074755430E+02  0.20178933208E+03  0.21284280546E+03  0.00000000000E+00 0. -1.
          2    1    1    2  501    0  0.13993106074E+02 -0.45175535800E+02 -0.13446771271E+04  0.13455085330E+04  0.00000000000E+00 0.  1.
<scales pt_clust_3="14000.00000" pt_clust_4="102.34833" pt_clust_5="68.12286" pt_clust_6="47.29309"></scales>
<clustering>
<clus scale="   47.293">  2  6  1 -1</clus>
<clus scale="   68.123">  1  5  2 -1</clus>
<clus scale="  102.348">  2  4  1 -1</clus>
<clus scale="   68.123">  1  3  2 -1</clus>
</clustering>
</event>
<event>
 6    0  0.6338511E+002  0.7407959E+02  0.7546771E-02  0.1346745E+00
         21   -1    0    0  504  502  0.00000000000E+00  0.00000000000E+00  0.53840414181E+03  0.53840414181E+03  0.00000000000E+00 0.  1.
         -1   -1    0    0    0  501 -0.00000000000E+00 -0.00000000000E+00 -0.28683203660E+03  0.28683203660E+03  0.00000000000E+00 0. -1.
         21    1    1    2  503  502  0.48054527927E+02  0.15761479992E+02  0.83756442104E+02  0.97840704718E+02  0.00000000000E+00 0.  1.
         21    1    1    2  504  501  0.46097525160E+02  0.87498544753E+01 -0.30936430457E+02  0.56201463581E+02  0.00000000000E+00 0.  1.
         21    1    1    2  505  503 -0.12686421636E+03 -0.21037736212E+02  0.42424879808E+03  0.44331045376E+03  0.00000000000E+00 0.  1.
         -1    1    1    2    0  505  0.32712163274E+02 -0.34735982554E+01 -0.22549670451E+03  0.22788355636E+03  0.00000000000E+00 0. -1.
<scales pt_clust_3="54.10921" pt_clust_4="14000.00000" pt_clust_5="74.07959" pt_clust_6="32.89607"></scales>
<clustering>
<clus scale="   32.896">  2  6  1 -1</clus>
<clus scale="   54.109">  1  3  2 -1</clus>
<clus scale="   74.080">  1  5  2 -1</clus>
<clus scale="   54.109">  1  3  2 -1</clus>
</clustering>
</event>
<event>
 6    0  0.6338511E+002  0.3503380E+03  0.7546771E-02  0.1062476E+00
         21   -1    0    0  503  502  0.00000000000E+00  0.00000000000E+00  0.18963908431E+04  0.18963908431E+04  0.00000000000E+00 0. -1.
         -3   -1    0    0    0  501 -0.00000000000E+00 -0.00000000000E+00 -0.20556058088E+03  0.20556058088E+03  0.00000000000E+00 0. -1.
         21    1    1    2  503  505 -0.33304961431E+03 -0.14123771196E+03  0.10704126050E+04  0.11298908274E+04  0.00000000000E+00 0. -1.
         21    1    1    2  504  502  0.71162690224E+02 -0.10566924901E+03  0.20795197775E+03  0.24387321238E+03  0.00000000000E+00 0. -1.
         21    1    1    2  505  501  0.19571578505E+03  0.31804845163E+03  0.48124817995E+03  0.60914636731E+03  0.00000000000E+00 0. -1.
         -3    1    1    2    0  504  0.66171139035E+02 -0.71141490656E+02 -0.68782500483E+02  0.11904101691E+03  0.00000000000E+00 0. -1.
<scales pt_clust_3="14000.00000" pt_clust_4="142.85674" pt_clust_5="350.33800" pt_clust_6="97.15828"></scales>
<clustering>
<clus scale="   97.158">  2  6  1 -1</clus>
<clus scale="  142.857">  2  4  1 -1</clus>
<clus scale="  350.338">  2  5  1 -1</clus>
<clus scale="  350.338">  1  3  2 -1</clus>
</clustering>
</event>
<event>
 6    0  0.6338511E+002  0.1888044E+03  0.7546771E-02  0.1159544E+00
         21   -1    0    0  503  502  0.00000000000E+00  0.00000000000E+00  0.87158983131E+03  0.87158983131E+03  0.00000000000E+00 0. -1.
         -1   -1    0    0    0  501 -0.00000000000E+00 -0.00000000000E+00 -0.88538343618E+03  0.88538343618E+03  0.00000000000E+00 0. -1.
         21    1    1    2  503  501  0.47870967583E+01 -0.18563620353E+03  0.76476397797E+03  0.78698644102E+03  0.00000000000E+00 0. -1.
         21    1    1    2  504  505  0.32630625448E+02  0.21885640827E+02 -0.19289931265E+03  0.19686006150E+03  0.00000000000E+00 0. -1.
         21    1    1    2  505  502 -0.37930975106E+02  0.14457532559E+02  0.80654422405E+02  0.90293493529E+02  0.00000000000E+00 0.  1.
         -1    1    1    2    0  504  0.51325289977E+00  0.14929303014E+03 -0.66631269260E+03  0.68283327144E+03  0.00000000000E+00 0. -1.
<scales pt_clust_3="174.44959" pt_clust_4="37.04470" pt_clust_5="40.59285" pt_clust_6="37.04470"></scales>
<clustering>
<clus scale="   37.045">  4  6 -1 -1</clus>
<clus scale="   40.593">  1  5  2 -1</clus>
<clus scale="  174.450">  1  3  2 -1</clus>
<clus scale="   40.593">  1  3  2 -1</clus>
</clustering>
</event>
<event>
 6    0  0.6438560E+002  0.8013247E+02  0.7546771E-02  0.1328676E+00
         21   -1    0    0  503  502  0.00000000000E+00  0.00000000000E+00  0.95089509301E+03  0.95089509301E+03  0.00000000000E+00 0. -1.
          1   -1    0    0  504    0 -0.00000000000E+00 -0.00000000000E+00 -0.75751014164E+03  0.75751014164E+03  0.00000000000E+00 0.  1.
         21    1    1    2  503  501  0.99569029317E+02  0.56969358175E+02 -0.56211214318E+02  0.12774662416E+03  0.00000000000E+00 0. -1.
         21    1    1    2  504  505 -0.61335363463E+02  0.11485064677E+02  0.27135578487E+03  0.27843831543E+03  0.00000000000E+00 0. -1.
         21    1    1    2  505  502 -0.15663755736E+02 -0.35657461818E+02  0.63903836701E+03  0.64022405635E+03  0.00000000000E+00 0. -1.
          1    1    1    2  501    0 -0.22569910118E+02 -0.32796961034E+02 -0.66079798618E+03  0.66199623869E+03  0.00000000000E+00 0.  1.
<scales pt_clust_3="14000.00000" pt_clust_4="80.13247" pt_clust_5="38.94622" pt_clust_6="39.88621"></scales>
<clustering>
<clus scale="   38.946">  1  5  2 -1</clus>
<clus scale="   39.886">  2  6  1 -1</clus>
<clus scale="   80.132">  1  4  2 -1</clus>
<clus scale="   38.946">  1  3  2 -1</clus>
</clustering>
</event>
<event>
 6    0  0.6338511E+002  0.1436047E+03  0.7546771E-02  0.1208559E+00
          2   -1    0    0  503    0 -0.00000000000E+00  0.00000000000E+00  0.49456870701E+03  0.49456870701E+03  0.00000000000E+00 0.  1.
         21   -1    0    0  505  502  0.00000000000E+00 -0.00000000000E+00 -0.20631799191E+03  0.20631799191E+03  0.00000000000E+00 0.  1.
         21    1    1    2  503  502 -0.37716899771E+02 -0.11482566581E+01  0.58469306017E+00  0.37738904166E+02  0.00000000000E+00 0.  1.
         21    1    1    2  504  501  0.64569266191E+02  0.41670045923E+02  0.18083393399E+03  0.19648535454E+03  0.00000000000E+00 0.  1.
         21    1    1    2  505  504 -0.89173740015E+02 -0.51961728680E+02 -0.16110837865E+03  0.19133187614E+03  0.00000000000E+00 0.  1.
          2    1    1    2  501    0  0.62321373595E+02  0.11439939415E+02  0.26794046670E+03  0.27533056408E+03  0.00000000000E+00 0.  1.
<scales pt_clust_3="37.73437" pt_clust_4="43.58181" pt_clust_5="135.39721" pt_clust_6="43.58181"></scales>
<clustering>
<clus scale="   37.734">  2  3  1 -1</clus>
<clus scale="   43.582">  4  6 -1 -1</clus>
<clus scale="  135.397">  2  5  1 -1</clus>
<clus scale="   37.734">  2  3  1 -1</clus>
</clustering>
</event>
<event>
 6    0  0.6338511E+002  0.1272351E+03  0.7546771E-02  0.1231617E+00
          2   -1    0    0  504    0 -0.00000000000E+00  0.00000000000E+00  0.15390844160E+04  0.15390844160E+04  0.00000000000E+00 0.  1.
         21   -1    0    0  503  502  0.00000000000E+00 -0.00000000000E+00 -0.21101223386E+03  0.21101223386E+03  0.00000000000E+00 0. -1.
         21    1    1    2  503  505  0.34762871942E+02 -0.35775339127E+02 -0.68615718175E+02  0.84831886316E+02  0.00000000000E+00 0. -1.
         21    1    1    2  504  502  0.23709961778E+02  0.13722108025E+03 -0.64481543190E+02  0.15345897356E+03  0.00000000000E+00 0. -1.
         21    1    1    2  505  501 -0.91608590704E+02 -0.15670008466E+03  0.31294851533E+03  0.36177869432E+03  0.00000000000E+00 0. -1.
          2    1    1    2  501    0  0.33135756985E+02  0.55254343530E+02  0.11482209281E+04  0.11500270956E+04  0.00000000000E+00 0.  1.
<scales pt_clust_3="49.88319" pt_clust_4="127.23511" pt_clust_5="14000.00000" pt_clust_6="64.34314"></scales>
<clustering>
<clus scale="   49.883">  2  3  1 -1</clus>
<clus scale="   64.343">  1  6  2 -1</clus>
<clus scale="  127.235">  2  4  1 -1</clus>
<clus scale="   49.883">  2  3  1 -1</clus>
</clustering>
</event>
<event>
 6    0  0.6338511E+002  0.9087295E+02  0.7546771E-02  0.1300751E+00
         -2   -1    0    0    0  501 -0.00000000000E+00  0.00000000000E+00  0.83699225084E+03  0.83699225084E+03  0.00000000000E+00 0.  1.
         21   -1    0    0  503  502  0.00000000000E+00 -0.00000000000E+00 -0.28710340457E+03  0.28710340457E+03  0.00000000000E+00 0.  1.
         21    1    1    2  503  501 -0.96533913404E+02  0.87327707591E+02  0.11403290749E+03  0.17305614389E+03  0.00000000000E+00 0.  1.
         21    1    1    2  504  505  0.50876534477E+02 -0.37587897958E+02  0.68936778507E+02  0.93560415049E+02  0.00000000000E+00 0.  1.
         21    1    1    2  505  502  0.12109871148E+02 -0.30934028985E+02 -0.24354726425E+03  0.24580242687E+03  0.00000000000E+00 0.  1.
         -2    1    1    2    0  504  0.33547507780E+02 -0.18805780648E+02  0.61046642452E+03  0.61167666960E+03  0.00000000000E+00 0.  1.
<scales pt_clust_3="14000.00000" pt_clust_4="90.87295" pt_clust_5="33.21992" pt_clust_6="38.82652"></scales>
<clustering>
<clus scale="   33.220">  2  5  1 -1</clus>
<clus scale="   38.827">  1  6  2 -1</clus>
<clus scale="   90.873">  1  4  2 -1</clus>
<clus scale="   33.220">  2  3  1 -1</clus>
</clustering>
</event>
<event>
 6    0  0.6338511E+002  0.1008717E+03  0.7546771E-02  0.1278473E+00
         21   -1    0    0  505  502  0.00000000000E+00  0.00000000000E+00  0.30165050509E+03  0.30165050509E+03  0.00000000000E+00 0.  1.
          2   -1    0    0  503    0 -0.00000000000E+00 -0.00000000000E+00 -0.48322372849E+03  0.48322372849E+03  0.00000000000E+00 0.  1.
         21    1    1    2  503  504 -0.86789843643E+02  0.31691959515E+02 -0.28509898189E+03  0.29969699153E+03  0.00000000000E+00 0.  1.
         21    1    1    2  504  502  0.17580062259E+02 -0.37141891005E+02  0.59881717615E+02  0.72625056013E+02  0.00000000000E+00 0.  1.
         21    1    1    2  505  501 -0.65697083375E+02  0.10798980249E+02  0.19716846353E+03  0.20810604928E+03  0.00000000000E+00 0.  1.
          2    1    1    2  501    0  0.13490686476E+03 -0.53490487593E+01 -0.15352442265E+03  0.20444613675E+03  0.00000000000E+00 0.  1.
<scales pt_clust_3="100.87172" pt_clust_4="41.09232" pt_clust_5="54.81801" pt_clust_6="14000.00000"></scales>
<clustering>
<clus scale="   41.092">  1  4  2 -1</clus>
<clus scale="   54.818">  1  5  2 -1</clus>
<clus scale="  100.872">  2  3  1 -1</clus>
<clus scale="   41.092">  1  3  2 -1</clus>
</clustering>
</event>
<event>
 6    0  0.6338511E+002  0.1164742E+03  0.7546771E-02  0.1249030E+00
         21   -1    0    0  504  502  0.00000000000E+00  0.00000000000E+00  0.80105647345E+03  0.80105647345E+03  0.00000000000E+00 0. -1.
          2   -1    0    0  505    0 -0.00000000000E+00 -0.00000000000E+00 -0.84015665581E+03  0.84015665581E+03  0.00000000000E+00 0.  1.
         21    1    1    2  503  501  0.63924434733E+02 -0.46107615973E+02 -0.39368613776E+03  0.40149846908E+03  0.00000000000E+00 0.  1.
         21    1    1    2  504  503  0.27398817644E+02 -0.20751045870E+02 -0.63093810480E+02  0.71847964716E+02  0.00000000000E+00 0. -1.
         21    1    1    2  505  502 -0.51246403049E+02  0.91343928993E+02  0.78782359942E+03  0.79475526484E+03  0.00000000000E+00 0. -1.
          2    1    1    2  501    0 -0.40076849328E+02 -0.24485267149E+02 -0.37014383353E+03  0.37311143063E+03  0.00000000000E+00 0.  1.
<scales pt_clust_3="33.66460" pt_clust_4="33.66460" pt_clust_5="104.72499" pt_clust_6="46.96469"></scales>
<clustering>
<clus scale="   33.665">  3  4 -1 -1</clus>
<clus scale="   46.965">  2  6  1 -1</clus>
<clus scale="  104.725">  1  5  2 -1</clus>
<clus scale="  104.725">  1  3  2 -1</clus>
</clustering>
</event>
<event>
 6    0  0.6338511E+002  0.7905927E+02  0.7546771E-02  0.1331742E+00
         21   -1    0    0  504  502  0.00000000000E+00  0.00000000000E+00  0.52015345706E+03  0.52015345706E+03  0.00000000000E+00 0. -1.
          1   -1    0    0  503    0 -0.00000000000E+00 -0.00000000000E+00 -0.20045315618E+04  0.20045315618E+04  0.00000000000E+00 0. -1.
         21    1    1    2  503  502  0.38581743920E+02 -0.25619452572E+02  0.40806756625E+02  0.61725996956E+02  0.00000000000E+00 0. -1.
         21    1    1    2  504  505  0.29007789810E+02  0.61179756342E+02  0.44171238325E+03  0.44687161911E+03  0.00000000000E+00 0. -1.
         21    1    1    2  505  501 -0.10995512565E+03 -0.43962200999E+02 -0.11967212862E+03  0.16835742674E+03  0.00000000000E+00 0.  1.
          1    1    1    2  501    0  0.42365591915E+02  0.84018972289E+01 -0.18472251160E+04  0.18477299760E+04  0.00000000000E+00 0. -1.
<scales pt_clust_3="48.39656" pt_clust_4="14000.00000" pt_clust_5="79.05927" pt_clust_6="43.19068"></scales>
<clustering>
<clus scale="   43.191">  2  6  1 -1</clus>
<clus scale="   48.397">  1  3  2 -1</clus>
<clus scale="   79.059">  2  5  1 -1</clus>
<clus scale="   48.397">  1  3  2 -1</clus>
</clustering>
</event>
<event>
 6    0  0.6338511E+002  0.9108618E+02  0.7546771E-02  0.1300242E+00
         21   -1    0    0  505  502  0.00000000000E+00  0.00000000000E+00  0.13195126523E+04  0.13195126523E+04  0.00000000000E+00 0.  1.
         -3   -1    0    0    0  501 -0.00000000000E+00 -0.00000000000E+00 -0.10524744874E+03  0.10524744874E+03  0.00000000000E+00 0. -1.
         21    1    1    2  503  501 -0.31002316797E+02 -0.76978956461E+02  0.15710651257E+03  0.17767768480E+03  0.00000000000E+00 0.  1.
         21    1    1    2  504  502  0.77905132188E+02 -0.33496482667E+02  0.10200660012E+03  0.13265206535E+03  0.00000000000E+00 0.  1.
         21    1    1    2  505  503  0.28789981976E+02  0.56569471396E+02  0.10063392003E+04  0.10083390076E+04  0.00000000000E+00 0.  1.
         -3    1    1    2    0  504 -0.75692797367E+02  0.53905967731E+02 -0.51187109506E+02  0.10609134324E+03  0.00000000000E+00 0. -1.
<scales pt_clust_3="49.17386" pt_clust_4="14000.00000" pt_clust_5="63.47415" pt_clust_6="91.08618"></scales>
<clustering>
<clus scale="   63.474">  1  5  2 -1</clus>
<clus scale="   49.174">  1  3  2 -1</clus>
<clus scale="   91.086">  2  6  1 -1</clus>
<clus scale="   63.474">  1  3  2 -1</clus>
</clustering>
</event>
<event>
 6    0  0.6338511E+002  0.9354452E+02  0.7546771E-02  0.1294488E+00
         -2   -1    0    0    0  501 -0.00000000000E+00  0.00000000000E+00  0.17601684909E+03  0.17601684909E+03  0.00000000000E+00 0.  1.
         21   -1    0    0  505  502  0.00000000000E+00 -0.00000000000E+00 -0.76036366278E+03  0.76036366278E+03  0.00000000000E+00 0.  1.
         21    1    1    2  503  501 -0.79947996500E+02  0.34883454614E+02 -0.69335336370E+02  0.11142677604E+03  0.00000000000E+00 0. -1.
         21    1    1    2  504  503  0.10944057615E+03  0.16800730419E+02 -0.27912692493E+02  0.11418678843E+03  0.00000000000E+00 0. -1.
         21    1    1    2  505  504 -0.92012717678E+02  0.75061292091E+01 -0.57813992840E+03  0.58546431062E+03  0.00000000000E+00 0.  1.
         -2    1    1    2    0  502  0.62520138030E+02 -0.59190314243E+02  0.91041143578E+02  0.12530263678E+03  0.00000000000E+00 0.  1.
<scales pt_clust_3="62.76770" pt_clust_4="14000.00000" pt_clust_5="93.54452" pt_clust_6="86.09449"></scales>
<clustering>
<clus scale="   86.094">  1  6  2 -1</clus>
<clus scale="   62.768">  1  3  2 -1</clus>
<clus scale="   93.545">  2  5  1 -1</clus>
<clus scale="   93.545">  2  3  1 -1</clus>
</clustering>
</event>
<event>
 6    0  0.6338511E+002  0.1176736E+03  0.7546771E-02  0.1246985E+00
         21   -1    0    0  504  502  0.00000000000E+00  0.00000000000E+00  0.18343965317E+04  0.18343965317E+04  0.00000000000E+00 0. -1.
         -3   -1    0    0    0  501 -0.00000000000E+00 -0.00000000000E+00 -0.34321411042E+02  0.34321411042E+02  0.00000000000E+00 0.  1.
         21    1    1    2  503  501  0.81766758954E+02 -0.51004890217E+02  0.11794866889E+03  0.15231280376E+03  0.00000000000E+00 0. -1.
         21    1    1    2  504  503 -0.13511563941E+03 -0.47944028135E+02  0.10984692190E+04  0.11077858506E+04  0.00000000000E+00 0. -1.
         21    1    1    2  505  502  0.31484597861E+02 -0.21163328178E+02  0.25904240596E+03  0.26180552792E+03  0.00000000000E+00 0. -1.
         -3    1    1    2    0  505  0.21864282594E+02  0.12011224653E+03  0.32461482682E+03  0.34681376041E+03  0.00000000000E+00 0.  1.
<scales pt_clust_3="99.62578" pt_clust_4="117.67360" pt_clust_5="37.93635" pt_clust_6="14000.00000"></scales>
<clustering>
<clus scale="   37.936">  1  5  2 -1</clus>
<clus scale="   99.626">  2  3  1 -1</clus>
<clus scale="  117.674">  1  4  2 -1</clus>
<clus scale="   37.936">  1  3  2 -1</clus>
</clustering>
</event>
<event>
 6    0  0.6338511E+002  0.1068769E+03  0.7546771E-02  0.1266465E+00
         21   -1    0    0  504  502  0.00000000000E+00  0.00000000000E+00  0.99516759484E+03  0.99516759484E+03  0.00000000000E+00 0.  1.
          1   -1    0    0  505    0 -0.00000000000E+00 -0.00000000000E+00 -0.14852919060E+04  0.14852919060E+04  0.00000000000E+00 0. -1.
         21    1    1    2  503  501  0.87766677456E+02 -0.41778374205E+02 -0.53290178246E+02  0.11085244842E+03  0.00000000000E+00 0. -1.
         21    1    1    2  504  503  0.29656961374E+02 -0.34029674639E+02  0.45874231571E+03  0.46095777067E+03  0.00000000000E+00 0.  1.
         21    1    1    2  505  502 -0.39273447732E+02  0.14067234155E+01  0.50369394164E+03  0.50522467222E+03  0.00000000000E+00 0.  1.
          1    1    1    2  501    0 -0.78150191099E+02  0.74401325429E+02 -0.13992703903E+04  0.14034246096E+04  0.00000000000E+00 0. -1.
<scales pt_clust_3="106.87689" pt_clust_4="33.48302" pt_clust_5="39.29863" pt_clust_6="14000.00000"></scales>
<clustering>
<clus scale="   39.299">  1  5  2 -1</clus>
<clus scale="   33.483">  1  4  2 -1</clus>
<clus scale="  106.877">  1  3  2 -1</clus>
<clus scale="   39.299">  1  3  2 -1</clus>
</clustering>
</event>
<event>
 6    0  0.6338511E+002  0.8732340E+02  0.7546771E-02  0.1309466E+00
          1   -1    0    0  504    0 -0.00000000000E+00  0.00000000000E+00  0.12386941668E+04  0.12386941668E+04  0.00000000000E+00 0.  1.
         21   -1    0    0  505  502  0.00000000000E+00 -0.00000000000E+00 -0.23314351596E+03  0.23314351596E+03  0.00000000000E+00 0. -1.
         21    1    1    2  503  502  0.43470043284E+02 -0.75426808515E+02 -0.19492572491E+03  0.21348275419E+03  0.00000000000E+00 0. -1.
         21    1    1    2  504  503  0.17893661404E+02 -0.58744519213E+02  0.87243562967E+02  0.10668899163E+03  0.00000000000E+00 0. -1.
         21    1    1    2  505  501 -0.14204255591E+02  0.96332983585E+02  0.11118992013E+03  0.14780055122E+03  0.00000000000E+00 0.  1.
          1    1    1    2  501    0 -0.47159449097E+02  0.37838344143E+02  0.10020428927E+04  0.10038653857E+04  0.00000000000E+00 0.  1.
<scales pt_clust_3="87.32340" pt_clust_4="43.20678" pt_clust_5="14000.00000" pt_clust_6="60.46283"></scales>
<clustering>
<clus scale="   60.463">  1  6  2 -1</clus>
<clus scale="   43.207">  1  4  2 -1</clus>
<clus scale="   87.323">  2  3  1 -1</clus>
<clus scale="   87.323">  2  3  1 -1</clus>
</clustering>
</event>
<event>
 6    0  0.6338511E+002  0.9414205E+02  0.7546771E-02  0.1293120E+00
         21   -1    0    0  503  502  0.00000000000E+00  0.00000000000E+00  0.16114936818E+03  0.16114936818E+03  0.00000000000E+00 0.  1.
          2   -1    0    0  505    0 -0.00000000000E+00 -0.00000000000E+00 -0.55394104287E+03  0.55394104287E+03  0.00000000000E+00 0.  1.
         21    1    1    2  503  504 -0.11263430462E+02 -0.79877077027E+02  0.78928964484E+02  0.11285829050E+03  0.00000000000E+00 0.  1.
         21    1    1    2  504  501 -0.64863177218E+02  0.34429081973E+02 -0.69873376013E+02  0.10136509320E+03  0.00000000000E+00 0.  1.
         21    1    1    2  505  502 -0.28240131317E+02  0.51843062157E+02  0.22987862686E+02  0.63353373560E+02  0.00000000000E+00 0.  1.
          2    1    1    2  501    0  0.10436673900E+03 -0.63950671027E+01 -0.42483512585E+03  0.43751365379E+03  0.00000000000E+00 0.  1.
<scales pt_clust_3="50.94144" pt_clust_4="94.14205" pt_clust_5="59.03565" pt_clust_6="14000.00000"></scales>
<clustering>
<clus scale="   59.036">  1  5  2 -1</clus>
<clus scale="   50.941">  1  3  2 -1</clus>
<clus scale="   94.142">  1  4  2 -1</clus>
<clus scale="   59.036">  1  3  2 -1</clus>
</clustering>
</event>
<event>
 6    0  0.6338511E+002  0.1831879E+03  0.7546771E-02  0.1164753E+00
          2   -1    0    0  505    0 -0.00000000000E+00  0.00000000000E+00  0.15567485586E+04  0.15567485586E+04  0.00000000000E+00 0.  1.
         21   -1    0    0  503  502  0.00000000000E+00 -0.00000000000E+00 -0.15172419191E+03  0.15172419191E+03  0.00000000000E+00 0. -1.
         21    1    1    2  503  501  0.17535209104E+03  0.18679655753E+03  0.22102557165E+03  0.33836904861E+03  0.00000000000E+00 0. -1.
         21    1    1    2  504  502 -0.12691986837E+03 -0.96916160712E+02  0.24257918155E+02  0.16152350227E+03  0.00000000000E+00 0. -1.
         21    1    1    2  505  504 -0.27664180541E+02 -0.11295869771E+03  0.11559588409E+03  0.16397372562E+03  0.00000000000E+00 0.  1.
          2    1    1    2  501    0 -0.20768042127E+02  0.23078300898E+02  0.10441449928E+04  0.10446064740E+04  0.00000000000E+00 0.  1.
<scales pt_clust_3="183.18794" pt_clust_4="14000.00000" pt_clust_5="111.74876" pt_clust_6="31.04705"></scales>
<clustering>
<clus scale="   31.047">  1  6  2 -1</clus>
<clus scale="  111.749">  1  5  2 -1</clus>
<clus scale="  183.188">  1  3  2 -1</clus>
<clus scale="  183.188">  2  3  1 -1</clus>
</clustering>
</event>
<event>
 6    0  0.6338511E+002  0.1535191E+03  0.7546771E-02  0.1196214E+00
          2   -1    0    0  505    0 -0.00000000000E+00  0.00000000000E+00  0.29641509295E+04  0.29641509295E+04  0.00000000000E+00 0. -1.
         21   -1    0    0  504  502  0.00000000000E+00 -0.00000000000E+00 -0.45548145004E+02  0.45548145004E+02  0.00000000000E+00 0.  1.
         21    1    1    2  503  502  0.77337523698E+02  0.14237917675E+03  0.14298393833E+03  0.21609564818E+03  0.00000000000E+00 0.  1.
         21    1    1    2  504  501  0.35887655284E+02  0.12031473126E+02  0.11960263500E+03  0.12544907512E+03  0.00000000000E+00 0. -1.
         21    1    1    2  505  503 -0.84252292720E+02 -0.12773856465E+03  0.25572846900E+04  0.25618588125E+04  0.00000000000E+00 0. -1.
          2    1    1    2  501    0 -0.28972886261E+02 -0.26672085220E+02  0.98731521201E+02  0.10629553870E+03  0.00000000000E+00 0. -1.
<scales pt_clust_3="153.51913" pt_clust_4="37.85076" pt_clust_5="14000.00000" pt_clust_6="36.34073"></scales>
<clustering>
<clus scale="   37.851">  2  4  1 -1</clus>
<clus scale="   36.341">  2  6  1 -1</clus>
<clus scale="  153.519">  2  3  1 -1</clus>
<clus scale="   37.851">  2  3  1 -1</clus>
</clustering>
</event>
<event>
 6    0  0.6338511E+002  0.1264560E+03  0.7546771E-02  0.1232811E+00
          2   -1    0    0  505    0 -0.00000000000E+00  0.00000000000E+00  0.38298243190E+04  0.38298243190E+04  0.00000000000E+00 0.  1.
         21   -1    0    0  503  502  0.00000000000E+00 -0.00000000000E+00 -0.87630660817E+03  0.87630660817E+03  0.00000000000E+00 0. -1.
         21    1    1    2  503  501 -0.83178187640E+02 -0.96667130106E+02 -0.78634339612E+03  0.79661727420E+03  0.00000000000E+00 0. -1.
         21    1    1    2  504  502  0.15198601552E+03  0.11316822567E+02 -0.54901270674E+00  0.15240774522E+03  0.00000000000E+00 0. -1.
         21    1    1    2  505  504  0.38803013852E+02  0.44964624185E+02  0.11112367371E+03  0.12599984988E+03  0.00000000000E+00 0. -1.
          2    1    1    2  501    0 -0.10761084174E+03  0.40385683355E+02  0.36292864460E+04  0.36311060579E+04  0.00000000000E+00 0.  1.
<scales pt_clust_3="14000.00000" pt_clust_4="126.45599" pt_clust_5="59.39269" pt_clust_6="109.40685"></scales>
<clustering>
<clus scale="   59.393">  1  5  2 -1</clus>
<clus scale="  109.407">  1  6  2 -1</clus>
<clus scale="  126.456">  1  4  2 -1</clus>
<clus scale="  126.456">  2  3  1 -1</clus>
</clustering>
</event>
<event>
 6    0  0.6338511E+002  0.1133448E+03  0.7546771E-02  0.1254498E+00
         -1   -1    0    0    0  501 -0.00000000000E+00  0.00000000000E+00  0.39378907652E+03  0.39378907652E+03  0.00000000000E+00 0. -1.
         21   -1    0    0  505  502  0.00000000000E+00 -0.00000000000E+00 -0.77772970356E+03  0.77772970356E+03  0.00000000000E+00 0. -1.
         21    1    1    2  503  504  0.27414278094E+02  0.64521460121E+02 -0.10994397327E+03  0.13039263291E+03  0.00000000000E+00 0. -1.
         21    1    1    2  504  502  0.48905635468E+02  0.16030701958E+02 -0.61329033681E+03  0.61544600236E+03  0.00000000000E+00 0. -1.
         21    1    1    2  505  501 -0.27666774447E+02  0.25451383079E+02 -0.23678592929E+02  0.44428583953E+02  0.00000000000E+00 0. -1.
         -1    1    1    2    0  503 -0.48653139116E+02 -0.10600354516E+03  0.36297227597E+03  0.38125156086E+03  0.00000000000E+00 0. -1.
<scales pt_clust_3="14000.00000" pt_clust_4="45.29650" pt_clust_5="37.59286" pt_clust_6="113.34482"></scales>
<clustering>
<clus scale="   37.593">  2  5  1 -1</clus>
<clus scale="   45.296">  2  4  1 -1</clus>
<clus scale="  113.345">  1  6  2 -1</clus>
<clus scale="   37.593">  2  3  1 -1</clus>
</clustering>
</event>
<event>
 6    0  0.6338511E+002  0.7509272E+02  0.7546771E-02  0.1343584E+00
          2   -1    0    0  502    0 -0.00000000000E+00  0.00000000000E+00  0.51045399846E+03  0.51045399846E+03  0.00000000000E+00 0.  1.
         21   -1    0    0  503  502  0.00000000000E+00 -0.00000000000E+00 -0.12823373917E+03  0.12823373917E+03  0.00000000000E+00 0.  1.
         21    1    1    2  503  504  0.23246613008E+02 -0.41996237659E+02 -0.91224468858E+02  0.10308245589E+03  0.00000000000E+00 0.  1.
         21    1    1    2  504  505 -0.70163322820E+02  0.26001197410E+02  0.12775876375E+03  0.14805828531E+03  0.00000000000E+00 0. -1.
         21    1    1    2  505  501  0.54648063661E+02  0.83777432516E+02  0.14983766332E+03  0.18015658303E+03  0.00000000000E+00 0.  1.
          2    1    1    2  501    0 -0.77313538492E+01 -0.67782392267E+02  0.19584830108E+03  0.20739041340E+03  0.00000000000E+00 0.  1.
<scales pt_clust_3="48.00093" pt_clust_4="63.76667" pt_clust_5="14000.00000" pt_clust_6="75.09272"></scales>
<clustering>
<clus scale="   48.001">  2  3  1 -1</clus>
<clus scale="   63.767">  2  4  1 -1</clus>
<clus scale="   75.093">  1  6  2 -1</clus>
<clus scale="   48.001">  2  3  1 -1</clus>
</clustering>
</event>
<event>
 6    0  0.6338511E+002  0.1429609E+03  0.7546771E-02  0.1209399E+00
         21   -1    0    0  503  502  0.00000000000E+00  0.00000000000E+00  0.66307783840E+02  0.66307783840E+02  0.00000000000E+00 0. -1.
          2   -1    0    0  504    0 -0.00000000000E+00 -0.00000000000E+00 -0.22640097780E+04  0.22640097780E+04  0.00000000000E+00 0. -1.
         21    1    1    2  503  501  0.24496331441E+02  0.27780193087E+02 -0.13790435443E+02  0.39521962144E+02  0.00000000000E+00 0. -1.
         21    1    1    2  504  505  0.14833298270E+03 -0.21644819935E+02 -0.16697091460E+04  0.16764247087E+04  0.00000000000E+00 0. -1.
         21    1    1    2  505  502 -0.45219749475E+02  0.57828396197E+02  0.72193738461E+01  0.73763598800E+02  0.00000000000E+00 0. -1.
          2    1    1    2  501    0 -0.12760956467E+03 -0.63963769349E+02 -0.52142178662E+03  0.54060729217E+03  0.00000000000E+00 0. -1.
<scales pt_clust_3="37.03795" pt_clust_4="142.96093" pt_clust_5="83.26019" pt_clust_6="14000.00000"></scales>
<clustering>
<clus scale="   37.038">  1  3  2 -1</clus>
<clus scale="   83.260">  1  5  2 -1</clus>
<clus scale="  142.961">  2  4  1 -1</clus>
<clus scale="   37.038">  1  3  2 -1</clus>
</clustering>
</event>
<event>
 6    0  0.6338511E+002  0.7747917E+02  0.7546771E-02  0.1336361E+00
         21   -1    0    0  505  502  0.00000000000E+00  0.00000000000E+00  0.47915163700E+03  0.47915163700E+03  0.00000000000E+00 0. -1.
          2   -1    0    0  504    0 -0.00000000000E+00 -0.00000000000E+00 -0.84008802256E+03  0.84008802256E+03  0.00000000000E+00 0. -1.
         21    1    1    2  503  501 -0.39561654678E+02  0.56778034028E+01  0.15701615849E+02  0.42940688311E+02  0.00000000000E+00 0. -1.
         21    1    1    2  504  502  0.90051387518E+02 -0.46144581776E+02  0.14740968117E+03  0.17879650143E+03  0.00000000000E+00 0. -1.
         21    1    1    2  505  503 -0.21654425427E+02 -0.31456707518E+02  0.28359310624E+03  0.28615291104E+03  0.00000000000E+00 0. -1.
          2    1    1    2  501    0 -0.28835307413E+02  0.71923485891E+02 -0.80764078881E+03  0.81134955878E+03  0.00000000000E+00 0. -1.
<scales pt_clust_3="42.83991" pt_clust_4="77.47917" pt_clust_5="38.18951" pt_clust_6="14000.00000"></scales>
<clustering>
<clus scale="   38.190">  1  5  2 -1</clus>
<clus scale="   42.840">  1  3  2 -1</clus>
<clus scale="   77.479">  1  4  2 -1</clus>
<clus scale="   38.190">  1  3  2 -1</clus>
</clustering>
</event>
<event>
 6    0  0.6338511E+002  0.9788552E+02  0.7546771E-02  0.1284806E+00
         21   -1    0    0  505  502  0.00000000000E+00  0.00000000000E+00  0.93262809493E+02  0.93262809493E+02  0.00000000000E+00 0. -1.
          2   -1    0    0  503    0 -0.00000000000E+00 -0.00000000000E+00 -0.10740147786E+04  0.10740147786E+04  0.00000000000E+00 0.  1.
         21    1    1    2  503  504 -0.77749563523E+01 -0.75179662797E+02 -0.68383691254E+02  0.10192527103E+03  0.00000000000E+00 0. -1.
         21    1    1    2  504  502  0.95157455455E+01 -0.49240058948E+02  0.59441789811E+02  0.77771840626E+02  0.00000000000E+00 0. -1.
         21    1    1    2  505  501 -0.53140355194E+02  0.86495922291E+02 -0.42040241145E+03  0.43248540955E+03  0.00000000000E+00 0.  1.
          2    1    1    2  501    0  0.51399566001E+02  0.37923799454E+02 -0.55140765622E+03  0.55509506690E+03  0.00000000000E+00 0.  1.
<scales pt_clust_3="14000.00000" pt_clust_4="50.15110" pt_clust_5="97.88552" pt_clust_6="62.35438"></scales>
<clustering>
<clus scale="   50.151">  1  4  2 -1</clus>
<clus scale="   62.354">  2  6  1 -1</clus>
<clus scale="   97.886">  2  5  1 -1</clus>
<clus scale="   50.151">  1  3  2 -1</clus>
</clustering>
</event>
<event>
 6    0  0.6338511E+002  0.1171417E+03  0.7546771E-02  0.1247888E+00
         -1   -1    0    0    0  501 -0.00000000000E+00  0.00000000000E+00  0.40213520146E+04  0.40213520146E+04  0.00000000000E+00 0. -1.
         21   -1    0    0  504  502  0.00000000000E+00 -0.00000000000E+00 -0.72629260493E+02  0.72629260493E+02  0.00000000000E+00 0. -1.
         21    1    1    2  503  501 -0.14341507796E+03  0.68946267901E+02  0.11298619438E+04  0.11410124821E+04  0.00000000000E+00 0. -1.
         21    1    1    2  504  503  0.23460580590E+02 -0.59645495817E+02 -0.37877189037E+02  0.74449079660E+02  0.00000000000E+00 0. -1.
         21    1    1    2  505  502  0.31151335328E+02 -0.49462482046E+02  0.75067798402E+02  0.95142614951E+02  0.00000000000E+00 0. -1.
         -1    1    1    2    0  505  0.88803162040E+02  0.40161709963E+02  0.27816702010E+04  0.27833770984E+04  0.00000000000E+00 0. -1.
<scales pt_clust_3="117.14170" pt_clust_4="14000.00000" pt_clust_5="58.45462" pt_clust_6="97.57493"></scales>
<clustering>
<clus scale="   58.455">  2  5  1 -1</clus>
<clus scale="   97.575">  1  6  2 -1</clus>
<clus scale="  117.142">  1  3  2 -1</clus>
<clus scale="   58.455">  2  3  1 -1</clus>
</clustering>
</event>
<event>
 6    0  0.6338511E+002  0.1514948E+03  0.7546771E-02  0.1198648E+00
          2   -1    0    0  502    0 -0.00000000000E+00  0.00000000000E+00  0.10998374512E+04  0.10998374512E+04  0.00000000000E+00 0.  1.
         21   -1    0    0  504  502  0.00000000000E+00 -0.00000000000E+00 -0.20291988787E+04  0.20291988787E+04  0.00000000000E+00 0.  1.
         21    1    1    2  503  505  0.81006866124E+02 -0.24951186538E+02  0.27251212638E+03  0.28539014190E+03  0.00000000000E+00 0.  1.
         21    1    1    2  504  503 -0.11995385311E+03  0.93742066070E+02 -0.20161743618E+04  0.20219138357E+04  0.00000000000E+00 0.  1.
         21    1    1    2  505  501  0.10450044489E+02 -0.78411816104E+02  0.53497538901E+03  0.54079227360E+03  0.00000000000E+00 0.  1.
          2    1    1    2  501    0  0.28496942494E+02  0.96209365715E+01  0.27932541893E+03  0.28094007869E+03  0.00000000000E+00 0.  1.
<scales pt_clust_3="151.49480" pt_clust_4="14000.00000" pt_clust_5="77.76829" pt_clust_6="30.07720"></scales>
<clustering>
<clus scale="   30.077">  1  6  2 -1</clus>
<clus scale="   77.768">  1  5  2 -1</clus>
<clus scale="  151.495">  1  3  2 -1</clus>
<clus scale="  151.495">  2  3  1 -1</clus>
</clustering>
</event>
<event>
 6    0  0.6338511E+002  0.8115917E+02  0.7546771E-02  0.1325794E+00
         21   -1    0    0  503  502  0.00000000000E+00  0.00000000000E+00  0.38350384306E+03  0.38350384306E+03  0.00000000000E+00 0. -1.
          1   -1    0    0  504    0 -0.00000000000E+00 -0.00000000000E+00 -0.84157031422E+03  0.84157031422E+03  0.00000000000E+00 0.  1.
         21    1    1    2  503  505  0.54679940168E+02  0.22670263880E+02  0.33753663806E+03  0.34268764021E+03  0.00000000000E+00 0. -1.
         21    1    1    2  504  502 -0.14284098656E+02  0.90718503511E+02 -0.24844592869E+03  0.26487593669E+03  0.00000000000E+00 0. -1.
         21    1    1    2  505  501 -0.15712598616E+02 -0.91825998949E+02 -0.27940299308E+02  0.97260270222E+02  0.00000000000E+00 0. -1.
          1    1    1    2  501    0 -0.24683242895E+02 -0.21562768441E+02 -0.51921688123E+03  0.52025031015E+03  0.00000000000E+00 0.  1.
<scales pt_clust_3="58.94472" pt_clust_4="81.15917" pt_clust_5="14000.00000" pt_clust_6="32.77523"></scales>
<clustering>
<clus scale="   32.775">  2  6  1 -1</clus>
<clus scale="   58.945">  1  3  2 -1</clus>
<clus scale="   81.159">  2  4  1 -1</clus>
<clus scale="   58.945">  1  3  2 -1</clus>
</clustering>
</event>
<event>
 6    0  0.6338511E+002  0.7632435E+02  0.7546771E-02  0.1339818E+00
          1   -1    0    0  503    0 -0.00000000000E+00  0.00000000000E+00  0.86187008758E+03  0.86187008758E+03  0.00000000000E+00 0. -1.
         21   -1    0    0  504  502  0.00000000000E+00 -0.00000000000E+00 -0.63314909414E+03  0.63314909414E+03  0.00000000000E+00 0.  1.
         21    1    1    2  503  502 -0.13794251551E+03  0.22919350285E+02  0.21002493114E+03  0.25231707414E+03  0.00000000000E+00 0.  1.
         21    1    1    2  504  505  0.24716067841E+02 -0.32952139555E+02 -0.57632440726E+03  0.57779455684E+03  0.00000000000E+00 0.  1.
         21    1    1    2  505  501  0.45762878616E+02  0.29787726685E+02 -0.10259621080E+02  0.55559063572E+02  0.00000000000E+00 0.  1.
          1    1    1    2  501    0  0.67463569058E+02 -0.19754937415E+02  0.60528009064E+03  0.60934848718E+03  0.00000000000E+00 0. -1.
<scales pt_clust_3="76.32435" pt_clust_4="41.19135" pt_clust_5="61.16445" pt_clust_6="14000.00000"></scales>
<clustering>
<clus scale="   41.191">  2  4  1 -1</clus>
<clus scale="   61.164">  2  5  1 -1</clus>
<clus scale="   76.324">  2  3  1 -1</clus>
<clus scale="   41.191">  2  3  1 -1</clus>
</clustering>
</event>
<event>
 6    0  0.6338511E+002  0.1036985E+03  0.7546771E-02  0.1272705E+00
         21   -1    0    0  504  502  0.00000000000E+00  0.00000000000E+00  0.15506363731E+03  0.15506363731E+03  0.00000000000E+00 0. -1.
         -2   -1    0    0    0  501 -0.00000000000E+00 -0.00000000000E+00 -0.73766494378E+03  0.73766494378E+03  0.00000000000E+00 0.  1.
         21    1    1    2  503  505 -0.62841887982E+02 -0.78086156424E+02  0.66645494166E+02  0.12036682518E+03  0.00000000000E+00 0. -1.
         21    1    1    2  504  501  0.53888345027E+02  0.80141300862E+02 -0.14287779203E+03  0.17245476302E+03  0.00000000000E+00 0. -1.
         21    1    1    2  505  502  0.29708088007E+02 -0.25109829463E+02  0.38162476581E+02  0.54492647646E+02  0.00000000000E+00 0. -1.
         -2    1    1    2    0  503 -0.20754545052E+02  0.23054685024E+02 -0.54453148519E+03  0.54541434525E+03  0.00000000000E+00 0.  1.
<scales pt_clust_3="103.69852" pt_clust_4="14000.00000" pt_clust_5="37.59638" pt_clust_6="31.02047"></scales>
<clustering>
<clus scale="   31.020">  2  6  1 -1</clus>
<clus scale="   37.596">  1  5  2 -1</clus>
<clus scale="  103.699">  1  3  2 -1</clus>
<clus scale="   37.596">  1  3  2 -1</clus>
</clustering>
</event>
<event>
 6    0  0.6338511E+002  0.1032633E+03  0.7546771E-02  0.1273580E+00
         21   -1    0    0  501  502  0.00000000000E+00  0.00000000000E+00  0.90540433676E+02  0.90540433676E+02  0.00000000000E+00 0. -1.
          2   -1    0    0  504    0 -0.00000000000E+00 -0.00000000000E+00 -0.34401194697E+03  0.34401194697E+03  0.00000000000E+00 0. -1.
         21    1    1    2  503  502 -0.35918185168E+02 -0.88278841445E+01 -0.89270039051E+01  0.38049165076E+02  0.00000000000E+00 0.  1.
         21    1    1    2  504  505  0.82808328383E+02 -0.24107666267E+02 -0.80210082655E+02  0.11777969342E+03  0.00000000000E+00 0.  1.
         21    1    1    2  505  503  0.69627241466E+02  0.15754930981E+01  0.60860351022E+01  0.69910476725E+02  0.00000000000E+00 0. -1.
          2    1    1    2  501    0 -0.11651738468E+03  0.31360057313E+02 -0.17042046183E+03  0.20881304542E+03  0.00000000000E+00 0. -1.
<scales pt_clust_3="36.98713" pt_clust_4="14000.00000" pt_clust_5="51.74206" pt_clust_6="103.26331"></scales>
<clustering>
<clus scale="   36.987">  1  3  2 -1</clus>
<clus scale="   51.742">  1  5  2 -1</clus>
<clus scale="  103.263">  1  6  2 -1</clus>
<clus scale="   36.987">  1  3  2 -1</clus>
</clustering>
</event>
<event>
 6    0  0.6338511E+002  0.6995629E+02  0.7546771E-02  0.1360242E+00
         21   -1    0    0  503  502  0.00000000000E+00  0.00000000000E+00  0.17662299963E+04  0.17662299963E+04  0.00000000000E+00 0.  1.
          1   -1    0    0  505    0 -0.00000000000E+00 -0.00000000000E+00 -0.12795062011E+03  0.12795062011E+03  0.00000000000E+00 0.  1.
         21    1    1    2  503  501  0.68874491994E+02  0.58623448191E+02  0.69036966936E+03  0.69626911801E+03  0.00000000000E+00 0.  1.
         21    1    1    2  504  502 -0.59986618012E+02 -0.21598484579E+02  0.92549846589E+03  0.92769192044E+03  0.00000000000E+00 0.  1.
         21    1    1    2  505  504 -0.43906156214E+02 -0.49502080543E+02  0.13570808147E+03  0.15097976655E+03  0.00000000000E+00 0.  1.
          1    1    1    2  501    0  0.35018282231E+02  0.12477116931E+02 -0.11329684056E+03  0.11923981138E+03  0.00000000000E+00 0.  1.
<scales pt_clust_3="69.95629" pt_clust_4="14000.00000" pt_clust_5="46.38188" pt_clust_6="37.17470"></scales>
<clustering>
<clus scale="   37.175">  2  6  1 -1</clus>
<clus scale="   46.382">  2  5  1 -1</clus>
<clus scale="   69.956">  2  3  1 -1</clus>
<clus scale="   69.956">  1  3  2 -1</clus>
</clustering>
</event>
<event>
 6    0  0.6338511E+002  0.1122363E+03  0.7546771E-02  0.1256484E+00
         21   -1    0    0  503  502  0.00000000000E+00  0.00000000000E+00  0.13314734751E+03  0.13314734751E+03  0.00000000000E+00 0. -1.
         -2   -1    0    0    0  501 -0.00000000000E+00 -0.00000000000E+00 -0.68309033292E+03  0.68309033292E+03  0.00000000000E+00 0. -1.
         21    1    1    2  503  505 -0.50419222324E+02  0.12640046360E+03  0.60839976412E+02  0.14906601862E+03  0.00000000000E+00 0. -1.
         21    1    1    2  504  502  0.74842129571E+02 -0.36449662131E+02 -0.64341133159E+02  0.10521265915E+03  0.00000000000E+00 0.  1.
         21    1    1    2  505  501 -0.25104489534E+02 -0.54319883198E+02 -0.12061439905E+03  0.13464292912E+03  0.00000000000E+00 0.  1.
         -2    1    1    2    0  504  0.68158228726E+00 -0.35630918269E+02 -0.42582742962E+03  0.42731607354E+03  0.00000000000E+00 0. -1.
<scales pt_clust_3="14000.00000" pt_clust_4="112.23631" pt_clust_5="76.18531" pt_clust_6="35.63744"></scales>
<clustering>
<clus scale="   35.637">  2  6  1 -1</clus>
<clus scale="   76.185">  2  5  1 -1</clus>
<clus scale="  112.236">  2  4  1 -1</clus>
<clus scale="  112.236">  1  3  2 -1</clus>
</clustering>
</event>
<event>
 6    0  0.6338511E+002  0.2106427E+03  0.7546771E-02  0.1141058E+00
         21   -1    0    0  504  502  0.00000000000E+00  0.00000000000E+00  0.24471345398E+03  0.24471345398E+03  0.00000000000E+00 0. -1.
          4   -1    0    0  505    0 -0.00000000000E+00 -0.00000000000E+00 -0.16791241810E+04  0.16791241810E+04  0.00000000000E+00 0. -1.
         21    1    1    2  503  502  0.34920737608E+02 -0.69853696079E+01  0.56630879651E+02  0.66897756567E+02  0.00000000000E+00 0. -1.
         21    1    1    2  504  501  0.17180359864E+03 -0.12075921469E+02 -0.26357472895E+02  0.17423266273E+03  0.00000000000E+00 0. -1.
         21    1    1    2  505  503 -0.25811884556E+03 -0.62021905150E+02 -0.56699035349E+02  0.27145319258E+03  0.00000000000E+00 0. -1.
          4    1    1    2  501    0  0.51394509312E+02  0.81083196227E+02 -0.14079850984E+04  0.14112540231E+04  0.00000000000E+00 0. -1.
<scales pt_clust_3="35.61254" pt_clust_4="210.64267" pt_clust_5="14000.00000" pt_clust_6="96.11415"></scales>
<clustering>
<clus scale="   35.613">  1  3  2 -1</clus>
<clus scale="   96.114">  2  6  1 -1</clus>
<clus scale="  210.643">  1  4  2 -1</clus>
<clus scale="   35.613">  1  3  2 -1</clus>
</clustering>
</event>
<event>
 6    0  0.6338511E+002  0.6126314E+02  0.7546771E-02  0.1392606E+00
         -2   -1    0    0    0  501 -0.00000000000E+00  0.00000000000E+00  0.12640720600E+04  0.12640720600E+04  0.00000000000E+00 0. -1.
         21   -1    0    0  504  502  0.00000000000E+00 -0.00000000000E+00 -0.22205768444E+03  0.22205768444E+03  0.00000000000E+00 0.  1.
         21    1    1    2  503  502 -0.20399526452E+02  0.37446798228E+02 -0.79586523417E+02  0.90290741976E+02  0.00000000000E+00 0. -1.
         21    1    1    2  504  505  0.53945077315E+02 -0.64779100825E+02 -0.95396576867E+02  0.12730636335E+03  0.00000000000E+00 0.  1.
         21    1    1    2  505  501 -0.55925928130E+02  0.83108081832E+02  0.75461381799E+02  0.12541564036E+03  0.00000000000E+00 0. -1.
         -2    1    1    2    0  503  0.22380377266E+02 -0.55775779235E+02  0.11415360941E+04  0.11431169988E+04  0.00000000000E+00 0. -1.
<scales pt_clust_3="42.64274" pt_clust_4="50.77840" pt_clust_5="61.26314" pt_clust_6="14000.00000"></scales>
<clustering>
<clus scale="   42.643">  2  3  1 -1</clus>
<clus scale="   50.778">  2  4  1 -1</clus>
<clus scale="   61.263">  2  5  1 -1</clus>
<clus scale="   42.643">  2  3  1 -1</clus>
</clustering>
</event>
<event>
 6    0  0.6338511E+002  0.1314960E+03  0.7546771E-02  0.1225253E+00
         21   -1    0    0  503  502  0.00000000000E+00  0.00000000000E+00  0.20093361884E+03  0.20093361884E+03  0.00000000000E+00 0. -1.
          1   -1    0    0  504    0 -0.00000000000E+00 -0.00000000000E+00 -0.55982595603E+03  0.55982595603E+03  0.00000000000E+00 0. -1.
         21    1    1    2  503  501  0.24066564264E+02 -0.49565584417E+02 -0.52310709999E+00  0.55101908452E+02  0.00000000000E+00 0. -1.
         21    1    1    2  504  505 -0.14427028461E+02 -0.43134491240E+02 -0.21632113037E+03  0.22105102336E+03  0.00000000000E+00 0. -1.
         21    1    1    2  505  502  0.10120634753E+03  0.10480463636E+03  0.12705770207E+03  0.19331424220E+03  0.00000000000E+00 0. -1.
          1    1    1    2  501    0 -0.11084588333E+03 -0.12104560703E+02 -0.26910580179E+03  0.29129240086E+03  0.00000000000E+00 0. -1.
<scales pt_clust_3="57.80739" pt_clust_4="45.48322" pt_clust_5="14000.00000" pt_clust_6="131.49604"></scales>
<clustering>
<clus scale="   45.483">  2  4  1 -1</clus>
<clus scale="   57.807">  1  3  2 -1</clus>
<clus scale="  131.496">  2  6  1 -1</clus>
<clus scale="   57.807">  1  3  2 -1</clus>
</clustering>
</event>
<event>
 6    0  0.6338511E+002  0.8367272E+02  0.7546771E-02  0.1318940E+00
         21   -1    0    0  505  502  0.00000000000E+00  0.00000000000E+00  0.31264963898E+03  0.31264963898E+03  0.00000000000E+00 0. -1.
         -3   -1    0    0    0  501 -0.00000000000E+00 -0.00000000000E+00 -0.20598324813E+03  0.20598324813E+03  0.00000000000E+00 0. -1.
         21    1    1    2  503  502 -0.28912180400E+02 -0.31596943943E+02  0.20741248044E+03  0.21178814435E+03  0.00000000000E+00 0. -1.
         21    1    1    2  504  501 -0.89729369551E+02  0.56059733005E+02 -0.39587971380E+02  0.11296575102E+03  0.00000000000E+00 0. -1.
         21    1    1    2  505  504  0.44255788574E+02 -0.40644834674E+01  0.44612747105E+02  0.62971358985E+02  0.00000000000E+00 0. -1.
         -3    1    1    2    0  503  0.74385761377E+02 -0.20398305595E+02 -0.10577086531E+03  0.13090763276E+03  0.00000000000E+00 0. -1.
<scales pt_clust_3="42.82851" pt_clust_4="14000.00000" pt_clust_5="35.68124" pt_clust_6="83.67272"></scales>
<clustering>
<clus scale="   42.829">  1  3  2 -1</clus>
<clus scale="   35.681">  1  5  2 -1</clus>
<clus scale="   83.673">  2  6  1 -1</clus>
<clus scale="   42.829">  1  3  2 -1</clus>
</clustering>
</event>
<event>
 6    0  0.6338511E+002  0.7962507E+02  0.7546771E-02  0.1330119E+00
          1   -1    0    0  505    0 -0.00000000000E+00  0.00000000000E+00  0.28053289416E+03  0.28053289416E+03  0.00000000000E+00 0. -1.
         21   -1    0    0  503  502  0.00000000000E+00 -0.00000000000E+00 -0.80647968453E+03  0.80647968453E+03  0.00000000000E+00 0.  1.
         21    1    1    2  503  501 -0.51611038080E+02  0.95796070394E+02  0.43366641481E+02  0.11713774775E+03  0.00000000000E+00 0. -1.
         21    1    1    2  504  502  0.48885803855E+02  0.17631460850E+01 -0.72290196189E+03  0.72455515801E+03  0.00000000000E+00 0.  1.
         21    1    1    2  505  504  0.31468379828E+02 -0.48385710182E+02 -0.21196950508E+02  0.61487775937E+02  0.00000000000E+00 0. -1.
          1    1    1    2  501    0 -0.28743145603E+02 -0.49173506297E+02  0.17478548055E+03  0.18383189699E+03  0.00000000000E+00 0. -1.
<scales pt_clust_3="14000.00000" pt_clust_4="48.91759" pt_clust_5="79.62507" pt_clust_6="55.57215"></scales>
<clustering>
<clus scale="   48.918">  2  4  1 -1</clus>
<clus scale="   55.572">  1  6  2 -1</clus>
<clus scale="   79.625">  2  5  1 -1</clus>
<clus scale="   48.918">  2  3  1 -1</clus>
</clustering>
</event>
<event>
 6    0  0.6338511E+002  0.9182186E+02  0.7546771E-02  0.1298499E+00
         21   -1    0    0  503  502  0.00000000000E+00  0.00000000000E+00  0.84185252800E+02  0.84185252800E+02  0.00000000000E+00 0. -1.
          2   -1    0    0  504    0 -0.00000000000E+00 -0.00000000000E+00 -0.15469864024E+04  0.15469864024E+04  0.00000000000E+00 0. -1.
         21    1    1    2  503  501  0.30385976881E+02  0.25678458831E+01  0.68215773090E+02  0.74721436829E+02  0.00000000000E+00 0. -1.
         21    1    1    2  504  505  0.29346261147E+02  0.98564650169E+02 -0.41498331942E+03  0.42753637120E+03  0.00000000000E+00 0. -1.
         21    1    1    2  505  502 -0.75300899084E+02 -0.57627151015E+02 -0.38811659359E+03  0.39953173110E+03  0.00000000000E+00 0. -1.
          2    1    1    2  501    0  0.15568661055E+02 -0.43505345037E+02 -0.72791700968E+03  0.72938211606E+03  0.00000000000E+00 0. -1.
<scales pt_clust_3="30.49429" pt_clust_4="91.82186" pt_clust_5="14000.00000" pt_clust_6="46.68850"></scales>
<clustering>
<clus scale="   30.494">  1  3  2 -1</clus>
<clus scale="   46.689">  2  6  1 -1</clus>
<clus scale="   91.822">  2  4  1 -1</clus>
<clus scale="   30.494">  1  3  2 -1</clus>
</clustering>
</event>
<event>
 6    0  0.6338511E+002  0.9909517E+02  0.7546771E-02  0.1282210E+00
         21   -1    0    0  503  502  0.00000000000E+00  0.00000000000E+00  0.12277062577E+03  0.12277062577E+03  0.00000000000E+00 0.  1.
          2   -1    0    0  504    0 -0.00000000000E+00 -0.00000000000E+00 -0.15679725463E+04  0.15679725463E+04  0.00000000000E+00 0.  1.
         21    1    1    2  503  501 -0.10523912575E+03 -0.22451545771E+02 -0.42543024730E+03  0.43882825890E+03  0.00000000000E+00 0.  1.
         21    1    1    2  504  505  0.67157349460E+02 -0.24221763484E+02 -0.25591526774E+02  0.75840158593E+02  0.00000000000E+00 0. -1.
         21    1    1    2  505  502  0.41632254261E+02  0.16445791610E+02  0.85211897811E+02  0.96253707383E+02  0.00000000000E+00 0.  1.
          2    1    1    2  501    0 -0.35504779740E+01  0.30227517645E+02 -0.10793920442E+04  0.10798210472E+04  0.00000000000E+00 0.  1.
<scales pt_clust_3="99.09517" pt_clust_4="14000.00000" pt_clust_5="44.85225" pt_clust_6="30.43532"></scales>
<clustering>
<clus scale="   30.435">  2  6  1 -1</clus>
<clus scale="   44.852">  1  5  2 -1</clus>
<clus scale="   99.095">  2  3  1 -1</clus>
<clus scale="   44.852">  1  3  2 -1</clus>
</clustering>
</event>
<event>
 6    0  0.6338511E+002  0.9240026E+02  0.7546771E-02  0.1297141E+00
          2   -1    0    0  502    0 -0.00000000000E+00  0.00000000000E+00  0.23726291104E+03  0.23726291104E+03  0.00000000000E+00 0. -1.
         21   -1    0    0  504  502  0.00000000000E+00 -0.00000000000E+00 -0.53110065642E+03  0.53110065642E+03  0.00000000000E+00 0. -1.
         21    1    1    2  503  501 -0.22623649417E+02  0.62406895841E+02  0.47544162401E+02  0.81651071885E+02  0.00000000000E+00 0. -1.
         21    1    1    2  504  505  0.43802023518E+01  0.42093640022E+02 -0.62023893117E+02  0.75086776601E+02  0.00000000000E+00 0. -1.
         21    1    1    2  505  503  0.57479214359E+02 -0.11579316600E+03 -0.43339768706E+03  0.45226703674E+03  0.00000000000E+00 0. -1.
          2    1    1    2  501    0 -0.39235767294E+02  0.11292630136E+02  0.15403967239E+03  0.15935868223E+03  0.00000000000E+00 0. -1.
<scales pt_clust_3="92.40026" pt_clust_4="43.02587" pt_clust_5="14000.00000" pt_clust_6="40.82853"></scales>
<clustering>
<clus scale="   40.829">  1  6  2 -1</clus>
<clus scale="   43.026">  2  4  1 -1</clus>
<clus scale="   92.400">  1  3  2 -1</clus>
<clus scale="   43.026">  2  3  1 -1</clus>
</clustering>
</event>
<event>
 6    0  0.6338511E+002  0.1149073E+03  0.7546771E-02  0.1251743E+00
         21   -1    0    0  505  502  0.00000000000E+00  0.00000000000E+00  0.24737043022E+04  0.24737043022E+04  0.00000000000E+00 0.  1.
         -3   -1    0    0    0  501 -0.00000000000E+00 -0.00000000000E+00 -0.36664786321E+03  0.36664786321E+03  0.00000000000E+00 0.  1.
         21    1    1    2  503  501 -0.12784424092E+03  0.10161094130E+03  0.64787082601E+03  0.66813586981E+03  0.00000000000E+00 0.  1.
         21    1    1    2  504  502  0.51307662057E+02  0.23398779364E+02  0.43380317795E+02  0.71146546181E+02  0.00000000000E+00 0. -1.
         21    1    1    2  505  503 -0.86926483858E+01 -0.48983686676E+02  0.17485564201E+04  0.17492639932E+04  0.00000000000E+00 0.  1.
         -3    1    1    2    0  504  0.85229227248E+02 -0.76026033988E+02 -0.33275112488E+03  0.35180575625E+03  0.00000000000E+00 0.  1.
<scales pt_clust_3="114.90728" pt_clust_4="54.25722" pt_clust_5="49.74901" pt_clust_6="14000.00000"></scales>
<clustering>
<clus scale="   49.749">  1  5  2 -1</clus>
<clus scale="   54.257">  1  4  2 -1</clus>
<clus scale="  114.907">  1  3  2 -1</clus>
<clus scale="   49.749">  1  3  2 -1</clus>
</clustering>
</event>
<event>
 6    0  0.6338511E+002  0.6824980E+02  0.7546771E-02  0.1366148E+00
          2   -1    0    0  503    0 -0.00000000000E+00  0.00000000000E+00  0.36541476688E+03  0.36541476688E+03  0.00000000000E+00 0.  1.
         21   -1    0    0  504  502  0.00000000000E+00 -0.00000000000E+00 -0.62977550187E+03  0.62977550187E+03  0.00000000000E+00 0.  1.
         21    1    1    2  503  505  0.47171057653E+02  0.36062151734E+02  0.15701399958E+02  0.61417598686E+02  0.00000000000E+00 0.  1.
         21    1    1    2  504  501  0.23341651364E+02 -0.28225683671E+02 -0.31328671366E+02  0.48197588701E+02  0.00000000000E+00 0.  1.
         21    1    1    2  505  502 -0.64960620284E+02  0.65124905975E+02 -0.55914253578E+03  0.56665819581E+03  0.00000000000E+00 0.  1.
          2    1    1    2  501    0 -0.55520887323E+01 -0.72961374038E+02  0.31040907220E+03  0.31891688555E+03  0.00000000000E+00 0.  1.
<scales pt_clust_3="68.24980" pt_clust_4="36.62679" pt_clust_5="57.28457" pt_clust_6="14000.00000"></scales>
<clustering>
<clus scale="   36.627">  2  4  1 -1</clus>
<clus scale="   57.285">  2  5  1 -1</clus>
<clus scale="   68.250">  2  3  1 -1</clus>
<clus scale="   36.627">  2  3  1 -1</clus>
</clustering>
</event>
<event>
 6    0  0.6338511E+002  0.8720436E+02  0.7546771E-02  0.1309767E+00
          2   -1    0    0  504    0 -0.00000000000E+00  0.00000000000E+00  0.67322918528E+02  0.67322918528E+02  0.00000000000E+00 0.  1.
         21   -1    0    0  505  502  0.00000000000E+00 -0.00000000000E+00 -0.18385953414E+04  0.18385953414E+04  0.00000000000E+00 0. -1.
         21    1    1    2  503  501 -0.43169265748E+02  0.29660667959E+02 -0.22450366711E+03  0.23053250807E+03  0.00000000000E+00 0. -1.
         21    1    1    2  504  502  0.12228202690E+03 -0.48078311415E+02 -0.11161244708E+03  0.17239998977E+03  0.00000000000E+00 0. -1.
         21    1    1    2  505  503 -0.48227439629E+02 -0.65164116490E+00 -0.14588448411E+04  0.14596419359E+04  0.00000000000E+00 0. -1.
          2    1    1    2  501    0 -0.30885321521E+02  0.19069284621E+02  0.23688532426E+02  0.43343826203E+02  0.00000000000E+00 0.  1.
<scales pt_clust_3="87.20436" pt_clust_4="14000.00000" pt_clust_5="48.59342" pt_clust_6="36.29794"></scales>
<clustering>
<clus scale="   36.298">  1  6  2 -1</clus>
<clus scale="   48.593">  2  5  1 -1</clus>
<clus scale="   87.204">  2  3  1 -1</clus>
<clus scale="   48.593">  2  3  1 -1</clus>
</clustering>
</event>
<event>
 6    0  0.6338511E+002  0.7864966E+02  0.7546771E-02  0.1332928E+00
         21   -1    0    0  505  502  0.00000000000E+00  0.00000000000E+00  0.11419903475E+04  0.11419903475E+04  0.00000000000E+00 0.  1.
         -2   -1    0    0    0  501 -0.00000000000E+00 -0.00000000000E+00 -0.24082334014E+03  0.24082334014E+03  0.00000000000E+00 0.  1.
         21    1    1    2  503  501  0.42922564039E+02  0.87049947762E+02  0.20532205315E+02  0.99204895867E+02  0.00000000000E+00 0. -1.
         21    1    1    2  504  502 -0.70647570643E+02 -0.11391619120E+02  0.90838970659E+03  0.91120398773E+03  0.00000000000E+00 0.  1.
         21    1    1    2  505  503  0.51298100596E+01 -0.32920769193E+02  0.16774224580E+03  0.17101915981E+03  0.00000000000E+00 0. -1.
         -2    1    1    2    0  504  0.22595196545E+02 -0.42737559449E+02 -0.19549715036E+03  0.20138564421E+03  0.00000000000E+00 0.  1.
<scales pt_clust_3="78.64966" pt_clust_4="14000.00000" pt_clust_5="33.31804" pt_clust_6="48.43833"></scales>
<clustering>
<clus scale="   33.318">  1  5  2 -1</clus>
<clus scale="   48.438">  2  6  1 -1</clus>
<clus scale="   78.650">  2  3  1 -1</clus>
<clus scale="   33.318">  1  3  2 -1</clus>
</clustering>
</event>
<event>
 6    0  0.6338511E+002  0.7625219E+02  0.7546771E-02  0.1340037E+00
         -4   -1    0    0    0  501 -0.00000000000E+00  0.00000000000E+00  0.22743162667E+03  0.22743162667E+03  0.00000000000E+00 0.  1.
         21   -1    0    0  505  502  0.00000000000E+00 -0.00000000000E+00 -0.72800824004E+03  0.72800824004E+03  0.00000000000E+00 0.  1.
         21    1    1    2  503  501 -0.51130609464E+02  0.61503171909E+02 -0.36913506694E+03  0.37770051234E+03  0.00000000000E+00 0.  1.
         21    1    1    2  504  502  0.31200913598E+02 -0.75587212619E+01 -0.26418031816E+02  0.41575758339E+02  0.00000000000E+00 0.  1.
         21    1    1    2  505  503 -0.56069900874E+02 -0.44542816207E+02 -0.30957403333E+03  0.31774829405E+03  0.00000000000E+00 0.  1.
         -4    1    1    2    0  504  0.75999596741E+02 -0.94016344393E+01  0.20455051871E+03  0.21841530198E+03  0.00000000000E+00 0.  1.
<scales pt_clust_3="14000.00000" pt_clust_4="32.10345" pt_clust_5="63.72930" pt_clust_6="76.25219"></scales>
<clustering>
<clus scale="   32.103">  2  4  1 -1</clus>
<clus scale="   63.729">  2  5  1 -1</clus>
<clus scale="   76.252">  1  6  2 -1</clus>
<clus scale="   32.103">  2  3  1 -1</clus>
</clustering>
</event>
<event>
 6    0  0.6338511E+002  0.1043240E+03  0.7546771E-02  0.1271457E+00
         21   -1    0    0  504  502  0.00000000000E+00  0.00000000000E+00  0.14132129894E+04  0.14132129894E+04  0.00000000000E+00 0. -1.
          2   -1    0    0  503    0 -0.00000000000E+00 -0.00000000000E+00 -0.23122018894E+02  0.23122018894E+02  0.00000000000E+00 0. -1.
         21    1    1    2  503  502 -0.72411700445E+02 -0.55545574848E+02  0.10879006838E+04  0.10917218799E+04  0.00000000000E+00 0. -1.
         21    1    1    2  504  505  0.38095031473E+02  0.33708666110E+02  0.12031356048E+03  0.13062487676E+03  0.00000000000E+00 0. -1.
         21    1    1    2  505  501 -0.31646461615E+01  0.59513247742E+02  0.95162265101E+02  0.11228400750E+03  0.00000000000E+00 0. -1.
          2    1    1    2  501    0  0.37481315134E+02 -0.37676339004E+02  0.86714461135E+02  0.10170424413E+03  0.00000000000E+00 0. -1.
<scales pt_clust_3="90.65899" pt_clust_4="47.68807" pt_clust_5="47.68807" pt_clust_6="53.14467"></scales>
<clustering>
<clus scale="   47.688">  4  5 -1 -1</clus>
<clus scale="   53.145">  2  6  1 -1</clus>
<clus scale="   90.659">  1  3  2 -1</clus>
<clus scale="   90.659">  1  3  2 -1</clus>
</clustering>
</event>
<event>
 6    0  0.6338511E+002  0.1128863E+03  0.7546771E-02  0.1255316E+00
          3   -1    0    0  504    0 -0.00000000000E+00  0.00000000000E+00  0.17893112516E+03  0.17893112516E+03  0.00000000000E+00 0. -1.
         21   -1    0    0  505  502  0.00000000000E+00 -0.00000000000E+00 -0.16688208044E+04  0.16688208044E+04  0.00000000000E+00 0. -1.
         21    1    1    2  503  502  0.35625437291E+02 -0.29300182310E+02 -0.89590062981E+03  0.89708729283E+03  0.00000000000E+00 0. -1.
         21    1    1    2  504  503 -0.11987556134E+03 -0.36952453364E+02  0.33779236401E+02  0.12991024143E+03  0.00000000000E+00 0. -1.
         21    1    1    2  505  501  0.61798080258E+02  0.87228396574E+02 -0.71775215316E+03  0.72566931123E+03  0.00000000000E+00 0. -1.
          3    1    1    2  501    0  0.22452043795E+02 -0.20975760900E+02  0.89983867380E+02  0.95085084027E+02  0.00000000000E+00 0. -1.
<scales pt_clust_3="46.33729" pt_clust_4="14000.00000" pt_clust_5="112.88630" pt_clust_6="30.72583"></scales>
<clustering>
<clus scale="   30.726">  1  6  2 -1</clus>
<clus scale="   46.337">  2  3  1 -1</clus>
<clus scale="  112.886">  2  5  1 -1</clus>
<clus scale="   46.337">  2  3  1 -1</clus>
</clustering>
</event>
<event>
 6    0  0.6338511E+002  0.1664319E+03  0.7546771E-02  0.1181621E+00
         21   -1    0    0  504  502  0.00000000000E+00  0.00000000000E+00  0.78424061576E+02  0.78424061576E+02  0.00000000000E+00 0.  1.
          2   -1    0    0  502    0 -0.00000000000E+00 -0.00000000000E+00 -0.12167642268E+04  0.12167642268E+04  0.00000000000E+00 0. -1.
         21    1    1    2  503  501  0.39389273429E-01 -0.69891723131E+02 -0.28752712937E+03  0.29589982196E+03  0.00000000000E+00 0.  1.
         21    1    1    2  504  505  0.26303604647E+02  0.17713976509E+02 -0.27799316473E+02  0.42171869505E+02  0.00000000000E+00 0.  1.
         21    1    1    2  505  503 -0.16072897997E+02  0.13586169805E+03 -0.72432009870E+01  0.13700074090E+03  0.00000000000E+00 0.  1.
          2    1    1    2  501    0 -0.10270095924E+02 -0.83683951425E+02 -0.81577051837E+03  0.82011585598E+03  0.00000000000E+00 0. -1.
<scales pt_clust_3="61.09331" pt_clust_4="31.71222" pt_clust_5="152.19871" pt_clust_6="61.09331"></scales>
<clustering>
<clus scale="   31.712">  1  4  2 -1</clus>
<clus scale="   61.093">  3  6 -1 -1</clus>
<clus scale="  152.199">  1  5  2 -1</clus>
<clus scale="   31.712">  1  3  2 -1</clus>
</clustering>
</event>
<event>
 6    0  0.6338511E+002  0.7810993E+02  0.7546771E-02  0.1334502E+00
         21   -1    0    0  504  502  0.00000000000E+00  0.00000000000E+00  0.94494533828E+02  0.94494533828E+02  0.00000000000E+00 0. -1.
          2   -1    0    0  503    0 -0.00000000000E+00 -0.00000000000E+00 -0.11739551515E+04  0.11739551515E+04  0.00000000000E+00 0. -1.
         21    1    1    2  503  502 -0.40580267697E+02  0.58367229497E+02 -0.39399106144E+02  0.81275956902E+02  0.00000000000E+00 0. -1.
         21    1    1    2  504  505 -0.21835408330E+02 -0.21390269834E+02  0.56768397685E+02  0.64474643669E+02  0.00000000000E+00 0. -1.
         21    1    1    2  505  501  0.10955545275E+03  0.22903665568E+02 -0.26881684166E+03  0.29118631403E+03  0.00000000000E+00 0.  1.
          2    1    1    2  501    0 -0.47139776723E+02 -0.59880625231E+02 -0.82801306754E+03  0.83151277070E+03  0.00000000000E+00 0. -1.
<scales pt_clust_3="70.44477" pt_clust_4="30.56679" pt_clust_5="14000.00000" pt_clust_6="78.10993"></scales>
<clustering>
<clus scale="   30.567">  1  4  2 -1</clus>
<clus scale="   70.445">  1  3  2 -1</clus>
<clus scale="   78.110">  2  6  1 -1</clus>
<clus scale="   30.567">  1  3  2 -1</clus>
</clustering>
</event>
<event>
 6    0  0.6338511E+002  0.8585050E+02  0.7546771E-02  0.1313223E+00
         21   -1    0    0  504  502  0.00000000000E+00  0.00000000000E+00  0.47314189325E+03  0.47314189325E+03  0.00000000000E+00 0.  1.
          1   -1    0    0  503    0 -0.00000000000E+00 -0.00000000000E+00 -0.15186924934E+03  0.15186924934E+03  0.00000000000E+00 0. -1.
         21    1    1    2  503  502  0.13014118922E+02  0.10680085902E+03  0.29554477724E+03  0.31451948450E+03  0.00000000000E+00 0.  1.
         21    1    1    2  504  505 -0.78395575400E+01 -0.32405356176E+02  0.75956020798E+02  0.82951087194E+02  0.00000000000E+00 0.  1.
         21    1    1    2  505  501  0.41721467013E+02 -0.96499458146E+02  0.48689738586E+02  0.11585990193E+03  0.00000000000E+00 0.  1.
          1    1    1    2  501    0 -0.46896028394E+02  0.22103955299E+02 -0.98917892712E+02  0.11168066895E+03  0.00000000000E+00 0. -1.
<scales pt_clust_3="85.85050" pt_clust_4="33.34015" pt_clust_5="14000.00000" pt_clust_6="51.73792"></scales>
<clustering>
<clus scale="   33.340">  1  4  2 -1</clus>
<clus scale="   51.738">  2  6  1 -1</clus>
<clus scale="   85.850">  1  3  2 -1</clus>
<clus scale="   33.340">  1  3  2 -1</clus>
</clustering>
</event>
<event>
 6    0  0.6338511E+002  0.1206034E+03  0.7546771E-02  0.1242105E+00
         21   -1    0    0  505  502  0.00000000000E+00  0.00000000000E+00  0.21793126624E+03  0.21793126624E+03  0.00000000000E+00 0. -1.
          2   -1    0    0  503    0 -0.00000000000E+00 -0.00000000000E+00 -0.16664175924E+04  0.16664175924E+04  0.00000000000E+00 0. -1.
         21    1    1    2  503  504 -0.85571415558E+02  0.37677003303E+02 -0.24010830226E+02  0.96532604371E+02  0.00000000000E+00 0. -1.
         21    1    1    2  504  502 -0.21379365697E+02  0.34262412573E+02  0.67935710500E+02  0.79033226899E+02  0.00000000000E+00 0. -1.
         21    1    1    2  505  501  0.12014548660E+03 -0.10820412739E+03  0.47396486535E+02  0.16849183384E+03  0.00000000000E+00 0. -1.
          2    1    1    2  501    0 -0.13194705345E+02  0.36264711510E+02 -0.15398076930E+04  0.15402911936E+04  0.00000000000E+00 0. -1.
<scales pt_clust_3="14000.00000" pt_clust_4="42.04463" pt_clust_5="120.60338" pt_clust_6="38.59054"></scales>
<clustering>
<clus scale="   38.591">  2  6  1 -1</clus>
<clus scale="   42.045">  1  4  2 -1</clus>
<clus scale="  120.603">  1  5  2 -1</clus>
<clus scale="   42.045">  1  3  2 -1</clus>
</clustering>
</event>
<event>
 6    0  0.6338511E+002  0.1035646E+03  0.7546771E-02  0.1272974E+00
          3   -1    0    0  503    0 -0.00000000000E+00  0.00000000000E+00  0.26347082057E+03  0.26347082057E+03  0.00000000000E+00 0.  1.
         21   -1    0    0  505  502  0.00000000000E+00 -0.00000000000E+00 -0.89369935486E+03  0.89369935486E+03  0.00000000000E+00 0.  1.
         21    1    1    2  503  504 -0.19557869109E+02 -0.42265424312E+02  0.24674101290E+01  0.46636514118E+02  0.00000000000E+00 0.  1.
         21    1    1    2  504  502  0.29891972954E+02 -0.68984355305E+02  0.61873480586E+02  0.97368880675E+02  0.00000000000E+00 0. -1.
         21    1    1    2  505  501  0.74084708186E+02  0.74440935934E+02 -0.83699481132E+03  0.84355812550E+03  0.00000000000E+00 0.  1.
          3    1    1    2  501    0 -0.84418812031E+02  0.36808843684E+02  0.14242538631E+03  0.16960665513E+03  0.00000000000E+00 0.  1.
<scales pt_clust_3="46.57120" pt_clust_4="86.29546" pt_clust_5="14000.00000" pt_clust_6="103.56460"></scales>
<clustering>
<clus scale="   46.571">  1  3  2 -1</clus>
<clus scale="   86.295">  1  4  2 -1</clus>
<clus scale="  103.565">  1  6  2 -1</clus>
<clus scale="  103.565">  2  3  1 -1</clus>
</clustering>
</event>
<event>
 6    0  0.6338511E+002  0.1044758E+03  0.7546771E-02  0.1271156E+00
         -1   -1    0    0    0  501 -0.00000000000E+00  0.00000000000E+00  0.23217514443E+04  0.23217514443E+04  0.00000000000E+00 0.  1.
         21   -1    0    0  501  502  0.00000000000E+00 -0.00000000000E+00 -0.27108353239E+02  0.27108353239E+02  0.00000000000E+00 0.  1.
         21    1    1    2  503  502  0.30579219375E+02  0.34333807761E+02  0.41891161498E+02  0.62199424632E+02  0.00000000000E+00 0.  1.
         21    1    1    2  504  505  0.87738250540E+02  0.21882408703E+02  0.62926196603E+03  0.63572593333E+03  0.00000000000E+00 0. -1.
         21    1    1    2  505  503 -0.11108802582E+03 -0.92481021309E+02  0.37494593982E+03  0.40184293769E+03  0.00000000000E+00 0.  1.
         -1    1    1    2    0  504 -0.72294440907E+01  0.36264804846E+02  0.12485440238E+04  0.12490915019E+04  0.00000000000E+00 0.  1.
<scales pt_clust_3="47.07933" pt_clust_4="104.47580" pt_clust_5="14000.00000" pt_clust_6="36.97838"></scales>
<clustering>
<clus scale="   36.978">  1  6  2 -1</clus>
<clus scale="   47.079">  2  3  1 -1</clus>
<clus scale="  104.476">  1  4  2 -1</clus>
<clus scale="   47.079">  2  3  1 -1</clus>
</clustering>
</event>
<event>
 6    0  0.6338511E+002  0.1179800E+03  0.7546771E-02  0.1246467E+00
         21   -1    0    0  504  502  0.00000000000E+00  0.00000000000E+00  0.10970171008E+03  0.10970171008E+03  0.00000000000E+00 0.  1.
          2   -1    0    0  505    0 -0.00000000000E+00 -0.00000000000E+00 -0.68282124048E+03  0.68282124048E+03  0.00000000000E+00 0. -1.
         21    1    1    2  503  501  0.19258231425E+01  0.82032152901E+02 -0.91071435000E+02  0.12258462048E+03  0.00000000000E+00 0.  1.
         21    1    1    2  504  503  0.29199702881E+02 -0.54211190929E+02 -0.13488544341E+02  0.63035043419E+02  0.00000000000E+00 0. -1.
         21    1    1    2  505  502  0.89002252800E+02 -0.84607362758E+01  0.29539836957E+02  0.94157246292E+02  0.00000000000E+00 0.  1.
          2    1    1    2  501    0 -0.12012777882E+03 -0.19360225695E+02 -0.49809938801E+03  0.51274604038E+03  0.00000000000E+00 0. -1.
<scales pt_clust_3="72.34809" pt_clust_4="61.57496" pt_clust_5="14000.00000" pt_clust_6="117.97996"></scales>
<clustering>
<clus scale="   61.575">  1  4  2 -1</clus>
<clus scale="   72.348">  1  3  2 -1</clus>
<clus scale="  117.980">  2  6  1 -1</clus>
<clus scale="   61.575">  1  3  2 -1</clus>
</clustering>
</event>
<event>
 6    0  0.6338511E+002  0.8156912E+02  0.7546771E-02  0.1324657E+00
          2   -1    0    0  503    0 -0.00000000000E+00  0.00000000000E+00  0.15855143343E+04  0.15855143343E+04  0.00000000000E+00 0. -1.
         21   -1    0    0  505  502  0.00000000000E+00 -0.00000000000E+00 -0.67324592274E+02  0.67324592274E+02  0.00000000000E+00 0. -1.
         21    1    1    2  503  504  0.18354309115E+02  0.12460922258E+03  0.88434815679E+02  0.15389949850E+03  0.00000000000E+00 0. -1.
         21    1    1    2  504  502  0.28499252263E+02 -0.10021497799E+02 -0.21980326102E+02  0.37360039256E+02  0.00000000000E+00 0. -1.
         21    1    1    2  505  501 -0.24699543213E+02 -0.37751696800E+02  0.13341613628E+03  0.14083722329E+03  0.00000000000E+00 0.  1.
          2    1    1    2  501    0 -0.22154018165E+02 -0.76836027982E+02  0.13183191162E+04  0.13207421655E+04  0.00000000000E+00 0. -1.
<scales pt_clust_3="81.56912" pt_clust_4="30.20990" pt_clust_5="44.49665" pt_clust_6="14000.00000"></scales>
<clustering>
<clus scale="   30.210">  2  4  1 -1</clus>
<clus scale="   44.497">  2  5  1 -1</clus>
<clus scale="   81.569">  2  3  1 -1</clus>
<clus scale="   30.210">  2  3  1 -1</clus>
</clustering>
</event>
<event>
 6    0  0.6338511E+002  0.1008682E+03  0.7546771E-02  0.1278481E+00
         21   -1    0    0  504  502  0.00000000000E+00  0.00000000000E+00  0.10176361798E+03  0.10176361798E+03  0.00000000000E+00 0. -1.
          2   -1    0    0  505    0 -0.00000000000E+00 -0.00000000000E+00 -0.96998374702E+03  0.96998374702E+03  0.00000000000E+00 0.  1.
         21    1    1    2  503  501  0.24734338883E+02  0.33571708447E+02 -0.14901751104E+03  0.15474193266E+03  0.00000000000E+00 0.  1.
         21    1    1    2  504  503  0.86691831046E+02 -0.49814893965E+01 -0.24376681444E+03  0.25877122837E+03  0.00000000000E+00 0.  1.
         21    1    1    2  505  502 -0.64972578203E+02 -0.47836073416E+02  0.72214454691E+02  0.10828043824E+03  0.00000000000E+00 0. -1.
          2    1    1    2  501    0 -0.46453591726E+02  0.19245854366E+02 -0.54765025824E+03  0.54995376574E+03  0.00000000000E+00 0.  1.
<scales pt_clust_3="40.88217" pt_clust_4="40.88217" pt_clust_5="81.81672" pt_clust_6="50.28259"></scales>
<clustering>
<clus scale="   40.882">  3  4 -1 -1</clus>
<clus scale="   50.283">  2  6  1 -1</clus>
<clus scale="   81.817">  1  5  2 -1</clus>
<clus scale="   81.817">  1  3  2 -1</clus>
</clustering>
</event>
<event>
 6    0  0.6338511E+002  0.7038156E+02  0.7546771E-02  0.1358800E+00
         21   -1    0    0  504  502  0.00000000000E+00  0.00000000000E+00  0.27569632168E+03  0.27569632168E+03  0.00000000000E+00 0. -1.
          1   -1    0    0  502    0 -0.00000000000E+00 -0.00000000000E+00 -0.18647814972E+04  0.18647814972E+04  0.00000000000E+00 0. -1.
         21    1    1    2  503  501  0.38826223544E+02  0.61601111942E+02 -0.51223199674E+03  0.51738166871E+03  0.00000000000E+00 0. -1.
         21    1    1    2  504  505  0.25808173258E+02  0.31352246700E+02  0.22813794733E+03  0.23172386194E+03  0.00000000000E+00 0. -1.
         21    1    1    2  505  503  0.96829596148E+01 -0.76506153828E+02  0.67622830963E+01  0.77412400513E+02  0.00000000000E+00 0. -1.
          1    1    1    2  501    0 -0.74317356416E+02 -0.16447204813E+02 -0.13117534092E+04  0.13139598878E+04  0.00000000000E+00 0. -1.
<scales pt_clust_3="14000.00000" pt_clust_4="40.60819" pt_clust_5="58.21915" pt_clust_6="70.38156"></scales>
<clustering>
<clus scale="   40.608">  1  4  2 -1</clus>
<clus scale="   58.219">  1  5  2 -1</clus>
<clus scale="   70.382">  2  6  1 -1</clus>
<clus scale="   40.608">  1  3  2 -1</clus>
</clustering>
</event>
<event>
 6    0  0.6338511E+002  0.4002328E+03  0.7546771E-02  0.1043699E+00
          1   -1    0    0  504    0 -0.00000000000E+00  0.00000000000E+00  0.73438870018E+03  0.73438870018E+03  0.00000000000E+00 0.  1.
         21   -1    0    0  505  502  0.00000000000E+00 -0.00000000000E+00 -0.41466523237E+03  0.41466523237E+03  0.00000000000E+00 0.  1.
         21    1    1    2  503  501 -0.40806231548E+02  0.38808168065E+03  0.27664257849E+03  0.47833425094E+03  0.00000000000E+00 0.  1.
         21    1    1    2  504  502  0.39291347868E+02 -0.39055862140E+03  0.23259094214E+02  0.39321855530E+03  0.00000000000E+00 0.  1.
         21    1    1    2  505  503  0.44704646184E+02 -0.30559700854E+02 -0.11773249941E+03  0.12958912811E+03  0.00000000000E+00 0.  1.
          1    1    1    2  501    0 -0.43189762504E+02  0.33036641607E+02  0.13755429451E+03  0.14791199820E+03  0.00000000000E+00 0.  1.
<scales pt_clust_3="400.23278" pt_clust_4="14000.00000" pt_clust_5="54.15165" pt_clust_6="53.41393"></scales>
<clustering>
<clus scale="   54.152">  2  5  1 -1</clus>
<clus scale="   53.414">  1  6  2 -1</clus>
<clus scale="  400.233">  1  3  2 -1</clus>
<clus scale="   54.152">  2  3  1 -1</clus>
</clustering>
</event>
<event>
 6    0  0.6338511E+002  0.8621383E+02  0.7546771E-02  0.1312288E+00
         21   -1    0    0  504  502  0.00000000000E+00  0.00000000000E+00  0.81026842604E+02  0.81026842604E+02  0.00000000000E+00 0.  1.
          1   -1    0    0  505    0 -0.00000000000E+00 -0.00000000000E+00 -0.58032815586E+03  0.58032815586E+03  0.00000000000E+00 0.  1.
         21    1    1    2  503  502 -0.49182701427E+02  0.23624184410E+02 -0.19060206077E+02  0.57795602466E+02  0.00000000000E+00 0.  1.
         21    1    1    2  504  501  0.51539913186E+02 -0.10984213450E+02  0.69795756787E+01  0.53157596569E+02  0.00000000000E+00 0.  1.
         21    1    1    2  505  503 -0.77019429448E+02 -0.10163871346E+02 -0.24164611484E+02  0.81358621186E+02  0.00000000000E+00 0.  1.
          1    1    1    2  501    0  0.74662217688E+02 -0.24760996133E+01 -0.46305607137E+03  0.46904317824E+03  0.00000000000E+00 0.  1.
<scales pt_clust_3="31.21515" pt_clust_4="52.69740" pt_clust_5="31.21515" pt_clust_6="77.75262"></scales>
<clustering>
<clus scale="   31.215">  3  5 -1 -1</clus>
<clus scale="   52.697">  1  4  2 -1</clus>
<clus scale="   77.753">  2  6  1 -1</clus>
<clus scale="   52.697">  1  3  2 -1</clus>
</clustering>
</event>
<event>
 6    0  0.6338511E+002  0.1267552E+03  0.7546771E-02  0.1232351E+00
          2   -1    0    0  505    0 -0.00000000000E+00  0.00000000000E+00  0.34747307494E+04  0.34747307494E+04  0.00000000000E+00 0.  1.
         21   -1    0    0  503  502  0.00000000000E+00 -0.00000000000E+00 -0.25377591762E+02  0.25377591762E+02  0.00000000000E+00 0. -1.
         21    1    1    2  503  501 -0.85143744767E+02  0.61402269129E+02  0.15164184234E+03  0.18443140805E+03  0.00000000000E+00 0. -1.
         21    1    1    2  504  502  0.35917076512E+02  0.33397099598E+01  0.11352570465E+03  0.11911874607E+03  0.00000000000E+00 0. -1.
         21    1    1    2  505  504  0.10257385216E+03 -0.70701673488E+02  0.65151949966E+03  0.66332328484E+03  0.00000000000E+00 0. -1.
          2    1    1    2  501    0 -0.53347183908E+02  0.59596943988E+01  0.25326661110E+04  0.25332349022E+04  0.00000000000E+00 0.  1.
<scales pt_clust_3="113.41465" pt_clust_4="30.45842" pt_clust_5="30.45842" pt_clust_6="53.67905"></scales>
<clustering>
<clus scale="   30.458">  4  5 -1 -1</clus>
<clus scale="   53.679">  1  6  2 -1</clus>
<clus scale="  113.415">  2  3  1 -1</clus>
<clus scale="  113.415">  2  3  1 -1</clus>
</clustering>
</event>
<event>
 6    0  0.6338511E+002  0.1293075E+03  0.7546771E-02  0.1228487E+00
         21   -1    0    0  503  502  0.00000000000E+00  0.00000000000E+00  0.82050595426E+02  0.82050595426E+02  0.00000000000E+00 0.  1.
          2   -1    0    0  505    0 -0.00000000000E+00 -0.00000000000E+00 -0.21633660697E+04  0.21633660697E+04  0.00000000000E+00 0.  1.
         21    1    1    2  503  501  0.57545711867E+02  0.10137448046E+03 -0.26267391516E+03  0.28737759125E+03  0.00000000000E+00 0.  1.
         21    1    1    2  504  502 -0.21602784815E+02  0.20862308658E+02  0.56507981548E+02  0.63992720000E+02  0.00000000000E+00 0.  1.
         21    1    1    2  505  504 -0.73363651712E+02 -0.12846417291E+03 -0.58754648581E+03  0.60588459470E+03  0.00000000000E+00 0.  1.
          2    1    1    2  501    0  0.37420724661E+02  0.62273837929E+01 -0.12876030549E+04  0.12881617592E+04  0.00000000000E+00 0.  1.
<scales pt_clust_3="129.30755" pt_clust_4="30.03192" pt_clust_5="14000.00000" pt_clust_6="37.70744"></scales>
<clustering>
<clus scale="   30.032">  1  4  2 -1</clus>
<clus scale="   37.707">  2  6  1 -1</clus>
<clus scale="  129.308">  1  3  2 -1</clus>
<clus scale="   30.032">  1  3  2 -1</clus>
</clustering>
</event>
<event>
 6    0  0.6338511E+002  0.1176313E+03  0.7546771E-02  0.1247057E+00
          2   -1    0    0  503    0 -0.00000000000E+00  0.00000000000E+00  0.13905802807E+04  0.13905802807E+04  0.00000000000E+00 0.  1.
         21   -1    0    0  505  502  0.00000000000E+00 -0.00000000000E+00 -0.53350172378E+02  0.53350172378E+02  0.00000000000E+00 0.  1.
         21    1    1    2  503  504 -0.25921364865E+02 -0.36266471252E+02  0.14248609494E+03  0.14929655503E+03  0.00000000000E+00 0. -1.
         21    1    1    2  504  502  0.12445383838E+03 -0.68164255883E+02  0.27715957794E+03  0.31137205288E+03  0.00000000000E+00 0.  1.
         21    1    1    2  505  501 -0.37671624875E+02  0.11243963782E+03  0.79122726863E+02  0.14255605698E+03  0.00000000000E+00 0.  1.
          2    1    1    2  501    0 -0.60860848642E+02 -0.80089106858E+01  0.83846170855E+03  0.84070578817E+03  0.00000000000E+00 0.  1.
<scales pt_clust_3="44.57773" pt_clust_4="117.63132" pt_clust_5="14000.00000" pt_clust_6="84.80839"></scales>
<clustering>
<clus scale="   44.578">  1  3  2 -1</clus>
<clus scale="   84.808">  1  6  2 -1</clus>
<clus scale="  117.631">  1  4  2 -1</clus>
<clus scale="  117.631">  2  3  1 -1</clus>
</clustering>
</event>
<event>
 6    0  0.6338511E+002  0.9835786E+02  0.7546771E-02  0.1283788E+00
         21   -1    0    0  505  502  0.00000000000E+00  0.00000000000E+00  0.42256993300E+02  0.42256993300E+02  0.00000000000E+00 0. -1.
          1   -1    0    0  504    0 -0.00000000000E+00 -0.00000000000E+00 -0.13511785419E+04  0.13511785419E+04  0.00000000000E+00 0.  1.
         21    1    1    2  503  502  0.19079392810E+01 -0.48169603880E+02  0.32991162354E+01  0.48320131811E+02  0.00000000000E+00 0. -1.
         21    1    1    2  504  503 -0.30930410015E+02  0.11589551431E+03 -0.77903878875E+03  0.78821944589E+03  0.00000000000E+00 0.  1.
         21    1    1    2  505  501 -0.62125964951E+01 -0.63874631125E+02 -0.81070287066E+02  0.10339708072E+03  0.00000000000E+00 0. -1.
          1    1    1    2  501    0  0.35235067229E+02 -0.38512793050E+01 -0.45211158900E+03  0.45349887677E+03  0.00000000000E+00 0.  1.
<scales pt_clust_3="48.34672" pt_clust_4="98.35786" pt_clust_5="14000.00000" pt_clust_6="35.44492"></scales>
<clustering>
<clus scale="   35.445">  2  6  1 -1</clus>
<clus scale="   48.347">  1  3  2 -1</clus>
<clus scale="   98.358">  2  4  1 -1</clus>
<clus scale="   48.347">  1  3  2 -1</clus>
</clustering>
</event>
<event>
 6    0  0.6338511E+002  0.2466450E+03  0.7546771E-02  0.1115444E+00
         21   -1    0    0  504  502  0.00000000000E+00  0.00000000000E+00  0.43179828698E+03  0.43179828698E+03  0.00000000000E+00 0.  1.
          1   -1    0    0  503    0 -0.00000000000E+00 -0.00000000000E+00 -0.34714691114E+03  0.34714691114E+03  0.00000000000E+00 0.  1.
         21    1    1    2  503  502 -0.77450507132E+02 -0.25427903129E+03 -0.16799134439E+03  0.31444792669E+03  0.00000000000E+00 0.  1.
         21    1    1    2  504  505  0.77285308516E+02  0.18109449649E+03  0.29787466795E+03  0.35706799545E+03  0.00000000000E+00 0.  1.
         21    1    1    2  505  501  0.18996411448E+01  0.34479250116E+02  0.13493740709E+02  0.37074362616E+02  0.00000000000E+00 0. -1.
          1    1    1    2  501    0 -0.17344425286E+01  0.38705284681E+02 -0.58725688420E+02  0.70354913357E+02  0.00000000000E+00 0.  1.
<scales pt_clust_3="234.90026" pt_clust_4="31.49408" pt_clust_5="31.49408" pt_clust_6="38.74413"></scales>
<clustering>
<clus scale="   31.494">  4  5 -1 -1</clus>
<clus scale="   38.744">  2  6  1 -1</clus>
<clus scale="  234.900">  2  3  1 -1</clus>
<clus scale="  246.645">  1  3  2 -1</clus>
</clustering>
</event>
<event>
 6    0  0.6338511E+002  0.6891927E+02  0.7546771E-02  0.1363807E+00
         21   -1    0    0  504  502  0.00000000000E+00  0.00000000000E+00  0.25379219473E+03  0.25379219473E+03  0.00000000000E+00 0.  1.
          2   -1    0    0  503    0 -0.00000000000E+00 -0.00000000000E+00 -0.72149495536E+03  0.72149495536E+03  0.00000000000E+00 0. -1.
         21    1    1    2  503  502  0.60832025951E+02  0.64919518889E+02 -0.65569410769E+02  0.11051889858E+03  0.00000000000E+00 0.  1.
         21    1    1    2  504  505 -0.40848982832E+02 -0.54017824137E+02  0.20811020806E+03  0.21885251523E+03  0.00000000000E+00 0.  1.
         21    1    1    2  505  501 -0.47590809959E+02 -0.36322148138E+02 -0.34795594937E+02  0.69245339662E+02  0.00000000000E+00 0.  1.
          2    1    1    2  501    0  0.27607766840E+02  0.25420453386E+02 -0.57544796298E+03  0.57667039662E+03  0.00000000000E+00 0. -1.
<scales pt_clust_3="68.91927" pt_clust_4="14000.00000" pt_clust_5="46.51814" pt_clust_6="37.52850"></scales>
<clustering>
<clus scale="   37.528">  2  6  1 -1</clus>
<clus scale="   46.518">  2  5  1 -1</clus>
<clus scale="   68.919">  2  3  1 -1</clus>
<clus scale="   68.919">  1  3  2 -1</clus>
</clustering>
</event>
<event>
 6    0  0.6338511E+002  0.2263723E+03  0.7546771E-02  0.1129219E+00
          1   -1    0    0  505    0 -0.00000000000E+00  0.00000000000E+00  0.20238837075E+04  0.20238837075E+04  0.00000000000E+00 0.  1.
         21   -1    0    0  503  502  0.00000000000E+00 -0.00000000000E+00 -0.16606043233E+03  0.16606043233E+03  0.00000000000E+00 0.  1.
         21    1    1    2  503  501 -0.12975453480E+02  0.10494641886E+03  0.69723547527E+02  0.12666288448E+03  0.00000000000E+00 0.  1.
         21    1    1    2  504  502  0.16146922690E+02 -0.38478022037E+02 -0.39142981426E+02  0.57214109161E+02  0.00000000000E+00 0.  1.
         21    1    1    2  505  504 -0.96327922896E+02 -0.26721910316E+03  0.16365525971E+03  0.32782336991E+03  0.00000000000E+00 0.  1.
          1    1    1    2  501    0  0.93156453686E+02  0.20075070634E+03  0.16635874493E+04  0.16782437763E+04  0.00000000000E+00 0.  1.
<scales pt_clust_3="96.08319" pt_clust_4="41.72866" pt_clust_5="226.37227" pt_clust_6="14000.00000"></scales>
<clustering>
<clus scale="   41.729">  2  4  1 -1</clus>
<clus scale="   96.083">  2  3  1 -1</clus>
<clus scale="  226.372">  2  5  1 -1</clus>
<clus scale="   41.729">  2  3  1 -1</clus>
</clustering>
</event>
<event>
 6    0  0.6338511E+002  0.8441065E+02  0.7546771E-02  0.1316981E+00
          1   -1    0    0  505    0 -0.00000000000E+00  0.00000000000E+00  0.20253235975E+04  0.20253235975E+04  0.00000000000E+00 0. -1.
         21   -1    0    0  503  502  0.00000000000E+00 -0.00000000000E+00 -0.14640613950E+02  0.14640613950E+02  0.00000000000E+00 0. -1.
         21    1    1    2  503  504  0.40066937024E+02  0.75695705256E+02  0.30743441260E+03  0.31914121841E+03  0.00000000000E+00 0. -1.
         21    1    1    2  504  501 -0.37578304078E+02 -0.64323613686E+02  0.57988525939E+03  0.58465081055E+03  0.00000000000E+00 0. -1.
         21    1    1    2  505  502 -0.49478312017E+02  0.46681200312E+02  0.23423347297E+03  0.24391096261E+03  0.00000000000E+00 0. -1.
          1    1    1    2  501    0  0.46989679071E+02 -0.58053291882E+02  0.88912983861E+03  0.89226121990E+03  0.00000000000E+00 0. -1.
<scales pt_clust_3="14000.00000" pt_clust_4="84.41065" pt_clust_5="68.02380" pt_clust_6="63.93566"></scales>
<clustering>
<clus scale="   68.024">  2  5  1 -1</clus>
<clus scale="   63.936">  1  6  2 -1</clus>
<clus scale="   84.411">  1  4  2 -1</clus>
<clus scale="   68.024">  2  3  1 -1</clus>
</clustering>
</event>
<event>
 6    0  0.6338511E+002  0.1005262E+03  0.7546771E-02  0.1279193E+00
         -3   -1    0    0    0  501 -0.00000000000E+00  0.00000000000E+00  0.16454461876E+04  0.16454461876E+04  0.00000000000E+00 0.  1.
         21   -1    0    0  505  502  0.00000000000E+00 -0.00000000000E+00 -0.53334049578E+02  0.53334049578E+02  0.00000000000E+00 0.  1.
         21    1    1    2  503  502 -0.60049356691E+02 -0.85360188697E+02  0.18174387665E+03  0.20957844296E+03  0.00000000000E+00 0.  1.
         21    1    1    2  504  503  0.42400398423E+02  0.94552947117E+02  0.16215326959E+03  0.19243631787E+03  0.00000000000E+00 0.  1.
         21    1    1    2  505  501  0.37630747246E+02  0.17150309369E+02 -0.62852890103E+01  0.41829548260E+02  0.00000000000E+00 0.  1.
         -3    1    1    2    0  504 -0.19981788977E+02 -0.26343067789E+02  0.12545002808E+04  0.12549359281E+04  0.00000000000E+00 0.  1.
<scales pt_clust_3="100.52621" pt_clust_4="14000.00000" pt_clust_5="40.03706" pt_clust_6="33.06402"></scales>
<clustering>
<clus scale="   33.064">  1  6  2 -1</clus>
<clus scale="   40.037">  2  5  1 -1</clus>
<clus scale="  100.526">  2  3  1 -1</clus>
<clus scale="   40.037">  2  3  1 -1</clus>
</clustering>
</event>
<event>
 6    0  0.6338511E+002  0.8139604E+02  0.7546771E-02  0.1325136E+00
         21   -1    0    0  503  502  0.00000000000E+00  0.00000000000E+00  0.23319364713E+02  0.23319364713E+02  0.00000000000E+00 0.  1.
          2   -1    0    0  505    0 -0.00000000000E+00 -0.00000000000E+00 -0.21394201216E+04  0.21394201216E+04  0.00000000000E+00 0. -1.
         21    1    1    2  503  501 -0.14115848409E+02  0.38792653903E+02 -0.49450769407E+02  0.64416657536E+02  0.00000000000E+00 0. -1.
         21    1    1    2  504  502 -0.41328557375E+02 -0.86622446621E+01 -0.86476304260E+02  0.96235312312E+02  0.00000000000E+00 0. -1.
         21    1    1    2  505  504 -0.79372205244E+01 -0.84048651701E+02 -0.16814018933E+03  0.18814435572E+03  0.00000000000E+00 0.  1.
          2    1    1    2  501    0  0.63381626309E+02  0.53918242460E+02 -0.18120334939E+04  0.18139431608E+04  0.00000000000E+00 0. -1.
<scales pt_clust_3="41.28108" pt_clust_4="45.79629" pt_clust_5="14000.00000" pt_clust_6="81.39604"></scales>
<clustering>
<clus scale="   41.281">  1  3  2 -1</clus>
<clus scale="   45.796">  1  4  2 -1</clus>
<clus scale="   81.396">  2  6  1 -1</clus>
<clus scale="   41.281">  1  3  2 -1</clus>
</clustering>
</event>
<event>
 6    0  0.6338511E+002  0.9657908E+02  0.7546771E-02  0.1287659E+00
          1   -1    0    0  504    0 -0.00000000000E+00  0.00000000000E+00  0.50355508873E+02  0.50355508873E+02  0.00000000000E+00 0.  1.
         21   -1    0    0  501  502  0.00000000000E+00 -0.00000000000E+00 -0.18688695452E+04  0.18688695452E+04  0.00000000000E+00 0. -1.
         21    1    1    2  503  505 -0.14739825974E+03 -0.46382697387E+01 -0.73858011641E+03  0.75315891343E+03  0.00000000000E+00 0. -1.
         21    1    1    2  504  503  0.97592717014E+01 -0.39333254765E+02 -0.47849719454E+01  0.40807404611E+02  0.00000000000E+00 0. -1.
         21    1    1    2  505  502  0.55803336046E+02  0.15763408921E+02 -0.10220830789E+04  0.10237266811E+04  0.00000000000E+00 0. -1.
          1    1    1    2  501    0  0.81835651991E+02  0.28208115582E+02 -0.53065869051E+02  0.10153205494E+03  0.00000000000E+00 0.  1.
<scales pt_clust_3="96.57908" pt_clust_4="40.52590" pt_clust_5="57.96313" pt_clust_6="14000.00000"></scales>
<clustering>
<clus scale="   40.526">  1  4  2 -1</clus>
<clus scale="   57.963">  2  5  1 -1</clus>
<clus scale="   96.579">  2  3  1 -1</clus>
<clus scale="   57.963">  2  3  1 -1</clus>
</clustering>
</event>
<event>
 6    0  0.6338511E+002  0.6983630E+02  0.7546771E-02  0.1360651E+00
          2   -1    0    0  505    0 -0.00000000000E+00  0.00000000000E+00  0.97104053290E+03  0.97104053290E+03  0.00000000000E+00 0. -1.
         21   -1    0    0  503  502  0.00000000000E+00 -0.00000000000E+00 -0.43300854899E+02  0.43300854899E+02  0.00000000000E+00 0.  1.
         21    1    1    2  503  504 -0.54954062219E+02 -0.36783269535E+02  0.48604358672E+01  0.66306724462E+02  0.00000000000E+00 0.  1.
         21    1    1    2  504  501 -0.39788504721E+02  0.15344985086E+02  0.13483623606E+03  0.14141924985E+03  0.00000000000E+00 0. -1.
         21    1    1    2  505  502  0.12717304447E+03  0.31082307224E+02  0.51056536199E+03  0.52708261394E+03  0.00000000000E+00 0. -1.
          2    1    1    2  501    0 -0.32430477530E+02 -0.96440227754E+01  0.27747764409E+03  0.27953279954E+03  0.00000000000E+00 0. -1.
<scales pt_clust_3="69.83630" pt_clust_4="48.16462" pt_clust_5="14000.00000" pt_clust_6="33.83405"></scales>
<clustering>
<clus scale="   33.834">  1  6  2 -1</clus>
<clus scale="   48.165">  1  4  2 -1</clus>
<clus scale="   69.836">  2  3  1 -1</clus>
<clus scale="   69.836">  2  3  1 -1</clus>
</clustering>
</event>
<event>
 6    0  0.6338511E+002  0.9686431E+02  0.7546771E-02  0.1287032E+00
         21   -1    0    0  504  502  0.00000000000E+00  0.00000000000E+00  0.52786475657E+02  0.52786475657E+02  0.00000000000E+00 0.  1.
          2   -1    0    0  505    0 -0.00000000000E+00 -0.00000000000E+00 -0.18125958267E+04  0.18125958267E+04  0.00000000000E+00 0. -1.
         21    1    1    2  503  502  0.81746060321E+02 -0.51589242167E+02 -0.86206421677E+00  0.96667530433E+02  0.00000000000E+00 0.  1.
         21    1    1    2  504  501 -0.10366414350E+03  0.23728089756E+02 -0.91774507822E+03  0.92388598079E+03  0.00000000000E+00 0. -1.
         21    1    1    2  505  503  0.30222437719E+02 -0.75974910781E+01 -0.18415419789E+03  0.18677228438E+03  0.00000000000E+00 0.  1.
          2    1    1    2  501    0 -0.83043545362E+01  0.35458643489E+02 -0.65704801069E+03  0.65805650674E+03  0.00000000000E+00 0. -1.
<scales pt_clust_3="14000.00000" pt_clust_4="96.86431" pt_clust_5="31.16276" pt_clust_6="32.62341"></scales>
<clustering>
<clus scale="   31.163">  2  5  1 -1</clus>
<clus scale="   32.623">  2  6  1 -1</clus>
<clus scale="   96.864">  2  4  1 -1</clus>
<clus scale="   96.864">  1  3  2 -1</clus>
</clustering>
</event>
<event>
 6    0  0.6338511E+002  0.9128747E+02  0.7546771E-02  0.1299764E+00
          1   -1    0    0  505    0 -0.00000000000E+00  0.00000000000E+00  0.68754275240E+03  0.68754275240E+03  0.00000000000E+00 0. -1.
         21   -1    0    0  503  502  0.00000000000E+00 -0.00000000000E+00 -0.11626924123E+04  0.11626924123E+04  0.00000000000E+00 0.  1.
         21    1    1    2  503  501  0.51202816706E+02  0.90586980933E+02 -0.61750314718E+02  0.12099930132E+03  0.00000000000E+00 0.  1.
         21    1    1    2  504  502 -0.70349563313E+02 -0.57531022133E+02 -0.10507853376E+04  0.10547078767E+04  0.00000000000E+00 0.  1.
         21    1    1    2  505  504 -0.27117614239E+02 -0.16098426133E+02 -0.35188371957E+01  0.31731790702E+02  0.00000000000E+00 0. -1.
          1    1    1    2  501    0  0.46264360846E+02 -0.16957532667E+02  0.64090482957E+03  0.64279619598E+03  0.00000000000E+00 0. -1.
<scales pt_clust_3="91.28747" pt_clust_4="14000.00000" pt_clust_5="31.53608" pt_clust_6="38.21346"></scales>
<clustering>
<clus scale="   31.536">  1  5  2 -1</clus>
<clus scale="   38.213">  1  6  2 -1</clus>
<clus scale="   91.287">  1  3  2 -1</clus>
<clus scale="   91.287">  2  3  1 -1</clus>
</clustering>
</event>
<event>
 6    0  0.6338511E+002  0.1599636E+03  0.7546771E-02  0.1188738E+00
         21   -1    0    0  503  502  0.00000000000E+00  0.00000000000E+00  0.30847869540E+03  0.30847869540E+03  0.00000000000E+00 0. -1.
         -2   -1    0    0    0  501 -0.00000000000E+00 -0.00000000000E+00 -0.96093801265E+03  0.96093801265E+03  0.00000000000E+00 0.  1.
         21    1    1    2  503  501  0.25794842688E+03  0.93672366061E+02  0.66154335581E+02  0.28229116034E+03  0.00000000000E+00 0. -1.
         21    1    1    2  504  502 -0.13587528512E+03  0.25531706184E+00  0.63209742125E+02  0.14985869942E+03  0.00000000000E+00 0. -1.
         21    1    1    2  505  504 -0.88233501370E+02 -0.93820735831E+02 -0.12468957835E+03  0.17926229996E+03  0.00000000000E+00 0. -1.
         -2    1    1    2    0  505 -0.33839640390E+02 -0.10694729176E+00 -0.65713381660E+03  0.65800454833E+03  0.00000000000E+00 0.  1.
<scales pt_clust_3="159.96362" pt_clust_4="140.70817" pt_clust_5="14000.00000" pt_clust_6="33.83981"></scales>
<clustering>
<clus scale="   33.840">  2  6  1 -1</clus>
<clus scale="  140.708">  1  4  2 -1</clus>
<clus scale="  159.964">  1  3  2 -1</clus>
<clus scale="  140.708">  1  3  2 -1</clus>
</clustering>
</event>
<event>
 6    0  0.6338511E+002  0.1212100E+03  0.7546771E-02  0.1241114E+00
         21   -1    0    0  505  502  0.00000000000E+00  0.00000000000E+00  0.70895221971E+03  0.70895221971E+03  0.00000000000E+00 0.  1.
          3   -1    0    0  504    0 -0.00000000000E+00 -0.00000000000E+00 -0.62515022681E+02  0.62515022681E+02  0.00000000000E+00 0.  1.
         21    1    1    2  503  501  0.25445817294E+02  0.80362503385E+02  0.26706769107E+03  0.28005494672E+03  0.00000000000E+00 0.  1.
         21    1    1    2  504  502  0.26126981964E+02 -0.10502545272E+03  0.18702894184E+03  0.21608514524E+03  0.00000000000E+00 0.  1.
         21    1    1    2  505  503 -0.10067639992E+02  0.33669503658E+02  0.22120291777E+03  0.22397706061E+03  0.00000000000E+00 0.  1.
          3    1    1    2  501    0 -0.41505159265E+02 -0.90065543205E+01 -0.28862353651E+02  0.51350089821E+02  0.00000000000E+00 0.  1.
<scales pt_clust_3="31.63351" pt_clust_4="110.86735" pt_clust_5="31.63351" pt_clust_6="42.47112"></scales>
<clustering>
<clus scale="   31.634">  3  5 -1 -1</clus>
<clus scale="   42.471">  2  6  1 -1</clus>
<clus scale="  110.867">  2  4  1 -1</clus>
<clus scale="  121.210">  1  3  2 -1</clus>
</clustering>
</event>
<event>
 6    0  0.6338511E+002  0.1299684E+03  0.7546771E-02  0.1227503E+00
          2   -1    0    0  505    0 -0.00000000000E+00  0.00000000000E+00  0.10721852418E+04  0.10721852418E+04  0.00000000000E+00 0. -1.
         21   -1    0    0  503  502  0.00000000000E+00 -0.00000000000E+00 -0.18568247071E+03  0.18568247071E+03  0.00000000000E+00 0.  1.
         21    1    1    2  503  501  0.63137854822E+02 -0.16342715500E+03  0.63947729133E+02  0.18650505560E+03  0.00000000000E+00 0.  1.
         21    1    1    2  504  502 -0.18726657616E+02  0.42441422027E+02 -0.11302765490E+03  0.12217697320E+03  0.00000000000E+00 0.  1.
         21    1    1    2  505  504 -0.67496967029E+02  0.84118048560E+02  0.50363926737E+03  0.51505747086E+03  0.00000000000E+00 0.  1.
          2    1    1    2  501    0  0.23085769824E+02  0.36867684412E+02  0.43194342946E+03  0.43412821283E+03  0.00000000000E+00 0. -1.
<scales pt_clust_3="14000.00000" pt_clust_4="46.56468" pt_clust_5="129.96835" pt_clust_6="43.49918"></scales>
<clustering>
<clus scale="   43.499">  1  6  2 -1</clus>
<clus scale="   46.565">  2  4  1 -1</clus>
<clus scale="  129.968">  1  5  2 -1</clus>
<clus scale="   46.565">  2  3  1 -1</clus>
</clustering>
</event>
<event>
 6    0  0.6338511E+002  0.3236740E+03  0.7546771E-02  0.1073971E+00
         21   -1    0    0  505  502  0.00000000000E+00  0.00000000000E+00  0.54385891516E+03  0.54385891516E+03  0.00000000000E+00 0. -1.
          2   -1    0    0  504    0 -0.00000000000E+00 -0.00000000000E+00 -0.24342150444E+04  0.24342150444E+04  0.00000000000E+00 0. -1.
         21    1    1    2  503  501  0.19622380436E+02 -0.15185526958E+03 -0.41589032556E+03  0.44318147932E+03  0.00000000000E+00 0. -1.
         21    1    1    2  504  502  0.17119680776E+03  0.32563483651E+03  0.32865083884E+03  0.49331305233E+03  0.00000000000E+00 0. -1.
         21    1    1    2  505  503 -0.23346844812E+03 -0.13689872461E+03 -0.35384643320E+02  0.27294843844E+03  0.00000000000E+00 0.  1.
          2    1    1    2  501    0  0.42649259917E+02 -0.36880842313E+02 -0.17677319992E+04  0.17686309894E+04  0.00000000000E+00 0. -1.
<scales pt_clust_3="181.85305" pt_clust_4="14000.00000" pt_clust_5="323.67401" pt_clust_6="56.38400"></scales>
<clustering>
<clus scale="   56.384">  2  6  1 -1</clus>
<clus scale="  181.853">  2  3  1 -1</clus>
<clus scale="  323.674">  2  5  1 -1</clus>
<clus scale="  323.674">  1  3  2 -1</clus>
</clustering>
</event>
<event>
 6    0  0.6338511E+002  0.1273458E+03  0.7546771E-02  0.1231448E+00
          2   -1    0    0  503    0 -0.00000000000E+00  0.00000000000E+00  0.43465318176E+04  0.43465318176E+04  0.00000000000E+00 0.  1.
         21   -1    0    0  504  502  0.00000000000E+00 -0.00000000000E+00 -0.76116180244E+03  0.76116180244E+03  0.00000000000E+00 0.  1.
         21    1    1    2  503  502  0.39984343865E+02  0.25796071063E+01 -0.68778142350E+03  0.68894752241E+03  0.00000000000E+00 0.  1.
         21    1    1    2  504  505 -0.71203949641E+01  0.12520869385E+03  0.62897341090E+00  0.12541256974E+03  0.00000000000E+00 0. -1.
         21    1    1    2  505  501  0.49295125759E+02 -0.12064259154E+03  0.41615666246E+03  0.43608601448E+03  0.00000000000E+00 0. -1.
          2    1    1    2  501    0 -0.82159074659E+02 -0.71457094191E+01  0.38563658028E+04  0.38572475134E+04  0.00000000000E+00 0.  1.
<scales pt_clust_3="40.06747" pt_clust_4="127.34576" pt_clust_5="14000.00000" pt_clust_6="82.22665"></scales>
<clustering>
<clus scale="   40.067">  2  3  1 -1</clus>
<clus scale="   82.227">  1  6  2 -1</clus>
<clus scale="  127.346">  2  4  1 -1</clus>
<clus scale="   40.067">  2  3  1 -1</clus>
</clustering>
</event>
<event>
 6    0  0.6338511E+002  0.9980786E+02  0.7546771E-02  0.1280700E+00
          1   -1    0    0  503    0 -0.00000000000E+00  0.00000000000E+00  0.87096740639E+03  0.87096740639E+03  0.00000000000E+00 0.  1.
         21   -1    0    0  504  502  0.00000000000E+00 -0.00000000000E+00 -0.15578496313E+03  0.15578496313E+03  0.00000000000E+00 0.  1.
         21    1    1    2  503  505 -0.12873454250E+02 -0.93601569524E+02  0.39737144967E+03  0.40844956684E+03  0.00000000000E+00 0.  1.
         21    1    1    2  504  501  0.75630732599E+02  0.35075607713E+02  0.27232460015E+02  0.87703550945E+02  0.00000000000E+00 0.  1.
         21    1    1    2  505  502 -0.25486379273E+02  0.69274750835E+02 -0.10762794879E+03  0.13050793843E+03  0.00000000000E+00 0.  1.
          1    1    1    2  501    0 -0.37270899076E+02 -0.10748789024E+02  0.39820648237E+03  0.40009131331E+03  0.00000000000E+00 0.  1.
<scales pt_clust_3="14000.00000" pt_clust_4="99.80786" pt_clust_5="73.88766" pt_clust_6="38.78990"></scales>
<clustering>
<clus scale="   38.790">  1  6  2 -1</clus>
<clus scale="   73.888">  2  5  1 -1</clus>
<clus scale="   99.808">  2  4  1 -1</clus>
<clus scale="   73.888">  2  3  1 -1</clus>
</clustering>
</event>
<event>
 6    0  0.6338511E+002  0.9193626E+02  0.7546771E-02  0.1298229E+00
          1   -1    0    0  503    0 -0.00000000000E+00  0.00000000000E+00  0.18093532985E+04  0.18093532985E+04  0.00000000000E+00 0.  1.
         21   -1    0    0  504  502  0.00000000000E+00 -0.00000000000E+00 -0.98191002365E+02  0.98191002365E+02  0.00000000000E+00 0.  1.
         21    1    1    2  503  502  0.45765712320E+02  0.90662604932E+02  0.63531384875E+02  0.11979334381E+03  0.00000000000E+00 0.  1.
         21    1    1    2  504  505  0.31914620986E+02 -0.83498455150E+01 -0.37024493268E+02  0.49589071927E+02  0.00000000000E+00 0.  1.
         21    1    1    2  505  501 -0.88182713811E+02 -0.39765814496E+02  0.61963120178E+02  0.11487793208E+03  0.00000000000E+00 0.  1.
          1    1    1    2  501    0  0.10502380505E+02 -0.42546944921E+02  0.16226922843E+04  0.16232839530E+04  0.00000000000E+00 0.  1.
<scales pt_clust_3="91.93626" pt_clust_4="32.98883" pt_clust_5="14000.00000" pt_clust_6="43.90919"></scales>
<clustering>
<clus scale="   32.989">  2  4  1 -1</clus>
<clus scale="   43.909">  1  6  2 -1</clus>
<clus scale="   91.936">  1  3  2 -1</clus>
<clus scale="   32.989">  2  3  1 -1</clus>
</clustering>
</event>
<event>
 6    0  0.6338511E+002  0.1283954E+03  0.7546771E-02  0.1229856E+00
         21   -1    0    0  504  502  0.00000000000E+00  0.00000000000E+00  0.22443883986E+04  0.22443883986E+04  0.00000000000E+00 0. -1.
          2   -1    0    0  505    0 -0.00000000000E+00 -0.00000000000E+00 -0.13443291050E+04  0.13443291050E+04  0.00000000000E+00 0.  1.
         21    1    1    2  503  502 -0.70327048893E+01  0.39987816642E+02  0.20750550539E+04  0.20754522305E+04  0.00000000000E+00 0. -1.
         21    1    1    2  504  501  0.12509312308E+03  0.44868613546E+02  0.93044706985E+02  0.16223069815E+03  0.00000000000E+00 0.  1.
         21    1    1    2  505  503 -0.65472897377E+02 -0.96195003459E+02 -0.41841859644E+02  0.12365646041E+03  0.00000000000E+00 0.  1.
          2    1    1    2  501    0 -0.52587520817E+02  0.11338573271E+02 -0.12261986076E+04  0.12273781145E+04  0.00000000000E+00 0.  1.
<scales pt_clust_3="40.60153" pt_clust_4="14000.00000" pt_clust_5="128.39544" pt_clust_6="53.84953"></scales>
<clustering>
<clus scale="   40.602">  1  3  2 -1</clus>
<clus scale="   53.850">  2  6  1 -1</clus>
<clus scale="  128.395">  2  5  1 -1</clus>
<clus scale="   40.602">  1  3  2 -1</clus>
</clustering>
</event>
<event>
 6    0  0.6338511E+002  0.6963475E+02  0.7546771E-02  0.1361340E+00
          2   -1    0    0  504    0 -0.00000000000E+00  0.00000000000E+00  0.14377519291E+04  0.14377519291E+04  0.00000000000E+00 0. -1.
         21   -1    0    0  503  502  0.00000000000E+00 -0.00000000000E+00 -0.64477220523E+03  0.64477220523E+03  0.00000000000E+00 0. -1.
         21    1    1    2  503  505 -0.56903082918E+02 -0.17531579351E+02 -0.43137812611E+03  0.43546802960E+03  0.00000000000E+00 0. -1.
         21    1    1    2  504  502 -0.11461391810E+02  0.29028279859E+02 -0.63377945844E+02  0.70645371775E+02  0.00000000000E+00 0. -1.
         21    1    1    2  505  501  0.80003123154E+02 -0.80013697483E+02 -0.12117363286E+03  0.16578824084E+03  0.00000000000E+00 0. -1.
          2    1    1    2  501    0 -0.11638648426E+02  0.68516996975E+02  0.14089094287E+04  0.14106224921E+04  0.00000000000E+00 0. -1.
<scales pt_clust_3="65.63856" pt_clust_4="31.20905" pt_clust_5="69.63475" pt_clust_6="14000.00000"></scales>
<clustering>
<clus scale="   31.209">  2  4  1 -1</clus>
<clus scale="   65.639">  2  3  1 -1</clus>
<clus scale="   69.635">  2  5  1 -1</clus>
<clus scale="   31.209">  2  3  1 -1</clus>
</clustering>
</event>
<event>
 6    0  0.6338511E+002  0.8370272E+02  0.7546771E-02  0.1318860E+00
         21   -1    0    0  501  502  0.00000000000E+00  0.00000000000E+00  0.15352901999E+03  0.15352901999E+03  0.00000000000E+00 0. -1.
          2   -1    0    0  504    0 -0.00000000000E+00 -0.00000000000E+00 -0.28646295835E+04  0.28646295835E+04  0.00000000000E+00 0.  1.
         21    1    1    2  503  502  0.86520704041E+00 -0.10161403409E+03  0.10971940229E+03  0.14954767717E+03  0.00000000000E+00 0. -1.
         21    1    1    2  504  505  0.48110240587E+02  0.14851572339E+02 -0.24078426329E+03  0.24599232895E+03  0.00000000000E+00 0.  1.
         21    1    1    2  505  503 -0.24750683190E+02  0.49544363776E+02 -0.15243776092E+02  0.57442258051E+02  0.00000000000E+00 0.  1.
          2    1    1    2  501    0 -0.24224764437E+02  0.37218097970E+02 -0.25647919264E+04  0.25651763393E+04  0.00000000000E+00 0.  1.
<scales pt_clust_3="83.70272" pt_clust_4="53.29978" pt_clust_5="14000.00000" pt_clust_6="44.40750"></scales>
<clustering>
<clus scale="   44.407">  2  6  1 -1</clus>
<clus scale="   53.300">  2  4  1 -1</clus>
<clus scale="   83.703">  1  3  2 -1</clus>
<clus scale="   83.703">  1  3  2 -1</clus>
</clustering>
</event>
<event>
 6    0  0.6338511E+002  0.1595668E+03  0.7546771E-02  0.1189187E+00
         21   -1    0    0  504  502  0.00000000000E+00  0.00000000000E+00  0.27596273381E+04  0.27596273381E+04  0.00000000000E+00 0.  1.
         -4   -1    0    0    0  501 -0.00000000000E+00 -0.00000000000E+00 -0.89654258900E+02  0.89654258900E+02  0.00000000000E+00 0. -1.
         21    1    1    2  503  502 -0.43578919410E+02 -0.80344106448E+02  0.12434151953E+04  0.12467700853E+04  0.00000000000E+00 0. -1.
         21    1    1    2  504  505 -0.27667724632E+01  0.23881236361E+03  0.12740993042E+04  0.12962901053E+04  0.00000000000E+00 0.  1.
         21    1    1    2  505  501  0.81809144238E+02 -0.92630887812E+02  0.18676087801E+03  0.22394830433E+03  0.00000000000E+00 0. -1.
         -4    1    1    2    0  503 -0.35463452365E+02 -0.65837369350E+02 -0.34302298339E+02  0.82273102092E+02  0.00000000000E+00 0. -1.
<scales pt_clust_3="95.40103" pt_clust_4="159.56680" pt_clust_5="14000.00000" pt_clust_6="74.78112"></scales>
<clustering>
<clus scale="   74.781">  2  6  1 -1</clus>
<clus scale="   95.401">  1  3  2 -1</clus>
<clus scale="  159.567">  1  4  2 -1</clus>
<clus scale="   95.401">  1  3  2 -1</clus>
</clustering>
</event>
<event>
 6    0  0.6338511E+002  0.1016424E+03  0.7546771E-02  0.1276880E+00
         21   -1    0    0  503  502  0.00000000000E+00  0.00000000000E+00  0.36544216238E+03  0.36544216238E+03  0.00000000000E+00 0.  1.
          1   -1    0    0  504    0 -0.00000000000E+00 -0.00000000000E+00 -0.10379921053E+04  0.10379921053E+04  0.00000000000E+00 0.  1.
         21    1    1    2  503  501 -0.29396535282E+02 -0.29496390176E+02  0.54900006153E+02  0.68907212943E+02  0.00000000000E+00 0.  1.
         21    1    1    2  504  505 -0.20168625569E+02  0.86176787471E+02  0.90951024068E+02  0.12690666230E+03  0.00000000000E+00 0.  1.
         21    1    1    2  505  502  0.81476660680E+02  0.40473603611E+02  0.18122452554E+03  0.20277792652E+03  0.00000000000E+00 0.  1.
          1    1    1    2  501    0 -0.31911499830E+02 -0.97154000905E+02 -0.99962549864E+03  0.10048424659E+04  0.00000000000E+00 0.  1.
<scales pt_clust_3="41.64365" pt_clust_4="14000.00000" pt_clust_5="66.55891" pt_clust_6="101.64239"></scales>
<clustering>
<clus scale="   41.644">  1  3  2 -1</clus>
<clus scale="   66.559">  1  5  2 -1</clus>
<clus scale="  101.642">  2  6  1 -1</clus>
<clus scale="   41.644">  1  3  2 -1</clus>
</clustering>
</event>
<event>
 6    0  0.6338511E+002  0.1754842E+03  0.7546771E-02  0.1172246E+00
         -2   -1    0    0    0  501 -0.00000000000E+00  0.00000000000E+00  0.12781033401E+04  0.12781033401E+04  0.00000000000E+00 0.  1.
         21   -1    0    0  504  502  0.00000000000E+00 -0.00000000000E+00 -0.24870578946E+03  0.24870578946E+03  0.00000000000E+00 0.  1.
         21    1    1    2  503  501  0.12528275504E+03  0.11775883557E+03 -0.12170536567E+03  0.21065400091E+03  0.00000000000E+00 0.  1.
         21    1    1    2  504  505  0.47007522187E+02 -0.13170872100E+02  0.38952891917E+02  0.62454037521E+02  0.00000000000E+00 0. -1.
         21    1    1    2  505  503 -0.10754189064E+03  0.59379173210E+02 -0.47854683328E+01  0.12293919294E+03  0.00000000000E+00 0.  1.
         -2    1    1    2    0  502 -0.64748386587E+02 -0.16396713668E+03  0.11169354927E+04  0.11307618981E+04  0.00000000000E+00 0.  1.
<scales pt_clust_3="175.48419" pt_clust_4="48.81781" pt_clust_5="110.08076" pt_clust_6="14000.00000"></scales>
<clustering>
<clus scale="   48.818">  2  4  1 -1</clus>
<clus scale="  110.081">  2  5  1 -1</clus>
<clus scale="  175.484">  2  3  1 -1</clus>
<clus scale="   48.818">  2  3  1 -1</clus>
</clustering>
</event>
<event>
 6    0  0.6338511E+002  0.8077976E+02  0.7546771E-02  0.1326853E+00
         21   -1    0    0  501  502  0.00000000000E+00  0.00000000000E+00  0.74842154118E+03  0.74842154118E+03  0.00000000000E+00 0. -1.
         -1   -1    0    0    0  501 -0.00000000000E+00 -0.00000000000E+00 -0.93664161487E+03  0.93664161487E+03  0.00000000000E+00 0. -1.
         21    1    1    2  503  504  0.48671170700E+02  0.15374052599E+01 -0.29565933555E+02  0.56968332425E+02  0.00000000000E+00 0. -1.
         21    1    1    2  504  505  0.38813487640E+02  0.76311029642E+02 -0.11842967874E+03  0.14613503644E+03  0.00000000000E+00 0. -1.
         21    1    1    2  505  502 -0.45045357642E+02 -0.66967558437E+02  0.71797430409E+03  0.72249625568E+03  0.00000000000E+00 0. -1.
         -1    1    1    2    0  503 -0.42439300698E+02 -0.10880876465E+02 -0.75819876549E+03  0.75946353152E+03  0.00000000000E+00 0. -1.
<scales pt_clust_3="38.36036" pt_clust_4="14000.00000" pt_clust_5="80.77976" pt_clust_6="43.81196"></scales>
<clustering>
<clus scale="   43.812">  2  6  1 -1</clus>
<clus scale="   38.360">  2  3  1 -1</clus>
<clus scale="   80.780">  1  5  2 -1</clus>
<clus scale="   80.780">  1  3  2 -1</clus>
</clustering>
</event>
<event>
 6    0  0.6338511E+002  0.9234427E+02  0.7546771E-02  0.1297272E+00
         -1   -1    0    0    0  501 -0.00000000000E+00  0.00000000000E+00  0.81087931628E+03  0.81087931628E+03  0.00000000000E+00 0. -1.
         21   -1    0    0  504  502  0.00000000000E+00 -0.00000000000E+00 -0.12992629842E+03  0.12992629842E+03  0.00000000000E+00 0. -1.
         21    1    1    2  503  502  0.73806534136E+02 -0.43271529854E+02 -0.64707937185E+02  0.10727043820E+03  0.00000000000E+00 0. -1.
         21    1    1    2  504  501  0.26318130427E+02  0.42642265591E+02  0.95300112172E+02  0.10767134337E+03  0.00000000000E+00 0. -1.
         21    1    1    2  505  503 -0.14084142847E+03  0.27889426480E+02  0.10393965950E+03  0.17725005190E+03  0.00000000000E+00 0. -1.
         -1    1    1    2    0  505  0.40716763907E+02 -0.27260162218E+02  0.54642118337E+03  0.54861378122E+03  0.00000000000E+00 0. -1.
<scales pt_clust_3="14000.00000" pt_clust_4="52.89157" pt_clust_5="92.34427" pt_clust_6="48.99971"></scales>
<clustering>
<clus scale="   49.000">  1  6  2 -1</clus>
<clus scale="   52.892">  1  4  2 -1</clus>
<clus scale="   92.344">  1  5  2 -1</clus>
<clus scale="   92.344">  2  3  1 -1</clus>
</clustering>
</event>
<event>
 6    0  0.6338511E+002  0.1414112E+03  0.7546771E-02  0.1211443E+00
         21   -1    0    0  504  502  0.00000000000E+00  0.00000000000E+00  0.14624450437E+04  0.14624450437E+04  0.00000000000E+00 0.  1.
          2   -1    0    0  503    0 -0.00000000000E+00 -0.00000000000E+00 -0.20072560738E+04  0.20072560738E+04  0.00000000000E+00 0. -1.
         21    1    1    2  503  505  0.14824504468E+03 -0.10681848611E+03 -0.12094022267E+04  0.12231273557E+04  0.00000000000E+00 0.  1.
         21    1    1    2  504  501 -0.93381214591E+02  0.62933887445E+02  0.13711978452E+04  0.13758140340E+04  0.00000000000E+00 0.  1.
         21    1    1    2  505  502 -0.16591691624E+02  0.25856975017E+02  0.78612081064E+02  0.84402172230E+02  0.00000000000E+00 0.  1.
          2    1    1    2  501    0 -0.38272138469E+02  0.18027623644E+02 -0.78521872965E+03  0.78635755557E+03  0.00000000000E+00 0. -1.
<scales pt_clust_3="141.41122" pt_clust_4="14000.00000" pt_clust_5="30.72242" pt_clust_6="42.31619"></scales>
<clustering>
<clus scale="   30.722">  1  5  2 -1</clus>
<clus scale="   42.316">  2  6  1 -1</clus>
<clus scale="  141.411">  2  3  1 -1</clus>
<clus scale="   30.722">  1  3  2 -1</clus>
</clustering>
</event>
<event>
 6    0  0.6338511E+002  0.1899275E+03  0.7546771E-02  0.1158527E+00
         21   -1    0    0  503  502  0.00000000000E+00  0.00000000000E+00  0.47242785279E+02  0.47242785279E+02  0.00000000000E+00 0.  1.
          2   -1    0    0  504    0 -0.00000000000E+00 -0.00000000000E+00 -0.49184837805E+04  0.49184837805E+04  0.00000000000E+00 0.  1.
         21    1    1    2  503  505 -0.28340427193E+02  0.25866150702E+02  0.10476998691E+02  0.39774427302E+02  0.00000000000E+00 0.  1.
         21    1    1    2  504  502  0.86513755217E+02 -0.20867057749E+02 -0.30213185873E+03  0.31496622676E+03  0.00000000000E+00 0.  1.
         21    1    1    2  505  501 -0.10178953512E+03 -0.18685289823E+03 -0.83337519671E+03  0.86011007059E+03  0.00000000000E+00 0.  1.
          2    1    1    2  501    0  0.43616207096E+02  0.18185380528E+03 -0.37462109385E+04  0.37508758411E+04  0.00000000000E+00 0.  1.
<scales pt_clust_3="38.36975" pt_clust_4="79.42297" pt_clust_5="189.92750" pt_clust_6="14000.00000"></scales>
<clustering>
<clus scale="   38.370">  1  3  2 -1</clus>
<clus scale="   79.423">  1  4  2 -1</clus>
<clus scale="  189.927">  1  5  2 -1</clus>
<clus scale="   38.370">  1  3  2 -1</clus>
</clustering>
</event>
<event>
 6    0  0.6338511E+002  0.1769147E+03  0.7546771E-02  0.1170823E+00
          1   -1    0    0  505    0 -0.00000000000E+00  0.00000000000E+00  0.15688908223E+04  0.15688908223E+04  0.00000000000E+00 0. -1.
         21   -1    0    0  501  502  0.00000000000E+00 -0.00000000000E+00 -0.21488653536E+03  0.21488653536E+03  0.00000000000E+00 0.  1.
         21    1    1    2  503  504 -0.86625520197E+02  0.18379262806E+03  0.44875344712E+03  0.49260873641E+03  0.00000000000E+00 0.  1.
         21    1    1    2  504  502  0.48500624697E+02 -0.74009297143E+02 -0.16887579942E+03  0.19065340881E+03  0.00000000000E+00 0.  1.
         21    1    1    2  505  503 -0.27538060868E+02  0.22874575091E+02  0.32271822149E+02  0.48198148168E+02  0.00000000000E+00 0.  1.
          1    1    1    2  501    0  0.65662956367E+02 -0.13265790601E+03  0.10418548171E+04  0.10523170643E+04  0.00000000000E+00 0. -1.
<scales pt_clust_3="30.67959" pt_clust_4="88.48552" pt_clust_5="30.67959" pt_clust_6="161.11083"></scales>
<clustering>
<clus scale="   30.680">  3  5 -1 -1</clus>
<clus scale="   88.486">  2  4  1 -1</clus>
<clus scale="  161.111">  1  6  2 -1</clus>
<clus scale="   88.486">  2  3  1 -1</clus>
</clustering>
</event>
<event>
 6    0  0.6338511E+002  0.2342724E+03  0.7546771E-02  0.1123668E+00
         21   -1    0    0  504  502  0.00000000000E+00  0.00000000000E+00  0.77199383700E+03  0.77199383700E+03  0.00000000000E+00 0.  1.
          2   -1    0    0  503    0 -0.00000000000E+00 -0.00000000000E+00 -0.13374496097E+04  0.13374496097E+04  0.00000000000E+00 0.  1.
         21    1    1    2  503  502 -0.24602700969E+03 -0.10533422740E+03  0.54658854234E+03  0.60859150797E+03  0.00000000000E+00 0.  1.
         21    1    1    2  504  505  0.65975632626E+02 -0.44238569365E+02  0.73180429130E+02  0.10800560322E+03  0.00000000000E+00 0.  1.
         21    1    1    2  505  501  0.18808046280E+03  0.11412619038E+03 -0.13344023369E+02  0.22040215692E+03  0.00000000000E+00 0.  1.
          2    1    1    2  501    0 -0.80290857277E+01  0.35446606378E+02 -0.11718807208E+04  0.11724441786E+04  0.00000000000E+00 0.  1.
<scales pt_clust_3="234.27244" pt_clust_4="76.69741" pt_clust_5="14000.00000" pt_clust_6="36.34457"></scales>
<clustering>
<clus scale="   36.345">  2  6  1 -1</clus>
<clus scale="   76.697">  1  4  2 -1</clus>
<clus scale="  234.272">  1  3  2 -1</clus>
<clus scale="   76.697">  1  3  2 -1</clus>
</clustering>
</event>
<event>
 6    0  0.6338511E+002  0.6787568E+02  0.7546771E-02  0.1367470E+00
         21   -1    0    0  503  502  0.00000000000E+00  0.00000000000E+00  0.22985893791E+03  0.22985893791E+03  0.00000000000E+00 0.  1.
          1   -1    0    0  505    0 -0.00000000000E+00 -0.00000000000E+00 -0.22192670651E+04  0.22192670651E+04  0.00000000000E+00 0. -1.
         21    1    1    2  503  504  0.55765025700E+02 -0.32821351547E+02  0.10743705974E+03  0.12541810481E+03  0.00000000000E+00 0.  1.
         21    1    1    2  504  501 -0.51136580129E+02  0.52339726126E+02  0.86740826139E+02  0.11348289597E+03  0.00000000000E+00 0.  1.
         21    1    1    2  505  502  0.19831902014E+02  0.42371513873E+02 -0.29923063066E+02  0.55534126703E+02  0.00000000000E+00 0.  1.
          1    1    1    2  501    0 -0.24460347584E+02 -0.61889888452E+02 -0.21536629500E+04  0.21546908755E+04  0.00000000000E+00 0. -1.
<scales pt_clust_3="14000.00000" pt_clust_4="67.87568" pt_clust_5="46.78300" pt_clust_6="66.43766"></scales>
<clustering>
<clus scale="   46.783">  1  5  2 -1</clus>
<clus scale="   66.438">  2  6  1 -1</clus>
<clus scale="   67.876">  2  4  1 -1</clus>
<clus scale="   46.783">  1  3  2 -1</clus>
</clustering>
</event>
<event>
 6    0  0.6338511E+002  0.2785915E+03  0.7546771E-02  0.1096461E+00
          2   -1    0    0  504    0 -0.00000000000E+00  0.00000000000E+00  0.30277943797E+03  0.30277943797E+03  0.00000000000E+00 0.  1.
         21   -1    0    0  503  502  0.00000000000E+00 -0.00000000000E+00 -0.75643599372E+03  0.75643599372E+03  0.00000000000E+00 0.  1.
         21    1    1    2  503  501  0.15117699380E+03  0.11656600728E+03  0.87506335744E+02  0.20999875310E+03  0.00000000000E+00 0.  1.
         21    1    1    2  504  505 -0.18448695494E+03 -0.13202611755E+03 -0.50921786394E+03  0.55746673911E+03  0.00000000000E+00 0.  1.
         21    1    1    2  505  502  0.84063301426E+01 -0.57004143432E+02 -0.14451365261E+03  0.15557742299E+03  0.00000000000E+00 0. -1.
          2    1    1    2  501    0  0.24903630996E+02  0.72464253701E+02  0.11256862505E+03  0.13617251649E+03  0.00000000000E+00 0.  1.
<scales pt_clust_3="72.48118" pt_clust_4="254.05808" pt_clust_5="57.62065" pt_clust_6="72.48118"></scales>
<clustering>
<clus scale="   57.621">  2  5  1 -1</clus>
<clus scale="   72.481">  3  6 -1 -1</clus>
<clus scale="  254.058">  2  4  1 -1</clus>
<clus scale="   57.621">  2  3  1 -1</clus>
</clustering>
</event>
<event>
 6    0  0.6338511E+002  0.1295996E+03  0.7546771E-02  0.1228051E+00
         21   -1    0    0  501  502  0.00000000000E+00  0.00000000000E+00  0.18004418709E+03  0.18004418709E+03  0.00000000000E+00 0.  1.
          2   -1    0    0  505    0 -0.00000000000E+00 -0.00000000000E+00 -0.16552358983E+04  0.16552358983E+04  0.00000000000E+00 0.  1.
         21    1    1    2  503  502 -0.31203161253E+02 -0.47580846693E+02  0.14314501722E+03  0.15403918397E+03  0.00000000000E+00 0.  1.
         21    1    1    2  504  503 -0.98842618605E+02  0.57553845810E+02 -0.15025005160E+03  0.18883163513E+03  0.00000000000E+00 0.  1.
         21    1    1    2  505  504  0.16552449979E+03  0.25299771285E+02 -0.60128742013E+03  0.62416744553E+03  0.00000000000E+00 0.  1.
          2    1    1    2  501    0 -0.35478719930E+02 -0.35272770401E+02 -0.86679925670E+03  0.86824182076E+03  0.00000000000E+00 0.  1.
<scales pt_clust_3="57.23824" pt_clust_4="14000.00000" pt_clust_5="129.59962" pt_clust_6="50.02907"></scales>
<clustering>
<clus scale="   50.029">  2  6  1 -1</clus>
<clus scale="   57.238">  1  3  2 -1</clus>
<clus scale="  129.600">  2  5  1 -1</clus>
<clus scale="   57.238">  1  3  2 -1</clus>
</clustering>
</event>
<event>
 6    0  0.6338511E+002  0.9067229E+02  0.7546771E-02  0.1301232E+00
          2   -1    0    0  505    0 -0.00000000000E+00  0.00000000000E+00  0.18035248185E+04  0.18035248185E+04  0.00000000000E+00 0. -1.
         21   -1    0    0  503  502  0.00000000000E+00 -0.00000000000E+00 -0.71400675239E+02  0.71400675239E+02  0.00000000000E+00 0. -1.
         21    1    1    2  503  501 -0.45219082256E+02  0.81243562509E+02  0.84072054655E+02  0.12535307026E+03  0.00000000000E+00 0. -1.
         21    1    1    2  504  502  0.79683327881E+02  0.61972717738E+01 -0.13376352187E+02  0.81035583033E+02  0.00000000000E+00 0. -1.
         21    1    1    2  505  504 -0.27719299682E+02  0.12402767643E+02  0.90603076777E+03  0.90653954153E+03  0.00000000000E+00 0. -1.
          2    1    1    2  501    0 -0.67449459438E+01 -0.99843601926E+02  0.75539767299E+03  0.76199729888E+03  0.00000000000E+00 0. -1.
<scales pt_clust_3="14000.00000" pt_clust_4="78.92013" pt_clust_5="30.36755" pt_clust_6="90.67229"></scales>
<clustering>
<clus scale="   30.368">  1  5  2 -1</clus>
<clus scale="   78.920">  2  4  1 -1</clus>
<clus scale="   90.672">  1  6  2 -1</clus>
<clus scale="   78.920">  2  3  1 -1</clus>
</clustering>
</event>
<event>
 6    0  0.6338511E+002  0.8191603E+02  0.7546771E-02  0.1323700E+00
          3   -1    0    0  503    0 -0.00000000000E+00  0.00000000000E+00  0.25201180316E+04  0.25201180316E+04  0.00000000000E+00 0.  1.
         21   -1    0    0  504  502  0.00000000000E+00 -0.00000000000E+00 -0.37650173771E+02  0.37650173771E+02  0.00000000000E+00 0.  1.
         21    1    1    2  503  505 -0.47743861308E+01  0.62817025546E+02  0.60100525482E+03  0.60429801405E+03  0.00000000000E+00 0.  1.
         21    1    1    2  504  501 -0.69850942467E+02 -0.74604654211E+01  0.77356847763E+02  0.10449351465E+03  0.00000000000E+00 0.  1.
         21    1    1    2  505  502  0.11032307272E+02  0.29045917424E+02 -0.93480524591E+01  0.32446312695E+02  0.00000000000E+00 0.  1.
          3    1    1    2  501    0  0.63593021326E+02 -0.84402477549E+02  0.18134538077E+04  0.18165303639E+04  0.00000000000E+00 0.  1.
<scales pt_clust_3="14000.00000" pt_clust_4="62.99832" pt_clust_5="31.07052" pt_clust_6="81.91603"></scales>
<clustering>
<clus scale="   31.071">  2  5  1 -1</clus>
<clus scale="   62.998">  2  4  1 -1</clus>
<clus scale="   81.916">  1  6  2 -1</clus>
<clus scale="   31.071">  2  3  1 -1</clus>
</clustering>
</event>
<event>
 6    0  0.6338511E+002  0.7071970E+02  0.7546771E-02  0.1357663E+00
         21   -1    0    0  503  502  0.00000000000E+00  0.00000000000E+00  0.89609524095E+02  0.89609524095E+02  0.00000000000E+00 0.  1.
          2   -1    0    0  505    0 -0.00000000000E+00 -0.00000000000E+00 -0.17125486616E+04  0.17125486616E+04  0.00000000000E+00 0.  1.
         21    1    1    2  503  504  0.57778087390E+02  0.39837006121E+02  0.66799423258E+02  0.96888891968E+02  0.00000000000E+00 0.  1.
         21    1    1    2  504  501 -0.10004308145E+03 -0.65323808024E+02 -0.13567302703E+04  0.13619812202E+04  0.00000000000E+00 0.  1.
         21    1    1    2  505  502  0.31347469932E+02 -0.17572495161E+02 -0.19572179051E+03  0.19899365754E+03  0.00000000000E+00 0. -1.
          2    1    1    2  501    0  0.10917524126E+02  0.43059297064E+02 -0.13728650003E+03  0.14429441600E+03  0.00000000000E+00 0.  1.
<scales pt_clust_3="70.71970" pt_clust_4="14000.00000" pt_clust_5="35.93684" pt_clust_6="43.67414"></scales>
<clustering>
<clus scale="   35.937">  2  5  1 -1</clus>
<clus scale="   43.674">  2  6  1 -1</clus>
<clus scale="   70.720">  1  3  2 -1</clus>
<clus scale="   70.720">  1  3  2 -1</clus>
</clustering>
</event>
<event>
 6    0  0.7034497E+002  0.1126132E+03  0.7546771E-02  0.1255806E+00
         -3   -1    0    0    0  501 -0.00000000000E+00  0.00000000000E+00  0.14865526031E+04  0.14865526031E+04  0.00000000000E+00 0. -1.
         21   -1    0    0  503  502  0.00000000000E+00 -0.00000000000E+00 -0.15676163297E+04  0.15676163297E+04  0.00000000000E+00 0.  1.
         21    1    1    2  503  505  0.26157861615E+02  0.21177241591E+02 -0.13375379930E+04  0.13379613567E+04  0.00000000000E+00 0.  1.
         21    1    1    2  504  502 -0.10257737155E+03  0.59503974384E+02  0.78011028537E+02  0.14194562584E+03  0.00000000000E+00 0.  1.
         21    1    1    2  505  501  0.92431799692E+02 -0.11613602846E+02 -0.18596442557E+03  0.20799346371E+03  0.00000000000E+00 0.  1.
         -3    1    1    2    0  504 -0.16012289760E+02 -0.69067613130E+02  0.13644276634E+04  0.13662684866E+04  0.00000000000E+00 0. -1.
<scales pt_clust_3="33.65575" pt_clust_4="14000.00000" pt_clust_5="112.61322" pt_clust_6="70.79321"></scales>
<clustering>
<clus scale="   33.656">  2  3  1 -1</clus>
<clus scale="   70.793">  1  6  2 -1</clus>
<clus scale="  112.613">  2  5  1 -1</clus>
<clus scale="   33.656">  2  3  1 -1</clus>
</clustering>
</event>
<event>
 6    0  0.6338511E+002  0.1663252E+03  0.7546771E-02  0.1181735E+00
          2   -1    0    0  504    0 -0.00000000000E+00  0.00000000000E+00  0.14785991205E+04  0.14785991205E+04  0.00000000000E+00 0. -1.
         21   -1    0    0  503  502  0.00000000000E+00 -0.00000000000E+00 -0.76440322913E+02  0.76440322913E+02  0.00000000000E+00 0. -1.
         21    1    1    2  503  505 -0.56007022007E+02  0.45823189797E+02  0.46286435864E+02  0.85901020845E+02  0.00000000000E+00 0. -1.
         21    1    1    2  504  502  0.39637038795E+02  0.16582851953E+03  0.21950169791E+03  0.27794097956E+03  0.00000000000E+00 0. -1.
         21    1    1    2  505  501  0.73243613940E+02 -0.16630099404E+03  0.29354140059E+03  0.34523499455E+03  0.00000000000E+00 0. -1.
          2    1    1    2  501    0 -0.56873630728E+02 -0.45350715283E+02  0.84282926326E+03  0.84596244849E+03  0.00000000000E+00 0. -1.
<scales pt_clust_3="72.36402" pt_clust_4="166.32520" pt_clust_5="14000.00000" pt_clust_6="73.18852"></scales>
<clustering>
<clus scale="   72.364">  2  3  1 -1</clus>
<clus scale="   73.189">  1  6  2 -1</clus>
<clus scale="  166.325">  1  4  2 -1</clus>
<clus scale="   72.364">  2  3  1 -1</clus>
</clustering>
</event>
<event>
 6    0  0.6338511E+002  0.7998264E+02  0.7546771E-02  0.1329101E+00
         -3   -1    0    0    0  501 -0.00000000000E+00  0.00000000000E+00  0.12877992504E+04  0.12877992504E+04  0.00000000000E+00 0. -1.
         21   -1    0    0  505  502  0.00000000000E+00 -0.00000000000E+00 -0.63819516282E+02  0.63819516282E+02  0.00000000000E+00 0. -1.
         21    1    1    2  503  502  0.24679251577E+02  0.59462896113E+02  0.27715775721E+02  0.70093264272E+02  0.00000000000E+00 0. -1.
         21    1    1    2  504  503 -0.16943418364E+01 -0.10902284350E+03  0.41642142296E+02  0.11671726185E+03  0.00000000000E+00 0. -1.
         21    1    1    2  505  501 -0.39012930355E+02 -0.49323121872E+01  0.84737873090E+02  0.93417576367E+02  0.00000000000E+00 0. -1.
         -3    1    1    2    0  504  0.16028020615E+02  0.54492259577E+02  0.10698839430E+04  0.10713906642E+04  0.00000000000E+00 0. -1.
<scales pt_clust_3="79.98264" pt_clust_4="14000.00000" pt_clust_5="39.32348" pt_clust_6="53.50476"></scales>
<clustering>
<clus scale="   39.323">  1  5  2 -1</clus>
<clus scale="   53.505">  1  6  2 -1</clus>
<clus scale="   79.983">  2  3  1 -1</clus>
<clus scale="   79.983">  2  3  1 -1</clus>
</clustering>
</event>
<event>
 6    0  0.6338511E+002  0.1250028E+03  0.7546771E-02  0.1235065E+00
         21   -1    0    0  503  502  0.00000000000E+00  0.00000000000E+00  0.15705236014E+03  0.15705236014E+03  0.00000000000E+00 0. -1.
         -1   -1    0    0    0  501 -0.00000000000E+00 -0.00000000000E+00 -0.11652953474E+04  0.11652953474E+04  0.00000000000E+00 0.  1.
         21    1    1    2  503  505  0.75270485501E+02  0.84087512092E+02  0.35814536850E+02  0.11840201319E+03  0.00000000000E+00 0. -1.
         21    1    1    2  504  502  0.20193638293E+02 -0.26444104510E+02 -0.47827377331E+01  0.33614703197E+02  0.00000000000E+00 0.  1.
         21    1    1    2  505  501 -0.97995494055E+02 -0.11406813704E+03 -0.22578747978E+02  0.15206727657E+03  0.00000000000E+00 0. -1.
         -1    1    1    2    0  504  0.25313702601E+01  0.56424729463E+02 -0.10166960384E+04  0.10182637146E+04  0.00000000000E+00 0.  1.
<scales pt_clust_3="125.00277" pt_clust_4="33.27272" pt_clust_5="14000.00000" pt_clust_6="56.34140"></scales>
<clustering>
<clus scale="   33.273">  1  4  2 -1</clus>
<clus scale="   56.341">  2  6  1 -1</clus>
<clus scale="  125.003">  1  3  2 -1</clus>
<clus scale="   33.273">  1  3  2 -1</clus>
</clustering>
</event>
<event>
 6    0  0.6338511E+002  0.4952056E+03  0.7546771E-02  0.1015038E+00
         -1   -1    0    0    0  501 -0.00000000000E+00  0.00000000000E+00  0.11722376547E+04  0.11722376547E+04  0.00000000000E+00 0. -1.
         21   -1    0    0  504  502  0.00000000000E+00 -0.00000000000E+00 -0.35851975145E+03  0.35851975145E+03  0.00000000000E+00 0. -1.
         21    1    1    2  503  501  0.42979052759E+03  0.27285257778E+03  0.23665201786E+03  0.56140235515E+03  0.00000000000E+00 0. -1.
         21    1    1    2  504  503  0.24447026385E+02 -0.23584512296E+02 -0.43679347543E+02  0.55333278604E+02  0.00000000000E+00 0.  1.
         21    1    1    2  505  502 -0.36534126047E+03 -0.31588712078E+03  0.28593752212E+03  0.56126569130E+03  0.00000000000E+00 0. -1.
         -1    1    1    2    0  505 -0.88896293511E+02  0.66619055304E+02  0.33480771080E+03  0.35275608108E+03  0.00000000000E+00 0. -1.
<scales pt_clust_3="495.20564" pt_clust_4="33.96890" pt_clust_5="14000.00000" pt_clust_6="110.10965"></scales>
<clustering>
<clus scale="   33.969">  2  4  1 -1</clus>
<clus scale="  110.110">  1  6  2 -1</clus>
<clus scale="  495.206">  2  3  1 -1</clus>
<clus scale="   33.969">  2  3  1 -1</clus>
</clustering>
</event>
<event>
 6    0  0.6338511E+002  0.6614047E+02  0.7546771E-02  0.1373732E+00
          2   -1    0    0  503    0 -0.00000000000E+00  0.00000000000E+00  0.45174616796E+03  0.45174616796E+03  0.00000000000E+00 0.  1.
         21   -1    0    0  504  502  0.00000000000E+00 -0.00000000000E+00 -0.88584950514E+03  0.88584950514E+03  0.00000000000E+00 0.  1.
         21    1    1    2  503  505  0.71021264369E+02  0.30567300762E+02  0.77353583662E+02  0.10937073088E+03  0.00000000000E+00 0.  1.
         21    1    1    2  504  501 -0.32507580413E+02  0.22743035504E+02 -0.79994100058E+03  0.80092421168E+03  0.00000000000E+00 0.  1.
         21    1    1    2  505  502  0.67509414209E+01 -0.84055356752E+02 -0.40675784792E+02  0.93623702539E+02  0.00000000000E+00 0.  1.
          2    1    1    2  501    0 -0.45264625376E+02  0.30745020485E+02  0.32915986453E+03  0.33367702800E+03  0.00000000000E+00 0.  1.
<scales pt_clust_3="14000.00000" pt_clust_4="39.67352" pt_clust_5="66.14047" pt_clust_6="55.76770"></scales>
<clustering>
<clus scale="   39.674">  2  4  1 -1</clus>
<clus scale="   55.768">  1  6  2 -1</clus>
<clus scale="   66.140">  2  5  1 -1</clus>
<clus scale="   39.674">  2  3  1 -1</clus>
</clustering>
</event>
<event>
 6    0  0.6338511E+002  0.1071484E+03  0.7546771E-02  0.1265944E+00
          2   -1    0    0  505    0 -0.00000000000E+00  0.00000000000E+00  0.14266808031E+04  0.14266808031E+04  0.00000000000E+00 0.  1.
         21   -1    0    0  503  502  0.00000000000E+00 -0.00000000000E+00 -0.39630566121E+03  0.39630566121E+03  0.00000000000E+00 0. -1.
         21    1    1    2  503  504 -0.17145775792E+02 -0.33416047902E+02 -0.72654440302E+02  0.81788003891E+02  0.00000000000E+00 0.  1.
         21    1    1    2  504  501  0.11289896023E+03  0.87876182099E+02  0.21312081109E+03  0.25668829097E+03  0.00000000000E+00 0.  1.
         21    1    1    2  505  502 -0.84825962397E+02 -0.14599933514E+00 -0.29058711308E+03  0.30271494099E+03  0.00000000000E+00 0. -1.
          2    1    1    2  501    0 -0.10927222044E+02 -0.54314134862E+02  0.11804958842E+04  0.11817952285E+04  0.00000000000E+00 0.  1.
<scales pt_clust_3="37.55809" pt_clust_4="107.14838" pt_clust_5="14000.00000" pt_clust_6="55.47602"></scales>
<clustering>
<clus scale="   37.558">  2  3  1 -1</clus>
<clus scale="   55.476">  1  6  2 -1</clus>
<clus scale="  107.148">  1  4  2 -1</clus>
<clus scale="   37.558">  2  3  1 -1</clus>
</clustering>
</event>
<event>
 6    0  0.6338511E+002  0.1351410E+03  0.7546771E-02  0.1220021E+00
          2   -1    0    0  505    0 -0.00000000000E+00  0.00000000000E+00  0.20436572706E+04  0.20436572706E+04  0.00000000000E+00 0. -1.
         21   -1    0    0  503  502  0.00000000000E+00 -0.00000000000E+00 -0.46050128100E+03  0.46050128100E+03  0.00000000000E+00 0. -1.
         21    1    1    2  503  501  0.81657529294E+01  0.42321077510E+02 -0.22481975035E+03  0.22891411767E+03  0.00000000000E+00 0. -1.
         21    1    1    2  504  502 -0.70398089087E+02 -0.32354723833E+01 -0.10689840131E+03  0.12803760163E+03  0.00000000000E+00 0. -1.
         21    1    1    2  505  504 -0.62780325074E+02 -0.51635063572E+02 -0.99745682271E+02  0.12867303579E+03  0.00000000000E+00 0. -1.
          2    1    1    2  501    0  0.12501266123E+03  0.12549458445E+02  0.20146198235E+04  0.20185337965E+04  0.00000000000E+00 0. -1.
<scales pt_clust_3="43.10166" pt_clust_4="48.68682" pt_clust_5="48.68682" pt_clust_6="125.74491"></scales>
<clustering>
<clus scale="   43.102">  2  3  1 -1</clus>
<clus scale="   48.687">  4  5 -1 -1</clus>
<clus scale="  125.745">  1  6  2 -1</clus>
<clus scale="   43.102">  2  3  1 -1</clus>
</clustering>
</event>
<event>
 6    0  0.6338511E+002  0.1623490E+03  0.7546771E-02  0.1186070E+00
         -1   -1    0    0    0  501 -0.00000000000E+00  0.00000000000E+00  0.73274661270E+03  0.73274661270E+03  0.00000000000E+00 0.  1.
         21   -1    0    0  503  502  0.00000000000E+00 -0.00000000000E+00 -0.23722676886E+03  0.23722676886E+03  0.00000000000E+00 0.  1.
         21    1    1    2  503  505 -0.13803222808E+03  0.95754189171E+02 -0.15974307821E+03  0.23181805747E+03  0.00000000000E+00 0.  1.
         21    1    1    2  504  502 -0.28271254736E+02 -0.59291552038E+02  0.11386843786E+02  0.66666424824E+02  0.00000000000E+00 0.  1.
         21    1    1    2  505  501  0.12902451031E+03 -0.26996516304E+02  0.33139079437E+03  0.35664547487E+03  0.00000000000E+00 0.  1.
         -1    1    1    2    0  504  0.37278972509E+02 -0.94661208285E+01  0.31248528389E+03  0.31484342439E+03  0.00000000000E+00 0.  1.
<scales pt_clust_3="162.34904" pt_clust_4="65.08320" pt_clust_5="14000.00000" pt_clust_6="38.46205"></scales>
<clustering>
<clus scale="   38.462">  1  6  2 -1</clus>
<clus scale="   65.083">  2  4  1 -1</clus>
<clus scale="  162.349">  2  3  1 -1</clus>
<clus scale="   65.083">  2  3  1 -1</clus>
</clustering>
</event>
<event>
 6    0  0.6338511E+002  0.1323737E+03  0.7546771E-02  0.1223975E+00
          1   -1    0    0  505    0 -0.00000000000E+00  0.00000000000E+00  0.91653926568E+03  0.91653926568E+03  0.00000000000E+00 0.  1.
         21   -1    0    0  503  502  0.00000000000E+00 -0.00000000000E+00 -0.86766448060E+03  0.86766448060E+03  0.00000000000E+00 0. -1.
         21    1    1    2  503  501  0.17096775141E+03  0.18120866517E+03 -0.52567182040E+03  0.58171936113E+03  0.00000000000E+00 0. -1.
         21    1    1    2  504  502 -0.63566394825E+02 -0.97385777654E+02 -0.28804133964E+03  0.31063240266E+03  0.00000000000E+00 0. -1.
         21    1    1    2  505  504 -0.46402304627E+02 -0.78178615123E+02  0.14164047577E+03  0.16830654804E+03  0.00000000000E+00 0. -1.
          1    1    1    2  501    0 -0.60999051961E+02 -0.56442723928E+01  0.72094746935E+03  0.72354543445E+03  0.00000000000E+00 0.  1.
<scales pt_clust_3="14000.00000" pt_clust_4="118.54164" pt_clust_5="132.37371" pt_clust_6="61.25963"></scales>
<clustering>
<clus scale="   61.260">  1  6  2 -1</clus>
<clus scale="  118.542">  2  4  1 -1</clus>
<clus scale="  132.374">  1  5  2 -1</clus>
<clus scale="  118.542">  2  3  1 -1</clus>
</clustering>
</event>
<event>
 6    0  0.6338511E+002  0.1249313E+03  0.7546771E-02  0.1235177E+00
         21   -1    0    0  504  502  0.00000000000E+00  0.00000000000E+00  0.30962126201E+03  0.30962126201E+03  0.00000000000E+00 0. -1.
          2   -1    0    0  503    0 -0.00000000000E+00 -0.00000000000E+00 -0.29643578595E+03  0.29643578595E+03  0.00000000000E+00 0.  1.
         21    1    1    2  503  502 -0.19812907112E+02  0.11296516056E+03 -0.63659105188E+02  0.13117225492E+03  0.00000000000E+00 0. -1.
         21    1    1    2  504  505 -0.27030657245E+02 -0.39115091205E+02  0.95502666885E+02  0.10668367341E+03  0.00000000000E+00 0.  1.
         21    1    1    2  505  501  0.85989368153E+02 -0.82757382356E+02  0.15179024927E+03  0.19308867275E+03  0.00000000000E+00 0. -1.
          2    1    1    2  501    0 -0.39145803795E+02  0.89073130031E+01 -0.17044833490E+03  0.17511244688E+03  0.00000000000E+00 0.  1.
<scales pt_clust_3="124.93134" pt_clust_4="48.25055" pt_clust_5="14000.00000" pt_clust_6="40.14641"></scales>
<clustering>
<clus scale="   40.146">  2  6  1 -1</clus>
<clus scale="   48.251">  1  4  2 -1</clus>
<clus scale="  124.931">  2  3  1 -1</clus>
<clus scale="   48.251">  1  3  2 -1</clus>
</clustering>
</event>
<event>
 6    0  0.6338511E+002  0.1578898E+03  0.7546771E-02  0.1191100E+00
         21   -1    0    0  503  502  0.00000000000E+00  0.00000000000E+00  0.43273700624E+03  0.43273700624E+03  0.00000000000E+00 0. -1.
          2   -1    0    0  505    0 -0.00000000000E+00 -0.00000000000E+00 -0.15292471228E+04  0.15292471228E+04  0.00000000000E+00 0. -1.
         21    1    1    2  503  501  0.32350034851E+02 -0.15241509737E+02  0.11365042077E+03  0.11914380603E+03  0.00000000000E+00 0. -1.
         21    1    1    2  504  502 -0.70034912216E+02 -0.34981969252E+02  0.28660548701E+03  0.29710491797E+03  0.00000000000E+00 0. -1.
         21    1    1    2  505  504 -0.95520076121E+02  0.13574274491E+03 -0.34177793199E+03  0.37995043431E+03  0.00000000000E+00 0.  1.
          2    1    1    2  501    0  0.13320495349E+03 -0.85519265917E+02 -0.11549880923E+04  0.11657849707E+04  0.00000000000E+00 0. -1.
<scales pt_clust_3="35.76071" pt_clust_4="63.40686" pt_clust_5="14000.00000" pt_clust_6="157.88976"></scales>
<clustering>
<clus scale="   35.761">  1  3  2 -1</clus>
<clus scale="   63.407">  1  4  2 -1</clus>
<clus scale="  157.890">  2  6  1 -1</clus>
<clus scale="   35.761">  1  3  2 -1</clus>
</clustering>
</event>
<event>
 6    0  0.6338511E+002  0.9724842E+02  0.7546771E-02  0.1286191E+00
          2   -1    0    0  505    0 -0.00000000000E+00  0.00000000000E+00  0.47382370994E+03  0.47382370994E+03  0.00000000000E+00 0. -1.
         21   -1    0    0  504  502  0.00000000000E+00 -0.00000000000E+00 -0.20945635779E+03  0.20945635779E+03  0.00000000000E+00 0. -1.
         21    1    1    2  503  501  0.47341413598E+02 -0.30259161273E+02  0.13377370449E+03  0.14509386719E+03  0.00000000000E+00 0. -1.
         21    1    1    2  504  503 -0.85798246345E+02 -0.26453175281E+02  0.86934224022E+02  0.12497467289E+03  0.00000000000E+00 0.  1.
         21    1    1    2  505  502  0.18799532294E+01  0.67445568625E+02 -0.17692696031E+03  0.18935571878E+03  0.00000000000E+00 0. -1.
          2    1    1    2  501    0  0.36576879518E+02 -0.10733232072E+02  0.22058638394E+03  0.22385580887E+03  0.00000000000E+00 0. -1.
<scales pt_clust_3="35.23713" pt_clust_4="87.33339" pt_clust_5="67.47176" pt_clust_6="35.23713"></scales>
<clustering>
<clus scale="   35.237">  3  6 -1 -1</clus>
<clus scale="   67.472">  2  5  1 -1</clus>
<clus scale="   87.333">  2  4  1 -1</clus>
<clus scale="   67.472">  2  3  1 -1</clus>
</clustering>
</event>
<event>
 6    0  0.6338511E+002  0.2496434E+03  0.7546771E-02  0.1113530E+00
         21   -1    0    0  503  502  0.00000000000E+00  0.00000000000E+00  0.17751210423E+04  0.17751210423E+04  0.00000000000E+00 0.  1.
         -2   -1    0    0    0  501 -0.00000000000E+00 -0.00000000000E+00 -0.42063629147E+03  0.42063629147E+03  0.00000000000E+00 0.  1.
         21    1    1    2  503  505  0.11876951817E+02  0.14177760287E+03  0.78763950408E+03  0.80038611873E+03  0.00000000000E+00 0.  1.
         21    1    1    2  504  502 -0.28396785818E+02 -0.15101304620E+02  0.29640243775E+03  0.29814230151E+03  0.00000000000E+00 0.  1.
         21    1    1    2  505  501  0.61649767516E+02  0.11147350686E+03  0.64149617285E+03  0.65402169409E+03  0.00000000000E+00 0.  1.
         -2    1    1    2    0  504 -0.45129933515E+02 -0.23814980511E+03 -0.37105336383E+03  0.44320721946E+03  0.00000000000E+00 0.  1.
<scales pt_clust_3="53.71697" pt_clust_4="32.16251" pt_clust_5="53.71697" pt_clust_6="242.88025"></scales>
<clustering>
<clus scale="   32.163">  1  4  2 -1</clus>
<clus scale="   53.717">  3  5 -1 -1</clus>
<clus scale="  242.880">  2  6  1 -1</clus>
<clus scale="   32.163">  1  3  2 -1</clus>
</clustering>
</event>
<event>
 6    0  0.6338511E+002  0.2068379E+03  0.7546771E-02  0.1144095E+00
         21   -1    0    0  503  502  0.00000000000E+00  0.00000000000E+00  0.97446058307E+03  0.97446058307E+03  0.00000000000E+00 0.  1.
          1   -1    0    0  505    0 -0.00000000000E+00 -0.00000000000E+00 -0.21484480183E+03  0.21484480183E+03  0.00000000000E+00 0.  1.
         21    1    1    2  503  504  0.30536036595E+02  0.12620819285E+02  0.51585021418E+03  0.51690732059E+03  0.00000000000E+00 0.  1.
         21    1    1    2  504  501 -0.11620646253E+03  0.23712004403E+03  0.19378517948E+03  0.32754015479E+03  0.00000000000E+00 0.  1.
         21    1    1    2  505  502  0.26327872493E+02 -0.66555356105E+02  0.12020048051E+03  0.13989613222E+03  0.00000000000E+00 0.  1.
          1    1    1    2  501    0  0.59342553439E+02 -0.18318550721E+03 -0.70220092931E+02  0.20496177729E+03  0.00000000000E+00 0.  1.
<scales pt_clust_3="33.04141" pt_clust_4="206.83788" pt_clust_5="72.04376" pt_clust_6="14000.00000"></scales>
<clustering>
<clus scale="   33.041">  1  3  2 -1</clus>
<clus scale="   72.044">  1  5  2 -1</clus>
<clus scale="  206.838">  1  4  2 -1</clus>
<clus scale="   33.041">  1  3  2 -1</clus>
</clustering>
</event>
<event>
 6    0  0.6338511E+002  0.1776012E+03  0.7546771E-02  0.1170145E+00
          2   -1    0    0  505    0 -0.00000000000E+00  0.00000000000E+00  0.22590304698E+04  0.22590304698E+04  0.00000000000E+00 0. -1.
         21   -1    0    0  503  502  0.00000000000E+00 -0.00000000000E+00 -0.18868567825E+03  0.18868567825E+03  0.00000000000E+00 0. -1.
         21    1    1    2  503  504  0.31580598599E+02  0.95883937768E+01 -0.71328584350E+02  0.78594137494E+02  0.00000000000E+00 0. -1.
         21    1    1    2  504  501  0.16009786693E+02 -0.13368601455E+03  0.39029287698E+03  0.41286413452E+03  0.00000000000E+00 0. -1.
         21    1    1    2  505  502  0.35834664218E+02  0.17156642954E+03 -0.25213301991E+02  0.17707307391E+03  0.00000000000E+00 0. -1.
          2    1    1    2  501    0 -0.83425049509E+02 -0.47468808766E+02  0.17765938009E+04  0.17791848021E+04  0.00000000000E+00 0. -1.
<scales pt_clust_3="33.00411" pt_clust_4="177.60123" pt_clust_5="14000.00000" pt_clust_6="95.61785"></scales>
<clustering>
<clus scale="   33.004">  2  3  1 -1</clus>
<clus scale="   95.618">  1  6  2 -1</clus>
<clus scale="  177.601">  1  4  2 -1</clus>
<clus scale="   33.004">  2  3  1 -1</clus>
</clustering>
</event>
<event>
 6    0  0.6338511E+002  0.2825465E+03  0.7546771E-02  0.1094306E+00
         21   -1    0    0  504  502  0.00000000000E+00  0.00000000000E+00  0.46299553593E+03  0.46299553593E+03  0.00000000000E+00 0.  1.
          4   -1    0    0  505    0 -0.00000000000E+00 -0.00000000000E+00 -0.17105630982E+04  0.17105630982E+04  0.00000000000E+00 0.  1.
         21    1    1    2  503  501 -0.22412180185E+03  0.19421175380E+03  0.10234978534E+03  0.31372641893E+03  0.00000000000E+00 0.  1.
         21    1    1    2  504  503 -0.60840157420E+01  0.32700809360E+02  0.22459775662E+03  0.22704737492E+03  0.00000000000E+00 0.  1.
         21    1    1    2  505  502  0.51349476892E+02 -0.89740053210E+01 -0.24969174653E+02  0.57799318607E+02  0.00000000000E+00 0. -1.
          4    1    1    2  501    0  0.17885634070E+03 -0.21793855784E+03 -0.15495459296E+04  0.15749855217E+04  0.00000000000E+00 0.  1.
<scales pt_clust_3="282.54655" pt_clust_4="33.26196" pt_clust_5="51.36862" pt_clust_6="14000.00000"></scales>
<clustering>
<clus scale="   33.262">  1  4  2 -1</clus>
<clus scale="   51.369">  1  5  2 -1</clus>
<clus scale="  282.547">  1  3  2 -1</clus>
<clus scale="   33.262">  1  3  2 -1</clus>
</clustering>
</event>
<event>
 6    0  0.6338511E+002  0.1352545E+03  0.7546771E-02  0.1219861E+00
         21   -1    0    0  504  502  0.00000000000E+00  0.00000000000E+00  0.32655931508E+03  0.32655931508E+03  0.00000000000E+00 0.  1.
          2   -1    0    0  505    0 -0.00000000000E+00 -0.00000000000E+00 -0.81773595336E+03  0.81773595336E+03  0.00000000000E+00 0.  1.
         21    1    1    2  503  501 -0.14474542187E+02  0.39170044479E+02  0.10620740668E+03  0.11412194350E+03  0.00000000000E+00 0.  1.
         21    1    1    2  504  503 -0.89737392801E+02  0.20630160651E+02  0.19127552835E+03  0.21228455182E+03  0.00000000000E+00 0.  1.
         21    1    1    2  505  502  0.13396676562E+03 -0.67355552316E+02 -0.38662652356E+03  0.41468534269E+03  0.00000000000E+00 0.  1.
          2    1    1    2  501    0 -0.29754830632E+02  0.75553471856E+01 -0.40203304975E+03  0.40320343042E+03  0.00000000000E+00 0.  1.
<scales pt_clust_3="40.36683" pt_clust_4="40.36683" pt_clust_5="121.18113" pt_clust_6="30.69908"></scales>
<clustering>
<clus scale="   30.699">  2  6  1 -1</clus>
<clus scale="   40.367">  3  4 -1 -1</clus>
<clus scale="  121.181">  2  5  1 -1</clus>
<clus scale="  135.254">  1  3  2 -1</clus>
</clustering>
</event>
<event>
 6    0  0.6338511E+002  0.9391633E+02  0.7546771E-02  0.1293636E+00
         21   -1    0    0  504  502  0.00000000000E+00  0.00000000000E+00  0.10809361569E+03  0.10809361569E+03  0.00000000000E+00 0. -1.
          1   -1    0    0  503    0 -0.00000000000E+00 -0.00000000000E+00 -0.27507565452E+04  0.27507565452E+04  0.00000000000E+00 0. -1.
         21    1    1    2  503  505 -0.48156251665E+02  0.22227553712E+02 -0.17361643180E+03  0.18153719759E+03  0.00000000000E+00 0. -1.
         21    1    1    2  504  501 -0.47432039104E+02  0.34534455339E+01  0.15748134899E+02  0.50097189267E+02  0.00000000000E+00 0.  1.
         21    1    1    2  505  502  0.90808219895E+02 -0.86156324656E+02  0.15547435449E+02  0.12613789212E+03  0.00000000000E+00 0. -1.
          1    1    1    2  501    0  0.47800708741E+01  0.60475325410E+02 -0.25003420680E+04  0.25010778819E+04  0.00000000000E+00 0. -1.
<scales pt_clust_3="55.39076" pt_clust_4="47.55759" pt_clust_5="14000.00000" pt_clust_6="93.91633"></scales>
<clustering>
<clus scale="   47.558">  1  4  2 -1</clus>
<clus scale="   55.391">  2  3  1 -1</clus>
<clus scale="   93.916">  2  6  1 -1</clus>
<clus scale="   47.558">  1  3  2 -1</clus>
</clustering>
</event>
<event>
 6    0  0.6338511E+002  0.9803872E+02  0.7546771E-02  0.1284475E+00
         21   -1    0    0  504  502  0.00000000000E+00  0.00000000000E+00  0.45225077631E+03  0.45225077631E+03  0.00000000000E+00 0. -1.
          2   -1    0    0  503    0 -0.00000000000E+00 -0.00000000000E+00 -0.93917171461E+03  0.93917171461E+03  0.00000000000E+00 0. -1.
         21    1    1    2  503  502  0.56381268438E+02 -0.97645359237E+01  0.40394281195E+03  0.40797547588E+03  0.00000000000E+00 0. -1.
         21    1    1    2  504  505  0.37318027005E+02 -0.74556463640E+02 -0.18782456706E+02  0.85463922739E+02  0.00000000000E+00 0. -1.
         21    1    1    2  505  501 -0.67005965215E+02  0.63040570804E+02 -0.15613777007E+03  0.18122614652E+03  0.00000000000E+00 0. -1.
          2    1    1    2  501    0 -0.26693330227E+02  0.21280428760E+02 -0.71594352348E+03  0.71675694579E+03  0.00000000000E+00 0. -1.
<scales pt_clust_3="56.94989" pt_clust_4="98.03872" pt_clust_5="14000.00000" pt_clust_6="34.13782"></scales>
<clustering>
<clus scale="   34.138">  2  6  1 -1</clus>
<clus scale="   56.950">  1  3  2 -1</clus>
<clus scale="   98.039">  1  4  2 -1</clus>
<clus scale="   56.950">  1  3  2 -1</clus>
</clustering>
</event>
<event>
 6    0  0.6338511E+002  0.1082659E+03  0.7546771E-02  0.1263815E+00
          2   -1    0    0  503    0 -0.00000000000E+00  0.00000000000E+00  0.91331684514E+03  0.91331684514E+03  0.00000000000E+00 0.  1.
         21   -1    0    0  504  502  0.00000000000E+00 -0.00000000000E+00 -0.67747928156E+03  0.67747928156E+03  0.00000000000E+00 0. -1.
         21    1    1    2  503  502  0.49248919976E+02 -0.96617776249E+01  0.11002657537E+03  0.12093243301E+03  0.00000000000E+00 0.  1.
         21    1    1    2  504  505 -0.46120944339E+02 -0.96882288688E+02 -0.51917701477E+03  0.53014912245E+03  0.00000000000E+00 0. -1.
         21    1    1    2  505  501 -0.58845397439E+02  0.13401522321E+03 -0.10942537071E+03  0.18274783886E+03  0.00000000000E+00 0. -1.
          2    1    1    2  501    0  0.55717421801E+02 -0.27471156893E+02  0.75441337368E+03  0.75696673239E+03  0.00000000000E+00 0.  1.
<scales pt_clust_3="50.18771" pt_clust_4="107.21508" pt_clust_5="14000.00000" pt_clust_6="108.26592"></scales>
<clustering>
<clus scale="   50.188">  1  3  2 -1</clus>
<clus scale="  107.215">  2  4  1 -1</clus>
<clus scale="  108.266">  1  6  2 -1</clus>
<clus scale="  107.215">  2  3  1 -1</clus>
</clustering>
</event>
<event>
 6    0  0.6338511E+002  0.7007858E+02  0.7546771E-02  0.1359826E+00
          1   -1    0    0  504    0 -0.00000000000E+00  0.00000000000E+00  0.50759959100E+02  0.50759959100E+02  0.00000000000E+00 0. -1.
         21   -1    0    0  501  502  0.00000000000E+00 -0.00000000000E+00 -0.19753483692E+04  0.19753483692E+04  0.00000000000E+00 0. -1.
         21    1    1    2  503  505 -0.11269786545E+03 -0.81249888422E+01 -0.52900419803E+03  0.54093647118E+03  0.00000000000E+00 0. -1.
         21    1    1    2  504  503  0.20796700198E+02  0.39343528715E+02 -0.28382631097E+03  0.28729391012E+03  0.00000000000E+00 0. -1.
         21    1    1    2  505  502  0.57057358705E+02 -0.32624473638E+02 -0.11466587972E+04  0.11485409421E+04  0.00000000000E+00 0. -1.
          1    1    1    2  501    0  0.34843806546E+02  0.14059337655E+01  0.34900896104E+02  0.49337004907E+02  0.00000000000E+00 0. -1.
<scales pt_clust_3="14000.00000" pt_clust_4="48.39799" pt_clust_5="70.07858" pt_clust_6="34.87216"></scales>
<clustering>
<clus scale="   34.872">  1  6  2 -1</clus>
<clus scale="   48.398">  1  4  2 -1</clus>
<clus scale="   70.079">  2  5  1 -1</clus>
<clus scale="   70.079">  2  3  1 -1</clus>
</clustering>
</event>
<event>
 6    0  0.6338511E+002  0.6131890E+02  0.7546771E-02  0.1392379E+00
         21   -1    0    0  503  502  0.00000000000E+00  0.00000000000E+00  0.68426944378E+02  0.68426944378E+02  0.00000000000E+00 0.  1.
          2   -1    0    0  504    0 -0.00000000000E+00 -0.00000000000E+00 -0.37911028871E+04  0.37911028871E+04  0.00000000000E+00 0.  1.
         21    1    1    2  503  501 -0.33757420118E+02 -0.11244717039E+03 -0.21923668031E+04  0.21955081710E+04  0.00000000000E+00 0.  1.
         21    1    1    2  504  505  0.27439440006E+02  0.30897600863E+02 -0.12886561390E+03  0.13532897344E+03  0.00000000000E+00 0.  1.
         21    1    1    2  505  502  0.25383633198E+02  0.55414957989E+02  0.48804775128E+02  0.78083624907E+02  0.00000000000E+00 0.  1.
          2    1    1    2  501    0 -0.19065653087E+02  0.26134611533E+02 -0.14502483008E+04  0.14506090621E+04  0.00000000000E+00 0.  1.
<scales pt_clust_3="61.31890" pt_clust_4="41.74940" pt_clust_5="14000.00000" pt_clust_6="32.34992"></scales>
<clustering>
<clus scale="   32.350">  2  6  1 -1</clus>
<clus scale="   41.749">  2  4  1 -1</clus>
<clus scale="   61.319">  2  3  1 -1</clus>
<clus scale="   61.319">  1  3  2 -1</clus>
</clustering>
</event>
<event>
 6    0  0.6338511E+002  0.7466876E+02  0.7546771E-02  0.1344900E+00
          2   -1    0    0  505    0 -0.00000000000E+00  0.00000000000E+00  0.26229874076E+04  0.26229874076E+04  0.00000000000E+00 0.  1.
         21   -1    0    0  503  502  0.00000000000E+00 -0.00000000000E+00 -0.98667525848E+02  0.98667525848E+02  0.00000000000E+00 0.  1.
         21    1    1    2  503  504 -0.28240733030E+02  0.14370404470E+02 -0.75425618594E+02  0.81811194020E+02  0.00000000000E+00 0.  1.
         21    1    1    2  504  501  0.33426815171E+02 -0.72315104429E+02  0.73117548329E+02  0.10813418597E+03  0.00000000000E+00 0.  1.
         21    1    1    2  505  502  0.59300649292E+02  0.71459574478E+02  0.16484007070E+04  0.16510142121E+04  0.00000000000E+00 0.  1.
          2    1    1    2  501    0 -0.64486731433E+02 -0.13514874520E+02  0.87822724505E+03  0.88069534137E+03  0.00000000000E+00 0.  1.
<scales pt_clust_3="31.68671" pt_clust_4="60.40514" pt_clust_5="74.66876" pt_clust_6="14000.00000"></scales>
<clustering>
<clus scale="   31.687">  2  3  1 -1</clus>
<clus scale="   60.405">  2  4  1 -1</clus>
<clus scale="   74.669">  2  5  1 -1</clus>
<clus scale="   31.687">  2  3  1 -1</clus>
</clustering>
</event>
<event>
 6    0  0.6338511E+002  0.9814342E+02  0.7546771E-02  0.1284249E+00
         21   -1    0    0  503  502  0.00000000000E+00  0.00000000000E+00  0.28705899226E+02  0.28705899226E+02  0.00000000000E+00 0. -1.
          2   -1    0    0  504    0 -0.00000000000E+00 -0.00000000000E+00 -0.31106703251E+04  0.31106703251E+04  0.00000000000E+00 0.  1.
         21    1    1    2  503  501 -0.38971032656E+02  0.62375629457E+02 -0.43283812206E+02  0.85340195310E+02  0.00000000000E+00 0. -1.
         21    1    1    2  504  505 -0.58377821593E+01  0.45306708104E+02 -0.13799015331E+03  0.14535494457E+03  0.00000000000E+00 0.  1.
         21    1    1    2  505  502  0.35520838784E+02 -0.86194738340E+01 -0.10426771263E+03  0.11048882846E+03  0.00000000000E+00 0. -1.
          2    1    1    2  501    0  0.92879760315E+01 -0.99062863727E+02 -0.27964227477E+04  0.27981922560E+04  0.00000000000E+00 0.  1.
<scales pt_clust_3="98.14342" pt_clust_4="44.07263" pt_clust_5="36.55168" pt_clust_6="14000.00000"></scales>
<clustering>
<clus scale="   36.552">  1  5  2 -1</clus>
<clus scale="   44.073">  1  4  2 -1</clus>
<clus scale="   98.143">  1  3  2 -1</clus>
<clus scale="   36.552">  1  3  2 -1</clus>
</clustering>
</event>
<event>
 6    0  0.6338511E+002  0.1154290E+03  0.7546771E-02  0.1250834E+00
         21   -1    0    0  501  502  0.00000000000E+00  0.00000000000E+00  0.20014559621E+03  0.20014559621E+03  0.00000000000E+00 0. -1.
          2   -1    0    0  503    0 -0.00000000000E+00 -0.00000000000E+00 -0.42638789774E+03  0.42638789774E+03  0.00000000000E+00 0.  1.
         21    1    1    2  503  504  0.15571585054E+03  0.38012254707E+02 -0.10476717684E+02  0.16063038079E+03  0.00000000000E+00 0.  1.
         21    1    1    2  504  505 -0.79415026211E+02 -0.22409475765E+02  0.18577290800E+02  0.84581598032E+02  0.00000000000E+00 0. -1.
         21    1    1    2  505  502 -0.40046571239E+02 -0.52894567024E+01  0.66672910043E+02  0.77955007240E+02  0.00000000000E+00 0. -1.
          2    1    1    2  501    0 -0.36254253093E+02 -0.10313322239E+02 -0.30101578469E+03  0.30336650790E+03  0.00000000000E+00 0.  1.
<scales pt_clust_3="115.42900" pt_clust_4="14000.00000" pt_clust_5="42.08896" pt_clust_6="37.69264"></scales>
<clustering>
<clus scale="   37.693">  2  6  1 -1</clus>
<clus scale="   42.089">  1  5  2 -1</clus>
<clus scale="  115.429">  2  3  1 -1</clus>
<clus scale="   42.089">  1  3  2 -1</clus>
</clustering>
</event>
<event>
 6    0  0.6338511E+002  0.1571455E+03  0.7546771E-02  0.1191958E+00
         21   -1    0    0  505  502  0.00000000000E+00  0.00000000000E+00  0.47141831874E+02  0.47141831874E+02  0.00000000000E+00 0. -1.
         -1   -1    0    0    0  501 -0.00000000000E+00 -0.00000000000E+00 -0.13334054036E+04  0.13334054036E+04  0.00000000000E+00 0. -1.
         21    1    1    2  503  501 -0.12686057471E+03  0.62576402355E+02 -0.74249701331E+03  0.75585132555E+03  0.00000000000E+00 0. -1.
         21    1    1    2  504  502  0.43238464112E+02 -0.89189018719E+02 -0.22191887713E+03  0.24304780160E+03  0.00000000000E+00 0. -1.
         21    1    1    2  505  503  0.44870506730E+01  0.95656018017E+02 -0.11486593667E+03  0.14954728621E+03  0.00000000000E+00 0.  1.
         -1    1    1    2    0  504  0.79135059929E+02 -0.69043401653E+02 -0.20698174461E+03  0.23210082211E+03  0.00000000000E+00 0. -1.
<scales pt_clust_3="151.31759" pt_clust_4="41.19031" pt_clust_5="95.76120" pt_clust_6="41.19031"></scales>
<clustering>
<clus scale="   41.190">  4  6 -1 -1</clus>
<clus scale="   95.761">  1  5  2 -1</clus>
<clus scale="  151.318">  2  3  1 -1</clus>
<clus scale="   95.761">  1  3  2 -1</clus>
</clustering>
</event>
<event>
 6    0  0.6338511E+002  0.8141930E+02  0.7546771E-02  0.1325071E+00
          3   -1    0    0  505    0 -0.00000000000E+00  0.00000000000E+00  0.50718431403E+03  0.50718431403E+03  0.00000000000E+00 0. -1.
         21   -1    0    0  504  502  0.00000000000E+00 -0.00000000000E+00 -0.14563763670E+03  0.14563763670E+03  0.00000000000E+00 0. -1.
         21    1    1    2  503  501 -0.14647116139E+02 -0.93362189030E+02  0.67536643911E+02  0.11615607872E+03  0.00000000000E+00 0. -1.
         21    1    1    2  504  503 -0.54832196173E+02  0.30229202113E+02 -0.10559831080E+03  0.12276553930E+03  0.00000000000E+00 0. -1.
         21    1    1    2  505  502  0.46594092730E+02  0.34804466104E+02  0.33249506126E+03  0.33754307295E+03  0.00000000000E+00 0. -1.
          3    1    1    2  501    0  0.22885219582E+02  0.28328520813E+02  0.67113282967E+02  0.76357259756E+02  0.00000000000E+00 0. -1.
<scales pt_clust_3="14000.00000" pt_clust_4="62.49143" pt_clust_5="81.41930" pt_clust_6="36.41756"></scales>
<clustering>
<clus scale="   36.418">  1  6  2 -1</clus>
<clus scale="   62.491">  2  4  1 -1</clus>
<clus scale="   81.419">  1  5  2 -1</clus>
<clus scale="   62.491">  2  3  1 -1</clus>
</clustering>
</event>
<event>
 6    0  0.6338511E+002  0.1886864E+03  0.7546771E-02  0.1159651E+00
          1   -1    0    0  505    0 -0.00000000000E+00  0.00000000000E+00  0.58582813563E+02  0.58582813563E+02  0.00000000000E+00 0. -1.
         21   -1    0    0  501  502  0.00000000000E+00 -0.00000000000E+00 -0.98719735908E+03  0.98719735908E+03  0.00000000000E+00 0.  1.
         21    1    1    2  503  504  0.85145837532E+02 -0.39422906639E+02 -0.17780993468E+03  0.20104813375E+03  0.00000000000E+00 0.  1.
         21    1    1    2  504  502 -0.21200797358E+02  0.37514693603E+02 -0.16222166602E+03  0.16784723701E+03  0.00000000000E+00 0.  1.
         21    1    1    2  505  503  0.77976524428E+02 -0.74771820731E+02 -0.45438116343E+03  0.46704754064E+03  0.00000000000E+00 0.  1.
          1    1    1    2  501    0 -0.14192156460E+03  0.76680033768E+02 -0.13420178139E+03  0.20983726124E+03  0.00000000000E+00 0. -1.
<scales pt_clust_3="83.51064" pt_clust_4="43.09090" pt_clust_5="83.51064" pt_clust_6="169.01378"></scales>
<clustering>
<clus scale="   43.091">  2  4  1 -1</clus>
<clus scale="   83.511">  3  5 -1 -1</clus>
<clus scale="  169.014">  1  6  2 -1</clus>
<clus scale="   43.091">  2  3  1 -1</clus>
</clustering>
</event>
<event>
 6    0  0.6338511E+002  0.9342922E+02  0.7546771E-02  0.1294754E+00
          1   -1    0    0  503    0 -0.00000000000E+00  0.00000000000E+00  0.15042827150E+04  0.15042827150E+04  0.00000000000E+00 0. -1.
         21   -1    0    0  501  502  0.00000000000E+00 -0.00000000000E+00 -0.32731257920E+02  0.32731257920E+02  0.00000000000E+00 0. -1.
         21    1    1    2  503  504  0.36473785898E+02  0.77301963587E+02  0.41847067897E+03  0.42711080505E+03  0.00000000000E+00 0. -1.
         21    1    1    2  504  505  0.17677497470E+02 -0.83229745750E+02  0.92421065332E+02  0.12562379477E+03  0.00000000000E+00 0. -1.
         21    1    1    2  505  502  0.35107040349E+02 -0.12043855164E+02  0.26288163885E+02  0.45482153530E+02  0.00000000000E+00 0. -1.
          1    1    1    2  501    0 -0.89258323717E+02  0.17971637328E+02  0.93437154893E+03  0.93879721961E+03  0.00000000000E+00 0. -1.
<scales pt_clust_3="86.51294" pt_clust_4="14000.00000" pt_clust_5="37.11548" pt_clust_6="93.42922"></scales>
<clustering>
<clus scale="   37.115">  2  5  1 -1</clus>
<clus scale="   86.513">  1  3  2 -1</clus>
<clus scale="   93.429">  1  6  2 -1</clus>
<clus scale="   37.115">  2  3  1 -1</clus>
</clustering>
</event>
<event>
 6    0  0.6338511E+002  0.2136575E+03  0.7546771E-02  0.1138702E+00
         21   -1    0    0  504  502  0.00000000000E+00  0.00000000000E+00  0.11324756766E+04  0.11324756766E+04  0.00000000000E+00 0. -1.
          2   -1    0    0  505    0 -0.00000000000E+00 -0.00000000000E+00 -0.21270264482E+03  0.21270264482E+03  0.00000000000E+00 0. -1.
         21    1    1    2  503  502  0.24183016022E+02  0.28180223550E+02  0.34038603738E+03  0.34240560408E+03  0.00000000000E+00 0.  1.
         21    1    1    2  504  501 -0.82922837542E+02  0.19710401406E+03  0.58724218696E+03  0.62496365933E+03  0.00000000000E+00 0. -1.
         21    1    1    2  505  503 -0.26485004130E+02 -0.19532084245E+03  0.11278395782E+03  0.22709449153E+03  0.00000000000E+00 0. -1.
          2    1    1    2  501    0  0.85224825651E+02 -0.29963395159E+02 -0.12063915036E+03  0.15071456650E+03  0.00000000000E+00 0. -1.
<scales pt_clust_3="37.13413" pt_clust_4="213.65748" pt_clust_5="14000.00000" pt_clust_6="90.59706"></scales>
<clustering>
<clus scale="   37.134">  1  3  2 -1</clus>
<clus scale="   90.597">  2  6  1 -1</clus>
<clus scale="  213.657">  1  4  2 -1</clus>
<clus scale="   37.134">  1  3  2 -1</clus>
</clustering>
</event>
<event>
 6    0  0.6338511E+002  0.1113696E+03  0.7546771E-02  0.1258055E+00
         21   -1    0    0  504  502  0.00000000000E+00  0.00000000000E+00  0.24497011205E+03  0.24497011205E+03  0.00000000000E+00 0.  1.
          2   -1    0    0  505    0 -0.00000000000E+00 -0.00000000000E+00 -0.20695169310E+04  0.20695169310E+04  0.00000000000E+00 0.  1.
         21    1    1    2  503  501  0.51153593932E+02  0.11209890996E+03 -0.89271235267E+02  0.15215850036E+03  0.00000000000E+00 0.  1.
         21    1    1    2  504  503 -0.12749643561E+01 -0.96270902571E+02  0.19213367122E+03  0.21490709582E+03  0.00000000000E+00 0.  1.
         21    1    1    2  505  502  0.24079940149E+02 -0.18046959189E+02 -0.15076249837E+02  0.33657533520E+02  0.00000000000E+00 0. -1.
          2    1    1    2  501    0 -0.73958569725E+02  0.22189517956E+01 -0.19123330051E+04  0.19137639134E+04  0.00000000000E+00 0.  1.
<scales pt_clust_3="111.36955" pt_clust_4="14000.00000" pt_clust_5="30.09213" pt_clust_6="73.91716"></scales>
<clustering>
<clus scale="   30.092">  1  5  2 -1</clus>
<clus scale="   73.917">  2  6  1 -1</clus>
<clus scale="  111.370">  2  3  1 -1</clus>
<clus scale="   30.092">  1  3  2 -1</clus>
</clustering>
</event>
<event>
 6    0  0.6338511E+002  0.1698228E+03  0.7546771E-02  0.1178033E+00
         21   -1    0    0  503  502  0.00000000000E+00  0.00000000000E+00  0.33881391461E+03  0.33881391461E+03  0.00000000000E+00 0.  1.
          2   -1    0    0  505    0 -0.00000000000E+00 -0.00000000000E+00 -0.18405448964E+04  0.18405448964E+04  0.00000000000E+00 0. -1.
         21    1    1    2  503  501  0.16544771446E+03 -0.90603233668E+02  0.24584843696E+03  0.30987634006E+03  0.00000000000E+00 0.  1.
         21    1    1    2  504  502 -0.91342217235E+02  0.93288942913E+02 -0.16844705660E+02  0.13164335011E+03  0.00000000000E+00 0.  1.
         21    1    1    2  505  504 -0.35146900367E+02  0.51728222997E+02 -0.35420689506E+03  0.35968547116E+03  0.00000000000E+00 0. -1.
          2    1    1    2  501    0 -0.38958596860E+02 -0.54413932242E+02 -0.13765278181E+04  0.13781536497E+04  0.00000000000E+00 0. -1.
<scales pt_clust_3="169.82284" pt_clust_4="14000.00000" pt_clust_5="62.53890" pt_clust_6="71.87289"></scales>
<clustering>
<clus scale="   62.539">  2  5  1 -1</clus>
<clus scale="   71.873">  2  6  1 -1</clus>
<clus scale="  169.823">  1  3  2 -1</clus>
<clus scale="  169.823">  1  3  2 -1</clus>
</clustering>
</event>
<event>
 6    0  0.6338511E+002  0.8904638E+02  0.7546771E-02  0.1305178E+00
          1   -1    0    0  504    0 -0.00000000000E+00  0.00000000000E+00  0.66912022478E+03  0.66912022478E+03  0.00000000000E+00 0.  1.
         21   -1    0    0  501  502  0.00000000000E+00 -0.00000000000E+00 -0.24957594993E+03  0.24957594993E+03  0.00000000000E+00 0.  1.
         21    1    1    2  503  502 -0.17287392108E+01  0.34547746549E+02 -0.14888084804E+03  0.15284646625E+03  0.00000000000E+00 0.  1.
         21    1    1    2  504  505  0.12568318963E+03 -0.14022548370E+02  0.23313535916E+03  0.26522630282E+03  0.00000000000E+00 0.  1.
         21    1    1    2  505  503 -0.78325111392E+02  0.27076680390E+01 -0.62072481315E+02  0.99975734443E+02  0.00000000000E+00 0.  1.
          1    1    1    2  501    0 -0.45629339023E+02 -0.23232866218E+02  0.39736224505E+03  0.40064767121E+03  0.00000000000E+00 0.  1.
<scales pt_clust_3="34.59097" pt_clust_4="89.04638" pt_clust_5="14000.00000" pt_clust_6="50.97102"></scales>
<clustering>
<clus scale="   34.591">  2  3  1 -1</clus>
<clus scale="   50.971">  1  6  2 -1</clus>
<clus scale="   89.046">  1  4  2 -1</clus>
<clus scale="   34.591">  2  3  1 -1</clus>
</clustering>
</event>
<event>
 6    0  0.6338511E+002  0.1536938E+03  0.7546771E-02  0.1196006E+00
          2   -1    0    0  503    0 -0.00000000000E+00  0.00000000000E+00  0.19012147478E+04  0.19012147478E+04  0.00000000000E+00 0.  1.
         21   -1    0    0  504  502  0.00000000000E+00 -0.00000000000E+00 -0.47338688614E+03  0.47338688614E+03  0.00000000000E+00 0.  1.
         21    1    1    2  503  505 -0.60769326513E+02  0.19717498484E+03  0.31880140125E+03  0.37974362290E+03  0.00000000000E+00 0. -1.
         21    1    1    2  504  501 -0.61426418769E+02 -0.14593097083E+03  0.15363175904E+03  0.22061679573E+03  0.00000000000E+00 0.  1.
         21    1    1    2  505  502  0.76743010682E+02 -0.13094507209E+03 -0.39374520920E+03  0.42198506059E+03  0.00000000000E+00 0.  1.
          2    1    1    2  501    0  0.45452734600E+02  0.79701058082E+02  0.13491399106E+04  0.13522561547E+04  0.00000000000E+00 0.  1.
<scales pt_clust_3="14000.00000" pt_clust_4="127.42377" pt_clust_5="153.69385" pt_clust_6="91.75080"></scales>
<clustering>
<clus scale="   91.751">  1  6  2 -1</clus>
<clus scale="  127.424">  1  4  2 -1</clus>
<clus scale="  153.694">  2  5  1 -1</clus>
<clus scale="  153.694">  2  3  1 -1</clus>
</clustering>
</event>
<event>
 6    0  0.6338511E+002  0.1349731E+03  0.7546771E-02  0.1220258E+00
         21   -1    0    0  505  502  0.00000000000E+00  0.00000000000E+00  0.38737425376E+03  0.38737425376E+03  0.00000000000E+00 0.  1.
          2   -1    0    0  503    0 -0.00000000000E+00 -0.00000000000E+00 -0.24281531558E+04  0.24281531558E+04  0.00000000000E+00 0.  1.
         21    1    1    2  503  504  0.17432562640E+02 -0.25685950431E+02 -0.13393690536E+03  0.13748729726E+03  0.00000000000E+00 0. -1.
         21    1    1    2  504  502  0.11473479955E+03  0.66520186299E+02  0.29884340151E+03  0.32695013081E+03  0.00000000000E+00 0.  1.
         21    1    1    2  505  501 -0.16193797250E+03 -0.15683665186E+02 -0.18710685563E+02  0.16376804953E+03  0.00000000000E+00 0.  1.
          2    1    1    2  501    0  0.29770610315E+02 -0.25150570682E+02 -0.21869747127E+04  0.21873219320E+04  0.00000000000E+00 0.  1.
<scales pt_clust_3="31.04291" pt_clust_4="14000.00000" pt_clust_5="134.97313" pt_clust_6="67.96311"></scales>
<clustering>
<clus scale="   31.043">  2  3  1 -1</clus>
<clus scale="   67.963">  2  6  1 -1</clus>
<clus scale="  134.973">  2  5  1 -1</clus>
<clus scale="  134.973">  1  3  2 -1</clus>
</clustering>
</event>
<event>
 6    0  0.6338511E+002  0.2615520E+03  0.7546771E-02  0.1106214E+00
          2   -1    0    0  505    0 -0.00000000000E+00  0.00000000000E+00  0.18569437238E+04  0.18569437238E+04  0.00000000000E+00 0.  1.
         21   -1    0    0  504  502  0.00000000000E+00 -0.00000000000E+00 -0.10768833713E+03  0.10768833713E+03  0.00000000000E+00 0.  1.
         21    1    1    2  503  502  0.10587840161E+03  0.41788875091E+02 -0.35709307488E+00  0.11382738478E+03  0.00000000000E+00 0.  1.
         21    1    1    2  504  501  0.15770861239E+02 -0.29472568829E+02  0.23211825508E+02  0.40695715020E+02  0.00000000000E+00 0.  1.
         21    1    1    2  505  503 -0.18562780589E+03  0.22780078433E+03  0.86283003862E+03  0.91149687614E+03  0.00000000000E+00 0.  1.
          2    1    1    2  501    0  0.63978543043E+02 -0.24011709059E+03  0.86357061560E+03  0.89861208499E+03  0.00000000000E+00 0.  1.
<scales pt_clust_3="117.61885" pt_clust_4="33.42682" pt_clust_5="261.55197" pt_clust_6="14000.00000"></scales>
<clustering>
<clus scale="   33.427">  2  4  1 -1</clus>
<clus scale="  117.619">  2  3  1 -1</clus>
<clus scale="  261.552">  2  5  1 -1</clus>
<clus scale="   33.427">  2  3  1 -1</clus>
</clustering>
</event>
<event>
 6    0  0.6338511E+002  0.1252157E+03  0.7546771E-02  0.1234733E+00
         21   -1    0    0  503  502  0.00000000000E+00  0.00000000000E+00  0.29939746142E+03  0.29939746142E+03  0.00000000000E+00 0. -1.
          1   -1    0    0  505    0 -0.00000000000E+00 -0.00000000000E+00 -0.88576571086E+03  0.88576571086E+03  0.00000000000E+00 0. -1.
         21    1    1    2  503  501  0.14799843939E+02  0.50520873671E+02  0.17283809172E+03  0.18067761347E+03  0.00000000000E+00 0. -1.
         21    1    1    2  504  502 -0.14237977793E+03 -0.48977458603E+02  0.64016166037E+02  0.16361192539E+03  0.00000000000E+00 0. -1.
         21    1    1    2  505  504  0.95374033239E+02  0.36541645234E+02 -0.33799386604E+03  0.35308830557E+03  0.00000000000E+00 0. -1.
          1    1    1    2  501    0  0.32205900751E+02 -0.38085060302E+02 -0.48522864116E+03  0.48778532785E+03  0.00000000000E+00 0. -1.
<scales pt_clust_3="52.37569" pt_clust_4="125.21567" pt_clust_5="14000.00000" pt_clust_6="49.87677"></scales>
<clustering>
<clus scale="   49.877">  2  6  1 -1</clus>
<clus scale="   52.376">  1  3  2 -1</clus>
<clus scale="  125.216">  1  4  2 -1</clus>
<clus scale="   52.376">  1  3  2 -1</clus>
</clustering>
</event>
<event>
 6    0  0.6338511E+002  0.1111355E+03  0.7546771E-02  0.1258481E+00
         21   -1    0    0  503  502  0.00000000000E+00  0.00000000000E+00  0.13505001397E+03  0.13505001397E+03  0.00000000000E+00 0.  1.
         -1   -1    0    0    0  501 -0.00000000000E+00 -0.00000000000E+00 -0.44996715996E+03  0.44996715996E+03  0.00000000000E+00 0.  1.
         21    1    1    2  503  501 -0.39916978519E+02  0.10207809809E+03  0.32886654833E+02  0.11443266732E+03  0.00000000000E+00 0.  1.
         21    1    1    2  504  505 -0.48244790972E+02 -0.15878791641E+03 -0.15882772478E+03  0.22971157658E+03  0.00000000000E+00 0.  1.
         21    1    1    2  505  502  0.49394968332E+02 -0.10911798021E+02 -0.19286907820E+02  0.54137926132E+02  0.00000000000E+00 0.  1.
         -1    1    1    2    0  504  0.38766801158E+02  0.67621616349E+02 -0.16968916822E+03  0.18673500390E+03  0.00000000000E+00 0.  1.
<scales pt_clust_3="14000.00000" pt_clust_4="111.13549" pt_clust_5="50.58587" pt_clust_6="79.11733"></scales>
<clustering>
<clus scale="   50.586">  1  5  2 -1</clus>
<clus scale="   79.117">  2  6  1 -1</clus>
<clus scale="  111.135">  2  4  1 -1</clus>
<clus scale="   50.586">  1  3  2 -1</clus>
</clustering>
</event>
<event>
 6    0  0.6338511E+002  0.1729360E+03  0.7546771E-02  0.1174820E+00
         21   -1    0    0  505  502  0.00000000000E+00  0.00000000000E+00  0.93889900792E+03  0.93889900792E+03  0.00000000000E+00 0.  1.
          2   -1    0    0  502    0 -0.00000000000E+00 -0.00000000000E+00 -0.69935357326E+03  0.69935357326E+03  0.00000000000E+00 0. -1.
         21    1    1    2  503  504  0.90031878679E+02  0.10756921845E+03  0.24215871173E+03  0.27985302857E+03  0.00000000000E+00 0.  1.
         21    1    1    2  504  501 -0.16591386998E+03 -0.14607531353E+03 -0.12623057713E+03  0.25455759285E+03  0.00000000000E+00 0. -1.
         21    1    1    2  505  503  0.62702051966E+02 -0.22288387127E+02  0.60993874265E+03  0.61355813849E+03  0.00000000000E+00 0.  1.
          2    1    1    2  501    0  0.13179939337E+02  0.60794482208E+02 -0.48632144259E+03  0.49028382126E+03  0.00000000000E+00 0. -1.
<scales pt_clust_3="14000.00000" pt_clust_4="172.93596" pt_clust_5="66.47961" pt_clust_6="62.20675"></scales>
<clustering>
<clus scale="   62.207">  2  6  1 -1</clus>
<clus scale="   66.480">  1  5  2 -1</clus>
<clus scale="  172.936">  2  4  1 -1</clus>
<clus scale="   66.480">  1  3  2 -1</clus>
</clustering>
</event>
<event>
 6    0  0.6338511E+002  0.9805748E+02  0.7546771E-02  0.1284435E+00
         -4   -1    0    0    0  501 -0.00000000000E+00  0.00000000000E+00  0.56717231698E+03  0.56717231698E+03  0.00000000000E+00 0.  1.
         21   -1    0    0  505  502  0.00000000000E+00 -0.00000000000E+00 -0.75564662718E+02  0.75564662718E+02  0.00000000000E+00 0.  1.
         21    1    1    2  503  501 -0.95937018704E+01  0.49946912381E+02  0.82991588819E+02  0.97336205939E+02  0.00000000000E+00 0.  1.
         21    1    1    2  504  503  0.47819138740E+02  0.79815811680E+02  0.11198380176E+03  0.14559397543E+03  0.00000000000E+00 0.  1.
         21    1    1    2  505  504 -0.49315058579E+02 -0.55314602065E+02 -0.18029628597E+02  0.76267605913E+02  0.00000000000E+00 0.  1.
         -4    1    1    2    0  502  0.11089621710E+02 -0.74448121996E+02  0.31466189227E+03  0.32353919241E+03  0.00000000000E+00 0.  1.
<scales pt_clust_3="38.41800" pt_clust_4="38.41800" pt_clust_5="74.10587" pt_clust_6="83.15737"></scales>
<clustering>
<clus scale="   38.418">  3  4 -1 -1</clus>
<clus scale="   74.106">  2  5  1 -1</clus>
<clus scale="   83.157">  1  6  2 -1</clus>
<clus scale="   74.106">  2  3  1 -1</clus>
</clustering>
</event>
<event>
 6    0  0.6338511E+002  0.1085389E+03  0.7546771E-02  0.1263300E+00
         21   -1    0    0  504  502  0.00000000000E+00  0.00000000000E+00  0.59640677582E+02  0.59640677582E+02  0.00000000000E+00 0. -1.
          4   -1    0    0  505    0 -0.00000000000E+00 -0.00000000000E+00 -0.12072526214E+04  0.12072526214E+04  0.00000000000E+00 0. -1.
         21    1    1    2  503  501 -0.77705761176E+02 -0.15848358888E+02 -0.11553573881E+03  0.14013515884E+03  0.00000000000E+00 0.  1.
         21    1    1    2  504  503 -0.45484262415E+02  0.29888433092E+02  0.69272570635E+01  0.54864591957E+02  0.00000000000E+00 0. -1.
         21    1    1    2  505  502  0.23959439599E+02  0.64574394736E+02 -0.84422482484E+02  0.10895440675E+03  0.00000000000E+00 0. -1.
          4    1    1    2  501    0  0.99230583992E+02 -0.78614468941E+02 -0.95458097956E+03  0.96293914142E+03  0.00000000000E+00 0. -1.
<scales pt_clust_3="108.53888" pt_clust_4="54.42551" pt_clust_5="77.46216" pt_clust_6="14000.00000"></scales>
<clustering>
<clus scale="   54.426">  1  4  2 -1</clus>
<clus scale="   77.462">  1  5  2 -1</clus>
<clus scale="  108.539">  1  3  2 -1</clus>
<clus scale="   54.426">  1  3  2 -1</clus>
</clustering>
</event>
<event>
 6    0  0.6338511E+002  0.2160209E+03  0.7546771E-02  0.1136885E+00
         21   -1    0    0  501  502  0.00000000000E+00  0.00000000000E+00  0.78633393302E+02  0.78633393302E+02  0.00000000000E+00 0.  1.
          1   -1    0    0  505    0 -0.00000000000E+00 -0.00000000000E+00 -0.30657395431E+04  0.30657395431E+04  0.00000000000E+00 0. -1.
         21    1    1    2  503  504 -0.17359696305E+03  0.31761988666E+02 -0.51280750820E+02  0.18377824928E+03  0.00000000000E+00 0.  1.
         21    1    1    2  504  502 -0.50494483362E+02 -0.14321753775E+02 -0.12402620434E+03  0.13467481147E+03  0.00000000000E+00 0.  1.
         21    1    1    2  505  503  0.19760275893E+03  0.54868419376E+02 -0.20173232908E+04  0.20277205560E+04  0.00000000000E+00 0.  1.
          1    1    1    2  501    0  0.26488687490E+02 -0.72308654266E+02 -0.79447590384E+03  0.79819931961E+03  0.00000000000E+00 0. -1.
<scales pt_clust_3="14000.00000" pt_clust_4="52.48624" pt_clust_5="216.02090" pt_clust_6="76.91965"></scales>
<clustering>
<clus scale="   52.486">  1  4  2 -1</clus>
<clus scale="   76.920">  2  6  1 -1</clus>
<clus scale="  216.021">  2  5  1 -1</clus>
<clus scale="   52.486">  1  3  2 -1</clus>
</clustering>
</event>
<event>
 6    0  0.6338511E+002  0.7756076E+02  0.7546771E-02  0.1336120E+00
         21   -1    0    0  503  502  0.00000000000E+00  0.00000000000E+00  0.90840178930E+02  0.90840178930E+02  0.00000000000E+00 0.  1.
          2   -1    0    0  505    0 -0.00000000000E+00 -0.00000000000E+00 -0.12738954757E+04  0.12738954757E+04  0.00000000000E+00 0. -1.
         21    1    1    2  503  504 -0.53644894910E+02 -0.34913628681E+02 -0.73147365376E+02  0.97197084725E+02  0.00000000000E+00 0.  1.
         21    1    1    2  504  501 -0.10273611085E+02 -0.80376204379E+02 -0.27772842122E+03  0.28930772072E+03  0.00000000000E+00 0.  1.
         21    1    1    2  505  502 -0.36954470700E+01  0.96083567873E+02  0.39333078927E+02  0.10388839898E+03  0.00000000000E+00 0.  1.
          2    1    1    2  501    0  0.67613953065E+02  0.19206265187E+02 -0.87151258911E+03  0.87434245022E+03  0.00000000000E+00 0. -1.
<scales pt_clust_3="64.00575" pt_clust_4="14000.00000" pt_clust_5="77.56076" pt_clust_6="69.19204"></scales>
<clustering>
<clus scale="   64.006">  1  3  2 -1</clus>
<clus scale="   69.192">  2  6  1 -1</clus>
<clus scale="   77.561">  1  5  2 -1</clus>
<clus scale="   64.006">  1  3  2 -1</clus>
</clustering>
</event>
<event>
 6    0  0.6338511E+002  0.5936865E+02  0.7546771E-02  0.1400500E+00
         21   -1    0    0  503  502  0.00000000000E+00  0.00000000000E+00  0.33918825670E+03  0.33918825670E+03  0.00000000000E+00 0. -1.
          2   -1    0    0  502    0 -0.00000000000E+00 -0.00000000000E+00 -0.58370832681E+03  0.58370832681E+03  0.00000000000E+00 0.  1.
         21    1    1    2  503  504 -0.48129056931E+01  0.56324791459E+02  0.26844157514E+03  0.27432922822E+03  0.00000000000E+00 0. -1.
         21    1    1    2  504  505 -0.48197422099E+02 -0.67144449643E+02  0.26715117795E+02  0.86862340135E+02  0.00000000000E+00 0.  1.
         21    1    1    2  505  501  0.68606521555E+02  0.44453364685E+02 -0.15491885522E+03  0.17516508823E+03  0.00000000000E+00 0.  1.
          2    1    1    2  501    0 -0.15596193762E+02 -0.33633706501E+02 -0.38475790783E+03  0.38653992693E+03  0.00000000000E+00 0.  1.
<scales pt_clust_3="56.05236" pt_clust_4="14000.00000" pt_clust_5="59.36865" pt_clust_6="37.07381"></scales>
<clustering>
<clus scale="   37.074">  2  6  1 -1</clus>
<clus scale="   56.052">  1  3  2 -1</clus>
<clus scale="   59.369">  2  5  1 -1</clus>
<clus scale="   56.052">  1  3  2 -1</clus>
</clustering>
</event>
<event>
 6    0  0.6338511E+002  0.7726051E+02  0.7546771E-02  0.1337011E+00
         21   -1    0    0  505  502  0.00000000000E+00  0.00000000000E+00  0.16803340553E+03  0.16803340553E+03  0.00000000000E+00 0. -1.
          1   -1    0    0  504    0 -0.00000000000E+00 -0.00000000000E+00 -0.29500332792E+03  0.29500332792E+03  0.00000000000E+00 0. -1.
         21    1    1    2  503  502 -0.63136554616E+02 -0.15185413628E+02  0.10767675836E+02  0.65823735527E+02  0.00000000000E+00 0. -1.
         21    1    1    2  504  503  0.29453649306E+02  0.93071597793E+02 -0.79212215885E+02  0.12571561128E+03  0.00000000000E+00 0. -1.
         21    1    1    2  505  501 -0.86870037956E+01 -0.55568972568E+02  0.95151857159E+02  0.11053167269E+03  0.00000000000E+00 0. -1.
          1    1    1    2  501    0  0.42369909106E+02 -0.22317211597E+02 -0.15367723950E+03  0.16096571396E+03  0.00000000000E+00 0. -1.
<scales pt_clust_3="14000.00000" pt_clust_4="77.26051" pt_clust_5="57.16594" pt_clust_6="47.88807"></scales>
<clustering>
<clus scale="   47.888">  2  6  1 -1</clus>
<clus scale="   57.166">  1  5  2 -1</clus>
<clus scale="   77.261">  2  4  1 -1</clus>
<clus scale="   57.166">  1  3  2 -1</clus>
</clustering>
</event>
<event>
 6    0  0.6338511E+002  0.7274705E+02  0.7546771E-02  0.1350993E+00
         21   -1    0    0  503  502  0.00000000000E+00  0.00000000000E+00  0.85135405521E+02  0.85135405521E+02  0.00000000000E+00 0. -1.
          1   -1    0    0  504    0 -0.00000000000E+00 -0.00000000000E+00 -0.45758016469E+03  0.45758016469E+03  0.00000000000E+00 0. -1.
         21    1    1    2  503  501  0.41430832847E+02 -0.10149038077E+03 -0.19262558960E+02  0.11130075237E+03  0.00000000000E+00 0. -1.
         21    1    1    2  504  505  0.20857483004E+02  0.42712016675E+02  0.66580624546E+01  0.47996674482E+02  0.00000000000E+00 0.  1.
         21    1    1    2  505  502  0.58051562570E+01  0.34226254844E+02 -0.30478310797E+02  0.46195928272E+02  0.00000000000E+00 0.  1.
          1    1    1    2  501    0 -0.68093472108E+02  0.24552109254E+02 -0.32936195187E+03  0.33722221509E+03  0.00000000000E+00 0. -1.
<scales pt_clust_3="72.74705" pt_clust_4="59.41061" pt_clust_5="34.71507" pt_clust_6="14000.00000"></scales>
<clustering>
<clus scale="   34.715">  1  5  2 -1</clus>
<clus scale="   59.411">  1  4  2 -1</clus>
<clus scale="   72.747">  1  3  2 -1</clus>
<clus scale="   34.715">  1  3  2 -1</clus>
</clustering>
</event>
<event>
 6    0  0.6338511E+002  0.2080473E+03  0.7546771E-02  0.1143122E+00
         21   -1    0    0  505  502  0.00000000000E+00  0.00000000000E+00  0.44454400945E+03  0.44454400945E+03  0.00000000000E+00 0. -1.
          1   -1    0    0  504    0 -0.00000000000E+00 -0.00000000000E+00 -0.24659454926E+04  0.24659454926E+04  0.00000000000E+00 0. -1.
         21    1    1    2  503  502 -0.77026060080E+02  0.19050034563E+03  0.30603273312E+03  0.36861827052E+03  0.00000000000E+00 0. -1.
         21    1    1    2  504  503  0.58602896637E+02  0.94575760646E+01 -0.13024499380E+03  0.14313456483E+03  0.00000000000E+00 0.  1.
         21    1    1    2  505  501  0.64722980164E+01 -0.23022543464E+03 -0.31104191494E+02  0.23240721186E+03  0.00000000000E+00 0.  1.
          1    1    1    2  501    0  0.11950865427E+02  0.30267512944E+02 -0.21660850310E+04  0.21663294549E+04  0.00000000000E+00 0. -1.
<scales pt_clust_3="208.04732" pt_clust_4="68.14557" pt_clust_5="14000.00000" pt_clust_6="32.54144"></scales>
<clustering>
<clus scale="   32.541">  2  6  1 -1</clus>
<clus scale="   68.146">  2  4  1 -1</clus>
<clus scale="  208.047">  1  3  2 -1</clus>
<clus scale="  208.047">  1  3  2 -1</clus>
</clustering>
</event>
<event>
 6    0  0.6338511E+002  0.1906323E+03  0.7546771E-02  0.1157892E+00
          2   -1    0    0  503    0 -0.00000000000E+00  0.00000000000E+00  0.14557489576E+04  0.14557489576E+04  0.00000000000E+00 0.  1.
         21   -1    0    0  505  502  0.00000000000E+00 -0.00000000000E+00 -0.36558466576E+03  0.36558466576E+03  0.00000000000E+00 0. -1.
         21    1    1    2  503  502  0.21670081478E+02 -0.10413161501E+03 -0.77511409505E+02  0.13160928645E+03  0.00000000000E+00 0. -1.
         21    1    1    2  504  501  0.16741576635E+03  0.97656649414E+02  0.40483273470E+03  0.44883672207E+03  0.00000000000E+00 0.  1.
         21    1    1    2  505  504 -0.14920829648E+03 -0.47238463451E+02 -0.21213310836E+03  0.26361912645E+03  0.00000000000E+00 0. -1.
          2    1    1    2  501    0 -0.39877551347E+02  0.53713429048E+02  0.97497607502E+03  0.97726848840E+03  0.00000000000E+00 0.  1.
<scales pt_clust_3="102.95085" pt_clust_4="190.63234" pt_clust_5="14000.00000" pt_clust_6="66.89807"></scales>
<clustering>
<clus scale="   66.898">  1  6  2 -1</clus>
<clus scale="  102.951">  2  3  1 -1</clus>
<clus scale="  190.632">  1  4  2 -1</clus>
<clus scale="  102.951">  2  3  1 -1</clus>
</clustering>
</event>
<event>
 6    0  0.6338511E+002  0.9325781E+02  0.7546771E-02  0.1295149E+00
          2   -1    0    0  504    0 -0.00000000000E+00  0.00000000000E+00  0.19392890846E+04  0.19392890846E+04  0.00000000000E+00 0. -1.
         21   -1    0    0  503  502  0.00000000000E+00 -0.00000000000E+00 -0.82068028933E+02  0.82068028933E+02  0.00000000000E+00 0. -1.
         21    1    1    2  503  505  0.48478901157E+02  0.17296832804E+02 -0.30210032433E+02  0.59682747440E+02  0.00000000000E+00 0. -1.
         21    1    1    2  504  502 -0.53621673603E+02  0.75745915363E+02  0.35706197736E+03  0.36892544402E+03  0.00000000000E+00 0.  1.
         21    1    1    2  505  501  0.47258093802E+02 -0.57436878087E+02  0.14379855483E+02  0.75756865286E+02  0.00000000000E+00 0. -1.
          2    1    1    2  501    0 -0.42115321355E+02 -0.35605870080E+02  0.15159892553E+04  0.15169920568E+04  0.00000000000E+00 0. -1.
<scales pt_clust_3="51.47217" pt_clust_4="93.25781" pt_clust_5="14000.00000" pt_clust_6="54.49927"></scales>
<clustering>
<clus scale="   51.472">  2  3  1 -1</clus>
<clus scale="   54.499">  1  6  2 -1</clus>
<clus scale="   93.258">  1  4  2 -1</clus>
<clus scale="   51.472">  2  3  1 -1</clus>
</clustering>
</event>
<event>
 6    0  0.6338511E+002  0.8430805E+02  0.7546771E-02  0.1317252E+00
         21   -1    0    0  503  502  0.00000000000E+00  0.00000000000E+00  0.65507617773E+02  0.65507617773E+02  0.00000000000E+00 0. -1.
         -3   -1    0    0    0  501 -0.00000000000E+00 -0.00000000000E+00 -0.54072186214E+03  0.54072186214E+03  0.00000000000E+00 0. -1.
         21    1    1    2  503  505 -0.16887860602E+02 -0.25853040598E+02  0.18347846705E+02  0.35919674589E+02  0.00000000000E+00 0. -1.
         21    1    1    2  504  502  0.44220826512E+02  0.36636819620E+02 -0.24589053389E+02  0.62468869013E+02  0.00000000000E+00 0. -1.
         21    1    1    2  505  501 -0.10024792230E+03  0.18683714875E+02 -0.16593536305E+03  0.19476465757E+03  0.00000000000E+00 0. -1.
         -3    1    1    2    0  504  0.72914956395E+02 -0.29467493897E+02 -0.30303767464E+03  0.31307627875E+03  0.00000000000E+00 0. -1.
<scales pt_clust_3="30.88008" pt_clust_4="43.10307" pt_clust_5="14000.00000" pt_clust_6="84.30805"></scales>
<clustering>
<clus scale="   30.880">  1  3  2 -1</clus>
<clus scale="   43.103">  1  4  2 -1</clus>
<clus scale="   84.308">  2  6  1 -1</clus>
<clus scale="   30.880">  1  3  2 -1</clus>
</clustering>
</event>
<event>
 6    0  0.6338511E+002  0.1281849E+03  0.7546771E-02  0.1230174E+00
          2   -1    0    0  503    0 -0.00000000000E+00  0.00000000000E+00  0.35091738393E+04  0.35091738393E+04  0.00000000000E+00 0.  1.
         21   -1    0    0  504  502  0.00000000000E+00 -0.00000000000E+00 -0.14986842470E+03  0.14986842470E+03  0.00000000000E+00 0.  1.
         21    1    1    2  503  505 -0.36151500085E+01 -0.93438567205E+02  0.36197722841E+03  0.37386006612E+03  0.00000000000E+00 0.  1.
         21    1    1    2  504  501 -0.58616216718E+02  0.43629185367E+02 -0.89495034319E+02  0.11553669480E+03  0.00000000000E+00 0.  1.
         21    1    1    2  505  502 -0.74654815119E+00  0.10465302762E+03  0.26202900645E+02  0.10788607661E+03  0.00000000000E+00 0. -1.
          2    1    1    2  501    0  0.62977914878E+02 -0.54843645780E+02  0.30606203199E+04  0.30617594265E+04  0.00000000000E+00 0.  1.
<scales pt_clust_3="14000.00000" pt_clust_4="73.07097" pt_clust_5="128.18493" pt_clust_6="82.63445"></scales>
<clustering>
<clus scale="   73.071">  2  4  1 -1</clus>
<clus scale="   82.634">  1  6  2 -1</clus>
<clus scale="  128.185">  2  5  1 -1</clus>
<clus scale="   73.071">  2  3  1 -1</clus>
</clustering>
</event>
<event>
 6    0  0.6338511E+002  0.1192641E+03  0.7546771E-02  0.1244316E+00
         21   -1    0    0  504  502  0.00000000000E+00  0.00000000000E+00  0.13057645632E+04  0.13057645632E+04  0.00000000000E+00 0.  1.
          1   -1    0    0  503    0 -0.00000000000E+00 -0.00000000000E+00 -0.22958728603E+04  0.22958728603E+04  0.00000000000E+00 0. -1.
         21    1    1    2  503  505  0.10138600627E+03  0.10026258110E+03 -0.22376293187E+03  0.26533291752E+03  0.00000000000E+00 0. -1.
         21    1    1    2  504  501 -0.78193596946E+01 -0.41340829659E+02  0.12475215485E+04  0.12482308362E+04  0.00000000000E+00 0.  1.
         21    1    1    2  505  502 -0.38502797504E+02 -0.84168870375E+02 -0.21805225211E+02  0.95091177310E+02  0.00000000000E+00 0.  1.
          1    1    1    2  501    0 -0.55063849076E+02  0.25247118932E+02 -0.19920616885E+04  0.19929824925E+04  0.00000000000E+00 0. -1.
<scales pt_clust_3="119.26406" pt_clust_4="42.07382" pt_clust_5="14000.00000" pt_clust_6="60.49631"></scales>
<clustering>
<clus scale="   42.074">  1  4  2 -1</clus>
<clus scale="   60.496">  2  6  1 -1</clus>
<clus scale="  119.264">  2  3  1 -1</clus>
<clus scale="   42.074">  1  3  2 -1</clus>
</clustering>
</event>
<event>
 6    0  0.6338511E+002  0.1215608E+03  0.7546771E-02  0.1240544E+00
         21   -1    0    0  503  502  0.00000000000E+00  0.00000000000E+00  0.16755856588E+03  0.16755856588E+03  0.00000000000E+00 0.  1.
          2   -1    0    0  505    0 -0.00000000000E+00 -0.00000000000E+00 -0.18643386696E+04  0.18643386696E+04  0.00000000000E+00 0. -1.
         21    1    1    2  503  504 -0.34863282426E+02 -0.10456013862E+02  0.11775807016E+03  0.12325477587E+03  0.00000000000E+00 0.  1.
         21    1    1    2  504  501 -0.35252531109E+02 -0.98941526668E+02 -0.79366601259E+02  0.13164810688E+03  0.00000000000E+00 0.  1.
         21    1    1    2  505  502  0.16235096244E+02  0.14068166932E+03 -0.22710155289E+03  0.26763786308E+03  0.00000000000E+00 0.  1.
          2    1    1    2  501    0  0.53880717291E+02 -0.31284128791E+02 -0.15080700198E+04  0.15093564897E+04  0.00000000000E+00 0. -1.
<scales pt_clust_3="36.39748" pt_clust_4="14000.00000" pt_clust_5="121.56075" pt_clust_6="61.96499"></scales>
<clustering>
<clus scale="   36.397">  1  3  2 -1</clus>
<clus scale="   61.965">  2  6  1 -1</clus>
<clus scale="  121.561">  2  5  1 -1</clus>
<clus scale="   36.397">  1  3  2 -1</clus>
</clustering>
</event>
<event>
 6    0  0.6338511E+002  0.7185148E+02  0.7546771E-02  0.1353908E+00
         21   -1    0    0  501  502  0.00000000000E+00  0.00000000000E+00  0.35681990677E+03  0.35681990677E+03  0.00000000000E+00 0.  1.
          1   -1    0    0  504    0 -0.00000000000E+00 -0.00000000000E+00 -0.14061189831E+04  0.14061189831E+04  0.00000000000E+00 0.  1.
         21    1    1    2  503  505 -0.74000878682E+02 -0.50568467752E+02 -0.15592919041E+03  0.17985330800E+03  0.00000000000E+00 0.  1.
         21    1    1    2  504  503  0.38673186385E+02 -0.75722012661E+02 -0.52334156661E+03  0.53020357777E+03  0.00000000000E+00 0.  1.
         21    1    1    2  505  502  0.15096859679E+02  0.70393781199E+02  0.33636925588E+03  0.34398761011E+03  0.00000000000E+00 0.  1.
          1    1    1    2  501    0  0.20230832618E+02  0.55896699213E+02 -0.70639757523E+03  0.70889439402E+03  0.00000000000E+00 0.  1.
<scales pt_clust_3="71.85148" pt_clust_4="63.52330" pt_clust_5="14000.00000" pt_clust_6="59.44516"></scales>
<clustering>
<clus scale="   59.445">  2  6  1 -1</clus>
<clus scale="   63.523">  2  4  1 -1</clus>
<clus scale="   71.851">  2  3  1 -1</clus>
<clus scale="   71.851">  1  3  2 -1</clus>
</clustering>
</event>
<event>
 6    0  0.6338511E+002  0.7964850E+02  0.7546771E-02  0.1330052E+00
         21   -1    0    0  505  502  0.00000000000E+00  0.00000000000E+00  0.13712672446E+03  0.13712672446E+03  0.00000000000E+00 0. -1.
          2   -1    0    0  503    0 -0.00000000000E+00 -0.00000000000E+00 -0.21340405025E+04  0.21340405025E+04  0.00000000000E+00 0. -1.
         21    1    1    2  503  504 -0.27922487565E+02 -0.72185796410E+02 -0.55281066635E+03  0.55820255046E+03  0.00000000000E+00 0.  1.
         21    1    1    2  504  502  0.48878974595E+02  0.30065940905E+02 -0.59960281105E+01  0.57698070272E+02  0.00000000000E+00 0. -1.
         21    1    1    2  505  501 -0.99178705441E+02  0.28853397993E+01  0.84390877585E+02  0.13025575234E+03  0.00000000000E+00 0. -1.
          2    1    1    2  501    0  0.78222218410E+02  0.39234515706E+02 -0.15224979612E+04  0.15250108539E+04  0.00000000000E+00 0. -1.
<scales pt_clust_3="79.64850" pt_clust_4="57.38567" pt_clust_5="61.02688" pt_clust_6="14000.00000"></scales>
<clustering>
<clus scale="   57.386">  1  4  2 -1</clus>
<clus scale="   61.027">  1  5  2 -1</clus>
<clus scale="   79.649">  1  3  2 -1</clus>
<clus scale="   57.386">  1  3  2 -1</clus>
</clustering>
</event>
<event>
 6    0  0.6338511E+002  0.2136574E+03  0.7546771E-02  0.1138702E+00
          2   -1    0    0  505    0 -0.00000000000E+00  0.00000000000E+00  0.11627131234E+04  0.11627131234E+04  0.00000000000E+00 0.  1.
         21   -1    0    0  504  502  0.00000000000E+00 -0.00000000000E+00 -0.31148708556E+03  0.31148708556E+03  0.00000000000E+00 0.  1.
         21    1    1    2  503  502  0.18795071840E+02  0.27951196160E+02 -0.13097098256E+03  0.13523284500E+03  0.00000000000E+00 0. -1.
         21    1    1    2  504  501  0.16030597345E+03  0.11424188079E+03  0.75417729710E+02  0.21080096396E+03  0.00000000000E+00 0. -1.
         21    1    1    2  505  503 -0.21311077126E+03 -0.10381040054E+03  0.17809084767E+02  0.23771824412E+03  0.00000000000E+00 0.  1.
          2    1    1    2  501    0  0.34009725963E+02 -0.38382676407E+02  0.88897020595E+03  0.89044815591E+03  0.00000000000E+00 0.  1.
<scales pt_clust_3="33.68270" pt_clust_4="14000.00000" pt_clust_5="213.65737" pt_clust_6="51.24762"></scales>
<clustering>
<clus scale="   33.683">  2  3  1 -1</clus>
<clus scale="   51.248">  1  6  2 -1</clus>
<clus scale="  213.657">  2  5  1 -1</clus>
<clus scale="   33.683">  2  3  1 -1</clus>
</clustering>
</event>
<event>
 6    0  0.6338511E+002  0.9104576E+02  0.7546771E-02  0.1300339E+00
          1   -1    0    0  504    0 -0.00000000000E+00  0.00000000000E+00  0.22740087086E+04  0.22740087086E+04  0.00000000000E+00 0.  1.
         21   -1    0    0  503  502  0.00000000000E+00 -0.00000000000E+00 -0.33890170614E+03  0.33890170614E+03  0.00000000000E+00 0.  1.
         21    1    1    2  503  505  0.39907819806E+02  0.27822879389E+02 -0.20925258657E+03  0.21483340449E+03  0.00000000000E+00 0.  1.
         21    1    1    2  504  502  0.95736147635E+02 -0.39105200951E+02  0.49974353478E+03  0.51033148762E+03  0.00000000000E+00 0.  1.
         21    1    1    2  505  501 -0.10990427654E+03  0.28754384431E+02 -0.94854319548E+02  0.14799698160E+03  0.00000000000E+00 0.  1.
          1    1    1    2  501    0 -0.25739690905E+02 -0.17472062869E+02  0.17394703738E+04  0.17397485411E+04  0.00000000000E+00 0.  1.
<scales pt_clust_3="48.48679" pt_clust_4="91.04576" pt_clust_5="14000.00000" pt_clust_6="31.10956"></scales>
<clustering>
<clus scale="   31.110">  1  6  2 -1</clus>
<clus scale="   48.487">  2  3  1 -1</clus>
<clus scale="   91.046">  1  4  2 -1</clus>
<clus scale="   48.487">  2  3  1 -1</clus>
</clustering>
</event>
<event>
 6    0  0.6338511E+002  0.1411193E+03  0.7546771E-02  0.1211831E+00
          3   -1    0    0  505    0 -0.00000000000E+00  0.00000000000E+00  0.90773582978E+03  0.90773582978E+03  0.00000000000E+00 0. -1.
         21   -1    0    0  504  502  0.00000000000E+00 -0.00000000000E+00 -0.63245900581E+03  0.63245900581E+03  0.00000000000E+00 0.  1.
         21    1    1    2  503  501  0.95406772877E+01  0.12103522139E+03  0.26162324276E+03  0.28842203538E+03  0.00000000000E+00 0.  1.
         21    1    1    2  504  503  0.25150775777E+02 -0.20067560032E+03 -0.48341100562E+03  0.52401284187E+03  0.00000000000E+00 0.  1.
         21    1    1    2  505  502 -0.36378589123E+01  0.61374632579E+02 -0.10657949064E+03  0.12304173019E+03  0.00000000000E+00 0.  1.
          3    1    1    2  501    0 -0.31053594152E+02  0.18265746348E+02  0.60364407747E+03  0.60471822816E+03  0.00000000000E+00 0. -1.
<scales pt_clust_3="14000.00000" pt_clust_4="141.11927" pt_clust_5="62.03190" pt_clust_6="36.02726"></scales>
<clustering>
<clus scale="   36.027">  1  6  2 -1</clus>
<clus scale="   62.032">  2  5  1 -1</clus>
<clus scale="  141.119">  2  4  1 -1</clus>
<clus scale="   62.032">  2  3  1 -1</clus>
</clustering>
</event>
<event>
 6    0  0.6338511E+002  0.6553113E+02  0.7546771E-02  0.1375985E+00
          2   -1    0    0  504    0 -0.00000000000E+00  0.00000000000E+00  0.93129649327E+03  0.93129649327E+03  0.00000000000E+00 0. -1.
         21   -1    0    0  505  502  0.00000000000E+00 -0.00000000000E+00 -0.65822544299E+02  0.65822544299E+02  0.00000000000E+00 0.  1.
         21    1    1    2  503  502 -0.24386054193E+01 -0.69247356967E+02  0.11624059802E+03  0.13532560686E+03  0.00000000000E+00 0. -1.
         21    1    1    2  504  503 -0.79195693771E+02  0.48542973778E+02  0.21806201221E+03  0.23702198081E+03  0.00000000000E+00 0. -1.
         21    1    1    2  505  501  0.49304131254E+02  0.42119327862E+02 -0.23330839943E+02  0.68914898467E+02  0.00000000000E+00 0.  1.
          2    1    1    2  501    0  0.32330167936E+02 -0.21414944673E+02  0.55450217868E+03  0.55585655144E+03  0.00000000000E+00 0. -1.
<scales pt_clust_3="14000.00000" pt_clust_4="65.03052" pt_clust_5="65.53113" pt_clust_6="38.77937"></scales>
<clustering>
<clus scale="   38.779">  1  6  2 -1</clus>
<clus scale="   65.531">  2  5  1 -1</clus>
<clus scale="   65.031">  1  4  2 -1</clus>
<clus scale="   65.531">  2  3  1 -1</clus>
</clustering>
</event>
<event>
 6    0  0.6338511E+002  0.1063826E+03  0.7546771E-02  0.1267419E+00
         21   -1    0    0  501  502  0.00000000000E+00  0.00000000000E+00  0.74538365263E+03  0.74538365263E+03  0.00000000000E+00 0.  1.
          1   -1    0    0  503    0 -0.00000000000E+00 -0.00000000000E+00 -0.50551057187E+03  0.50551057187E+03  0.00000000000E+00 0.  1.
         21    1    1    2  503  505 -0.55100996535E+01 -0.52134852891E+02  0.10019665681E+03  0.11308304082E+03  0.00000000000E+00 0.  1.
         21    1    1    2  504  502  0.10735339061E+03  0.20385628136E+02  0.46578071676E+03  0.47842658832E+03  0.00000000000E+00 0.  1.
         21    1    1    2  505  504 -0.99270944665E+02 -0.10122255890E+02  0.15069803783E+03  0.18074036385E+03  0.00000000000E+00 0.  1.
          1    1    1    2  501    0 -0.25723462872E+01  0.41871480645E+02 -0.47680233064E+03  0.47864423151E+03  0.00000000000E+00 0.  1.
<scales pt_clust_3="42.86310" pt_clust_4="14000.00000" pt_clust_5="106.38262" pt_clust_6="41.95042"></scales>
<clustering>
<clus scale="   41.950">  2  6  1 -1</clus>
<clus scale="   42.863">  2  3  1 -1</clus>
<clus scale="  106.383">  2  5  1 -1</clus>
<clus scale="  106.383">  1  3  2 -1</clus>
</clustering>
</event>
<event>
 6    0  0.6338511E+002  0.1485564E+03  0.7546771E-02  0.1202258E+00
         21   -1    0    0  503  502  0.00000000000E+00  0.00000000000E+00  0.36927254252E+03  0.36927254252E+03  0.00000000000E+00 0.  1.
          1   -1    0    0  505    0 -0.00000000000E+00 -0.00000000000E+00 -0.29515065206E+03  0.29515065206E+03  0.00000000000E+00 0. -1.
         21    1    1    2  503  504 -0.92937437885E+02  0.82608357418E+02 -0.28840409532E+01  0.12437775431E+03  0.00000000000E+00 0.  1.
         21    1    1    2  504  501 -0.61704367403E+02 -0.29882477304E+02 -0.70239029302E+02  0.98152496880E+02  0.00000000000E+00 0.  1.
         21    1    1    2  505  502  0.16417405478E+03 -0.13361364733E+02  0.26797463698E+03  0.31455055618E+03  0.00000000000E+00 0.  1.
          1    1    1    2  501    0 -0.95322494885E+01 -0.39364515381E+02 -0.12072967626E+03  0.12734238721E+03  0.00000000000E+00 0. -1.
<scales pt_clust_3="14000.00000" pt_clust_4="82.66777" pt_clust_5="148.55641" pt_clust_6="40.50221"></scales>
<clustering>
<clus scale="   40.502">  2  6  1 -1</clus>
<clus scale="   82.668">  2  4  1 -1</clus>
<clus scale="  148.556">  1  5  2 -1</clus>
<clus scale="  148.556">  1  3  2 -1</clus>
</clustering>
</event>
<event>
 6    0  0.6338511E+002  0.1458186E+03  0.7546771E-02  0.1205707E+00
          2   -1    0    0  504    0 -0.00000000000E+00  0.00000000000E+00  0.39059465380E+03  0.39059465380E+03  0.00000000000E+00 0. -1.
         21   -1    0    0  505  502  0.00000000000E+00 -0.00000000000E+00 -0.40504711004E+03  0.40504711004E+03  0.00000000000E+00 0. -1.
         21    1    1    2  503  502  0.63119402809E+02  0.98107353867E+01 -0.18378676505E+03  0.19457102700E+03  0.00000000000E+00 0. -1.
         21    1    1    2  504  503  0.62058479924E+02 -0.12755417754E+02 -0.11356452598E+03  0.13004175166E+03  0.00000000000E+00 0. -1.
         21    1    1    2  505  501 -0.66015051834E+01 -0.76958541853E+02 -0.61107404413E+02  0.98490161483E+02  0.00000000000E+00 0. -1.
          2    1    1    2  501    0 -0.11857637755E+03  0.79903224221E+02  0.34400623920E+03  0.37253882370E+03  0.00000000000E+00 0. -1.
<scales pt_clust_3="35.59582" pt_clust_4="35.59582" pt_clust_5="77.24116" pt_clust_6="141.37039"></scales>
<clustering>
<clus scale="   35.596">  3  4 -1 -1</clus>
<clus scale="   77.241">  2  5  1 -1</clus>
<clus scale="  141.370">  1  6  2 -1</clus>
<clus scale="   77.241">  2  3  1 -1</clus>
</clustering>
</event>
<event>
 6    0  0.6338511E+002  0.8048596E+02  0.7546771E-02  0.1327678E+00
          1   -1    0    0  504    0 -0.00000000000E+00  0.00000000000E+00  0.25514570041E+04  0.25514570041E+04  0.00000000000E+00 0. -1.
         21   -1    0    0  505  502  0.00000000000E+00 -0.00000000000E+00 -0.10212116454E+03  0.10212116454E+03  0.00000000000E+00 0.  1.
         21    1    1    2  503  501  0.12909296175E+02  0.64987587326E+02 -0.11745218411E+01  0.66267759398E+02  0.00000000000E+00 0.  1.
         21    1    1    2  504  502  0.65897577597E+02 -0.12004381590E+03  0.24707002536E+03  0.28248293028E+03  0.00000000000E+00 0.  1.
         21    1    1    2  505  503 -0.50824876146E+02  0.19281357654E+01 -0.37431905145E+02  0.63150876998E+02  0.00000000000E+00 0.  1.
          1    1    1    2  501    0 -0.27981997625E+02  0.53128092812E+02  0.22408722412E+04  0.22416766020E+04  0.00000000000E+00 0. -1.
<scales pt_clust_3="14000.00000" pt_clust_4="80.48596" pt_clust_5="50.86144" pt_clust_6="60.24453"></scales>
<clustering>
<clus scale="   50.861">  2  5  1 -1</clus>
<clus scale="   60.245">  1  6  2 -1</clus>
<clus scale="   80.486">  1  4  2 -1</clus>
<clus scale="   50.861">  2  3  1 -1</clus>
</clustering>
</event>
<event>
 6    0  0.6338511E+002  0.9316976E+02  0.7546771E-02  0.1295352E+00
         21   -1    0    0  504  502  0.00000000000E+00  0.00000000000E+00  0.89189087749E+02  0.89189087749E+02  0.00000000000E+00 0. -1.
          2   -1    0    0  505    0 -0.00000000000E+00 -0.00000000000E+00 -0.27026503996E+04  0.27026503996E+04  0.00000000000E+00 0.  1.
         21    1    1    2  503  502 -0.30267783151E+02  0.44858264279E+02  0.42291523428E+02  0.68680241153E+02  0.00000000000E+00 0. -1.
         21    1    1    2  504  501  0.82764368985E+02 -0.32283061176E+02 -0.26925288863E+03  0.28352998932E+03  0.00000000000E+00 0.  1.
         21    1    1    2  505  503 -0.78418890143E+02 -0.46390256153E+02 -0.52331943830E+02  0.10507240619E+03  0.00000000000E+00 0.  1.
          2    1    1    2  501    0  0.25922304309E+02  0.33815053050E+02 -0.23341680028E+04  0.23345568507E+04  0.00000000000E+00 0.  1.
<scales pt_clust_3="54.61870" pt_clust_4="93.16976" pt_clust_5="14000.00000" pt_clust_6="42.60779"></scales>
<clustering>
<clus scale="   42.608">  2  6  1 -1</clus>
<clus scale="   54.619">  1  3  2 -1</clus>
<clus scale="   93.170">  2  4  1 -1</clus>
<clus scale="   54.619">  1  3  2 -1</clus>
</clustering>
</event>
<event>
 6    0  0.6338511E+002  0.2693355E+03  0.7546771E-02  0.1101661E+00
         21   -1    0    0  504  502  0.00000000000E+00  0.00000000000E+00  0.62607116447E+02  0.62607116447E+02  0.00000000000E+00 0. -1.
          2   -1    0    0  505    0 -0.00000000000E+00 -0.00000000000E+00 -0.33054698488E+04  0.33054698488E+04  0.00000000000E+00 0. -1.
         21    1    1    2  503  502  0.29916370718E+02 -0.27436710656E+03 -0.32978946165E+03  0.43003882082E+03  0.00000000000E+00 0. -1.
         21    1    1    2  504  501 -0.44527608032E+02  0.24096730583E+03 -0.14064105458E+04  0.14275988840E+04  0.00000000000E+00 0. -1.
         21    1    1    2  505  503  0.33763643493E+02 -0.10769592028E+02 -0.21672815523E+03  0.21960660510E+03  0.00000000000E+00 0.  1.
          2    1    1    2  501    0 -0.19152406178E+02  0.44169392757E+02 -0.12899345697E+04  0.12908326553E+04  0.00000000000E+00 0. -1.
<scales pt_clust_3="14000.00000" pt_clust_4="269.33552" pt_clust_5="35.43964" pt_clust_6="39.98703"></scales>
<clustering>
<clus scale="   35.440">  2  5  1 -1</clus>
<clus scale="   39.987">  2  6  1 -1</clus>
<clus scale="  269.336">  2  4  1 -1</clus>
<clus scale="  269.336">  1  3  2 -1</clus>
</clustering>
</event>
<event>
 6    0  0.6338511E+002  0.1053292E+03  0.7546771E-02  0.1269472E+00
          2   -1    0    0  505    0 -0.00000000000E+00  0.00000000000E+00  0.26396757681E+03  0.26396757681E+03  0.00000000000E+00 0. -1.
         21   -1    0    0  503  502  0.00000000000E+00 -0.00000000000E+00 -0.14594291320E+03  0.14594291320E+03  0.00000000000E+00 0. -1.
         21    1    1    2  503  501  0.14565828830E+02 -0.82510858146E+02  0.52092977507E+01  0.83948447660E+02  0.00000000000E+00 0.  1.
         21    1    1    2  504  502 -0.66430139165E+02 -0.30591146576E+02 -0.43299060275E+01  0.73263426923E+02  0.00000000000E+00 0. -1.
         21    1    1    2  505  504 -0.33202125440E+01  0.13309405155E+03  0.13799837674E+02  0.13384874258E+03  0.00000000000E+00 0. -1.
          2    1    1    2  501    0  0.55184522879E+02 -0.19992046829E+02  0.10334543422E+03  0.11884987285E+03  0.00000000000E+00 0. -1.
<scales pt_clust_3="105.32916" pt_clust_4="64.39423" pt_clust_5="14000.00000" pt_clust_6="58.69424"></scales>
<clustering>
<clus scale="   58.694">  1  6  2 -1</clus>
<clus scale="   64.394">  2  4  1 -1</clus>
<clus scale="  105.329">  1  3  2 -1</clus>
<clus scale="   64.394">  2  3  1 -1</clus>
</clustering>
</event>
<event>
 6    0  0.6338511E+002  0.1391621E+03  0.7546771E-02  0.1214461E+00
         21   -1    0    0  505  502  0.00000000000E+00  0.00000000000E+00  0.62320617700E+02  0.62320617700E+02  0.00000000000E+00 0. -1.
          1   -1    0    0  503    0 -0.00000000000E+00 -0.00000000000E+00 -0.18026246529E+04  0.18026246529E+04  0.00000000000E+00 0. -1.
         21    1    1    2  503  502  0.44242576979E+02 -0.48355781780E+02 -0.11312246189E+02  0.66510556780E+02  0.00000000000E+00 0. -1.
         21    1    1    2  504  501 -0.11828358768E+03  0.12612322600E+03 -0.53640491755E+03  0.56358522942E+03  0.00000000000E+00 0. -1.
         21    1    1    2  505  504  0.12490862993E+03  0.10814017915E+02 -0.19358452697E+03  0.23063841374E+03  0.00000000000E+00 0. -1.
          1    1    1    2  501    0 -0.50867619225E+02 -0.88581462135E+02 -0.99900234449E+03  0.10042110706E+04  0.00000000000E+00 0. -1.
<scales pt_clust_3="65.54149" pt_clust_4="139.16215" pt_clust_5="14000.00000" pt_clust_6="103.74644"></scales>
<clustering>
<clus scale="   65.541">  1  3  2 -1</clus>
<clus scale="  103.746">  2  6  1 -1</clus>
<clus scale="  139.162">  2  4  1 -1</clus>
<clus scale="   65.541">  1  3  2 -1</clus>
</clustering>
</event>
<event>
 6    0  0.6338511E+002  0.2499114E+03  0.7546771E-02  0.1113361E+00
         21   -1    0    0  505  502  0.00000000000E+00  0.00000000000E+00  0.81965179223E+03  0.81965179223E+03  0.00000000000E+00 0.  1.
          2   -1    0    0  503    0 -0.00000000000E+00 -0.00000000000E+00 -0.67121865926E+03  0.67121865926E+03  0.00000000000E+00 0. -1.
         21    1    1    2  503  502 -0.24187583942E+03  0.10610656291E+03  0.24160226205E+03  0.35795834592E+03  0.00000000000E+00 0.  1.
         21    1    1    2  504  501  0.21743033609E+03 -0.10447101673E+03  0.19383757622E+03  0.30945621717E+03  0.00000000000E+00 0. -1.
         21    1    1    2  505  504 -0.42860650873E+02 -0.26087101049E+01  0.26444626416E+03  0.26790981204E+03  0.00000000000E+00 0.  1.
          2    1    1    2  501    0  0.67306154206E+02  0.97316392431E+00 -0.55145296945E+03  0.55554607636E+03  0.00000000000E+00 0. -1.
<scales pt_clust_3="249.91137" pt_clust_4="14000.00000" pt_clust_5="42.93997" pt_clust_6="67.15458"></scales>
<clustering>
<clus scale="   42.940">  1  5  2 -1</clus>
<clus scale="   67.155">  2  6  1 -1</clus>
<clus scale="  249.911">  2  3  1 -1</clus>
<clus scale="   42.940">  1  3  2 -1</clus>
</clustering>
</event>
<event>
 6    0  0.6338511E+002  0.1532644E+03  0.7546771E-02  0.1196518E+00
         21   -1    0    0  503  502  0.00000000000E+00  0.00000000000E+00  0.48833671661E+03  0.48833671661E+03  0.00000000000E+00 0. -1.
         -3   -1    0    0    0  501 -0.00000000000E+00 -0.00000000000E+00 -0.24623107375E+03  0.24623107375E+03  0.00000000000E+00 0.  1.
         21    1    1    2  503  505 -0.11768354353E+03 -0.50262848040E+02  0.15366807405E+03  0.19997411656E+03  0.00000000000E+00 0. -1.
         21    1    1    2  504  502  0.20063855204E+03 -0.71570154309E+01  0.25446621697E+03  0.32412976879E+03  0.00000000000E+00 0. -1.
         21    1    1    2  505  501 -0.66732915124E+02  0.90526562824E+01 -0.13470162672E+03  0.15059801057E+03  0.00000000000E+00 0.  1.
         -3    1    1    2    0  504 -0.16222093383E+02  0.48367207188E+02 -0.31327021440E+02  0.59865894441E+02  0.00000000000E+00 0.  1.
<scales pt_clust_3="14000.00000" pt_clust_4="153.26443" pt_clust_5="89.51443" pt_clust_6="51.01513"></scales>
<clustering>
<clus scale="   51.015">  2  6  1 -1</clus>
<clus scale="   89.514">  2  5  1 -1</clus>
<clus scale="  153.264">  2  4  1 -1</clus>
<clus scale="  153.264">  1  3  2 -1</clus>
</clustering>
</event>
<event>
 6    0  0.6338511E+002  0.6024845E+02  0.7546771E-02  0.1396792E+00
          2   -1    0    0  503    0 -0.00000000000E+00  0.00000000000E+00  0.42975145193E+04  0.42975145193E+04  0.00000000000E+00 0.  1.
         21   -1    0    0  504  502  0.00000000000E+00 -0.00000000000E+00 -0.14546399320E+04  0.14546399320E+04  0.00000000000E+00 0. -1.
         21    1    1    2  503  502  0.11456232079E+02 -0.48787862229E+02  0.80133002578E+02  0.94513485052E+02  0.00000000000E+00 0.  1.
         21    1    1    2  504  505  0.38348089360E+02 -0.65392247374E+01 -0.14040045156E+04  0.14045433483E+04  0.00000000000E+00 0. -1.
         21    1    1    2  505  501 -0.95288715038E+02  0.94265617917E+02  0.61599205082E+02  0.14751409425E+03  0.00000000000E+00 0. -1.
          2    1    1    2  501    0  0.45484393598E+02 -0.38938530951E+02  0.41051468952E+04  0.41055835237E+04  0.00000000000E+00 0.  1.
<scales pt_clust_3="52.52494" pt_clust_4="38.90164" pt_clust_5="14000.00000" pt_clust_6="60.24845"></scales>
<clustering>
<clus scale="   38.902">  2  4  1 -1</clus>
<clus scale="   52.525">  2  3  1 -1</clus>
<clus scale="   60.248">  1  6  2 -1</clus>
<clus scale="   38.902">  2  3  1 -1</clus>
</clustering>
</event>
<event>
 6    0  0.6338511E+002  0.9180006E+02  0.7546771E-02  0.1298550E+00
          2   -1    0    0  503    0 -0.00000000000E+00  0.00000000000E+00  0.28744151709E+03  0.28744151709E+03  0.00000000000E+00 0. -1.
         21   -1    0    0  504  502  0.00000000000E+00 -0.00000000000E+00 -0.88725918854E+03  0.88725918854E+03  0.00000000000E+00 0. -1.
         21    1    1    2  503  502  0.26185774625E+02 -0.10488968724E+03 -0.40599333852E+03  0.42014061004E+03  0.00000000000E+00 0. -1.
         21    1    1    2  504  505  0.32275962717E+02  0.20943548741E+02 -0.44170882824E+03  0.44338139220E+03  0.00000000000E+00 0. -1.
         21    1    1    2  505  501 -0.46343220278E+02  0.33571434377E+02 -0.72271024455E+00  0.57229866172E+02  0.00000000000E+00 0. -1.
          2    1    1    2  501    0 -0.12118517064E+02  0.50374704124E+02  0.24860720556E+03  0.25394883722E+03  0.00000000000E+00 0. -1.
<scales pt_clust_3="14000.00000" pt_clust_4="38.47558" pt_clust_5="91.80006" pt_clust_6="51.88928"></scales>
<clustering>
<clus scale="   38.476">  2  4  1 -1</clus>
<clus scale="   51.889">  1  6  2 -1</clus>
<clus scale="   91.800">  1  5  2 -1</clus>
<clus scale="   38.476">  2  3  1 -1</clus>
</clustering>
</event>
<event>
 6    0  0.6338511E+002  0.1138003E+03  0.7546771E-02  0.1253690E+00
         -1   -1    0    0    0  501 -0.00000000000E+00  0.00000000000E+00  0.89768577289E+03  0.89768577289E+03  0.00000000000E+00 0. -1.
         21   -1    0    0  503  502  0.00000000000E+00 -0.00000000000E+00 -0.22933027704E+03  0.22933027704E+03  0.00000000000E+00 0.  1.
         21    1    1    2  503  501  0.67770516597E+02 -0.32987104361E+02 -0.48708165608E+02  0.89741168762E+02  0.00000000000E+00 0. -1.
         21    1    1    2  504  502  0.41759538903E+01  0.48910964636E+02 -0.12454981089E+03  0.13387448019E+03  0.00000000000E+00 0.  1.
         21    1    1    2  505  504 -0.78182280474E+02 -0.12609326534E+03  0.18290149562E+03  0.23550995233E+03  0.00000000000E+00 0. -1.
         -1    1    1    2    0  505  0.62358099872E+01  0.11016940506E+03  0.65871197672E+03  0.66789044867E+03  0.00000000000E+00 0. -1.
<scales pt_clust_3="70.66279" pt_clust_4="49.08891" pt_clust_5="14000.00000" pt_clust_6="113.80030"></scales>
<clustering>
<clus scale="   49.089">  2  4  1 -1</clus>
<clus scale="   70.663">  2  3  1 -1</clus>
<clus scale="  113.800">  1  6  2 -1</clus>
<clus scale="   49.089">  2  3  1 -1</clus>
</clustering>
</event>
<event>
 6    0  0.6338511E+002  0.9225365E+02  0.7546771E-02  0.1297484E+00
          1   -1    0    0  503    0 -0.00000000000E+00  0.00000000000E+00  0.36442184989E+03  0.36442184989E+03  0.00000000000E+00 0.  1.
         21   -1    0    0  504  502  0.00000000000E+00 -0.00000000000E+00 -0.11236813647E+03  0.11236813647E+03  0.00000000000E+00 0.  1.
         21    1    1    2  503  502 -0.78805373400E+02  0.20989984410E+02  0.15854495141E+02  0.83079668622E+02  0.00000000000E+00 0.  1.
         21    1    1    2  504  505  0.47439790355E+02 -0.27354231318E+02 -0.32062790183E+02  0.63457152427E+02  0.00000000000E+00 0.  1.
         21    1    1    2  505  501 -0.28946568796E+02 -0.74627898381E+02  0.64340642758E+02  0.10269832215E+03  0.00000000000E+00 0.  1.
          1    1    1    2  501    0  0.60312151841E+02  0.80992145289E+02  0.20392136570E+03  0.22755484316E+03  0.00000000000E+00 0.  1.
<scales pt_clust_3="54.54506" pt_clust_4="54.76119" pt_clust_5="14000.00000" pt_clust_6="92.25365"></scales>
<clustering>
<clus scale="   54.761">  2  4  1 -1</clus>
<clus scale="   54.545">  2  3  1 -1</clus>
<clus scale="   92.254">  1  6  2 -1</clus>
<clus scale="   54.761">  2  3  1 -1</clus>
</clustering>
</event>
<event>
 6    0  0.6338511E+002  0.1196944E+03  0.7546771E-02  0.1243602E+00
          1   -1    0    0  503    0 -0.00000000000E+00  0.00000000000E+00  0.74783524625E+03  0.74783524625E+03  0.00000000000E+00 0.  1.
         21   -1    0    0  505  502  0.00000000000E+00 -0.00000000000E+00 -0.34297045340E+03  0.34297045340E+03  0.00000000000E+00 0. -1.
         21    1    1    2  503  504 -0.10265410962E+03 -0.10012403513E+03 -0.10352934241E+03  0.17686439261E+03  0.00000000000E+00 0. -1.
         21    1    1    2  504  502 -0.97827558816E+01  0.30053025356E+02 -0.20038417645E+02  0.37422250432E+02  0.00000000000E+00 0. -1.
         21    1    1    2  505  501 -0.35256058329E+01  0.41144613252E+02 -0.16641794373E+03  0.17146498503E+03  0.00000000000E+00 0. -1.
          1    1    1    2  501    0  0.11596247134E+03  0.28926396520E+02  0.69485049664E+03  0.70505407158E+03  0.00000000000E+00 0.  1.
<scales pt_clust_3="119.69441" pt_clust_4="31.60517" pt_clust_5="57.97120" pt_clust_6="14000.00000"></scales>
<clustering>
<clus scale="   31.605">  2  4  1 -1</clus>
<clus scale="   57.971">  2  5  1 -1</clus>
<clus scale="  119.694">  2  3  1 -1</clus>
<clus scale="   31.605">  2  3  1 -1</clus>
</clustering>
</event>
<event>
 6    0  0.6338511E+002  0.1259017E+03  0.7546771E-02  0.1233667E+00
         -2   -1    0    0    0  501 -0.00000000000E+00  0.00000000000E+00  0.34736632991E+03  0.34736632991E+03  0.00000000000E+00 0. -1.
         21   -1    0    0  505  502  0.00000000000E+00 -0.00000000000E+00 -0.13569355881E+03  0.13569355881E+03  0.00000000000E+00 0.  1.
         21    1    1    2  503  501 -0.70068658998E+02  0.59721393198E+02  0.16786403686E+02  0.93584427807E+02  0.00000000000E+00 0.  1.
         21    1    1    2  504  502  0.62497882420E+02 -0.42392338592E+02  0.11205410915E+03  0.13512667781E+03  0.00000000000E+00 0. -1.
         21    1    1    2  505  503 -0.27946198820E+02  0.24620871654E+02 -0.76888711361E+02  0.85434485334E+02  0.00000000000E+00 0.  1.
         -2    1    1    2    0  504  0.35516975398E+02 -0.41949926260E+02  0.15972096963E+03  0.16891429778E+03  0.00000000000E+00 0. -1.
<scales pt_clust_3="118.29005" pt_clust_4="36.78093" pt_clust_5="37.24483" pt_clust_6="36.78093"></scales>
<clustering>
<clus scale="   36.781">  4  6 -1 -1</clus>
<clus scale="   37.245">  2  5  1 -1</clus>
<clus scale="  118.290">  2  3  1 -1</clus>
<clus scale="   37.245">  2  3  1 -1</clus>
</clustering>
</event>
<event>
 6    0  0.6338511E+002  0.2212345E+03  0.7546771E-02  0.1132966E+00
         21   -1    0    0  503  502  0.00000000000E+00  0.00000000000E+00  0.30392625145E+03  0.30392625145E+03  0.00000000000E+00 0. -1.
          2   -1    0    0  505    0 -0.00000000000E+00 -0.00000000000E+00 -0.17783802335E+04  0.17783802335E+04  0.00000000000E+00 0.  1.
         21    1    1    2  503  501  0.97996000698E+02  0.76052489113E+02 -0.29406945461E+03  0.31916146602E+03  0.00000000000E+00 0.  1.
         21    1    1    2  504  502 -0.53686414289E+02 -0.22610590564E+03  0.23268248333E+03  0.32885749146E+03  0.00000000000E+00 0. -1.
         21    1    1    2  505  504 -0.78432772439E+02  0.12081903516E+03 -0.50587284312E+03  0.52598124725E+03  0.00000000000E+00 0. -1.
          2    1    1    2  501    0  0.34123186030E+02  0.29234381366E+02 -0.90719416760E+03  0.90830628017E+03  0.00000000000E+00 0.  1.
<scales pt_clust_3="139.85331" pt_clust_4="221.23455" pt_clust_5="14000.00000" pt_clust_6="44.93374"></scales>
<clustering>
<clus scale="   44.934">  2  6  1 -1</clus>
<clus scale="  139.853">  2  3  1 -1</clus>
<clus scale="  221.235">  1  4  2 -1</clus>
<clus scale="  221.235">  1  3  2 -1</clus>
</clustering>
</event>
<event>
 6    0  0.6338511E+002  0.1027395E+03  0.7546771E-02  0.1274638E+00
          2   -1    0    0  505    0 -0.00000000000E+00  0.00000000000E+00  0.10996080915E+04  0.10996080915E+04  0.00000000000E+00 0. -1.
         21   -1    0    0  501  502  0.00000000000E+00 -0.00000000000E+00 -0.53513714851E+02  0.53513714851E+02  0.00000000000E+00 0. -1.
         21    1    1    2  503  502  0.46233105723E+01  0.38916468703E+02  0.15893778305E+01  0.39222348972E+02  0.00000000000E+00 0. -1.
         21    1    1    2  504  503  0.90322814907E+02 -0.66267632230E+02  0.87550602624E+02  0.14217847233E+03  0.00000000000E+00 0. -1.
         21    1    1    2  505  504  0.70089324883E+01 -0.36603759787E+02  0.10737135226E+03  0.11365547787E+03  0.00000000000E+00 0.  1.
          2    1    1    2  501    0 -0.10195505797E+03  0.63954923313E+02  0.84958304393E+03  0.85806550717E+03  0.00000000000E+00 0. -1.
<scales pt_clust_3="38.45800" pt_clust_4="102.73954" pt_clust_5="37.26876" pt_clust_6="14000.00000"></scales>
<clustering>
<clus scale="   37.269">  1  5  2 -1</clus>
<clus scale="   38.458">  2  3  1 -1</clus>
<clus scale="  102.740">  2  4  1 -1</clus>
<clus scale="   38.458">  2  3  1 -1</clus>
</clustering>
</event>
<event>
 6    0  0.6338511E+002  0.1192006E+03  0.7546771E-02  0.1244422E+00
         21   -1    0    0  504  502  0.00000000000E+00  0.00000000000E+00  0.27046338229E+02  0.27046338229E+02  0.00000000000E+00 0. -1.
          2   -1    0    0  505    0 -0.00000000000E+00 -0.00000000000E+00 -0.25671965909E+04  0.25671965909E+04  0.00000000000E+00 0. -1.
         21    1    1    2  503  501 -0.57164267740E+02  0.13122894147E+03 -0.35660993816E+03  0.38426480007E+03  0.00000000000E+00 0. -1.
         21    1    1    2  504  503  0.26756735864E+02 -0.21508457025E+02 -0.25445000590E+02  0.42731542129E+02  0.00000000000E+00 0. -1.
         21    1    1    2  505  502 -0.14880676365E+02 -0.11565434990E+03 -0.80717249450E+03  0.81555183714E+03  0.00000000000E+00 0. -1.
          2    1    1    2  501    0  0.45288208241E+02  0.59338654549E+01 -0.13509228195E+04  0.13516947498E+04  0.00000000000E+00 0. -1.
<scales pt_clust_3="14000.00000" pt_clust_4="34.32982" pt_clust_5="119.20064" pt_clust_6="46.17603"></scales>
<clustering>
<clus scale="   34.330">  1  4  2 -1</clus>
<clus scale="   46.176">  2  6  1 -1</clus>
<clus scale="  119.201">  2  5  1 -1</clus>
<clus scale="   34.330">  1  3  2 -1</clus>
</clustering>
</event>
<event>
 6    0  0.6338511E+002  0.9901238E+02  0.7546771E-02  0.1282387E+00
          2   -1    0    0  503    0 -0.00000000000E+00  0.00000000000E+00  0.18996432311E+03  0.18996432311E+03  0.00000000000E+00 0.  1.
         21   -1    0    0  504  502  0.00000000000E+00 -0.00000000000E+00 -0.37680542894E+03  0.37680542894E+03  0.00000000000E+00 0. -1.
         21    1    1    2  503  505 -0.18355008629E+02  0.42188836047E+02  0.30024480967E+02  0.54938817662E+02  0.00000000000E+00 0. -1.
         21    1    1    2  504  501 -0.12034388858E+02 -0.44231952540E+02 -0.11571723045E+03  0.12446593736E+03  0.00000000000E+00 0. -1.
         21    1    1    2  505  502  0.10842283061E+03  0.59652965045E+02 -0.20864082206E+03  0.24257984061E+03  0.00000000000E+00 0. -1.
          2    1    1    2  501    0 -0.78033433127E+02 -0.57609848552E+02  0.10749246571E+03  0.14478515643E+03  0.00000000000E+00 0.  1.
<scales pt_clust_3="44.29541" pt_clust_4="45.83985" pt_clust_5="99.01238" pt_clust_6="14000.00000"></scales>
<clustering>
<clus scale="   45.840">  2  4  1 -1</clus>
<clus scale="   44.295">  1  3  2 -1</clus>
<clus scale="   99.012">  2  5  1 -1</clus>
<clus scale="   45.840">  2  3  1 -1</clus>
</clustering>
</event>
<event>
 6    0  0.6338511E+002  0.3751370E+03  0.7546771E-02  0.1052746E+00
         21   -1    0    0  505  502  0.00000000000E+00  0.00000000000E+00  0.24464537242E+04  0.24464537242E+04  0.00000000000E+00 0.  1.
          2   -1    0    0  504    0 -0.00000000000E+00 -0.00000000000E+00 -0.28100269413E+04  0.28100269413E+04  0.00000000000E+00 0.  1.
         21    1    1    2  503  502 -0.94118971794E+01 -0.52960411086E+02  0.62288104864E+02  0.82299434739E+02  0.00000000000E+00 0. -1.
         21    1    1    2  504  503  0.34713666637E+03  0.20009294080E+03  0.41790454272E+03  0.57895186062E+03  0.00000000000E+00 0. -1.
         21    1    1    2  505  501 -0.14910430511E+03  0.17793635764E+03  0.18554792288E+04  0.18699456168E+04  0.00000000000E+00 0.  1.
          2    1    1    2  501    0 -0.18862046408E+03 -0.32506888735E+03 -0.26992450935E+04  0.27252837533E+04  0.00000000000E+00 0.  1.
<scales pt_clust_3="53.79023" pt_clust_4="14000.00000" pt_clust_5="207.58015" pt_clust_6="375.13700"></scales>
<clustering>
<clus scale="   53.790">  1  3  2 -1</clus>
<clus scale="  207.580">  1  5  2 -1</clus>
<clus scale="  375.137">  2  6  1 -1</clus>
<clus scale="   53.790">  1  3  2 -1</clus>
</clustering>
</event>
<event>
 6    0  0.6338511E+002  0.2931341E+03  0.7546771E-02  0.1088724E+00
          1   -1    0    0  504    0 -0.00000000000E+00  0.00000000000E+00  0.52961867380E+03  0.52961867380E+03  0.00000000000E+00 0. -1.
         21   -1    0    0  505  502  0.00000000000E+00 -0.00000000000E+00 -0.58233880129E+03  0.58233880129E+03  0.00000000000E+00 0.  1.
         21    1    1    2  503  501 -0.51940264295E+01 -0.10955388953E+03  0.10748692404E+03  0.15356585382E+03  0.00000000000E+00 0. -1.
         21    1    1    2  504  502  0.40006355444E+02  0.33762893755E+02 -0.19770410571E+03  0.20451737062E+03  0.00000000000E+00 0.  1.
         21    1    1    2  505  503  0.97139294815E+02  0.19738673501E+03 -0.29977764191E+03  0.37183894409E+03  0.00000000000E+00 0.  1.
          1    1    1    2  501    0 -0.13195162383E+03 -0.12159573924E+03  0.33727469610E+03  0.38203530656E+03  0.00000000000E+00 0. -1.
<scales pt_clust_3="101.26696" pt_clust_4="52.34923" pt_clust_5="262.88969" pt_clust_6="101.26696"></scales>
<clustering>
<clus scale="   52.349">  2  4  1 -1</clus>
<clus scale="  101.267">  3  6 -1 -1</clus>
<clus scale="  262.890">  2  5  1 -1</clus>
<clus scale="   52.349">  2  3  1 -1</clus>
</clustering>
</event>
<event>
 6    0  0.6338511E+002  0.9232366E+02  0.7546771E-02  0.1297320E+00
         -2   -1    0    0    0  501 -0.00000000000E+00  0.00000000000E+00  0.86090740735E+03  0.86090740735E+03  0.00000000000E+00 0.  1.
         21   -1    0    0  503  502  0.00000000000E+00 -0.00000000000E+00 -0.39316291951E+03  0.39316291951E+03  0.00000000000E+00 0. -1.
         21    1    1    2  503  501 -0.36109961580E+02 -0.61294020962E+02  0.24649493981E+02  0.75289334467E+02  0.00000000000E+00 0. -1.
         21    1    1    2  504  502  0.64815272861E+02  0.27372639254E+02 -0.32577512972E+03  0.33328623752E+03  0.00000000000E+00 0. -1.
         21    1    1    2  505  504  0.64158967142E+02  0.48645297619E+02  0.10359967008E+02  0.81179227402E+02  0.00000000000E+00 0. -1.
         -2    1    1    2    0  505 -0.92864278423E+02 -0.14723915911E+02  0.75851015658E+03  0.76431552747E+03  0.00000000000E+00 0.  1.
<scales pt_clust_3="51.44770" pt_clust_4="70.35823" pt_clust_5="92.32366" pt_clust_6="14000.00000"></scales>
<clustering>
<clus scale="   70.358">  2  4  1 -1</clus>
<clus scale="   51.448">  2  3  1 -1</clus>
<clus scale="   92.324">  2  5  1 -1</clus>
<clus scale="   70.358">  2  3  1 -1</clus>
</clustering>
</event>
<event>
 6    0  0.6338511E+002  0.1580716E+03  0.7546771E-02  0.1190891E+00
         21   -1    0    0  503  502  0.00000000000E+00  0.00000000000E+00  0.94356607574E+02  0.94356607574E+02  0.00000000000E+00 0. -1.
          2   -1    0    0  505    0 -0.00000000000E+00 -0.00000000000E+00 -0.12467926572E+04  0.12467926572E+04  0.00000000000E+00 0. -1.
         21    1    1    2  503  504 -0.81985119897E+01  0.81440527309E+02 -0.30279671107E+03  0.31366482640E+03  0.00000000000E+00 0. -1.
         21    1    1    2  504  501 -0.45884481736E+02  0.33057240128E+02 -0.26008442712E+03  0.26616174785E+03  0.00000000000E+00 0. -1.
         21    1    1    2  505  502  0.84762795608E+02 -0.12338150724E+03  0.19919756177E+02  0.15101167019E+03  0.00000000000E+00 0. -1.
          2    1    1    2  501    0 -0.30679801882E+02  0.88837397992E+01 -0.60947466766E+03  0.61031102037E+03  0.00000000000E+00 0. -1.
<scales pt_clust_3="50.91002" pt_clust_4="50.91002" pt_clust_5="147.16545" pt_clust_6="31.94012"></scales>
<clustering>
<clus scale="   31.940">  2  6  1 -1</clus>
<clus scale="   50.910">  3  4 -1 -1</clus>
<clus scale="  147.165">  1  5  2 -1</clus>
<clus scale="  147.165">  1  3  2 -1</clus>
</clustering>
</event>
<event>
 6    0  0.6338511E+002  0.1021759E+03  0.7546771E-02  0.1275786E+00
          2   -1    0    0  504    0 -0.00000000000E+00  0.00000000000E+00  0.18505331584E+04  0.18505331584E+04  0.00000000000E+00 0. -1.
         21   -1    0    0  501  502  0.00000000000E+00 -0.00000000000E+00 -0.73929210968E+02  0.73929210968E+02  0.00000000000E+00 0. -1.
         21    1    1    2  503  505  0.17411733170E+02  0.42952228627E+02  0.33163740423E+02  0.56990315623E+02  0.00000000000E+00 0. -1.
         21    1    1    2  504  503 -0.12792469899E+03 -0.30206226895E+01  0.16403986481E+03  0.20804549987E+03  0.00000000000E+00 0. -1.
         21    1    1    2  505  502  0.10743536333E+02 -0.28487374586E+02 -0.32423468199E+02  0.44477357991E+02  0.00000000000E+00 0.  1.
          2    1    1    2  501    0  0.99769429485E+02 -0.11444231351E+02  0.16118238104E+04  0.16149491959E+04  0.00000000000E+00 0. -1.
<scales pt_clust_3="39.45215" pt_clust_4="102.17588" pt_clust_5="30.44592" pt_clust_6="14000.00000"></scales>
<clustering>
<clus scale="   30.446">  2  5  1 -1</clus>
<clus scale="   39.452">  2  3  1 -1</clus>
<clus scale="  102.176">  2  4  1 -1</clus>
<clus scale="   30.446">  2  3  1 -1</clus>
</clustering>
</event>
<event>
 6    0  0.6338511E+002  0.6754208E+02  0.7546771E-02  0.1368657E+00
         21   -1    0    0  503  502  0.00000000000E+00  0.00000000000E+00  0.56069018412E+02  0.56069018412E+02  0.00000000000E+00 0.  1.
          2   -1    0    0  505    0 -0.00000000000E+00 -0.00000000000E+00 -0.11405176099E+04  0.11405176099E+04  0.00000000000E+00 0. -1.
         21    1    1    2  503  501  0.20331701050E+02 -0.69746864441E+02 -0.98398746986E+02  0.12231237295E+03  0.00000000000E+00 0. -1.
         21    1    1    2  504  502  0.10691853572E+02  0.66734317403E+02 -0.36736039421E+01  0.67685155078E+02  0.00000000000E+00 0.  1.
         21    1    1    2  505  504 -0.32748700474E+02  0.57392380694E+02 -0.85472231934E+02  0.10803640672E+03  0.00000000000E+00 0. -1.
          2    1    1    2  501    0  0.17251458513E+01 -0.54379833655E+02 -0.89690400858E+03  0.89855269353E+03  0.00000000000E+00 0. -1.
<scales pt_clust_3="67.54208" pt_clust_4="14000.00000" pt_clust_5="47.99936" pt_clust_6="54.40719"></scales>
<clustering>
<clus scale="   54.407">  2  6  1 -1</clus>
<clus scale="   47.999">  2  5  1 -1</clus>
<clus scale="   67.542">  2  3  1 -1</clus>
<clus scale="   67.542">  1  3  2 -1</clus>
</clustering>
</event>
<event>
 6    0  0.6338511E+002  0.1984091E+03  0.7546771E-02  0.1151088E+00
         21   -1    0    0  501  502  0.00000000000E+00  0.00000000000E+00  0.25030380924E+04  0.25030380924E+04  0.00000000000E+00 0.  1.
          1   -1    0    0  505    0 -0.00000000000E+00 -0.00000000000E+00 -0.71206068470E+03  0.71206068470E+03  0.00000000000E+00 0.  1.
         21    1    1    2  503  502 -0.12449558895E+03 -0.17061793969E+03  0.20107535502E+04  0.20218158849E+04  0.00000000000E+00 0.  1.
         21    1    1    2  504  503  0.12770885996E+03  0.10935048673E+03  0.46986696508E+03  0.49904112730E+03  0.00000000000E+00 0.  1.
         21    1    1    2  505  504  0.10035587596E+02  0.30263135935E+02 -0.14083736560E+03  0.14440129489E+03  0.00000000000E+00 0.  1.
          1    1    1    2  501    0 -0.13248858607E+02  0.31004317017E+02 -0.54880574200E+03  0.54984046994E+03  0.00000000000E+00 0.  1.
<scales pt_clust_3="14000.00000" pt_clust_4="198.40915" pt_clust_5="31.88370" pt_clust_6="60.30390"></scales>
<clustering>
<clus scale="   31.884">  2  5  1 -1</clus>
<clus scale="   60.304">  2  6  1 -1</clus>
<clus scale="  198.409">  2  4  1 -1</clus>
<clus scale="  198.409">  1  3  2 -1</clus>
</clustering>
</event>
<event>
 6    0  0.6338511E+002  0.1027572E+03  0.7546771E-02  0.1274603E+00
         21   -1    0    0  504  502  0.00000000000E+00  0.00000000000E+00  0.29164576656E+02  0.29164576656E+02  0.00000000000E+00 0. -1.
          2   -1    0    0  503    0 -0.00000000000E+00 -0.00000000000E+00 -0.96635731906E+03  0.96635731906E+03  0.00000000000E+00 0. -1.
         21    1    1    2  503  502 -0.16405317480E+02 -0.44957343317E+02 -0.11472659499E+03  0.12430803979E+03  0.00000000000E+00 0. -1.
         21    1    1    2  504  505  0.73427659297E+02  0.25388618217E+02 -0.81566848899E+02  0.11264703247E+03  0.00000000000E+00 0. -1.
         21    1    1    2  505  501  0.29135005438E+02  0.38280397248E+02 -0.93089898933E+02  0.10478533599E+03  0.00000000000E+00 0. -1.
          2    1    1    2  501    0 -0.86157347254E+02 -0.18711672147E+02 -0.64780939958E+03  0.65378148746E+03  0.00000000000E+00 0. -1.
<scales pt_clust_3="47.85705" pt_clust_4="36.89986" pt_clust_5="36.89986" pt_clust_6="91.43319"></scales>
<clustering>
<clus scale="   36.900">  4  5 -1 -1</clus>
<clus scale="   47.857">  1  3  2 -1</clus>
<clus scale="   91.433">  2  6  1 -1</clus>
<clus scale="   47.857">  1  3  2 -1</clus>
</clustering>
</event>
<event>
 6    0  0.6338511E+002  0.1311059E+03  0.7546771E-02  0.1225824E+00
          2   -1    0    0  504    0 -0.00000000000E+00  0.00000000000E+00  0.56678912011E+03  0.56678912011E+03  0.00000000000E+00 0. -1.
         21   -1    0    0  505  502  0.00000000000E+00 -0.00000000000E+00 -0.33222010035E+03  0.33222010035E+03  0.00000000000E+00 0. -1.
         21    1    1    2  503  502 -0.28325494524E+02  0.12263287038E+02 -0.21699850181E+03  0.21918273572E+03  0.00000000000E+00 0. -1.
         21    1    1    2  504  503  0.35743662889E+02 -0.26164888914E+01 -0.15989304990E+01  0.35874949889E+02  0.00000000000E+00 0. -1.
         21    1    1    2  505  501 -0.12859616431E+03 -0.57167428520E+02 -0.29716071599E+02  0.14383370005E+03  0.00000000000E+00 0. -1.
          2    1    1    2  501    0  0.12117799595E+03  0.47520630373E+02  0.48288252367E+03  0.50011783479E+03  0.00000000000E+00 0. -1.
<scales pt_clust_3="30.86619" pt_clust_4="31.09924" pt_clust_5="14000.00000" pt_clust_6="131.10594"></scales>
<clustering>
<clus scale="   30.866">  2  3  1 -1</clus>
<clus scale="   31.099">  2  4  1 -1</clus>
<clus scale="  131.106">  1  6  2 -1</clus>
<clus scale="   30.866">  2  3  1 -1</clus>
</clustering>
</event>
<event>
 6    0  0.6338511E+002  0.1340223E+03  0.7546771E-02  0.1221607E+00
          2   -1    0    0  502    0 -0.00000000000E+00  0.00000000000E+00  0.24900090611E+04  0.24900090611E+04  0.00000000000E+00 0.  1.
         21   -1    0    0  505  502  0.00000000000E+00 -0.00000000000E+00 -0.17716470220E+04  0.17716470220E+04  0.00000000000E+00 0. -1.
         21    1    1    2  503  504  0.56598700736E+01  0.10080323315E+03 -0.29580887903E+03  0.31256394362E+03  0.00000000000E+00 0.  1.
         21    1    1    2  504  501  0.21482888666E+02 -0.11032820513E+03  0.10903346378E+03  0.15659541365E+03  0.00000000000E+00 0. -1.
         21    1    1    2  505  503 -0.55213128633E+01  0.39645140849E+02 -0.14432558162E+04  0.14438107816E+04  0.00000000000E+00 0. -1.
          2    1    1    2  501    0 -0.21621445877E+02 -0.30120168869E+02  0.23483932706E+04  0.23486859442E+04  0.00000000000E+00 0.  1.
<scales pt_clust_3="134.02228" pt_clust_4="14000.00000" pt_clust_5="39.97513" pt_clust_6="37.07710"></scales>
<clustering>
<clus scale="   37.077">  1  6  2 -1</clus>
<clus scale="   39.975">  2  5  1 -1</clus>
<clus scale="  134.022">  2  3  1 -1</clus>
<clus scale="   39.975">  2  3  1 -1</clus>
</clustering>
</event>
<event>
 6    0  0.6338511E+002  0.1190537E+03  0.7546771E-02  0.1244666E+00
         21   -1    0    0  503  502  0.00000000000E+00  0.00000000000E+00  0.24224181730E+04  0.24224181730E+04  0.00000000000E+00 0. -1.
         -2   -1    0    0    0  501 -0.00000000000E+00 -0.00000000000E+00 -0.41796551172E+02  0.41796551172E+02  0.00000000000E+00 0. -1.
         21    1    1    2  503  504  0.40441418905E+02  0.13036977527E+02  0.13131896594E+04  0.13138769169E+04  0.00000000000E+00 0. -1.
         21    1    1    2  504  501 -0.13318546556E+03  0.55360065420E+02  0.91510403732E+03  0.92640083344E+03  0.00000000000E+00 0. -1.
         21    1    1    2  505  502  0.10878804695E+03 -0.37955871355E+02  0.15041510889E+03  0.18947346070E+03  0.00000000000E+00 0. -1.
         -2    1    1    2    0  505 -0.16044000295E+02 -0.30441171591E+02  0.19128162309E+01  0.34463513159E+02  0.00000000000E+00 0. -1.
<scales pt_clust_3="42.16072" pt_clust_4="119.05372" pt_clust_5="14000.00000" pt_clust_6="34.41039"></scales>
<clustering>
<clus scale="   34.410">  2  6  1 -1</clus>
<clus scale="   42.161">  1  3  2 -1</clus>
<clus scale="  119.054">  1  4  2 -1</clus>
<clus scale="   42.161">  1  3  2 -1</clus>
</clustering>
</event>
<event>
 6    0  0.6338511E+002  0.2194765E+03  0.7546771E-02  0.1134274E+00
         21   -1    0    0  504  502  0.00000000000E+00  0.00000000000E+00  0.43304069764E+03  0.43304069764E+03  0.00000000000E+00 0.  1.
          1   -1    0    0  505    0 -0.00000000000E+00 -0.00000000000E+00 -0.60473199946E+03  0.60473199946E+03  0.00000000000E+00 0.  1.
         21    1    1    2  503  502 -0.34800031700E+02 -0.15089023670E+02  0.83087756469E+02  0.91336170911E+02  0.00000000000E+00 0.  1.
         21    1    1    2  504  501  0.94350147153E+02 -0.13421951734E+03  0.19141463977E+03  0.25210393377E+03  0.00000000000E+00 0.  1.
         21    1    1    2  505  503 -0.14755229141E+03 -0.81838422495E+02  0.16651530111E+02  0.16954786803E+03  0.00000000000E+00 0.  1.
          1    1    1    2  501    0  0.88002175961E+02  0.23114696351E+03 -0.46284522817E+03  0.52478472439E+03  0.00000000000E+00 0.  1.
<scales pt_clust_3="37.93047" pt_clust_4="160.91882" pt_clust_5="219.47649" pt_clust_6="14000.00000"></scales>
<clustering>
<clus scale="   37.930">  1  3  2 -1</clus>
<clus scale="  160.919">  1  4  2 -1</clus>
<clus scale="  219.476">  1  5  2 -1</clus>
<clus scale="   37.930">  1  3  2 -1</clus>
</clustering>
</event>
<event>
 6    0  0.6338511E+002  0.1262298E+03  0.7546771E-02  0.1233160E+00
          2   -1    0    0  504    0 -0.00000000000E+00  0.00000000000E+00  0.17150036041E+04  0.17150036041E+04  0.00000000000E+00 0. -1.
         21   -1    0    0  505  502  0.00000000000E+00 -0.00000000000E+00 -0.14176987741E+03  0.14176987741E+03  0.00000000000E+00 0.  1.
         21    1    1    2  503  501 -0.31344390953E+02  0.70721225174E+02 -0.33056647020E+02  0.84123150479E+02  0.00000000000E+00 0.  1.
         21    1    1    2  504  502 -0.21131143251E+02 -0.28597014883E+02 -0.58441569552E+02  0.68408563258E+02  0.00000000000E+00 0.  1.
         21    1    1    2  505  503 -0.54226576006E+02  0.30113570175E+02  0.38694707735E+02  0.73106969987E+02  0.00000000000E+00 0.  1.
          2    1    1    2  501    0  0.10670211021E+03 -0.72237780466E+02  0.16260372356E+04  0.16311347978E+04  0.00000000000E+00 0. -1.
<scales pt_clust_3="126.22977" pt_clust_4="35.55720" pt_clust_5="63.50896" pt_clust_6="14000.00000"></scales>
<clustering>
<clus scale="   35.557">  2  4  1 -1</clus>
<clus scale="   63.509">  2  5  1 -1</clus>
<clus scale="  126.230">  2  3  1 -1</clus>
<clus scale="   35.557">  2  3  1 -1</clus>
</clustering>
</event>
<event>
 6    0  0.6338511E+002  0.7151434E+02  0.7546771E-02  0.1355018E+00
         21   -1    0    0  504  502  0.00000000000E+00  0.00000000000E+00  0.12809731752E+03  0.12809731752E+03  0.00000000000E+00 0.  1.
          2   -1    0    0  505    0 -0.00000000000E+00 -0.00000000000E+00 -0.13304498822E+04  0.13304498822E+04  0.00000000000E+00 0.  1.
         21    1    1    2  503  502  0.46543432481E+02  0.75442124322E+02 -0.24153803791E+02  0.91876065800E+02  0.00000000000E+00 0.  1.
         21    1    1    2  504  501 -0.34383997516E+02 -0.87921918893E+01  0.86423070229E+02  0.93426489772E+02  0.00000000000E+00 0.  1.
         21    1    1    2  505  503 -0.24527440481E+02 -0.10402761103E+03 -0.83246200386E+03  0.83929513705E+03  0.00000000000E+00 0.  1.
          2    1    1    2  501    0  0.12368005515E+02  0.37377678602E+02 -0.43215982730E+03  0.43394950715E+03  0.00000000000E+00 0.  1.
<scales pt_clust_3="71.51434" pt_clust_4="35.49031" pt_clust_5="14000.00000" pt_clust_6="38.92820"></scales>
<clustering>
<clus scale="   35.490">  1  4  2 -1</clus>
<clus scale="   38.928">  2  6  1 -1</clus>
<clus scale="   71.514">  1  3  2 -1</clus>
<clus scale="   35.490">  1  3  2 -1</clus>
</clustering>
</event>
<event>
 6    0  0.6338511E+002  0.1202417E+03  0.7546771E-02  0.1242699E+00
          1   -1    0    0  503    0 -0.00000000000E+00  0.00000000000E+00  0.13046985069E+04  0.13046985069E+04  0.00000000000E+00 0.  1.
         21   -1    0    0  505  502  0.00000000000E+00 -0.00000000000E+00 -0.17721520262E+03  0.17721520262E+03  0.00000000000E+00 0. -1.
         21    1    1    2  503  502  0.22692809332E+02 -0.10818363647E+03  0.59387036260E+03  0.60407008730E+03  0.00000000000E+00 0.  1.
         21    1    1    2  504  501 -0.35796836773E+02  0.81324327912E+02 -0.19139893303E+02  0.90892218308E+02  0.00000000000E+00 0. -1.
         21    1    1    2  505  504 -0.16611826879E+02  0.32788886457E+02 -0.11386216984E+03  0.11964805719E+03  0.00000000000E+00 0. -1.
          1    1    1    2  501    0  0.29715854320E+02 -0.59295779032E+01  0.66661500483E+03  0.66730334673E+03  0.00000000000E+00 0.  1.
<scales pt_clust_3="120.24170" pt_clust_4="14000.00000" pt_clust_5="36.67206" pt_clust_6="30.30168"></scales>
<clustering>
<clus scale="   30.302">  1  6  2 -1</clus>
<clus scale="   36.672">  2  5  1 -1</clus>
<clus scale="  120.242">  1  3  2 -1</clus>
<clus scale="   36.672">  2  3  1 -1</clus>
</clustering>
</event>
<event>
 6    0  0.6338511E+002  0.7455458E+02  0.7546771E-02  0.1345256E+00
         21   -1    0    0  505  502  0.00000000000E+00  0.00000000000E+00  0.49291976701E+03  0.49291976701E+03  0.00000000000E+00 0. -1.
          4   -1    0    0  503    0 -0.00000000000E+00 -0.00000000000E+00 -0.16809982843E+03  0.16809982843E+03  0.00000000000E+00 0. -1.
         21    1    1    2  503  504 -0.12567861214E+02 -0.55559711638E+02  0.52426837321E+02  0.77417090906E+02  0.00000000000E+00 0. -1.
         21    1    1    2  504  502 -0.22901298509E+02 -0.65197608903E+02  0.30999053875E+03  0.31759932588E+03  0.00000000000E+00 0. -1.
         21    1    1    2  505  501  0.74092741586E+02  0.14064696886E+03  0.51313421611E+02  0.16704601594E+03  0.00000000000E+00 0. -1.
          4    1    1    2  501    0 -0.38623581862E+02 -0.19889648320E+02 -0.88910859104E+02  0.98957162716E+02  0.00000000000E+00 0. -1.
<scales pt_clust_3="61.92187" pt_clust_4="74.55458" pt_clust_5="14000.00000" pt_clust_6="43.44398"></scales>
<clustering>
<clus scale="   43.444">  2  6  1 -1</clus>
<clus scale="   61.922">  2  3  1 -1</clus>
<clus scale="   74.555">  1  4  2 -1</clus>
<clus scale="   74.555">  1  3  2 -1</clus>
</clustering>
</event>
<event>
 6    0  0.6338511E+002  0.6910636E+02  0.7546771E-02  0.1363159E+00
          2   -1    0    0  504    0 -0.00000000000E+00  0.00000000000E+00  0.72253671526E+03  0.72253671526E+03  0.00000000000E+00 0.  1.
         21   -1    0    0  503  502  0.00000000000E+00 -0.00000000000E+00 -0.19518652181E+03  0.19518652181E+03  0.00000000000E+00 0. -1.
         21    1    1    2  503  505  0.56904411099E+01 -0.55078877419E+02 -0.16137393465E+03  0.17060952682E+03  0.00000000000E+00 0. -1.
         21    1    1    2  504  502  0.69458088720E+02  0.31684774189E+02  0.10334598580E+03  0.12848635642E+03  0.00000000000E+00 0. -1.
         21    1    1    2  505  501 -0.34237325175E+02 -0.43705337422E+02  0.42052151062E+02  0.69647213607E+02  0.00000000000E+00 0. -1.
          2    1    1    2  501    0 -0.40911204655E+02  0.67099440652E+02  0.54332599124E+03  0.54898014022E+03  0.00000000000E+00 0.  1.
<scales pt_clust_3="55.37205" pt_clust_4="72.34850" pt_clust_5="69.10636" pt_clust_6="14000.00000"></scales>
<clustering>
<clus scale="   55.372">  2  3  1 -1</clus>
<clus scale="   72.348">  2  4  1 -1</clus>
<clus scale="   69.106">  2  5  1 -1</clus>
<clus scale="   55.372">  2  3  1 -1</clus>
</clustering>
</event>
<event>
 6    0  0.6338511E+002  0.6006389E+02  0.7546771E-02  0.1397564E+00
         21   -1    0    0  503  502  0.00000000000E+00  0.00000000000E+00  0.23632890681E+03  0.23632890681E+03  0.00000000000E+00 0. -1.
          2   -1    0    0  505    0 -0.00000000000E+00 -0.00000000000E+00 -0.10944515776E+04  0.10944515776E+04  0.00000000000E+00 0.  1.
         21    1    1    2  503  501 -0.62385809918E+02  0.10612552294E+02  0.13733313456E+03  0.15121178986E+03  0.00000000000E+00 0. -1.
         21    1    1    2  504  502  0.53626298836E+02  0.46471435299E+02  0.73854158414E+02  0.10241977807E+03  0.00000000000E+00 0. -1.
         21    1    1    2  505  504 -0.49855102714E+02 -0.30536476970E+02 -0.68489736715E+03  0.68738810815E+03  0.00000000000E+00 0.  1.
          2    1    1    2  501    0  0.58614613796E+02 -0.26547510622E+02 -0.38441259657E+03  0.38976080829E+03  0.00000000000E+00 0.  1.
<scales pt_clust_3="14000.00000" pt_clust_4="60.06389" pt_clust_5="58.46373" pt_clust_6="56.64573"></scales>
<clustering>
<clus scale="   58.464">  2  5  1 -1</clus>
<clus scale="   56.646">  2  6  1 -1</clus>
<clus scale="   60.064">  2  4  1 -1</clus>
<clus scale="   60.064">  1  3  2 -1</clus>
</clustering>
</event>
<event>
 6    0  0.6338511E+002  0.9199341E+02  0.7546771E-02  0.1298095E+00
          2   -1    0    0  505    0 -0.00000000000E+00  0.00000000000E+00  0.13085677869E+04  0.13085677869E+04  0.00000000000E+00 0. -1.
         21   -1    0    0  503  502  0.00000000000E+00 -0.00000000000E+00 -0.98348227540E+03  0.98348227540E+03  0.00000000000E+00 0. -1.
         21    1    1    2  503  504 -0.76617852224E+02  0.42131821772E+00 -0.79659204845E+03  0.80026830779E+03  0.00000000000E+00 0. -1.
         21    1    1    2  504  501  0.11437758239E+03  0.53937417792E+02 -0.13736191881E+03  0.18670772113E+03  0.00000000000E+00 0.  1.
         21    1    1    2  505  502 -0.33388076393E+01  0.30938703587E+02 -0.10015245912E+02  0.32690306924E+02  0.00000000000E+00 0.  1.
          2    1    1    2  501    0 -0.34420922530E+02 -0.85297439597E+02  0.12690547246E+04  0.12723837264E+04  0.00000000000E+00 0. -1.
<scales pt_clust_3="83.56764" pt_clust_4="91.99341" pt_clust_5="31.11834" pt_clust_6="14000.00000"></scales>
<clustering>
<clus scale="   31.118">  2  5  1 -1</clus>
<clus scale="   83.568">  2  3  1 -1</clus>
<clus scale="   91.993">  2  4  1 -1</clus>
<clus scale="   31.118">  2  3  1 -1</clus>
</clustering>
</event>
<event>
 6    0  0.6338511E+002  0.1320986E+03  0.7546771E-02  0.1224375E+00
          1   -1    0    0  503    0 -0.00000000000E+00  0.00000000000E+00  0.87835592884E+03  0.87835592884E+03  0.00000000000E+00 0. -1.
         21   -1    0    0  505  502  0.00000000000E+00 -0.00000000000E+00 -0.55301026196E+03  0.55301026196E+03  0.00000000000E+00 0. -1.
         21    1    1    2  503  502 -0.13361573487E+03 -0.38812397837E+02 -0.50683000676E+03  0.52558179438E+03  0.00000000000E+00 0. -1.
         21    1    1    2  504  501  0.98252682171E+02 -0.26911678871E+01  0.15093589303E+03  0.18011794953E+03  0.00000000000E+00 0.  1.
         21    1    1    2  505  504 -0.38011595672E+01  0.37786794607E+02 -0.49953318555E+01  0.38304621145E+02  0.00000000000E+00 0. -1.
          1    1    1    2  501    0  0.39164212270E+02  0.37167711169E+01  0.68623511247E+03  0.68736182575E+03  0.00000000000E+00 0. -1.
<scales pt_clust_3="132.09863" pt_clust_4="14000.00000" pt_clust_5="37.97750" pt_clust_6="39.33998"></scales>
<clustering>
<clus scale="   37.978">  2  5  1 -1</clus>
<clus scale="   39.340">  1  6  2 -1</clus>
<clus scale="  132.099">  2  3  1 -1</clus>
<clus scale="   37.978">  2  3  1 -1</clus>
</clustering>
</event>
<event>
 6    0  0.6338511E+002  0.7181168E+02  0.7546771E-02  0.1354038E+00
          2   -1    0    0  505    0 -0.00000000000E+00  0.00000000000E+00  0.24191576420E+04  0.24191576420E+04  0.00000000000E+00 0. -1.
         21   -1    0    0  504  502  0.00000000000E+00 -0.00000000000E+00 -0.33123101995E+02  0.33123101995E+02  0.00000000000E+00 0.  1.
         21    1    1    2  503  502  0.28142499591E+02  0.82206617640E+02  0.27685202419E+03  0.29016714419E+03  0.00000000000E+00 0. -1.
         21    1    1    2  504  501  0.21159604395E+02 -0.34668521602E+02 -0.69319954349E+01  0.41203007280E+02  0.00000000000E+00 0.  1.
         21    1    1    2  505  503 -0.83327434562E+01 -0.77190644590E+02  0.78364140375E+03  0.78747805042E+03  0.00000000000E+00 0.  1.
          2    1    1    2  501    0 -0.40969360530E+02  0.29652548552E+02  0.13324731075E+04  0.13334325421E+04  0.00000000000E+00 0. -1.
<scales pt_clust_3="71.81168" pt_clust_4="40.61570" pt_clust_5="14000.00000" pt_clust_6="48.59658"></scales>
<clustering>
<clus scale="   40.616">  2  4  1 -1</clus>
<clus scale="   48.597">  1  6  2 -1</clus>
<clus scale="   71.812">  2  3  1 -1</clus>
<clus scale="   40.616">  2  3  1 -1</clus>
</clustering>
</event>
<event>
 6    0  0.6338511E+002  0.1537298E+03  0.7546771E-02  0.1195963E+00
         21   -1    0    0  505  502  0.00000000000E+00  0.00000000000E+00  0.15294819978E+03  0.15294819978E+03  0.00000000000E+00 0.  1.
         -2   -1    0    0    0  501 -0.00000000000E+00 -0.00000000000E+00 -0.11061905456E+04  0.11061905456E+04  0.00000000000E+00 0.  1.
         21    1    1    2  503  502 -0.63146793445E+02 -0.83225427526E+02  0.50337681343E+02  0.11596495795E+03  0.00000000000E+00 0.  1.
         21    1    1    2  504  503 -0.50362629345E+02  0.17861813561E+01  0.86155507750E+01  0.51125459348E+02  0.00000000000E+00 0. -1.
         21    1    1    2  505  501 -0.24184654456E+02  0.89106141230E+02 -0.25533936438E+02  0.95795531347E+02  0.00000000000E+00 0.  1.
         -2    1    1    2    0  504  0.13769407725E+03 -0.76668950599E+01 -0.98666164149E+03  0.99625279672E+03  0.00000000000E+00 0.  1.
<scales pt_clust_3="48.75121" pt_clust_4="48.75121" pt_clust_5="92.32985" pt_clust_6="136.76936"></scales>
<clustering>
<clus scale="   48.751">  3  4 -1 -1</clus>
<clus scale="   92.330">  1  5  2 -1</clus>
<clus scale="  136.769">  2  6  1 -1</clus>
<clus scale="   92.330">  1  3  2 -1</clus>
</clustering>
</event>
<event>
 6    0  0.6338511E+002  0.2154770E+03  0.7546771E-02  0.1137301E+00
         -3   -1    0    0    0  501 -0.00000000000E+00  0.00000000000E+00  0.59774884008E+03  0.59774884008E+03  0.00000000000E+00 0.  1.
         21   -1    0    0  503  502  0.00000000000E+00 -0.00000000000E+00 -0.11414841959E+03  0.11414841959E+03  0.00000000000E+00 0. -1.
         21    1    1    2  503  505 -0.24238844843E+02 -0.27999489898E+02 -0.38989392801E+00  0.37035726686E+02  0.00000000000E+00 0. -1.
         21    1    1    2  504  502  0.16195202784E+02 -0.30575905761E+02  0.27057085973E+02  0.43923302559E+02  0.00000000000E+00 0. -1.
         21    1    1    2  505  501 -0.20830477280E+03  0.65873231249E+02  0.23742549543E+03  0.32264690738E+03  0.00000000000E+00 0. -1.
         -3    1    1    2    0  504  0.21634841485E+03 -0.72978355899E+01  0.21950773301E+03  0.30829132305E+03  0.00000000000E+00 0.  1.
<scales pt_clust_3="39.66250" pt_clust_4="34.60015" pt_clust_5="215.47705" pt_clust_6="14000.00000"></scales>
<clustering>
<clus scale="   34.600">  2  4  1 -1</clus>
<clus scale="   39.662">  2  3  1 -1</clus>
<clus scale="  215.477">  1  5  2 -1</clus>
<clus scale="   34.600">  2  3  1 -1</clus>
</clustering>
</event>
<event>
 6    0  0.6338511E+002  0.1463128E+03  0.7546771E-02  0.1205078E+00
         21   -1    0    0  505  502  0.00000000000E+00  0.00000000000E+00  0.86440843529E+03  0.86440843529E+03  0.00000000000E+00 0. -1.
          2   -1    0    0  503    0 -0.00000000000E+00 -0.00000000000E+00 -0.22491246550E+04  0.22491246550E+04  0.00000000000E+00 0. -1.
         21    1    1    2  503  504  0.59790808460E+02  0.67385470531E+02 -0.78169974440E+03  0.78687370829E+03  0.00000000000E+00 0. -1.
         21    1    1    2  504  502 -0.62668510587E+02 -0.13274740336E+03  0.84335980339E+03  0.85604028719E+03  0.00000000000E+00 0. -1.
         21    1    1    2  505  501 -0.18254889363E+02  0.39994934702E+02 -0.28577102036E+02  0.52435546610E+02  0.00000000000E+00 0. -1.
          2    1    1    2  501    0  0.21132591489E+02  0.25366998126E+02 -0.14177991767E+04  0.14181835482E+04  0.00000000000E+00 0. -1.
<scales pt_clust_3="146.31281" pt_clust_4="14000.00000" pt_clust_5="44.68460" pt_clust_6="33.01622"></scales>
<clustering>
<clus scale="   33.016">  2  6  1 -1</clus>
<clus scale="   44.685">  2  5  1 -1</clus>
<clus scale="  146.313">  2  3  1 -1</clus>
<clus scale="  146.313">  1  3  2 -1</clus>
</clustering>
</event>
<event>
 6    0  0.6338511E+002  0.8201223E+02  0.7546771E-02  0.1323436E+00
          2   -1    0    0  505    0 -0.00000000000E+00  0.00000000000E+00  0.13638660672E+04  0.13638660672E+04  0.00000000000E+00 0.  1.
         21   -1    0    0  504  502  0.00000000000E+00 -0.00000000000E+00 -0.96519783056E+02  0.96519783056E+02  0.00000000000E+00 0.  1.
         21    1    1    2  503  501  0.16599175515E+02  0.43171016855E+02  0.87914463341E+02  0.99338925848E+02  0.00000000000E+00 0.  1.
         21    1    1    2  504  503  0.22711720482E+02 -0.24647931703E+02  0.12026302141E+02  0.35608632769E+02  0.00000000000E+00 0.  1.
         21    1    1    2  505  502 -0.10554777176E+03  0.29205853572E+02 -0.39016765757E+02  0.11625670741E+03  0.00000000000E+00 0.  1.
          2    1    1    2  501    0  0.66236875766E+02 -0.47728938724E+02  0.12064222844E+04  0.12091815843E+04  0.00000000000E+00 0.  1.
<scales pt_clust_3="45.29605" pt_clust_4="33.51631" pt_clust_5="14000.00000" pt_clust_6="82.01223"></scales>
<clustering>
<clus scale="   33.516">  2  4  1 -1</clus>
<clus scale="   45.296">  2  3  1 -1</clus>
<clus scale="   82.012">  1  6  2 -1</clus>
<clus scale="   33.516">  2  3  1 -1</clus>
</clustering>
</event>
<event>
 6    0  0.6338511E+002  0.1165822E+03  0.7546771E-02  0.1248844E+00
         21   -1    0    0  503  502  0.00000000000E+00  0.00000000000E+00  0.98400283627E+03  0.98400283627E+03  0.00000000000E+00 0. -1.
          4   -1    0    0  505    0 -0.00000000000E+00 -0.00000000000E+00 -0.49823564736E+02  0.49823564736E+02  0.00000000000E+00 0. -1.
         21    1    1    2  503  504  0.35925831081E+02 -0.15492483038E+01  0.13443626393E+03  0.13916240358E+03  0.00000000000E+00 0. -1.
         21    1    1    2  504  501 -0.32743500482E+02 -0.92084625664E+02  0.11048011181E+03  0.14750447523E+03  0.00000000000E+00 0. -1.
         21    1    1    2  505  502 -0.89406866694E+01  0.12461851521E+03  0.70210025553E+03  0.71313005758E+03  0.00000000000E+00 0. -1.
          4    1    1    2  501    0  0.57583560702E+01 -0.30984641246E+02 -0.12837359729E+02  0.34029464624E+02  0.00000000000E+00 0. -1.
<scales pt_clust_3="36.69706" pt_clust_4="14000.00000" pt_clust_5="116.58219" pt_clust_6="31.51518"></scales>
<clustering>
<clus scale="   31.515">  2  6  1 -1</clus>
<clus scale="   36.697">  1  3  2 -1</clus>
<clus scale="  116.582">  1  5  2 -1</clus>
<clus scale="   36.697">  1  3  2 -1</clus>
</clustering>
</event>
<event>
 6    0  0.6338511E+002  0.2807263E+03  0.7546771E-02  0.1095293E+00
         21   -1    0    0  504  502  0.00000000000E+00  0.00000000000E+00  0.10146219415E+04  0.10146219415E+04  0.00000000000E+00 0. -1.
          2   -1    0    0  503    0 -0.00000000000E+00 -0.00000000000E+00 -0.14053000520E+04  0.14053000520E+04  0.00000000000E+00 0. -1.
         21    1    1    2  503  505  0.28428626204E+02 -0.31760469482E+03 -0.45730894520E+03  0.55750551595E+03  0.00000000000E+00 0.  1.
         21    1    1    2  504  501 -0.16973474203E+02  0.20285943987E+03  0.86340097731E+03  0.88707457341E+03  0.00000000000E+00 0. -1.
         21    1    1    2  505  502 -0.25538236713E+02  0.76201299046E+02  0.70617288229E+02  0.10698430216E+03  0.00000000000E+00 0. -1.
          2    1    1    2  501    0  0.14083084713E+02  0.38543955911E+02 -0.86738743085E+03  0.86835760203E+03  0.00000000000E+00 0. -1.
<scales pt_clust_3="280.72635" pt_clust_4="14000.00000" pt_clust_5="81.45661" pt_clust_6="41.03620"></scales>
<clustering>
<clus scale="   41.036">  2  6  1 -1</clus>
<clus scale="   81.457">  1  5  2 -1</clus>
<clus scale="  280.726">  2  3  1 -1</clus>
<clus scale="   81.457">  1  3  2 -1</clus>
</clustering>
</event>
<event>
 6    0  0.6338511E+002  0.9436753E+02  0.7546771E-02  0.1292607E+00
         -4   -1    0    0    0  501 -0.00000000000E+00  0.00000000000E+00  0.11558359054E+04  0.11558359054E+04  0.00000000000E+00 0. -1.
         21   -1    0    0  503  502  0.00000000000E+00 -0.00000000000E+00 -0.70036287616E+02  0.70036287616E+02  0.00000000000E+00 0. -1.
         21    1    1    2  503  505 -0.15271543200E+02 -0.31540429262E+02 -0.28649749917E+02  0.45263968894E+02  0.00000000000E+00 0. -1.
         21    1    1    2  504  502 -0.33605538168E+02  0.25866001127E+02  0.12049832148E+02  0.44086059754E+02  0.00000000000E+00 0. -1.
         21    1    1    2  505  501  0.33340656336E+02 -0.89085920324E+02  0.13948333815E+03  0.16882980242E+03  0.00000000000E+00 0. -1.
         -4    1    1    2    0  504  0.15536425032E+02  0.94760348459E+02  0.96291619736E+03  0.96769236190E+03  0.00000000000E+00 0. -1.
<scales pt_clust_3="35.04310" pt_clust_4="42.34685" pt_clust_5="14000.00000" pt_clust_6="94.36753"></scales>
<clustering>
<clus scale="   35.043">  2  3  1 -1</clus>
<clus scale="   42.347">  2  4  1 -1</clus>
<clus scale="   94.368">  1  6  2 -1</clus>
<clus scale="   35.043">  2  3  1 -1</clus>
</clustering>
</event>
<event>
 6    0  0.6338511E+002  0.1021827E+03  0.7546771E-02  0.1275772E+00
         21   -1    0    0  503  502  0.00000000000E+00  0.00000000000E+00  0.27297640311E+03  0.27297640311E+03  0.00000000000E+00 0. -1.
          2   -1    0    0  504    0 -0.00000000000E+00 -0.00000000000E+00 -0.18204955018E+04  0.18204955018E+04  0.00000000000E+00 0.  1.
         21    1    1    2  503  505 -0.47619527011E+00  0.48210400172E+02  0.25543135148E+03  0.25994161799E+03  0.00000000000E+00 0. -1.
         21    1    1    2  504  502  0.50230434065E+02 -0.10520350362E+03 -0.39371580150E+03  0.41061296379E+03  0.00000000000E+00 0.  1.
         21    1    1    2  505  501 -0.25302678887E+02  0.11860480611E+03 -0.68472306875E+03  0.69537975702E+03  0.00000000000E+00 0.  1.
          2    1    1    2  501    0 -0.24451559908E+02 -0.61611702665E+02 -0.72451157991E+03  0.72753756612E+03  0.00000000000E+00 0.  1.
<scales pt_clust_3="48.21275" pt_clust_4="14000.00000" pt_clust_5="102.18271" pt_clust_6="61.89586"></scales>
<clustering>
<clus scale="   48.213">  1  3  2 -1</clus>
<clus scale="   61.896">  2  6  1 -1</clus>
<clus scale="  102.183">  2  5  1 -1</clus>
<clus scale="   48.213">  1  3  2 -1</clus>
</clustering>
</event>
<event>
 6    0  0.6338511E+002  0.1491222E+03  0.7546771E-02  0.1201556E+00
          2   -1    0    0  503    0 -0.00000000000E+00  0.00000000000E+00  0.99483174615E+03  0.99483174615E+03  0.00000000000E+00 0. -1.
         21   -1    0    0  505  502  0.00000000000E+00 -0.00000000000E+00 -0.16518582973E+03  0.16518582973E+03  0.00000000000E+00 0.  1.
         21    1    1    2  503  502  0.11788049433E+03  0.52501185760E+02  0.12701345349E+03  0.18106518942E+03  0.00000000000E+00 0. -1.
         21    1    1    2  504  501 -0.44156701674E+01 -0.32628843584E+02  0.18340530995E+03  0.18633745542E+03  0.00000000000E+00 0.  1.
         21    1    1    2  505  504 -0.62750316516E+01  0.30801997987E+02 -0.12943938051E+03  0.13320169792E+03  0.00000000000E+00 0.  1.
          2    1    1    2  501    0 -0.10718979251E+03 -0.50674340163E+02  0.64866653348E+03  0.65941323313E+03  0.00000000000E+00 0. -1.
<scales pt_clust_3="136.68197" pt_clust_4="31.42265" pt_clust_5="31.43468" pt_clust_6="31.42265"></scales>
<clustering>
<clus scale="   31.423">  4  6 -1 -1</clus>
<clus scale="   31.435">  2  5  1 -1</clus>
<clus scale="  136.682">  2  3  1 -1</clus>
<clus scale="   31.435">  2  3  1 -1</clus>
</clustering>
</event>
<event>
 6    0  0.6338511E+002  0.8874505E+02  0.7546771E-02  0.1305920E+00
          1   -1    0    0  505    0 -0.00000000000E+00  0.00000000000E+00  0.22899343911E+04  0.22899343911E+04  0.00000000000E+00 0. -1.
         21   -1    0    0  503  502  0.00000000000E+00 -0.00000000000E+00 -0.23561788812E+02  0.23561788812E+02  0.00000000000E+00 0.  1.
         21    1    1    2  503  501 -0.47875966262E+02  0.11956606504E+03  0.25551157941E+03  0.28613688904E+03  0.00000000000E+00 0.  1.
         21    1    1    2  504  502  0.56959089916E+02 -0.19881645166E+02  0.15389028391E+03  0.16529318564E+03  0.00000000000E+00 0.  1.
         21    1    1    2  505  504 -0.34214976477E+02 -0.40985421628E+02  0.13548699977E+04  0.13559215243E+04  0.00000000000E+00 0. -1.
          1    1    1    2  501    0  0.25131852823E+02 -0.58698998247E+02  0.50210074129E+03  0.50614458095E+03  0.00000000000E+00 0. -1.
<scales pt_clust_3="88.74505" pt_clust_4="57.75325" pt_clust_5="53.38979" pt_clust_6="14000.00000"></scales>
<clustering>
<clus scale="   53.390">  1  5  2 -1</clus>
<clus scale="   57.753">  2  4  1 -1</clus>
<clus scale="   88.745">  2  3  1 -1</clus>
<clus scale="   57.753">  2  3  1 -1</clus>
</clustering>
</event>
<event>
 6    0  0.6338511E+002  0.1771081E+03  0.7546771E-02  0.1170632E+00
         21   -1    0    0  501  502  0.00000000000E+00  0.00000000000E+00  0.18490048150E+03  0.18490048150E+03  0.00000000000E+00 0.  1.
          2   -1    0    0  503    0 -0.00000000000E+00 -0.00000000000E+00 -0.27127425895E+04  0.27127425895E+04  0.00000000000E+00 0.  1.
         21    1    1    2  503  504  0.58833931154E+02  0.24274756417E+03 -0.10889370643E+04  0.11172160674E+04  0.00000000000E+00 0.  1.
         21    1    1    2  504  505  0.19250911842E+02 -0.13125784212E+03 -0.58287275281E+02  0.14490212278E+03  0.00000000000E+00 0.  1.
         21    1    1    2  505  502 -0.30203414568E+01 -0.49483742130E+02  0.12099572641E+03  0.13075828466E+03  0.00000000000E+00 0.  1.
          2    1    1    2  501    0 -0.75064501539E+02 -0.62005979914E+02 -0.15016134948E+04  0.15047665961E+04  0.00000000000E+00 0.  1.
<scales pt_clust_3="177.10813" pt_clust_4="14000.00000" pt_clust_5="49.57583" pt_clust_6="98.27104"></scales>
<clustering>
<clus scale="   49.576">  1  5  2 -1</clus>
<clus scale="   98.271">  2  6  1 -1</clus>
<clus scale="  177.108">  2  3  1 -1</clus>
<clus scale="   49.576">  1  3  2 -1</clus>
</clustering>
</event>
<event>
 6    0  0.6338511E+002  0.5699788E+02  0.7546771E-02  0.1410880E+00
         -2   -1    0    0    0  501 -0.00000000000E+00  0.00000000000E+00  0.70445906101E+03  0.70445906101E+03  0.00000000000E+00 0.  1.
         21   -1    0    0  505  502  0.00000000000E+00 -0.00000000000E+00 -0.88003165544E+03  0.88003165544E+03  0.00000000000E+00 0.  1.
         21    1    1    2  503  504  0.53076269255E+02 -0.32588774749E+02 -0.68621219561E+02  0.92671410757E+02  0.00000000000E+00 0.  1.
         21    1    1    2  504  502  0.43849923838E+02  0.35517781281E+02 -0.10554450675E+03  0.11968279539E+03  0.00000000000E+00 0.  1.
         21    1    1    2  505  501 -0.65525663768E+02 -0.50505915280E+02 -0.68308616149E+03  0.68807787648E+03  0.00000000000E+00 0.  1.
         -2    1    1    2    0  503 -0.31400529325E+02  0.47576908749E+02  0.68167929337E+03  0.68405863381E+03  0.00000000000E+00 0.  1.
<scales pt_clust_3="56.99788" pt_clust_4="56.42986" pt_clust_5="32.35652" pt_clust_6="14000.00000"></scales>
<clustering>
<clus scale="   56.430">  2  4  1 -1</clus>
<clus scale="   32.357">  2  5  1 -1</clus>
<clus scale="   56.998">  2  3  1 -1</clus>
<clus scale="   56.430">  2  3  1 -1</clus>
</clustering>
</event>
<event>
 6    0  0.6338511E+002  0.7800463E+02  0.7546771E-02  0.1334811E+00
         21   -1    0    0  503  502  0.00000000000E+00  0.00000000000E+00  0.21016345826E+03  0.21016345826E+03  0.00000000000E+00 0. -1.
          2   -1    0    0  504    0 -0.00000000000E+00 -0.00000000000E+00 -0.22336714418E+04  0.22336714418E+04  0.00000000000E+00 0.  1.
         21    1    1    2  503  505 -0.23814857370E+02  0.52473655282E+02  0.87022607039E+02  0.10437224759E+03  0.00000000000E+00 0. -1.
         21    1    1    2  504  502 -0.44795112660E+02  0.42012790357E+02 -0.31009475199E+02  0.68798722546E+02  0.00000000000E+00 0. -1.
         21    1    1    2  505  501  0.97073427406E+02 -0.75261833473E+02  0.55909375622E+02  0.13495722348E+03  0.00000000000E+00 0. -1.
          2    1    1    2  501    0 -0.28463457376E+02 -0.19224612166E+02 -0.21354304909E+04  0.21357067064E+04  0.00000000000E+00 0.  1.
<scales pt_clust_3="57.19555" pt_clust_4="78.00463" pt_clust_5="14000.00000" pt_clust_6="34.34755"></scales>
<clustering>
<clus scale="   34.348">  2  6  1 -1</clus>
<clus scale="   57.196">  1  3  2 -1</clus>
<clus scale="   78.005">  2  4  1 -1</clus>
<clus scale="   57.196">  1  3  2 -1</clus>
</clustering>
</event>
<event>
 6    0  0.6338511E+002  0.1237074E+03  0.7546771E-02  0.1237103E+00
         21   -1    0    0  503  502  0.00000000000E+00  0.00000000000E+00  0.23759676796E+03  0.23759676796E+03  0.00000000000E+00 0. -1.
         -4   -1    0    0    0  501 -0.00000000000E+00 -0.00000000000E+00 -0.23232325594E+04  0.23232325594E+04  0.00000000000E+00 0.  1.
         21    1    1    2  503  501  0.67792920965E+02 -0.56659442081E+02  0.60762118754E+01  0.88561237913E+02  0.00000000000E+00 0. -1.
         21    1    1    2  504  505 -0.12515102947E+03  0.10673278129E+03 -0.74997667588E+03  0.76780185018E+03  0.00000000000E+00 0.  1.
         21    1    1    2  505  502  0.93245300276E+00 -0.50154887294E+02  0.17736295517E+03  0.18432037341E+03  0.00000000000E+00 0. -1.
         -4    1    1    2    0  504  0.56425655507E+02  0.81548089371E-01 -0.15190982827E+04  0.15201458659E+04  0.00000000000E+00 0.  1.
<scales pt_clust_3="123.70738" pt_clust_4="14000.00000" pt_clust_5="50.16355" pt_clust_6="56.43555"></scales>
<clustering>
<clus scale="   50.164">  1  5  2 -1</clus>
<clus scale="   56.436">  2  6  1 -1</clus>
<clus scale="  123.707">  1  3  2 -1</clus>
<clus scale="   50.164">  1  3  2 -1</clus>
</clustering>
</event>
<event>
 6    0  0.6338511E+002  0.8235464E+02  0.7546771E-02  0.1322499E+00
          1   -1    0    0  504    0 -0.00000000000E+00  0.00000000000E+00  0.10490060027E+03  0.10490060027E+03  0.00000000000E+00 0. -1.
         21   -1    0    0  503  502  0.00000000000E+00 -0.00000000000E+00 -0.14771244943E+04  0.14771244943E+04  0.00000000000E+00 0.  1.
         21    1    1    2  503  505  0.71093481603E+02 -0.40107176967E+02 -0.12286217108E+04  0.12313302469E+04  0.00000000000E+00 0.  1.
         21    1    1    2  504  502  0.11713803875E+02 -0.78348177785E+02 -0.16473833151E+03  0.18279597378E+03  0.00000000000E+00 0. -1.
         21    1    1    2  505  501 -0.82201963746E+02  0.75687844084E+02 -0.13910489867E+02  0.11260246140E+03  0.00000000000E+00 0. -1.
          1    1    1    2  501    0 -0.60532173272E+00  0.42767510667E+02  0.35046638148E+02  0.55296412438E+02  0.00000000000E+00 0. -1.
<scales pt_clust_3="14000.00000" pt_clust_4="72.81682" pt_clust_5="82.35464" pt_clust_6="42.77179"></scales>
<clustering>
<clus scale="   42.772">  1  6  2 -1</clus>
<clus scale="   72.817">  1  4  2 -1</clus>
<clus scale="   82.355">  1  5  2 -1</clus>
<clus scale="   82.355">  2  3  1 -1</clus>
</clustering>
</event>
<event>
 6    0  0.6338511E+002  0.1613501E+03  0.7546771E-02  0.1187181E+00
          4   -1    0    0  503    0 -0.00000000000E+00  0.00000000000E+00  0.94905996858E+03  0.94905996858E+03  0.00000000000E+00 0. -1.
         21   -1    0    0  505  502  0.00000000000E+00 -0.00000000000E+00 -0.28096858457E+03  0.28096858457E+03  0.00000000000E+00 0.  1.
         21    1    1    2  503  504 -0.72782190263E+02 -0.15968067831E+03  0.24074876582E+03  0.29791799960E+03  0.00000000000E+00 0. -1.
         21    1    1    2  504  502 -0.47433126352E+02  0.26355834455E+02  0.24153674057E+01  0.54317266915E+02  0.00000000000E+00 0.  1.
         21    1    1    2  505  501  0.43421878511E+01  0.13842409889E+03 -0.19940400340E+03  0.24277982273E+03  0.00000000000E+00 0.  1.
          4    1    1    2  501    0  0.11587312876E+03 -0.50992550434E+01  0.62433125420E+03  0.63501346391E+03  0.00000000000E+00 0. -1.
<scales pt_clust_3="14000.00000" pt_clust_4="54.26354" pt_clust_5="161.35011" pt_clust_6="114.96965"></scales>
<clustering>
<clus scale="   54.264">  2  4  1 -1</clus>
<clus scale="  114.970">  1  6  2 -1</clus>
<clus scale="  161.350">  2  5  1 -1</clus>
<clus scale="   54.264">  2  3  1 -1</clus>
</clustering>
</event>
<event>
 6    0  0.6338511E+002  0.6997139E+02  0.7546771E-02  0.1360190E+00
         -2   -1    0    0    0  501 -0.00000000000E+00  0.00000000000E+00  0.26500332892E+03  0.26500332892E+03  0.00000000000E+00 0.  1.
         21   -1    0    0  505  502  0.00000000000E+00 -0.00000000000E+00 -0.18711629108E+03  0.18711629108E+03  0.00000000000E+00 0. -1.
         21    1    1    2  503  502  0.58914698406E+02  0.70321218725E+02  0.39672370889E+02  0.99949549790E+02  0.00000000000E+00 0. -1.
         21    1    1    2  504  501  0.19936549771E+02 -0.63842955164E+02 -0.12787359857E+01  0.66895620982E+02  0.00000000000E+00 0.  1.
         21    1    1    2  505  504 -0.32507348413E+02 -0.47625996991E+02 -0.10958344233E+03  0.12382848672E+03  0.00000000000E+00 0. -1.
         -2    1    1    2    0  503 -0.46343899763E+02  0.41147733429E+02  0.14907684528E+03  0.16144596251E+03  0.00000000000E+00 0.  1.
<scales pt_clust_3="69.97139" pt_clust_4="14000.00000" pt_clust_5="57.66249" pt_clust_6="61.53807"></scales>
<clustering>
<clus scale="   57.662">  2  5  1 -1</clus>
<clus scale="   61.538">  1  6  2 -1</clus>
<clus scale="   69.971">  2  3  1 -1</clus>
<clus scale="   57.662">  2  3  1 -1</clus>
</clustering>
</event>
<event>
 6    0  0.6338511E+002  0.2144370E+03  0.7546771E-02  0.1138100E+00
          2   -1    0    0  503    0 -0.00000000000E+00  0.00000000000E+00  0.20546958492E+04  0.20546958492E+04  0.00000000000E+00 0. -1.
         21   -1    0    0  504  502  0.00000000000E+00 -0.00000000000E+00 -0.17144474153E+03  0.17144474153E+03  0.00000000000E+00 0.  1.
         21    1    1    2  503  505 -0.13999005865E+03 -0.98283042775E+01 -0.11158418216E+02  0.14077756349E+03  0.00000000000E+00 0.  1.
         21    1    1    2  504  501  0.11061724274E+03 -0.10718358109E+03  0.19019624272E+03  0.24474293696E+03  0.00000000000E+00 0. -1.
         21    1    1    2  505  502 -0.10277603909E+03 -0.46552839548E+02 -0.10266097295E+02  0.11329375020E+03  0.00000000000E+00 0.  1.
          2    1    1    2  501    0  0.13214885499E+03  0.16356472492E+03  0.17144793804E+04  0.17273263401E+04  0.00000000000E+00 0. -1.
<scales pt_clust_3="39.88866" pt_clust_4="154.02758" pt_clust_5="39.88866" pt_clust_6="209.77182"></scales>
<clustering>
<clus scale="   39.889">  3  5 -1 -1</clus>
<clus scale="  154.028">  2  4  1 -1</clus>
<clus scale="  209.772">  1  6  2 -1</clus>
<clus scale="  154.028">  2  3  1 -1</clus>
</clustering>
</event>
<event>
 6    0  0.6338511E+002  0.1144672E+03  0.7546771E-02  0.1252514E+00
          1   -1    0    0  503    0 -0.00000000000E+00  0.00000000000E+00  0.12477686549E+04  0.12477686549E+04  0.00000000000E+00 0.  1.
         21   -1    0    0  505  502  0.00000000000E+00 -0.00000000000E+00 -0.82473836158E+03  0.82473836158E+03  0.00000000000E+00 0. -1.
         21    1    1    2  503  504  0.34574924417E+01 -0.10127044730E+03 -0.20842913742E+02  0.10345088112E+03  0.00000000000E+00 0. -1.
         21    1    1    2  504  502 -0.59294281522E+02  0.44714806256E+02 -0.17756246101E+03  0.19246727847E+03  0.00000000000E+00 0.  1.
         21    1    1    2  505  501  0.21460888869E+02  0.77581252963E+02 -0.57443101340E+03  0.58004345502E+03  0.00000000000E+00 0. -1.
          1    1    1    2  501    0  0.34375900211E+02 -0.21025611917E+02  0.11958666815E+04  0.11965454019E+04  0.00000000000E+00 0.  1.
<scales pt_clust_3="114.46719" pt_clust_4="68.47034" pt_clust_5="14000.00000" pt_clust_6="40.29614"></scales>
<clustering>
<clus scale="   40.296">  1  6  2 -1</clus>
<clus scale="   68.470">  2  4  1 -1</clus>
<clus scale="  114.467">  1  3  2 -1</clus>
<clus scale="   68.470">  2  3  1 -1</clus>
</clustering>
</event>
<event>
 6    0  0.6338511E+002  0.9576683E+02  0.7546771E-02  0.1289458E+00
         21   -1    0    0  505  502  0.00000000000E+00  0.00000000000E+00  0.23055495522E+03  0.23055495522E+03  0.00000000000E+00 0.  1.
          1   -1    0    0  503    0 -0.00000000000E+00 -0.00000000000E+00 -0.19060048662E+04  0.19060048662E+04  0.00000000000E+00 0.  1.
         21    1    1    2  503  504  0.96821013161E+02  0.51377689961E+02 -0.32762496311E+03  0.34547372124E+03  0.00000000000E+00 0.  1.
         21    1    1    2  504  502 -0.50800775297E+02  0.13141254930E+02  0.21010520427E+03  0.21655855609E+03  0.00000000000E+00 0.  1.
         21    1    1    2  505  501 -0.80495474407E+02 -0.34282116307E+02 -0.23428773233E+03  0.25009103627E+03  0.00000000000E+00 0.  1.
          1    1    1    2  501    0  0.34475236544E+02 -0.30236828584E+02 -0.13236424198E+04  0.13244365079E+04  0.00000000000E+00 0.  1.
<scales pt_clust_3="14000.00000" pt_clust_4="52.24604" pt_clust_5="95.76683" pt_clust_6="45.85638"></scales>
<clustering>
<clus scale="   45.856">  2  6  1 -1</clus>
<clus scale="   52.246">  1  4  2 -1</clus>
<clus scale="   95.767">  2  5  1 -1</clus>
<clus scale="   52.246">  1  3  2 -1</clus>
</clustering>
</event>
<event>
 6    0  0.6338511E+002  0.1226089E+03  0.7546771E-02  0.1238854E+00
         21   -1    0    0  504  502  0.00000000000E+00  0.00000000000E+00  0.47738329198E+03  0.47738329198E+03  0.00000000000E+00 0. -1.
          2   -1    0    0  505    0 -0.00000000000E+00 -0.00000000000E+00 -0.12584776208E+03  0.12584776208E+03  0.00000000000E+00 0. -1.
         21    1    1    2  503  502  0.30591759131E+02  0.19905738309E+02  0.80150528864E+02  0.88069298973E+02  0.00000000000E+00 0. -1.
         21    1    1    2  504  501 -0.93339438473E+02 -0.78195055795E+02  0.16836133185E+03  0.20777934351E+03  0.00000000000E+00 0. -1.
         21    1    1    2  505  503  0.93911053568E+02  0.15607058528E+03  0.92297277949E+02  0.20419623182E+03  0.00000000000E+00 0. -1.
          2    1    1    2  501    0 -0.31163374225E+02 -0.97781267796E+02  0.10726391229E+02  0.10318617976E+03  0.00000000000E+00 0. -1.
<scales pt_clust_3="36.49786" pt_clust_4="14000.00000" pt_clust_5="122.60889" pt_clust_6="98.59185"></scales>
<clustering>
<clus scale="   36.498">  1  3  2 -1</clus>
<clus scale="   98.592">  2  6  1 -1</clus>
<clus scale="  122.609">  2  5  1 -1</clus>
<clus scale="   36.498">  1  3  2 -1</clus>
</clustering>
</event>
<event>
 6    0  0.6338511E+002  0.2503771E+03  0.7546771E-02  0.1113067E+00
         21   -1    0    0  505  502  0.00000000000E+00  0.00000000000E+00  0.33834487792E+03  0.33834487792E+03  0.00000000000E+00 0.  1.
          1   -1    0    0  503    0 -0.00000000000E+00 -0.00000000000E+00 -0.10905726581E+04  0.10905726581E+04  0.00000000000E+00 0.  1.
         21    1    1    2  503  502 -0.31477635962E+02 -0.20477656819E+03 -0.16141255760E+03  0.26263719881E+03  0.00000000000E+00 0.  1.
         21    1    1    2  504  501  0.71320502053E+02  0.29571745855E+03 -0.21832125492E+03  0.37443236993E+03  0.00000000000E+00 0.  1.
         21    1    1    2  505  504  0.27715185758E+02 -0.32616394480E+02  0.20402252313E+03  0.20846378740E+03  0.00000000000E+00 0.  1.
          1    1    1    2  501    0 -0.67558051849E+02 -0.58324495879E+02 -0.57651649076E+03  0.58338417985E+03  0.00000000000E+00 0.  1.
<scales pt_clust_3="250.37713" pt_clust_4="14000.00000" pt_clust_5="42.80141" pt_clust_6="89.26719"></scales>
<clustering>
<clus scale="   42.801">  1  5  2 -1</clus>
<clus scale="   89.267">  2  6  1 -1</clus>
<clus scale="  250.377">  1  3  2 -1</clus>
<clus scale="   42.801">  1  3  2 -1</clus>
</clustering>
</event>
<event>
 6    0  0.6338511E+002  0.9032511E+02  0.7546771E-02  0.1302066E+00
          1   -1    0    0  505    0 -0.00000000000E+00  0.00000000000E+00  0.15963849468E+04  0.15963849468E+04  0.00000000000E+00 0.  1.
         21   -1    0    0  503  502  0.00000000000E+00 -0.00000000000E+00 -0.38205067109E+02  0.38205067109E+02  0.00000000000E+00 0. -1.
         21    1    1    2  503  504  0.56511145535E+02  0.14028765089E+02  0.26646072301E+02  0.64033811292E+02  0.00000000000E+00 0. -1.
         21    1    1    2  504  501 -0.10800418932E+03 -0.88948808009E+02  0.27241291801E+03  0.30624433588E+03  0.00000000000E+00 0. -1.
         21    1    1    2  505  502 -0.69719033860E+01  0.47722448271E+02  0.43279967161E+03  0.43547858185E+03  0.00000000000E+00 0.  1.
          1    1    1    2  501    0  0.58464947172E+02  0.27197594649E+02  0.82632121776E+03  0.82883328488E+03  0.00000000000E+00 0.  1.
<scales pt_clust_3="58.44100" pt_clust_4="14000.00000" pt_clust_5="48.22903" pt_clust_6="90.32511"></scales>
<clustering>
<clus scale="   48.229">  1  5  2 -1</clus>
<clus scale="   58.441">  2  3  1 -1</clus>
<clus scale="   90.325">  1  6  2 -1</clus>
<clus scale="   58.441">  2  3  1 -1</clus>
</clustering>
</event>
<event>
 6    0  0.6338511E+002  0.1042134E+03  0.7546771E-02  0.1271677E+00
          1   -1    0    0  504    0 -0.00000000000E+00  0.00000000000E+00  0.15418180189E+04  0.15418180189E+04  0.00000000000E+00 0.  1.
         21   -1    0    0  505  502  0.00000000000E+00 -0.00000000000E+00 -0.27591335391E+02  0.27591335391E+02  0.00000000000E+00 0.  1.
         21    1    1    2  503  502  0.13695796551E+03  0.39050006870E+02  0.27072742540E+03  0.30590149758E+03  0.00000000000E+00 0.  1.
         21    1    1    2  504  503 -0.38281451679E+01  0.44582554564E+02  0.21589267713E+03  0.22048108060E+03  0.00000000000E+00 0. -1.
         21    1    1    2  505  501 -0.45442717203E+02 -0.26297852434E+02  0.14479309278E+03  0.15401836678E+03  0.00000000000E+00 0.  1.
          1    1    1    2  501    0 -0.87687103141E+02 -0.57334709001E+02  0.88281348825E+03  0.88900840938E+03  0.00000000000E+00 0.  1.
<scales pt_clust_3="104.21340" pt_clust_4="44.74661" pt_clust_5="50.56405" pt_clust_6="14000.00000"></scales>
<clustering>
<clus scale="   44.747">  1  4  2 -1</clus>
<clus scale="   50.564">  2  5  1 -1</clus>
<clus scale="  104.213">  2  3  1 -1</clus>
<clus scale="   50.564">  2  3  1 -1</clus>
</clustering>
</event>
<event>
 6    0  0.6338511E+002  0.1066057E+03  0.7546771E-02  0.1266988E+00
         21   -1    0    0  503  502  0.00000000000E+00  0.00000000000E+00  0.56249071483E+03  0.56249071483E+03  0.00000000000E+00 0.  1.
         -4   -1    0    0    0  501 -0.00000000000E+00 -0.00000000000E+00 -0.43811165839E+03  0.43811165839E+03  0.00000000000E+00 0.  1.
         21    1    1    2  503  504 -0.12892771131E+02  0.49617690581E+02  0.42007981730E+03  0.42319639846E+03  0.00000000000E+00 0.  1.
         21    1    1    2  504  505  0.37460584869E+02 -0.14662986927E+03  0.50301051383E+02  0.15947980986E+03  0.00000000000E+00 0.  1.
         21    1    1    2  505  501 -0.67138372128E+02  0.61338623759E+02 -0.28060864491E+02  0.95170372977E+02  0.00000000000E+00 0.  1.
         -4    1    1    2    0  502  0.42570558391E+02  0.35673554932E+02 -0.31794094775E+03  0.32275579193E+03  0.00000000000E+00 0.  1.
<scales pt_clust_3="51.26538" pt_clust_4="106.60570" pt_clust_5="14000.00000" pt_clust_6="55.92287"></scales>
<clustering>
<clus scale="   51.265">  1  3  2 -1</clus>
<clus scale="   55.923">  2  6  1 -1</clus>
<clus scale="  106.606">  1  4  2 -1</clus>
<clus scale="   51.265">  1  3  2 -1</clus>
</clustering>
</event>
<event>
 6    0  0.6338511E+002  0.7665265E+02  0.7546771E-02  0.1338828E+00
         -1   -1    0    0    0  501 -0.00000000000E+00  0.00000000000E+00  0.18581455038E+04  0.18581455038E+04  0.00000000000E+00 0. -1.
         21   -1    0    0  505  502  0.00000000000E+00 -0.00000000000E+00 -0.94083426645E+02  0.94083426645E+02  0.00000000000E+00 0. -1.
         21    1    1    2  503  502 -0.14164942442E+03 -0.27517718919E+02  0.49740419590E+03  0.51791188284E+03  0.00000000000E+00 0.  1.
         21    1    1    2  504  501  0.56254946373E+02 -0.11676562135E+02  0.37609141061E+03  0.38045460994E+03  0.00000000000E+00 0. -1.
         21    1    1    2  505  504  0.55021618389E+02  0.51033331600E+02 -0.64066725251E+02  0.98672816463E+02  0.00000000000E+00 0. -1.
         -1    1    1    2    0  503  0.30372859659E+02 -0.11839050546E+02  0.95463319594E+03  0.95518962123E+03  0.00000000000E+00 0. -1.
<scales pt_clust_3="14000.00000" pt_clust_4="70.95261" pt_clust_5="76.65265" pt_clust_6="32.59868"></scales>
<clustering>
<clus scale="   32.599">  1  6  2 -1</clus>
<clus scale="   70.953">  1  4  2 -1</clus>
<clus scale="   76.653">  2  5  1 -1</clus>
<clus scale="   76.653">  2  3  1 -1</clus>
</clustering>
</event>
<event>
 6    0  0.6338511E+002  0.1764293E+03  0.7546771E-02  0.1171304E+00
          4   -1    0    0  505    0 -0.00000000000E+00  0.00000000000E+00  0.17712082826E+04  0.17712082826E+04  0.00000000000E+00 0.  1.
         21   -1    0    0  503  502  0.00000000000E+00 -0.00000000000E+00 -0.81033603756E+03  0.81033603756E+03  0.00000000000E+00 0.  1.
         21    1    1    2  503  501  0.12209370907E+03  0.48836485661E+02 -0.73064447736E+03  0.74238347801E+03  0.00000000000E+00 0.  1.
         21    1    1    2  504  502 -0.22133617476E+02  0.45098889249E+02 -0.14938630206E+01  0.50259710115E+02  0.00000000000E+00 0. -1.
         21    1    1    2  505  504  0.51366935200E+02 -0.26740693899E+01 -0.28188496614E+02  0.58654104889E+02  0.00000000000E+00 0.  1.
          4    1    1    2  501    0 -0.15132702680E+03 -0.91261305520E+02  0.17211990820E+04  0.17302470271E+04  0.00000000000E+00 0.  1.
<scales pt_clust_3="14000.00000" pt_clust_4="50.23750" pt_clust_5="50.14211" pt_clust_6="176.42933"></scales>
<clustering>
<clus scale="   50.238">  2  4  1 -1</clus>
<clus scale="   50.142">  2  5  1 -1</clus>
<clus scale="  176.429">  1  6  2 -1</clus>
<clus scale="   50.238">  2  3  1 -1</clus>
</clustering>
</event>
<event>
 6    0  0.6338511E+002  0.1495126E+03  0.7546771E-02  0.1201073E+00
         21   -1    0    0  503  502  0.00000000000E+00  0.00000000000E+00  0.11618610431E+04  0.11618610431E+04  0.00000000000E+00 0. -1.
          4   -1    0    0  502    0 -0.00000000000E+00 -0.00000000000E+00 -0.99956471870E+02  0.99956471870E+02  0.00000000000E+00 0. -1.
         21    1    1    2  503  504 -0.10695528566E+03 -0.37091781868E+02  0.61751176431E+03  0.62780252665E+03  0.00000000000E+00 0. -1.
         21    1    1    2  504  505  0.16712864379E+03 -0.25702851081E+02  0.34421767715E+03  0.38350805648E+03  0.00000000000E+00 0. -1.
         21    1    1    2  505  501  0.45042351638E+02  0.33816274435E+02  0.12630040907E+03  0.13829008348E+03  0.00000000000E+00 0. -1.
          4    1    1    2  501    0 -0.10521570976E+03  0.28978358514E+02 -0.26125279271E+02  0.11221684838E+03  0.00000000000E+00 0. -1.
<scales pt_clust_3="128.64818" pt_clust_4="43.96765" pt_clust_5="43.96765" pt_clust_6="109.13336"></scales>
<clustering>
<clus scale="   43.968">  4  5 -1 -1</clus>
<clus scale="  109.133">  2  6  1 -1</clus>
<clus scale="  128.648">  1  3  2 -1</clus>
<clus scale="  128.648">  1  3  2 -1</clus>
</clustering>
</event>
<event>
 6    0  0.6338511E+002  0.1222638E+03  0.7546771E-02  0.1239408E+00
          1   -1    0    0  504    0 -0.00000000000E+00  0.00000000000E+00  0.20169841056E+04  0.20169841056E+04  0.00000000000E+00 0.  1.
         21   -1    0    0  503  502  0.00000000000E+00 -0.00000000000E+00 -0.92079014432E+03  0.92079014432E+03  0.00000000000E+00 0.  1.
         21    1    1    2  503  505 -0.39997206118E+02  0.29259121326E+02 -0.26218564790E+03  0.26682800947E+03  0.00000000000E+00 0.  1.
         21    1    1    2  504  502  0.82816852945E+02 -0.41345867729E+02 -0.53799681715E+02  0.10706314801E+03  0.00000000000E+00 0.  1.
         21    1    1    2  505  501 -0.14383752200E+03 -0.56622134300E+02 -0.56355710739E+03  0.58437309325E+03  0.00000000000E+00 0.  1.
          1    1    1    2  501    0  0.10101787517E+03  0.68708880703E+02  0.19757363983E+04  0.19795099992E+04  0.00000000000E+00 0.  1.
<scales pt_clust_3="49.55676" pt_clust_4="86.58266" pt_clust_5="122.26384" pt_clust_6="14000.00000"></scales>
<clustering>
<clus scale="   49.557">  2  3  1 -1</clus>
<clus scale="   86.583">  2  4  1 -1</clus>
<clus scale="  122.264">  2  5  1 -1</clus>
<clus scale="   49.557">  2  3  1 -1</clus>
</clustering>
</event>
<event>
 6    0  0.6338511E+002  0.1904166E+03  0.7546771E-02  0.1158086E+00
          2   -1    0    0  505    0 -0.00000000000E+00  0.00000000000E+00  0.25683251451E+04  0.25683251451E+04  0.00000000000E+00 0. -1.
         21   -1    0    0  503  502  0.00000000000E+00 -0.00000000000E+00 -0.48438674119E+02  0.48438674119E+02  0.00000000000E+00 0. -1.
         21    1    1    2  503  501 -0.97433501997E+02  0.14353504935E+03  0.62137582194E+03  0.64513836485E+03  0.00000000000E+00 0. -1.
         21    1    1    2  504  502  0.19556628883E+03 -0.81546094594E+02  0.34370242749E+03  0.40376638980E+03  0.00000000000E+00 0. -1.
         21    1    1    2  505  504  0.41998872590E+02 -0.28892072743E+02  0.25100196943E+03  0.25612623025E+03  0.00000000000E+00 0. -1.
          2    1    1    2  501    0 -0.14013165942E+03 -0.33096882014E+02  0.13038062522E+04  0.13117328344E+04  0.00000000000E+00 0. -1.
<scales pt_clust_3="14000.00000" pt_clust_4="190.41663" pt_clust_5="50.97703" pt_clust_6="126.46000"></scales>
<clustering>
<clus scale="   50.977">  1  5  2 -1</clus>
<clus scale="  126.460">  1  6  2 -1</clus>
<clus scale="  190.417">  2  4  1 -1</clus>
<clus scale="  190.417">  2  3  1 -1</clus>
</clustering>
</event>
<event>
 6    0  0.6338511E+002  0.6719237E+02  0.7546771E-02  0.1369909E+00
         -1   -1    0    0    0  501 -0.00000000000E+00  0.00000000000E+00  0.12287857831E+04  0.12287857831E+04  0.00000000000E+00 0.  1.
         21   -1    0    0  505  502  0.00000000000E+00 -0.00000000000E+00 -0.27091312391E+02  0.27091312391E+02  0.00000000000E+00 0.  1.
         21    1    1    2  503  501  0.63431404258E+02  0.16462212811E+02  0.29541421145E+03  0.30259561104E+03  0.00000000000E+00 0. -1.
         21    1    1    2  504  502 -0.10073718761E+03  0.17083190995E+02  0.17517286951E+03  0.20279386232E+03  0.00000000000E+00 0.  1.
         21    1    1    2  505  503  0.47474584484E+02  0.25917261372E+01  0.52448502935E+02  0.70791233048E+02  0.00000000000E+00 0. -1.
         -1    1    1    2    0  504 -0.10168801134E+02 -0.36137129943E+02  0.67865888685E+03  0.67969638912E+03  0.00000000000E+00 0.  1.
<scales pt_clust_3="67.19237" pt_clust_4="14000.00000" pt_clust_5="46.35749" pt_clust_6="37.54060"></scales>
<clustering>
<clus scale="   37.541">  1  6  2 -1</clus>
<clus scale="   46.357">  2  5  1 -1</clus>
<clus scale="   67.192">  1  3  2 -1</clus>
<clus scale="   46.357">  2  3  1 -1</clus>
</clustering>
</event>
<event>
 6    0  0.6338511E+002  0.2629702E+03  0.7546771E-02  0.1105372E+00
          1   -1    0    0  505    0 -0.00000000000E+00  0.00000000000E+00  0.48767386672E+03  0.48767386672E+03  0.00000000000E+00 0.  1.
         21   -1    0    0  503  502  0.00000000000E+00 -0.00000000000E+00 -0.11894630341E+04  0.11894630341E+04  0.00000000000E+00 0.  1.
         21    1    1    2  503  504 -0.15238768343E+02  0.39072843786E+02 -0.41128166682E+03  0.41341446110E+03  0.00000000000E+00 0.  1.
         21    1    1    2  504  501 -0.79716739467E+02  0.23033885490E+03 -0.35698216859E+03  0.43225804252E+03  0.00000000000E+00 0.  1.
         21    1    1    2  505  502 -0.27955302045E+02 -0.34493710690E+02 -0.34179182592E+03  0.34466355661E+03  0.00000000000E+00 0.  1.
          1    1    1    2  501    0  0.12291080986E+03 -0.23491798799E+03  0.40826649399E+03  0.48680084056E+03  0.00000000000E+00 0.  1.
<scales pt_clust_3="41.93933" pt_clust_4="14000.00000" pt_clust_5="38.73241" pt_clust_6="262.97021"></scales>
<clustering>
<clus scale="   41.939">  2  3  1 -1</clus>
<clus scale="   38.732">  2  5  1 -1</clus>
<clus scale="  262.970">  1  6  2 -1</clus>
<clus scale="   41.939">  2  3  1 -1</clus>
</clustering>
</event>
<event>
 6    0  0.6338511E+002  0.9539744E+02  0.7546771E-02  0.1290283E+00
         -3   -1    0    0    0  501 -0.00000000000E+00  0.00000000000E+00  0.36488546143E+03  0.36488546143E+03  0.00000000000E+00 0. -1.
         21   -1    0    0  503  502  0.00000000000E+00 -0.00000000000E+00 -0.18952208556E+04  0.18952208556E+04  0.00000000000E+00 0.  1.
         21    1    1    2  503  501  0.49176463967E+02 -0.64497845089E+02 -0.34803769089E+03  0.35736330381E+03  0.00000000000E+00 0.  1.
         21    1    1    2  504  505 -0.63163680322E+01  0.77069157272E+02 -0.14504871611E+03  0.16437360357E+03  0.00000000000E+00 0. -1.
         21    1    1    2  505  502  0.51214675147E+02 -0.31863263671E+02 -0.13805615181E+04  0.13818785460E+04  0.00000000000E+00 0.  1.
         -3    1    1    2    0  504 -0.94074771081E+02  0.19291951488E+02  0.34331253096E+03  0.35649086365E+03  0.00000000000E+00 0. -1.
<scales pt_clust_3="95.39744" pt_clust_4="68.08920" pt_clust_5="60.31758" pt_clust_6="14000.00000"></scales>
<clustering>
<clus scale="   60.318">  2  5  1 -1</clus>
<clus scale="   68.089">  2  4  1 -1</clus>
<clus scale="   95.397">  2  3  1 -1</clus>
<clus scale="   60.318">  2  3  1 -1</clus>
</clustering>
</event>
<event>
 6    0  0.6338511E+002  0.1172294E+03  0.7546771E-02  0.1247739E+00
         21   -1    0    0  503  502  0.00000000000E+00  0.00000000000E+00  0.47684884844E+02  0.47684884844E+02  0.00000000000E+00 0. -1.
          2   -1    0    0  505    0 -0.00000000000E+00 -0.00000000000E+00 -0.28051586558E+04  0.28051586558E+04  0.00000000000E+00 0.  1.
         21    1    1    2  503  501 -0.41278954092E+02  0.42947284398E+02  0.10647604380E+01  0.59578141989E+02  0.00000000000E+00 0. -1.
         21    1    1    2  504  502  0.51032473637E+02 -0.38106024828E+01 -0.84023584779E+02  0.98380876475E+02  0.00000000000E+00 0. -1.
         21    1    1    2  505  504  0.14861795589E+02  0.81657023910E+02 -0.19029366906E+03  0.20760641369E+03  0.00000000000E+00 0. -1.
          2    1    1    2  501    0 -0.24615315134E+02 -0.12079370582E+03 -0.24842212775E+04  0.24872781084E+04  0.00000000000E+00 0.  1.
<scales pt_clust_3="40.21278" pt_clust_4="51.17455" pt_clust_5="117.22937" pt_clust_6="14000.00000"></scales>
<clustering>
<clus scale="   51.175">  1  4  2 -1</clus>
<clus scale="   40.213">  1  3  2 -1</clus>
<clus scale="  117.229">  1  5  2 -1</clus>
<clus scale="   51.175">  1  3  2 -1</clus>
</clustering>
</event>
<event>
 6    0  0.6338511E+002  0.1108761E+03  0.7546771E-02  0.1258956E+00
         21   -1    0    0  505  502  0.00000000000E+00  0.00000000000E+00  0.32812027172E+03  0.32812027172E+03  0.00000000000E+00 0.  1.
         -2   -1    0    0    0  501 -0.00000000000E+00 -0.00000000000E+00 -0.51882507311E+03  0.51882507311E+03  0.00000000000E+00 0.  1.
         21    1    1    2  503  502 -0.50343198658E+02 -0.40900254566E+02 -0.14369527999E+03  0.15765659506E+03  0.00000000000E+00 0.  1.
         21    1    1    2  504  501 -0.17349632714E+01 -0.47828406608E+02 -0.21051453925E+02  0.52285086674E+02  0.00000000000E+00 0.  1.
         21    1    1    2  505  504  0.87009790361E+02  0.73880524972E+02  0.29369941210E+03  0.31510058752E+03  0.00000000000E+00 0.  1.
         -2    1    1    2    0  503 -0.34931628432E+02  0.14848136201E+02 -0.31965747958E+03  0.32190307558E+03  0.00000000000E+00 0.  1.
<scales pt_clust_3="110.87607" pt_clust_4="45.81945" pt_clust_5="14000.00000" pt_clust_6="37.95637"></scales>
<clustering>
<clus scale="   37.956">  2  6  1 -1</clus>
<clus scale="   45.819">  2  4  1 -1</clus>
<clus scale="  110.876">  2  3  1 -1</clus>
<clus scale="  110.876">  1  3  2 -1</clus>
</clustering>
</event>
<event>
 6    0  0.6338511E+002  0.1620169E+03  0.7546771E-02  0.1186438E+00
          1   -1    0    0  505    0 -0.00000000000E+00  0.00000000000E+00  0.94092927836E+03  0.94092927836E+03  0.00000000000E+00 0.  1.
         21   -1    0    0  503  502  0.00000000000E+00 -0.00000000000E+00 -0.38621538964E+03  0.38621538964E+03  0.00000000000E+00 0.  1.
         21    1    1    2  503  501 -0.13830403897E+03  0.88907444533E+02 -0.83893210832E+02  0.18458226273E+03  0.00000000000E+00 0.  1.
         21    1    1    2  504  502 -0.54504351726E+02 -0.20998023942E+02 -0.15048986010E+03  0.16142750496E+03  0.00000000000E+00 0.  1.
         21    1    1    2  505  504  0.14436141331E+03 -0.64235604056E+02 -0.29803903344E+02  0.16079397730E+03  0.00000000000E+00 0.  1.
          1    1    1    2  501    0  0.48446977386E+02 -0.36738165348E+01  0.81890086299E+03  0.82034092300E+03  0.00000000000E+00 0.  1.
<scales pt_clust_3="162.01686" pt_clust_4="56.43855" pt_clust_5="14000.00000" pt_clust_6="48.58607"></scales>
<clustering>
<clus scale="   48.586">  1  6  2 -1</clus>
<clus scale="   56.439">  2  4  1 -1</clus>
<clus scale="  162.017">  1  3  2 -1</clus>
<clus scale="   56.439">  2  3  1 -1</clus>
</clustering>
</event>
<event>
 6    0  0.6338511E+002  0.6866878E+02  0.7546771E-02  0.1364679E+00
          2   -1    0    0  504    0 -0.00000000000E+00  0.00000000000E+00  0.10234179968E+04  0.10234179968E+04  0.00000000000E+00 0. -1.
         21   -1    0    0  505  502  0.00000000000E+00 -0.00000000000E+00 -0.42494628029E+03  0.42494628029E+03  0.00000000000E+00 0. -1.
         21    1    1    2  503  502  0.39237553513E+02 -0.62976025503E+02 -0.29685744660E+03  0.30599004722E+03  0.00000000000E+00 0. -1.
         21    1    1    2  504  503 -0.27442921213E+02 -0.44478554935E+02  0.10704557192E+03  0.11912266888E+03  0.00000000000E+00 0. -1.
         21    1    1    2  505  501 -0.63326804921E+02  0.22600768182E+02 -0.10488256650E+03  0.12458503802E+03  0.00000000000E+00 0. -1.
          2    1    1    2  501    0  0.51532172620E+02  0.84853812256E+02  0.89316615766E+03  0.89866652294E+03  0.00000000000E+00 0. -1.
<scales pt_clust_3="14000.00000" pt_clust_4="52.26333" pt_clust_5="68.66878" pt_clust_6="47.84310"></scales>
<clustering>
<clus scale="   52.263">  1  4  2 -1</clus>
<clus scale="   47.843">  1  6  2 -1</clus>
<clus scale="   68.669">  1  5  2 -1</clus>
<clus scale="   68.669">  2  3  1 -1</clus>
</clustering>
</event>
<event>
 6    0  0.6338511E+002  0.1266057E+03  0.7546771E-02  0.1232581E+00
         21   -1    0    0  503  502  0.00000000000E+00  0.00000000000E+00  0.19809145913E+04  0.19809145913E+04  0.00000000000E+00 0. -1.
         -1   -1    0    0    0  501 -0.00000000000E+00 -0.00000000000E+00 -0.10673590805E+03  0.10673590805E+03  0.00000000000E+00 0. -1.
         21    1    1    2  503  505 -0.44206969021E+02 -0.12105833408E+02  0.10109003378E+04  0.10119388817E+04  0.00000000000E+00 0. -1.
         21    1    1    2  504  501  0.99287871787E+02 -0.78577130349E+01  0.20627477204E+03  0.22906136016E+03  0.00000000000E+00 0.  1.
         21    1    1    2  505  504 -0.68411386300E+02 -0.33474531066E+02  0.74171164550E+03  0.74561171334E+03  0.00000000000E+00 0. -1.
         -1    1    1    2    0  502  0.13330483534E+02  0.53438077509E+02 -0.84708072114E+02  0.10103854413E+03  0.00000000000E+00 0. -1.
<scales pt_clust_3="39.36448" pt_clust_4="115.99199" pt_clust_5="39.36448" pt_clust_6="55.07567"></scales>
<clustering>
<clus scale="   39.364">  3  5 -1 -1</clus>
<clus scale="   55.076">  2  6  1 -1</clus>
<clus scale="  115.992">  2  4  1 -1</clus>
<clus scale="  126.606">  1  3  2 -1</clus>
</clustering>
</event>
<event>
 6    0  0.6338511E+002  0.1511828E+03  0.7546771E-02  0.1199027E+00
         21   -1    0    0  504  502  0.00000000000E+00  0.00000000000E+00  0.20713836568E+04  0.20713836568E+04  0.00000000000E+00 0. -1.
         -2   -1    0    0    0  501 -0.00000000000E+00 -0.00000000000E+00 -0.73224657141E+03  0.73224657141E+03  0.00000000000E+00 0.  1.
         21    1    1    2  503  502 -0.23053082447E+02 -0.72887956058E+02  0.35214162423E+03  0.36034403320E+03  0.00000000000E+00 0. -1.
         21    1    1    2  504  501  0.38740120859E+02  0.13096474692E+02  0.16478773172E+04  0.16483846539E+04  0.00000000000E+00 0. -1.
         21    1    1    2  505  503 -0.16469195610E+03  0.50818811664E+02 -0.70966617146E+02  0.18639273798E+03  0.00000000000E+00 0. -1.
         -2    1    1    2    0  505  0.14900491769E+03  0.89726697019E+01 -0.58991523895E+03  0.60850880309E+03  0.00000000000E+00 0.  1.
<scales pt_clust_3="62.59826" pt_clust_4="40.89394" pt_clust_5="14000.00000" pt_clust_6="151.18282"></scales>
<clustering>
<clus scale="   40.894">  1  4  2 -1</clus>
<clus scale="   62.598">  1  3  2 -1</clus>
<clus scale="  151.183">  2  6  1 -1</clus>
<clus scale="   40.894">  1  3  2 -1</clus>
</clustering>
</event>
<event>
 6    0  0.6338511E+002  0.1101439E+03  0.7546771E-02  0.1260304E+00
         21   -1    0    0  505  502  0.00000000000E+00  0.00000000000E+00  0.28420843544E+03  0.28420843544E+03  0.00000000000E+00 0.  1.
          2   -1    0    0  502    0 -0.00000000000E+00 -0.00000000000E+00 -0.34363026419E+04  0.34363026419E+04  0.00000000000E+00 0. -1.
         21    1    1    2  503  504  0.12601916971E+03  0.89126609347E+02  0.18024034552E+03  0.23729931686E+03  0.00000000000E+00 0.  1.
         21    1    1    2  504  501 -0.73547105666E+02 -0.13602603304E+03 -0.61865278592E+03  0.63768607319E+03  0.00000000000E+00 0. -1.
         21    1    1    2  505  503 -0.25241306801E+02 -0.51466317452E+02  0.52338891356E+02  0.77622580152E+02  0.00000000000E+00 0.  1.
          2    1    1    2  501    0 -0.27230757246E+02  0.98365741140E+02 -0.27660206574E+04  0.27679031072E+04  0.00000000000E+00 0. -1.
<scales pt_clust_3="14000.00000" pt_clust_4="110.14389" pt_clust_5="57.32282" pt_clust_6="101.88143"></scales>
<clustering>
<clus scale="   57.323">  1  5  2 -1</clus>
<clus scale="  101.881">  2  6  1 -1</clus>
<clus scale="  110.144">  2  4  1 -1</clus>
<clus scale="   57.323">  1  3  2 -1</clus>
</clustering>
</event>
<event>
 6    0  0.6338511E+002  0.1331891E+03  0.7546771E-02  0.1222799E+00
         -1   -1    0    0    0  501 -0.00000000000E+00  0.00000000000E+00  0.97748079026E+03  0.97748079026E+03  0.00000000000E+00 0.  1.
         21   -1    0    0  503  502  0.00000000000E+00 -0.00000000000E+00 -0.20738495126E+03  0.20738495126E+03  0.00000000000E+00 0.  1.
         21    1    1    2  503  505  0.84913491511E+02 -0.87434747717E+02 -0.16134710188E+03  0.20220787184E+03  0.00000000000E+00 0.  1.
         21    1    1    2  504  502  0.31735637200E+02 -0.11928470270E+02  0.26925585011E+02  0.43294644007E+02  0.00000000000E+00 0. -1.
         21    1    1    2  505  501 -0.88466424873E+02  0.40953274078E+02  0.13183125319E+03  0.16396023392E+03  0.00000000000E+00 0. -1.
         -1    1    1    2    0  504 -0.28182703839E+02  0.58409943909E+02  0.77268610268E+03  0.77540299176E+03  0.00000000000E+00 0.  1.
<scales pt_clust_3="14000.00000" pt_clust_4="33.90338" pt_clust_5="133.18913" pt_clust_6="64.68646"></scales>
<clustering>
<clus scale="   33.903">  2  4  1 -1</clus>
<clus scale="   64.686">  1  6  2 -1</clus>
<clus scale="  133.189">  1  5  2 -1</clus>
<clus scale="   33.903">  2  3  1 -1</clus>
</clustering>
</event>
<event>
 6    0  0.6338511E+002  0.8318930E+02  0.7546771E-02  0.1320237E+00
         -4   -1    0    0    0  501 -0.00000000000E+00  0.00000000000E+00  0.40821474310E+03  0.40821474310E+03  0.00000000000E+00 0.  1.
         21   -1    0    0  504  502  0.00000000000E+00 -0.00000000000E+00 -0.22989095352E+03  0.22989095352E+03  0.00000000000E+00 0. -1.
         21    1    1    2  503  502 -0.86001723120E+01 -0.45492193190E+02 -0.16368603757E+03  0.17010767620E+03  0.00000000000E+00 0. -1.
         21    1    1    2  504  501  0.49419594169E+02 -0.72732884642E+02  0.41470541357E+02  0.97222294751E+02  0.00000000000E+00 0. -1.
         21    1    1    2  505  503 -0.37841673177E+02  0.84984299111E+02  0.29361719288E+02  0.97552211065E+02  0.00000000000E+00 0.  1.
         -4    1    1    2    0  505 -0.29777486798E+01  0.33240778720E+02  0.27117756651E+03  0.27322351461E+03  0.00000000000E+00 0.  1.
<scales pt_clust_3="45.54050" pt_clust_4="83.18930" pt_clust_5="14000.00000" pt_clust_6="33.37389"></scales>
<clustering>
<clus scale="   33.374">  1  6  2 -1</clus>
<clus scale="   45.540">  2  3  1 -1</clus>
<clus scale="   83.189">  1  4  2 -1</clus>
<clus scale="   45.540">  2  3  1 -1</clus>
</clustering>
</event>
<event>
 6    0  0.6338511E+002  0.1267928E+03  0.7546771E-02  0.1232294E+00
          2   -1    0    0  504    0 -0.00000000000E+00  0.00000000000E+00  0.25034576400E+03  0.25034576400E+03  0.00000000000E+00 0.  1.
         21   -1    0    0  503  502  0.00000000000E+00 -0.00000000000E+00 -0.11492621288E+04  0.11492621288E+04  0.00000000000E+00 0. -1.
         21    1    1    2  503  501 -0.12092510806E+03  0.39242147117E+02 -0.10551862893E+04  0.10628174504E+04  0.00000000000E+00 0. -1.
         21    1    1    2  504  505  0.13355146136E+02  0.44143117293E+02  0.44061551469E+00  0.46121241035E+02  0.00000000000E+00 0. -1.
         21    1    1    2  505  502  0.11297033465E+03 -0.46111852259E+02 -0.82743971121E+01  0.12229908045E+03  0.00000000000E+00 0.  1.
          2    1    1    2  501    0 -0.54003727279E+01 -0.37273412150E+02  0.16410370605E+03  0.16837012091E+03  0.00000000000E+00 0.  1.
<scales pt_clust_3="14000.00000" pt_clust_4="35.84504" pt_clust_5="126.79276" pt_clust_6="37.66260"></scales>
<clustering>
<clus scale="   37.663">  1  6  2 -1</clus>
<clus scale="   35.845">  1  4  2 -1</clus>
<clus scale="  126.793">  1  5  2 -1</clus>
<clus scale="  126.793">  2  3  1 -1</clus>
</clustering>
</event>
<event>
 6    0  0.6338511E+002  0.1008356E+03  0.7546771E-02  0.1278548E+00
         21   -1    0    0  505  502  0.00000000000E+00  0.00000000000E+00  0.11316277982E+04  0.11316277982E+04  0.00000000000E+00 0. -1.
          2   -1    0    0  504    0 -0.00000000000E+00 -0.00000000000E+00 -0.24159031241E+03  0.24159031241E+03  0.00000000000E+00 0.  1.
         21    1    1    2  503  501  0.43309009447E+02  0.67723204089E+02 -0.37505005727E+02  0.88705851701E+02  0.00000000000E+00 0. -1.
         21    1    1    2  504  502  0.32000144448E+02 -0.28549303369E+02  0.11920334699E+03  0.12668271351E+03  0.00000000000E+00 0. -1.
         21    1    1    2  505  503  0.37423125475E+02  0.16206062460E+02  0.96002609629E+03  0.96089189420E+03  0.00000000000E+00 0. -1.
          2    1    1    2  501    0 -0.11273227937E+03 -0.55379963180E+02 -0.15168695175E+03  0.19693765121E+03  0.00000000000E+00 0.  1.
<scales pt_clust_3="14000.00000" pt_clust_4="61.25945" pt_clust_5="40.78145" pt_clust_6="100.83562"></scales>
<clustering>
<clus scale="   40.781">  1  5  2 -1</clus>
<clus scale="   61.259">  1  4  2 -1</clus>
<clus scale="  100.836">  2  6  1 -1</clus>
<clus scale="   40.781">  1  3  2 -1</clus>
</clustering>
</event>
<event>
 6    0  0.6338511E+002  0.7666147E+02  0.7546771E-02  0.1338802E+00
          1   -1    0    0  503    0 -0.00000000000E+00  0.00000000000E+00  0.25717884518E+03  0.25717884518E+03  0.00000000000E+00 0.  1.
         21   -1    0    0  504  502  0.00000000000E+00 -0.00000000000E+00 -0.22981920001E+03  0.22981920001E+03  0.00000000000E+00 0.  1.
         21    1    1    2  503  502 -0.16405943130E+02  0.60999102853E+02 -0.13493402328E+02  0.64591930032E+02  0.00000000000E+00 0.  1.
         21    1    1    2  504  505 -0.19746249043E+02 -0.82548814174E+02 -0.15546337245E+03  0.17712447952E+03  0.00000000000E+00 0.  1.
         21    1    1    2  505  501  0.60722488272E+02 -0.19564265363E+02  0.26918977621E+02  0.69243139857E+02  0.00000000000E+00 0.  1.
          1    1    1    2  501    0 -0.24570296099E+02  0.41113976684E+02  0.16939744233E+03  0.17603849578E+03  0.00000000000E+00 0.  1.
<scales pt_clust_3="76.66147" pt_clust_4="14000.00000" pt_clust_5="46.89290" pt_clust_6="47.89633"></scales>
<clustering>
<clus scale="   47.896">  1  6  2 -1</clus>
<clus scale="   46.893">  1  5  2 -1</clus>
<clus scale="   76.661">  1  3  2 -1</clus>
<clus scale="   76.661">  2  3  1 -1</clus>
</clustering>
</event>
<event>
 6    0  0.6338511E+002  0.8853987E+02  0.7546771E-02  0.1306427E+00
          4   -1    0    0  505    0 -0.00000000000E+00  0.00000000000E+00  0.12511698570E+04  0.12511698570E+04  0.00000000000E+00 0. -1.
         21   -1    0    0  503  502  0.00000000000E+00 -0.00000000000E+00 -0.69875118998E+03  0.69875118998E+03  0.00000000000E+00 0. -1.
         21    1    1    2  503  504 -0.99273742424E+02 -0.12213671370E+03  0.25450439631E+03  0.29924094057E+03  0.00000000000E+00 0. -1.
         21    1    1    2  504  501  0.58419882865E+02 -0.98454358768E+01  0.29643042116E+03  0.30229258990E+03  0.00000000000E+00 0. -1.
         21    1    1    2  505  502  0.22392197475E+02  0.85069807125E+02 -0.66962972281E+03  0.67538303818E+03  0.00000000000E+00 0. -1.
          4    1    1    2  501    0  0.18461662084E+02  0.46912342452E+02  0.67111357234E+03  0.67300447830E+03  0.00000000000E+00 0. -1.
<scales pt_clust_3="88.53987" pt_clust_4="69.47316" pt_clust_5="14000.00000" pt_clust_6="50.41429"></scales>
<clustering>
<clus scale="   50.414">  1  6  2 -1</clus>
<clus scale="   69.473">  1  4  2 -1</clus>
<clus scale="   88.540">  1  3  2 -1</clus>
<clus scale="   88.540">  2  3  1 -1</clus>
</clustering>
</event>
<event>
 6    0  0.6338511E+002  0.2848347E+03  0.7546771E-02  0.1093077E+00
         -1   -1    0    0    0  501 -0.00000000000E+00  0.00000000000E+00  0.71096944141E+03  0.71096944141E+03  0.00000000000E+00 0.  1.
         21   -1    0    0  503  502  0.00000000000E+00 -0.00000000000E+00 -0.13922636070E+04  0.13922636070E+04  0.00000000000E+00 0. -1.
         21    1    1    2  503  501  0.33077286894E+02  0.40175466632E+02 -0.10019577575E+03  0.11290424485E+03  0.00000000000E+00 0. -1.
         21    1    1    2  504  505 -0.34337363504E+03 -0.25366570532E+01 -0.45516308981E+03  0.57016254366E+03  0.00000000000E+00 0. -1.
         21    1    1    2  505  502  0.29125322354E+02 -0.47502896200E+02 -0.74137607150E+03  0.74346707321E+03  0.00000000000E+00 0. -1.
         -1    1    1    2    0  504  0.28117102579E+03  0.98640866219E+01  0.61544077152E+03  0.67669918664E+03  0.00000000000E+00 0.  1.
<scales pt_clust_3="52.04013" pt_clust_4="14000.00000" pt_clust_5="54.00350" pt_clust_6="284.83466"></scales>
<clustering>
<clus scale="   52.040">  2  3  1 -1</clus>
<clus scale="   54.004">  2  5  1 -1</clus>
<clus scale="  284.835">  1  6  2 -1</clus>
<clus scale="   52.040">  2  3  1 -1</clus>
</clustering>
</event>
<event>
 6    0  0.6338511E+002  0.1394626E+03  0.7546771E-02  0.1214054E+00
          2   -1    0    0  503    0 -0.00000000000E+00  0.00000000000E+00  0.16307332814E+04  0.16307332814E+04  0.00000000000E+00 0.  1.
         21   -1    0    0  504  502  0.00000000000E+00 -0.00000000000E+00 -0.22016907948E+03  0.22016907948E+03  0.00000000000E+00 0.  1.
         21    1    1    2  503  505  0.30643298199E+02 -0.19566743299E+03  0.28525407603E+03  0.34726739545E+03  0.00000000000E+00 0.  1.
         21    1    1    2  504  501 -0.55565016411E+02  0.10797068027E+03 -0.77764135885E+02  0.14419569923E+03  0.00000000000E+00 0.  1.
         21    1    1    2  505  502  0.23696686720E+02  0.23670969416E+02 -0.73755608029E+02  0.81004552158E+02  0.00000000000E+00 0.  1.
          2    1    1    2  501    0  0.12250314916E+01  0.64025783296E+02  0.12768298698E+04  0.12784347140E+04  0.00000000000E+00 0.  1.
<scales pt_clust_3="14000.00000" pt_clust_4="139.46265" pt_clust_5="33.49400" pt_clust_6="64.17318"></scales>
<clustering>
<clus scale="   33.494">  2  5  1 -1</clus>
<clus scale="   64.173">  1  6  2 -1</clus>
<clus scale="  139.463">  2  4  1 -1</clus>
<clus scale="   33.494">  2  3  1 -1</clus>
</clustering>
</event>
<event>
 6    0  0.6338511E+002  0.9149060E+02  0.7546771E-02  0.1299282E+00
          3   -1    0    0  505    0 -0.00000000000E+00  0.00000000000E+00  0.10887307959E+04  0.10887307959E+04  0.00000000000E+00 0. -1.
         21   -1    0    0  504  502  0.00000000000E+00 -0.00000000000E+00 -0.57837796654E+02  0.57837796654E+02  0.00000000000E+00 0. -1.
         21    1    1    2  503  501 -0.10924150251E+03 -0.38887082343E+02  0.52637114313E+03  0.53899210696E+03  0.00000000000E+00 0. -1.
         21    1    1    2  504  503  0.32632928550E+02  0.37532229604E+02 -0.25482476036E+02  0.55883207404E+02  0.00000000000E+00 0. -1.
         21    1    1    2  505  502  0.19439293620E+02 -0.54874994145E+02  0.11371059731E+03  0.12774682407E+03  0.00000000000E+00 0. -1.
          3    1    1    2  501    0  0.57169280340E+02  0.56229846885E+02  0.41629373484E+03  0.42394645413E+03  0.00000000000E+00 0. -1.
<scales pt_clust_3="14000.00000" pt_clust_4="49.73506" pt_clust_5="51.35192" pt_clust_6="91.49060"></scales>
<clustering>
<clus scale="   49.735">  2  4  1 -1</clus>
<clus scale="   51.352">  2  5  1 -1</clus>
<clus scale="   91.491">  1  6  2 -1</clus>
<clus scale="   49.735">  2  3  1 -1</clus>
</clustering>
</event>
<event>
 6    0  0.6338511E+002  0.1981920E+03  0.7546771E-02  0.1151273E+00
         -1   -1    0    0    0  501 -0.00000000000E+00  0.00000000000E+00  0.46595555282E+03  0.46595555282E+03  0.00000000000E+00 0. -1.
         21   -1    0    0  505  502  0.00000000000E+00 -0.00000000000E+00 -0.11802979467E+04  0.11802979467E+04  0.00000000000E+00 0. -1.
         21    1    1    2  503  502 -0.27327409579E+02  0.13669372575E+02 -0.95338620954E+03  0.95387572754E+03  0.00000000000E+00 0. -1.
         21    1    1    2  504  503  0.14246178202E+02  0.17844668935E+03 -0.44735385262E+02  0.18451945487E+03  0.00000000000E+00 0. -1.
         21    1    1    2  505  501  0.29198656869E+02 -0.22264010466E+03  0.25932241725E+01  0.22456157858E+03  0.00000000000E+00 0. -1.
         -1    1    1    2    0  504 -0.16117425492E+02  0.30524042734E+02  0.28118597670E+03  0.28329673856E+03  0.00000000000E+00 0. -1.
<scales pt_clust_3="30.55551" pt_clust_4="198.19205" pt_clust_5="14000.00000" pt_clust_6="34.63374"></scales>
<clustering>
<clus scale="   30.556">  2  3  1 -1</clus>
<clus scale="   34.634">  1  6  2 -1</clus>
<clus scale="  198.192">  2  4  1 -1</clus>
<clus scale="   30.556">  2  3  1 -1</clus>
</clustering>
</event>
<event>
 6    0  0.6338511E+002  0.2398255E+03  0.7546771E-02  0.1119909E+00
          2   -1    0    0  505    0 -0.00000000000E+00  0.00000000000E+00  0.19769113099E+04  0.19769113099E+04  0.00000000000E+00 0. -1.
         21   -1    0    0  503  502  0.00000000000E+00 -0.00000000000E+00 -0.47724546681E+03  0.47724546681E+03  0.00000000000E+00 0.  1.
         21    1    1    2  503  504  0.30516656184E+02 -0.25546114260E+02 -0.11915935243E+03  0.12562970003E+03  0.00000000000E+00 0.  1.
         21    1    1    2  504  501  0.19852239958E+03  0.23452109545E+02 -0.31571391773E+03  0.37367957187E+03  0.00000000000E+00 0.  1.
         21    1    1    2  505  502 -0.13035346233E+03  0.79914782590E+01  0.49567397604E+03  0.51259006953E+03  0.00000000000E+00 0. -1.
          2    1    1    2  501    0 -0.98685593438E+02 -0.58974735442E+01  0.14388651372E+04  0.14422574353E+04  0.00000000000E+00 0. -1.
<scales pt_clust_3="39.23361" pt_clust_4="39.23361" pt_clust_5="223.12454" pt_clust_6="98.86165"></scales>
<clustering>
<clus scale="   39.234">  3  4 -1 -1</clus>
<clus scale="   98.862">  1  6  2 -1</clus>
<clus scale="  223.125">  1  5  2 -1</clus>
<clus scale="  239.826">  2  3  1 -1</clus>
</clustering>
</event>
<event>
 6    0  0.6338511E+002  0.1793190E+03  0.7546771E-02  0.1168464E+00
          2   -1    0    0  505    0 -0.00000000000E+00  0.00000000000E+00  0.13558259137E+04  0.13558259137E+04  0.00000000000E+00 0. -1.
         21   -1    0    0  504  502  0.00000000000E+00 -0.00000000000E+00 -0.33746483650E+03  0.33746483650E+03  0.00000000000E+00 0. -1.
         21    1    1    2  503  502  0.54272167512E+02  0.78016561110E+02 -0.24296441429E+03  0.26089031907E+03  0.00000000000E+00 0. -1.
         21    1    1    2  504  501  0.45114342450E+02  0.85153976438E+02 -0.46283836417E+02  0.10690508459E+03  0.00000000000E+00 0. -1.
         21    1    1    2  505  503 -0.52936463627E+02 -0.11214534419E+03  0.50813211279E+03  0.52304597451E+03  0.00000000000E+00 0. -1.
          2    1    1    2  501    0 -0.46450046334E+02 -0.51025193362E+02  0.79947721509E+03  0.80244937199E+03  0.00000000000E+00 0. -1.
<scales pt_clust_3="14000.00000" pt_clust_4="92.72028" pt_clust_5="179.31897" pt_clust_6="69.00128"></scales>
<clustering>
<clus scale="   69.001">  1  6  2 -1</clus>
<clus scale="   92.720">  2  4  1 -1</clus>
<clus scale="  179.319">  1  5  2 -1</clus>
<clus scale="   92.720">  2  3  1 -1</clus>
</clustering>
</event>
<event>
 6    0  0.6338511E+002  0.8178926E+02  0.7546771E-02  0.1324049E+00
          2   -1    0    0  505    0 -0.00000000000E+00  0.00000000000E+00  0.22148552146E+04  0.22148552146E+04  0.00000000000E+00 0. -1.
         21   -1    0    0  503  502  0.00000000000E+00 -0.00000000000E+00 -0.33403611258E+02  0.33403611258E+02  0.00000000000E+00 0.  1.
         21    1    1    2  503  501  0.42856213052E+02  0.18345164647E+02  0.25329471250E+02  0.53054520796E+02  0.00000000000E+00 0.  1.
         21    1    1    2  504  502 -0.30486576330E+01 -0.70459056185E+02  0.18407894919E+03  0.19712643771E+03  0.00000000000E+00 0.  1.
         21    1    1    2  505  504 -0.74244376305E+02  0.81047576454E+02  0.22456323269E+03  0.25001916434E+03  0.00000000000E+00 0.  1.
          2    1    1    2  501    0  0.34436820885E+02 -0.28933684916E+02  0.17474799502E+04  0.17480587030E+04  0.00000000000E+00 0. -1.
<scales pt_clust_3="48.43588" pt_clust_4="81.78926" pt_clust_5="14000.00000" pt_clust_6="44.97836"></scales>
<clustering>
<clus scale="   44.978">  1  6  2 -1</clus>
<clus scale="   48.436">  2  3  1 -1</clus>
<clus scale="   81.789">  2  4  1 -1</clus>
<clus scale="   48.436">  2  3  1 -1</clus>
</clustering>
</event>
<event>
 6    0  0.6338511E+002  0.6303798E+02  0.7546771E-02  0.1385508E+00
         21   -1    0    0  505  502  0.00000000000E+00  0.00000000000E+00  0.78194268170E+03  0.78194268170E+03  0.00000000000E+00 0.  1.
         -4   -1    0    0    0  501 -0.00000000000E+00 -0.00000000000E+00 -0.88584743201E+02  0.88584743201E+02  0.00000000000E+00 0. -1.
         21    1    1    2  503  502  0.45118387169E+02 -0.27089699688E+02  0.14446350262E+03  0.15375052611E+03  0.00000000000E+00 0.  1.
         21    1    1    2  504  503  0.30174681427E+02 -0.76813779125E+02  0.49025890643E+02  0.95991697641E+02  0.00000000000E+00 0.  1.
         21    1    1    2  505  501 -0.54857326414E+02  0.78765094492E+02  0.55152227054E+03  0.55981254119E+03  0.00000000000E+00 0.  1.
         -4    1    1    2    0  504 -0.20435742181E+02  0.25138384321E+02 -0.51653725305E+02  0.60972659960E+02  0.00000000000E+00 0. -1.
<scales pt_clust_3="48.26943" pt_clust_4="14000.00000" pt_clust_5="63.03798" pt_clust_6="32.39688"></scales>
<clustering>
<clus scale="   32.397">  2  6  1 -1</clus>
<clus scale="   48.269">  1  3  2 -1</clus>
<clus scale="   63.038">  1  5  2 -1</clus>
<clus scale="   48.269">  1  3  2 -1</clus>
</clustering>
</event>
<event>
 6    0  0.6338511E+002  0.1947991E+03  0.7546771E-02  0.1154203E+00
         -4   -1    0    0    0  501 -0.00000000000E+00  0.00000000000E+00  0.70231144062E+03  0.70231144062E+03  0.00000000000E+00 0.  1.
         21   -1    0    0  504  502  0.00000000000E+00 -0.00000000000E+00 -0.48758766570E+03  0.48758766570E+03  0.00000000000E+00 0. -1.
         21    1    1    2  503  501 -0.53375725957E+02  0.63558802540E+02 -0.26106184024E+03  0.27393790159E+03  0.00000000000E+00 0. -1.
         21    1    1    2  504  503 -0.36975349548E+02 -0.65705071452E+01 -0.12258345859E+03  0.12820706829E+03  0.00000000000E+00 0. -1.
         21    1    1    2  505  502 -0.10016489591E+03  0.41660895770E+02 -0.38972945299E+02  0.11527153627E+03  0.00000000000E+00 0. -1.
         -4    1    1    2    0  505  0.19051597141E+03 -0.98649191165E+02  0.63734201905E+03  0.67248260017E+03  0.00000000000E+00 0.  1.
<scales pt_clust_3="99.78145" pt_clust_4="37.55460" pt_clust_5="14000.00000" pt_clust_6="194.79911"></scales>
<clustering>
<clus scale="   37.555">  2  4  1 -1</clus>
<clus scale="   99.781">  2  3  1 -1</clus>
<clus scale="  194.799">  1  6  2 -1</clus>
<clus scale="   37.555">  2  3  1 -1</clus>
</clustering>
</event>
<event>
 6    0  0.6338511E+002  0.4353658E+03  0.7546771E-02  0.1032178E+00
         21   -1    0    0  503  502  0.00000000000E+00  0.00000000000E+00  0.12129192964E+04  0.12129192964E+04  0.00000000000E+00 0.  1.
          2   -1    0    0  504    0 -0.00000000000E+00 -0.00000000000E+00 -0.14715683343E+04  0.14715683343E+04  0.00000000000E+00 0. -1.
         21    1    1    2  503  501  0.52913316563E+02 -0.83952099933E+02  0.10561321013E+03  0.14492040680E+03  0.00000000000E+00 0.  1.
         21    1    1    2  504  505 -0.11729928538E+02  0.59933452185E+02 -0.12876893574E+02  0.62413334332E+02  0.00000000000E+00 0.  1.
         21    1    1    2  505  502  0.35826288188E+03  0.22924620578E+03  0.98201063329E+03  0.10701640058E+04  0.00000000000E+00 0.  1.
          2    1    1    2  501    0 -0.39944626990E+03 -0.20522755803E+03 -0.13333959877E+04  0.14069898838E+04  0.00000000000E+00 0. -1.
<scales pt_clust_3="98.45575" pt_clust_4="61.07053" pt_clust_5="435.36580" pt_clust_6="14000.00000"></scales>
<clustering>
<clus scale="   61.071">  2  4  1 -1</clus>
<clus scale="   98.456">  1  3  2 -1</clus>
<clus scale="  435.366">  1  5  2 -1</clus>
<clus scale="   98.456">  1  3  2 -1</clus>
</clustering>
</event>
<event>
 6    0  0.6338511E+002  0.8927420E+02  0.7546771E-02  0.1304619E+00
          1   -1    0    0  505    0 -0.00000000000E+00  0.00000000000E+00  0.22719438627E+04  0.22719438627E+04  0.00000000000E+00 0. -1.
         21   -1    0    0  503  502  0.00000000000E+00 -0.00000000000E+00 -0.36155729735E+02  0.36155729735E+02  0.00000000000E+00 0. -1.
         21    1    1    2  503  501  0.34818689088E+02  0.40885987359E+01 -0.16976483468E+02  0.38952005601E+02  0.00000000000E+00 0. -1.
         21    1    1    2  504  502  0.27297206702E+02 -0.93064884796E+02  0.37739779591E+03  0.38966050177E+03  0.00000000000E+00 0. -1.
         21    1    1    2  505  504 -0.58257863491E+02  0.31657431594E+02  0.10983445049E+04  0.11003439567E+04  0.00000000000E+00 0. -1.
          1    1    1    2  501    0 -0.38580323000E+01  0.57318854467E+02  0.77702231566E+03  0.77914312840E+03  0.00000000000E+00 0. -1.
<scales pt_clust_3="35.05792" pt_clust_4="89.27420" pt_clust_5="14000.00000" pt_clust_6="57.85178"></scales>
<clustering>
<clus scale="   35.058">  2  3  1 -1</clus>
<clus scale="   57.852">  1  6  2 -1</clus>
<clus scale="   89.274">  2  4  1 -1</clus>
<clus scale="   35.058">  2  3  1 -1</clus>
</clustering>
</event>
<event>
 6    0  0.6338511E+002  0.1020694E+03  0.7546771E-02  0.1276004E+00
         21   -1    0    0  505  502  0.00000000000E+00  0.00000000000E+00  0.70493289119E+03  0.70493289119E+03  0.00000000000E+00 0. -1.
          1   -1    0    0  503    0 -0.00000000000E+00 -0.00000000000E+00 -0.99644148916E+02  0.99644148916E+02  0.00000000000E+00 0. -1.
         21    1    1    2  503  502 -0.69038654802E+02 -0.53727572662E+02  0.20364539764E+02  0.89820389672E+02  0.00000000000E+00 0. -1.
         21    1    1    2  504  501  0.32320884166E+02  0.79061375833E+02  0.32646996409E+03  0.33745811319E+03  0.00000000000E+00 0. -1.
         21    1    1    2  505  504  0.19995116248E+02  0.23795436956E+02  0.30560449590E+03  0.30718094897E+03  0.00000000000E+00 0. -1.
          1    1    1    2  501    0  0.16722654387E+02 -0.49129240127E+02 -0.47150257484E+02  0.70117588279E+02  0.00000000000E+00 0. -1.
<scales pt_clust_3="102.06937" pt_clust_4="14000.00000" pt_clust_5="31.08098" pt_clust_6="51.43958"></scales>
<clustering>
<clus scale="   31.081">  1  5  2 -1</clus>
<clus scale="   51.440">  2  6  1 -1</clus>
<clus scale="  102.069">  2  3  1 -1</clus>
<clus scale="   31.081">  1  3  2 -1</clus>
</clustering>
</event>
<event>
 6    0  0.6338511E+002  0.7617444E+02  0.7546771E-02  0.1340272E+00
         21   -1    0    0  504  502  0.00000000000E+00  0.00000000000E+00  0.36009525388E+02  0.36009525388E+02  0.00000000000E+00 0. -1.
          2   -1    0    0  503    0 -0.00000000000E+00 -0.00000000000E+00 -0.45438495977E+04  0.45438495977E+04  0.00000000000E+00 0.  1.
         21    1    1    2  503  505  0.12575582685E+03 -0.26783967211E+02 -0.45506655044E+03  0.47288209335E+03  0.00000000000E+00 0. -1.
         21    1    1    2  504  501 -0.24088752540E+02 -0.56067114311E+02 -0.37505583726E+03  0.37998772397E+03  0.00000000000E+00 0. -1.
         21    1    1    2  505  502 -0.57421247378E+02  0.42368120769E+02 -0.27807788566E+02  0.76586750896E+02  0.00000000000E+00 0. -1.
          2    1    1    2  501    0 -0.44245826930E+02  0.40482960753E+02 -0.36499098961E+04  0.36504025549E+04  0.00000000000E+00 0.  1.
<scales pt_clust_3="14000.00000" pt_clust_4="57.86560" pt_clust_5="76.17444" pt_clust_6="59.97135"></scales>
<clustering>
<clus scale="   59.971">  2  6  1 -1</clus>
<clus scale="   57.866">  2  4  1 -1</clus>
<clus scale="   76.174">  1  5  2 -1</clus>
<clus scale="   76.174">  1  3  2 -1</clus>
</clustering>
</event>
<event>
 6    0  0.6338511E+002  0.3053048E+03  0.7546771E-02  0.1082618E+00
          2   -1    0    0  505    0 -0.00000000000E+00  0.00000000000E+00  0.17088570005E+04  0.17088570005E+04  0.00000000000E+00 0.  1.
         21   -1    0    0  504  502  0.00000000000E+00 -0.00000000000E+00 -0.10805499267E+04  0.10805499267E+04  0.00000000000E+00 0. -1.
         21    1    1    2  503  501 -0.17913282795E+02 -0.31895151685E+02 -0.44081343469E+03  0.44232869068E+03  0.00000000000E+00 0. -1.
         21    1    1    2  504  503  0.69784913397E+01 -0.39902618200E+02 -0.27208901674E+03  0.27508789743E+03  0.00000000000E+00 0. -1.
         21    1    1    2  505  502  0.19576215106E+02  0.37417011482E+03 -0.25120509517E+03  0.45109921621E+03  0.00000000000E+00 0. -1.
          2    1    1    2  501    0 -0.86414236502E+01 -0.30237234494E+03  0.15924146204E+04  0.16208911229E+04  0.00000000000E+00 0.  1.
<scales pt_clust_3="32.67358" pt_clust_4="80.35332" pt_clust_5="305.30479" pt_clust_6="14000.00000"></scales>
<clustering>
<clus scale="   32.674">  3  4 -1 -1</clus>
<clus scale="   80.353">  2  3  1 -1</clus>
<clus scale="  305.305">  2  5  1 -1</clus>
<clus scale="   80.353">  2  3  1 -1</clus>
</clustering>
</event>
<event>
 6    0  0.6338511E+002  0.1020399E+03  0.7546771E-02  0.1276064E+00
         21   -1    0    0  503  502  0.00000000000E+00  0.00000000000E+00  0.25805597018E+03  0.25805597018E+03  0.00000000000E+00 0.  1.
          2   -1    0    0  502    0 -0.00000000000E+00 -0.00000000000E+00 -0.16661807524E+04  0.16661807524E+04  0.00000000000E+00 0. -1.
         21    1    1    2  503  505 -0.35042567191E+02 -0.18143658328E+02  0.23765890627E+03  0.24091270117E+03  0.00000000000E+00 0.  1.
         21    1    1    2  504  501 -0.85353733792E+02 -0.35568132371E+02 -0.51102618422E+03  0.51932467000E+03  0.00000000000E+00 0.  1.
         21    1    1    2  505  504  0.44396785895E+02 -0.29436537420E+02 -0.48887530078E+02  0.72301970445E+02  0.00000000000E+00 0.  1.
          2    1    1    2  501    0  0.75999515088E+02  0.83148328119E+02 -0.10858699742E+04  0.10916973810E+04  0.00000000000E+00 0. -1.
<scales pt_clust_3="39.46104" pt_clust_4="14000.00000" pt_clust_5="46.57112" pt_clust_6="102.03993"></scales>
<clustering>
<clus scale="   39.461">  1  3  2 -1</clus>
<clus scale="   46.571">  1  5  2 -1</clus>
<clus scale="  102.040">  2  6  1 -1</clus>
<clus scale="   39.461">  1  3  2 -1</clus>
</clustering>
</event>
<event>
 6    0  0.6338511E+002  0.9121805E+02  0.7546771E-02  0.1299929E+00
         21   -1    0    0  501  502  0.00000000000E+00  0.00000000000E+00  0.15676714903E+03  0.15676714903E+03  0.00000000000E+00 0.  1.
          1   -1    0    0  503    0 -0.00000000000E+00 -0.00000000000E+00 -0.18581339844E+04  0.18581339844E+04  0.00000000000E+00 0.  1.
         21    1    1    2  503  504  0.28310477938E+02 -0.40856318062E+02 -0.16619213343E+04  0.16626645011E+04  0.00000000000E+00 0.  1.
         21    1    1    2  504  505 -0.77872616949E+02  0.69112808892E+01 -0.67847417831E+01  0.78472562052E+02  0.00000000000E+00 0.  1.
         21    1    1    2  505  502 -0.32060818561E+02 -0.41459444475E+01  0.10465938936E+03  0.10953845318E+03  0.00000000000E+00 0.  1.
          1    1    1    2  501    0  0.81622957571E+02  0.38090981621E+02 -0.13732014867E+03  0.16422561711E+03  0.00000000000E+00 0.  1.
<scales pt_clust_3="49.59570" pt_clust_4="91.21805" pt_clust_5="32.32777" pt_clust_6="14000.00000"></scales>
<clustering>
<clus scale="   32.328">  1  5  2 -1</clus>
<clus scale="   49.596">  2  3  1 -1</clus>
<clus scale="   91.218">  1  4  2 -1</clus>
<clus scale="   32.328">  1  3  2 -1</clus>
</clustering>
</event>
<event>
 6    0  0.6338511E+002  0.1140198E+03  0.7546771E-02  0.1253302E+00
          1   -1    0    0  503    0 -0.00000000000E+00  0.00000000000E+00  0.86895260117E+03  0.86895260117E+03  0.00000000000E+00 0. -1.
         21   -1    0    0  505  502  0.00000000000E+00 -0.00000000000E+00 -0.61631985184E+03  0.61631985184E+03  0.00000000000E+00 0. -1.
         21    1    1    2  503  504  0.27757262233E+02  0.27613189935E+02  0.14680632870E+03  0.15193765830E+03  0.00000000000E+00 0. -1.
         21    1    1    2  504  502 -0.42853223535E+02  0.51023782193E+01 -0.10975446312E+03  0.11793419863E+03  0.00000000000E+00 0. -1.
         21    1    1    2  505  501 -0.71103342696E+02  0.95695629779E+01 -0.49408631204E+03  0.49926800981E+03  0.00000000000E+00 0. -1.
          1    1    1    2  501    0  0.86199303998E+02 -0.42285131132E+02  0.70966719580E+03  0.71613258627E+03  0.00000000000E+00 0. -1.
<scales pt_clust_3="39.15295" pt_clust_4="43.01817" pt_clust_5="14000.00000" pt_clust_6="114.01984"></scales>
<clustering>
<clus scale="   39.153">  1  3  2 -1</clus>
<clus scale="   43.018">  2  4  1 -1</clus>
<clus scale="  114.020">  1  6  2 -1</clus>
<clus scale="   43.018">  2  3  1 -1</clus>
</clustering>
</event>
<event>
 6    0  0.9063954E+002  0.9674366E+02  0.7546771E-02  0.1287297E+00
         21   -1    0    0  505  502  0.00000000000E+00  0.00000000000E+00  0.22376529764E+04  0.22376529764E+04  0.00000000000E+00 0.  1.
         -2   -1    0    0    0  501 -0.00000000000E+00 -0.00000000000E+00 -0.13739601540E+03  0.13739601540E+03  0.00000000000E+00 0. -1.
         21    1    1    2  503  501 -0.18925304738E+02  0.60409955504E+02 -0.83621804312E+01  0.63854960222E+02  0.00000000000E+00 0. -1.
         21    1    1    2  504  503 -0.53002703613E+02 -0.45154310660E+02  0.46612002427E+03  0.47129192163E+03  0.00000000000E+00 0.  1.
         21    1    1    2  505  504 -0.84068152805E+01 -0.35808421054E+02  0.17235532999E+04  0.17239457344E+04  0.00000000000E+00 0.  1.
         -2    1    1    2    0  502  0.80334823632E+02  0.20552776209E+02 -0.81054182721E+02  0.11595637557E+03  0.00000000000E+00 0. -1.
<scales pt_clust_3="61.60412" pt_clust_4="14000.00000" pt_clust_5="36.78203" pt_clust_6="96.74366"></scales>
<clustering>
<clus scale="   36.782">  1  5  2 -1</clus>
<clus scale="   61.604">  2  3  1 -1</clus>
<clus scale="   96.744">  2  6  1 -1</clus>
<clus scale="   36.782">  1  3  2 -1</clus>
</clustering>
</event>
<event>
 6    0  0.6338511E+002  0.1587156E+03  0.7546771E-02  0.1190154E+00
         -1   -1    0    0    0  501 -0.00000000000E+00  0.00000000000E+00  0.28634695434E+03  0.28634695434E+03  0.00000000000E+00 0.  1.
         21   -1    0    0  504  502  0.00000000000E+00 -0.00000000000E+00 -0.30277530256E+04  0.30277530256E+04  0.00000000000E+00 0.  1.
         21    1    1    2  503  501  0.39244770336E+02  0.34778785681E+00 -0.13101795715E+02  0.41375475901E+02  0.00000000000E+00 0. -1.
         21    1    1    2  504  503 -0.18081702201E+03 -0.38420012443E+02 -0.20219659495E+04  0.20303982845E+04  0.00000000000E+00 0.  1.
         21    1    1    2  505  502  0.60638733808E+02  0.15412600668E+03 -0.94796353560E+03  0.96232361854E+03  0.00000000000E+00 0.  1.
         -1    1    1    2    0  505  0.80933517864E+02 -0.11605378209E+03  0.24162520958E+03  0.28000260098E+03  0.00000000000E+00 0.  1.
<scales pt_clust_3="39.24631" pt_clust_4="158.71563" pt_clust_5="14000.00000" pt_clust_6="165.65585"></scales>
<clustering>
<clus scale="   39.246">  1  3  2 -1</clus>
<clus scale="  165.656">  1  6  2 -1</clus>
<clus scale="  158.716">  2  4  1 -1</clus>
<clus scale="  158.716">  2  3  1 -1</clus>
</clustering>
</event>
<event>
 6    0  0.6338511E+002  0.6550615E+02  0.7546771E-02  0.1376078E+00
          2   -1    0    0  505    0 -0.00000000000E+00  0.00000000000E+00  0.29658093750E+04  0.29658093750E+04  0.00000000000E+00 0.  1.
         21   -1    0    0  503  502  0.00000000000E+00 -0.00000000000E+00 -0.66301223699E+02  0.66301223699E+02  0.00000000000E+00 0.  1.
         21    1    1    2  503  501  0.23860899096E+02  0.54394597016E+02  0.31537749208E+03  0.32092222921E+03  0.00000000000E+00 0.  1.
         21    1    1    2  504  502  0.19414256400E+02  0.57458932562E+02  0.31663797400E+02  0.68418114184E+02  0.00000000000E+00 0.  1.
         21    1    1    2  505  504 -0.85071463871E+02 -0.76093137988E+02  0.27760500298E+02  0.11746473935E+03  0.00000000000E+00 0.  1.
          2    1    1    2  501    0  0.41796308375E+02 -0.35760391590E+02  0.25247063615E+04  0.25253055160E+04  0.00000000000E+00 0.  1.
<scales pt_clust_3="14000.00000" pt_clust_4="58.61015" pt_clust_5="65.50615" pt_clust_6="55.00670"></scales>
<clustering>
<clus scale="   55.007">  1  6  2 -1</clus>
<clus scale="   58.610">  2  4  1 -1</clus>
<clus scale="   65.506">  2  5  1 -1</clus>
<clus scale="   58.610">  2  3  1 -1</clus>
</clustering>
</event>
<event>
 6    0  0.6338511E+002  0.7446395E+02  0.7546771E-02  0.1345539E+00
         21   -1    0    0  503  502  0.00000000000E+00  0.00000000000E+00  0.13429128675E+03  0.13429128675E+03  0.00000000000E+00 0.  1.
          3   -1    0    0  504    0 -0.00000000000E+00 -0.00000000000E+00 -0.32634965663E+04  0.32634965663E+04  0.00000000000E+00 0. -1.
         21    1    1    2  503  501 -0.24409710823E+02 -0.12802735240E+03 -0.74822369771E+03  0.75949031512E+03  0.00000000000E+00 0. -1.
         21    1    1    2  504  505 -0.32555607867E+01  0.44490504172E+02 -0.65692171446E+02  0.79406958303E+02  0.00000000000E+00 0. -1.
         21    1    1    2  505  502 -0.11410380633E+02  0.72857691347E+02  0.11045336839E+03  0.13280958762E+03  0.00000000000E+00 0.  1.
          3    1    1    2  501    0  0.39075652244E+02  0.10679156882E+02 -0.24257427788E+04  0.24260809921E+04  0.00000000000E+00 0. -1.
<scales pt_clust_3="14000.00000" pt_clust_4="45.41569" pt_clust_5="74.46395" pt_clust_6="40.50865"></scales>
<clustering>
<clus scale="   40.509">  2  6  1 -1</clus>
<clus scale="   45.416">  2  4  1 -1</clus>
<clus scale="   74.464">  1  5  2 -1</clus>
<clus scale="   74.464">  1  3  2 -1</clus>
</clustering>
</event>
<event>
 6    0  0.6338511E+002  0.2031808E+03  0.7546771E-02  0.1147083E+00
          2   -1    0    0  505    0 -0.00000000000E+00  0.00000000000E+00  0.20531704047E+04  0.20531704047E+04  0.00000000000E+00 0.  1.
         21   -1    0    0  503  502  0.00000000000E+00 -0.00000000000E+00 -0.24162174094E+03  0.24162174094E+03  0.00000000000E+00 0.  1.
         21    1    1    2  503  501 -0.50374985641E+02 -0.98609236758E+01 -0.39347368033E+01  0.51481638938E+02  0.00000000000E+00 0. -1.
         21    1    1    2  504  502  0.87973044761E+01 -0.43573739475E+02 -0.17721836841E+03  0.18270854780E+03  0.00000000000E+00 0.  1.
         21    1    1    2  505  504  0.59451471029E+02  0.24495009088E+03  0.54846997484E+03  0.60361770827E+03  0.00000000000E+00 0.  1.
          2    1    1    2  501    0 -0.17873789864E+02 -0.19151542773E+03  0.14442317942E+04  0.14569842507E+04  0.00000000000E+00 0.  1.
<scales pt_clust_3="54.97101" pt_clust_4="44.45293" pt_clust_5="203.18079" pt_clust_6="14000.00000"></scales>
<clustering>
<clus scale="   44.453">  2  4  1 -1</clus>
<clus scale="   54.971">  2  3  1 -1</clus>
<clus scale="  203.181">  2  5  1 -1</clus>
<clus scale="   44.453">  2  3  1 -1</clus>
</clustering>
</event>
<event>
 6    0  0.6338511E+002  0.8080074E+02  0.7546771E-02  0.1326794E+00
         21   -1    0    0  503  502  0.00000000000E+00  0.00000000000E+00  0.33976359122E+03  0.33976359122E+03  0.00000000000E+00 0. -1.
          1   -1    0    0  505    0 -0.00000000000E+00 -0.00000000000E+00 -0.11854823888E+04  0.11854823888E+04  0.00000000000E+00 0. -1.
         21    1    1    2  503  501  0.24477558551E+02 -0.42880126869E+02 -0.18407055017E+02  0.52694172613E+02  0.00000000000E+00 0. -1.
         21    1    1    2  504  502 -0.25371766548E+02 -0.76174902484E+02  0.30683137345E+03  0.31716215732E+03  0.00000000000E+00 0. -1.
         21    1    1    2  505  504  0.30568680965E+02  0.10554036151E+03 -0.28240648862E+03  0.30302910252E+03  0.00000000000E+00 0. -1.
          1    1    1    2  501    0 -0.29674472968E+02  0.13514667845E+02 -0.85173662735E+03  0.85236054752E+03  0.00000000000E+00 0. -1.
<scales pt_clust_3="46.59914" pt_clust_4="80.80074" pt_clust_5="14000.00000" pt_clust_6="32.60706"></scales>
<clustering>
<clus scale="   32.607">  2  6  1 -1</clus>
<clus scale="   46.599">  2  3  1 -1</clus>
<clus scale="   80.801">  1  4  2 -1</clus>
<clus scale="   80.801">  1  3  2 -1</clus>
</clustering>
</event>
<event>
 6    0  0.6338511E+002  0.7278544E+02  0.7546771E-02  0.1350869E+00
         21   -1    0    0  505  502  0.00000000000E+00  0.00000000000E+00  0.18841935351E+03  0.18841935351E+03  0.00000000000E+00 0.  1.
          1   -1    0    0  504    0 -0.00000000000E+00 -0.00000000000E+00 -0.58102244580E+03  0.58102244580E+03  0.00000000000E+00 0. -1.
         21    1    1    2  503  502 -0.77408851937E+02  0.38927027025E+02  0.24069557580E+02  0.89926566671E+02  0.00000000000E+00 0.  1.
         21    1    1    2  504  503  0.44369777537E+02  0.69559502572E+02 -0.17770263286E+02  0.84397771380E+02  0.00000000000E+00 0.  1.
         21    1    1    2  505  501  0.30153902371E+02 -0.65902157665E+02  0.83651644897E+02  0.11067949181E+03  0.00000000000E+00 0.  1.
          1    1    1    2  501    0  0.28851720285E+01 -0.42584371932E+02 -0.48255403148E+03  0.48443796945E+03  0.00000000000E+00 0. -1.
<scales pt_clust_3="72.78544" pt_clust_4="65.86353" pt_clust_5="14000.00000" pt_clust_6="42.68200"></scales>
<clustering>
<clus scale="   42.682">  2  6  1 -1</clus>
<clus scale="   65.864">  2  4  1 -1</clus>
<clus scale="   72.785">  2  3  1 -1</clus>
<clus scale="   72.785">  1  3  2 -1</clus>
</clustering>
</event>
<event>
 6    0  0.6338511E+002  0.8686726E+02  0.7546771E-02  0.1310620E+00
         21   -1    0    0  505  502  0.00000000000E+00  0.00000000000E+00  0.13216683604E+04  0.13216683604E+04  0.00000000000E+00 0. -1.
          1   -1    0    0  503    0 -0.00000000000E+00 -0.00000000000E+00 -0.32969192219E+03  0.32969192219E+03  0.00000000000E+00 0.  1.
         21    1    1    2  503  504 -0.10390517707E+01 -0.42978449727E+02 -0.10224594278E+03  0.11091645317E+03  0.00000000000E+00 0.  1.
         21    1    1    2  504  502  0.10597420679E+03  0.47838094342E+02  0.76254900911E+03  0.77136243561E+03  0.00000000000E+00 0. -1.
         21    1    1    2  505  501 -0.32601183495E+02 -0.13833291315E+01  0.54388023340E+03  0.54485820087E+03  0.00000000000E+00 0. -1.
          1    1    1    2  501    0 -0.72333971524E+02 -0.34763154836E+01 -0.21220686148E+03  0.22422319297E+03  0.00000000000E+00 0.  1.
<scales pt_clust_3="43.00350" pt_clust_4="14000.00000" pt_clust_5="32.63052" pt_clust_6="86.86726"></scales>
<clustering>
<clus scale="   32.631">  1  5  2 -1</clus>
<clus scale="   43.003">  2  3  1 -1</clus>
<clus scale="   86.867">  2  6  1 -1</clus>
<clus scale="   32.631">  1  3  2 -1</clus>
</clustering>
</event>
<event>
 6    0  0.6338511E+002  0.7922290E+02  0.7546771E-02  0.1331271E+00
          2   -1    0    0  505    0 -0.00000000000E+00  0.00000000000E+00  0.85394962308E+02  0.85394962308E+02  0.00000000000E+00 0.  1.
         21   -1    0    0  503  502  0.00000000000E+00 -0.00000000000E+00 -0.67989629830E+03  0.67989629830E+03  0.00000000000E+00 0.  1.
         21    1    1    2  503  501  0.64395393921E+02 -0.41905171074E+02 -0.26319341911E+03  0.27417801878E+03  0.00000000000E+00 0.  1.
         21    1    1    2  504  502 -0.26309726214E+02 -0.20228594551E+02 -0.11142617455E+03  0.11626345129E+03  0.00000000000E+00 0.  1.
         21    1    1    2  505  504 -0.11203293504E+02  0.10093767694E+03 -0.28032648279E+03  0.29815577366E+03  0.00000000000E+00 0.  1.
          2    1    1    2  501    0 -0.26882374204E+02 -0.38803911312E+02  0.60444740458E+02  0.76694016878E+02  0.00000000000E+00 0.  1.
<scales pt_clust_3="79.22290" pt_clust_4="33.18731" pt_clust_5="14000.00000" pt_clust_6="47.65993"></scales>
<clustering>
<clus scale="   33.187">  2  4  1 -1</clus>
<clus scale="   47.660">  1  6  2 -1</clus>
<clus scale="   79.223">  2  3  1 -1</clus>
<clus scale="   33.187">  2  3  1 -1</clus>
</clustering>
</event>
<event>
 6    0  0.6338511E+002  0.1522678E+03  0.7546771E-02  0.1197714E+00
         21   -1    0    0  503  502  0.00000000000E+00  0.00000000000E+00  0.21747205677E+03  0.21747205677E+03  0.00000000000E+00 0. -1.
          2   -1    0    0  504    0 -0.00000000000E+00 -0.00000000000E+00 -0.90376722730E+03  0.90376722730E+03  0.00000000000E+00 0. -1.
         21    1    1    2  503  505  0.50404497993E+02  0.17286951002E+02  0.63579161359E+02  0.82956385239E+02  0.00000000000E+00 0. -1.
         21    1    1    2  504  502  0.71445643855E+02 -0.14908601929E+02 -0.18097849812E+02  0.75194937363E+02  0.00000000000E+00 0. -1.
         21    1    1    2  505  501 -0.38766902031E+02  0.13025689403E+03  0.65309841920E+02  0.15078165203E+03  0.00000000000E+00 0. -1.
          2    1    1    2  501    0 -0.83083239817E+02 -0.13263524311E+03 -0.79708632400E+03  0.81230630944E+03  0.00000000000E+00 0. -1.
<scales pt_clust_3="53.28651" pt_clust_4="82.23054" pt_clust_5="152.26777" pt_clust_6="14000.00000"></scales>
<clustering>
<clus scale="   53.287">  1  3  2 -1</clus>
<clus scale="   82.231">  1  4  2 -1</clus>
<clus scale="  152.268">  1  5  2 -1</clus>
<clus scale="   53.287">  1  3  2 -1</clus>
</clustering>
</event>
<event>
 6    0  0.6338511E+002  0.9218619E+02  0.7546771E-02  0.1297642E+00
          2   -1    0    0  503    0 -0.00000000000E+00  0.00000000000E+00  0.14783686131E+04  0.14783686131E+04  0.00000000000E+00 0. -1.
         21   -1    0    0  504  502  0.00000000000E+00 -0.00000000000E+00 -0.66083930857E+02  0.66083930857E+02  0.00000000000E+00 0.  1.
         21    1    1    2  503  505  0.40444551727E+02  0.68261834842E+02  0.27955448387E+03  0.29059619632E+03  0.00000000000E+00 0.  1.
         21    1    1    2  504  501 -0.13390686845E+02  0.31012700951E+02  0.18683301062E+02  0.38602640493E+02  0.00000000000E+00 0.  1.
         21    1    1    2  505  502 -0.43588659556E+02  0.29759432985E+01 -0.38396734247E+02  0.58164737438E+02  0.00000000000E+00 0.  1.
          2    1    1    2  501    0  0.16534794674E+02 -0.10225047909E+03  0.11524436316E+04  0.11570889697E+04  0.00000000000E+00 0. -1.
<scales pt_clust_3="14000.00000" pt_clust_4="33.78014" pt_clust_5="62.58018" pt_clust_6="92.18619"></scales>
<clustering>
<clus scale="   33.780">  2  4  1 -1</clus>
<clus scale="   62.580">  2  5  1 -1</clus>
<clus scale="   92.186">  1  6  2 -1</clus>
<clus scale="   33.780">  2  3  1 -1</clus>
</clustering>
</event>
<event>
 6    0  0.6338511E+002  0.1270990E+03  0.7546771E-02  0.1231825E+00
         21   -1    0    0  503  502  0.00000000000E+00  0.00000000000E+00  0.56398290160E+03  0.56398290160E+03  0.00000000000E+00 0.  1.
          2   -1    0    0  505    0 -0.00000000000E+00 -0.00000000000E+00 -0.86353337792E+03  0.86353337792E+03  0.00000000000E+00 0. -1.
         21    1    1    2  503  501  0.97686559978E+02 -0.36834288974E+02 -0.21151659324E+03  0.23587856634E+03  0.00000000000E+00 0.  1.
         21    1    1    2  504  502 -0.70851795934E+02 -0.24107283724E+02  0.38840749034E+03  0.39555216681E+03  0.00000000000E+00 0.  1.
         21    1    1    2  505  504 -0.43647302750E+02  0.22834793405E+02  0.15532434086E+03  0.16294835283E+03  0.00000000000E+00 0.  1.
          2    1    1    2  501    0  0.16812538707E+02  0.38106779294E+02 -0.63176571428E+03  0.63313719353E+03  0.00000000000E+00 0. -1.
<scales pt_clust_3="113.96186" pt_clust_4="45.81179" pt_clust_5="45.81179" pt_clust_6="41.65079"></scales>
<clustering>
<clus scale="   41.651">  2  6  1 -1</clus>
<clus scale="   45.812">  4  5 -1 -1</clus>
<clus scale="  113.962">  2  3  1 -1</clus>
<clus scale="  127.099">  1  3  2 -1</clus>
</clustering>
</event>
<event>
 6    0  0.6338511E+002  0.6664819E+02  0.7546771E-02  0.1371877E+00
          2   -1    0    0  504    0 -0.00000000000E+00  0.00000000000E+00  0.22371067008E+04  0.22371067008E+04  0.00000000000E+00 0.  1.
         21   -1    0    0  501  502  0.00000000000E+00 -0.00000000000E+00 -0.11079258777E+04  0.11079258777E+04  0.00000000000E+00 0.  1.
         21    1    1    2  503  502 -0.22809484661E+02  0.62606248057E+02 -0.10970124786E+04  0.10990342092E+04  0.00000000000E+00 0.  1.
         21    1    1    2  504  505  0.37454326033E+02 -0.17162173416E+02  0.95191314610E+03  0.95280428444E+03  0.00000000000E+00 0.  1.
         21    1    1    2  505  503  0.74175344498E+02 -0.48272345500E+02  0.25256320738E+03  0.26761983259E+03  0.00000000000E+00 0.  1.
          2    1    1    2  501    0 -0.88820185871E+02  0.28282708596E+01  0.10217169483E+04  0.10255742523E+04  0.00000000000E+00 0.  1.
<scales pt_clust_3="14000.00000" pt_clust_4="41.19911" pt_clust_5="66.64819" pt_clust_6="59.96679"></scales>
<clustering>
<clus scale="   41.199">  1  4  2 -1</clus>
<clus scale="   59.967">  1  6  2 -1</clus>
<clus scale="   66.648">  1  5  2 -1</clus>
<clus scale="   66.648">  2  3  1 -1</clus>
</clustering>
</event>
<event>
 6    0  0.6338511E+002  0.1722717E+03  0.7546771E-02  0.1175499E+00
         21   -1    0    0  503  502  0.00000000000E+00  0.00000000000E+00  0.63372157638E+02  0.63372157638E+02  0.00000000000E+00 0. -1.
          2   -1    0    0  505    0 -0.00000000000E+00 -0.00000000000E+00 -0.37725848780E+04  0.37725848780E+04  0.00000000000E+00 0.  1.
         21    1    1    2  503  504 -0.45738741106E+02  0.16672840238E+03 -0.11851584767E+03  0.20961011127E+03  0.00000000000E+00 0. -1.
         21    1    1    2  504  501  0.15302974953E+03 -0.12647528740E+03 -0.69002670036E+03  0.71801876701E+03  0.00000000000E+00 0. -1.
         21    1    1    2  505  502 -0.11142283267E+03  0.34585459861E+02 -0.11153147747E+04  0.11214001285E+04  0.00000000000E+00 0. -1.
          2    1    1    2  501    0  0.41318242403E+01 -0.74838574837E+02 -0.17853553976E+04  0.17869280288E+04  0.00000000000E+00 0.  1.
<scales pt_clust_3="14000.00000" pt_clust_4="172.27175" pt_clust_5="109.35745" pt_clust_6="74.95255"></scales>
<clustering>
<clus scale="   74.953">  2  6  1 -1</clus>
<clus scale="  109.357">  2  5  1 -1</clus>
<clus scale="  172.272">  2  4  1 -1</clus>
<clus scale="  172.272">  1  3  2 -1</clus>
</clustering>
</event>
<event>
 6    0  0.6338511E+002  0.6637308E+02  0.7546771E-02  0.1372880E+00
         21   -1    0    0  505  502  0.00000000000E+00  0.00000000000E+00  0.21913923538E+03  0.21913923538E+03  0.00000000000E+00 0.  1.
         -3   -1    0    0    0  501 -0.00000000000E+00 -0.00000000000E+00 -0.24671384526E+03  0.24671384526E+03  0.00000000000E+00 0.  1.
         21    1    1    2  503  502 -0.61527623739E+01 -0.29842998790E+02  0.74630969915E+02  0.80611678633E+02  0.00000000000E+00 0.  1.
         21    1    1    2  504  503  0.31130243876E+02 -0.93654335703E+02  0.72844471907E+02  0.12266435410E+03  0.00000000000E+00 0.  1.
         21    1    1    2  505  501 -0.15235210096E+00  0.63865775918E+02  0.11738288351E+02  0.64935721742E+02  0.00000000000E+00 0.  1.
         -3    1    1    2    0  504 -0.24825129401E+02  0.59631558575E+02 -0.18678834005E+03  0.19764132616E+03  0.00000000000E+00 0.  1.
<scales pt_clust_3="30.47066" pt_clust_4="66.37308" pt_clust_5="55.81100" pt_clust_6="14000.00000"></scales>
<clustering>
<clus scale="   30.471">  1  3  2 -1</clus>
<clus scale="   55.811">  1  5  2 -1</clus>
<clus scale="   66.373">  1  4  2 -1</clus>
<clus scale="   30.471">  1  3  2 -1</clus>
</clustering>
</event>
<event>
 6    0  0.6338511E+002  0.1421028E+03  0.7546771E-02  0.1210527E+00
         -1   -1    0    0    0  501 -0.00000000000E+00  0.00000000000E+00  0.46970131134E+03  0.46970131134E+03  0.00000000000E+00 0.  1.
         21   -1    0    0  505  502  0.00000000000E+00 -0.00000000000E+00 -0.10160987558E+04  0.10160987558E+04  0.00000000000E+00 0. -1.
         21    1    1    2  503  504  0.44120380926E+02  0.12096570667E+03 -0.20034522453E+02  0.13030998539E+03  0.00000000000E+00 0. -1.
         21    1    1    2  504  502  0.98885732999E+02  0.57891204304E+02 -0.63365665817E+03  0.64393364578E+03  0.00000000000E+00 0. -1.
         21    1    1    2  505  501 -0.66395041438E+02 -0.55950485344E+02 -0.28259759246E+03  0.29563517653E+03  0.00000000000E+00 0. -1.
         -1    1    1    2    0  503 -0.76611072487E+02 -0.12290642563E+03  0.38989132864E+03  0.41592125942E+03  0.00000000000E+00 0.  1.
<scales pt_clust_3="142.10279" pt_clust_4="41.47356" pt_clust_5="86.82602" pt_clust_6="14000.00000"></scales>
<clustering>
<clus scale="   86.826">  2  5  1 -1</clus>
<clus scale="   41.474">  2  4  1 -1</clus>
<clus scale="  142.103">  2  3  1 -1</clus>
<clus scale="   86.826">  2  3  1 -1</clus>
</clustering>
</event>
<event>
 6    0  0.6338511E+002  0.1918528E+03  0.7546771E-02  0.1156801E+00
          2   -1    0    0  503    0 -0.00000000000E+00  0.00000000000E+00  0.19644370662E+04  0.19644370662E+04  0.00000000000E+00 0.  1.
         21   -1    0    0  505  502  0.00000000000E+00 -0.00000000000E+00 -0.14033895329E+03  0.14033895329E+03  0.00000000000E+00 0. -1.
         21    1    1    2  503  504 -0.89562164141E+02  0.13548310099E+03  0.60006498524E+03  0.62165507993E+03  0.00000000000E+00 0. -1.
         21    1    1    2  504  502 -0.30733868623E+02  0.88075929875E+02 -0.94265026900E+02  0.13261913663E+03  0.00000000000E+00 0. -1.
         21    1    1    2  505  501  0.33232669453E+02 -0.22839752536E+02  0.53904052605E+02  0.67317987954E+02  0.00000000000E+00 0. -1.
          2    1    1    2  501    0  0.87063363312E+02 -0.20071927833E+03  0.12643941020E+04  0.12831838150E+04  0.00000000000E+00 0.  1.
<scales pt_clust_3="191.85280" pt_clust_4="68.73323" pt_clust_5="40.32449" pt_clust_6="14000.00000"></scales>
<clustering>
<clus scale="   40.324">  2  5  1 -1</clus>
<clus scale="   68.733">  2  4  1 -1</clus>
<clus scale="  191.853">  2  3  1 -1</clus>
<clus scale="   40.324">  2  3  1 -1</clus>
</clustering>
</event>
<event>
 6    0  0.6338511E+002  0.1224255E+03  0.7546771E-02  0.1239148E+00
          3   -1    0    0  505    0 -0.00000000000E+00  0.00000000000E+00  0.19062946260E+04  0.19062946260E+04  0.00000000000E+00 0.  1.
         21   -1    0    0  503  502  0.00000000000E+00 -0.00000000000E+00 -0.22011265658E+03  0.22011265658E+03  0.00000000000E+00 0. -1.
         21    1    1    2  503  501  0.52522693247E+02 -0.29157448641E+02 -0.41240995194E+02  0.72867069392E+02  0.00000000000E+00 0. -1.
         21    1    1    2  504  502  0.69494330198E+02  0.55463438818E+02 -0.14482956476E+03  0.16994486695E+03  0.00000000000E+00 0. -1.
         21    1    1    2  505  504 -0.11603206576E+02 -0.75498174240E+02  0.47261242806E+03  0.47874535598E+03  0.00000000000E+00 0.  1.
          3    1    1    2  501    0 -0.11041381687E+03  0.49192184062E+02  0.13996401013E+04  0.14048499903E+04  0.00000000000E+00 0.  1.
<scales pt_clust_3="60.07321" pt_clust_4="122.42554" pt_clust_5="76.78385" pt_clust_6="14000.00000"></scales>
<clustering>
<clus scale="   60.073">  2  3  1 -1</clus>
<clus scale="   76.784">  1  5  2 -1</clus>
<clus scale="  122.426">  2  4  1 -1</clus>
<clus scale="   60.073">  2  3  1 -1</clus>
</clustering>
</event>
<event>
 6    0  0.6338511E+002  0.7344630E+02  0.7546771E-02  0.1348751E+00
          2   -1    0    0  504    0 -0.00000000000E+00  0.00000000000E+00  0.44286032196E+03  0.44286032196E+03  0.00000000000E+00 0.  1.
         21   -1    0    0  505  502  0.00000000000E+00 -0.00000000000E+00 -0.39770283061E+03  0.39770283061E+03  0.00000000000E+00 0. -1.
         21    1    1    2  503  502  0.55687573785E+02 -0.84688379044E+02 -0.19986885202E+03  0.22409994517E+03  0.00000000000E+00 0. -1.
         21    1    1    2  504  503  0.37960611179E+02  0.65177025128E+02 -0.10942402508E+03  0.13290097769E+03  0.00000000000E+00 0. -1.
         21    1    1    2  505  501 -0.45421450119E+02  0.12584211285E+02 -0.54309113970E+02  0.71909320430E+02  0.00000000000E+00 0. -1.
          2    1    1    2  501    0 -0.48226734846E+02  0.69271426309E+01  0.40875948241E+03  0.41165290928E+03  0.00000000000E+00 0.  1.
<scales pt_clust_3="73.44630" pt_clust_4="14000.00000" pt_clust_5="47.13248" pt_clust_6="48.92383"></scales>
<clustering>
<clus scale="   47.132">  2  5  1 -1</clus>
<clus scale="   48.924">  1  6  2 -1</clus>
<clus scale="   73.446">  2  3  1 -1</clus>
<clus scale="   47.132">  2  3  1 -1</clus>
</clustering>
</event>
<event>
 6    0  0.6338511E+002  0.1127040E+03  0.7546771E-02  0.1255643E+00
         21   -1    0    0  504  502  0.00000000000E+00  0.00000000000E+00  0.20190846627E+02  0.20190846627E+02  0.00000000000E+00 0.  1.
          2   -1    0    0  505    0 -0.00000000000E+00 -0.00000000000E+00 -0.37323040495E+04  0.37323040495E+04  0.00000000000E+00 0. -1.
         21    1    1    2  503  502 -0.58824984497E+02 -0.73965434296E+02 -0.30886313154E+03  0.32299798497E+03  0.00000000000E+00 0.  1.
         21    1    1    2  504  501 -0.71521928599E+02  0.64601374076E+02 -0.20565318782E+03  0.22711661644E+03  0.00000000000E+00 0.  1.
         21    1    1    2  505  503  0.11049017628E+03  0.46016936725E+02 -0.17023392543E+04  0.17065417001E+04  0.00000000000E+00 0. -1.
          2    1    1    2  501    0  0.19856736819E+02 -0.36652876505E+02 -0.14952576293E+04  0.14958385946E+04  0.00000000000E+00 0. -1.
<scales pt_clust_3="112.70404" pt_clust_4="92.58551" pt_clust_5="14000.00000" pt_clust_6="41.68601"></scales>
<clustering>
<clus scale="   41.686">  2  6  1 -1</clus>
<clus scale="   92.586">  1  4  2 -1</clus>
<clus scale="  112.704">  1  3  2 -1</clus>
<clus scale="   92.586">  1  3  2 -1</clus>
</clustering>
</event>
<event>
 6    0  0.6338511E+002  0.1408919E+03  0.7546771E-02  0.1212134E+00
          1   -1    0    0  502    0 -0.00000000000E+00  0.00000000000E+00  0.21074810392E+03  0.21074810392E+03  0.00000000000E+00 0. -1.
         21   -1    0    0  504  502  0.00000000000E+00 -0.00000000000E+00 -0.95885147634E+03  0.95885147634E+03  0.00000000000E+00 0.  1.
         21    1    1    2  503  505 -0.60178213146E+01 -0.62973879305E+02 -0.49741802936E+03  0.50142459012E+03  0.00000000000E+00 0.  1.
         21    1    1    2  504  503  0.39836659472E+02 -0.66811273459E+02 -0.40545692963E+03  0.41285109602E+03  0.00000000000E+00 0.  1.
         21    1    1    2  505  501 -0.53241848631E+02  0.87636005281E+02  0.96877023233E+01  0.10299813320E+03  0.00000000000E+00 0. -1.
          1    1    1    2  501    0  0.19423010474E+02  0.42149147484E+02  0.14508388425E+03  0.15232576092E+03  0.00000000000E+00 0. -1.
<scales pt_clust_3="47.04616" pt_clust_4="47.04616" pt_clust_5="130.84947" pt_clust_6="46.40909"></scales>
<clustering>
<clus scale="   46.409">  1  6  2 -1</clus>
<clus scale="   47.046">  3  4 -1 -1</clus>
<clus scale="  130.849">  1  5  2 -1</clus>
<clus scale="  140.892">  2  3  1 -1</clus>
</clustering>
</event>
<event>
 6    0  0.6338511E+002  0.1573737E+03  0.7546771E-02  0.1191694E+00
         21   -1    0    0  503  502  0.00000000000E+00  0.00000000000E+00  0.39243604895E+03  0.39243604895E+03  0.00000000000E+00 0. -1.
         -2   -1    0    0    0  501 -0.00000000000E+00 -0.00000000000E+00 -0.96363154001E+03  0.96363154001E+03  0.00000000000E+00 0.  1.
         21    1    1    2  503  501  0.12151653352E+03  0.10564385559E+03  0.33727409428E+03  0.37373882166E+03  0.00000000000E+00 0. -1.
         21    1    1    2  504  505 -0.15011197350E+03 -0.17882906720E+01 -0.36170248381E+03  0.39161906154E+03  0.00000000000E+00 0.  1.
         21    1    1    2  505  502  0.22249562102E+02 -0.35769950448E+02 -0.25380762405E+01  0.42201590015E+02  0.00000000000E+00 0. -1.
         -2    1    1    2    0  504  0.63458778775E+01 -0.68085614471E+02 -0.54422902529E+03  0.54850811574E+03  0.00000000000E+00 0.  1.
<scales pt_clust_3="157.37372" pt_clust_4="14000.00000" pt_clust_5="42.12520" pt_clust_6="68.59716"></scales>
<clustering>
<clus scale="   42.125">  1  5  2 -1</clus>
<clus scale="   68.597">  2  6  1 -1</clus>
<clus scale="  157.374">  1  3  2 -1</clus>
<clus scale="   42.125">  1  3  2 -1</clus>
</clustering>
</event>
<event>
 6    0  0.6338511E+002  0.1366715E+03  0.7546771E-02  0.1217879E+00
         21   -1    0    0  505  502  0.00000000000E+00  0.00000000000E+00  0.14251964497E+03  0.14251964497E+03  0.00000000000E+00 0.  1.
          3   -1    0    0  503    0 -0.00000000000E+00 -0.00000000000E+00 -0.36248303554E+03  0.36248303554E+03  0.00000000000E+00 0.  1.
         21    1    1    2  503  504  0.35674408122E+02 -0.50215561971E+02  0.28866289093E+02  0.68025941412E+02  0.00000000000E+00 0.  1.
         21    1    1    2  504  502  0.62664771764E+02 -0.21838451735E+02  0.28375249824E+01  0.66421706862E+02  0.00000000000E+00 0.  1.
         21    1    1    2  505  501 -0.57467842574E+02  0.15889571730E+03 -0.11839694098E+03  0.20632071525E+03  0.00000000000E+00 0.  1.
          3    1    1    2  501    0 -0.40871337312E+02 -0.86841703597E+02 -0.13327026367E+03  0.16423431699E+03  0.00000000000E+00 0.  1.
<scales pt_clust_3="45.27829" pt_clust_4="45.27829" pt_clust_5="128.33717" pt_clust_6="95.97889"></scales>
<clustering>
<clus scale="   45.278">  3  4 -1 -1</clus>
<clus scale="   95.979">  2  6  1 -1</clus>
<clus scale="  128.337">  2  5  1 -1</clus>
<clus scale="  136.671">  1  3  2 -1</clus>
</clustering>
</event>
<event>
 6    0  0.6338511E+002  0.1697256E+03  0.7546771E-02  0.1178134E+00
          2   -1    0    0  502    0 -0.00000000000E+00  0.00000000000E+00  0.82541900575E+03  0.82541900575E+03  0.00000000000E+00 0. -1.
         21   -1    0    0  503  502  0.00000000000E+00 -0.00000000000E+00 -0.81430317780E+02  0.81430317780E+02  0.00000000000E+00 0.  1.
         21    1    1    2  503  505  0.39759154059E+01 -0.69969462400E+02  0.33974108281E+02  0.77883076502E+02  0.00000000000E+00 0. -1.
         21    1    1    2  504  501  0.31965414351E+02  0.60960621345E+02  0.23439664853E+03  0.24429444102E+03  0.00000000000E+00 0.  1.
         21    1    1    2  505  504 -0.37945420747E+02 -0.86049170124E+02 -0.55424339307E+01  0.94207394660E+02  0.00000000000E+00 0.  1.
          2    1    1    2  501    0  0.20040909899E+01  0.95058011179E+02  0.48116036509E+03  0.49046441135E+03  0.00000000000E+00 0. -1.
<scales pt_clust_3="49.67293" pt_clust_4="41.27299" pt_clust_5="49.67293" pt_clust_6="166.87939"></scales>
<clustering>
<clus scale="   41.273">  4  6 -1 -1</clus>
<clus scale="   49.673">  3  5 -1 -1</clus>
<clus scale="  166.879">  1  4  2 -1</clus>
<clus scale="  169.726">  2  3  1 -1</clus>
</clustering>
</event>
<event>
 6    0  0.6338511E+002  0.1170848E+03  0.7546771E-02  0.1247985E+00
          1   -1    0    0  505    0 -0.00000000000E+00  0.00000000000E+00  0.36516958698E+03  0.36516958698E+03  0.00000000000E+00 0. -1.
         21   -1    0    0  504  502  0.00000000000E+00 -0.00000000000E+00 -0.29252307418E+03  0.29252307418E+03  0.00000000000E+00 0. -1.
         21    1    1    2  503  502 -0.23361215460E+00  0.44005745483E+02 -0.13862377084E+03  0.14544108790E+03  0.00000000000E+00 0. -1.
         21    1    1    2  504  501 -0.13426218162E+03 -0.58507926762E+02 -0.31248042374E+02  0.14975296678E+03  0.00000000000E+00 0. -1.
         21    1    1    2  505  503  0.10095200220E+03 -0.18884307249E+02 -0.12196111200E+02  0.10342470177E+03  0.00000000000E+00 0. -1.
          1    1    1    2  501    0  0.33543791577E+02  0.33386488528E+02  0.25471443722E+03  0.25907390470E+03  0.00000000000E+00 0. -1.
<scales pt_clust_3="44.00637" pt_clust_4="117.08483" pt_clust_5="14000.00000" pt_clust_6="47.77639"></scales>
<clustering>
<clus scale="   44.006">  2  3  1 -1</clus>
<clus scale="   47.776">  1  6  2 -1</clus>
<clus scale="  117.085">  1  4  2 -1</clus>
<clus scale="   44.006">  2  3  1 -1</clus>
</clustering>
</event>
<event>
 6    0  0.6338511E+002  0.1144428E+03  0.7546771E-02  0.1252557E+00
          2   -1    0    0  505    0 -0.00000000000E+00  0.00000000000E+00  0.71101625497E+03  0.71101625497E+03  0.00000000000E+00 0.  1.
         21   -1    0    0  503  502  0.00000000000E+00 -0.00000000000E+00 -0.26979522541E+03  0.26979522541E+03  0.00000000000E+00 0. -1.
         21    1    1    2  503  504  0.43244806545E+02 -0.29361690597E+02 -0.88486611299E+02  0.10277209031E+03  0.00000000000E+00 0. -1.
         21    1    1    2  504  501 -0.13790544584E+03 -0.12103009670E+02 -0.24980741630E+02  0.14067136272E+03  0.00000000000E+00 0.  1.
         21    1    1    2  505  502  0.58363483787E+02  0.10404666149E+03 -0.49284681014E+02  0.12907743331E+03  0.00000000000E+00 0. -1.
          2    1    1    2  501    0  0.36297155510E+02 -0.62581961221E+02  0.60397306350E+03  0.60829059405E+03  0.00000000000E+00 0.  1.
<scales pt_clust_3="52.27066" pt_clust_4="114.44279" pt_clust_5="14000.00000" pt_clust_6="72.93057"></scales>
<clustering>
<clus scale="   52.271">  2  3  1 -1</clus>
<clus scale="   72.931">  1  6  2 -1</clus>
<clus scale="  114.443">  1  4  2 -1</clus>
<clus scale="   52.271">  2  3  1 -1</clus>
</clustering>
</event>
<event>
 6    0  0.6338511E+002  0.1235109E+03  0.7546771E-02  0.1237415E+00
         21   -1    0    0  504  502  0.00000000000E+00  0.00000000000E+00  0.14045184070E+03  0.14045184070E+03  0.00000000000E+00 0. -1.
          2   -1    0    0  505    0 -0.00000000000E+00 -0.00000000000E+00 -0.15882211849E+04  0.15882211849E+04  0.00000000000E+00 0.  1.
         21    1    1    2  503  502 -0.23268035599E+02 -0.11008061924E+03 -0.45532533170E+02  0.12137691622E+03  0.00000000000E+00 0. -1.
         21    1    1    2  504  501 -0.39027154177E+02 -0.60401880497E+01  0.88091903811E+02  0.96539039522E+02  0.00000000000E+00 0. -1.
         21    1    1    2  505  503  0.10927336568E+03 -0.13020135935E+02 -0.68774397671E+03  0.69649262013E+03  0.00000000000E+00 0. -1.
          2    1    1    2  501    0 -0.46978175906E+02  0.12914094323E+03 -0.80258473815E+03  0.81426444976E+03  0.00000000000E+00 0.  1.
<scales pt_clust_3="14000.00000" pt_clust_4="39.49180" pt_clust_5="106.59400" pt_clust_6="123.51090"></scales>
<clustering>
<clus scale="   39.492">  1  4  2 -1</clus>
<clus scale="  106.594">  2  5  1 -1</clus>
<clus scale="  123.511">  2  6  1 -1</clus>
<clus scale="   39.492">  1  3  2 -1</clus>
</clustering>
</event>
<event>
 6    0  0.6338511E+002  0.8825875E+02  0.7546771E-02  0.1307124E+00
          2   -1    0    0  503    0 -0.00000000000E+00  0.00000000000E+00  0.48375216514E+03  0.48375216514E+03  0.00000000000E+00 0.  1.
         21   -1    0    0  505  502  0.00000000000E+00 -0.00000000000E+00 -0.35975409530E+03  0.35975409530E+03  0.00000000000E+00 0.  1.
         21    1    1    2  503  504  0.13114324807E+03 -0.90259553828E+01 -0.12619785495E+03  0.18222491043E+03  0.00000000000E+00 0.  1.
         21    1    1    2  504  502 -0.26084081620E+02 -0.23081961624E+02 -0.16158656099E+03  0.16529783108E+03  0.00000000000E+00 0.  1.
         21    1    1    2  505  501 -0.29355667925E+02 -0.11607004642E+02 -0.31243947117E+02  0.44414660052E+02  0.00000000000E+00 0.  1.
          2    1    1    2  501    0 -0.75703498529E+02  0.43714921649E+02  0.44302643290E+03  0.45156885888E+03  0.00000000000E+00 0.  1.
<scales pt_clust_3="14000.00000" pt_clust_4="50.19525" pt_clust_5="31.56704" pt_clust_6="88.25875"></scales>
<clustering>
<clus scale="   31.567">  2  5  1 -1</clus>
<clus scale="   50.195">  2  4  1 -1</clus>
<clus scale="   88.259">  1  6  2 -1</clus>
<clus scale="   31.567">  2  3  1 -1</clus>
</clustering>
</event>
<event>
 6    0  0.6338511E+002  0.7643311E+02  0.7546771E-02  0.1339490E+00
          1   -1    0    0  503    0 -0.00000000000E+00  0.00000000000E+00  0.18301001189E+04  0.18301001189E+04  0.00000000000E+00 0.  1.
         21   -1    0    0  505  502  0.00000000000E+00 -0.00000000000E+00 -0.89496027691E+02  0.89496027691E+02  0.00000000000E+00 0.  1.
         21    1    1    2  503  502  0.70059261345E+01 -0.10546236954E+03  0.20603990869E+03  0.23156821536E+03  0.00000000000E+00 0.  1.
         21    1    1    2  504  501  0.67222960383E+02  0.13696130400E+02  0.45054437607E+03  0.45573758371E+03  0.00000000000E+00 0.  1.
         21    1    1    2  505  504 -0.62732100198E+02  0.44609371902E+02 -0.53495827389E+02  0.93739618117E+02  0.00000000000E+00 0.  1.
          1    1    1    2  501    0 -0.11496786319E+02  0.47156867241E+02  0.11375156338E+04  0.11385507294E+04  0.00000000000E+00 0.  1.
<scales pt_clust_3="76.43311" pt_clust_4="74.50005" pt_clust_5="14000.00000" pt_clust_6="48.53809"></scales>
<clustering>
<clus scale="   48.538">  1  6  2 -1</clus>
<clus scale="   74.500">  1  4  2 -1</clus>
<clus scale="   76.433">  1  3  2 -1</clus>
<clus scale="   76.433">  2  3  1 -1</clus>
</clustering>
</event>
<event>
 6    0  0.6338511E+002  0.1607385E+03  0.7546771E-02  0.1187865E+00
         21   -1    0    0  503  502  0.00000000000E+00  0.00000000000E+00  0.18312762325E+03  0.18312762325E+03  0.00000000000E+00 0. -1.
         -1   -1    0    0    0  501 -0.00000000000E+00 -0.00000000000E+00 -0.11118986152E+04  0.11118986152E+04  0.00000000000E+00 0. -1.
         21    1    1    2  503  504 -0.11898297637E+03 -0.10930813203E+03  0.13339877558E+03  0.20952434159E+03  0.00000000000E+00 0. -1.
         21    1    1    2  504  501  0.11020705959E+03  0.89672414738E+02 -0.85846539574E+03  0.87014342130E+03  0.00000000000E+00 0. -1.
         21    1    1    2  505  502  0.32267233744E+02 -0.11223538933E+01 -0.58594663801E+02  0.66901185921E+02  0.00000000000E+00 0. -1.
         -1    1    1    2    0  505 -0.23491316969E+02  0.20758071189E+02 -0.14510970797E+03  0.14845728962E+03  0.00000000000E+00 0. -1.
<scales pt_clust_3="14000.00000" pt_clust_4="160.73855" pt_clust_5="30.74076" pt_clust_6="31.34868"></scales>
<clustering>
<clus scale="   31.349">  2  6  1 -1</clus>
<clus scale="   30.741">  2  5  1 -1</clus>
<clus scale="  160.739">  2  4  1 -1</clus>
<clus scale="  160.739">  1  3  2 -1</clus>
</clustering>
</event>
<event>
 6    0  0.6338511E+002  0.1783070E+03  0.7546771E-02  0.1169452E+00
         21   -1    0    0  504  502  0.00000000000E+00  0.00000000000E+00  0.25006311930E+03  0.25006311930E+03  0.00000000000E+00 0. -1.
         -2   -1    0    0    0  501 -0.00000000000E+00 -0.00000000000E+00 -0.36854483541E+03  0.36854483541E+03  0.00000000000E+00 0. -1.
         21    1    1    2  503  505 -0.95293565665E+02  0.47176759572E+02  0.10418974996E+03  0.14886911801E+03  0.00000000000E+00 0. -1.
         21    1    1    2  504  503 -0.46112402627E+02  0.51601767112E+02  0.44133593864E+02  0.82078439023E+02  0.00000000000E+00 0. -1.
         21    1    1    2  505  501  0.17813015027E+03 -0.53647634951E+02 -0.10044372001E+03  0.21141750178E+03  0.00000000000E+00 0. -1.
         -2    1    1    2    0  502 -0.36724181978E+02 -0.45130891733E+02 -0.16636133992E+03  0.17624289589E+03  0.00000000000E+00 0. -1.
<scales pt_clust_3="32.10883" pt_clust_4="32.10883" pt_clust_5="173.80815" pt_clust_6="58.18473"></scales>
<clustering>
<clus scale="   32.109">  3  4 -1 -1</clus>
<clus scale="   58.185">  2  6  1 -1</clus>
<clus scale="  173.808">  2  5  1 -1</clus>
<clus scale="  178.307">  1  3  2 -1</clus>
</clustering>
</event>
<event>
 6    0  0.6338511E+002  0.1051239E+03  0.7546771E-02  0.1269876E+00
         21   -1    0    0  505  502  0.00000000000E+00  0.00000000000E+00  0.16143611735E+03  0.16143611735E+03  0.00000000000E+00 0. -1.
         -1   -1    0    0    0  501 -0.00000000000E+00 -0.00000000000E+00 -0.90872102566E+03  0.90872102566E+03  0.00000000000E+00 0. -1.
         21    1    1    2  503  501 -0.74391071976E+02 -0.27508671531E+02 -0.40287301587E+03  0.41060616839E+03  0.00000000000E+00 0. -1.
         21    1    1    2  504  502  0.69675289756E+02 -0.21921015666E+02 -0.12642543315E+03  0.14600879110E+03  0.00000000000E+00 0. -1.
         21    1    1    2  505  503  0.12416580176E+02  0.10780712580E+03  0.12500220145E+03  0.16553579131E+03  0.00000000000E+00 0. -1.
         -1    1    1    2    0  504 -0.77007979565E+01 -0.58377438602E+02 -0.34298866074E+03  0.34800639222E+03  0.00000000000E+00 0. -1.
<scales pt_clust_3="14000.00000" pt_clust_4="76.79482" pt_clust_5="105.12388" pt_clust_6="58.88317"></scales>
<clustering>
<clus scale="   58.883">  2  6  1 -1</clus>
<clus scale="   76.795">  2  4  1 -1</clus>
<clus scale="  105.124">  1  5  2 -1</clus>
<clus scale="  105.124">  1  3  2 -1</clus>
</clustering>
</event>
<event>
 6    0  0.6338511E+002  0.9232057E+02  0.7546771E-02  0.1297327E+00
         21   -1    0    0  503  502  0.00000000000E+00  0.00000000000E+00  0.19367356470E+03  0.19367356470E+03  0.00000000000E+00 0. -1.
         -3   -1    0    0    0  501 -0.00000000000E+00 -0.00000000000E+00 -0.27862320619E+03  0.27862320619E+03  0.00000000000E+00 0.  1.
         21    1    1    2  503  505  0.18556668373E+02  0.23891164542E+02  0.30483203639E+02  0.42946052070E+02  0.00000000000E+00 0. -1.
         21    1    1    2  504  502 -0.49766709007E+02  0.32173859195E+02 -0.36557219481E+02  0.69629827208E+02  0.00000000000E+00 0. -1.
         21    1    1    2  505  501  0.59908469448E+02 -0.98850557760E+02  0.11264131670E+03  0.16139555046E+03  0.00000000000E+00 0. -1.
         -3    1    1    2    0  504 -0.28698428814E+02  0.42785534023E+02 -0.19151694234E+03  0.19832534115E+03  0.00000000000E+00 0.  1.
<scales pt_clust_3="30.25124" pt_clust_4="14000.00000" pt_clust_5="92.32057" pt_clust_6="51.72883"></scales>
<clustering>
<clus scale="   30.251">  1  3  2 -1</clus>
<clus scale="   51.729">  2  6  1 -1</clus>
<clus scale="   92.321">  1  5  2 -1</clus>
<clus scale="   30.251">  1  3  2 -1</clus>
</clustering>
</event>
<event>
 6    0  0.6338511E+002  0.1253819E+03  0.7546771E-02  0.1234474E+00
          2   -1    0    0  504    0 -0.00000000000E+00  0.00000000000E+00  0.13675950966E+04  0.13675950966E+04  0.00000000000E+00 0.  1.
         21   -1    0    0  503  502  0.00000000000E+00 -0.00000000000E+00 -0.31074903708E+02  0.31074903708E+02  0.00000000000E+00 0. -1.
         21    1    1    2  503  505  0.63607197317E+02 -0.88963518175E+02  0.13032486565E+03  0.17013216546E+03  0.00000000000E+00 0. -1.
         21    1    1    2  504  502  0.31596581269E+02  0.28699978897E+02  0.51414839827E+02  0.66824535097E+02  0.00000000000E+00 0. -1.
         21    1    1    2  505  501 -0.50101072494E+02  0.62353748242E+02  0.64598856282E+03  0.65092190828E+03  0.00000000000E+00 0. -1.
          2    1    1    2  501    0 -0.45102706092E+02 -0.20902089646E+01  0.50879192463E+03  0.51079139151E+03  0.00000000000E+00 0.  1.
<scales pt_clust_3="111.15868" pt_clust_4="42.68528" pt_clust_5="42.79530" pt_clust_6="42.79530"></scales>
<clustering>
<clus scale="   42.685">  2  4  1 -1</clus>
<clus scale="   42.795">  5  6 -1 -1</clus>
<clus scale="  111.159">  2  3  1 -1</clus>
<clus scale="   42.685">  2  3  1 -1</clus>
</clustering>
</event>
<event>
 6    0  0.6338511E+002  0.6639722E+02  0.7546771E-02  0.1372791E+00
          3   -1    0    0  503    0 -0.00000000000E+00  0.00000000000E+00  0.38623019559E+03  0.38623019559E+03  0.00000000000E+00 0.  1.
         21   -1    0    0  504  502  0.00000000000E+00 -0.00000000000E+00 -0.71186253875E+03  0.71186253875E+03  0.00000000000E+00 0. -1.
         21    1    1    2  503  502 -0.75515544158E+02  0.74100811680E+01 -0.62166283171E+03  0.62627644299E+03  0.00000000000E+00 0. -1.
         21    1    1    2  504  505 -0.51444793157E+02  0.12602014882E+02 -0.26832960086E+02  0.59374954897E+02  0.00000000000E+00 0. -1.
         21    1    1    2  505  501  0.61579518792E+02 -0.87146655240E+01 -0.18344560646E+02  0.64842157854E+02  0.00000000000E+00 0.  1.
          3    1    1    2  501    0  0.65380818522E+02 -0.11297430526E+02  0.34120800928E+03  0.34759917860E+03  0.00000000000E+00 0.  1.
<scales pt_clust_3="66.39722" pt_clust_4="52.96581" pt_clust_5="58.91616" pt_clust_6="14000.00000"></scales>
<clustering>
<clus scale="   52.966">  2  4  1 -1</clus>
<clus scale="   58.916">  2  5  1 -1</clus>
<clus scale="   66.397">  2  3  1 -1</clus>
<clus scale="   52.966">  2  3  1 -1</clus>
</clustering>
</event>
<event>
 6    0  0.6338511E+002  0.8610016E+02  0.7546771E-02  0.1312580E+00
         21   -1    0    0  504  502  0.00000000000E+00  0.00000000000E+00  0.91355680101E+02  0.91355680101E+02  0.00000000000E+00 0.  1.
          3   -1    0    0  505    0 -0.00000000000E+00 -0.00000000000E+00 -0.22525977020E+04  0.22525977020E+04  0.00000000000E+00 0.  1.
         21    1    1    2  503  501  0.10189521712E+03 -0.28707962119E+01 -0.44906092768E+03  0.46048517186E+03  0.00000000000E+00 0.  1.
         21    1    1    2  504  503 -0.34006288239E+02  0.41434985854E+02  0.59520258369E+02  0.80099605797E+02  0.00000000000E+00 0.  1.
         21    1    1    2  505  502 -0.38636929746E+02  0.10971063359E+02 -0.10885616069E+02  0.41613377760E+02  0.00000000000E+00 0.  1.
          3    1    1    2  501    0 -0.29251999131E+02 -0.49535253001E+02 -0.17608157365E+04  0.17617552267E+04  0.00000000000E+00 0.  1.
<scales pt_clust_3="14000.00000" pt_clust_4="86.10016" pt_clust_5="40.16437" pt_clust_6="57.59111"></scales>
<clustering>
<clus scale="   40.164">  1  5  2 -1</clus>
<clus scale="   57.591">  2  6  1 -1</clus>
<clus scale="   86.100">  1  4  2 -1</clus>
<clus scale="   40.164">  1  3  2 -1</clus>
</clustering>
</event>
<event>
 6    0  0.6338511E+002  0.9825851E+02  0.7546771E-02  0.1284001E+00
         21   -1    0    0  504  502  0.00000000000E+00  0.00000000000E+00  0.13716919994E+03  0.13716919994E+03  0.00000000000E+00 0. -1.
          1   -1    0    0  505    0 -0.00000000000E+00 -0.00000000000E+00 -0.24524720128E+04  0.24524720128E+04  0.00000000000E+00 0. -1.
         21    1    1    2  503  502 -0.12953900466E+03  0.21967712251E+02  0.20023462803E+02  0.13290550467E+03  0.00000000000E+00 0. -1.
         21    1    1    2  504  501  0.29939622280E+02 -0.26351949625E+02  0.50734046769E+02  0.64534872224E+02  0.00000000000E+00 0. -1.
         21    1    1    2  505  503  0.65918689020E+02  0.36188912618E+02 -0.50481400254E+03  0.51038425536E+03  0.00000000000E+00 0. -1.
          1    1    1    2  501    0  0.33680693360E+02 -0.31804675244E+02 -0.18812463199E+04  0.18818165805E+04  0.00000000000E+00 0. -1.
<scales pt_clust_3="14000.00000" pt_clust_4="39.88491" pt_clust_5="98.25851" pt_clust_6="46.46704"></scales>
<clustering>
<clus scale="   39.885">  1  4  2 -1</clus>
<clus scale="   46.467">  2  6  1 -1</clus>
<clus scale="   98.259">  2  5  1 -1</clus>
<clus scale="   39.885">  1  3  2 -1</clus>
</clustering>
</event>
<event>
 6    0  0.6338511E+002  0.1800220E+03  0.7546771E-02  0.1167782E+00
         -1   -1    0    0    0  501 -0.00000000000E+00  0.00000000000E+00  0.32295611916E+03  0.32295611916E+03  0.00000000000E+00 0. -1.
         21   -1    0    0  503  502  0.00000000000E+00 -0.00000000000E+00 -0.59699650221E+03  0.59699650221E+03  0.00000000000E+00 0. -1.
         21    1    1    2  503  505 -0.65041337843E+02  0.18885588408E+03 -0.19017932641E+03  0.27579901518E+03  0.00000000000E+00 0. -1.
         21    1    1    2  504  502  0.17330772130E+02 -0.17097010802E+03 -0.32377552641E+03  0.36655385007E+03  0.00000000000E+00 0. -1.
         21    1    1    2  505  501  0.67295348239E+01 -0.53314097435E+02  0.31562937634E+02  0.62320932730E+02  0.00000000000E+00 0. -1.
         -1    1    1    2    0  504  0.40981030890E+02  0.35428321376E+02  0.20835153214E+03  0.21527882338E+03  0.00000000000E+00 0. -1.
<scales pt_clust_3="180.02197" pt_clust_4="14000.00000" pt_clust_5="53.73713" pt_clust_6="46.47020"></scales>
<clustering>
<clus scale="   53.737">  1  5  2 -1</clus>
<clus scale="   46.470">  1  6  2 -1</clus>
<clus scale="  180.022">  1  3  2 -1</clus>
<clus scale="  180.022">  2  3  1 -1</clus>
</clustering>
</event>
<event>
 6    0  0.6338511E+002  0.1141402E+03  0.7546771E-02  0.1253089E+00
         21   -1    0    0  503  502  0.00000000000E+00  0.00000000000E+00  0.10549417197E+04  0.10549417197E+04  0.00000000000E+00 0. -1.
          2   -1    0    0  505    0 -0.00000000000E+00 -0.00000000000E+00 -0.14259340084E+03  0.14259340084E+03  0.00000000000E+00 0. -1.
         21    1    1    2  503  501  0.11580544552E+03 -0.47124814358E+02  0.58253383750E+03  0.59579973244E+03  0.00000000000E+00 0. -1.
         21    1    1    2  504  502 -0.69750970255E+02  0.85194750697E+02  0.42833239680E+03  0.44225782701E+03  0.00000000000E+00 0. -1.
         21    1    1    2  505  504 -0.25412665978E+02  0.27897982771E+02  0.16521847662E+01  0.37773413260E+02  0.00000000000E+00 0. -1.
          2    1    1    2  501    0 -0.20641809292E+02 -0.65967919110E+02 -0.10017010016E+03  0.12170414787E+03  0.00000000000E+00 0. -1.
<scales pt_clust_3="114.14020" pt_clust_4="14000.00000" pt_clust_5="37.73726" pt_clust_6="59.69642"></scales>
<clustering>
<clus scale="   37.737">  2  5  1 -1</clus>
<clus scale="   59.696">  2  6  1 -1</clus>
<clus scale="  114.140">  1  3  2 -1</clus>
<clus scale="  114.140">  1  3  2 -1</clus>
</clustering>
</event>
<event>
 6    0  0.6338511E+002  0.7773718E+02  0.7546771E-02  0.1335598E+00
         21   -1    0    0  503  502  0.00000000000E+00  0.00000000000E+00  0.14746720254E+03  0.14746720254E+03  0.00000000000E+00 0. -1.
          1   -1    0    0  504    0 -0.00000000000E+00 -0.00000000000E+00 -0.47457830166E+03  0.47457830166E+03  0.00000000000E+00 0. -1.
         21    1    1    2  503  501  0.51522236512E+02 -0.59738802869E+02  0.62051030842E+02  0.10036730470E+03  0.00000000000E+00 0. -1.
         21    1    1    2  504  505 -0.62040164584E+02  0.64144205470E+02 -0.12613222411E+03  0.15450824921E+03  0.00000000000E+00 0. -1.
         21    1    1    2  505  502 -0.36789549527E+02 -0.17636506439E+02  0.41798308652E+02  0.58409039711E+02  0.00000000000E+00 0.  1.
          1    1    1    2  501    0  0.47307477600E+02  0.13231103838E+02 -0.30482821450E+03  0.30876091058E+03  0.00000000000E+00 0. -1.
<scales pt_clust_3="14000.00000" pt_clust_4="77.73718" pt_clust_5="40.79850" pt_clust_6="48.31164"></scales>
<clustering>
<clus scale="   40.798">  1  5  2 -1</clus>
<clus scale="   48.312">  2  6  1 -1</clus>
<clus scale="   77.737">  2  4  1 -1</clus>
<clus scale="   40.798">  1  3  2 -1</clus>
</clustering>
</event>
<event>
 6    0  0.6338511E+002  0.8679014E+02  0.7546771E-02  0.1310816E+00
         21   -1    0    0  504  502  0.00000000000E+00  0.00000000000E+00  0.10714340599E+04  0.10714340599E+04  0.00000000000E+00 0. -1.
          2   -1    0    0  505    0 -0.00000000000E+00 -0.00000000000E+00 -0.14374996671E+04  0.14374996671E+04  0.00000000000E+00 0.  1.
         21    1    1    2  503  501 -0.27923233059E+02  0.63704211927E+02 -0.71989310625E+03  0.72324547560E+03  0.00000000000E+00 0. -1.
         21    1    1    2  504  503  0.61640964241E+02 -0.79778143681E+02  0.60828740319E+02  0.11774674658E+03  0.00000000000E+00 0.  1.
         21    1    1    2  505  502 -0.61212250542E+02 -0.81881207051E+01  0.97900749979E+03  0.98095344925E+03  0.00000000000E+00 0. -1.
          2    1    1    2  501    0  0.27494519360E+02  0.24262052459E+02 -0.68600874098E+03  0.68698805556E+03  0.00000000000E+00 0.  1.
<scales pt_clust_3="86.79014" pt_clust_4="14000.00000" pt_clust_5="61.71800" pt_clust_6="36.66873"></scales>
<clustering>
<clus scale="   36.669">  2  6  1 -1</clus>
<clus scale="   61.718">  1  5  2 -1</clus>
<clus scale="   86.790">  2  3  1 -1</clus>
<clus scale="   61.718">  1  3  2 -1</clus>
</clustering>
</event>
<event>
 6    0  0.6338511E+002  0.1046069E+03  0.7546771E-02  0.1270896E+00
          2   -1    0    0  505    0 -0.00000000000E+00  0.00000000000E+00  0.29524585726E+03  0.29524585726E+03  0.00000000000E+00 0. -1.
         21   -1    0    0  501  502  0.00000000000E+00 -0.00000000000E+00 -0.70746488150E+03  0.70746488150E+03  0.00000000000E+00 0. -1.
         21    1    1    2  503  504  0.65363816918E+02  0.13012211005E+03  0.49853309157E+02  0.15391408162E+03  0.00000000000E+00 0. -1.
         21    1    1    2  504  502 -0.83773759017E+02 -0.60848420842E+02 -0.62713891129E+03  0.63562865501E+03  0.00000000000E+00 0. -1.
         21    1    1    2  505  503 -0.68180269341E+01 -0.51701209383E+02  0.75661297440E+01  0.52694846638E+02  0.00000000000E+00 0. -1.
          2    1    1    2  501    0  0.25227969033E+02 -0.17572479826E+02  0.15750044815E+03  0.16047315550E+03  0.00000000000E+00 0. -1.
<scales pt_clust_3="14000.00000" pt_clust_4="104.60694" pt_clust_5="55.60077" pt_clust_6="30.74480"></scales>
<clustering>
<clus scale="   30.745">  1  6  2 -1</clus>
<clus scale="   55.601">  1  5  2 -1</clus>
<clus scale="  104.607">  2  4  1 -1</clus>
<clus scale="  104.607">  2  3  1 -1</clus>
</clustering>
</event>
<event>
 6    0  0.6338511E+002  0.1503524E+03  0.7546771E-02  0.1200041E+00
         21   -1    0    0  505  502  0.00000000000E+00  0.00000000000E+00  0.22061122716E+02  0.22061122716E+02  0.00000000000E+00 0. -1.
          2   -1    0    0  503    0 -0.00000000000E+00 -0.00000000000E+00 -0.25457559886E+04  0.25457559886E+04  0.00000000000E+00 0. -1.
         21    1    1    2  503  504 -0.10597380627E+03 -0.71829423190E+02 -0.73776413802E+03  0.74878958126E+03  0.00000000000E+00 0. -1.
         21    1    1    2  504  502  0.11934618021E+03  0.13101324706E+03 -0.78747092325E+03  0.80716691991E+03  0.00000000000E+00 0. -1.
         21    1    1    2  505  501 -0.45166676451E+02  0.23510485600E+02 -0.14242928506E+03  0.15125763729E+03  0.00000000000E+00 0.  1.
          2    1    1    2  501    0  0.31794302509E+02 -0.82694309467E+02 -0.85603051954E+03  0.86060297285E+03  0.00000000000E+00 0. -1.
<scales pt_clust_3="14000.00000" pt_clust_4="150.35238" pt_clust_5="50.91927" pt_clust_6="83.76695"></scales>
<clustering>
<clus scale="   50.919">  1  5  2 -1</clus>
<clus scale="   83.767">  2  6  1 -1</clus>
<clus scale="  150.352">  1  4  2 -1</clus>
<clus scale="   50.919">  1  3  2 -1</clus>
</clustering>
</event>
<event>
 6    0  0.6338511E+002  0.2530693E+03  0.7546771E-02  0.1111380E+00
         21   -1    0    0  505  502  0.00000000000E+00  0.00000000000E+00  0.23945100965E+03  0.23945100965E+03  0.00000000000E+00 0.  1.
          1   -1    0    0  503    0 -0.00000000000E+00 -0.00000000000E+00 -0.74873472437E+03  0.74873472437E+03  0.00000000000E+00 0.  1.
         21    1    1    2  503  502  0.11388034470E+03 -0.15713444815E+03 -0.22315739272E+03  0.29573499899E+03  0.00000000000E+00 0. -1.
         21    1    1    2  504  501 -0.12217785245E+03  0.18749247003E+03  0.65120722246E+02  0.23306986594E+03  0.00000000000E+00 0.  1.
         21    1    1    2  505  504 -0.26935156080E+02  0.23045162501E+02  0.45404116490E+02  0.57603089692E+02  0.00000000000E+00 0. -1.
          1    1    1    2  501    0  0.35232663832E+02 -0.53403184374E+02 -0.39665116073E+03  0.40177777939E+03  0.00000000000E+00 0.  1.
<scales pt_clust_3="241.51565" pt_clust_4="30.08563" pt_clust_5="30.08563" pt_clust_6="63.97844"></scales>
<clustering>
<clus scale="   30.086">  4  5 -1 -1</clus>
<clus scale="   63.978">  2  6  1 -1</clus>
<clus scale="  241.516">  2  3  1 -1</clus>
<clus scale="  253.069">  1  3  2 -1</clus>
</clustering>
</event>
<event>
 6    0  0.6338511E+002  0.1030413E+03  0.7546771E-02  0.1274028E+00
         -2   -1    0    0    0  501 -0.00000000000E+00  0.00000000000E+00  0.65242916957E+03  0.65242916957E+03  0.00000000000E+00 0. -1.
         21   -1    0    0  505  502  0.00000000000E+00 -0.00000000000E+00 -0.20427028926E+03  0.20427028926E+03  0.00000000000E+00 0.  1.
         21    1    1    2  503  504 -0.31734719817E+02 -0.22552441668E+02 -0.23616637446E+02  0.45535158189E+02  0.00000000000E+00 0.  1.
         21    1    1    2  504  502 -0.17062674057E+02 -0.37556818934E+02 -0.74881305096E+02  0.85491867141E+02  0.00000000000E+00 0.  1.
         21    1    1    2  505  501 -0.33024609609E+02  0.12279943287E+03 -0.37432479637E+02  0.13255759534E+03  0.00000000000E+00 0.  1.
         -2    1    1    2    0  503  0.81822003483E+02 -0.62690172263E+02  0.58408930249E+03  0.59311483815E+03  0.00000000000E+00 0. -1.
<scales pt_clust_3="37.27172" pt_clust_4="86.40739" pt_clust_5="103.04127" pt_clust_6="14000.00000"></scales>
<clustering>
<clus scale="   37.272">  3  4 -1 -1</clus>
<clus scale="   86.407">  2  3  1 -1</clus>
<clus scale="  103.041">  2  5  1 -1</clus>
<clus scale="   86.407">  2  3  1 -1</clus>
</clustering>
</event>
<event>
 6    0  0.6338511E+002  0.1120216E+03  0.7546771E-02  0.1256871E+00
         21   -1    0    0  505  502  0.00000000000E+00  0.00000000000E+00  0.10844444395E+03  0.10844444395E+03  0.00000000000E+00 0.  1.
          2   -1    0    0  503    0 -0.00000000000E+00 -0.00000000000E+00 -0.52527812895E+03  0.52527812895E+03  0.00000000000E+00 0. -1.
         21    1    1    2  503  502  0.39230802153E+02 -0.40346147922E+02  0.48953400332E+02  0.74587551869E+02  0.00000000000E+00 0.  1.
         21    1    1    2  504  501  0.11555050926E+02  0.54697583860E+02 -0.16195697647E+03  0.17133419714E+03  0.00000000000E+00 0. -1.
         21    1    1    2  505  504 -0.41371716638E+02 -0.70636735877E+02 -0.33282863017E+01  0.81928291100E+02  0.00000000000E+00 0.  1.
          2    1    1    2  501    0 -0.94141364410E+01  0.56285299939E+02 -0.30050182256E+03  0.30587253279E+03  0.00000000000E+00 0. -1.
<scales pt_clust_3="56.27493" pt_clust_4="38.79491" pt_clust_5="104.94049" pt_clust_6="38.79491"></scales>
<clustering>
<clus scale="   38.795">  4  6 -1 -1</clus>
<clus scale="   56.275">  1  3  2 -1</clus>
<clus scale="  104.940">  1  5  2 -1</clus>
<clus scale="   56.275">  1  3  2 -1</clus>
</clustering>
</event>
<event>
 6    0  0.6338511E+002  0.1818733E+03  0.7546771E-02  0.1166002E+00
          2   -1    0    0  503    0 -0.00000000000E+00  0.00000000000E+00  0.17492836315E+04  0.17492836315E+04  0.00000000000E+00 0.  1.
         21   -1    0    0  504  502  0.00000000000E+00 -0.00000000000E+00 -0.20919858498E+03  0.20919858498E+03  0.00000000000E+00 0.  1.
         21    1    1    2  503  505 -0.14788090146E+03  0.75889037900E+02  0.15960240133E+03  0.23043618119E+03  0.00000000000E+00 0.  1.
         21    1    1    2  504  501  0.34482472787E+02  0.31245125877E+02  0.19623765549E+03  0.20167924100E+03  0.00000000000E+00 0.  1.
         21    1    1    2  505  502  0.11421472924E+03 -0.15154826195E+03 -0.11793518559E+03  0.22342915673E+03  0.00000000000E+00 0.  1.
          2    1    1    2  501    0 -0.81630056794E+00  0.44414098174E+02  0.13021801753E+04  0.13029376375E+04  0.00000000000E+00 0.  1.
<scales pt_clust_3="14000.00000" pt_clust_4="61.38194" pt_clust_5="181.87325" pt_clust_6="44.42160"></scales>
<clustering>
<clus scale="   44.422">  1  6  2 -1</clus>
<clus scale="   61.382">  1  4  2 -1</clus>
<clus scale="  181.873">  2  5  1 -1</clus>
<clus scale="  181.873">  2  3  1 -1</clus>
</clustering>
</event>
<event>
 6    0  0.6338511E+002  0.6358103E+02  0.7546771E-02  0.1383390E+00
          1   -1    0    0  503    0 -0.00000000000E+00  0.00000000000E+00  0.15253892012E+04  0.15253892012E+04  0.00000000000E+00 0. -1.
         21   -1    0    0  505  502  0.00000000000E+00 -0.00000000000E+00 -0.92293235259E+02  0.92293235259E+02  0.00000000000E+00 0.  1.
         21    1    1    2  503  502  0.10663002986E+02 -0.85820689130E+02  0.16150057723E+03  0.18319750752E+03  0.00000000000E+00 0. -1.
         21    1    1    2  504  501 -0.59539684090E+02  0.91302067918E+01  0.28836236546E+03  0.29458647028E+03  0.00000000000E+00 0. -1.
         21    1    1    2  505  504  0.54743888642E+02  0.15296189081E+02 -0.66996220969E+02  0.87859890554E+02  0.00000000000E+00 0.  1.
          1    1    1    2  501    0 -0.58672075379E+01  0.61394293257E+02  0.10502292442E+04  0.10520385681E+04  0.00000000000E+00 0. -1.
<scales pt_clust_3="63.58103" pt_clust_4="49.63543" pt_clust_5="56.84071" pt_clust_6="14000.00000"></scales>
<clustering>
<clus scale="   56.841">  2  5  1 -1</clus>
<clus scale="   49.635">  2  4  1 -1</clus>
<clus scale="   63.581">  2  3  1 -1</clus>
<clus scale="   56.841">  2  3  1 -1</clus>
</clustering>
</event>
<event>
 6    0  0.6338511E+002  0.8286176E+02  0.7546771E-02  0.1321121E+00
         21   -1    0    0  505  502  0.00000000000E+00  0.00000000000E+00  0.11107081521E+04  0.11107081521E+04  0.00000000000E+00 0.  1.
          2   -1    0    0  503    0 -0.00000000000E+00 -0.00000000000E+00 -0.10105406070E+04  0.10105406070E+04  0.00000000000E+00 0.  1.
         21    1    1    2  503  502 -0.53651061157E+02 -0.22300289827E+02  0.21611091088E+03  0.22378486341E+03  0.00000000000E+00 0. -1.
         21    1    1    2  504  501  0.49822899083E+02 -0.65192373378E+02  0.81374815480E+03  0.81787433403E+03  0.00000000000E+00 0.  1.
         21    1    1    2  505  504 -0.47949393094E+02  0.22477209189E+02  0.63637472537E+02  0.82789474826E+02  0.00000000000E+00 0.  1.
          2    1    1    2  501    0  0.51777555169E+02  0.65015454015E+02 -0.99332899310E+03  0.99680008679E+03  0.00000000000E+00 0.  1.
<scales pt_clust_3="82.86176" pt_clust_4="49.03897" pt_clust_5="52.95630" pt_clust_6="14000.00000"></scales>
<clustering>
<clus scale="   52.956">  1  5  2 -1</clus>
<clus scale="   49.039">  1  4  2 -1</clus>
<clus scale="   82.862">  1  3  2 -1</clus>
<clus scale="   52.956">  1  3  2 -1</clus>
</clustering>
</event>
<event>
 6    0  0.6338511E+002  0.1024103E+03  0.7546771E-02  0.1275308E+00
          2   -1    0    0  505    0 -0.00000000000E+00  0.00000000000E+00  0.46102373825E+03  0.46102373825E+03  0.00000000000E+00 0.  1.
         21   -1    0    0  504  502  0.00000000000E+00 -0.00000000000E+00 -0.72001133193E+03  0.72001133193E+03  0.00000000000E+00 0.  1.
         21    1    1    2  503  501 -0.15299845753E+02 -0.73244735780E+02 -0.23134433436E+03  0.24314414992E+03  0.00000000000E+00 0.  1.
         21    1    1    2  504  503 -0.89467348712E+01 -0.30519784400E+02 -0.30289811642E+03  0.30456324505E+03  0.00000000000E+00 0.  1.
         21    1    1    2  505  502 -0.39980029081E+02  0.22867993506E+02 -0.17006183209E+03  0.17618846326E+03  0.00000000000E+00 0.  1.
          2    1    1    2  501    0  0.64226609705E+02  0.80896526674E+02  0.44531668920E+03  0.45713921195E+03  0.00000000000E+00 0.  1.
<scales pt_clust_3="102.41031" pt_clust_4="31.80411" pt_clust_5="44.86981" pt_clust_6="14000.00000"></scales>
<clustering>
<clus scale="   31.804">  2  4  1 -1</clus>
<clus scale="   44.870">  2  5  1 -1</clus>
<clus scale="  102.410">  2  3  1 -1</clus>
<clus scale="   31.804">  2  3  1 -1</clus>
</clustering>
</event>
<event>
 6    0  0.6338511E+002  0.1068336E+03  0.7546771E-02  0.1266548E+00
         21   -1    0    0  505  502  0.00000000000E+00  0.00000000000E+00  0.80706068237E+02  0.80706068237E+02  0.00000000000E+00 0.  1.
          2   -1    0    0  504    0 -0.00000000000E+00 -0.00000000000E+00 -0.20905676146E+04  0.20905676146E+04  0.00000000000E+00 0.  1.
         21    1    1    2  503  501  0.62150468716E+02 -0.46462358352E+02 -0.50435096418E+03  0.51028553436E+03  0.00000000000E+00 0.  1.
         21    1    1    2  504  502 -0.10759367979E+03  0.74699283131E+02  0.14126489596E+02  0.13174194677E+03  0.00000000000E+00 0.  1.
         21    1    1    2  505  503  0.50664572722E+01 -0.30601645989E+02 -0.48610928279E+02  0.57664131613E+02  0.00000000000E+00 0. -1.
          2    1    1    2  501    0  0.40376753804E+02  0.23647212096E+01 -0.14710261435E+04  0.14715820701E+04  0.00000000000E+00 0.  1.
<scales pt_clust_3="106.83362" pt_clust_4="14000.00000" pt_clust_5="31.01822" pt_clust_6="40.45802"></scales>
<clustering>
<clus scale="   31.018">  1  5  2 -1</clus>
<clus scale="   40.458">  2  6  1 -1</clus>
<clus scale="  106.834">  2  3  1 -1</clus>
<clus scale="   31.018">  1  3  2 -1</clus>
</clustering>
</event>
<event>
 6    0  0.6338511E+002  0.1026730E+03  0.7546771E-02  0.1274773E+00
          1   -1    0    0  503    0 -0.00000000000E+00  0.00000000000E+00  0.11258516704E+04  0.11258516704E+04  0.00000000000E+00 0. -1.
         21   -1    0    0  504  502  0.00000000000E+00 -0.00000000000E+00 -0.19662180171E+03  0.19662180171E+03  0.00000000000E+00 0.  1.
         21    1    1    2  503  505 -0.67173279114E+02  0.30245382704E+02  0.13505415937E+03  0.15383971713E+03  0.00000000000E+00 0.  1.
         21    1    1    2  504  501  0.99037032296E+01  0.99463462232E+02 -0.15315523484E+03  0.18288682188E+03  0.00000000000E+00 0.  1.
         21    1    1    2  505  502  0.56380250207E+02 -0.17881828201E+02  0.39662257271E+02  0.71215075967E+02  0.00000000000E+00 0.  1.
          1    1    1    2  501    0  0.88932567728E+00 -0.11182701674E+03  0.90766868684E+03  0.91453185710E+03  0.00000000000E+00 0. -1.
<scales pt_clust_3="70.61787" pt_clust_4="102.67303" pt_clust_5="59.14805" pt_clust_6="14000.00000"></scales>
<clustering>
<clus scale="   59.148">  2  5  1 -1</clus>
<clus scale="   70.618">  1  3  2 -1</clus>
<clus scale="  102.673">  2  4  1 -1</clus>
<clus scale="   59.148">  2  3  1 -1</clus>
</clustering>
</event>
<event>
 6    0  0.6338511E+002  0.1027037E+03  0.7546771E-02  0.1274711E+00
         21   -1    0    0  501  502  0.00000000000E+00  0.00000000000E+00  0.11975407379E+03  0.11975407379E+03  0.00000000000E+00 0.  1.
          3   -1    0    0  503    0 -0.00000000000E+00 -0.00000000000E+00 -0.45374939295E+03  0.45374939295E+03  0.00000000000E+00 0.  1.
         21    1    1    2  503  505 -0.47049110314E+02  0.11272762893E+03  0.37227745298E+02  0.12769902946E+03  0.00000000000E+00 0.  1.
         21    1    1    2  504  502  0.16095693738E+02 -0.40792134520E+02 -0.27777068414E+02  0.51909875026E+02  0.00000000000E+00 0. -1.
         21    1    1    2  505  504  0.37921777527E+02  0.29797220909E+02 -0.15804302563E+02  0.50751468592E+02  0.00000000000E+00 0.  1.
          3    1    1    2  501    0 -0.69683609508E+01 -0.10173271532E+03 -0.32764169348E+03  0.34314309366E+03  0.00000000000E+00 0.  1.
<scales pt_clust_3="102.70371" pt_clust_4="43.85282" pt_clust_5="46.69255" pt_clust_6="14000.00000"></scales>
<clustering>
<clus scale="   43.853">  1  4  2 -1</clus>
<clus scale="   46.693">  1  5  2 -1</clus>
<clus scale="  102.704">  1  3  2 -1</clus>
<clus scale="   43.853">  1  3  2 -1</clus>
</clustering>
</event>
<event>
 6    0  0.6338511E+002  0.1462813E+03  0.7546771E-02  0.1205118E+00
          2   -1    0    0  504    0 -0.00000000000E+00  0.00000000000E+00  0.20228231521E+04  0.20228231521E+04  0.00000000000E+00 0.  1.
         21   -1    0    0  501  502  0.00000000000E+00 -0.00000000000E+00 -0.54714411142E+03  0.54714411142E+03  0.00000000000E+00 0. -1.
         21    1    1    2  503  505  0.15279073173E+03 -0.25992022420E+01 -0.75696702450E+02  0.17053373366E+03  0.00000000000E+00 0. -1.
         21    1    1    2  504  503 -0.10776404316E+03 -0.19763058483E+02  0.89452582913E+03  0.90121036748E+03  0.00000000000E+00 0.  1.
         21    1    1    2  505  502 -0.79592740425E+01 -0.30660095664E+02 -0.41911737384E+03  0.42031269855E+03  0.00000000000E+00 0. -1.
          2    1    1    2  501    0 -0.37067414522E+02  0.53022356389E+02  0.10759672878E+04  0.10779104638E+04  0.00000000000E+00 0.  1.
<scales pt_clust_3="146.28127" pt_clust_4="14000.00000" pt_clust_5="31.67636" pt_clust_6="64.53782"></scales>
<clustering>
<clus scale="   31.676">  2  5  1 -1</clus>
<clus scale="   64.538">  1  6  2 -1</clus>
<clus scale="  146.281">  2  3  1 -1</clus>
<clus scale="   31.676">  2  3  1 -1</clus>
</clustering>
</event>
<event>
 6    0  0.6338511E+002  0.7403522E+02  0.7546771E-02  0.1346885E+00
          2   -1    0    0  504    0 -0.00000000000E+00  0.00000000000E+00  0.11387354618E+04  0.11387354618E+04  0.00000000000E+00 0.  1.
         21   -1    0    0  503  502  0.00000000000E+00 -0.00000000000E+00 -0.57919958575E+03  0.57919958575E+03  0.00000000000E+00 0. -1.
         21    1    1    2  503  501  0.27367753976E+02 -0.31401929733E+02  0.20431185003E+02  0.46395134112E+02  0.00000000000E+00 0.  1.
         21    1    1    2  504  505  0.56553923048E+02  0.95921826177E+02 -0.12614377650E+03  0.16826049833E+03  0.00000000000E+00 0. -1.
         21    1    1    2  505  502 -0.29457247670E+02 -0.14781371456E+02 -0.41711032136E+03  0.41841037101E+03  0.00000000000E+00 0. -1.
          2    1    1    2  501    0 -0.54464429354E+02 -0.49738524988E+02  0.10823587889E+04  0.10848690441E+04  0.00000000000E+00 0.  1.
<scales pt_clust_3="41.07424" pt_clust_4="74.03522" pt_clust_5="32.95783" pt_clust_6="14000.00000"></scales>
<clustering>
<clus scale="   32.958">  2  5  1 -1</clus>
<clus scale="   41.074">  2  3  1 -1</clus>
<clus scale="   74.035">  2  4  1 -1</clus>
<clus scale="   32.958">  2  3  1 -1</clus>
</clustering>
</event>
<event>
 6    0  0.6338511E+002  0.2374544E+03  0.7546771E-02  0.1121500E+00
          2   -1    0    0  504    0 -0.00000000000E+00  0.00000000000E+00  0.94571126043E+03  0.94571126043E+03  0.00000000000E+00 0.  1.
         21   -1    0    0  503  502  0.00000000000E+00 -0.00000000000E+00 -0.10873130472E+04  0.10873130472E+04  0.00000000000E+00 0.  1.
         21    1    1    2  503  505  0.73563494063E+02  0.12960747983E+02 -0.22858317042E+03  0.24047834506E+03  0.00000000000E+00 0.  1.
         21    1    1    2  504  502 -0.14453094006E+03 -0.23768200661E+03 -0.65512278452E+03  0.71173575974E+03  0.00000000000E+00 0.  1.
         21    1    1    2  505  501  0.90172028560E+02  0.19525153967E+03 -0.10055716315E+03  0.23741504068E+03  0.00000000000E+00 0.  1.
          2    1    1    2  501    0 -0.19204582567E+02  0.29469718960E+02  0.84266133129E+03  0.84339516217E+03  0.00000000000E+00 0.  1.
<scales pt_clust_3="73.92095" pt_clust_4="14000.00000" pt_clust_5="237.45444" pt_clust_6="35.17500"></scales>
<clustering>
<clus scale="   35.175">  1  6  2 -1</clus>
<clus scale="   73.921">  2  3  1 -1</clus>
<clus scale="  237.454">  1  5  2 -1</clus>
<clus scale="   73.921">  2  3  1 -1</clus>
</clustering>
</event>
<event>
 6    0  0.6338511E+002  0.7402836E+02  0.7546771E-02  0.1346907E+00
         21   -1    0    0  504  502  0.00000000000E+00  0.00000000000E+00  0.16160941930E+03  0.16160941930E+03  0.00000000000E+00 0.  1.
          2   -1    0    0  503    0 -0.00000000000E+00 -0.00000000000E+00 -0.81507783906E+03  0.81507783906E+03  0.00000000000E+00 0.  1.
         21    1    1    2  503  505 -0.63795315137E+02  0.27795152796E+02 -0.24918235755E+02  0.73914350606E+02  0.00000000000E+00 0.  1.
         21    1    1    2  504  501  0.11075897973E+03 -0.46124407359E+02 -0.21773462438E+03  0.24860285436E+03  0.00000000000E+00 0.  1.
         21    1    1    2  505  502 -0.71814868799E+02 -0.10908602188E+02  0.11006733648E+03  0.13187566698E+03  0.00000000000E+00 0.  1.
          2    1    1    2  501    0  0.24851204209E+02  0.29237856751E+02 -0.52088289611E+03  0.52229438641E+03  0.00000000000E+00 0.  1.
<scales pt_clust_3="67.99958" pt_clust_4="14000.00000" pt_clust_5="74.02836" pt_clust_6="38.37232"></scales>
<clustering>
<clus scale="   38.372">  2  6  1 -1</clus>
<clus scale="   68.000">  2  3  1 -1</clus>
<clus scale="   74.028">  1  5  2 -1</clus>
<clus scale="   74.028">  1  3  2 -1</clus>
</clustering>
</event>
<event>
 6    0  0.6338511E+002  0.1884951E+03  0.7546771E-02  0.1159826E+00
         21   -1    0    0  504  502  0.00000000000E+00  0.00000000000E+00  0.15285198084E+03  0.15285198084E+03  0.00000000000E+00 0.  1.
          1   -1    0    0  505    0 -0.00000000000E+00 -0.00000000000E+00 -0.14281393563E+04  0.14281393563E+04  0.00000000000E+00 0.  1.
         21    1    1    2  503  502 -0.29973339119E+02 -0.44620017038E+01 -0.80423411214E+01  0.31352667636E+02  0.00000000000E+00 0. -1.
         21    1    1    2  504  501  0.19117751647E+03  0.13630606708E+03  0.19996779333E+02  0.23564392186E+03  0.00000000000E+00 0.  1.
         21    1    1    2  505  503 -0.91910328904E+02 -0.72915541102E+02 -0.29322275412E+03  0.31582236815E+03  0.00000000000E+00 0. -1.
          1    1    1    2  501    0 -0.69293848451E+02 -0.58928524274E+02 -0.99401905954E+03  0.99817237947E+03  0.00000000000E+00 0.  1.
<scales pt_clust_3="30.30364" pt_clust_4="14000.00000" pt_clust_5="188.49509" pt_clust_6="91.34131"></scales>
<clustering>
<clus scale="   30.304">  1  3  2 -1</clus>
<clus scale="   91.341">  2  6  1 -1</clus>
<clus scale="  188.495">  2  5  1 -1</clus>
<clus scale="   30.304">  1  3  2 -1</clus>
</clustering>
</event>
<event>
 6    0  0.6338511E+002  0.1019829E+03  0.7546771E-02  0.1276181E+00
         21   -1    0    0  505  502  0.00000000000E+00  0.00000000000E+00  0.32660075003E+03  0.32660075003E+03  0.00000000000E+00 0. -1.
          1   -1    0    0  503    0 -0.00000000000E+00 -0.00000000000E+00 -0.15943101143E+04  0.15943101143E+04  0.00000000000E+00 0.  1.
         21    1    1    2  503  502  0.32139148904E+02  0.62934564996E+01  0.25316481703E+03  0.25527427811E+03  0.00000000000E+00 0. -1.
         21    1    1    2  504  501 -0.97331251498E+02 -0.48215306777E+02 -0.15683809893E+03  0.19077808470E+03  0.00000000000E+00 0. -1.
         21    1    1    2  505  504  0.82271702703E+02 -0.22591232733E+02  0.21284066819E+02  0.87931839299E+02  0.00000000000E+00 0. -1.
          1    1    1    2  501    0 -0.17079600109E+02  0.64513083011E+02 -0.13853201492E+04  0.13869266622E+04  0.00000000000E+00 0.  1.
<scales pt_clust_3="32.74954" pt_clust_4="101.98286" pt_clust_5="14000.00000" pt_clust_6="66.71290"></scales>
<clustering>
<clus scale="   32.750">  1  3  2 -1</clus>
<clus scale="   66.713">  2  6  1 -1</clus>
<clus scale="  101.983">  2  4  1 -1</clus>
<clus scale="   32.750">  1  3  2 -1</clus>
</clustering>
</event>
<event>
 6    0  0.6338511E+002  0.9902992E+02  0.7546771E-02  0.1282349E+00
         -2   -1    0    0    0  501 -0.00000000000E+00  0.00000000000E+00  0.71731076883E+03  0.71731076883E+03  0.00000000000E+00 0. -1.
         21   -1    0    0  505  502  0.00000000000E+00 -0.00000000000E+00 -0.84258160634E+03  0.84258160634E+03  0.00000000000E+00 0. -1.
         21    1    1    2  503  504 -0.12136774847E+02 -0.10370347716E+03 -0.84383313381E+02  0.13424699645E+03  0.00000000000E+00 0.  1.
         21    1    1    2  504  502 -0.34617716829E+02  0.76689804183E+02 -0.20399266275E+03  0.22066426725E+03  0.00000000000E+00 0. -1.
         21    1    1    2  505  501  0.85019569007E+01  0.45534347855E+02 -0.51924582602E+03  0.52130786293E+03  0.00000000000E+00 0. -1.
         -2    1    1    2    0  503  0.38252534775E+02 -0.18520674879E+02  0.68235096465E+03  0.68367324854E+03  0.00000000000E+00 0. -1.
<scales pt_clust_3="99.02992" pt_clust_4="14000.00000" pt_clust_5="46.00156" pt_clust_6="42.50026"></scales>
<clustering>
<clus scale="   42.500">  1  6  2 -1</clus>
<clus scale="   46.002">  2  5  1 -1</clus>
<clus scale="   99.030">  1  3  2 -1</clus>
<clus scale="   46.002">  2  3  1 -1</clus>
</clustering>
</event>
<event>
 6    0  0.6338511E+002  0.1444521E+03  0.7546771E-02  0.1207461E+00
         21   -1    0    0  504  502  0.00000000000E+00  0.00000000000E+00  0.18779184180E+03  0.18779184180E+03  0.00000000000E+00 0.  1.
          2   -1    0    0  505    0 -0.00000000000E+00 -0.00000000000E+00 -0.32414594559E+04  0.32414594559E+04  0.00000000000E+00 0.  1.
         21    1    1    2  503  501 -0.43793819192E+02 -0.25282790034E+02  0.28790922903E+02  0.58189649535E+02  0.00000000000E+00 0.  1.
         21    1    1    2  504  503 -0.85235622604E+02 -0.24309752020E+02  0.12347116611E+03  0.15199080323E+03  0.00000000000E+00 0.  1.
         21    1    1    2  505  502  0.18590558597E+02  0.80431697408E+02 -0.30793070533E+03  0.31880430691E+03  0.00000000000E+00 0. -1.
          2    1    1    2  501    0  0.11043888320E+03 -0.30839155354E+02 -0.28979989978E+04  0.29002665380E+04  0.00000000000E+00 0.  1.
<scales pt_clust_3="32.78566" pt_clust_4="32.78566" pt_clust_5="82.55221" pt_clust_6="137.77640"></scales>
<clustering>
<clus scale="   32.786">  3  4 -1 -1</clus>
<clus scale="   82.552">  2  5  1 -1</clus>
<clus scale="  137.776">  2  6  1 -1</clus>
<clus scale="  144.452">  1  3  2 -1</clus>
</clustering>
</event>
<event>
 6    0  0.6338511E+002  0.1058536E+03  0.7546771E-02  0.1268447E+00
          1   -1    0    0  505    0 -0.00000000000E+00  0.00000000000E+00  0.50278274848E+03  0.50278274848E+03  0.00000000000E+00 0.  1.
         21   -1    0    0  501  502  0.00000000000E+00 -0.00000000000E+00 -0.62855058800E+03  0.62855058800E+03  0.00000000000E+00 0.  1.
         21    1    1    2  503  504  0.10054374242E+03  0.77110404175E+02  0.97162921320E+02  0.15967370432E+03  0.00000000000E+00 0.  1.
         21    1    1    2  504  502  0.28462574513E+01 -0.45910286252E+02 -0.58430366495E+03  0.58611144712E+03  0.00000000000E+00 0.  1.
         21    1    1    2  505  503 -0.70367781164E+02 -0.50968616713E+02  0.30612091943E+03  0.31821288759E+03  0.00000000000E+00 0.  1.
          1    1    1    2  501    0 -0.33022218705E+02  0.19768498790E+02  0.55251984678E+02  0.67335297456E+02  0.00000000000E+00 0.  1.
<scales pt_clust_3="14000.00000" pt_clust_4="45.95390" pt_clust_5="105.85363" pt_clust_6="38.48715"></scales>
<clustering>
<clus scale="   38.487">  1  6  2 -1</clus>
<clus scale="   45.954">  2  4  1 -1</clus>
<clus scale="  105.854">  1  5  2 -1</clus>
<clus scale="   45.954">  2  3  1 -1</clus>
</clustering>
</event>
<event>
 6    0  0.6338511E+002  0.1022268E+03  0.7546771E-02  0.1275682E+00
         21   -1    0    0  503  502  0.00000000000E+00  0.00000000000E+00  0.16023411823E+03  0.16023411823E+03  0.00000000000E+00 0. -1.
          1   -1    0    0  504    0 -0.00000000000E+00 -0.00000000000E+00 -0.31824419917E+03  0.31824419917E+03  0.00000000000E+00 0. -1.
         21    1    1    2  503  505 -0.31161981614E+02 -0.25005424909E+01  0.33788609389E+02  0.46032509548E+02  0.00000000000E+00 0. -1.
         21    1    1    2  504  502 -0.10078345378E+02  0.51474859911E+02  0.24676597914E+02  0.57966962427E+02  0.00000000000E+00 0. -1.
         21    1    1    2  505  501  0.12110976087E+03 -0.98451649781E+02 -0.20853291177E+02  0.15746479376E+03  0.00000000000E+00 0. -1.
          1    1    1    2  501    0 -0.79869433873E+02  0.49477332360E+02 -0.19562199706E+03  0.21701405166E+03  0.00000000000E+00 0. -1.
<scales pt_clust_3="31.26215" pt_clust_4="54.71565" pt_clust_5="102.22675" pt_clust_6="14000.00000"></scales>
<clustering>
<clus scale="   31.262">  1  3  2 -1</clus>
<clus scale="   54.716">  1  4  2 -1</clus>
<clus scale="  102.227">  1  5  2 -1</clus>
<clus scale="   31.262">  1  3  2 -1</clus>
</clustering>
</event>
<event>
 6    0  0.6338511E+002  0.6005093E+02  0.7546771E-02  0.1397618E+00
         21   -1    0    0  504  502  0.00000000000E+00  0.00000000000E+00  0.30764546608E+03  0.30764546608E+03  0.00000000000E+00 0. -1.
          2   -1    0    0  503    0 -0.00000000000E+00 -0.00000000000E+00 -0.23032694891E+03  0.23032694891E+03  0.00000000000E+00 0.  1.
         21    1    1    2  503  502  0.14511922610E+02  0.65660758967E+02  0.24379269614E+03  0.25289683640E+03  0.00000000000E+00 0. -1.
         21    1    1    2  504  505 -0.28308537327E+02 -0.31667062394E+02  0.10908831023E+02  0.43854061620E+02  0.00000000000E+00 0. -1.
         21    1    1    2  505  501  0.60213468426E+02 -0.63181808233E+02 -0.45570610082E+02  0.98459550958E+02  0.00000000000E+00 0. -1.
          2    1    1    2  501    0 -0.46416853709E+02  0.29188111660E+02 -0.13181239992E+03  0.14276196602E+03  0.00000000000E+00 0.  1.
<scales pt_clust_3="39.05840" pt_clust_4="42.47559" pt_clust_5="60.05093" pt_clust_6="14000.00000"></scales>
<clustering>
<clus scale="   42.476">  1  4  2 -1</clus>
<clus scale="   39.058">  1  3  2 -1</clus>
<clus scale="   60.051">  1  5  2 -1</clus>
<clus scale="   42.476">  1  3  2 -1</clus>
</clustering>
</event>
<event>
 6    0  0.6338511E+002  0.6556927E+02  0.7546771E-02  0.1375843E+00
         -1   -1    0    0    0  501 -0.00000000000E+00  0.00000000000E+00  0.33983174441E+04  0.33983174441E+04  0.00000000000E+00 0.  1.
         21   -1    0    0  503  502  0.00000000000E+00 -0.00000000000E+00 -0.40122734839E+02  0.40122734839E+02  0.00000000000E+00 0. -1.
         21    1    1    2  503  505  0.53360115665E+02 -0.15512120779E+02 -0.21328384228E+01  0.55610042570E+02  0.00000000000E+00 0. -1.
         21    1    1    2  504  501 -0.72720602808E+01  0.70511931051E+02  0.82203895378E+03  0.82508960533E+03  0.00000000000E+00 0. -1.
         21    1    1    2  505  504 -0.81189636028E+02 -0.43453853208E+02  0.21173215697E+03  0.23089066818E+03  0.00000000000E+00 0. -1.
         -1    1    1    2    0  502  0.35101580644E+02 -0.11545957065E+02  0.23265564369E+04  0.23268498629E+04  0.00000000000E+00 0.  1.
<scales pt_clust_3="56.49058" pt_clust_4="65.56927" pt_clust_5="14000.00000" pt_clust_6="36.95173"></scales>
<clustering>
<clus scale="   36.952">  1  6  2 -1</clus>
<clus scale="   56.491">  2  3  1 -1</clus>
<clus scale="   65.569">  1  4  2 -1</clus>
<clus scale="   56.491">  2  3  1 -1</clus>
</clustering>
</event>
<event>
 6    0  0.6338511E+002  0.1183640E+03  0.7546771E-02  0.1245821E+00
         21   -1    0    0  504  502  0.00000000000E+00  0.00000000000E+00  0.54695328027E+03  0.54695328027E+03  0.00000000000E+00 0. -1.
         -1   -1    0    0    0  501 -0.00000000000E+00 -0.00000000000E+00 -0.11821130186E+03  0.11821130186E+03  0.00000000000E+00 0. -1.
         21    1    1    2  503  502 -0.82677256050E+02  0.57556512298E+01  0.76282614183E+02  0.11263966182E+03  0.00000000000E+00 0. -1.
         21    1    1    2  504  505  0.13633579718E+02 -0.32887995607E+02  0.15175162395E+03  0.15587190292E+03  0.00000000000E+00 0. -1.
         21    1    1    2  505  501  0.10733020419E+03 -0.62755673268E+02  0.25585313327E+03  0.28446242821E+03  0.00000000000E+00 0. -1.
         -1    1    1    2    0  503 -0.38286527856E+02  0.89888017646E+02 -0.55145392988E+02  0.11219058917E+03  0.00000000000E+00 0. -1.
<scales pt_clust_3="82.87736" pt_clust_4="33.72817" pt_clust_5="33.72817" pt_clust_6="100.18628"></scales>
<clustering>
<clus scale="   33.728">  4  5 -1 -1</clus>
<clus scale="   82.877">  1  3  2 -1</clus>
<clus scale="  100.186">  2  6  1 -1</clus>
<clus scale="   82.877">  1  3  2 -1</clus>
</clustering>
</event>
<event>
 6    0  0.6338511E+002  0.1564601E+03  0.7546771E-02  0.1192752E+00
          2   -1    0    0  504    0 -0.00000000000E+00  0.00000000000E+00  0.89923793669E+03  0.89923793669E+03  0.00000000000E+00 0. -1.
         21   -1    0    0  503  502  0.00000000000E+00 -0.00000000000E+00 -0.36637851956E+03  0.36637851956E+03  0.00000000000E+00 0. -1.
         21    1    1    2  503  501  0.73821466065E+01 -0.37711803270E+02 -0.15306366985E+03  0.15781369783E+03  0.00000000000E+00 0. -1.
         21    1    1    2  504  505  0.37174332340E+02 -0.18625664655E+03  0.18463975823E+03  0.26488735283E+03  0.00000000000E+00 0. -1.
         21    1    1    2  505  502 -0.26808665792E+02  0.17923674825E+03 -0.12155519597E+03  0.21822048976E+03  0.00000000000E+00 0. -1.
          2    1    1    2  501    0 -0.17747813154E+02  0.44731701569E+02  0.62283852472E+03  0.62469491583E+03  0.00000000000E+00 0. -1.
<scales pt_clust_3="38.42754" pt_clust_4="14000.00000" pt_clust_5="156.46008" pt_clust_6="47.95769"></scales>
<clustering>
<clus scale="   38.428">  2  3  1 -1</clus>
<clus scale="   47.958">  1  6  2 -1</clus>
<clus scale="  156.460">  2  5  1 -1</clus>
<clus scale="   38.428">  2  3  1 -1</clus>
</clustering>
</event>
<event>
 6    0  0.6338511E+002  0.1724336E+03  0.7546771E-02  0.1175334E+00
          1   -1    0    0  504    0 -0.00000000000E+00  0.00000000000E+00  0.79687227288E+03  0.79687227288E+03  0.00000000000E+00 0.  1.
         21   -1    0    0  503  502  0.00000000000E+00 -0.00000000000E+00 -0.18626513297E+03  0.18626513297E+03  0.00000000000E+00 0.  1.
         21    1    1    2  503  501  0.45176050456E+02  0.13418561467E+03 -0.91346604169E+01  0.14188057210E+03  0.00000000000E+00 0.  1.
         21    1    1    2  504  505  0.21219317836E+02 -0.13919197197E+03 -0.27541864644E+02  0.14346852902E+03  0.00000000000E+00 0.  1.
         21    1    1    2  505  502 -0.34419818616E+02 -0.32937360629E+02 -0.95841506180E+00  0.47649891902E+02  0.00000000000E+00 0.  1.
          1    1    1    2  501    0 -0.31975549675E+02  0.37943717929E+02  0.64824208004E+03  0.65013841283E+03  0.00000000000E+00 0.  1.
<scales pt_clust_3="154.34413" pt_clust_4="44.72232" pt_clust_5="44.72232" pt_clust_6="49.62017"></scales>
<clustering>
<clus scale="   44.722">  4  5 -1 -1</clus>
<clus scale="   49.620">  1  6  2 -1</clus>
<clus scale="  154.344">  2  3  1 -1</clus>
<clus scale="  154.344">  2  3  1 -1</clus>
</clustering>
</event>
<event>
 6    0  0.6338511E+002  0.7282218E+02  0.7546771E-02  0.1350751E+00
         21   -1    0    0  504  502  0.00000000000E+00  0.00000000000E+00  0.13319656782E+04  0.13319656782E+04  0.00000000000E+00 0.  1.
          1   -1    0    0  505    0 -0.00000000000E+00 -0.00000000000E+00 -0.27445410874E+03  0.27445410874E+03  0.00000000000E+00 0. -1.
         21    1    1    2  503  502 -0.47755174983E+02 -0.30447971112E+02  0.11073122431E+04  0.11087596852E+04  0.00000000000E+00 0.  1.
         21    1    1    2  504  501 -0.75662750773E+02 -0.68932807204E+02 -0.50758851660E+02  0.11424992247E+03  0.00000000000E+00 0. -1.
         21    1    1    2  505  503  0.57972277829E+02  0.93334740549E+02  0.16978837142E+03  0.20223810190E+03  0.00000000000E+00 0.  1.
          1    1    1    2  501    0  0.65445647926E+02  0.60460377674E+01 -0.16883019344E+03  0.18117207738E+03  0.00000000000E+00 0. -1.
<scales pt_clust_3="56.63599" pt_clust_4="14000.00000" pt_clust_5="72.82218" pt_clust_6="64.34068"></scales>
<clustering>
<clus scale="   56.636">  1  3  2 -1</clus>
<clus scale="   64.341">  2  6  1 -1</clus>
<clus scale="   72.822">  1  5  2 -1</clus>
<clus scale="   56.636">  1  3  2 -1</clus>
</clustering>
</event>
<event>
 6    0  0.6338511E+002  0.2186703E+03  0.7546771E-02  0.1134878E+00
         21   -1    0    0  503  502  0.00000000000E+00  0.00000000000E+00  0.92671463057E+03  0.92671463057E+03  0.00000000000E+00 0.  1.
          4   -1    0    0  504    0 -0.00000000000E+00 -0.00000000000E+00 -0.16404183526E+04  0.16404183526E+04  0.00000000000E+00 0. -1.
         21    1    1    2  503  501 -0.34288966344E+02  0.55481199688E+02  0.60360673906E+03  0.60712024523E+03  0.00000000000E+00 0.  1.
         21    1    1    2  504  505  0.15408706869E+03  0.19939403407E+03 -0.37278362709E+03  0.44996492995E+03  0.00000000000E+00 0.  1.
         21    1    1    2  505  502 -0.70378699956E+02 -0.23879822938E+03  0.22727569505E+03  0.33709345488E+03  0.00000000000E+00 0.  1.
          4    1    1    2  501    0 -0.49419402387E+02 -0.16077004375E+02 -0.11718025290E+04  0.11729543531E+04  0.00000000000E+00 0. -1.
<scales pt_clust_3="65.26837" pt_clust_4="14000.00000" pt_clust_5="218.67029" pt_clust_6="51.96872"></scales>
<clustering>
<clus scale="   51.969">  2  6  1 -1</clus>
<clus scale="   65.268">  1  3  2 -1</clus>
<clus scale="  218.670">  1  5  2 -1</clus>
<clus scale="   65.268">  1  3  2 -1</clus>
</clustering>
</event>
<event>
 6    0  0.6338511E+002  0.1596988E+03  0.7546771E-02  0.1189037E+00
         21   -1    0    0  504  502  0.00000000000E+00  0.00000000000E+00  0.30957593926E+03  0.30957593926E+03  0.00000000000E+00 0.  1.
          2   -1    0    0  505    0 -0.00000000000E+00 -0.00000000000E+00 -0.23379129324E+04  0.23379129324E+04  0.00000000000E+00 0. -1.
         21    1    1    2  503  501  0.13772674409E+03 -0.35616171228E+02  0.68232239038E+02  0.15777454210E+03  0.00000000000E+00 0.  1.
         21    1    1    2  504  503 -0.17145286825E+03  0.35366738371E+02  0.15620600174E+03  0.23462141248E+03  0.00000000000E+00 0.  1.
         21    1    1    2  505  502  0.21367560082E+02  0.48079561122E+02 -0.12321406564E+04  0.12332634812E+04  0.00000000000E+00 0. -1.
          2    1    1    2  501    0  0.12358564083E+02 -0.47830128265E+02 -0.10206345776E+04  0.10218294360E+04  0.00000000000E+00 0. -1.
<scales pt_clust_3="14000.00000" pt_clust_4="159.69882" pt_clust_5="33.10279" pt_clust_6="49.40096"></scales>
<clustering>
<clus scale="   49.401">  2  6  1 -1</clus>
<clus scale="   33.103">  2  5  1 -1</clus>
<clus scale="  159.699">  1  4  2 -1</clus>
<clus scale="  159.699">  1  3  2 -1</clus>
</clustering>
</event>
<event>
 6    0  0.6338511E+002  0.5910928E+02  0.7546771E-02  0.1401608E+00
          2   -1    0    0  503    0 -0.00000000000E+00  0.00000000000E+00  0.19616287313E+04  0.19616287313E+04  0.00000000000E+00 0.  1.
         21   -1    0    0  505  502  0.00000000000E+00 -0.00000000000E+00 -0.11267065472E+03  0.11267065472E+03  0.00000000000E+00 0. -1.
         21    1    1    2  503  502 -0.13023593776E+03 -0.46918064418E+02  0.13395268754E+01  0.13843590064E+03  0.00000000000E+00 0. -1.
         21    1    1    2  504  501  0.44281501489E+02  0.86044912684E+01  0.42130779018E+02  0.61724315993E+02  0.00000000000E+00 0. -1.
         21    1    1    2  505  504  0.42723410084E+02 -0.13019002867E+01 -0.20363807694E+02  0.47346270997E+02  0.00000000000E+00 0. -1.
          2    1    1    2  501    0  0.43231026185E+02  0.39615473437E+02  0.18258515784E+04  0.18267928984E+04  0.00000000000E+00 0.  1.
<scales pt_clust_3="59.10928" pt_clust_4="50.30553" pt_clust_5="42.74324" pt_clust_6="14000.00000"></scales>
<clustering>
<clus scale="   42.743">  2  5  1 -1</clus>
<clus scale="   50.306">  2  4  1 -1</clus>
<clus scale="   59.109">  2  3  1 -1</clus>
<clus scale="   42.743">  2  3  1 -1</clus>
</clustering>
</event>
<event>
 6    0  0.6338511E+002  0.8785671E+02  0.7546771E-02  0.1308127E+00
          1   -1    0    0  504    0 -0.00000000000E+00  0.00000000000E+00  0.16247414082E+04  0.16247414082E+04  0.00000000000E+00 0. -1.
         21   -1    0    0  501  502  0.00000000000E+00 -0.00000000000E+00 -0.22623650831E+03  0.22623650831E+03  0.00000000000E+00 0. -1.
         21    1    1    2  503  505  0.71535167304E+01 -0.76347410383E+02 -0.95460199744E+02  0.12244488396E+03  0.00000000000E+00 0. -1.
         21    1    1    2  504  503 -0.30021886084E+02  0.91795785643E+02  0.64214134819E+03  0.64936375858E+03  0.00000000000E+00 0. -1.
         21    1    1    2  505  502  0.58993672549E+02  0.16463462917E+02 -0.10477144584E+03  0.12136043373E+03  0.00000000000E+00 0. -1.
          1    1    1    2  501    0 -0.36125303195E+02 -0.31911838178E+02  0.95659519731E+03  0.95780884025E+03  0.00000000000E+00 0. -1.
<scales pt_clust_3="14000.00000" pt_clust_4="87.85671" pt_clust_5="60.70947" pt_clust_6="48.20169"></scales>
<clustering>
<clus scale="   48.202">  1  6  2 -1</clus>
<clus scale="   60.709">  2  5  1 -1</clus>
<clus scale="   87.857">  1  4  2 -1</clus>
<clus scale="   60.709">  2  3  1 -1</clus>
</clustering>
</event>
<event>
 6    0  0.6338511E+002  0.1346778E+03  0.7546771E-02  0.1220675E+00
          4   -1    0    0  503    0 -0.00000000000E+00  0.00000000000E+00  0.25176913304E+04  0.25176913304E+04  0.00000000000E+00 0. -1.
         21   -1    0    0  505  502  0.00000000000E+00 -0.00000000000E+00 -0.13894689536E+03  0.13894689536E+03  0.00000000000E+00 0. -1.
         21    1    1    2  503  502 -0.12321419552E+02 -0.10946537563E+03  0.18320924466E+03  0.21377584796E+03  0.00000000000E+00 0. -1.
         21    1    1    2  504  501  0.71887082997E+02  0.99699714840E+02  0.10868892392E+04  0.10938171712E+04  0.00000000000E+00 0. -1.
         21    1    1    2  505  504 -0.65451466527E+02 -0.23752065654E+02 -0.10985876300E+03  0.13006537934E+03  0.00000000000E+00 0. -1.
          4    1    1    2  501    0  0.58858030810E+01  0.33517726442E+02  0.12185047142E+04  0.12189798272E+04  0.00000000000E+00 0. -1.
<scales pt_clust_3="14000.00000" pt_clust_4="134.67782" pt_clust_5="69.49639" pt_clust_6="34.03058"></scales>
<clustering>
<clus scale="   34.031">  1  6  2 -1</clus>
<clus scale="   69.496">  2  5  1 -1</clus>
<clus scale="  134.678">  1  4  2 -1</clus>
<clus scale="   69.496">  2  3  1 -1</clus>
</clustering>
</event>
<event>
 6    0  0.6338511E+002  0.1874018E+03  0.7546771E-02  0.1160826E+00
          2   -1    0    0  503    0 -0.00000000000E+00  0.00000000000E+00  0.10613966726E+04  0.10613966726E+04  0.00000000000E+00 0.  1.
         21   -1    0    0  505  502  0.00000000000E+00 -0.00000000000E+00 -0.21220663576E+03  0.21220663576E+03  0.00000000000E+00 0. -1.
         21    1    1    2  503  502 -0.11811551144E+03 -0.11562092198E+03  0.31757684221E+03  0.35801469572E+03  0.00000000000E+00 0.  1.
         21    1    1    2  504  501  0.20457421155E+03  0.82992071686E+02  0.36629001339E+03  0.42767588885E+03  0.00000000000E+00 0.  1.
         21    1    1    2  505  504 -0.20184034200E+02  0.26735985326E+02 -0.15611076724E+03  0.15966458529E+03  0.00000000000E+00 0. -1.
          2    1    1    2  501    0 -0.66274665910E+02  0.58928649642E+01  0.32143394843E+03  0.32824813846E+03  0.00000000000E+00 0.  1.
<scales pt_clust_3="14000.00000" pt_clust_4="187.40181" pt_clust_5="33.49938" pt_clust_6="67.96357"></scales>
<clustering>
<clus scale="   33.499">  2  5  1 -1</clus>
<clus scale="   67.964">  1  6  2 -1</clus>
<clus scale="  187.402">  1  4  2 -1</clus>
<clus scale="   33.499">  2  3  1 -1</clus>
</clustering>
</event>
<event>
 6    0  0.6338511E+002  0.9914653E+02  0.7546771E-02  0.1282101E+00
         21   -1    0    0  503  502  0.00000000000E+00  0.00000000000E+00  0.54071506975E+02  0.54071506975E+02  0.00000000000E+00 0.  1.
          2   -1    0    0  505    0 -0.00000000000E+00 -0.00000000000E+00 -0.32800106362E+04  0.32800106362E+04  0.00000000000E+00 0.  1.
         21    1    1    2  503  501  0.21310186481E+02 -0.21823449322E+02 -0.23839508803E+01  0.30595264502E+02  0.00000000000E+00 0.  1.
         21    1    1    2  504  502  0.74195363705E+02  0.73036318142E+02 -0.68986301785E+02  0.12489341695E+03  0.00000000000E+00 0.  1.
         21    1    1    2  505  504 -0.11328654004E+03  0.44236950082E+02 -0.31952271806E+03  0.34188523698E+03  0.00000000000E+00 0.  1.
          2    1    1    2  501    0  0.17780989853E+02 -0.95449818903E+02 -0.28350461585E+04  0.28367082247E+04  0.00000000000E+00 0.  1.
<scales pt_clust_3="30.50225" pt_clust_4="99.14653" pt_clust_5="14000.00000" pt_clust_6="97.61977"></scales>
<clustering>
<clus scale="   30.502">  1  3  2 -1</clus>
<clus scale="   97.620">  2  6  1 -1</clus>
<clus scale="   99.147">  1  4  2 -1</clus>
<clus scale="   30.502">  1  3  2 -1</clus>
</clustering>
</event>
<event>
 6    0  0.6338511E+002  0.8409197E+02  0.7546771E-02  0.1317824E+00
          2   -1    0    0  504    0 -0.00000000000E+00  0.00000000000E+00  0.63801123979E+03  0.63801123979E+03  0.00000000000E+00 0.  1.
         21   -1    0    0  503  502  0.00000000000E+00 -0.00000000000E+00 -0.14226980646E+03  0.14226980646E+03  0.00000000000E+00 0. -1.
         21    1    1    2  503  501  0.38303107756E+01  0.53141154213E+02  0.95932886292E+02  0.10973500911E+03  0.00000000000E+00 0.  1.
         21    1    1    2  504  505 -0.52552719673E+02  0.37379570595E+02  0.25313870171E+02  0.69280680322E+02  0.00000000000E+00 0.  1.
         21    1    1    2  505  502  0.75413701205E+02 -0.52498013653E+02 -0.93428019469E+02  0.13104221682E+03  0.00000000000E+00 0. -1.
          2    1    1    2  501    0 -0.26691292308E+02 -0.38022711154E+02  0.46792269633E+03  0.47022314000E+03  0.00000000000E+00 0.  1.
<scales pt_clust_3="32.46485" pt_clust_4="84.09197" pt_clust_5="14000.00000" pt_clust_6="46.45591"></scales>
<clustering>
<clus scale="   46.456">  1  6  2 -1</clus>
<clus scale="   32.465">  1  3  2 -1</clus>
<clus scale="   84.092">  1  4  2 -1</clus>
<clus scale="   84.092">  2  3  1 -1</clus>
</clustering>
</event>
<event>
 6    0  0.6338511E+002  0.8518195E+02  0.7546771E-02  0.1314957E+00
         21   -1    0    0  505  502  0.00000000000E+00  0.00000000000E+00  0.66994208441E+02  0.66994208441E+02  0.00000000000E+00 0.  1.
          2   -1    0    0  504    0 -0.00000000000E+00 -0.00000000000E+00 -0.12767520740E+04  0.12767520740E+04  0.00000000000E+00 0.  1.
         21    1    1    2  503  502  0.30279421848E+02 -0.85617284143E+02 -0.75650705700E+02  0.11819556677E+03  0.00000000000E+00 0.  1.
         21    1    1    2  504  503 -0.32336566519E+02  0.62171431315E+02 -0.25278054111E+03  0.26231458665E+03  0.00000000000E+00 0.  1.
         21    1    1    2  505  501 -0.51832366628E+02 -0.15093359264E+02  0.21406996487E+02  0.58074634934E+02  0.00000000000E+00 0.  1.
          2    1    1    2  501    0  0.53889511300E+02  0.38539212093E+02 -0.90273361523E+03  0.90516149408E+03  0.00000000000E+00 0.  1.
<scales pt_clust_3="85.18195" pt_clust_4="14000.00000" pt_clust_5="53.98522" pt_clust_6="63.98811"></scales>
<clustering>
<clus scale="   53.985">  1  5  2 -1</clus>
<clus scale="   63.988">  2  6  1 -1</clus>
<clus scale="   85.182">  1  3  2 -1</clus>
<clus scale="   53.985">  1  3  2 -1</clus>
</clustering>
</event>
<event>
 6    0  0.6338511E+002  0.1137550E+03  0.7546771E-02  0.1253770E+00
         -4   -1    0    0    0  501 -0.00000000000E+00  0.00000000000E+00  0.27352441224E+03  0.27352441224E+03  0.00000000000E+00 0. -1.
         21   -1    0    0  503  502  0.00000000000E+00 -0.00000000000E+00 -0.40484969453E+03  0.40484969453E+03  0.00000000000E+00 0.  1.
         21    1    1    2  503  501  0.83410989866E+02 -0.67105938974E+02  0.90309381124E+02  0.14005850419E+03  0.00000000000E+00 0. -1.
         21    1    1    2  504  502  0.33801763243E+02 -0.17575412497E+02 -0.18391648249E+03  0.18782099684E+03  0.00000000000E+00 0.  1.
         21    1    1    2  505  504  0.15617565053E+01  0.47111148011E+02 -0.16547332396E+03  0.17205615447E+03  0.00000000000E+00 0.  1.
         -4    1    1    2    0  505 -0.11877450961E+03  0.37570203460E+02  0.12775514303E+03  0.17843845127E+03  0.00000000000E+00 0. -1.
<scales pt_clust_3="113.75495" pt_clust_4="38.09796" pt_clust_5="43.46395" pt_clust_6="14000.00000"></scales>
<clustering>
<clus scale="   38.098">  2  4  1 -1</clus>
<clus scale="   43.464">  2  5  1 -1</clus>
<clus scale="  113.755">  1  3  2 -1</clus>
<clus scale="   38.098">  2  3  1 -1</clus>
</clustering>
</event>
<event>
 6    0  0.6338511E+002  0.8865393E+02  0.7546771E-02  0.1306145E+00
         21   -1    0    0  505  502  0.00000000000E+00  0.00000000000E+00  0.60253472850E+03  0.60253472850E+03  0.00000000000E+00 0. -1.
          1   -1    0    0  504    0 -0.00000000000E+00 -0.00000000000E+00 -0.54821328906E+03  0.54821328906E+03  0.00000000000E+00 0. -1.
         21    1    1    2  503  501  0.69398952850E+02 -0.70828533723E+02  0.96773549269E+02  0.13855690414E+03  0.00000000000E+00 0.  1.
         21    1    1    2  504  502  0.38839654752E+02  0.15560214305E+02  0.64443793350E+02  0.76835158306E+02  0.00000000000E+00 0. -1.
         21    1    1    2  505  503 -0.67770038651E+02  0.53772895587E+02  0.40891073666E+03  0.41796207124E+03  0.00000000000E+00 0. -1.
          1    1    1    2  501    0 -0.40468568951E+02  0.14954238316E+01 -0.51580663984E+03  0.51739388388E+03  0.00000000000E+00 0. -1.
<scales pt_clust_3="88.65393" pt_clust_4="34.73697" pt_clust_5="14000.00000" pt_clust_6="40.49619"></scales>
<clustering>
<clus scale="   40.496">  2  6  1 -1</clus>
<clus scale="   34.737">  2  4  1 -1</clus>
<clus scale="   88.654">  2  3  1 -1</clus>
<clus scale="   88.654">  1  3  2 -1</clus>
</clustering>
</event>
<event>
 6    0  0.6338511E+002  0.9849743E+02  0.7546771E-02  0.1283488E+00
         -2   -1    0    0    0  501 -0.00000000000E+00  0.00000000000E+00  0.11903064627E+04  0.11903064627E+04  0.00000000000E+00 0. -1.
         21   -1    0    0  504  502  0.00000000000E+00 -0.00000000000E+00 -0.49079667904E+03  0.49079667904E+03  0.00000000000E+00 0. -1.
         21    1    1    2  503  502  0.11651547869E+03  0.85470411144E+01 -0.27212867209E+03  0.29614679276E+03  0.00000000000E+00 0. -1.
         21    1    1    2  504  505 -0.20017886524E+02 -0.28764178600E+02 -0.20121085597E+03  0.20423981569E+03  0.00000000000E+00 0. -1.
         21    1    1    2  505  501 -0.31322566413E+02 -0.19624627295E+02  0.13227833520E+03  0.13734550275E+03  0.00000000000E+00 0.  1.
         -2    1    1    2    0  503 -0.65175025748E+02  0.39841764780E+02  0.10405709765E+04  0.10433710305E+04  0.00000000000E+00 0. -1.
<scales pt_clust_3="14000.00000" pt_clust_4="35.04417" pt_clust_5="37.24624" pt_clust_6="98.49743"></scales>
<clustering>
<clus scale="   35.044">  2  4  1 -1</clus>
<clus scale="   37.246">  1  5  2 -1</clus>
<clus scale="   98.497">  1  6  2 -1</clus>
<clus scale="   35.044">  2  3  1 -1</clus>
</clustering>
</event>
<event>
 6    0  0.6338511E+002  0.1503090E+03  0.7546771E-02  0.1200094E+00
          2   -1    0    0  505    0 -0.00000000000E+00  0.00000000000E+00  0.14198804595E+04  0.14198804595E+04  0.00000000000E+00 0.  1.
         21   -1    0    0  501  502  0.00000000000E+00 -0.00000000000E+00 -0.81165137160E+02  0.81165137160E+02  0.00000000000E+00 0. -1.
         21    1    1    2  503  504  0.16126455039E+02  0.12285166391E+03  0.10346093318E+03  0.16142105988E+03  0.00000000000E+00 0. -1.
         21    1    1    2  504  502  0.10501440749E+02 -0.55745845759E+02 -0.91259599427E+01  0.57455745770E+02  0.00000000000E+00 0. -1.
         21    1    1    2  505  503  0.49659558882E+02  0.40889841276E+02  0.52652880052E+02  0.83128675472E+02  0.00000000000E+00 0.  1.
          2    1    1    2  501    0 -0.76287454671E+02 -0.10799565942E+03  0.11917274690E+04  0.11990401155E+04  0.00000000000E+00 0.  1.
<scales pt_clust_3="47.21533" pt_clust_4="56.72636" pt_clust_5="47.21533" pt_clust_6="135.27314"></scales>
<clustering>
<clus scale="   47.215">  3  5 -1 -1</clus>
<clus scale="   56.726">  2  4  1 -1</clus>
<clus scale="  135.273">  1  6  2 -1</clus>
<clus scale="   56.726">  2  3  1 -1</clus>
</clustering>
</event>
<event>
 6    0  0.6338511E+002  0.8241939E+02  0.7546771E-02  0.1322322E+00
         21   -1    0    0  505  502  0.00000000000E+00  0.00000000000E+00  0.31808906467E+02  0.31808906467E+02  0.00000000000E+00 0.  1.
          2   -1    0    0  503    0 -0.00000000000E+00 -0.00000000000E+00 -0.18408724674E+04  0.18408724674E+04  0.00000000000E+00 0. -1.
         21    1    1    2  503  504  0.55223536013E+02 -0.55771072165E+02 -0.78043517333E+03  0.78437179398E+03  0.00000000000E+00 0. -1.
         21    1    1    2  504  502 -0.30113866278E+02  0.20790005817E+02 -0.20286491845E+02  0.41840303960E+02  0.00000000000E+00 0.  1.
         21    1    1    2  505  501  0.44564632101E+02  0.67804545950E+02 -0.76711592089E+02  0.11166078652E+03  0.00000000000E+00 0.  1.
          2    1    1    2  501    0 -0.69674301836E+02 -0.32823479603E+02 -0.93163030364E+03  0.93480848937E+03  0.00000000000E+00 0. -1.
<scales pt_clust_3="75.12316" pt_clust_4="36.59330" pt_clust_5="82.41939" pt_clust_6="14000.00000"></scales>
<clustering>
<clus scale="   36.593">  1  4  2 -1</clus>
<clus scale="   75.123">  2  3  1 -1</clus>
<clus scale="   82.419">  1  5  2 -1</clus>
<clus scale="   36.593">  1  3  2 -1</clus>
</clustering>
</event>
<event>
 6    0  0.6338511E+002  0.2208873E+03  0.7546771E-02  0.1133223E+00
          2   -1    0    0  505    0 -0.00000000000E+00  0.00000000000E+00  0.67998733358E+03  0.67998733358E+03  0.00000000000E+00 0. -1.
         21   -1    0    0  504  502  0.00000000000E+00 -0.00000000000E+00 -0.36871319891E+03  0.36871319891E+03  0.00000000000E+00 0.  1.
         21    1    1    2  503  502 -0.19420876826E+02 -0.44342003848E+02 -0.20896782173E+02  0.52726267335E+02  0.00000000000E+00 0.  1.
         21    1    1    2  504  501 -0.20672157166E+03 -0.37978898012E+02 -0.25201026054E+03  0.32815450066E+03  0.00000000000E+00 0.  1.
         21    1    1    2  505  503  0.10101085824E+03 -0.49907433860E+02  0.36973497695E+03  0.38652024348E+03  0.00000000000E+00 0. -1.
          2    1    1    2  501    0  0.12513159025E+03  0.13222833572E+03  0.21444620043E+03  0.28129952102E+03  0.00000000000E+00 0. -1.
<scales pt_clust_3="48.40851" pt_clust_4="220.88732" pt_clust_5="112.73044" pt_clust_6="14000.00000"></scales>
<clustering>
<clus scale="   48.409">  2  3  1 -1</clus>
<clus scale="  112.730">  1  5  2 -1</clus>
<clus scale="  220.887">  2  4  1 -1</clus>
<clus scale="   48.409">  2  3  1 -1</clus>
</clustering>
</event>
<event>
 6    0  0.6338511E+002  0.6283558E+02  0.7546771E-02  0.1386303E+00
         21   -1    0    0  504  502  0.00000000000E+00  0.00000000000E+00  0.42582570475E+02  0.42582570475E+02  0.00000000000E+00 0.  1.
          2   -1    0    0  505    0 -0.00000000000E+00 -0.00000000000E+00 -0.11449877237E+04  0.11449877237E+04  0.00000000000E+00 0. -1.
         21    1    1    2  503  501  0.50778426541E+02  0.61596974201E+02 -0.12787004059E+03  0.15074277135E+03  0.00000000000E+00 0.  1.
         21    1    1    2  504  503  0.35766393670E+02  0.25058451548E+02  0.72665486940E+01  0.44271476597E+02  0.00000000000E+00 0.  1.
         21    1    1    2  505  502 -0.57739588703E+02 -0.32819213065E+02 -0.26641963380E+03  0.27457309068E+03  0.00000000000E+00 0.  1.
          2    1    1    2  501    0 -0.28805231507E+02 -0.53836212684E+02 -0.71538202757E+03  0.71798295559E+03  0.00000000000E+00 0. -1.
<scales pt_clust_3="14000.00000" pt_clust_4="43.67105" pt_clust_5="55.88220" pt_clust_6="62.83558"></scales>
<clustering>
<clus scale="   43.671">  1  4  2 -1</clus>
<clus scale="   55.882">  1  5  2 -1</clus>
<clus scale="   62.836">  2  6  1 -1</clus>
<clus scale="   43.671">  1  3  2 -1</clus>
</clustering>
</event>
<event>
 6    0  0.6338511E+002  0.8490267E+02  0.7546771E-02  0.1315687E+00
         21   -1    0    0  503  502  0.00000000000E+00  0.00000000000E+00  0.36248063502E+03  0.36248063502E+03  0.00000000000E+00 0.  1.
         -4   -1    0    0    0  501 -0.00000000000E+00 -0.00000000000E+00 -0.54788125998E+03  0.54788125998E+03  0.00000000000E+00 0.  1.
         21    1    1    2  503  505  0.14115796973E+02 -0.34447640719E+02  0.54400136591E+02  0.65918666069E+02  0.00000000000E+00 0. -1.
         21    1    1    2  504  502  0.69098696209E+02  0.40828751606E+02  0.26973971096E+03  0.28142695046E+03  0.00000000000E+00 0.  1.
         21    1    1    2  505  501 -0.11155535201E+03  0.21897050056E+02 -0.99652489410E+02  0.15117769680E+03  0.00000000000E+00 0.  1.
         -4    1    1    2    0  504  0.28340858827E+02 -0.28278160943E+02 -0.40988798310E+03  0.41183858167E+03  0.00000000000E+00 0.  1.
<scales pt_clust_3="37.22762" pt_clust_4="84.90267" pt_clust_5="14000.00000" pt_clust_6="40.14647"></scales>
<clustering>
<clus scale="   37.228">  1  3  2 -1</clus>
<clus scale="   40.146">  2  6  1 -1</clus>
<clus scale="   84.903">  1  4  2 -1</clus>
<clus scale="   37.228">  1  3  2 -1</clus>
</clustering>
</event>
<event>
 6    0  0.6338511E+002  0.1808300E+03  0.7546771E-02  0.1167002E+00
         -1   -1    0    0    0  501 -0.00000000000E+00  0.00000000000E+00  0.15841456852E+04  0.15841456852E+04  0.00000000000E+00 0. -1.
         21   -1    0    0  503  502  0.00000000000E+00 -0.00000000000E+00 -0.26685551472E+03  0.26685551472E+03  0.00000000000E+00 0. -1.
         21    1    1    2  503  504  0.15430345076E+03 -0.68946868377E+01 -0.12005559857E+03  0.19562831689E+03  0.00000000000E+00 0. -1.
         21    1    1    2  504  501 -0.17255689138E+03  0.57706739708E+02  0.14985800287E+04  0.15095853904E+04  0.00000000000E+00 0. -1.
         21    1    1    2  505  502  0.26148794575E+02 -0.17745149014E+02 -0.93635093710E+02  0.98823987703E+02  0.00000000000E+00 0. -1.
         -1    1    1    2    0  505 -0.78953539503E+01 -0.33066903856E+02  0.32400834088E+02  0.46963504919E+02  0.00000000000E+00 0. -1.
<scales pt_clust_3="14000.00000" pt_clust_4="180.82999" pt_clust_5="31.60142" pt_clust_6="34.49689"></scales>
<clustering>
<clus scale="   31.601">  2  5  1 -1</clus>
<clus scale="   34.497">  2  6  1 -1</clus>
<clus scale="  180.830">  1  4  2 -1</clus>
<clus scale="   31.601">  2  3  1 -1</clus>
</clustering>
</event>
<event>
 6    0  0.6338511E+002  0.7281577E+02  0.7546771E-02  0.1350771E+00
         21   -1    0    0  504  502  0.00000000000E+00  0.00000000000E+00  0.24617799192E+03  0.24617799192E+03  0.00000000000E+00 0.  1.
          2   -1    0    0  503    0 -0.00000000000E+00 -0.00000000000E+00 -0.16599153956E+04  0.16599153956E+04  0.00000000000E+00 0.  1.
         21    1    1    2  503  502  0.16609791473E+02  0.59840701297E+02 -0.84271207064E+01  0.62672251179E+02  0.00000000000E+00 0.  1.
         21    1    1    2  504  505 -0.61703175274E+02 -0.23991662671E+02  0.17497063390E+03  0.18707646684E+03  0.00000000000E+00 0.  1.
         21    1    1    2  505  501  0.88681766482E+02 -0.92610637375E+02 -0.73360798090E+02  0.14772607271E+03  0.00000000000E+00 0. -1.
          2    1    1    2  501    0 -0.43588382681E+02  0.56761598748E+02 -0.15069201188E+04  0.15086185968E+04  0.00000000000E+00 0.  1.
<scales pt_clust_3="62.10310" pt_clust_4="54.31389" pt_clust_5="72.81577" pt_clust_6="14000.00000"></scales>
<clustering>
<clus scale="   62.103">  1  3  2 -1</clus>
<clus scale="   54.314">  1  4  2 -1</clus>
<clus scale="   72.816">  1  5  2 -1</clus>
<clus scale="   62.103">  1  3  2 -1</clus>
</clustering>
</event>
<event>
 6    0  0.6338511E+002  0.8674519E+02  0.7546771E-02  0.1310931E+00
          1   -1    0    0  503    0 -0.00000000000E+00  0.00000000000E+00  0.15466749804E+04  0.15466749804E+04  0.00000000000E+00 0.  1.
         21   -1    0    0  504  502  0.00000000000E+00 -0.00000000000E+00 -0.22547213635E+03  0.22547213635E+03  0.00000000000E+00 0. -1.
         21    1    1    2  503  502 -0.16574487214E+02  0.63869136362E+02 -0.99510258986E+02  0.11939963086E+03  0.00000000000E+00 0. -1.
         21    1    1    2  504  505  0.43498605137E+02  0.18743454202E+02 -0.81561371618E+02  0.94317034858E+02  0.00000000000E+00 0.  1.
         21    1    1    2  505  501  0.11716263959E+02 -0.13964755206E+03  0.15331059847E+03  0.20770856805E+03  0.00000000000E+00 0. -1.
          1    1    1    2  501    0 -0.38640381881E+02  0.57034961499E+02  0.13489638761E+04  0.13507218829E+04  0.00000000000E+00 0.  1.
<scales pt_clust_3="14000.00000" pt_clust_4="47.36503" pt_clust_5="86.74519" pt_clust_6="68.83558"></scales>
<clustering>
<clus scale="   47.365">  2  4  1 -1</clus>
<clus scale="   68.836">  1  6  2 -1</clus>
<clus scale="   86.745">  1  5  2 -1</clus>
<clus scale="   47.365">  2  3  1 -1</clus>
</clustering>
</event>
<event>
 6    0  0.6338511E+002  0.1010996E+03  0.7546771E-02  0.1278001E+00
         21   -1    0    0  504  502  0.00000000000E+00  0.00000000000E+00  0.18040300969E+04  0.18040300969E+04  0.00000000000E+00 0.  1.
          2   -1    0    0  503    0 -0.00000000000E+00 -0.00000000000E+00 -0.24169576942E+03  0.24169576942E+03  0.00000000000E+00 0. -1.
         21    1    1    2  503  505  0.57156667491E+02  0.59710651067E+01  0.32597004691E+02  0.66068925918E+02  0.00000000000E+00 0. -1.
         21    1    1    2  504  501 -0.29573932049E+02  0.50045840143E+02  0.73211718564E+02  0.93483470772E+02  0.00000000000E+00 0.  1.
         21    1    1    2  505  502 -0.12445508872E+02 -0.11017269076E+03  0.16657950945E+04  0.16694808203E+04  0.00000000000E+00 0.  1.
          2    1    1    2  501    0 -0.15137226570E+02  0.54155785506E+02 -0.20926949025E+03  0.21669264935E+03  0.00000000000E+00 0. -1.
<scales pt_clust_3="61.19695" pt_clust_4="14000.00000" pt_clust_5="101.09958" pt_clust_6="56.23153"></scales>
<clustering>
<clus scale="   56.232">  2  6  1 -1</clus>
<clus scale="   61.197">  2  3  1 -1</clus>
<clus scale="  101.100">  1  5  2 -1</clus>
<clus scale="  101.100">  1  3  2 -1</clus>
</clustering>
</event>
<event>
 6    0  0.6338511E+002  0.2367617E+03  0.7546771E-02  0.1121969E+00
         21   -1    0    0  504  502  0.00000000000E+00  0.00000000000E+00  0.97522836088E+02  0.97522836088E+02  0.00000000000E+00 0. -1.
          2   -1    0    0  503    0 -0.00000000000E+00 -0.00000000000E+00 -0.35956536337E+04  0.35956536337E+04  0.00000000000E+00 0. -1.
         21    1    1    2  503  502  0.24293183292E+02  0.28480135917E+02  0.50130108591E+02  0.62564404286E+02  0.00000000000E+00 0. -1.
         21    1    1    2  504  505  0.11669008955E+03  0.18566357005E+03 -0.32802238753E+03  0.39457093781E+03  0.00000000000E+00 0. -1.
         21    1    1    2  505  501 -0.10920116783E+03 -0.17753227443E+03 -0.14264057530E+04  0.14415533204E+04  0.00000000000E+00 0. -1.
          2    1    1    2  501    0 -0.31782105019E+02 -0.36611431539E+02 -0.17938327657E+04  0.17944878072E+04  0.00000000000E+00 0. -1.
<scales pt_clust_3="37.43363" pt_clust_4="236.76170" pt_clust_5="14000.00000" pt_clust_6="48.18420"></scales>
<clustering>
<clus scale="   37.434">  1  3  2 -1</clus>
<clus scale="   48.184">  2  6  1 -1</clus>
<clus scale="  236.762">  1  4  2 -1</clus>
<clus scale="   37.434">  1  3  2 -1</clus>
</clustering>
</event>
<event>
 6    0  0.6338511E+002  0.8325743E+02  0.7546771E-02  0.1320053E+00
         -1   -1    0    0    0  501 -0.00000000000E+00  0.00000000000E+00  0.12325396877E+04  0.12325396877E+04  0.00000000000E+00 0.  1.
         21   -1    0    0  503  502  0.00000000000E+00 -0.00000000000E+00 -0.14569568961E+03  0.14569568961E+03  0.00000000000E+00 0. -1.
         21    1    1    2  503  501  0.98996879416E+02 -0.30939784060E+02  0.39591515331E+02  0.11101864914E+03  0.00000000000E+00 0. -1.
         21    1    1    2  504  505 -0.75413766638E+02 -0.80449300791E+02 -0.29790564189E+02  0.11422260683E+03  0.00000000000E+00 0. -1.
         21    1    1    2  505  502  0.13961351257E+02  0.46638800824E+02 -0.20556376557E+02  0.52845640202E+02  0.00000000000E+00 0. -1.
         -1    1    1    2    0  504 -0.37544464034E+02  0.64750284028E+02  0.10975994235E+04  0.11001484811E+04  0.00000000000E+00 0.  1.
<scales pt_clust_3="83.25743" pt_clust_4="14000.00000" pt_clust_5="48.68364" pt_clust_6="75.23880"></scales>
<clustering>
<clus scale="   48.684">  2  5  1 -1</clus>
<clus scale="   75.239">  1  6  2 -1</clus>
<clus scale="   83.257">  1  3  2 -1</clus>
<clus scale="   48.684">  2  3  1 -1</clus>
</clustering>
</event>
<event>
 6    0  0.6338511E+002  0.1176347E+03  0.7546771E-02  0.1247051E+00
         21   -1    0    0  503  502  0.00000000000E+00  0.00000000000E+00  0.43754573725E+03  0.43754573725E+03  0.00000000000E+00 0.  1.
          1   -1    0    0  504    0 -0.00000000000E+00 -0.00000000000E+00 -0.39688700261E+03  0.39688700261E+03  0.00000000000E+00 0.  1.
         21    1    1    2  503  501 -0.14610568520E+03 -0.12392205421E+02  0.28188658508E+03  0.31774279669E+03  0.00000000000E+00 0.  1.
         21    1    1    2  504  505  0.28147776265E+02 -0.56636163233E+02 -0.39159299476E+02  0.74386847157E+02  0.00000000000E+00 0. -1.
         21    1    1    2  505  502  0.38047115891E+02  0.67598766234E+02  0.10186441568E+03  0.12803724226E+03  0.00000000000E+00 0.  1.
          1    1    1    2  501    0  0.79910793044E+02  0.14296024206E+01 -0.30393296665E+03  0.31426585374E+03  0.00000000000E+00 0.  1.
<scales pt_clust_3="14000.00000" pt_clust_4="63.24518" pt_clust_5="76.22921" pt_clust_6="117.63475"></scales>
<clustering>
<clus scale="   63.245">  2  4  1 -1</clus>
<clus scale="   76.229">  1  5  2 -1</clus>
<clus scale="  117.635">  2  6  1 -1</clus>
<clus scale="   76.229">  1  3  2 -1</clus>
</clustering>
</event>
<event>
 6    0  0.6338511E+002  0.1461937E+03  0.7546771E-02  0.1205230E+00
          4   -1    0    0  505    0 -0.00000000000E+00  0.00000000000E+00  0.17582074957E+04  0.17582074957E+04  0.00000000000E+00 0. -1.
         21   -1    0    0  504  502  0.00000000000E+00 -0.00000000000E+00 -0.63230598992E+03  0.63230598992E+03  0.00000000000E+00 0. -1.
         21    1    1    2  503  502  0.61671121146E+02 -0.15080710598E+03 -0.54341640193E+03  0.56731604621E+03  0.00000000000E+00 0. -1.
         21    1    1    2  504  501  0.31078246896E+02  0.62095493073E+02  0.18117033840E+03  0.19402164623E+03  0.00000000000E+00 0.  1.
         21    1    1    2  505  503 -0.63055305526E+02  0.77610209607E+02 -0.34814561188E+02  0.10588375636E+03  0.00000000000E+00 0.  1.
          4    1    1    2  501    0 -0.29694062516E+02  0.11101403297E+02  0.15229621305E+04  0.15232920369E+04  0.00000000000E+00 0. -1.
<scales pt_clust_3="14000.00000" pt_clust_4="71.33749" pt_clust_5="146.19374" pt_clust_6="31.70140"></scales>
<clustering>
<clus scale="   31.701">  1  6  2 -1</clus>
<clus scale="   71.337">  1  4  2 -1</clus>
<clus scale="  146.194">  1  5  2 -1</clus>
<clus scale="  146.194">  2  3  1 -1</clus>
</clustering>
</event>
<event>
 6    0  0.6338511E+002  0.8780969E+02  0.7546771E-02  0.1308244E+00
          2   -1    0    0  503    0 -0.00000000000E+00  0.00000000000E+00  0.60592230133E+03  0.60592230133E+03  0.00000000000E+00 0.  1.
         21   -1    0    0  504  502  0.00000000000E+00 -0.00000000000E+00 -0.31839540601E+03  0.31839540601E+03  0.00000000000E+00 0.  1.
         21    1    1    2  503  505  0.40357477816E+02 -0.11579982247E+03  0.12344277721E+03  0.17400127627E+03  0.00000000000E+00 0.  1.
         21    1    1    2  504  501 -0.21859917744E+02  0.10926592815E+03 -0.82700017289E+02  0.13876668159E+03  0.00000000000E+00 0.  1.
         21    1    1    2  505  502  0.16134200662E+02 -0.32863236802E+02 -0.17891947029E+03  0.18262661803E+03  0.00000000000E+00 0. -1.
          2    1    1    2  501    0 -0.34631760734E+02  0.39397131117E+02  0.42570360570E+03  0.42892313145E+03  0.00000000000E+00 0.  1.
<scales pt_clust_3="87.80969" pt_clust_4="14000.00000" pt_clust_5="36.61017" pt_clust_6="52.04149"></scales>
<clustering>
<clus scale="   36.610">  2  5  1 -1</clus>
<clus scale="   52.041">  1  6  2 -1</clus>
<clus scale="   87.810">  1  3  2 -1</clus>
<clus scale="   36.610">  2  3  1 -1</clus>
</clustering>
</event>
<event>
 6    0  0.6338511E+002  0.1393179E+03  0.7546771E-02  0.1214250E+00
          2   -1    0    0  503    0 -0.00000000000E+00  0.00000000000E+00  0.29284035180E+04  0.29284035180E+04  0.00000000000E+00 0.  1.
         21   -1    0    0  505  502  0.00000000000E+00 -0.00000000000E+00 -0.21997223176E+02  0.21997223176E+02  0.00000000000E+00 0. -1.
         21    1    1    2  503  504  0.95595826491E+02  0.16699161340E+03  0.16104475327E+04  0.16219019751E+04  0.00000000000E+00 0.  1.
         21    1    1    2  504  502  0.47632494323E+01  0.30070033669E+02  0.57069687495E+02  0.64682646056E+02  0.00000000000E+00 0. -1.
         21    1    1    2  505  501 -0.38396366628E+02 -0.13594130688E+03  0.49213050273E+03  0.51200268711E+03  0.00000000000E+00 0. -1.
          2    1    1    2  501    0 -0.61962709295E+02 -0.61120340193E+02  0.74675857185E+03  0.75181343295E+03  0.00000000000E+00 0.  1.
<scales pt_clust_3="139.31793" pt_clust_4="30.44496" pt_clust_5="14000.00000" pt_clust_6="83.66742"></scales>
<clustering>
<clus scale="   30.445">  2  4  1 -1</clus>
<clus scale="   83.667">  1  6  2 -1</clus>
<clus scale="  139.318">  1  3  2 -1</clus>
<clus scale="   30.445">  2  3  1 -1</clus>
</clustering>
</event>
<event>
 6    0  0.6338511E+002  0.8825595E+02  0.7546771E-02  0.1307131E+00
          2   -1    0    0  503    0 -0.00000000000E+00  0.00000000000E+00  0.47058158154E+03  0.47058158154E+03  0.00000000000E+00 0. -1.
         21   -1    0    0  501  502  0.00000000000E+00 -0.00000000000E+00 -0.15307324340E+03  0.15307324340E+03  0.00000000000E+00 0. -1.
         21    1    1    2  503  505  0.16013021825E+02 -0.69464961423E+02  0.62441568640E+02  0.94766804461E+02  0.00000000000E+00 0. -1.
         21    1    1    2  504  502  0.29787610185E+02 -0.13506398180E+02 -0.71413905870E+02  0.78547249882E+02  0.00000000000E+00 0. -1.
         21    1    1    2  505  504  0.48656903170E+02  0.34812823924E+01 -0.40341640243E+02  0.63301354572E+02  0.00000000000E+00 0.  1.
          2    1    1    2  501    0 -0.94457535180E+02  0.79490077211E+02  0.36682231561E+03  0.38703941603E+03  0.00000000000E+00 0. -1.
<scales pt_clust_3="71.28673" pt_clust_4="30.39244" pt_clust_5="30.39244" pt_clust_6="80.07142"></scales>
<clustering>
<clus scale="   30.392">  4  5 -1 -1</clus>
<clus scale="   71.287">  1  3  2 -1</clus>
<clus scale="   80.071">  1  6  2 -1</clus>
<clus scale="   88.256">  2  3  1 -1</clus>
</clustering>
</event>
<event>
 6    0  0.6338511E+002  0.6707810E+02  0.7546771E-02  0.1370321E+00
         21   -1    0    0  504  502  0.00000000000E+00  0.00000000000E+00  0.26752974584E+03  0.26752974584E+03  0.00000000000E+00 0.  1.
          2   -1    0    0  503    0 -0.00000000000E+00 -0.00000000000E+00 -0.57652929294E+03  0.57652929294E+03  0.00000000000E+00 0.  1.
         21    1    1    2  503  502 -0.63007940485E+02  0.72415625379E+02  0.33772436939E+02  0.10175755923E+03  0.00000000000E+00 0.  1.
         21    1    1    2  504  505 -0.38683331754E+02  0.73137989241E+01  0.18064011927E+03  0.18488035185E+03  0.00000000000E+00 0.  1.
         21    1    1    2  505  501  0.51976907448E+02 -0.36138069716E+02 -0.53511977129E+02  0.82892042362E+02  0.00000000000E+00 0.  1.
          2    1    1    2  501    0  0.49714364791E+02 -0.43591354587E+02 -0.46990012617E+03  0.47452908535E+03  0.00000000000E+00 0.  1.
<scales pt_clust_3="67.07810" pt_clust_4="39.36867" pt_clust_5="57.14574" pt_clust_6="14000.00000"></scales>
<clustering>
<clus scale="   39.369">  1  4  2 -1</clus>
<clus scale="   57.146">  1  5  2 -1</clus>
<clus scale="   67.078">  1  3  2 -1</clus>
<clus scale="   39.369">  1  3  2 -1</clus>
</clustering>
</event>
<event>
 6    0  0.6338511E+002  0.9534949E+02  0.7546771E-02  0.1290391E+00
         21   -1    0    0  505  502  0.00000000000E+00  0.00000000000E+00  0.47794127185E+03  0.47794127185E+03  0.00000000000E+00 0.  1.
         -2   -1    0    0    0  501 -0.00000000000E+00 -0.00000000000E+00 -0.81081386104E+02  0.81081386104E+02  0.00000000000E+00 0. -1.
         21    1    1    2  503  502  0.53869885680E+02  0.69558079445E+02  0.29645966030E+03  0.30923877698E+03  0.00000000000E+00 0.  1.
         21    1    1    2  504  503  0.15794587397E+02  0.35879645471E+02  0.18110137149E+02  0.43183272430E+02  0.00000000000E+00 0.  1.
         21    1    1    2  505  501 -0.98492845222E+02 -0.93317404362E+02  0.10190389721E+03  0.16968613020E+03  0.00000000000E+00 0.  1.
         -2    1    1    2    0  504  0.28828372145E+02 -0.12120320554E+02 -0.19613808919E+02  0.36914478341E+02  0.00000000000E+00 0. -1.
<scales pt_clust_3="14000.00000" pt_clust_4="40.02035" pt_clust_5="95.34949" pt_clust_6="31.27263"></scales>
<clustering>
<clus scale="   31.273">  2  6  1 -1</clus>
<clus scale="   40.020">  2  4  1 -1</clus>
<clus scale="   95.349">  2  5  1 -1</clus>
<clus scale="   95.349">  1  3  2 -1</clus>
</clustering>
</event>
<event>
 6    0  0.6510416E+002  0.1113042E+03  0.7546771E-02  0.1258174E+00
         21   -1    0    0  505  502  0.00000000000E+00  0.00000000000E+00  0.10174454586E+04  0.10174454586E+04  0.00000000000E+00 0.  1.
          2   -1    0    0  504    0 -0.00000000000E+00 -0.00000000000E+00 -0.58476448743E+03  0.58476448743E+03  0.00000000000E+00 0.  1.
         21    1    1    2  503  501  0.23305493871E+00  0.76518943217E+02 -0.21142958500E+03  0.22485033333E+03  0.00000000000E+00 0.  1.
         21    1    1    2  504  502 -0.47544169191E+02 -0.13693838698E+02  0.95191515539E+02  0.10728184317E+03  0.00000000000E+00 0.  1.
         21    1    1    2  505  503  0.46082896345E+02 -0.99338473838E+02  0.90526480233E+03  0.91186409517E+03  0.00000000000E+00 0.  1.
          2    1    1    2  501    0  0.12282179073E+01  0.36513369319E+02 -0.35634576168E+03  0.35821367440E+03  0.00000000000E+00 0.  1.
<scales pt_clust_3="111.30418" pt_clust_4="49.18571" pt_clust_5="14000.00000" pt_clust_6="36.53402"></scales>
<clustering>
<clus scale="   36.534">  2  6  1 -1</clus>
<clus scale="   49.186">  1  4  2 -1</clus>
<clus scale="  111.304">  2  3  1 -1</clus>
<clus scale="   49.186">  1  3  2 -1</clus>
</clustering>
</event>
<event>
 6    0  0.6338511E+002  0.1446815E+03  0.7546771E-02  0.1207165E+00
         21   -1    0    0  504  502  0.00000000000E+00  0.00000000000E+00  0.13419769583E+04  0.13419769583E+04  0.00000000000E+00 0.  1.
          4   -1    0    0  502    0 -0.00000000000E+00 -0.00000000000E+00 -0.71219076345E+03  0.71219076345E+03  0.00000000000E+00 0. -1.
         21    1    1    2  503  501  0.98710232338E+02  0.20031159701E+03  0.95699905342E+03  0.98270831588E+03  0.00000000000E+00 0.  1.
         21    1    1    2  504  505 -0.62415621848E+02 -0.10975099782E+02  0.20265005519E+03  0.21232806581E+03  0.00000000000E+00 0.  1.
         21    1    1    2  505  503 -0.10479681939E+03 -0.61771528530E+02  0.13323127321E+03  0.18041249195E+03  0.00000000000E+00 0. -1.
          4    1    1    2  501    0  0.68502208896E+02 -0.12756496869E+03 -0.66309418701E+03  0.67871884805E+03  0.00000000000E+00 0. -1.
<scales pt_clust_3="144.68153" pt_clust_4="63.37320" pt_clust_5="129.88686" pt_clust_6="14000.00000"></scales>
<clustering>
<clus scale="   63.373">  1  4  2 -1</clus>
<clus scale="  129.887">  1  5  2 -1</clus>
<clus scale="  144.682">  1  3  2 -1</clus>
<clus scale="   63.373">  1  3  2 -1</clus>
</clustering>
</event>
<event>
 6    0  0.6338511E+002  0.2163922E+03  0.7546771E-02  0.1136602E+00
          2   -1    0    0  505    0 -0.00000000000E+00  0.00000000000E+00  0.81383866442E+03  0.81383866442E+03  0.00000000000E+00 0. -1.
         21   -1    0    0  503  502  0.00000000000E+00 -0.00000000000E+00 -0.20452403915E+03  0.20452403915E+03  0.00000000000E+00 0.  1.
         21    1    1    2  503  501  0.10519706641E+03  0.39364380927E+02  0.10777097519E+02  0.11283670989E+03  0.00000000000E+00 0. -1.
         21    1    1    2  504  502 -0.63401551884E+02  0.24011484903E+02 -0.76571477465E+01  0.68227121441E+02  0.00000000000E+00 0.  1.
         21    1    1    2  505  504 -0.22540569476E+03 -0.79458673582E+02  0.40593016661E+02  0.24242359836E+03  0.00000000000E+00 0.  1.
          2    1    1    2  501    0  0.18361018024E+03  0.16082807752E+02  0.56560165884E+03  0.59487527388E+03  0.00000000000E+00 0. -1.
<scales pt_clust_3="112.32087" pt_clust_4="50.34448" pt_clust_5="50.34448" pt_clust_6="194.65486"></scales>
<clustering>
<clus scale="   50.344">  4  5 -1 -1</clus>
<clus scale="  112.321">  2  3  1 -1</clus>
<clus scale="  194.655">  1  6  2 -1</clus>
<clus scale="  112.321">  2  3  1 -1</clus>
</clustering>
</event>
<event>
 6    0  0.6338511E+002  0.1029955E+03  0.7546771E-02  0.1274120E+00
          3   -1    0    0  503    0 -0.00000000000E+00  0.00000000000E+00  0.69997329828E+03  0.69997329828E+03  0.00000000000E+00 0. -1.
         21   -1    0    0  501  502  0.00000000000E+00 -0.00000000000E+00 -0.22578092649E+03  0.22578092649E+03  0.00000000000E+00 0. -1.
         21    1    1    2  503  504  0.58564764721E+00 -0.11030224610E+03  0.27299221943E+03  0.29443450944E+03  0.00000000000E+00 0. -1.
         21    1    1    2  504  505 -0.55800794639E+02 -0.14560025735E+02  0.55345985136E+02  0.79930601789E+02  0.00000000000E+00 0. -1.
         21    1    1    2  505  502  0.42365082275E+02  0.27117410735E+02 -0.19250089269E+03  0.19896418735E+03  0.00000000000E+00 0. -1.
          3    1    1    2  501    0  0.12850064717E+02  0.97744861100E+02  0.33835505991E+03  0.35242492619E+03  0.00000000000E+00 0. -1.
<scales pt_clust_3="102.99548" pt_clust_4="38.62581" pt_clust_5="50.30064" pt_clust_6="14000.00000"></scales>
<clustering>
<clus scale="   50.301">  2  5  1 -1</clus>
<clus scale="   38.626">  2  4  1 -1</clus>
<clus scale="  102.995">  2  3  1 -1</clus>
<clus scale="   50.301">  2  3  1 -1</clus>
</clustering>
</event>
<event>
 6    0  0.6338511E+002  0.1047477E+03  0.7546771E-02  0.1270618E+00
          1   -1    0    0  504    0 -0.00000000000E+00  0.00000000000E+00  0.13256300728E+04  0.13256300728E+04  0.00000000000E+00 0. -1.
         21   -1    0    0  501  502  0.00000000000E+00 -0.00000000000E+00 -0.11447757552E+03  0.11447757552E+03  0.00000000000E+00 0. -1.
         21    1    1    2  503  502 -0.63435543636E+02  0.14451911141E+01 -0.43841096123E+02  0.77124564718E+02  0.00000000000E+00 0. -1.
         21    1    1    2  504  505 -0.50134353097E+01  0.46527834166E+02  0.22577387439E+03  0.23057280031E+03  0.00000000000E+00 0. -1.
         21    1    1    2  505  503  0.11646897591E+03 -0.93366045650E+02  0.59902345980E+02  0.16084319035E+03  0.00000000000E+00 0. -1.
          1    1    1    2  501    0 -0.48019996961E+02  0.45393020370E+02  0.96931737299E+03  0.97156709289E+03  0.00000000000E+00 0. -1.
<scales pt_clust_3="63.54797" pt_clust_4="46.79716" pt_clust_5="104.74767" pt_clust_6="14000.00000"></scales>
<clustering>
<clus scale="   46.797">  1  4  2 -1</clus>
<clus scale="   63.548">  2  3  1 -1</clus>
<clus scale="  104.748">  2  5  1 -1</clus>
<clus scale="   63.548">  2  3  1 -1</clus>
</clustering>
</event>
<event>
 6    0  0.6338511E+002  0.1170930E+03  0.7546771E-02  0.1247971E+00
         21   -1    0    0  504  502  0.00000000000E+00  0.00000000000E+00  0.71711117062E+02  0.71711117062E+02  0.00000000000E+00 0.  1.
         -1   -1    0    0    0  501 -0.00000000000E+00 -0.00000000000E+00 -0.13513237938E+04  0.13513237938E+04  0.00000000000E+00 0.  1.
         21    1    1    2  503  502  0.84770079642E+02 -0.33276861101E+01 -0.60417994822E+00  0.84837520772E+02  0.00000000000E+00 0.  1.
         21    1    1    2  504  505  0.26241397792E+02  0.39783406262E+02 -0.32614577042E+02  0.57749813917E+02  0.00000000000E+00 0.  1.
         21    1    1    2  505  501 -0.17574017486E+03  0.34458752876E+01 -0.49626483769E+03  0.52647437948E+03  0.00000000000E+00 0.  1.
         -1    1    1    2    0  503  0.64728697425E+02 -0.39901595439E+02 -0.75012908208E+03  0.75397319672E+03  0.00000000000E+00 0.  1.
<scales pt_clust_3="14000.00000" pt_clust_4="47.65848" pt_clust_5="117.09298" pt_clust_6="76.10233"></scales>
<clustering>
<clus scale="   47.658">  1  4  2 -1</clus>
<clus scale="   76.102">  2  6  1 -1</clus>
<clus scale="  117.093">  2  5  1 -1</clus>
<clus scale="   47.658">  1  3  2 -1</clus>
</clustering>
</event>
<event>
 6    0  0.6338511E+002  0.1146853E+03  0.7546771E-02  0.1252131E+00
         21   -1    0    0  504  502  0.00000000000E+00  0.00000000000E+00  0.94401713807E+03  0.94401713807E+03  0.00000000000E+00 0. -1.
          2   -1    0    0  503    0 -0.00000000000E+00 -0.00000000000E+00 -0.49468875029E+03  0.49468875029E+03  0.00000000000E+00 0. -1.
         21    1    1    2  503  505  0.14007379511E+03  0.28926943478E+02 -0.10396164960E+03  0.17682041942E+03  0.00000000000E+00 0. -1.
         21    1    1    2  504  501 -0.49346724740E+02 -0.78220726124E+02  0.66479616139E+03  0.67119856782E+03  0.00000000000E+00 0. -1.
         21    1    1    2  505  502 -0.68080533663E+02  0.83271749386E+02  0.22622655471E+03  0.25049470527E+03  0.00000000000E+00 0. -1.
          2    1    1    2  501    0 -0.22646536705E+02 -0.33977966740E+02 -0.33773267873E+03  0.34019219587E+03  0.00000000000E+00 0. -1.
<scales pt_clust_3="14000.00000" pt_clust_4="93.32471" pt_clust_5="114.68529" pt_clust_6="40.83342"></scales>
<clustering>
<clus scale="   40.833">  2  6  1 -1</clus>
<clus scale="   93.325">  1  4  2 -1</clus>
<clus scale="  114.685">  1  5  2 -1</clus>
<clus scale="   93.325">  1  3  2 -1</clus>
</clustering>
</event>
<event>
 6    0  0.6338511E+002  0.1043477E+03  0.7546771E-02  0.1271410E+00
         21   -1    0    0  503  502  0.00000000000E+00  0.00000000000E+00  0.21736694431E+02  0.21736694431E+02  0.00000000000E+00 0. -1.
          2   -1    0    0  502    0 -0.00000000000E+00 -0.00000000000E+00 -0.31619957463E+04  0.31619957463E+04  0.00000000000E+00 0. -1.
         21    1    1    2  503  505  0.21499751004E+02 -0.27797713285E+02 -0.44811136794E+02  0.56947257509E+02  0.00000000000E+00 0. -1.
         21    1    1    2  504  501  0.60787262150E+02  0.48405020485E+02 -0.53103591437E+03  0.53669104669E+03  0.00000000000E+00 0. -1.
         21    1    1    2  505  504 -0.11799341162E+03 -0.42859323246E+02 -0.29890878259E+03  0.32420028854E+03  0.00000000000E+00 0. -1.
          2    1    1    2  501    0  0.35706398467E+02  0.22252016046E+02 -0.22655032181E+04  0.22658938480E+04  0.00000000000E+00 0. -1.
<scales pt_clust_3="35.14189" pt_clust_4="104.34772" pt_clust_5="14000.00000" pt_clust_6="42.11898"></scales>
<clustering>
<clus scale="   35.142">  1  3  2 -1</clus>
<clus scale="   42.119">  2  6  1 -1</clus>
<clus scale="  104.348">  2  4  1 -1</clus>
<clus scale="   35.142">  1  3  2 -1</clus>
</clustering>
</event>
<event>
 6    0  0.6338511E+002  0.2094988E+03  0.7546771E-02  0.1141964E+00
         21   -1    0    0  504  502  0.00000000000E+00  0.00000000000E+00  0.26273388003E+03  0.26273388003E+03  0.00000000000E+00 0. -1.
         -3   -1    0    0    0  501 -0.00000000000E+00 -0.00000000000E+00 -0.83651973867E+03  0.83651973867E+03  0.00000000000E+00 0. -1.
         21    1    1    2  503  502  0.14183579214E+03  0.12722518578E+03 -0.11178786917E+03  0.22090759951E+03  0.00000000000E+00 0. -1.
         21    1    1    2  504  505 -0.21083373999E+03  0.45828944398E+02  0.42575729496E+02  0.21991782739E+03  0.00000000000E+00 0. -1.
         21    1    1    2  505  501  0.23448064980E+02 -0.22879891523E+03 -0.10572222471E+03  0.25313226613E+03  0.00000000000E+00 0. -1.
         -3    1    1    2    0  503  0.45549882875E+02  0.55744785046E+02 -0.39885149426E+03  0.40529592567E+03  0.00000000000E+00 0. -1.
<scales pt_clust_3="14000.00000" pt_clust_4="209.49875" pt_clust_5="186.41704" pt_clust_6="71.98801"></scales>
<clustering>
<clus scale="   71.988">  2  6  1 -1</clus>
<clus scale="  209.499">  1  4  2 -1</clus>
<clus scale="  186.417">  2  5  1 -1</clus>
<clus scale="  209.499">  1  3  2 -1</clus>
</clustering>
</event>
<event>
 6    0  0.6338511E+002  0.1283564E+03  0.7546771E-02  0.1229915E+00
          3   -1    0    0  503    0 -0.00000000000E+00  0.00000000000E+00  0.82070757512E+03  0.82070757512E+03  0.00000000000E+00 0. -1.
         21   -1    0    0  505  502  0.00000000000E+00 -0.00000000000E+00 -0.97986708748E+03  0.97986708748E+03  0.00000000000E+00 0.  1.
         21    1    1    2  503  504  0.59657147080E+02  0.13164782171E+02  0.14153072822E+03  0.15415327995E+03  0.00000000000E+00 0.  1.
         21    1    1    2  504  502 -0.75074897915E+01 -0.15926574429E+03 -0.27529607029E+03  0.31813498082E+03  0.00000000000E+00 0.  1.
         21    1    1    2  505  501  0.27808724601E+02  0.11775407951E+03 -0.66862560293E+03  0.67948476458E+03  0.00000000000E+00 0.  1.
          3    1    1    2  501    0 -0.79958381889E+02  0.28346882616E+02  0.64323143263E+03  0.64880163726E+03  0.00000000000E+00 0. -1.
<scales pt_clust_3="61.09244" pt_clust_4="14000.00000" pt_clust_5="128.35643" pt_clust_6="46.84380"></scales>
<clustering>
<clus scale="   61.092">  1  3  2 -1</clus>
<clus scale="   46.844">  1  6  2 -1</clus>
<clus scale="  128.356">  2  5  1 -1</clus>
<clus scale="  128.356">  2  3  1 -1</clus>
</clustering>
</event>
<event>
 6    0  0.6338511E+002  0.1144159E+03  0.7546771E-02  0.1252604E+00
         21   -1    0    0  505  502  0.00000000000E+00  0.00000000000E+00  0.54969376641E+03  0.54969376641E+03  0.00000000000E+00 0. -1.
          2   -1    0    0  503    0 -0.00000000000E+00 -0.00000000000E+00 -0.11269981488E+04  0.11269981488E+04  0.00000000000E+00 0. -1.
         21    1    1    2  503  504  0.64849561846E+02  0.83452460430E+02  0.23130774545E+03  0.25430896942E+03  0.00000000000E+00 0. -1.
         21    1    1    2  504  502 -0.60719457325E+01  0.36389056681E+02  0.22568030519E+03  0.22867582321E+03  0.00000000000E+00 0. -1.
         21    1    1    2  505  501 -0.79757496735E+02 -0.68100898446E+01  0.55795171989E+02  0.97574263136E+02  0.00000000000E+00 0. -1.
          2    1    1    2  501    0  0.20979880621E+02 -0.11303142727E+03 -0.10900876050E+04  0.10961328595E+04  0.00000000000E+00 0. -1.
<scales pt_clust_3="14000.00000" pt_clust_4="36.89217" pt_clust_5="81.22212" pt_clust_6="114.41594"></scales>
<clustering>
<clus scale="   36.892">  1  4  2 -1</clus>
<clus scale="   81.222">  1  5  2 -1</clus>
<clus scale="  114.416">  2  6  1 -1</clus>
<clus scale="   36.892">  1  3  2 -1</clus>
</clustering>
</event>
<event>
 6    0  0.6338511E+002  0.1042847E+03  0.7546771E-02  0.1271535E+00
          1   -1    0    0  503    0 -0.00000000000E+00  0.00000000000E+00  0.87187960807E+03  0.87187960807E+03  0.00000000000E+00 0.  1.
         21   -1    0    0  504  502  0.00000000000E+00 -0.00000000000E+00 -0.30781255520E+03  0.30781255520E+03  0.00000000000E+00 0.  1.
         21    1    1    2  503  505 -0.12857100134E+03  0.28949496460E+02  0.22312485201E+03  0.25913949007E+03  0.00000000000E+00 0.  1.
         21    1    1    2  504  501  0.13820377339E+03 -0.33700365970E+01 -0.69717512357E+02  0.15482949220E+03  0.00000000000E+00 0.  1.
         21    1    1    2  505  502 -0.43653948671E+02 -0.77430701729E+00 -0.17407889826E+03  0.17947069289E+03  0.00000000000E+00 0.  1.
          1    1    1    2  501    0  0.34021176611E+02 -0.24805152846E+02  0.58473861148E+03  0.58625248811E+03  0.00000000000E+00 0.  1.
<scales pt_clust_3="104.28470" pt_clust_4="14000.00000" pt_clust_5="43.34541" pt_clust_6="42.10387"></scales>
<clustering>
<clus scale="   42.104">  1  6  2 -1</clus>
<clus scale="   43.345">  2  5  1 -1</clus>
<clus scale="  104.285">  1  3  2 -1</clus>
<clus scale="   43.345">  2  3  1 -1</clus>
</clustering>
</event>
<event>
 6    0  0.6338511E+002  0.1253498E+03  0.7546771E-02  0.1234524E+00
         21   -1    0    0  505  502  0.00000000000E+00  0.00000000000E+00  0.42737762799E+03  0.42737762799E+03  0.00000000000E+00 0.  1.
         -1   -1    0    0    0  501 -0.00000000000E+00 -0.00000000000E+00 -0.15255751629E+03  0.15255751629E+03  0.00000000000E+00 0. -1.
         21    1    1    2  503  501 -0.25387879729E+02 -0.18206306834E+02  0.21695636858E+01  0.31316466152E+02  0.00000000000E+00 0. -1.
         21    1    1    2  504  502 -0.54835150407E+02  0.11335108869E+03  0.30951024903E+03  0.33414361775E+03  0.00000000000E+00 0.  1.
         21    1    1    2  505  503  0.10902211333E+03 -0.80454324035E+02  0.31277067418E+02  0.13905744998E+03  0.00000000000E+00 0. -1.
         -1    1    1    2    0  504 -0.28799083189E+02 -0.14690457824E+02 -0.68136768436E+02  0.75417610387E+02  0.00000000000E+00 0. -1.
<scales pt_clust_3="31.24122" pt_clust_4="125.34984" pt_clust_5="14000.00000" pt_clust_6="48.45842"></scales>
<clustering>
<clus scale="   31.241">  2  3  1 -1</clus>
<clus scale="   48.458">  2  6  1 -1</clus>
<clus scale="  125.350">  1  4  2 -1</clus>
<clus scale="  125.350">  1  3  2 -1</clus>
</clustering>
</event>
<event>
 6    0  0.6338511E+002  0.1115668E+03  0.7546771E-02  0.1257696E+00
          2   -1    0    0  504    0 -0.00000000000E+00  0.00000000000E+00  0.18887581412E+04  0.18887581412E+04  0.00000000000E+00 0. -1.
         21   -1    0    0  501  502  0.00000000000E+00 -0.00000000000E+00 -0.31581795351E+03  0.31581795351E+03  0.00000000000E+00 0. -1.
         21    1    1    2  503  502 -0.91216574474E+01  0.10391389757E+03 -0.14565845508E+03  0.17915827717E+03  0.00000000000E+00 0. -1.
         21    1    1    2  504  505 -0.89309209818E+02 -0.42511129562E+02  0.34418705449E+03  0.35811738240E+03  0.00000000000E+00 0. -1.
         21    1    1    2  505  503  0.98442300054E+02 -0.10794334991E+03 -0.10955388504E+03  0.18260533113E+03  0.00000000000E+00 0. -1.
          2    1    1    2  501    0 -0.11432788507E-01  0.46540581910E+02  0.14839654733E+04  0.14846951040E+04  0.00000000000E+00 0. -1.
<scales pt_clust_3="14000.00000" pt_clust_4="89.34385" pt_clust_5="111.56676" pt_clust_6="46.54058"></scales>
<clustering>
<clus scale="   46.541">  1  6  2 -1</clus>
<clus scale="   89.344">  1  4  2 -1</clus>
<clus scale="  111.567">  1  5  2 -1</clus>
<clus scale="  111.567">  2  3  1 -1</clus>
</clustering>
</event>
<event>
 6    0  0.6338511E+002  0.8618241E+02  0.7546771E-02  0.1312369E+00
         21   -1    0    0  505  502  0.00000000000E+00  0.00000000000E+00  0.16842356787E+02  0.16842356787E+02  0.00000000000E+00 0. -1.
          2   -1    0    0  504    0 -0.00000000000E+00 -0.00000000000E+00 -0.25844826195E+04  0.25844826195E+04  0.00000000000E+00 0. -1.
         21    1    1    2  503  501  0.66921434354E+02  0.28429521011E+02 -0.98960246873E+03  0.99227000467E+03  0.00000000000E+00 0. -1.
         21    1    1    2  504  502 -0.71301150214E+02  0.84596417346E+02 -0.67912640352E+03  0.68807926855E+03  0.00000000000E+00 0. -1.
         21    1    1    2  505  503  0.32491940766E+02 -0.74475154862E+02 -0.15040432990E+03  0.17094951699E+03  0.00000000000E+00 0. -1.
          2    1    1    2  501    0 -0.28112224906E+02 -0.38550783496E+02 -0.74850706053E+03  0.75002618605E+03  0.00000000000E+00 0. -1.
<scales pt_clust_3="52.29924" pt_clust_4="86.18241" pt_clust_5="14000.00000" pt_clust_6="47.71226"></scales>
<clustering>
<clus scale="   47.712">  2  6  1 -1</clus>
<clus scale="   52.299">  2  3  1 -1</clus>
<clus scale="   86.182">  2  4  1 -1</clus>
<clus scale="   86.182">  1  3  2 -1</clus>
</clustering>
</event>
<event>
 6    0  0.6338511E+002  0.2194639E+03  0.7546771E-02  0.1134283E+00
         21   -1    0    0  505  502  0.00000000000E+00  0.00000000000E+00  0.22746403732E+04  0.22746403732E+04  0.00000000000E+00 0. -1.
          2   -1    0    0  503    0 -0.00000000000E+00 -0.00000000000E+00 -0.24860959180E+04  0.24860959180E+04  0.00000000000E+00 0. -1.
         21    1    1    2  503  504  0.12091996642E+03  0.16173566105E+03 -0.74093801629E+03  0.76796432620E+03  0.00000000000E+00 0.  1.
         21    1    1    2  504  502  0.41358816939E+02  0.10554077607E+02  0.27587496503E+02  0.50823323937E+02  0.00000000000E+00 0. -1.
         21    1    1    2  505  501 -0.19285705236E+03 -0.16962148031E+03  0.22143617183E+04  0.22292068340E+04  0.00000000000E+00 0. -1.
          2    1    1    2  501    0  0.30578269003E+02 -0.26682583464E+01 -0.17124667434E+04  0.17127418070E+04  0.00000000000E+00 0. -1.
<scales pt_clust_3="219.46390" pt_clust_4="43.11958" pt_clust_5="14000.00000" pt_clust_6="30.69446"></scales>
<clustering>
<clus scale="   30.694">  2  6  1 -1</clus>
<clus scale="   43.120">  1  4  2 -1</clus>
<clus scale="  219.464">  2  3  1 -1</clus>
<clus scale="   43.120">  1  3  2 -1</clus>
</clustering>
</event>
<event>
 6    0  0.6338511E+002  0.9207416E+02  0.7546771E-02  0.1297905E+00
          1   -1    0    0  503    0 -0.00000000000E+00  0.00000000000E+00  0.13738883536E+04  0.13738883536E+04  0.00000000000E+00 0. -1.
         21   -1    0    0  504  502  0.00000000000E+00 -0.00000000000E+00 -0.31983440101E+02  0.31983440101E+02  0.00000000000E+00 0.  1.
         21    1    1    2  503  502  0.32388378140E+02  0.76150521186E+02  0.11208404051E+03  0.13932243557E+03  0.00000000000E+00 0.  1.
         21    1    1    2  504  505  0.47870396200E+02  0.69514732080E+00  0.40123342911E+02  0.62465516155E+02  0.00000000000E+00 0.  1.
         21    1    1    2  505  501 -0.93840017324E+02 -0.37156779033E+02  0.37614086239E+03  0.38944643205E+03  0.00000000000E+00 0.  1.
          1    1    1    2  501    0  0.13581242983E+02 -0.39688889474E+02  0.81355666773E+03  0.81463740996E+03  0.00000000000E+00 0. -1.
<scales pt_clust_3="14000.00000" pt_clust_4="49.20287" pt_clust_5="92.07416" pt_clust_6="41.94828"></scales>
<clustering>
<clus scale="   41.948">  1  6  2 -1</clus>
<clus scale="   49.203">  2  4  1 -1</clus>
<clus scale="   92.074">  1  5  2 -1</clus>
<clus scale="   49.203">  2  3  1 -1</clus>
</clustering>
</event>
<event>
 6    0  0.6338511E+002  0.9100256E+02  0.7546771E-02  0.1300442E+00
          2   -1    0    0  502    0 -0.00000000000E+00  0.00000000000E+00  0.63876545620E+03  0.63876545620E+03  0.00000000000E+00 0. -1.
         21   -1    0    0  503  502  0.00000000000E+00 -0.00000000000E+00 -0.34325011434E+03  0.34325011434E+03  0.00000000000E+00 0.  1.
         21    1    1    2  503  504  0.32147976496E+02 -0.78077574263E+01 -0.21843433512E+03  0.22092535442E+03  0.00000000000E+00 0.  1.
         21    1    1    2  504  505 -0.12542739996E+03  0.17261345973E+02 -0.76028186429E+02  0.14768301140E+03  0.00000000000E+00 0. -1.
         21    1    1    2  505  501  0.58259121450E+02 -0.29751105041E+02  0.87235511780E+02  0.10903801172E+03  0.00000000000E+00 0. -1.
          2    1    1    2  501    0  0.35020302015E+02  0.20297516494E+02  0.50274235162E+03  0.50436919300E+03  0.00000000000E+00 0. -1.
<scales pt_clust_3="33.08253" pt_clust_4="91.00256" pt_clust_5="14000.00000" pt_clust_6="40.63488"></scales>
<clustering>
<clus scale="   33.083">  2  3  1 -1</clus>
<clus scale="   40.635">  1  6  2 -1</clus>
<clus scale="   91.003">  2  4  1 -1</clus>
<clus scale="   33.083">  2  3  1 -1</clus>
</clustering>
</event>
<event>
 6    0  0.6338511E+002  0.8184275E+02  0.7546771E-02  0.1323902E+00
         21   -1    0    0  503  502  0.00000000000E+00  0.00000000000E+00  0.17791397229E+03  0.17791397229E+03  0.00000000000E+00 0.  1.
          4   -1    0    0  505    0 -0.00000000000E+00 -0.00000000000E+00 -0.17343550786E+03  0.17343550786E+03  0.00000000000E+00 0.  1.
         21    1    1    2  503  504  0.81164758941E+02 -0.65590962406E+02  0.22325485121E+02  0.10671607062E+03  0.00000000000E+00 0.  1.
         21    1    1    2  504  501 -0.28807929704E+02  0.61900390370E+02 -0.11672653309E+02  0.69266196496E+02  0.00000000000E+00 0.  1.
         21    1    1    2  505  502  0.15794316947E+01  0.33623985245E+02  0.69806704683E+02  0.77498664549E+02  0.00000000000E+00 0.  1.
          4    1    1    2  501    0 -0.53936260932E+02 -0.29933413209E+02 -0.75981072064E+02  0.97868548480E+02  0.00000000000E+00 0.  1.
<scales pt_clust_3="81.84275" pt_clust_4="14000.00000" pt_clust_5="33.66106" pt_clust_6="59.90359"></scales>
<clustering>
<clus scale="   33.661">  1  5  2 -1</clus>
<clus scale="   59.904">  2  6  1 -1</clus>
<clus scale="   81.843">  1  3  2 -1</clus>
<clus scale="   33.661">  1  3  2 -1</clus>
</clustering>
</event>
<event>
 6    0  0.6338511E+002  0.1586405E+03  0.7546771E-02  0.1190240E+00
          2   -1    0    0  504    0 -0.00000000000E+00  0.00000000000E+00  0.26079510416E+04  0.26079510416E+04  0.00000000000E+00 0. -1.
         21   -1    0    0  505  502  0.00000000000E+00 -0.00000000000E+00 -0.17800884339E+03  0.17800884339E+03  0.00000000000E+00 0. -1.
         21    1    1    2  503  502 -0.70592560431E+02 -0.18837995294E+02 -0.90956554200E+02  0.11666736650E+03  0.00000000000E+00 0. -1.
         21    1    1    2  504  503 -0.40758960385E+02 -0.71036011736E+02 -0.47112678200E+02  0.94482867559E+02  0.00000000000E+00 0. -1.
         21    1    1    2  505  501  0.53890685993E+02  0.98337773994E+02  0.11118737405E+04  0.11175140888E+04  0.00000000000E+00 0. -1.
          2    1    1    2  501    0  0.57460834824E+02 -0.84637669648E+01  0.14561376901E+04  0.14572955621E+04  0.00000000000E+00 0. -1.
<scales pt_clust_3="66.98821" pt_clust_4="66.98821" pt_clust_5="141.85208" pt_clust_6="58.08083"></scales>
<clustering>
<clus scale="   58.081">  1  6  2 -1</clus>
<clus scale="   66.988">  3  4 -1 -1</clus>
<clus scale="  141.852">  1  5  2 -1</clus>
<clus scale="  158.641">  2  3  1 -1</clus>
</clustering>
</event>
<event>
 6    0  0.6338511E+002  0.1504905E+03  0.7546771E-02  0.1199872E+00
         21   -1    0    0  503  502  0.00000000000E+00  0.00000000000E+00  0.18371132447E+03  0.18371132447E+03  0.00000000000E+00 0. -1.
          2   -1    0    0  505    0 -0.00000000000E+00 -0.00000000000E+00 -0.20944526548E+04  0.20944526548E+04  0.00000000000E+00 0. -1.
         21    1    1    2  503  504  0.94074918332E+01  0.28905827757E+02  0.99798486800E+02  0.10432538401E+03  0.00000000000E+00 0. -1.
         21    1    1    2  504  501 -0.13348721542E+03  0.28901703284E+02 -0.14463498208E+03  0.19893069943E+03  0.00000000000E+00 0. -1.
         21    1    1    2  505  502  0.13668247813E+03 -0.96079386333E+02 -0.74298665631E+02  0.18284868067E+03  0.00000000000E+00 0. -1.
          2    1    1    2  501    0 -0.12602754544E+02  0.38271855291E+02 -0.17916061694E+04  0.17920592151E+04  0.00000000000E+00 0. -1.
<scales pt_clust_3="30.39815" pt_clust_4="14000.00000" pt_clust_5="150.49050" pt_clust_6="40.36152"></scales>
<clustering>
<clus scale="   30.398">  1  3  2 -1</clus>
<clus scale="   40.362">  2  6  1 -1</clus>
<clus scale="  150.490">  1  5  2 -1</clus>
<clus scale="   30.398">  1  3  2 -1</clus>
</clustering>
</event>
<event>
 6    0  0.6338511E+002  0.8903035E+02  0.7546771E-02  0.1305217E+00
          1   -1    0    0  504    0 -0.00000000000E+00  0.00000000000E+00  0.92925623906E+02  0.92925623906E+02  0.00000000000E+00 0. -1.
         21   -1    0    0  503  502  0.00000000000E+00 -0.00000000000E+00 -0.17617491345E+04  0.17617491345E+04  0.00000000000E+00 0.  1.
         21    1    1    2  503  501  0.40453399243E+02  0.39648263986E+02 -0.31221447495E+03  0.31731111030E+03  0.00000000000E+00 0.  1.
         21    1    1    2  504  505  0.69017841404E+02 -0.74664761405E+02 -0.18220874096E+03  0.20865836746E+03  0.00000000000E+00 0. -1.
         21    1    1    2  505  502 -0.22391373921E+02  0.57463576221E+02 -0.12243064704E+04  0.12258587886E+04  0.00000000000E+00 0.  1.
          1    1    1    2  501    0 -0.87079866726E+02 -0.22447078803E+02  0.49906175748E+02  0.10284649198E+03  0.00000000000E+00 0. -1.
<scales pt_clust_3="56.64329" pt_clust_4="86.30516" pt_clust_5="14000.00000" pt_clust_6="89.03035"></scales>
<clustering>
<clus scale="   56.643">  2  3  1 -1</clus>
<clus scale="   89.030">  1  6  2 -1</clus>
<clus scale="   86.305">  1  4  2 -1</clus>
<clus scale="   56.643">  2  3  1 -1</clus>
</clustering>
</event>
<event>
 6    0  0.6338511E+002  0.1330714E+03  0.7546771E-02  0.1222968E+00
         21   -1    0    0  505  502  0.00000000000E+00  0.00000000000E+00  0.11387834823E+04  0.11387834823E+04  0.00000000000E+00 0.  1.
          2   -1    0    0  503    0 -0.00000000000E+00 -0.00000000000E+00 -0.58547477523E+03  0.58547477523E+03  0.00000000000E+00 0.  1.
         21    1    1    2  503  502  0.82864880805E+02 -0.91435195406E+02  0.21245427788E+03  0.24569046302E+03  0.00000000000E+00 0.  1.
         21    1    1    2  504  501 -0.97408640250E+02  0.13790798330E+02 -0.15240549807E+02  0.99553521647E+02  0.00000000000E+00 0.  1.
         21    1    1    2  505  504 -0.67296216818E+01  0.14442448866E+03  0.85908422498E+03  0.87116555622E+03  0.00000000000E+00 0.  1.
          2    1    1    2  501    0  0.21273381127E+02 -0.66780091582E+02 -0.50298924601E+03  0.50784871662E+03  0.00000000000E+00 0.  1.
<scales pt_clust_3="133.07138" pt_clust_4="88.94758" pt_clust_5="14000.00000" pt_clust_6="70.08664"></scales>
<clustering>
<clus scale="   70.087">  2  6  1 -1</clus>
<clus scale="   88.948">  2  4  1 -1</clus>
<clus scale="  133.071">  2  3  1 -1</clus>
<clus scale="  133.071">  1  3  2 -1</clus>
</clustering>
</event>
<event>
 6    0  0.6338511E+002  0.1030718E+03  0.7546771E-02  0.1273966E+00
         21   -1    0    0  505  502  0.00000000000E+00  0.00000000000E+00  0.10349573525E+04  0.10349573525E+04  0.00000000000E+00 0. -1.
          1   -1    0    0  504    0 -0.00000000000E+00 -0.00000000000E+00 -0.30108139268E+03  0.30108139268E+03  0.00000000000E+00 0. -1.
         21    1    1    2  503  502 -0.84184792010E+02 -0.86328107534E+01  0.51974101411E+03  0.52658553567E+03  0.00000000000E+00 0. -1.
         21    1    1    2  504  503 -0.64620814860E+02 -0.19438196639E+02  0.21909218395E+02  0.70948622625E+02  0.00000000000E+00 0. -1.
         21    1    1    2  505  501  0.36519588136E+02  0.46105125660E+02  0.45153693720E+03  0.45535147808E+03  0.00000000000E+00 0. -1.
          1    1    1    2  501    0  0.11228601873E+03 -0.18034118268E+02 -0.25931120992E+03  0.28315310878E+03  0.00000000000E+00 0. -1.
<scales pt_clust_3="60.93927" pt_clust_4="103.07180" pt_clust_5="58.81635" pt_clust_6="14000.00000"></scales>
<clustering>
<clus scale="   58.816">  1  5  2 -1</clus>
<clus scale="   60.939">  1  3  2 -1</clus>
<clus scale="  103.072">  1  4  2 -1</clus>
<clus scale="   58.816">  1  3  2 -1</clus>
</clustering>
</event>
<event>
 6    0  0.6338511E+002  0.8789981E+02  0.7546771E-02  0.1308019E+00
         -1   -1    0    0    0  501 -0.00000000000E+00  0.00000000000E+00  0.16592413142E+03  0.16592413142E+03  0.00000000000E+00 0. -1.
         21   -1    0    0  503  502  0.00000000000E+00 -0.00000000000E+00 -0.94788430914E+03  0.94788430914E+03  0.00000000000E+00 0.  1.
         21    1    1    2  503  505 -0.98388351329E+02  0.35621820349E+02 -0.30224993354E+02  0.10891616953E+03  0.00000000000E+00 0.  1.
         21    1    1    2  504  502  0.84341243235E+02 -0.20932558371E+02 -0.77560670981E+03  0.78045972709E+03  0.00000000000E+00 0.  1.
         21    1    1    2  505  501  0.48742532081E+02 -0.19792146397E+02 -0.90569097678E+02  0.10473931901E+03  0.00000000000E+00 0.  1.
         -1    1    1    2    0  504 -0.34695423987E+02  0.51028844189E+01  0.11444062311E+03  0.11969322493E+03  0.00000000000E+00 0. -1.
<scales pt_clust_3="87.89981" pt_clust_4="14000.00000" pt_clust_5="47.68276" pt_clust_6="35.06867"></scales>
<clustering>
<clus scale="   35.069">  1  6  2 -1</clus>
<clus scale="   47.683">  1  5  2 -1</clus>
<clus scale="   87.900">  1  3  2 -1</clus>
<clus scale="   87.900">  2  3  1 -1</clus>
</clustering>
</event>
<event>
 6    0  0.6338511E+002  0.7698813E+02  0.7546771E-02  0.1337823E+00
         -1   -1    0    0    0  501 -0.00000000000E+00  0.00000000000E+00  0.12095656648E+04  0.12095656648E+04  0.00000000000E+00 0. -1.
         21   -1    0    0  505  502  0.00000000000E+00 -0.00000000000E+00 -0.23703181233E+03  0.23703181233E+03  0.00000000000E+00 0. -1.
         21    1    1    2  503  501  0.16984039628E+02  0.56171150484E+02  0.10050988142E+03  0.11638682061E+03  0.00000000000E+00 0.  1.
         21    1    1    2  504  502  0.97258264090E+02 -0.75039982075E+02  0.15994514957E+03  0.20167453908E+03  0.00000000000E+00 0.  1.
         21    1    1    2  505  503 -0.39718242434E+02  0.11661860281E+02 -0.20462994169E+03  0.20877488069E+03  0.00000000000E+00 0. -1.
         -1    1    1    2    0  504 -0.74524061284E+02  0.72069713097E+01  0.91670876321E+03  0.91976123678E+03  0.00000000000E+00 0. -1.
<scales pt_clust_3="59.58886" pt_clust_4="76.98813" pt_clust_5="41.39490" pt_clust_6="14000.00000"></scales>
<clustering>
<clus scale="   41.395">  2  5  1 -1</clus>
<clus scale="   59.589">  2  3  1 -1</clus>
<clus scale="   76.988">  2  4  1 -1</clus>
<clus scale="   41.395">  2  3  1 -1</clus>
</clustering>
</event>
<event>
 6    0  0.6338511E+002  0.8025393E+02  0.7546771E-02  0.1328332E+00
          2   -1    0    0  505    0 -0.00000000000E+00  0.00000000000E+00  0.19321105038E+04  0.19321105038E+04  0.00000000000E+00 0.  1.
         21   -1    0    0  504  502  0.00000000000E+00 -0.00000000000E+00 -0.16338141139E+02  0.16338141139E+02  0.00000000000E+00 0. -1.
         21    1    1    2  503  502  0.41945476316E+02 -0.44811404257E+02  0.18601839219E+03  0.19588345302E+03  0.00000000000E+00 0. -1.
         21    1    1    2  504  501 -0.99651292938E+02 -0.20643627535E+02  0.27814664688E+03  0.29617916320E+03  0.00000000000E+00 0. -1.
         21    1    1    2  505  503  0.33801281212E+02  0.26652086124E+01  0.19075612866E+03  0.19374604659E+03  0.00000000000E+00 0. -1.
          2    1    1    2  501    0  0.23904535409E+02  0.62789823179E+02  0.12608511950E+04  0.12626399822E+04  0.00000000000E+00 0.  1.
<scales pt_clust_3="63.76777" pt_clust_4="14000.00000" pt_clust_5="33.90619" pt_clust_6="80.25393"></scales>
<clustering>
<clus scale="   33.906">  1  5  2 -1</clus>
<clus scale="   63.768">  2  3  1 -1</clus>
<clus scale="   80.254">  1  6  2 -1</clus>
<clus scale="   63.768">  2  3  1 -1</clus>
</clustering>
</event>
<event>
 6    0  0.6338511E+002  0.1625373E+03  0.7546771E-02  0.1185862E+00
         21   -1    0    0  504  502  0.00000000000E+00  0.00000000000E+00  0.78563852956E+03  0.78563852956E+03  0.00000000000E+00 0.  1.
          2   -1    0    0  505    0 -0.00000000000E+00 -0.00000000000E+00 -0.52465057135E+03  0.52465057135E+03  0.00000000000E+00 0.  1.
         21    1    1    2  503  501  0.11957602932E+03  0.18993964552E+02 -0.57511914434E+02  0.13404035877E+03  0.00000000000E+00 0.  1.
         21    1    1    2  504  503 -0.14150780611E+03  0.15985121268E+02  0.71479642598E+03  0.72884423156E+03  0.00000000000E+00 0.  1.
         21    1    1    2  505  502 -0.32218612146E+02 -0.83061827185E+00  0.11796684060E+02  0.34320411567E+02  0.00000000000E+00 0.  1.
          2    1    1    2  501    0  0.54150388937E+02 -0.34148467549E+02 -0.40809323738E+03  0.41308409901E+03  0.00000000000E+00 0.  1.
<scales pt_clust_3="162.53731" pt_clust_4="14000.00000" pt_clust_5="32.22932" pt_clust_6="63.93091"></scales>
<clustering>
<clus scale="   32.229">  1  5  2 -1</clus>
<clus scale="   63.931">  2  6  1 -1</clus>
<clus scale="  162.537">  2  3  1 -1</clus>
<clus scale="   32.229">  1  3  2 -1</clus>
</clustering>
</event>
<event>
 6    0  0.6338511E+002  0.1834342E+03  0.7546771E-02  0.1164520E+00
         21   -1    0    0  503  502  0.00000000000E+00  0.00000000000E+00  0.69656081047E+03  0.69656081047E+03  0.00000000000E+00 0. -1.
          1   -1    0    0  504    0 -0.00000000000E+00 -0.00000000000E+00 -0.73616423381E+03  0.73616423381E+03  0.00000000000E+00 0.  1.
         21    1    1    2  503  501 -0.38737701229E+02 -0.35210968135E+02  0.48245801943E+03  0.48528977146E+03  0.00000000000E+00 0. -1.
         21    1    1    2  504  505 -0.17819513413E+03  0.34554318552E+02 -0.30759844013E+03  0.35716145807E+03  0.00000000000E+00 0. -1.
         21    1    1    2  505  502  0.29723960169E+02 -0.56307775871E+01  0.16465228961E+03  0.16740847033E+03  0.00000000000E+00 0.  1.
          1    1    1    2  501    0  0.18720887519E+03  0.62874271703E+01 -0.37911529225E+03  0.42286534442E+03  0.00000000000E+00 0.  1.
<scales pt_clust_3="41.98868" pt_clust_4="14000.00000" pt_clust_5="30.25259" pt_clust_6="183.43420"></scales>
<clustering>
<clus scale="   30.253">  1  5  2 -1</clus>
<clus scale="   41.989">  1  3  2 -1</clus>
<clus scale="  183.434">  2  6  1 -1</clus>
<clus scale="   30.253">  1  3  2 -1</clus>
</clustering>
</event>
<event>
 6    0  0.6338511E+002  0.2461840E+03  0.7546771E-02  0.1115740E+00
          2   -1    0    0  502    0 -0.00000000000E+00  0.00000000000E+00  0.15554719729E+04  0.15554719729E+04  0.00000000000E+00 0. -1.
         21   -1    0    0  505  502  0.00000000000E+00 -0.00000000000E+00 -0.66145135858E+03  0.66145135858E+03  0.00000000000E+00 0. -1.
         21    1    1    2  503  504 -0.66550046967E+02  0.22870006392E+03 -0.17831924477E+02  0.23885268581E+03  0.00000000000E+00 0. -1.
         21    1    1    2  504  501 -0.79224873856E+02 -0.25289443747E+03  0.46113281541E+03  0.53186055559E+03  0.00000000000E+00 0.  1.
         21    1    1    2  505  503  0.10972354421E+03  0.18807822745E+02 -0.49116366227E+03  0.50362161738E+03  0.00000000000E+00 0. -1.
          2    1    1    2  501    0  0.36051376608E+02  0.53865508104E+01  0.94188338569E+03  0.94258847273E+03  0.00000000000E+00 0. -1.
<scales pt_clust_3="246.18397" pt_clust_4="14000.00000" pt_clust_5="111.69398" pt_clust_6="36.45157"></scales>
<clustering>
<clus scale="   36.452">  1  6  2 -1</clus>
<clus scale="  111.694">  2  5  1 -1</clus>
<clus scale="  246.184">  2  3  1 -1</clus>
<clus scale="  111.694">  2  3  1 -1</clus>
</clustering>
</event>
<event>
 6    0  0.6338511E+002  0.1050451E+03  0.7546771E-02  0.1270031E+00
         21   -1    0    0  504  502  0.00000000000E+00  0.00000000000E+00  0.50999924333E+02  0.50999924333E+02  0.00000000000E+00 0. -1.
          2   -1    0    0  505    0 -0.00000000000E+00 -0.00000000000E+00 -0.72874953015E+03  0.72874953015E+03  0.00000000000E+00 0. -1.
         21    1    1    2  503  502  0.42719669245E+01  0.47348684260E+02 -0.75972709143E+02  0.89621426774E+02  0.00000000000E+00 0. -1.
         21    1    1    2  504  501 -0.27463375890E+02 -0.27441286487E+02  0.19102563676E+02  0.43268570098E+02  0.00000000000E+00 0. -1.
         21    1    1    2  505  503  0.63814504563E+02  0.53710695256E+02 -0.18485235411E+03  0.20279921745E+03  0.00000000000E+00 0. -1.
          2    1    1    2  501    0 -0.40623095597E+02 -0.73618093029E+02 -0.43602710624E+03  0.44406024016E+03  0.00000000000E+00 0. -1.
<scales pt_clust_3="38.72722" pt_clust_4="38.82346" pt_clust_5="38.72722" pt_clust_6="91.66853"></scales>
<clustering>
<clus scale="   38.727">  3  5 -1 -1</clus>
<clus scale="   38.823">  1  4  2 -1</clus>
<clus scale="   91.669">  2  6  1 -1</clus>
<clus scale="   38.823">  1  3  2 -1</clus>
</clustering>
</event>
<event>
 6    0  0.6338511E+002  0.1101884E+03  0.7546771E-02  0.1260221E+00
         21   -1    0    0  505  502  0.00000000000E+00  0.00000000000E+00  0.77179944631E+03  0.77179944631E+03  0.00000000000E+00 0. -1.
          2   -1    0    0  503    0 -0.00000000000E+00 -0.00000000000E+00 -0.11939665948E+04  0.11939665948E+04  0.00000000000E+00 0.  1.
         21    1    1    2  503  504  0.66241055262E+02  0.72554179044E+02 -0.50355234301E+03  0.51304673125E+03  0.00000000000E+00 0.  1.
         21    1    1    2  504  502 -0.12152410000E+03 -0.72112793182E+02  0.72667764900E+03  0.74028965100E+03  0.00000000000E+00 0. -1.
         21    1    1    2  505  501  0.25423634411E+02  0.17874027881E+02  0.25819546227E+02  0.40404096658E+02  0.00000000000E+00 0. -1.
          2    1    1    2  501    0  0.29859410330E+02 -0.18315413743E+02 -0.67111200069E+03  0.67202556218E+03  0.00000000000E+00 0.  1.
<scales pt_clust_3="110.18837" pt_clust_4="14000.00000" pt_clust_5="31.07800" pt_clust_6="35.03674"></scales>
<clustering>
<clus scale="   31.078">  1  5  2 -1</clus>
<clus scale="   35.037">  2  6  1 -1</clus>
<clus scale="  110.188">  2  3  1 -1</clus>
<clus scale="   31.078">  1  3  2 -1</clus>
</clustering>
</event>
<event>
 6    0  0.6338511E+002  0.7952651E+02  0.7546771E-02  0.1330401E+00
         21   -1    0    0  503  502  0.00000000000E+00  0.00000000000E+00  0.37462829000E+02  0.37462829000E+02  0.00000000000E+00 0.  1.
          1   -1    0    0  504    0 -0.00000000000E+00 -0.00000000000E+00 -0.12141857787E+04  0.12141857787E+04  0.00000000000E+00 0.  1.
         21    1    1    2  503  505 -0.33016932560E+02 -0.85443442374E+01 -0.22545507250E+01  0.34179038212E+02  0.00000000000E+00 0.  1.
         21    1    1    2  504  502  0.56272183361E+02  0.19455383807E+01 -0.17264499863E+03  0.18159471163E+03  0.00000000000E+00 0. -1.
         21    1    1    2  505  501 -0.33623137497E+02  0.84420900060E+02 -0.11980064000E+03  0.15036487983E+03  0.00000000000E+00 0.  1.
          1    1    1    2  501    0  0.10367886696E+02 -0.77822094203E+02 -0.88202276032E+03  0.88550997800E+03  0.00000000000E+00 0.  1.
<scales pt_clust_3="34.10460" pt_clust_4="49.40074" pt_clust_5="14000.00000" pt_clust_6="79.52651"></scales>
<clustering>
<clus scale="   34.105">  1  3  2 -1</clus>
<clus scale="   49.401">  1  4  2 -1</clus>
<clus scale="   79.527">  2  6  1 -1</clus>
<clus scale="   34.105">  1  3  2 -1</clus>
</clustering>
</event>
<event>
 6    0  0.6338511E+002  0.8728508E+02  0.7546771E-02  0.1309563E+00
         21   -1    0    0  503  502  0.00000000000E+00  0.00000000000E+00  0.21095147778E+03  0.21095147778E+03  0.00000000000E+00 0.  1.
          1   -1    0    0  504    0 -0.00000000000E+00 -0.00000000000E+00 -0.13073447163E+04  0.13073447163E+04  0.00000000000E+00 0. -1.
         21    1    1    2  503  501 -0.36719495618E+02 -0.88070108547E+02  0.41266935851E+02  0.10395972957E+03  0.00000000000E+00 0.  1.
         21    1    1    2  504  505 -0.40678010708E+02  0.24119927184E+01 -0.13083834920E+03  0.13703719161E+03  0.00000000000E+00 0. -1.
         21    1    1    2  505  502  0.62576930616E+02  0.59232774336E+02  0.12129005502E+03  0.14878061449E+03  0.00000000000E+00 0.  1.
          1    1    1    2  501    0  0.14820575710E+02  0.26425341492E+02 -0.11281118802E+04  0.11285186584E+04  0.00000000000E+00 0. -1.
<scales pt_clust_3="14000.00000" pt_clust_4="36.98120" pt_clust_5="87.28508" pt_clust_6="30.29766"></scales>
<clustering>
<clus scale="   30.298">  2  6  1 -1</clus>
<clus scale="   36.981">  2  4  1 -1</clus>
<clus scale="   87.285">  1  5  2 -1</clus>
<clus scale="   87.285">  1  3  2 -1</clus>
</clustering>
</event>
<event>
 6    0  0.6338511E+002  0.1902715E+03  0.7546771E-02  0.1158217E+00
          1   -1    0    0  503    0 -0.00000000000E+00  0.00000000000E+00  0.25194375838E+03  0.25194375838E+03  0.00000000000E+00 0. -1.
         21   -1    0    0  505  502  0.00000000000E+00 -0.00000000000E+00 -0.24734030934E+03  0.24734030934E+03  0.00000000000E+00 0. -1.
         21    1    1    2  503  504 -0.97067904711E+02  0.10260309773E+03 -0.29138831290E+02  0.14421735429E+03  0.00000000000E+00 0. -1.
         21    1    1    2  504  502 -0.55146949588E+02  0.24756807174E+02 -0.78292918335E+02  0.98913429886E+02  0.00000000000E+00 0. -1.
         21    1    1    2  505  501  0.11118487330E+03 -0.75758044949E+02  0.10312888316E+02  0.13493595922E+03  0.00000000000E+00 0. -1.
          1    1    1    2  501    0  0.41029981000E+02 -0.51601859958E+02  0.10172231035E+03  0.12121732432E+03  0.00000000000E+00 0. -1.
<scales pt_clust_3="59.17208" pt_clust_4="59.17208" pt_clust_5="167.39817" pt_clust_6="65.92580"></scales>
<clustering>
<clus scale="   59.172">  3  4 -1 -1</clus>
<clus scale="   65.926">  1  6  2 -1</clus>
<clus scale="  167.398">  1  5  2 -1</clus>
<clus scale="  190.271">  2  3  1 -1</clus>
</clustering>
</event>
<event>
 6    0  0.6338511E+002  0.1095813E+03  0.7546771E-02  0.1261347E+00
          2   -1    0    0  503    0 -0.00000000000E+00  0.00000000000E+00  0.24739767998E+04  0.24739767998E+04  0.00000000000E+00 0. -1.
         21   -1    0    0  505  502  0.00000000000E+00 -0.00000000000E+00 -0.13442689544E+04  0.13442689544E+04  0.00000000000E+00 0. -1.
         21    1    1    2  503  502 -0.44101154099E+02  0.11147994789E+01  0.59844273649E+02  0.74347102562E+02  0.00000000000E+00 0. -1.
         21    1    1    2  504  501  0.12305352746E+03 -0.33111608329E+02  0.29299599787E+03  0.31950775264E+03  0.00000000000E+00 0. -1.
         21    1    1    2  505  504 -0.75924771769E+02  0.79018813954E+02 -0.13212288065E+04  0.13257654781E+04  0.00000000000E+00 0. -1.
          2    1    1    2  501    0 -0.30276015953E+01 -0.47022005104E+02  0.20980963804E+04  0.20986254208E+04  0.00000000000E+00 0. -1.
<scales pt_clust_3="44.11524" pt_clust_4="14000.00000" pt_clust_5="109.58126" pt_clust_6="61.97459"></scales>
<clustering>
<clus scale="   44.115">  1  3  2 -1</clus>
<clus scale="   61.975">  1  6  2 -1</clus>
<clus scale="  109.581">  2  5  1 -1</clus>
<clus scale="  109.581">  2  3  1 -1</clus>
</clustering>
</event>
<event>
 6    0  0.6338511E+002  0.9893356E+02  0.7546771E-02  0.1282555E+00
         21   -1    0    0  505  502  0.00000000000E+00  0.00000000000E+00  0.10765319785E+03  0.10765319785E+03  0.00000000000E+00 0. -1.
          2   -1    0    0  504    0 -0.00000000000E+00 -0.00000000000E+00 -0.26348788053E+04  0.26348788053E+04  0.00000000000E+00 0. -1.
         21    1    1    2  503  502 -0.10904079283E+03 -0.38912023874E+02  0.18872874921E+02  0.11730398762E+03  0.00000000000E+00 0. -1.
         21    1    1    2  504  503  0.42507117324E+02 -0.56143969548E+02 -0.60432742111E+02  0.92796102606E+02  0.00000000000E+00 0. -1.
         21    1    1    2  505  501  0.30178018280E+02  0.87703383967E+02 -0.69297084306E+02  0.11577859146E+03  0.00000000000E+00 0. -1.
          2    1    1    2  501    0  0.36355657227E+02  0.73526094561E+01 -0.24163686560E+04  0.24166533215E+04  0.00000000000E+00 0. -1.
<scales pt_clust_3="14000.00000" pt_clust_4="76.96155" pt_clust_5="98.93356" pt_clust_6="37.09171"></scales>
<clustering>
<clus scale="   37.092">  2  6  1 -1</clus>
<clus scale="   76.962">  2  4  1 -1</clus>
<clus scale="   98.934">  2  5  1 -1</clus>
<clus scale="   98.934">  1  3  2 -1</clus>
</clustering>
</event>
<event>
 6    0  0.6338511E+002  0.1387123E+03  0.7546771E-02  0.1215072E+00
          2   -1    0    0  503    0 -0.00000000000E+00  0.00000000000E+00  0.33060186734E+04  0.33060186734E+04  0.00000000000E+00 0.  1.
         21   -1    0    0  504  502  0.00000000000E+00 -0.00000000000E+00 -0.43405649093E+02  0.43405649093E+02  0.00000000000E+00 0.  1.
         21    1    1    2  503  502 -0.46718469621E+02  0.85711817197E+02  0.12946451006E+04  0.12983200944E+04  0.00000000000E+00 0.  1.
         21    1    1    2  504  505  0.78480823031E+02 -0.60058866455E+02  0.33140660109E+02  0.10423344174E+03  0.00000000000E+00 0.  1.
         21    1    1    2  505  501  0.32929887358E+02 -0.10578018588E+02  0.49570940883E+02  0.60444603883E+02  0.00000000000E+00 0.  1.
          2    1    1    2  501    0 -0.64692240767E+02 -0.15074932153E+02  0.18852563227E+04  0.18864261825E+04  0.00000000000E+00 0.  1.
<scales pt_clust_3="127.92723" pt_clust_4="31.72482" pt_clust_5="31.72482" pt_clust_6="66.42544"></scales>
<clustering>
<clus scale="   31.725">  4  5 -1 -1</clus>
<clus scale="   66.425">  1  6  2 -1</clus>
<clus scale="  127.927">  1  3  2 -1</clus>
<clus scale="  138.712">  2  3  1 -1</clus>
</clustering>
</event>
<event>
 6    0  0.6338511E+002  0.1688554E+03  0.7546771E-02  0.1179047E+00
          1   -1    0    0  505    0 -0.00000000000E+00  0.00000000000E+00  0.32048910105E+03  0.32048910105E+03  0.00000000000E+00 0.  1.
         21   -1    0    0  503  502  0.00000000000E+00 -0.00000000000E+00 -0.23426163970E+04  0.23426163970E+04  0.00000000000E+00 0.  1.
         21    1    1    2  503  501  0.12309946081E+03 -0.10042178128E+03 -0.15842453911E+04  0.15921907770E+04  0.00000000000E+00 0.  1.
         21    1    1    2  504  502  0.26301972905E+02  0.26373022943E+02 -0.54141487594E+03  0.54269457157E+03  0.00000000000E+00 0. -1.
         21    1    1    2  505  504 -0.24724958988E+03  0.19325733110E+01 -0.11919103388E+03  0.27448605993E+03  0.00000000000E+00 0. -1.
          1    1    1    2  501    0  0.97848156171E+02  0.72116185022E+02  0.22272400493E+03  0.25373408952E+03  0.00000000000E+00 0.  1.
<scales pt_clust_3="168.85536" pt_clust_4="37.24688" pt_clust_5="14000.00000" pt_clust_6="121.86955"></scales>
<clustering>
<clus scale="   37.247">  2  4  1 -1</clus>
<clus scale="  121.870">  1  6  2 -1</clus>
<clus scale="  168.855">  2  3  1 -1</clus>
<clus scale="   37.247">  2  3  1 -1</clus>
</clustering>
</event>
<event>
 6    0  0.6338511E+002  0.2406947E+03  0.7546771E-02  0.1119331E+00
         21   -1    0    0  504  502  0.00000000000E+00  0.00000000000E+00  0.21310338061E+03  0.21310338061E+03  0.00000000000E+00 0.  1.
          1   -1    0    0  505    0 -0.00000000000E+00 -0.00000000000E+00 -0.18933275673E+04  0.18933275673E+04  0.00000000000E+00 0.  1.
         21    1    1    2  503  502  0.30207140899E+03 -0.64023531702E+02 -0.25127605831E+02  0.30980242948E+03  0.00000000000E+00 0.  1.
         21    1    1    2  504  501 -0.67909059226E+02  0.43838505657E+02  0.27416593590E+02  0.85352940824E+02  0.00000000000E+00 0.  1.
         21    1    1    2  505  503 -0.11492276954E+02 -0.36808834351E+02 -0.74501796067E+03  0.74601523070E+03  0.00000000000E+00 0.  1.
          1    1    1    2  501    0 -0.22267007281E+03  0.56993860396E+02 -0.93749521375E+03  0.96526034688E+03  0.00000000000E+00 0.  1.
<scales pt_clust_3="240.69468" pt_clust_4="80.57509" pt_clust_5="38.56116" pt_clust_6="14000.00000"></scales>
<clustering>
<clus scale="   38.561">  2  5  1 -1</clus>
<clus scale="   80.575">  1  4  2 -1</clus>
<clus scale="  240.695">  1  3  2 -1</clus>
<clus scale="   80.575">  1  3  2 -1</clus>
</clustering>
</event>
<event>
 6    0  0.6338511E+002  0.9134754E+02  0.7546771E-02  0.1299621E+00
         -2   -1    0    0    0  501 -0.00000000000E+00  0.00000000000E+00  0.49116397795E+03  0.49116397795E+03  0.00000000000E+00 0.  1.
         21   -1    0    0  505  502  0.00000000000E+00 -0.00000000000E+00 -0.98283802627E+02  0.98283802627E+02  0.00000000000E+00 0. -1.
         21    1    1    2  503  502 -0.28642459275E+01 -0.31299187302E+02 -0.32622200428E+02  0.45299569438E+02  0.00000000000E+00 0. -1.
         21    1    1    2  504  503  0.68091289673E+01 -0.78140429263E+02  0.18309693170E+02  0.80545240621E+02  0.00000000000E+00 0. -1.
         21    1    1    2  505  501  0.49744270713E+02  0.96658676973E+02  0.88529102528E+02  0.14019555734E+03  0.00000000000E+00 0. -1.
         -2    1    1    2    0  504 -0.53689153753E+02  0.12780939592E+02  0.31866358006E+03  0.32340741318E+03  0.00000000000E+00 0.  1.
<scales pt_clust_3="31.42997" pt_clust_4="91.34754" pt_clust_5="14000.00000" pt_clust_6="55.02513"></scales>
<clustering>
<clus scale="   31.430">  2  3  1 -1</clus>
<clus scale="   55.025">  1  6  2 -1</clus>
<clus scale="   91.348">  2  4  1 -1</clus>
<clus scale="   31.430">  2  3  1 -1</clus>
</clustering>
</event>
<event>
 6    0  0.6338511E+002  0.1185261E+03  0.7546771E-02  0.1245549E+00
          2   -1    0    0  504    0 -0.00000000000E+00  0.00000000000E+00  0.43701459851E+04  0.43701459851E+04  0.00000000000E+00 0. -1.
         21   -1    0    0  503  502  0.00000000000E+00 -0.00000000000E+00 -0.28108077669E+03  0.28108077669E+03  0.00000000000E+00 0.  1.
         21    1    1    2  503  501  0.37787433765E+02 -0.11567853413E+02 -0.16697552024E+03  0.17158825643E+03  0.00000000000E+00 0.  1.
         21    1    1    2  504  505 -0.25501746354E+02  0.50546920971E+02  0.90032730961E+03  0.90210564498E+03  0.00000000000E+00 0. -1.
         21    1    1    2  505  502 -0.37730523357E+01 -0.10284444333E+03 -0.86669694894E+02  0.13454683743E+03  0.00000000000E+00 0.  1.
          2    1    1    2  501    0 -0.85126350751E+01  0.63865375774E+02  0.34423831139E+04  0.34429860229E+04  0.00000000000E+00 0. -1.
<scales pt_clust_3="39.51842" pt_clust_4="56.39858" pt_clust_5="118.52606" pt_clust_6="14000.00000"></scales>
<clustering>
<clus scale="   39.518">  2  3  1 -1</clus>
<clus scale="   56.399">  1  4  2 -1</clus>
<clus scale="  118.526">  2  5  1 -1</clus>
<clus scale="   39.518">  2  3  1 -1</clus>
</clustering>
</event>
<event>
 6    0  0.6338511E+002  0.1695471E+03  0.7546771E-02  0.1178321E+00
          2   -1    0    0  505    0 -0.00000000000E+00  0.00000000000E+00  0.30251839674E+04  0.30251839674E+04  0.00000000000E+00 0.  1.
         21   -1    0    0  503  502  0.00000000000E+00 -0.00000000000E+00 -0.58561285474E+02  0.58561285474E+02  0.00000000000E+00 0. -1.
         21    1    1    2  503  504  0.45578654447E+02  0.33465405959E+02  0.93142123417E+01  0.57307082361E+02  0.00000000000E+00 0. -1.
         21    1    1    2  504  501  0.66189523399E+02  0.74963556348E+02  0.10521485932E+03  0.14515768809E+03  0.00000000000E+00 0. -1.
         21    1    1    2  505  502 -0.56644876660E+02  0.41137789556E+02  0.87333168849E+02  0.11192873698E+03  0.00000000000E+00 0. -1.
          2    1    1    2  501    0 -0.55123301186E+02 -0.14956675186E+03  0.27647604414E+04  0.27693517455E+04  0.00000000000E+00 0.  1.
<scales pt_clust_3="45.28053" pt_clust_4="45.28053" pt_clust_5="70.00686" pt_clust_6="158.49327"></scales>
<clustering>
<clus scale="   45.281">  3  4 -1 -1</clus>
<clus scale="   70.007">  2  5  1 -1</clus>
<clus scale="  158.493">  1  6  2 -1</clus>
<clus scale="   70.007">  2  3  1 -1</clus>
</clustering>
</event>
<event>
 6    0  0.6338511E+002  0.3721987E+03  0.7546771E-02  0.1053855E+00
         21   -1    0    0  505  502  0.00000000000E+00  0.00000000000E+00  0.40012341758E+03  0.40012341758E+03  0.00000000000E+00 0.  1.
          2   -1    0    0  504    0 -0.00000000000E+00 -0.00000000000E+00 -0.18237176721E+04  0.18237176721E+04  0.00000000000E+00 0.  1.
         21    1    1    2  503  502 -0.62559518149E+02 -0.16171727900E+02  0.14872064813E+03  0.16215131598E+03  0.00000000000E+00 0.  1.
         21    1    1    2  504  503 -0.29528886634E+03  0.57449971477E+02 -0.97478984625E+02  0.31622486659E+03  0.00000000000E+00 0.  1.
         21    1    1    2  505  501 -0.17385155475E+02  0.55831886742E+02  0.10423669485E+03  0.11951875067E+03  0.00000000000E+00 0.  1.
          2    1    1    2  501    0  0.37523353997E+03 -0.97110130319E+02 -0.15790726129E+04  0.16259461564E+04  0.00000000000E+00 0.  1.
<scales pt_clust_3="73.27183" pt_clust_4="372.19873" pt_clust_5="58.47601" pt_clust_6="14000.00000"></scales>
<clustering>
<clus scale="   58.476">  1  5  2 -1</clus>
<clus scale="   73.272">  1  3  2 -1</clus>
<clus scale="  372.199">  1  4  2 -1</clus>
<clus scale="   58.476">  1  3  2 -1</clus>
</clustering>
</event>
<event>
 6    0  0.6338511E+002  0.1046008E+03  0.7546771E-02  0.1270908E+00
         21   -1    0    0  505  502  0.00000000000E+00  0.00000000000E+00  0.89489335397E+02  0.89489335397E+02  0.00000000000E+00 0. -1.
         -2   -1    0    0    0  501 -0.00000000000E+00 -0.00000000000E+00 -0.11819885101E+04  0.11819885101E+04  0.00000000000E+00 0. -1.
         21    1    1    2  503  501  0.92407535989E+02  0.90993404393E+01 -0.18219640274E+02  0.94625081219E+02  0.00000000000E+00 0. -1.
         21    1    1    2  504  502 -0.74964840149E+02  0.35045645726E+02 -0.13219910780E+03  0.15596322850E+03  0.00000000000E+00 0.  1.
         21    1    1    2  505  503  0.46940918152E+02  0.23234011046E+02  0.18689077129E+02  0.55610706435E+02  0.00000000000E+00 0. -1.
         -2    1    1    2    0  504 -0.64383613992E+02 -0.67378997212E+02 -0.96076950376E+03  0.96527882934E+03  0.00000000000E+00 0. -1.
<scales pt_clust_3="34.47560" pt_clust_4="82.75219" pt_clust_5="34.47560" pt_clust_6="93.99040"></scales>
<clustering>
<clus scale="   34.476">  3  5 -1 -1</clus>
<clus scale="   82.752">  1  4  2 -1</clus>
<clus scale="   93.990">  2  6  1 -1</clus>
<clus scale="   82.752">  1  3  2 -1</clus>
</clustering>
</event>
<event>
 6    0  0.6338511E+002  0.9150896E+02  0.7546771E-02  0.1299238E+00
          1   -1    0    0  505    0 -0.00000000000E+00  0.00000000000E+00  0.91535089524E+03  0.91535089524E+03  0.00000000000E+00 0.  1.
         21   -1    0    0  503  502  0.00000000000E+00 -0.00000000000E+00 -0.59598268729E+03  0.59598268729E+03  0.00000000000E+00 0.  1.
         21    1    1    2  503  504 -0.21394404414E+01 -0.33924276115E+02 -0.37418811388E+03  0.37572886272E+03  0.00000000000E+00 0.  1.
         21    1    1    2  504  501  0.66394450260E+02 -0.80308484877E+02 -0.17225090066E+03  0.20131579309E+03  0.00000000000E+00 0.  1.
         21    1    1    2  505  502  0.16951115735E+02  0.72176777905E+02  0.11412339893E+02  0.75013792700E+02  0.00000000000E+00 0. -1.
          1    1    1    2  501    0 -0.81206125554E+02  0.42055983087E+02  0.85439488260E+03  0.85927513402E+03  0.00000000000E+00 0.  1.
<scales pt_clust_3="33.99167" pt_clust_4="14000.00000" pt_clust_5="69.32332" pt_clust_6="91.50896"></scales>
<clustering>
<clus scale="   33.992">  2  3  1 -1</clus>
<clus scale="   69.323">  2  5  1 -1</clus>
<clus scale="   91.509">  1  6  2 -1</clus>
<clus scale="   33.992">  2  3  1 -1</clus>
</clustering>
</event>
<event>
 6    0  0.6338511E+002  0.7876513E+02  0.7546771E-02  0.1332593E+00
          2   -1    0    0  505    0 -0.00000000000E+00  0.00000000000E+00  0.59721920579E+03  0.59721920579E+03  0.00000000000E+00 0.  1.
         21   -1    0    0  504  502  0.00000000000E+00 -0.00000000000E+00 -0.15347519350E+03  0.15347519350E+03  0.00000000000E+00 0.  1.
         21    1    1    2  503  502 -0.25403185873E+02 -0.16584527964E+02 -0.12223589634E+03  0.12594436381E+03  0.00000000000E+00 0.  1.
         21    1    1    2  504  501  0.86564186700E+01 -0.56934799836E+02  0.10568394516E+03  0.12035614352E+03  0.00000000000E+00 0.  1.
         21    1    1    2  505  503 -0.65468165304E+02  0.62426340652E+02  0.10075355706E+03  0.13540460825E+03  0.00000000000E+00 0.  1.
          2    1    1    2  501    0  0.82214932507E+02  0.11092987148E+02  0.35954240642E+03  0.36898928372E+03  0.00000000000E+00 0.  1.
<scales pt_clust_3="30.33757" pt_clust_4="61.11903" pt_clust_5="78.76513" pt_clust_6="14000.00000"></scales>
<clustering>
<clus scale="   30.338">  2  3  1 -1</clus>
<clus scale="   61.119">  2  4  1 -1</clus>
<clus scale="   78.765">  2  5  1 -1</clus>
<clus scale="   30.338">  2  3  1 -1</clus>
</clustering>
</event>
<event>
 6    0  0.6338511E+002  0.1045945E+03  0.7546771E-02  0.1270921E+00
          2   -1    0    0  505    0 -0.00000000000E+00  0.00000000000E+00  0.26200239930E+04  0.26200239930E+04  0.00000000000E+00 0.  1.
         21   -1    0    0  503  502  0.00000000000E+00 -0.00000000000E+00 -0.29582275197E+03  0.29582275197E+03  0.00000000000E+00 0. -1.
         21    1    1    2  503  501 -0.23815662196E+02 -0.13434090385E+03  0.12665836345E+03  0.18616392037E+03  0.00000000000E+00 0.  1.
         21    1    1    2  504  502  0.11624024834E+02  0.33758677104E+02 -0.19275713429E+03  0.19603591266E+03  0.00000000000E+00 0. -1.
         21    1    1    2  505  504  0.75283898534E+02  0.41342189754E+02 -0.44895072953E+02  0.96914444783E+02  0.00000000000E+00 0.  1.
          2    1    1    2  501    0 -0.63092261173E+02  0.59240036997E+02  0.24351950849E+04  0.24367324672E+04  0.00000000000E+00 0.  1.
<scales pt_clust_3="14000.00000" pt_clust_4="35.70387" pt_clust_5="104.59450" pt_clust_6="86.65613"></scales>
<clustering>
<clus scale="   35.704">  2  4  1 -1</clus>
<clus scale="   86.656">  1  6  2 -1</clus>
<clus scale="  104.594">  2  5  1 -1</clus>
<clus scale="   35.704">  2  3  1 -1</clus>
</clustering>
</event>
<event>
 6    0  0.6338511E+002  0.1262431E+03  0.7546771E-02  0.1233139E+00
         21   -1    0    0  505  502  0.00000000000E+00  0.00000000000E+00  0.40628704663E+03  0.40628704663E+03  0.00000000000E+00 0.  1.
          1   -1    0    0  504    0 -0.00000000000E+00 -0.00000000000E+00 -0.12233990005E+04  0.12233990005E+04  0.00000000000E+00 0. -1.
         21    1    1    2  503  501 -0.10848299247E+03 -0.16498911262E+02  0.42294014811E+02  0.11759913867E+03  0.00000000000E+00 0.  1.
         21    1    1    2  504  502  0.12900430244E+02  0.12065895087E+03  0.91607638860E+02  0.15204263554E+03  0.00000000000E+00 0.  1.
         21    1    1    2  505  503  0.87344956946E+02  0.22004381262E+02  0.19093654089E+03  0.21111631141E+03  0.00000000000E+00 0.  1.
          1    1    1    2  501    0  0.82376052799E+01 -0.12616442087E+03 -0.11419501484E+04  0.11489279615E+04  0.00000000000E+00 0. -1.
<scales pt_clust_3="74.88407" pt_clust_4="14000.00000" pt_clust_5="90.07405" pt_clust_6="126.24308"></scales>
<clustering>
<clus scale="   90.074">  1  5  2 -1</clus>
<clus scale="   74.884">  1  3  2 -1</clus>
<clus scale="  126.243">  2  6  1 -1</clus>
<clus scale="   90.074">  1  3  2 -1</clus>
</clustering>
</event>
<event>
 6    0  0.6338511E+002  0.1781496E+03  0.7546771E-02  0.1169606E+00
         21   -1    0    0  503  502  0.00000000000E+00  0.00000000000E+00  0.17211167580E+03  0.17211167580E+03  0.00000000000E+00 0. -1.
          1   -1    0    0  502    0 -0.00000000000E+00 -0.00000000000E+00 -0.11309289207E+04  0.11309289207E+04  0.00000000000E+00 0. -1.
         21    1    1    2  503  504  0.14548098812E+02  0.29474444058E+02  0.60644493448E+02  0.68979305717E+02  0.00000000000E+00 0.  1.
         21    1    1    2  504  505 -0.28133971624E+02  0.14631775175E+03 -0.39286655765E+02  0.15409038308E+03  0.00000000000E+00 0. -1.
         21    1    1    2  505  501 -0.19536300226E+02 -0.22067808617E+03 -0.20202614196E+03  0.29982502693E+03  0.00000000000E+00 0. -1.
          1    1    1    2  501    0  0.33122173038E+02  0.44885890356E+02 -0.77814894058E+03  0.78014588074E+03  0.00000000000E+00 0. -1.
<scales pt_clust_3="32.86929" pt_clust_4="178.14960" pt_clust_5="14000.00000" pt_clust_6="56.08480"></scales>
<clustering>
<clus scale="   32.869">  1  3  2 -1</clus>
<clus scale="   56.085">  2  6  1 -1</clus>
<clus scale="  178.150">  1  4  2 -1</clus>
<clus scale="   32.869">  1  3  2 -1</clus>
</clustering>
</event>
<event>
 6    0  0.6338511E+002  0.1345643E+03  0.7546771E-02  0.1220836E+00
         -2   -1    0    0    0  501 -0.00000000000E+00  0.00000000000E+00  0.50231362906E+03  0.50231362906E+03  0.00000000000E+00 0. -1.
         21   -1    0    0  504  502  0.00000000000E+00 -0.00000000000E+00 -0.98414214771E+03  0.98414214771E+03  0.00000000000E+00 0. -1.
         21    1    1    2  503  501 -0.53838168596E+02 -0.47657699528E+02  0.33755733973E+02  0.79430814537E+02  0.00000000000E+00 0.  1.
         21    1    1    2  504  503  0.51637802213E+02  0.78693320585E+02 -0.92284209346E+03  0.92762957628E+03  0.00000000000E+00 0. -1.
         21    1    1    2  505  502  0.21216929472E+02  0.39522591173E+02 -0.17682971786E+02  0.48217017747E+02  0.00000000000E+00 0.  1.
         -2    1    1    2    0  505 -0.19016563089E+02 -0.70558212230E+02  0.42494081262E+03  0.43117836821E+03  0.00000000000E+00 0. -1.
<scales pt_clust_3="70.89194" pt_clust_4="134.56425" pt_clust_5="44.85748" pt_clust_6="14000.00000"></scales>
<clustering>
<clus scale="   44.857">  2  5  1 -1</clus>
<clus scale="   70.892">  1  3  2 -1</clus>
<clus scale="  134.564">  2  4  1 -1</clus>
<clus scale="   44.857">  2  3  1 -1</clus>
</clustering>
</event>
<event>
 6    0  0.6338511E+002  0.1231137E+03  0.7546771E-02  0.1238047E+00
          1   -1    0    0  505    0 -0.00000000000E+00  0.00000000000E+00  0.14334507791E+04  0.14334507791E+04  0.00000000000E+00 0.  1.
         21   -1    0    0  503  502  0.00000000000E+00 -0.00000000000E+00 -0.32590762069E+03  0.32590762069E+03  0.00000000000E+00 0. -1.
         21    1    1    2  503  504 -0.58770475848E+02  0.62228444252E+02 -0.59775701120E+02  0.10440058692E+03  0.00000000000E+00 0. -1.
         21    1    1    2  504  501  0.70928715275E+02 -0.12393536736E+03  0.39675039454E+03  0.42166542840E+03  0.00000000000E+00 0. -1.
         21    1    1    2  505  502 -0.28485257238E+02  0.30438987412E+02 -0.22917043647E+03  0.23293138644E+03  0.00000000000E+00 0. -1.
          1    1    1    2  501    0  0.16327017810E+02  0.31267935701E+02  0.99973890149E+03  0.10003609981E+04  0.00000000000E+00 0.  1.
<scales pt_clust_3="123.11365" pt_clust_4="14000.00000" pt_clust_5="41.73953" pt_clust_6="35.27400"></scales>
<clustering>
<clus scale="   35.274">  1  6  2 -1</clus>
<clus scale="   41.740">  2  5  1 -1</clus>
<clus scale="  123.114">  2  3  1 -1</clus>
<clus scale="   41.740">  2  3  1 -1</clus>
</clustering>
</event>
<event>
 6    0  0.6338511E+002  0.7719259E+02  0.7546771E-02  0.1337213E+00
         21   -1    0    0  501  502  0.00000000000E+00  0.00000000000E+00  0.37095506501E+02  0.37095506501E+02  0.00000000000E+00 0. -1.
          2   -1    0    0  505    0 -0.00000000000E+00 -0.00000000000E+00 -0.20964487828E+04  0.20964487828E+04  0.00000000000E+00 0.  1.
         21    1    1    2  503  502 -0.16307550975E+02  0.37925323589E+02  0.26068370737E+01  0.41364985043E+02  0.00000000000E+00 0. -1.
         21    1    1    2  504  503  0.40814627626E+02  0.12436056183E+02 -0.27648735034E+02  0.50842323616E+02  0.00000000000E+00 0. -1.
         21    1    1    2  505  504  0.36651085540E+02  0.43403820008E+02 -0.61553900760E+03  0.61815488637E+03  0.00000000000E+00 0. -1.
          2    1    1    2  501    0 -0.61158162192E+02 -0.93765199780E+02 -0.14187723708E+04  0.14231820943E+04  0.00000000000E+00 0.  1.
<scales pt_clust_3="41.28276" pt_clust_4="50.26648" pt_clust_5="14000.00000" pt_clust_6="77.19259"></scales>
<clustering>
<clus scale="   41.283">  1  3  2 -1</clus>
<clus scale="   50.266">  1  4  2 -1</clus>
<clus scale="   77.193">  1  6  2 -1</clus>
<clus scale="   41.283">  1  3  2 -1</clus>
</clustering>
</event>
<event>
 6    0  0.6338511E+002  0.3086804E+03  0.7546771E-02  0.1080980E+00
          2   -1    0    0  504    0 -0.00000000000E+00  0.00000000000E+00  0.12639470035E+04  0.12639470035E+04  0.00000000000E+00 0.  1.
         21   -1    0    0  503  502  0.00000000000E+00 -0.00000000000E+00 -0.10036313917E+04  0.10036313917E+04  0.00000000000E+00 0.  1.
         21    1    1    2  503  501  0.35565108895E+02 -0.20867412799E+03  0.50938609663E+02  0.21772576930E+03  0.00000000000E+00 0. -1.
         21    1    1    2  504  505  0.25844067232E+03  0.18717071472E+03  0.49881790877E+03  0.59215180795E+03  0.00000000000E+00 0.  1.
         21    1    1    2  505  502 -0.30479477720E+03 -0.54763989867E+02 -0.84337747268E+03  0.89843447853E+03  0.00000000000E+00 0.  1.
          2    1    1    2  501    0  0.10788995983E+02  0.76267403142E+02  0.55393656606E+03  0.55926633945E+03  0.00000000000E+00 0.  1.
<scales pt_clust_3="197.79949" pt_clust_4="308.68037" pt_clust_5="14000.00000" pt_clust_6="77.02674"></scales>
<clustering>
<clus scale="   77.027">  1  6  2 -1</clus>
<clus scale="  197.799">  1  3  2 -1</clus>
<clus scale="  308.680">  1  4  2 -1</clus>
<clus scale="  308.680">  2  3  1 -1</clus>
</clustering>
</event>
<event>
 6    0  0.6338511E+002  0.1018507E+03  0.7546771E-02  0.1276452E+00
         21   -1    0    0  505  502  0.00000000000E+00  0.00000000000E+00  0.18664451728E+03  0.18664451728E+03  0.00000000000E+00 0.  1.
          2   -1    0    0  504    0 -0.00000000000E+00 -0.00000000000E+00 -0.68753703122E+03  0.68753703122E+03  0.00000000000E+00 0.  1.
         21    1    1    2  503  501 -0.31177811561E+02  0.71166024221E+02  0.36368664827E+02  0.85786588220E+02  0.00000000000E+00 0.  1.
         21    1    1    2  504  502  0.17474739758E+02  0.26889654757E+02  0.57948990077E+02  0.66230699178E+02  0.00000000000E+00 0.  1.
         21    1    1    2  505  503 -0.38732443714E+02 -0.88096426304E+01  0.52724975632E+02  0.66013143045E+02  0.00000000000E+00 0. -1.
          2    1    1    2  501    0  0.52435515517E+02 -0.89246036348E+02 -0.64793514447E+03  0.65615111806E+03  0.00000000000E+00 0.  1.
<scales pt_clust_3="14000.00000" pt_clust_4="32.06899" pt_clust_5="30.66606" pt_clust_6="101.85071"></scales>
<clustering>
<clus scale="   32.069">  1  4  2 -1</clus>
<clus scale="   30.666">  1  5  2 -1</clus>
<clus scale="  101.851">  2  6  1 -1</clus>
<clus scale="   32.069">  1  3  2 -1</clus>
</clustering>
</event>
<event>
 6    0  0.6338511E+002  0.2439961E+03  0.7546771E-02  0.1117159E+00
         21   -1    0    0  504  502  0.00000000000E+00  0.00000000000E+00  0.47382682195E+03  0.47382682195E+03  0.00000000000E+00 0. -1.
          2   -1    0    0  505    0 -0.00000000000E+00 -0.00000000000E+00 -0.12904280685E+04  0.12904280685E+04  0.00000000000E+00 0. -1.
         21    1    1    2  503  502 -0.11990306869E+03 -0.92128829582E+01  0.22675814873E+03  0.25667271205E+03  0.00000000000E+00 0. -1.
         21    1    1    2  504  501  0.20265667037E+03 -0.70379597534E+02 -0.22008787265E+03  0.30734619809E+03  0.00000000000E+00 0.  1.
         21    1    1    2  505  503 -0.27377347405E+03 -0.69610939712E+02  0.56160252962E+02  0.28801314559E+03  0.00000000000E+00 0. -1.
          2    1    1    2  501    0  0.19101987238E+03  0.14920342020E+03 -0.87943177565E+03  0.91222283476E+03  0.00000000000E+00 0. -1.
<scales pt_clust_3="120.25649" pt_clust_4="194.01769" pt_clust_5="14000.00000" pt_clust_6="243.99609"></scales>
<clustering>
<clus scale="  120.256">  1  3  2 -1</clus>
<clus scale="  194.018">  1  4  2 -1</clus>
<clus scale="  243.996">  2  6  1 -1</clus>
<clus scale="  120.256">  1  3  2 -1</clus>
</clustering>
</event>
<event>
 6    0  0.6338511E+002  0.1037925E+03  0.7546771E-02  0.1272517E+00
         21   -1    0    0  503  502  0.00000000000E+00  0.00000000000E+00  0.89236294844E+03  0.89236294844E+03  0.00000000000E+00 0.  1.
          2   -1    0    0  504    0 -0.00000000000E+00 -0.00000000000E+00 -0.87863147528E+03  0.87863147528E+03  0.00000000000E+00 0. -1.
         21    1    1    2  503  501 -0.78228100723E+02 -0.18872632498E+02  0.30674681316E+03  0.31712681909E+03  0.00000000000E+00 0.  1.
         21    1    1    2  504  505 -0.25021179160E+02  0.18267219211E+02 -0.15323181386E+03  0.15633214475E+03  0.00000000000E+00 0.  1.
         21    1    1    2  505  502  0.14855188509E+03  0.16319176306E+01  0.56860856632E+03  0.58769552271E+03  0.00000000000E+00 0.  1.
          2    1    1    2  501    0 -0.45302605205E+02 -0.10265043443E+01 -0.70839209246E+03  0.70983993718E+03  0.00000000000E+00 0. -1.
<scales pt_clust_3="14000.00000" pt_clust_4="30.97984" pt_clust_5="103.79251" pt_clust_6="71.82356"></scales>
<clustering>
<clus scale="   30.980">  2  4  1 -1</clus>
<clus scale="   71.824">  2  6  1 -1</clus>
<clus scale="  103.793">  2  5  1 -1</clus>
<clus scale="  103.793">  1  3  2 -1</clus>
</clustering>
</event>
<event>
 6    0  0.6338511E+002  0.6801123E+02  0.7546771E-02  0.1366990E+00
         21   -1    0    0  503  502  0.00000000000E+00  0.00000000000E+00  0.11101004544E+03  0.11101004544E+03  0.00000000000E+00 0. -1.
          1   -1    0    0  504    0 -0.00000000000E+00 -0.00000000000E+00 -0.25611713612E+03  0.25611713612E+03  0.00000000000E+00 0. -1.
         21    1    1    2  503  505 -0.38815382471E+02 -0.23215866100E+02 -0.95751330817E-01  0.45228525550E+02  0.00000000000E+00 0. -1.
         21    1    1    2  504  502  0.64165346624E+02  0.19683996199E+02  0.22538727030E+02  0.70800039759E+02  0.00000000000E+00 0. -1.
         21    1    1    2  505  501 -0.16363028411E+02  0.70798099011E+02 -0.25743682987E+01  0.72710019216E+02  0.00000000000E+00 0. -1.
          1    1    1    2  501    0 -0.89869357420E+01 -0.67266229111E+02 -0.16497569808E+03  0.17838859703E+03  0.00000000000E+00 0. -1.
<scales pt_clust_3="45.22842" pt_clust_4="44.31147" pt_clust_5="68.01123" pt_clust_6="14000.00000"></scales>
<clustering>
<clus scale="   45.228">  1  3  2 -1</clus>
<clus scale="   44.311">  1  4  2 -1</clus>
<clus scale="   68.011">  1  5  2 -1</clus>
<clus scale="   45.228">  1  3  2 -1</clus>
</clustering>
</event>
<event>
 6    0  0.6338511E+002  0.6470957E+02  0.7546771E-02  0.1379067E+00
          2   -1    0    0  504    0 -0.00000000000E+00  0.00000000000E+00  0.77309561020E+03  0.77309561020E+03  0.00000000000E+00 0. -1.
         21   -1    0    0  503  502  0.00000000000E+00 -0.00000000000E+00 -0.45985789197E+02  0.45985789197E+02  0.00000000000E+00 0. -1.
         21    1    1    2  503  501  0.61099516686E+00  0.57301408340E+02  0.21640896528E+02  0.61254821160E+02  0.00000000000E+00 0. -1.
         21    1    1    2  504  505 -0.61252106867E+02 -0.55268238173E+02  0.32700465393E+03  0.33725130457E+03  0.00000000000E+00 0. -1.
         21    1    1    2  505  502  0.63825523465E+02 -0.42230283621E+02  0.54119840756E+02  0.93733939764E+02  0.00000000000E+00 0. -1.
          2    1    1    2  501    0 -0.31844117650E+01  0.40197113455E+02  0.32434442979E+03  0.32684133390E+03  0.00000000000E+00 0. -1.
<scales pt_clust_3="61.02530" pt_clust_4="14000.00000" pt_clust_5="64.70957" pt_clust_6="40.32305"></scales>
<clustering>
<clus scale="   40.323">  1  6  2 -1</clus>
<clus scale="   61.025">  2  3  1 -1</clus>
<clus scale="   64.710">  2  5  1 -1</clus>
<clus scale="   61.025">  2  3  1 -1</clus>
</clustering>
</event>
<event>
 6    0  0.6338511E+002  0.8481566E+02  0.7546771E-02  0.1315915E+00
         21   -1    0    0  505  502  0.00000000000E+00  0.00000000000E+00  0.30505644046E+03  0.30505644046E+03  0.00000000000E+00 0. -1.
          1   -1    0    0  504    0 -0.00000000000E+00 -0.00000000000E+00 -0.15996524416E+04  0.15996524416E+04  0.00000000000E+00 0.  1.
         21    1    1    2  503  502  0.31446174133E+02 -0.27573018580E+02 -0.27321070389E+01  0.41911783905E+02  0.00000000000E+00 0.  1.
         21    1    1    2  504  503  0.93163996644E+02 -0.40828396623E+02 -0.47361291434E+03  0.48441271750E+03  0.00000000000E+00 0.  1.
         21    1    1    2  505  501 -0.44856649395E+02  0.55418338993E+02  0.27401242469E+03  0.28313622195E+03  0.00000000000E+00 0. -1.
          1    1    1    2  501    0 -0.79753521383E+02  0.12983076210E+02 -0.10922634045E+04  0.10952481587E+04  0.00000000000E+00 0.  1.
<scales pt_clust_3="41.82264" pt_clust_4="14000.00000" pt_clust_5="31.83803" pt_clust_6="84.81566"></scales>
<clustering>
<clus scale="   41.823">  1  3  2 -1</clus>
<clus scale="   31.838">  1  5  2 -1</clus>
<clus scale="   84.816">  2  6  1 -1</clus>
<clus scale="   41.823">  1  3  2 -1</clus>
</clustering>
</event>
<event>
 6    0  0.6338511E+002  0.1071659E+03  0.7546771E-02  0.1265910E+00
         21   -1    0    0  501  502  0.00000000000E+00  0.00000000000E+00  0.82693698107E+03  0.82693698107E+03  0.00000000000E+00 0. -1.
          2   -1    0    0  505    0 -0.00000000000E+00 -0.00000000000E+00 -0.13861072181E+04  0.13861072181E+04  0.00000000000E+00 0. -1.
         21    1    1    2  503  502  0.80078856520E+02 -0.70533655102E+02  0.50515432198E+03  0.51630272978E+03  0.00000000000E+00 0. -1.
         21    1    1    2  504  503 -0.60747882924E+02  0.92399150709E+02  0.27712313975E+03  0.29837081445E+03  0.00000000000E+00 0. -1.
         21    1    1    2  505  504 -0.35121351394E+02 -0.78569212291E+02 -0.38816970091E+02  0.94410738853E+02  0.00000000000E+00 0. -1.
          2    1    1    2  501    0  0.15790377797E+02  0.56703716684E+02 -0.13026307287E+04  0.13039599161E+04  0.00000000000E+00 0. -1.
<scales pt_clust_3="14000.00000" pt_clust_4="107.16592" pt_clust_5="39.85958" pt_clust_6="58.86126"></scales>
<clustering>
<clus scale="   58.861">  2  6  1 -1</clus>
<clus scale="   39.860">  2  5  1 -1</clus>
<clus scale="  107.166">  2  4  1 -1</clus>
<clus scale="  107.166">  1  3  2 -1</clus>
</clustering>
</event>
<event>
 6    0  0.6338511E+002  0.1648846E+03  0.7546771E-02  0.1183290E+00
         21   -1    0    0  504  502  0.00000000000E+00  0.00000000000E+00  0.21257020855E+03  0.21257020855E+03  0.00000000000E+00 0.  1.
          2   -1    0    0  502    0 -0.00000000000E+00 -0.00000000000E+00 -0.16686928177E+04  0.16686928177E+04  0.00000000000E+00 0.  1.
         21    1    1    2  503  505 -0.14554224777E+03  0.86823700237E+01  0.10312092600E+03  0.17858290740E+03  0.00000000000E+00 0.  1.
         21    1    1    2  504  503 -0.60824171692E+00  0.35424702885E+02  0.62877056528E+02  0.72172042857E+02  0.00000000000E+00 0.  1.
         21    1    1    2  505  501  0.13015656664E+03 -0.18294880793E+02 -0.11676678121E+04  0.11750419371E+04  0.00000000000E+00 0.  1.
          2    1    1    2  501    0  0.15993922840E+02 -0.25812192116E+02 -0.45445277958E+03  0.45546613891E+03  0.00000000000E+00 0.  1.
<scales pt_clust_3="152.35142" pt_clust_4="35.42992" pt_clust_5="30.30791" pt_clust_6="30.30791"></scales>
<clustering>
<clus scale="   30.308">  5  6 -1 -1</clus>
<clus scale="   35.430">  1  4  2 -1</clus>
<clus scale="  152.351">  1  3  2 -1</clus>
<clus scale="   35.430">  1  3  2 -1</clus>
</clustering>
</event>
<event>
 6    0  0.6338511E+002  0.1444667E+03  0.7546771E-02  0.1207442E+00
         21   -1    0    0  503  502  0.00000000000E+00  0.00000000000E+00  0.47830759778E+03  0.47830759778E+03  0.00000000000E+00 0. -1.
          2   -1    0    0  502    0 -0.00000000000E+00 -0.00000000000E+00 -0.14418963710E+04  0.14418963710E+04  0.00000000000E+00 0.  1.
         21    1    1    2  503  505  0.39584179309E+02  0.82343169439E+02  0.32306096066E+03  0.33573157300E+03  0.00000000000E+00 0. -1.
         21    1    1    2  504  501 -0.10177965833E+03 -0.12509600560E+03  0.45958154377E+01  0.16133577095E+03  0.00000000000E+00 0. -1.
         21    1    1    2  505  504  0.15795942886E+02  0.37394589576E+02  0.59256245762E+02  0.71827361103E+02  0.00000000000E+00 0. -1.
          2    1    1    2  501    0  0.46399536138E+02  0.53582465821E+01 -0.13505017950E+04  0.13513092637E+04  0.00000000000E+00 0.  1.
<scales pt_clust_3="33.55257" pt_clust_4="135.41373" pt_clust_5="33.55257" pt_clust_6="46.70790"></scales>
<clustering>
<clus scale="   33.553">  3  5 -1 -1</clus>
<clus scale="   46.708">  2  6  1 -1</clus>
<clus scale="  135.414">  2  4  1 -1</clus>
<clus scale="  144.467">  1  3  2 -1</clus>
</clustering>
</event>
<event>
 6    0  0.6338511E+002  0.8215298E+02  0.7546771E-02  0.1323050E+00
         21   -1    0    0  505  502  0.00000000000E+00  0.00000000000E+00  0.46062505058E+03  0.46062505058E+03  0.00000000000E+00 0. -1.
          2   -1    0    0  504    0 -0.00000000000E+00 -0.00000000000E+00 -0.16400078979E+04  0.16400078979E+04  0.00000000000E+00 0.  1.
         21    1    1    2  503  502  0.65635808070E+02  0.11020944786E+02  0.40801490506E+03  0.41340740593E+03  0.00000000000E+00 0. -1.
         21    1    1    2  504  503 -0.78405964578E+02  0.74669735142E+02 -0.40580725668E+03  0.42000308833E+03  0.00000000000E+00 0.  1.
         21    1    1    2  505  501 -0.35138256336E+02 -0.24475683822E+02  0.30543151734E+02  0.52598861915E+02  0.00000000000E+00 0.  1.
          2    1    1    2  501    0  0.47908412844E+02 -0.61214996106E+02 -0.12121336474E+04  0.12146235923E+04  0.00000000000E+00 0.  1.
<scales pt_clust_3="33.78483" pt_clust_4="14000.00000" pt_clust_5="42.82238" pt_clust_6="82.15298"></scales>
<clustering>
<clus scale="   42.822">  1  5  2 -1</clus>
<clus scale="   33.785">  1  3  2 -1</clus>
<clus scale="   82.153">  2  6  1 -1</clus>
<clus scale="   42.822">  1  3  2 -1</clus>
</clustering>
</event>
<event>
 6    0  0.6338511E+002  0.1353570E+03  0.7546771E-02  0.1219717E+00
          2   -1    0    0  504    0 -0.00000000000E+00  0.00000000000E+00  0.53845698388E+03  0.53845698388E+03  0.00000000000E+00 0. -1.
         21   -1    0    0  505  502  0.00000000000E+00 -0.00000000000E+00 -0.51974046924E+03  0.51974046924E+03  0.00000000000E+00 0. -1.
         21    1    1    2  503  501  0.46441997405E+02 -0.11035285642E+03 -0.34821195323E+02  0.12468812167E+03  0.00000000000E+00 0.  1.
         21    1    1    2  504  502 -0.44409071326E+02  0.12244632106E+03 -0.22456871014E+03  0.25960811377E+03  0.00000000000E+00 0. -1.
         21    1    1    2  505  503 -0.37192639577E+02  0.97520264105E+01 -0.19511774087E+03  0.19887012662E+03  0.00000000000E+00 0. -1.
          2    1    1    2  501    0  0.35159713498E+02 -0.21845491056E+02  0.47322416098E+03  0.47503109106E+03  0.00000000000E+00 0. -1.
<scales pt_clust_3="135.35700" pt_clust_4="14000.00000" pt_clust_5="38.44990" pt_clust_6="41.29078"></scales>
<clustering>
<clus scale="   38.450">  2  5  1 -1</clus>
<clus scale="   41.291">  1  6  2 -1</clus>
<clus scale="  135.357">  1  3  2 -1</clus>
<clus scale="   38.450">  2  3  1 -1</clus>
</clustering>
</event>
<event>
 6    0  0.6338511E+002  0.1531099E+03  0.7546771E-02  0.1196703E+00
         21   -1    0    0  505  502  0.00000000000E+00  0.00000000000E+00  0.18064382024E+03  0.18064382024E+03  0.00000000000E+00 0.  1.
          2   -1    0    0  503    0 -0.00000000000E+00 -0.00000000000E+00 -0.11546858006E+04  0.11546858006E+04  0.00000000000E+00 0.  1.
         21    1    1    2  503  504  0.88931466884E+02  0.31031258594E+01 -0.51685403741E+03  0.52445832168E+03  0.00000000000E+00 0.  1.
         21    1    1    2  504  502  0.10038088135E+03  0.89644097510E+00 -0.25875561536E+03  0.27754566007E+03  0.00000000000E+00 0.  1.
         21    1    1    2  505  501 -0.88451906828E+02  0.10179963998E+02  0.14773212327E+03  0.17248812056E+03  0.00000000000E+00 0.  1.
          2    1    1    2  501    0 -0.10086044140E+03 -0.14179530833E+02 -0.34616445083E+03  0.36083751849E+03  0.00000000000E+00 0.  1.
<scales pt_clust_3="71.60994" pt_clust_4="71.60994" pt_clust_5="89.03579" pt_clust_6="132.88248"></scales>
<clustering>
<clus scale="   71.610">  3  4 -1 -1</clus>
<clus scale="   89.036">  1  5  2 -1</clus>
<clus scale="  132.882">  2  6  1 -1</clus>
<clus scale="   89.036">  1  3  2 -1</clus>
</clustering>
</event>
<event>
 6    0  0.6338511E+002  0.1049849E+03  0.7546771E-02  0.1270149E+00
         21   -1    0    0  504  502  0.00000000000E+00  0.00000000000E+00  0.38398145329E+02  0.38398145329E+02  0.00000000000E+00 0. -1.
          2   -1    0    0  505    0 -0.00000000000E+00 -0.00000000000E+00 -0.20035563443E+04  0.20035563443E+04  0.00000000000E+00 0. -1.
         21    1    1    2  503  502  0.57978008653E+02 -0.49154156870E+02 -0.17863835068E+03  0.19413717047E+03  0.00000000000E+00 0. -1.
         21    1    1    2  504  501 -0.89525360736E+02  0.89087367142E+02 -0.10706439320E+03  0.16557213984E+03  0.00000000000E+00 0. -1.
         21    1    1    2  505  503 -0.96026151712E+01 -0.44952213461E+02 -0.51357596596E+03  0.51562892135E+03  0.00000000000E+00 0. -1.
          2    1    1    2  501    0  0.41149967255E+02  0.50190031885E+01 -0.11658794891E+04  0.11666162580E+04  0.00000000000E+00 0. -1.
<scales pt_clust_3="104.98492" pt_clust_4="14000.00000" pt_clust_5="44.71019" pt_clust_6="41.45492"></scales>
<clustering>
<clus scale="   41.455">  2  6  1 -1</clus>
<clus scale="   44.710">  2  5  1 -1</clus>
<clus scale="  104.985">  2  3  1 -1</clus>
<clus scale="  104.985">  1  3  2 -1</clus>
</clustering>
</event>
<event>
 6    0  0.6338511E+002  0.1067528E+03  0.7546771E-02  0.1266704E+00
          1   -1    0    0  505    0 -0.00000000000E+00  0.00000000000E+00  0.28463915391E+04  0.28463915391E+04  0.00000000000E+00 0.  1.
         21   -1    0    0  504  502  0.00000000000E+00 -0.00000000000E+00 -0.21080464640E+03  0.21080464640E+03  0.00000000000E+00 0.  1.
         21    1    1    2  503  501  0.65342432650E+02  0.46033663467E+02  0.49507469585E+02  0.94019791648E+02  0.00000000000E+00 0.  1.
         21    1    1    2  504  503  0.33364929241E+02  0.20703461411E+01 -0.17110540489E+03  0.17434036944E+03  0.00000000000E+00 0.  1.
         21    1    1    2  505  502 -0.21900064092E+02  0.27939211736E+02  0.65746673038E+01  0.36103166202E+02  0.00000000000E+00 0. -1.
          1    1    1    2  501    0 -0.76807297799E+02 -0.76043221344E+02  0.27506101607E+04  0.27527328582E+04  0.00000000000E+00 0.  1.
<scales pt_clust_3="106.75282" pt_clust_4="33.42910" pt_clust_5="30.10745" pt_clust_6="14000.00000"></scales>
<clustering>
<clus scale="   33.429">  2  4  1 -1</clus>
<clus scale="   30.107">  2  5  1 -1</clus>
<clus scale="  106.753">  2  3  1 -1</clus>
<clus scale="   33.429">  2  3  1 -1</clus>
</clustering>
</event>
<event>
 6    0  0.6338511E+002  0.1093882E+03  0.7546771E-02  0.1261707E+00
          1   -1    0    0  504    0 -0.00000000000E+00  0.00000000000E+00  0.31693365535E+04  0.31693365535E+04  0.00000000000E+00 0.  1.
         21   -1    0    0  503  502  0.00000000000E+00 -0.00000000000E+00 -0.14563524052E+02  0.14563524052E+02  0.00000000000E+00 0.  1.
         21    1    1    2  503  505  0.29804919567E+02 -0.12447275909E+03  0.35447316353E+03  0.37687269024E+03  0.00000000000E+00 0.  1.
         21    1    1    2  504  502 -0.29777264873E+02  0.30624150140E+02  0.19912067507E+03  0.20365060106E+03  0.00000000000E+00 0.  1.
         21    1    1    2  505  501  0.24211796995E+02  0.62813635402E+02  0.15539290629E+04  0.15553865425E+04  0.00000000000E+00 0.  1.
          1    1    1    2  501    0 -0.24239451689E+02  0.31034973548E+02  0.10472501279E+04  0.10479902438E+04  0.00000000000E+00 0.  1.
<scales pt_clust_3="96.62208" pt_clust_4="42.71445" pt_clust_5="39.22293" pt_clust_6="39.22293"></scales>
<clustering>
<clus scale="   39.223">  5  6 -1 -1</clus>
<clus scale="   42.714">  2  4  1 -1</clus>
<clus scale="   96.622">  2  3  1 -1</clus>
<clus scale="   42.714">  2  3  1 -1</clus>
</clustering>
</event>
<event>
 6    0  0.6338511E+002  0.6090181E+02  0.7546771E-02  0.1394086E+00
          1   -1    0    0  502    0 -0.00000000000E+00  0.00000000000E+00  0.15995054524E+04  0.15995054524E+04  0.00000000000E+00 0. -1.
         21   -1    0    0  504  502  0.00000000000E+00 -0.00000000000E+00 -0.29338947789E+03  0.29338947789E+03  0.00000000000E+00 0.  1.
         21    1    1    2  503  505  0.80788989515E+02 -0.53232234377E+02 -0.42449198675E+02  0.10565257248E+03  0.00000000000E+00 0.  1.
         21    1    1    2  504  503 -0.43070532057E+02  0.34267379281E+02 -0.14010216691E+03  0.15052554995E+03  0.00000000000E+00 0.  1.
         21    1    1    2  505  501 -0.55215014648E+02 -0.32046620717E+02 -0.59702854553E+02  0.87407748991E+02  0.00000000000E+00 0.  1.
          1    1    1    2  501    0  0.17496557189E+02  0.51011475814E+02  0.15483701947E+04  0.15493090589E+04  0.00000000000E+00 0. -1.
<scales pt_clust_3="14000.00000" pt_clust_4="60.90181" pt_clust_5="53.58092" pt_clust_6="53.92866"></scales>
<clustering>
<clus scale="   53.929">  1  6  2 -1</clus>
<clus scale="   53.581">  1  5  2 -1</clus>
<clus scale="   60.902">  2  4  1 -1</clus>
<clus scale="   60.902">  2  3  1 -1</clus>
</clustering>
</event>
<event>
 6    0  0.6338511E+002  0.1187619E+03  0.7546771E-02  0.1245154E+00
         21   -1    0    0  505  502  0.00000000000E+00  0.00000000000E+00  0.10311402517E+04  0.10311402517E+04  0.00000000000E+00 0. -1.
          2   -1    0    0  504    0 -0.00000000000E+00 -0.00000000000E+00 -0.53574315938E+03  0.53574315938E+03  0.00000000000E+00 0.  1.
         21    1    1    2  503  501  0.99828855170E+01  0.30963896777E+02  0.37504704193E+03  0.37645544832E+03  0.00000000000E+00 0. -1.
         21    1    1    2  504  502  0.38957924014E+02 -0.12503244212E+03 -0.13431328361E+03  0.18759234947E+03  0.00000000000E+00 0.  1.
         21    1    1    2  505  503  0.37491150483E+02  0.12582255617E+02  0.61867223885E+03  0.61993486646E+03  0.00000000000E+00 0. -1.
          2    1    1    2  501    0 -0.86431960013E+02  0.81486289727E+02 -0.36400890485E+03  0.38290074685E+03  0.00000000000E+00 0.  1.
<scales pt_clust_3="30.96613" pt_clust_4="118.76186" pt_clust_5="72.90851" pt_clust_6="14000.00000"></scales>
<clustering>
<clus scale="   30.966">  3  5 -1 -1</clus>
<clus scale="   72.909">  1  3  2 -1</clus>
<clus scale="  118.762">  1  4  2 -1</clus>
<clus scale="   72.909">  1  3  2 -1</clus>
</clustering>
</event>
<event>
 6    0  0.6338511E+002  0.4337573E+03  0.7546771E-02  0.1032680E+00
         21   -1    0    0  504  502  0.00000000000E+00  0.00000000000E+00  0.10257628035E+04  0.10257628035E+04  0.00000000000E+00 0. -1.
          2   -1    0    0  505    0 -0.00000000000E+00 -0.00000000000E+00 -0.10275172007E+04  0.10275172007E+04  0.00000000000E+00 0.  1.
         21    1    1    2  503  502  0.35255149516E+02 -0.28849139454E+02  0.22283393557E+03  0.22744265487E+03  0.00000000000E+00 0.  1.
         21    1    1    2  504  501 -0.70635338448E+02 -0.17796131663E+03  0.46731976063E+03  0.50502211825E+03  0.00000000000E+00 0. -1.
         21    1    1    2  505  503  0.42281495497E+03 -0.13570619806E+02  0.78980046144E+02  0.43034230045E+03  0.00000000000E+00 0. -1.
          2    1    1    2  501    0 -0.38743476604E+03  0.22038107589E+03 -0.77088813955E+03  0.89047293066E+03  0.00000000000E+00 0.  1.
<scales pt_clust_3="45.55435" pt_clust_4="201.58273" pt_clust_5="433.75727" pt_clust_6="14000.00000"></scales>
<clustering>
<clus scale="   45.554">  1  3  2 -1</clus>
<clus scale="  201.583">  1  4  2 -1</clus>
<clus scale="  433.757">  1  5  2 -1</clus>
<clus scale="   45.554">  1  3  2 -1</clus>
</clustering>
</event>
<event>
 6    0  0.6338511E+002  0.1352076E+03  0.7546771E-02  0.1219927E+00
         21   -1    0    0  505  502  0.00000000000E+00  0.00000000000E+00  0.23093410064E+03  0.23093410064E+03  0.00000000000E+00 0.  1.
          2   -1    0    0  503    0 -0.00000000000E+00 -0.00000000000E+00 -0.26899732732E+03  0.26899732732E+03  0.00000000000E+00 0. -1.
         21    1    1    2  503  502 -0.81336604834E+02 -0.17326534095E+02 -0.16360965042E+02  0.84755726926E+02  0.00000000000E+00 0.  1.
         21    1    1    2  504  501  0.12918955765E+03 -0.41413933185E+02  0.89911048774E+02  0.16275457708E+03  0.00000000000E+00 0.  1.
         21    1    1    2  505  504  0.32345080146E+01 -0.37976366024E+02  0.46523175671E+02  0.60142100837E+02  0.00000000000E+00 0.  1.
          2    1    1    2  501    0 -0.51087460835E+02  0.96716833304E+02 -0.15813648608E+03  0.19227902311E+03  0.00000000000E+00 0. -1.
<scales pt_clust_3="84.39072" pt_clust_4="135.20762" pt_clust_5="38.11386" pt_clust_6="14000.00000"></scales>
<clustering>
<clus scale="   38.114">  1  5  2 -1</clus>
<clus scale="   84.391">  2  3  1 -1</clus>
<clus scale="  135.208">  1  4  2 -1</clus>
<clus scale="   38.114">  1  3  2 -1</clus>
</clustering>
</event>
<event>
 6    0  0.6338511E+002  0.7757701E+02  0.7546771E-02  0.1336072E+00
          2   -1    0    0  505    0 -0.00000000000E+00  0.00000000000E+00  0.83840947653E+03  0.83840947653E+03  0.00000000000E+00 0. -1.
         21   -1    0    0  504  502  0.00000000000E+00 -0.00000000000E+00 -0.55314565498E+03  0.55314565498E+03  0.00000000000E+00 0.  1.
         21    1    1    2  503  502 -0.26878034413E+02  0.34670872162E+02 -0.42509259306E+03  0.42735022029E+03  0.00000000000E+00 0.  1.
         21    1    1    2  504  501  0.97849456663E+02 -0.36924884339E+02 -0.79139095955E+02  0.13115242949E+03  0.00000000000E+00 0.  1.
         21    1    1    2  505  503 -0.59233909538E+01  0.45038983648E+02  0.61429528679E+01  0.45840293175E+02  0.00000000000E+00 0.  1.
          2    1    1    2  501    0 -0.65048031296E+02 -0.42784971471E+02  0.78335255770E+03  0.78721218855E+03  0.00000000000E+00 0. -1.
<scales pt_clust_3="43.86910" pt_clust_4="77.57701" pt_clust_5="51.46698" pt_clust_6="14000.00000"></scales>
<clustering>
<clus scale="   43.869">  2  3  1 -1</clus>
<clus scale="   51.467">  2  5  1 -1</clus>
<clus scale="   77.577">  2  4  1 -1</clus>
<clus scale="   43.869">  2  3  1 -1</clus>
</clustering>
</event>
<event>
 6    0  0.6338511E+002  0.7332375E+02  0.7546771E-02  0.1349142E+00
          1   -1    0    0  505    0 -0.00000000000E+00  0.00000000000E+00  0.16319810467E+04  0.16319810467E+04  0.00000000000E+00 0. -1.
         21   -1    0    0  503  502  0.00000000000E+00 -0.00000000000E+00 -0.26997987474E+03  0.26997987474E+03  0.00000000000E+00 0. -1.
         21    1    1    2  503  501 -0.43990176603E+02 -0.84064587412E+02  0.15256246827E+02  0.96097573130E+02  0.00000000000E+00 0.  1.
         21    1    1    2  504  502  0.35226184608E+02  0.15532726577E+02 -0.21506766596E+03  0.21848627101E+03  0.00000000000E+00 0. -1.
         21    1    1    2  505  504  0.75925220209E+02  0.37981926084E+02  0.14054425546E+03  0.16419486447E+03  0.00000000000E+00 0.  1.
          1    1    1    2  501    0 -0.67161228214E+02  0.30549934750E+02  0.14212683356E+04  0.14231822128E+04  0.00000000000E+00 0. -1.
<scales pt_clust_3="14000.00000" pt_clust_4="38.49870" pt_clust_5="72.82726" pt_clust_6="73.32375"></scales>
<clustering>
<clus scale="   38.499">  2  4  1 -1</clus>
<clus scale="   73.324">  1  6  2 -1</clus>
<clus scale="   72.827">  1  5  2 -1</clus>
<clus scale="   38.499">  2  3  1 -1</clus>
</clustering>
</event>
<event>
 6    0  0.6338511E+002  0.7617658E+02  0.7546771E-02  0.1340266E+00
         21   -1    0    0  503  502  0.00000000000E+00  0.00000000000E+00  0.13717380424E+03  0.13717380424E+03  0.00000000000E+00 0. -1.
          2   -1    0    0  505    0 -0.00000000000E+00 -0.00000000000E+00 -0.10109961923E+04  0.10109961923E+04  0.00000000000E+00 0. -1.
         21    1    1    2  503  504  0.35758898814E+02  0.15839301974E+02  0.11505141784E+03  0.12151712257E+03  0.00000000000E+00 0. -1.
         21    1    1    2  504  501 -0.17395326706E+02 -0.54870832223E+02 -0.62307471307E+02  0.84827039325E+02  0.00000000000E+00 0. -1.
         21    1    1    2  505  502 -0.86795911070E+02  0.43259175497E+02 -0.44826444394E+03  0.45863482003E+03  0.00000000000E+00 0. -1.
          2    1    1    2  501    0  0.68432338962E+02 -0.42276452477E+01 -0.47830189069E+03  0.48319101465E+03  0.00000000000E+00 0. -1.
<scales pt_clust_3="39.10988" pt_clust_4="45.59806" pt_clust_5="76.17658" pt_clust_6="14000.00000"></scales>
<clustering>
<clus scale="   39.110">  1  3  2 -1</clus>
<clus scale="   45.598">  1  4  2 -1</clus>
<clus scale="   76.177">  1  5  2 -1</clus>
<clus scale="   39.110">  1  3  2 -1</clus>
</clustering>
</event>
<event>
 6    0  0.6338511E+002  0.8024539E+02  0.7546771E-02  0.1328357E+00
         21   -1    0    0  504  502  0.00000000000E+00  0.00000000000E+00  0.32184038710E+04  0.32184038710E+04  0.00000000000E+00 0. -1.
          2   -1    0    0  503    0 -0.00000000000E+00 -0.00000000000E+00 -0.61174585304E+02  0.61174585304E+02  0.00000000000E+00 0.  1.
         21    1    1    2  503  505 -0.37778677779E+02 -0.10852566528E+03  0.36227255424E+03  0.38006111623E+03  0.00000000000E+00 0. -1.
         21    1    1    2  504  501  0.42230348308E+02  0.15672253326E+02  0.29721240938E+03  0.30060645058E+03  0.00000000000E+00 0. -1.
         21    1    1    2  505  502 -0.32552136290E+02  0.72884727291E+02  0.25417539747E+04  0.25430070965E+04  0.00000000000E+00 0. -1.
          2    1    1    2  501    0  0.28100465761E+02  0.19968684668E+02 -0.44009652625E+02  0.55903792962E+02  0.00000000000E+00 0.  1.
<scales pt_clust_3="80.24539" pt_clust_4="50.09937" pt_clust_5="14000.00000" pt_clust_6="34.47295"></scales>
<clustering>
<clus scale="   34.473">  2  6  1 -1</clus>
<clus scale="   50.099">  2  4  1 -1</clus>
<clus scale="   80.245">  2  3  1 -1</clus>
<clus scale="   80.245">  1  3  2 -1</clus>
</clustering>
</event>
<event>
 6    0  0.6338511E+002  0.7138073E+02  0.7546771E-02  0.1355460E+00
         -2   -1    0    0    0  501 -0.00000000000E+00  0.00000000000E+00  0.20116678513E+04  0.20116678513E+04  0.00000000000E+00 0.  1.
         21   -1    0    0  504  502  0.00000000000E+00 -0.00000000000E+00 -0.17484408403E+03  0.17484408403E+03  0.00000000000E+00 0. -1.
         21    1    1    2  503  502 -0.72675094788E+02 -0.89334520671E+02  0.38934936110E+02  0.12156584732E+03  0.00000000000E+00 0.  1.
         21    1    1    2  504  505  0.36596746129E+01  0.69644369068E+02 -0.12283379574E+03  0.14125109818E+03  0.00000000000E+00 0. -1.
         21    1    1    2  505  501  0.21485454009E+02  0.29981584039E+02  0.30231347722E+03  0.30455534575E+03  0.00000000000E+00 0.  1.
         -2    1    1    2    0  503  0.47529966166E+02 -0.10291432437E+02  0.16184091497E+04  0.16191396441E+04  0.00000000000E+00 0.  1.
<scales pt_clust_3="14000.00000" pt_clust_4="69.90802" pt_clust_5="36.88523" pt_clust_6="71.38073"></scales>
<clustering>
<clus scale="   36.885">  1  5  2 -1</clus>
<clus scale="   69.908">  2  4  1 -1</clus>
<clus scale="   71.381">  1  6  2 -1</clus>
<clus scale="   69.908">  2  3  1 -1</clus>
</clustering>
</event>
<event>
 6    0  0.6338511E+002  0.6365923E+02  0.7546771E-02  0.1383087E+00
          2   -1    0    0  503    0 -0.00000000000E+00  0.00000000000E+00  0.95447520916E+03  0.95447520916E+03  0.00000000000E+00 0.  1.
         21   -1    0    0  501  502  0.00000000000E+00 -0.00000000000E+00 -0.63316018021E+02  0.63316018021E+02  0.00000000000E+00 0. -1.
         21    1    1    2  503  504 -0.20931602369E+02  0.64004296739E+02  0.17581363789E+03  0.18826873678E+03  0.00000000000E+00 0. -1.
         21    1    1    2  504  505  0.79025114956E+01 -0.63591735699E+02  0.23585190035E+02  0.68283378110E+02  0.00000000000E+00 0. -1.
         21    1    1    2  505  502  0.63159776456E+02  0.36240692941E+02  0.64311620922E+01  0.73102017980E+02  0.00000000000E+00 0. -1.
          2    1    1    2  501    0 -0.50130685583E+02 -0.36653253982E+02  0.68532920112E+03  0.68813709432E+03  0.00000000000E+00 0.  1.
<scales pt_clust_3="14000.00000" pt_clust_4="62.20156" pt_clust_5="63.65923" pt_clust_6="62.10110"></scales>
<clustering>
<clus scale="   62.101">  1  6  2 -1</clus>
<clus scale="   63.659">  2  5  1 -1</clus>
<clus scale="   62.202">  2  4  1 -1</clus>
<clus scale="   63.659">  2  3  1 -1</clus>
</clustering>
</event>
<event>
 6    0  0.6338511E+002  0.1117183E+03  0.7546771E-02  0.1257421E+00
         21   -1    0    0  503  502  0.00000000000E+00  0.00000000000E+00  0.74507298011E+03  0.74507298011E+03  0.00000000000E+00 0. -1.
         -1   -1    0    0    0  501 -0.00000000000E+00 -0.00000000000E+00 -0.98551822003E+02  0.98551822003E+02  0.00000000000E+00 0. -1.
         21    1    1    2  503  504 -0.47239041596E+02  0.40155762093E+02  0.35342245970E+03  0.35881951912E+03  0.00000000000E+00 0. -1.
         21    1    1    2  504  501  0.95165029863E+02  0.98990873989E+01  0.11463445680E+03  0.14931655476E+03  0.00000000000E+00 0. -1.
         21    1    1    2  505  502  0.26643200207E+02  0.56263692815E+02  0.19489053384E+03  0.20459174819E+03  0.00000000000E+00 0. -1.
         -1    1    1    2    0  505 -0.74569188474E+02 -0.10631854231E+03 -0.16426292234E+02  0.13089698004E+03  0.00000000000E+00 0. -1.
<scales pt_clust_3="62.00010" pt_clust_4="111.71832" pt_clust_5="76.92211" pt_clust_6="14000.00000"></scales>
<clustering>
<clus scale="   62.000">  1  3  2 -1</clus>
<clus scale="   76.922">  1  5  2 -1</clus>
<clus scale="  111.718">  1  4  2 -1</clus>
<clus scale="   62.000">  1  3  2 -1</clus>
</clustering>
</event>
<event>
 6    0  0.6338511E+002  0.1218811E+03  0.7546771E-02  0.1240026E+00
          3   -1    0    0  504    0 -0.00000000000E+00  0.00000000000E+00  0.44004315100E+03  0.44004315100E+03  0.00000000000E+00 0.  1.
         21   -1    0    0  505  502  0.00000000000E+00 -0.00000000000E+00 -0.11839899706E+03  0.11839899706E+03  0.00000000000E+00 0.  1.
         21    1    1    2  503  502  0.25375579794E+02 -0.32835907567E+02 -0.25324719484E+02  0.48615412089E+02  0.00000000000E+00 0. -1.
         21    1    1    2  504  503  0.91184612625E+02 -0.11401015824E+03  0.12001289144E+03  0.18898688810E+03  0.00000000000E+00 0.  1.
         21    1    1    2  505  501 -0.58714000754E+02  0.50295848645E+02  0.12050637288E+02  0.78244642848E+02  0.00000000000E+00 0.  1.
          3    1    1    2  501    0 -0.57846191665E+02  0.96550217167E+02  0.21490534469E+03  0.24259520502E+03  0.00000000000E+00 0.  1.
<scales pt_clust_3="41.49840" pt_clust_4="121.88105" pt_clust_5="60.89201" pt_clust_6="14000.00000"></scales>
<clustering>
<clus scale="   41.498">  2  3  1 -1</clus>
<clus scale="   60.892">  2  5  1 -1</clus>
<clus scale="  121.881">  2  4  1 -1</clus>
<clus scale="   41.498">  2  3  1 -1</clus>
</clustering>
</event>
<event>
 6    0  0.6338511E+002  0.1362735E+03  0.7546771E-02  0.1218433E+00
         21   -1    0    0  504  502  0.00000000000E+00  0.00000000000E+00  0.26872630853E+03  0.26872630853E+03  0.00000000000E+00 0.  1.
          1   -1    0    0  502    0 -0.00000000000E+00 -0.00000000000E+00 -0.30247642876E+03  0.30247642876E+03  0.00000000000E+00 0.  1.
         21    1    1    2  503  501  0.11448820382E+03  0.18214278559E+02 -0.55659307463E+02  0.12859730660E+03  0.00000000000E+00 0.  1.
         21    1    1    2  504  505  0.49509711231E+01 -0.31885079575E+02  0.94216254914E+02  0.99588518939E+02  0.00000000000E+00 0.  1.
         21    1    1    2  505  503 -0.14957489646E+03  0.32495580033E+02  0.89529931924E+02  0.17732518457E+03  0.00000000000E+00 0.  1.
          1    1    1    2  501    0  0.30135721510E+02 -0.18824779017E+02 -0.16183699961E+03  0.16569172718E+03  0.00000000000E+00 0.  1.
<scales pt_clust_3="136.27350" pt_clust_4="32.26717" pt_clust_5="14000.00000" pt_clust_6="35.76979"></scales>
<clustering>
<clus scale="   32.267">  1  4  2 -1</clus>
<clus scale="   35.770">  2  6  1 -1</clus>
<clus scale="  136.274">  2  3  1 -1</clus>
<clus scale="   32.267">  1  3  2 -1</clus>
</clustering>
</event>
<event>
 6    0  0.6338511E+002  0.7545091E+02  0.7546771E-02  0.1342480E+00
         -2   -1    0    0    0  501 -0.00000000000E+00  0.00000000000E+00  0.10624263155E+04  0.10624263155E+04  0.00000000000E+00 0.  1.
         21   -1    0    0  505  502  0.00000000000E+00 -0.00000000000E+00 -0.51623070489E+02  0.51623070489E+02  0.00000000000E+00 0. -1.
         21    1    1    2  503  502 -0.87951889590E+02  0.15032499358E+02  0.33746184419E+03  0.34905874463E+03  0.00000000000E+00 0.  1.
         21    1    1    2  504  501 -0.94818981529E+00 -0.52192956522E+02  0.25850805751E+02  0.58251763342E+02  0.00000000000E+00 0.  1.
         21    1    1    2  505  504  0.34026235112E+02 -0.24766368445E+02 -0.10654728406E+02  0.43412911896E+02  0.00000000000E+00 0. -1.
         -2    1    1    2    0  503  0.54873844293E+02  0.61926825608E+02  0.65814532349E+03  0.66332596614E+03  0.00000000000E+00 0.  1.
<scales pt_clust_3="14000.00000" pt_clust_4="71.79547" pt_clust_5="42.08512" pt_clust_6="75.45091"></scales>
<clustering>
<clus scale="   42.085">  2  5  1 -1</clus>
<clus scale="   71.795">  2  4  1 -1</clus>
<clus scale="   75.451">  1  6  2 -1</clus>
<clus scale="   42.085">  2  3  1 -1</clus>
</clustering>
</event>
<event>
 6    0  0.6338511E+002  0.1062849E+03  0.7546771E-02  0.1267609E+00
          2   -1    0    0  503    0 -0.00000000000E+00  0.00000000000E+00  0.10533222241E+04  0.10533222241E+04  0.00000000000E+00 0.  1.
         21   -1    0    0  505  502  0.00000000000E+00 -0.00000000000E+00 -0.75230830189E+02  0.75230830189E+02  0.00000000000E+00 0. -1.
         21    1    1    2  503  504  0.25605488135E+02 -0.10534528646E+03  0.64245343735E+02  0.12601878667E+03  0.00000000000E+00 0. -1.
         21    1    1    2  504  502  0.25443876942E+02 -0.31202355811E+02 -0.16930006451E+02  0.43676114759E+02  0.00000000000E+00 0. -1.
         21    1    1    2  505  501 -0.70346555004E+02  0.65279369646E+02  0.17587405141E+03  0.20035397641E+03  0.00000000000E+00 0. -1.
          2    1    1    2  501    0  0.19297189927E+02  0.71268272623E+02  0.75490200521E+03  0.75850417645E+03  0.00000000000E+00 0.  1.
<scales pt_clust_3="14000.00000" pt_clust_4="40.26137" pt_clust_5="106.28488" pt_clust_6="72.90561"></scales>
<clustering>
<clus scale="   40.261">  2  4  1 -1</clus>
<clus scale="   72.906">  1  6  2 -1</clus>
<clus scale="  106.285">  1  5  2 -1</clus>
<clus scale="   40.261">  2  3  1 -1</clus>
</clustering>
</event>
<event>
 6    0  0.6338511E+002  0.1116657E+03  0.7546771E-02  0.1257516E+00
          1   -1    0    0  504    0 -0.00000000000E+00  0.00000000000E+00  0.55335854037E+02  0.55335854037E+02  0.00000000000E+00 0. -1.
         21   -1    0    0  505  502  0.00000000000E+00 -0.00000000000E+00 -0.95843338443E+03  0.95843338443E+03  0.00000000000E+00 0.  1.
         21    1    1    2  503  502 -0.10937803609E+03 -0.24990600523E+01 -0.56969198624E+03  0.58010236964E+03  0.00000000000E+00 0.  1.
         21    1    1    2  504  503 -0.34814794483E+02 -0.55673579951E+02 -0.17871068883E+03  0.19039203691E+03  0.00000000000E+00 0.  1.
         21    1    1    2  505  501  0.12039827478E+03  0.16025170847E+02 -0.15231809132E+03  0.19481619957E+03  0.00000000000E+00 0. -1.
          1    1    1    2  501    0  0.23794555785E+02  0.42147469156E+02 -0.23767640072E+01  0.48458632341E+02  0.00000000000E+00 0. -1.
<scales pt_clust_3="14000.00000" pt_clust_4="56.91968" pt_clust_5="111.66571" pt_clust_6="48.40031"></scales>
<clustering>
<clus scale="   48.400">  1  6  2 -1</clus>
<clus scale="   56.920">  1  4  2 -1</clus>
<clus scale="  111.666">  1  5  2 -1</clus>
<clus scale="  111.666">  2  3  1 -1</clus>
</clustering>
</event>
<event>
 6    0  0.6338511E+002  0.6616465E+02  0.7546771E-02  0.1373643E+00
          2   -1    0    0  505    0 -0.00000000000E+00  0.00000000000E+00  0.89443752593E+03  0.89443752593E+03  0.00000000000E+00 0. -1.
         21   -1    0    0  503  502  0.00000000000E+00 -0.00000000000E+00 -0.18139062489E+03  0.18139062489E+03  0.00000000000E+00 0. -1.
         21    1    1    2  503  504  0.19368715714E+02 -0.39286010658E+02 -0.75066668805E+02  0.86911118664E+02  0.00000000000E+00 0. -1.
         21    1    1    2  504  501  0.46457079015E+02  0.45117088893E+02 -0.80433185665E+02  0.10326330063E+03  0.00000000000E+00 0. -1.
         21    1    1    2  505  502 -0.91262111715E+02  0.35929308992E+02  0.31414754522E+03  0.32910236774E+03  0.00000000000E+00 0. -1.
          2    1    1    2  501    0  0.25436316986E+02 -0.41760387228E+02  0.55439921029E+03  0.55655136378E+03  0.00000000000E+00 0. -1.
<scales pt_clust_3="43.80112" pt_clust_4="14000.00000" pt_clust_5="66.16465" pt_clust_6="49.36481"></scales>
<clustering>
<clus scale="   43.801">  2  3  1 -1</clus>
<clus scale="   49.365">  1  6  2 -1</clus>
<clus scale="   66.165">  1  5  2 -1</clus>
<clus scale="   43.801">  2  3  1 -1</clus>
</clustering>
</event>
<event>
 6    0  0.6338511E+002  0.8271669E+02  0.7546771E-02  0.1321514E+00
          2   -1    0    0  504    0 -0.00000000000E+00  0.00000000000E+00  0.10432784062E+04  0.10432784062E+04  0.00000000000E+00 0. -1.
         21   -1    0    0  505  502  0.00000000000E+00 -0.00000000000E+00 -0.25308373597E+03  0.25308373597E+03  0.00000000000E+00 0.  1.
         21    1    1    2  503  502 -0.49281980806E+00 -0.88813574138E+02 -0.11248135248E+02  0.89524378629E+02  0.00000000000E+00 0.  1.
         21    1    1    2  504  503  0.20174834933E+01 -0.33476462321E+02  0.55169089085E+03  0.55270931131E+03  0.00000000000E+00 0. -1.
         21    1    1    2  505  501 -0.27366386184E+02  0.13999442051E+02 -0.19410404667E+03  0.19652298696E+03  0.00000000000E+00 0.  1.
          2    1    1    2  501    0  0.25841722498E+02  0.10829059441E+03  0.44385596128E+03  0.45760546524E+03  0.00000000000E+00 0. -1.
<scales pt_clust_3="14000.00000" pt_clust_4="33.40033" pt_clust_5="30.73928" pt_clust_6="82.71669"></scales>
<clustering>
<clus scale="   30.739">  2  5  1 -1</clus>
<clus scale="   33.400">  1  4  2 -1</clus>
<clus scale="   82.717">  1  6  2 -1</clus>
<clus scale="   30.739">  2  3  1 -1</clus>
</clustering>
</event>
<event>
 6    0  0.6338511E+002  0.1037231E+03  0.7546771E-02  0.1272656E+00
         21   -1    0    0  505  502  0.00000000000E+00  0.00000000000E+00  0.12594320774E+03  0.12594320774E+03  0.00000000000E+00 0.  1.
          2   -1    0    0  504    0 -0.00000000000E+00 -0.00000000000E+00 -0.78571499433E+03  0.78571499433E+03  0.00000000000E+00 0. -1.
         21    1    1    2  503  501 -0.42869706779E+02  0.20856374980E+02 -0.60198554932E+02  0.76789752914E+02  0.00000000000E+00 0. -1.
         21    1    1    2  504  502  0.11193892507E+03  0.36432592363E+02  0.41942819578E+02  0.12496742314E+03  0.00000000000E+00 0.  1.
         21    1    1    2  505  503 -0.47768769890E+02 -0.85346108669E+02 -0.37326823394E+02  0.10468574586E+03  0.00000000000E+00 0. -1.
          2    1    1    2  501    0 -0.21300448400E+02  0.28057141326E+02 -0.60418922785E+03  0.60521528015E+03  0.00000000000E+00 0. -1.
<scales pt_clust_3="59.86972" pt_clust_4="103.72310" pt_clust_5="14000.00000" pt_clust_6="35.22658"></scales>
<clustering>
<clus scale="   35.227">  2  6  1 -1</clus>
<clus scale="   59.870">  2  3  1 -1</clus>
<clus scale="  103.723">  1  4  2 -1</clus>
<clus scale="  103.723">  1  3  2 -1</clus>
</clustering>
</event>
<event>
 6    0  0.6338511E+002  0.5596659E+02  0.7546771E-02  0.1415582E+00
         21   -1    0    0  505  502  0.00000000000E+00  0.00000000000E+00  0.18430022004E+04  0.18430022004E+04  0.00000000000E+00 0. -1.
          2   -1    0    0  504    0 -0.00000000000E+00 -0.00000000000E+00 -0.41149098473E+03  0.41149098473E+03  0.00000000000E+00 0.  1.
         21    1    1    2  503  502 -0.43167973427E+02  0.14553706406E+01  0.18741739562E+03  0.19233011260E+03  0.00000000000E+00 0. -1.
         21    1    1    2  504  503 -0.74292817335E+02 -0.79617766559E+01  0.71804372632E+01  0.75062449163E+02  0.00000000000E+00 0.  1.
         21    1    1    2  505  501  0.89151160928E+02 -0.30738907457E+02  0.16091624744E+04  0.16119232857E+04  0.00000000000E+00 0. -1.
          2    1    1    2  501    0  0.28309629834E+02  0.37245313472E+02 -0.37224909160E+03  0.37517733769E+03  0.00000000000E+00 0.  1.
<scales pt_clust_3="43.19250" pt_clust_4="55.96659" pt_clust_5="14000.00000" pt_clust_6="46.76090"></scales>
<clustering>
<clus scale="   43.192">  1  3  2 -1</clus>
<clus scale="   46.761">  2  6  1 -1</clus>
<clus scale="   55.967">  2  4  1 -1</clus>
<clus scale="   43.192">  1  3  2 -1</clus>
</clustering>
</event>
<event>
 6    0  0.6338511E+002  0.1171101E+03  0.7546771E-02  0.1247942E+00
         21   -1    0    0  503  502  0.00000000000E+00  0.00000000000E+00  0.14475962541E+03  0.14475962541E+03  0.00000000000E+00 0. -1.
          1   -1    0    0  504    0 -0.00000000000E+00 -0.00000000000E+00 -0.51270453227E+03  0.51270453227E+03  0.00000000000E+00 0.  1.
         21    1    1    2  503  501 -0.60127749897E+02 -0.27460746579E+02  0.33343616593E+02  0.74035367750E+02  0.00000000000E+00 0. -1.
         21    1    1    2  504  505 -0.85922163011E+02 -0.56567387094E+01 -0.87030212335E+02  0.12242905966E+03  0.00000000000E+00 0. -1.
         21    1    1    2  505  502  0.25720135964E+02 -0.72216894131E+02  0.29280906870E+02  0.82062029582E+02  0.00000000000E+00 0. -1.
          1    1    1    2  501    0  0.12032977694E+03  0.10533437942E+03 -0.34353921799E+03  0.37893770069E+03  0.00000000000E+00 0.  1.
<scales pt_clust_3="66.10173" pt_clust_4="14000.00000" pt_clust_5="89.68535" pt_clust_6="117.11007"></scales>
<clustering>
<clus scale="   66.102">  1  3  2 -1</clus>
<clus scale="   89.685">  1  5  2 -1</clus>
<clus scale="  117.110">  2  6  1 -1</clus>
<clus scale="   66.102">  1  3  2 -1</clus>
</clustering>
</event>
<event>
 6    0  0.6338511E+002  0.1183455E+03  0.7546771E-02  0.1245852E+00
         21   -1    0    0  504  502  0.00000000000E+00  0.00000000000E+00  0.10787224356E+03  0.10787224356E+03  0.00000000000E+00 0. -1.
          2   -1    0    0  503    0 -0.00000000000E+00 -0.00000000000E+00 -0.24181620186E+04  0.24181620186E+04  0.00000000000E+00 0.  1.
         21    1    1    2  503  505  0.12993491226E+03  0.44807528354E+02  0.30325189321E+02  0.14074946938E+03  0.00000000000E+00 0. -1.
         21    1    1    2  504  501 -0.30503372953E+02 -0.35477935595E+02 -0.27356955504E+02  0.54199102299E+02  0.00000000000E+00 0.  1.
         21    1    1    2  505  502  0.10042418157E+02  0.34729154148E+02 -0.36855311706E+02  0.51626333506E+02  0.00000000000E+00 0.  1.
          2    1    1    2  501    0 -0.10947395747E+03 -0.44058746907E+02 -0.22764026972E+04  0.22794593570E+04  0.00000000000E+00 0.  1.
<scales pt_clust_3="14000.00000" pt_clust_4="42.44411" pt_clust_5="36.15196" pt_clust_6="118.34546"></scales>
<clustering>
<clus scale="   36.152">  1  5  2 -1</clus>
<clus scale="   42.444">  1  4  2 -1</clus>
<clus scale="  118.345">  2  6  1 -1</clus>
<clus scale="   36.152">  1  3  2 -1</clus>
</clustering>
</event>
<event>
 6    0  0.6338511E+002  0.2612681E+03  0.7546771E-02  0.1106384E+00
          2   -1    0    0  503    0 -0.00000000000E+00  0.00000000000E+00  0.28162007036E+04  0.28162007036E+04  0.00000000000E+00 0.  1.
         21   -1    0    0  504  502  0.00000000000E+00 -0.00000000000E+00 -0.63063715165E+02  0.63063715165E+02  0.00000000000E+00 0. -1.
         21    1    1    2  503  505  0.26510915822E+03 -0.73160179345E+02  0.73278544346E+03  0.78269392726E+03  0.00000000000E+00 0.  1.
         21    1    1    2  504  501 -0.28037995444E+03  0.52965604587E+02  0.14684409095E+04  0.14959067413E+04  0.00000000000E+00 0. -1.
         21    1    1    2  505  502 -0.46686396917E+02  0.56167657599E+01  0.19828738108E+01  0.47064843602E+02  0.00000000000E+00 0. -1.
          2    1    1    2  501    0  0.61957193134E+02  0.14577808999E+02  0.54992776172E+03  0.55359890662E+03  0.00000000000E+00 0.  1.
<scales pt_clust_3="261.26810" pt_clust_4="14000.00000" pt_clust_5="47.02306" pt_clust_6="61.65315"></scales>
<clustering>
<clus scale="   47.023">  2  5  1 -1</clus>
<clus scale="   61.653">  1  6  2 -1</clus>
<clus scale="  261.268">  2  3  1 -1</clus>
<clus scale="   47.023">  2  3  1 -1</clus>
</clustering>
</event>
<event>
 6    0  0.6338511E+002  0.9060155E+02  0.7546771E-02  0.1301401E+00
          1   -1    0    0  504    0 -0.00000000000E+00  0.00000000000E+00  0.31517274239E+03  0.31517274239E+03  0.00000000000E+00 0. -1.
         21   -1    0    0  505  502  0.00000000000E+00 -0.00000000000E+00 -0.89316131895E+03  0.89316131895E+03  0.00000000000E+00 0. -1.
         21    1    1    2  503  501 -0.60869592749E+02  0.11244783277E+02 -0.50644871461E+03  0.51021745658E+03  0.00000000000E+00 0. -1.
         21    1    1    2  504  502  0.39950904034E+02 -0.54898657670E+02 -0.23714716272E+03  0.24667532129E+03  0.00000000000E+00 0.  1.
         21    1    1    2  505  503 -0.29509532776E+02 -0.32689900050E+02 -0.13249059174E+03  0.13961804679E+03  0.00000000000E+00 0. -1.
          1    1    1    2  501    0  0.50428221490E+02  0.76343774444E+02  0.29809789250E+03  0.31182323668E+03  0.00000000000E+00 0. -1.
<scales pt_clust_3="14000.00000" pt_clust_4="72.12072" pt_clust_5="44.03910" pt_clust_6="90.60155"></scales>
<clustering>
<clus scale="   44.039">  2  5  1 -1</clus>
<clus scale="   72.121">  2  4  1 -1</clus>
<clus scale="   90.602">  1  6  2 -1</clus>
<clus scale="   44.039">  2  3  1 -1</clus>
</clustering>
</event>
<event>
 6    0  0.6338511E+002  0.9703366E+02  0.7546771E-02  0.1286660E+00
         21   -1    0    0  503  502  0.00000000000E+00  0.00000000000E+00  0.10458463274E+04  0.10458463274E+04  0.00000000000E+00 0. -1.
          2   -1    0    0  504    0 -0.00000000000E+00 -0.00000000000E+00 -0.46990504819E+03  0.46990504819E+03  0.00000000000E+00 0.  1.
         21    1    1    2  503  505 -0.53269406150E+02  0.27607476194E+02  0.39807144909E+03  0.40256761041E+03  0.00000000000E+00 0.  1.
         21    1    1    2  504  502 -0.27202630718E+02 -0.35522018181E+02  0.61002609574E+03  0.61166464209E+03  0.00000000000E+00 0. -1.
         21    1    1    2  505  501  0.11971820336E+03  0.85853644451E+02 -0.16861716576E+03  0.22390856408E+03  0.00000000000E+00 0.  1.
          2    1    1    2  501    0 -0.39246166491E+02 -0.77939102465E+02 -0.26353909991E+03  0.27761055898E+03  0.00000000000E+00 0.  1.
<scales pt_clust_3="78.46802" pt_clust_4="44.74144" pt_clust_5="14000.00000" pt_clust_6="97.03366"></scales>
<clustering>
<clus scale="   44.741">  1  4  2 -1</clus>
<clus scale="   78.468">  1  3  2 -1</clus>
<clus scale="   97.034">  2  6  1 -1</clus>
<clus scale="   44.741">  1  3  2 -1</clus>
</clustering>
</event>
<event>
 6    0  0.6338511E+002  0.1051088E+03  0.7546771E-02  0.1269905E+00
         -2   -1    0    0    0  501 -0.00000000000E+00  0.00000000000E+00  0.82516503428E+02  0.82516503428E+02  0.00000000000E+00 0. -1.
         21   -1    0    0  504  502  0.00000000000E+00 -0.00000000000E+00 -0.24061534579E+04  0.24061534579E+04  0.00000000000E+00 0.  1.
         21    1    1    2  503  502 -0.13082723668E+03  0.55408627825E+01 -0.20680962801E+04  0.20722376048E+04  0.00000000000E+00 0.  1.
         21    1    1    2  504  505  0.42241324609E+02 -0.10205032217E+02 -0.13623994997E+03  0.14300278373E+03  0.00000000000E+00 0. -1.
         21    1    1    2  505  501  0.16395622559E+01 -0.54379267155E+02 -0.15354028335E+03  0.16289386566E+03  0.00000000000E+00 0. -1.
         -2    1    1    2    0  503  0.86946349811E+02  0.59043436590E+02  0.34239558955E+02  0.11053570711E+03  0.00000000000E+00 0. -1.
<scales pt_clust_3="14000.00000" pt_clust_4="43.45656" pt_clust_5="55.28237" pt_clust_6="105.10882"></scales>
<clustering>
<clus scale="   43.457">  2  4  1 -1</clus>
<clus scale="   55.282">  2  5  1 -1</clus>
<clus scale="  105.109">  1  6  2 -1</clus>
<clus scale="   43.457">  2  3  1 -1</clus>
</clustering>
</event>
<event>
 6    0  0.6338511E+002  0.1246670E+03  0.7546771E-02  0.1235591E+00
          3   -1    0    0  505    0 -0.00000000000E+00  0.00000000000E+00  0.20906942933E+03  0.20906942933E+03  0.00000000000E+00 0.  1.
         21   -1    0    0  504  502  0.00000000000E+00 -0.00000000000E+00 -0.49897977231E+03  0.49897977231E+03  0.00000000000E+00 0. -1.
         21    1    1    2  503  502  0.35718916951E+02 -0.99650948601E+02 -0.16838781602E+03  0.19889848961E+03  0.00000000000E+00 0. -1.
         21    1    1    2  504  501 -0.82483271208E+02  0.13349808212E+03 -0.22442946712E+03  0.27384998388E+03  0.00000000000E+00 0. -1.
         21    1    1    2  505  503  0.45938044886E+02 -0.10250170480E+01 -0.56341494665E+02  0.72702948007E+02  0.00000000000E+00 0.  1.
          3    1    1    2  501    0  0.82630937182E+00 -0.32822116475E+02  0.15924843481E+03  0.16259778014E+03  0.00000000000E+00 0.  1.
<scales pt_clust_3="14000.00000" pt_clust_4="124.66702" pt_clust_5="46.54900" pt_clust_6="32.83252"></scales>
<clustering>
<clus scale="   32.833">  1  6  2 -1</clus>
<clus scale="   46.549">  1  5  2 -1</clus>
<clus scale="  124.667">  1  4  2 -1</clus>
<clus scale="  124.667">  2  3  1 -1</clus>
</clustering>
</event>
<event>
 6    0  0.6338511E+002  0.1145300E+03  0.7546771E-02  0.1252404E+00
         21   -1    0    0  503  502  0.00000000000E+00  0.00000000000E+00  0.12568819362E+03  0.12568819362E+03  0.00000000000E+00 0.  1.
          1   -1    0    0  504    0 -0.00000000000E+00 -0.00000000000E+00 -0.45987572581E+03  0.45987572581E+03  0.00000000000E+00 0.  1.
         21    1    1    2  503  505  0.30419955613E+02  0.76966302018E+02 -0.25555965716E+02  0.86615776447E+02  0.00000000000E+00 0.  1.
         21    1    1    2  504  502 -0.35279027803E+02 -0.32517628426E+02  0.33716022884E+02  0.58641079120E+02  0.00000000000E+00 0.  1.
         21    1    1    2  505  501  0.20504312249E+02  0.55632610289E+02  0.21156745378E+02  0.62952537862E+02  0.00000000000E+00 0.  1.
          1    1    1    2  501    0 -0.15645240059E+02 -0.10008128388E+03 -0.36350433474E+03  0.37735452600E+03  0.00000000000E+00 0.  1.
<scales pt_clust_3="39.47948" pt_clust_4="47.97922" pt_clust_5="39.47948" pt_clust_6="104.60186"></scales>
<clustering>
<clus scale="   39.479">  3  5 -1 -1</clus>
<clus scale="   47.979">  1  4  2 -1</clus>
<clus scale="  104.602">  2  6  1 -1</clus>
<clus scale="   47.979">  1  3  2 -1</clus>
</clustering>
</event>
<event>
 6    0  0.6338511E+002  0.7398181E+02  0.7546771E-02  0.1347053E+00
         -1   -1    0    0    0  501 -0.00000000000E+00  0.00000000000E+00  0.30950024814E+03  0.30950024814E+03  0.00000000000E+00 0.  1.
         21   -1    0    0  505  502  0.00000000000E+00 -0.00000000000E+00 -0.55793539853E+03  0.55793539853E+03  0.00000000000E+00 0. -1.
         21    1    1    2  503  501 -0.48361611856E+02  0.39301522238E+02  0.10426822604E+03  0.12147147037E+03  0.00000000000E+00 0.  1.
         21    1    1    2  504  503  0.59346148917E+02 -0.88944817391E+02 -0.23460012307E+03  0.25781847039E+03  0.00000000000E+00 0. -1.
         21    1    1    2  505  504 -0.39039076125E+02  0.17427060637E+02 -0.29911830615E+03  0.30215809270E+03  0.00000000000E+00 0. -1.
         -1    1    1    2    0  502  0.28054539063E+02  0.32216234516E+02  0.18101505279E+03  0.18598761320E+03  0.00000000000E+00 0.  1.
<scales pt_clust_3="14000.00000" pt_clust_4="73.98181" pt_clust_5="42.60445" pt_clust_6="42.71935"></scales>
<clustering>
<clus scale="   42.719">  1  6  2 -1</clus>
<clus scale="   42.604">  2  5  1 -1</clus>
<clus scale="   73.982">  2  4  1 -1</clus>
<clus scale="   42.604">  2  3  1 -1</clus>
</clustering>
</event>
<event>
 6    0  0.6338511E+002  0.9369019E+02  0.7546771E-02  0.1294154E+00
         21   -1    0    0  505  502  0.00000000000E+00  0.00000000000E+00  0.27468056348E+03  0.27468056348E+03  0.00000000000E+00 0. -1.
          2   -1    0    0  503    0 -0.00000000000E+00 -0.00000000000E+00 -0.13117242522E+04  0.13117242522E+04  0.00000000000E+00 0.  1.
         21    1    1    2  503  504 -0.64417222632E+02  0.63763762408E+02 -0.53634601539E+03  0.54395077368E+03  0.00000000000E+00 0.  1.
         21    1    1    2  504  502 -0.78062565801E+01 -0.11619432831E+03  0.22627661057E+03  0.25448607833E+03  0.00000000000E+00 0. -1.
         21    1    1    2  505  501  0.49457589731E+02  0.31735489743E+02  0.15597438364E+01  0.58784583796E+02  0.00000000000E+00 0. -1.
          2    1    1    2  501    0  0.22765889482E+02  0.20695076159E+02 -0.72853402775E+03  0.72918337987E+03  0.00000000000E+00 0.  1.
<scales pt_clust_3="93.69019" pt_clust_4="14000.00000" pt_clust_5="60.25363" pt_clust_6="30.76641"></scales>
<clustering>
<clus scale="   30.766">  2  6  1 -1</clus>
<clus scale="   60.254">  1  5  2 -1</clus>
<clus scale="   93.690">  2  3  1 -1</clus>
<clus scale="   60.254">  1  3  2 -1</clus>
</clustering>
</event>
<event>
 6    0  0.6338511E+002  0.1637099E+03  0.7546771E-02  0.1184571E+00
          2   -1    0    0  504    0 -0.00000000000E+00  0.00000000000E+00  0.48919297032E+04  0.48919297032E+04  0.00000000000E+00 0.  1.
         21   -1    0    0  503  502  0.00000000000E+00 -0.00000000000E+00 -0.11945708577E+03  0.11945708577E+03  0.00000000000E+00 0. -1.
         21    1    1    2  503  505  0.16971092213E+03  0.19762203477E+02 -0.90056984256E+01  0.17109484031E+03  0.00000000000E+00 0. -1.
         21    1    1    2  504  502  0.24619637739E+02  0.21733547178E+02  0.95947162539E+02  0.10141169378E+03  0.00000000000E+00 0. -1.
         21    1    1    2  505  501 -0.12543855023E+03 -0.61110775030E+02  0.15803877172E+03  0.21082127520E+03  0.00000000000E+00 0. -1.
          2    1    1    2  501    0 -0.68892009646E+02  0.19615024375E+02  0.45274923816E+04  0.45280589797E+04  0.00000000000E+00 0.  1.
<scales pt_clust_3="163.70988" pt_clust_4="32.84012" pt_clust_5="14000.00000" pt_clust_6="71.58702"></scales>
<clustering>
<clus scale="   32.840">  2  4  1 -1</clus>
<clus scale="   71.587">  1  6  2 -1</clus>
<clus scale="  163.710">  2  3  1 -1</clus>
<clus scale="   32.840">  2  3  1 -1</clus>
</clustering>
</event>
<event>
 6    0  0.6338511E+002  0.1368860E+03  0.7546771E-02  0.1217582E+00
          2   -1    0    0  503    0 -0.00000000000E+00  0.00000000000E+00  0.17717389082E+04  0.17717389082E+04  0.00000000000E+00 0. -1.
         21   -1    0    0  504  502  0.00000000000E+00 -0.00000000000E+00 -0.95113896915E+03  0.95113896915E+03  0.00000000000E+00 0. -1.
         21    1    1    2  503  502 -0.20943628416E+03 -0.12611089028E+03  0.31456794807E+03  0.39839742435E+03  0.00000000000E+00 0. -1.
         21    1    1    2  504  505  0.13393517048E+02  0.27673305045E+02 -0.79020471098E+03  0.79080255649E+03  0.00000000000E+00 0. -1.
         21    1    1    2  505  501  0.74993380485E+02  0.52597822717E+02 -0.97595480838E+02  0.13384848132E+03  0.00000000000E+00 0. -1.
          2    1    1    2  501    0  0.12104938663E+03  0.45839762513E+02  0.13938321828E+04  0.13998294152E+04  0.00000000000E+00 0. -1.
<scales pt_clust_3="136.88596" pt_clust_4="30.74407" pt_clust_5="111.46939" pt_clust_6="14000.00000"></scales>
<clustering>
<clus scale="   30.744">  2  4  1 -1</clus>
<clus scale="  111.469">  2  5  1 -1</clus>
<clus scale="  136.886">  2  3  1 -1</clus>
<clus scale="   30.744">  2  3  1 -1</clus>
</clustering>
</event>
<event>
 6    0  0.6338511E+002  0.9881650E+02  0.7546771E-02  0.1282805E+00
         21   -1    0    0  503  502  0.00000000000E+00  0.00000000000E+00  0.17775941889E+04  0.17775941889E+04  0.00000000000E+00 0. -1.
          2   -1    0    0  505    0 -0.00000000000E+00 -0.00000000000E+00 -0.65096881053E+02  0.65096881053E+02  0.00000000000E+00 0. -1.
         21    1    1    2  503  501 -0.15410806232E+01  0.30199358651E+02  0.80766981772E+02  0.86241994046E+02  0.00000000000E+00 0. -1.
         21    1    1    2  504  502 -0.74728579508E+02  0.38184648985E+02  0.15834409932E+04  0.15856632073E+04  0.00000000000E+00 0. -1.
         21    1    1    2  505  504  0.34977074999E+02 -0.90324763225E+02  0.69725672411E+02  0.11934667159E+03  0.00000000000E+00 0. -1.
          2    1    1    2  501    0  0.41292585132E+02  0.21940755589E+02 -0.21436339501E+02  0.51439197057E+02  0.00000000000E+00 0. -1.
<scales pt_clust_3="30.23865" pt_clust_4="98.81650" pt_clust_5="14000.00000" pt_clust_6="46.87381"></scales>
<clustering>
<clus scale="   30.239">  1  3  2 -1</clus>
<clus scale="   46.874">  2  6  1 -1</clus>
<clus scale="   98.817">  1  4  2 -1</clus>
<clus scale="   30.239">  1  3  2 -1</clus>
</clustering>
</event>
<event>
 6    0  0.6338511E+002  0.2819650E+03  0.7546771E-02  0.1094621E+00
          2   -1    0    0  504    0 -0.00000000000E+00  0.00000000000E+00  0.11712078381E+04  0.11712078381E+04  0.00000000000E+00 0.  1.
         21   -1    0    0  503  502  0.00000000000E+00 -0.00000000000E+00 -0.96793707338E+03  0.96793707338E+03  0.00000000000E+00 0. -1.
         21    1    1    2  503  505 -0.31320958170E+03  0.55162586982E+02 -0.68335147481E+03  0.75373230738E+03  0.00000000000E+00 0. -1.
         21    1    1    2  504  502  0.42365008376E+02  0.27992295537E+02 -0.22558531751E+03  0.23122953535E+03  0.00000000000E+00 0. -1.
         21    1    1    2  505  501  0.22010641886E+03 -0.71253964864E+02  0.66799383692E+03  0.70692271805E+03  0.00000000000E+00 0.  1.
          2    1    1    2  501    0  0.50738154466E+02 -0.11900917655E+02  0.44421372012E+03  0.44726035069E+03  0.00000000000E+00 0.  1.
<scales pt_clust_3="14000.00000" pt_clust_4="50.77758" pt_clust_5="281.96501" pt_clust_6="52.18703"></scales>
<clustering>
<clus scale="   50.778">  2  4  1 -1</clus>
<clus scale="   52.187">  1  6  2 -1</clus>
<clus scale="  281.965">  1  5  2 -1</clus>
<clus scale="   50.778">  2  3  1 -1</clus>
</clustering>
</event>
<event>
 6    0  0.6338511E+002  0.1208505E+03  0.7546771E-02  0.1241701E+00
         21   -1    0    0  505  502  0.00000000000E+00  0.00000000000E+00  0.41853790707E+03  0.41853790707E+03  0.00000000000E+00 0.  1.
         -1   -1    0    0    0  501 -0.00000000000E+00 -0.00000000000E+00 -0.43183392252E+03  0.43183392252E+03  0.00000000000E+00 0. -1.
         21    1    1    2  503  502 -0.12254255916E+02  0.84928629492E+02  0.51239646379E+02  0.99942684857E+02  0.00000000000E+00 0.  1.
         21    1    1    2  504  501 -0.96794222060E+02 -0.11881919796E+03  0.46739772176E+02  0.16022399799E+03  0.00000000000E+00 0.  1.
         21    1    1    2  505  504 -0.11333900448E+02  0.76825576103E+02  0.22097302255E+03  0.23422148308E+03  0.00000000000E+00 0.  1.
         -1    1    1    2    0  503  0.12038237842E+03 -0.42935007636E+02 -0.33224845655E+03  0.35598366366E+03  0.00000000000E+00 0. -1.
<scales pt_clust_3="116.55158" pt_clust_4="14000.00000" pt_clust_5="77.65711" pt_clust_6="120.85047"></scales>
<clustering>
<clus scale="   77.657">  1  5  2 -1</clus>
<clus scale="  116.552">  1  3  2 -1</clus>
<clus scale="  120.850">  2  6  1 -1</clus>
<clus scale="   77.657">  1  3  2 -1</clus>
</clustering>
</event>
<event>
 6    0  0.6338511E+002  0.1645008E+03  0.7546771E-02  0.1183707E+00
          2   -1    0    0  505    0 -0.00000000000E+00  0.00000000000E+00  0.50889990786E+02  0.50889990786E+02  0.00000000000E+00 0.  1.
         21   -1    0    0  504  502  0.00000000000E+00 -0.00000000000E+00 -0.17241175176E+04  0.17241175176E+04  0.00000000000E+00 0.  1.
         21    1    1    2  503  501  0.38674352215E+02  0.33346464150E+02 -0.66545030061E+02  0.83880469815E+02  0.00000000000E+00 0.  1.
         21    1    1    2  504  503  0.28777876338E+02 -0.47301444110E+02 -0.61240958440E+03  0.61490738477E+03  0.00000000000E+00 0.  1.
         21    1    1    2  505  502 -0.16327475674E+03 -0.32189028680E+02 -0.94404572191E+03  0.95860164031E+03  0.00000000000E+00 0.  1.
          2    1    1    2  501    0  0.95822528187E+02  0.46144008639E+02 -0.50227190477E+02  0.11761801352E+03  0.00000000000E+00 0.  1.
<scales pt_clust_3="35.04410" pt_clust_4="55.36780" pt_clust_5="156.53364" pt_clust_6="35.04410"></scales>
<clustering>
<clus scale="   35.044">  3  6 -1 -1</clus>
<clus scale="   55.368">  2  4  1 -1</clus>
<clus scale="  156.534">  2  5  1 -1</clus>
<clus scale="   55.368">  2  3  1 -1</clus>
</clustering>
</event>
<event>
 6    0  0.6338511E+002  0.9634401E+02  0.7546771E-02  0.1288177E+00
         21   -1    0    0  504  502  0.00000000000E+00  0.00000000000E+00  0.12778117959E+03  0.12778117959E+03  0.00000000000E+00 0.  1.
          1   -1    0    0  505    0 -0.00000000000E+00 -0.00000000000E+00 -0.76672399450E+03  0.76672399450E+03  0.00000000000E+00 0.  1.
         21    1    1    2  503  502 -0.86596965694E+02 -0.53223768230E+02  0.63284125015E+02  0.11973589458E+03  0.00000000000E+00 0.  1.
         21    1    1    2  504  501  0.10629049594E+02 -0.73413069720E+02 -0.32239920378E+02  0.80881814810E+02  0.00000000000E+00 0. -1.
         21    1    1    2  505  503  0.21621510998E+02  0.79530547489E+02 -0.17191695561E+03  0.19065161250E+03  0.00000000000E+00 0.  1.
          1    1    1    2  501    0  0.54346405101E+02  0.47106290461E+02 -0.49807006394E+03  0.50323585220E+03  0.00000000000E+00 0.  1.
<scales pt_clust_3="14000.00000" pt_clust_4="67.16777" pt_clust_5="96.34401" pt_clust_6="71.92033"></scales>
<clustering>
<clus scale="   71.920">  2  6  1 -1</clus>
<clus scale="   67.168">  2  4  1 -1</clus>
<clus scale="   96.344">  2  5  1 -1</clus>
<clus scale="   96.344">  1  3  2 -1</clus>
</clustering>
</event>
<event>
 6    0  0.6338511E+002  0.6951713E+02  0.7546771E-02  0.1361743E+00
          2   -1    0    0  504    0 -0.00000000000E+00  0.00000000000E+00  0.10839662408E+04  0.10839662408E+04  0.00000000000E+00 0. -1.
         21   -1    0    0  503  502  0.00000000000E+00 -0.00000000000E+00 -0.30436690218E+02  0.30436690218E+02  0.00000000000E+00 0. -1.
         21    1    1    2  503  501  0.21375428840E+01  0.30887405709E+02  0.48541503547E+02  0.57574981438E+02  0.00000000000E+00 0. -1.
         21    1    1    2  504  505  0.65643813245E+02  0.21367873056E+02  0.10627251348E+03  0.12672625354E+03  0.00000000000E+00 0. -1.
         21    1    1    2  505  502 -0.11956165898E+02 -0.92016971770E+02  0.13794133922E+03  0.16624646180E+03  0.00000000000E+00 0. -1.
          2    1    1    2  501    0 -0.55825190231E+02  0.39761693005E+02  0.76077419432E+03  0.76385523422E+03  0.00000000000E+00 0. -1.
<scales pt_clust_3="30.96128" pt_clust_4="66.83782" pt_clust_5="14000.00000" pt_clust_6="69.51713"></scales>
<clustering>
<clus scale="   30.961">  2  3  1 -1</clus>
<clus scale="   69.517">  1  6  2 -1</clus>
<clus scale="   66.838">  1  4  2 -1</clus>
<clus scale="   30.961">  2  3  1 -1</clus>
</clustering>
</event>
<event>
 6    0  0.6338511E+002  0.8697650E+02  0.7546771E-02  0.1310343E+00
         21   -1    0    0  505  502  0.00000000000E+00  0.00000000000E+00  0.20026197640E+04  0.20026197640E+04  0.00000000000E+00 0. -1.
          2   -1    0    0  504    0 -0.00000000000E+00 -0.00000000000E+00 -0.63609072755E+03  0.63609072755E+03  0.00000000000E+00 0. -1.
         21    1    1    2  503  501 -0.73027896525E+02  0.12358776222E+03 -0.21483659831E+02  0.14515011637E+03  0.00000000000E+00 0. -1.
         21    1    1    2  504  502 -0.14978045204E+02 -0.12197680138E+03  0.18653330189E+04  0.18693768891E+04  0.00000000000E+00 0. -1.
         21    1    1    2  505  503  0.27209171470E+02  0.43119015188E+02  0.61622619890E+02  0.79980846238E+02  0.00000000000E+00 0.  1.
          2    1    1    2  501    0  0.60796770258E+02 -0.44729976024E+02 -0.53894294249E+03  0.54420263992E+03  0.00000000000E+00 0. -1.
<scales pt_clust_3="86.97650" pt_clust_4="14000.00000" pt_clust_5="50.98616" pt_clust_6="75.47367"></scales>
<clustering>
<clus scale="   50.986">  1  5  2 -1</clus>
<clus scale="   75.474">  2  6  1 -1</clus>
<clus scale="   86.976">  2  3  1 -1</clus>
<clus scale="   50.986">  1  3  2 -1</clus>
</clustering>
</event>
<event>
 6    0  0.6338511E+002  0.1780667E+03  0.7546771E-02  0.1169687E+00
         21   -1    0    0  504  502  0.00000000000E+00  0.00000000000E+00  0.59594271831E+03  0.59594271831E+03  0.00000000000E+00 0.  1.
         -2   -1    0    0    0  501 -0.00000000000E+00 -0.00000000000E+00 -0.15293287931E+03  0.15293287931E+03  0.00000000000E+00 0. -1.
         21    1    1    2  503  502  0.30922745886E+02 -0.16789898059E+02  0.94006453496E+02  0.10037594427E+03  0.00000000000E+00 0. -1.
         21    1    1    2  504  501  0.44352309577E+02  0.56667178163E+02  0.10374586113E+03  0.12625965368E+03  0.00000000000E+00 0. -1.
         21    1    1    2  505  503  0.21911083964E+02 -0.18990114712E+03  0.28108929909E+03  0.33993195693E+03  0.00000000000E+00 0.  1.
         -2    1    1    2    0  505 -0.97186139427E+02  0.15002386701E+03 -0.35831774716E+02  0.18230804275E+03  0.00000000000E+00 0. -1.
<scales pt_clust_3="35.18689" pt_clust_4="73.74171" pt_clust_5="14000.00000" pt_clust_6="178.06671"></scales>
<clustering>
<clus scale="   35.187">  1  3  2 -1</clus>
<clus scale="   73.742">  1  4  2 -1</clus>
<clus scale="  178.067">  2  6  1 -1</clus>
<clus scale="   35.187">  1  3  2 -1</clus>
</clustering>
</event>
<event>
 6    0  0.6338511E+002  0.1065227E+03  0.7546771E-02  0.1267148E+00
         -1   -1    0    0    0  501 -0.00000000000E+00  0.00000000000E+00  0.18014506554E+04  0.18014506554E+04  0.00000000000E+00 0. -1.
         21   -1    0    0  503  502  0.00000000000E+00 -0.00000000000E+00 -0.21096924836E+03  0.21096924836E+03  0.00000000000E+00 0. -1.
         21    1    1    2  503  504 -0.18986540420E+02  0.94126797713E+02 -0.16559907135E+03  0.19142464627E+03  0.00000000000E+00 0. -1.
         21    1    1    2  504  501  0.10399148288E+02  0.30969614251E+02  0.20502674399E+03  0.20761316202E+03  0.00000000000E+00 0. -1.
         21    1    1    2  505  502  0.38933697750E+02  0.10265644130E+02 -0.13669660501E+02  0.42521475611E+02  0.00000000000E+00 0.  1.
         -1    1    1    2    0  505 -0.30346305618E+02 -0.13536205609E+03  0.15647233949E+04  0.15708606199E+04  0.00000000000E+00 0. -1.
<scales pt_clust_3="106.52267" pt_clust_4="32.66893" pt_clust_5="40.42743" pt_clust_6="14000.00000"></scales>
<clustering>
<clus scale="   32.669">  1  4  2 -1</clus>
<clus scale="   40.427">  2  5  1 -1</clus>
<clus scale="  106.523">  2  3  1 -1</clus>
<clus scale="   40.427">  2  3  1 -1</clus>
</clustering>
</event>
<event>
 6    0  0.6338511E+002  0.7247651E+02  0.7546771E-02  0.1351868E+00
          1   -1    0    0  503    0 -0.00000000000E+00  0.00000000000E+00  0.41792028306E+03  0.41792028306E+03  0.00000000000E+00 0. -1.
         21   -1    0    0  505  502  0.00000000000E+00 -0.00000000000E+00 -0.36703326948E+03  0.36703326948E+03  0.00000000000E+00 0. -1.
         21    1    1    2  503  504 -0.15912793937E+03  0.19002618713E+02 -0.12644189408E+03  0.20413317512E+03  0.00000000000E+00 0. -1.
         21    1    1    2  504  502  0.33742832771E+02 -0.26580303884E+02 -0.15207950343E+03  0.15802932222E+03  0.00000000000E+00 0. -1.
         21    1    1    2  505  501  0.55242339992E+02  0.15787909267E+02 -0.24095262184E+02  0.62302133724E+02  0.00000000000E+00 0. -1.
          1    1    1    2  501    0  0.70142766607E+02 -0.82102240953E+01  0.35350367328E+03  0.36048892148E+03  0.00000000000E+00 0. -1.
<scales pt_clust_3="14000.00000" pt_clust_4="42.95453" pt_clust_5="62.97854" pt_clust_6="72.47651"></scales>
<clustering>
<clus scale="   42.955">  2  4  1 -1</clus>
<clus scale="   62.979">  2  5  1 -1</clus>
<clus scale="   72.477">  1  6  2 -1</clus>
<clus scale="   42.955">  2  3  1 -1</clus>
</clustering>
</event>
<event>
 6    0  0.6338511E+002  0.2981126E+03  0.7546771E-02  0.1086188E+00
          2   -1    0    0  504    0 -0.00000000000E+00  0.00000000000E+00  0.84274571803E+03  0.84274571803E+03  0.00000000000E+00 0.  1.
         21   -1    0    0  505  502  0.00000000000E+00 -0.00000000000E+00 -0.45234342476E+03  0.45234342476E+03  0.00000000000E+00 0.  1.
         21    1    1    2  503  501 -0.90673625849E+02 -0.94171092807E+02 -0.10947882636E+03  0.17051543791E+03  0.00000000000E+00 0. -1.
         21    1    1    2  504  502  0.17938226569E+03  0.21266393775E+03  0.66894432473E+02  0.28614474092E+03  0.00000000000E+00 0. -1.
         21    1    1    2  505  503 -0.72059905476E+02 -0.15786908762E+03 -0.16467840231E+03  0.23923681780E+03  0.00000000000E+00 0.  1.
          2    1    1    2  501    0 -0.16648734367E+02  0.39376242681E+02  0.59766508947E+03  0.59919214615E+03  0.00000000000E+00 0.  1.
<scales pt_clust_3="45.55912" pt_clust_4="293.50102" pt_clust_5="45.55912" pt_clust_6="42.75124"></scales>
<clustering>
<clus scale="   42.751">  1  6  2 -1</clus>
<clus scale="   45.559">  3  5 -1 -1</clus>
<clus scale="  293.501">  1  4  2 -1</clus>
<clus scale="  298.113">  2  3  1 -1</clus>
</clustering>
</event>
<event>
 6    0  0.6338511E+002  0.1353036E+03  0.7546771E-02  0.1219792E+00
          3   -1    0    0  503    0 -0.00000000000E+00  0.00000000000E+00  0.22407728190E+03  0.22407728190E+03  0.00000000000E+00 0. -1.
         21   -1    0    0  504  502  0.00000000000E+00 -0.00000000000E+00 -0.16685660684E+03  0.16685660684E+03  0.00000000000E+00 0. -1.
         21    1    1    2  503  502 -0.16585423802E+02 -0.14535642936E+03 -0.72321023555E+02  0.16319895308E+03  0.00000000000E+00 0. -1.
         21    1    1    2  504  505 -0.13497154219E+02  0.29142075392E+02 -0.35133754892E+01  0.32307546138E+02  0.00000000000E+00 0. -1.
         21    1    1    2  505  501  0.32725896610E+02  0.66058105818E+02  0.27772273657E+02  0.78777895613E+02  0.00000000000E+00 0. -1.
          3    1    1    2  501    0 -0.26433185892E+01  0.50156248145E+02  0.10528280044E+03  0.11664949391E+03  0.00000000000E+00 0. -1.
<scales pt_clust_3="126.44521" pt_clust_4="31.78235" pt_clust_5="31.78235" pt_clust_6="50.22585"></scales>
<clustering>
<clus scale="   31.782">  4  5 -1 -1</clus>
<clus scale="   50.226">  1  6  2 -1</clus>
<clus scale="  126.445">  2  3  1 -1</clus>
<clus scale="  126.445">  2  3  1 -1</clus>
</clustering>
</event>
<event>
 6    0  0.9020384E+002  0.1154985E+03  0.7546771E-02  0.1250713E+00
          1   -1    0    0  505    0 -0.00000000000E+00  0.00000000000E+00  0.35224214339E+03  0.35224214339E+03  0.00000000000E+00 0. -1.
         21   -1    0    0  501  502  0.00000000000E+00 -0.00000000000E+00 -0.65292326406E+03  0.65292326406E+03  0.00000000000E+00 0. -1.
         21    1    1    2  503  502 -0.40493628146E+02 -0.58080337226E+01 -0.39610343136E+03  0.39821024034E+03  0.00000000000E+00 0. -1.
         21    1    1    2  504  503 -0.83353139241E+02 -0.87172095143E+01 -0.23325143846E+03  0.24785069923E+03  0.00000000000E+00 0. -1.
         21    1    1    2  505  504  0.71159054834E+02  0.26217024340E+02  0.10825341314E+03  0.13217316258E+03  0.00000000000E+00 0. -1.
          1    1    1    2  501    0  0.52687712554E+02 -0.11691781103E+02  0.22042033601E+03  0.22693130531E+03  0.00000000000E+00 0. -1.
<scales pt_clust_3="40.90803" pt_clust_4="115.49852" pt_clust_5="14000.00000" pt_clust_6="53.48252"></scales>
<clustering>
<clus scale="   40.908">  2  3  1 -1</clus>
<clus scale="   53.483">  1  6  2 -1</clus>
<clus scale="  115.499">  2  4  1 -1</clus>
<clus scale="   40.908">  2  3  1 -1</clus>
</clustering>
</event>
<event>
 6    0  0.6338511E+002  0.9704048E+02  0.7546771E-02  0.1286645E+00
          1   -1    0    0  505    0 -0.00000000000E+00  0.00000000000E+00  0.22021825604E+04  0.22021825604E+04  0.00000000000E+00 0.  1.
         21   -1    0    0  503  502  0.00000000000E+00 -0.00000000000E+00 -0.64753032933E+02  0.64753032933E+02  0.00000000000E+00 0. -1.
         21    1    1    2  503  501 -0.42046801225E+02  0.13743243867E+03  0.11947396587E+03  0.18689472227E+03  0.00000000000E+00 0. -1.
         21    1    1    2  504  502  0.30600586982E+02  0.32360500809E+01 -0.94161891774E+01  0.32179691770E+02  0.00000000000E+00 0. -1.
         21    1    1    2  505  504  0.86353335845E+01 -0.45101254164E+02  0.48902407962E+02  0.67083065060E+02  0.00000000000E+00 0.  1.
          1    1    1    2  501    0  0.28108806582E+01 -0.95567234586E+02  0.19784693428E+04  0.19807781142E+04  0.00000000000E+00 0.  1.
<scales pt_clust_3="14000.00000" pt_clust_4="30.77122" pt_clust_5="46.88411" pt_clust_6="97.04048"></scales>
<clustering>
<clus scale="   30.771">  2  4  1 -1</clus>
<clus scale="   46.884">  2  5  1 -1</clus>
<clus scale="   97.040">  1  6  2 -1</clus>
<clus scale="   30.771">  2  3  1 -1</clus>
</clustering>
</event>
<event>
 6    0  0.6338511E+002  0.1708129E+03  0.7546771E-02  0.1177003E+00
         -2   -1    0    0    0  501 -0.00000000000E+00  0.00000000000E+00  0.61440568173E+03  0.61440568173E+03  0.00000000000E+00 0. -1.
         21   -1    0    0  505  502  0.00000000000E+00 -0.00000000000E+00 -0.52174309800E+03  0.52174309800E+03  0.00000000000E+00 0.  1.
         21    1    1    2  503  501 -0.12274959212E+02 -0.49357692021E+02  0.97005176811E+02  0.10953018175E+03  0.00000000000E+00 0.  1.
         21    1    1    2  504  502 -0.73635437838E+02 -0.73849593676E+02 -0.17428605512E+02  0.10573408382E+03  0.00000000000E+00 0.  1.
         21    1    1    2  505  503  0.16737268589E+03  0.12233151562E+03 -0.42628602583E+03  0.47402361915E+03  0.00000000000E+00 0.  1.
         -2    1    1    2    0  504 -0.81462288842E+02  0.87577007599E+00  0.43937203826E+03  0.44686089500E+03  0.00000000000E+00 0. -1.
<scales pt_clust_3="50.86115" pt_clust_4="14000.00000" pt_clust_5="170.81295" pt_clust_6="101.19206"></scales>
<clustering>
<clus scale="   50.861">  1  3  2 -1</clus>
<clus scale="  101.192">  1  6  2 -1</clus>
<clus scale="  170.813">  2  5  1 -1</clus>
<clus scale="  170.813">  2  3  1 -1</clus>
</clustering>
</event>
<event>
 6    0  0.6338511E+002  0.2114034E+03  0.7546771E-02  0.1140459E+00
         21   -1    0    0  503  502  0.00000000000E+00  0.00000000000E+00  0.50582094236E+03  0.50582094236E+03  0.00000000000E+00 0. -1.
         -1   -1    0    0    0  501 -0.00000000000E+00 -0.00000000000E+00 -0.25115146239E+03  0.25115146239E+03  0.00000000000E+00 0.  1.
         21    1    1    2  503  501  0.75625803061E+02 -0.36698320341E+00 -0.56158031219E+01  0.75834912870E+02  0.00000000000E+00 0. -1.
         21    1    1    2  504  505 -0.14032982315E+03 -0.60912027986E+02  0.26154504717E+03  0.30299925102E+03  0.00000000000E+00 0. -1.
         21    1    1    2  505  502 -0.37954347855E+02 -0.52346949216E+02  0.14972470743E+03  0.16308961840E+03  0.00000000000E+00 0.  1.
         -1    1    1    2    0  504  0.10265836794E+03  0.11362596040E+03 -0.15098447152E+03  0.21504862247E+03  0.00000000000E+00 0.  1.
<scales pt_clust_3="75.62669" pt_clust_4="38.36936" pt_clust_5="38.36936" pt_clust_6="202.99808"></scales>
<clustering>
<clus scale="   38.369">  4  5 -1 -1</clus>
<clus scale="   75.627">  2  3  1 -1</clus>
<clus scale="  202.998">  2  6  1 -1</clus>
<clus scale="  211.403">  1  3  2 -1</clus>
</clustering>
</event>
<event>
 6    0  0.6338511E+002  0.8566549E+02  0.7546771E-02  0.1313701E+00
          3   -1    0    0  504    0 -0.00000000000E+00  0.00000000000E+00  0.58032553110E+03  0.58032553110E+03  0.00000000000E+00 0. -1.
         21   -1    0    0  503  502  0.00000000000E+00 -0.00000000000E+00 -0.21507372023E+03  0.21507372023E+03  0.00000000000E+00 0. -1.
         21    1    1    2  503  501  0.36672237213E+02  0.52777431274E+02  0.35915496814E+02  0.73622232685E+02  0.00000000000E+00 0. -1.
         21    1    1    2  504  505 -0.81687415206E+02 -0.84114548890E+02  0.48336216312E+02  0.12682460702E+03  0.00000000000E+00 0.  1.
         21    1    1    2  505  502  0.11870350920E+02  0.36041273750E+02 -0.15403048574E+03  0.15863564915E+03  0.00000000000E+00 0. -1.
          3    1    1    2  501    0  0.33144827073E+02 -0.47041561341E+01  0.43503058348E+03  0.43631676247E+03  0.00000000000E+00 0. -1.
<scales pt_clust_3="85.66549" pt_clust_4="14000.00000" pt_clust_5="38.04327" pt_clust_6="33.47699"></scales>
<clustering>
<clus scale="   33.477">  1  6  2 -1</clus>
<clus scale="   38.043">  2  5  1 -1</clus>
<clus scale="   85.665">  1  3  2 -1</clus>
<clus scale="   38.043">  2  3  1 -1</clus>
</clustering>
</event>
<event>
 6    0  0.6338511E+002  0.1084688E+03  0.7546771E-02  0.1263432E+00
         -2   -1    0    0    0  501 -0.00000000000E+00  0.00000000000E+00  0.81843012976E+03  0.81843012976E+03  0.00000000000E+00 0.  1.
         21   -1    0    0  504  502  0.00000000000E+00 -0.00000000000E+00 -0.40977814600E+03  0.40977814600E+03  0.00000000000E+00 0.  1.
         21    1    1    2  503  505 -0.76469239068E+02  0.25371195028E+01 -0.76061936078E+02  0.10788604923E+03  0.00000000000E+00 0.  1.
         21    1    1    2  504  503 -0.33202471619E+02 -0.46923348272E+02 -0.29631694466E+03  0.30184091244E+03  0.00000000000E+00 0.  1.
         21    1    1    2  505  501  0.11500796364E+03 -0.73229142189E+01  0.17080723821E+03  0.20604749307E+03  0.00000000000E+00 0.  1.
         -2    1    1    2    0  502 -0.53362529557E+01  0.51709142988E+02  0.61022362627E+03  0.61243382102E+03  0.00000000000E+00 0.  1.
<scales pt_clust_3="14000.00000" pt_clust_4="56.96221" pt_clust_5="108.46882" pt_clust_6="51.98376"></scales>
<clustering>
<clus scale="   51.984">  1  6  2 -1</clus>
<clus scale="   56.962">  2  4  1 -1</clus>
<clus scale="  108.469">  1  5  2 -1</clus>
<clus scale="   56.962">  2  3  1 -1</clus>
</clustering>
</event>
<event>
 6    0  0.6338511E+002  0.5581867E+02  0.7546771E-02  0.1416267E+00
         21   -1    0    0  503  502  0.00000000000E+00  0.00000000000E+00  0.13040133594E+04  0.13040133594E+04  0.00000000000E+00 0.  1.
          2   -1    0    0  504    0 -0.00000000000E+00 -0.00000000000E+00 -0.49508551825E+03  0.49508551825E+03  0.00000000000E+00 0.  1.
         21    1    1    2  503  505  0.35615544739E+02  0.61186621425E+02 -0.70307242717E+02  0.99776640788E+02  0.00000000000E+00 0. -1.
         21    1    1    2  504  502  0.19539642470E+01 -0.54949345507E+02  0.12700717990E+04  0.12712614299E+04  0.00000000000E+00 0.  1.
         21    1    1    2  505  501 -0.73060767496E+02  0.25250423140E+02 -0.71756966286E+02  0.10547284876E+03  0.00000000000E+00 0.  1.
          2    1    1    2  501    0  0.35491258509E+02 -0.31487699057E+02 -0.31907974887E+03  0.32258795818E+03  0.00000000000E+00 0.  1.
<scales pt_clust_3="14000.00000" pt_clust_4="55.09592" pt_clust_5="55.81867" pt_clust_6="47.44581"></scales>
<clustering>
<clus scale="   47.446">  2  6  1 -1</clus>
<clus scale="   55.096">  1  4  2 -1</clus>
<clus scale="   55.819">  2  5  1 -1</clus>
<clus scale="   55.096">  1  3  2 -1</clus>
</clustering>
</event>
<event>
 6    0  0.6338511E+002  0.9924281E+02  0.7546771E-02  0.1281896E+00
          2   -1    0    0  504    0 -0.00000000000E+00  0.00000000000E+00  0.13602157325E+04  0.13602157325E+04  0.00000000000E+00 0.  1.
         21   -1    0    0  503  502  0.00000000000E+00 -0.00000000000E+00 -0.19904702396E+03  0.19904702396E+03  0.00000000000E+00 0.  1.
         21    1    1    2  503  501 -0.26036742785E+00 -0.42605496810E+02 -0.99036947431E+02  0.10781286151E+03  0.00000000000E+00 0.  1.
         21    1    1    2  504  505  0.73877533667E+02 -0.70829738800E+00 -0.10834525888E+02  0.74671136439E+02  0.00000000000E+00 0.  1.
         21    1    1    2  505  502  0.22185093942E+02  0.73898094444E+02 -0.21686586131E+02  0.80146208729E+02  0.00000000000E+00 0.  1.
          2    1    1    2  501    0 -0.95802260181E+02 -0.30584300247E+02  0.12927267679E+04  0.12966325497E+04  0.00000000000E+00 0.  1.
<scales pt_clust_3="42.60629" pt_clust_4="14000.00000" pt_clust_5="55.75560" pt_clust_6="99.24281"></scales>
<clustering>
<clus scale="   42.606">  2  3  1 -1</clus>
<clus scale="   55.756">  2  5  1 -1</clus>
<clus scale="   99.243">  1  6  2 -1</clus>
<clus scale="   42.606">  2  3  1 -1</clus>
</clustering>
</event>
<event>
 6    0  0.6338511E+002  0.1535577E+03  0.7546771E-02  0.1196168E+00
         21   -1    0    0  501  502  0.00000000000E+00  0.00000000000E+00  0.94596749983E+03  0.94596749983E+03  0.00000000000E+00 0. -1.
          2   -1    0    0  505    0 -0.00000000000E+00 -0.00000000000E+00 -0.89954668078E+03  0.89954668078E+03  0.00000000000E+00 0. -1.
         21    1    1    2  503  504 -0.69572374402E+02 -0.15631563002E+02  0.59107468213E+02  0.92619403152E+02  0.00000000000E+00 0.  1.
         21    1    1    2  504  502 -0.23643732147E+02  0.21096048813E+02  0.75371218487E+03  0.75437797354E+03  0.00000000000E+00 0. -1.
         21    1    1    2  505  503 -0.51418657322E+02  0.12948206634E+02  0.10360232213E+03  0.11638288331E+03  0.00000000000E+00 0. -1.
          2    1    1    2  501    0  0.14463476387E+03 -0.18412692444E+02 -0.87000115616E+03  0.88213392061E+03  0.00000000000E+00 0. -1.
<scales pt_clust_3="47.43726" pt_clust_4="31.68705" pt_clust_5="47.43726" pt_clust_6="144.97761"></scales>
<clustering>
<clus scale="   31.687">  1  4  2 -1</clus>
<clus scale="   47.437">  3  5 -1 -1</clus>
<clus scale="  144.978">  2  6  1 -1</clus>
<clus scale="   31.687">  1  3  2 -1</clus>
</clustering>
</event>
<event>
 6    0  0.6338511E+002  0.6554406E+02  0.7546771E-02  0.1375937E+00
          2   -1    0    0  503    0 -0.00000000000E+00  0.00000000000E+00  0.10131282604E+03  0.10131282604E+03  0.00000000000E+00 0. -1.
         21   -1    0    0  504  502  0.00000000000E+00 -0.00000000000E+00 -0.82869991004E+03  0.82869991004E+03  0.00000000000E+00 0.  1.
         21    1    1    2  503  502  0.38743917265E+02  0.71528744520E+02 -0.23855075807E+03  0.25203951395E+03  0.00000000000E+00 0.  1.
         21    1    1    2  504  505 -0.13110820057E+02 -0.29488501098E+02 -0.39017110496E+03  0.39150345649E+03  0.00000000000E+00 0.  1.
         21    1    1    2  505  501  0.21468746142E+02 -0.86534065084E+02 -0.16885356762E+03  0.19094653382E+03  0.00000000000E+00 0.  1.
          2    1    1    2  501    0 -0.47101843350E+02  0.44493821661E+02  0.70188346646E+02  0.95523231823E+02  0.00000000000E+00 0. -1.
<scales pt_clust_3="63.33950" pt_clust_4="32.27174" pt_clust_5="65.54406" pt_clust_6="14000.00000"></scales>
<clustering>
<clus scale="   32.272">  2  4  1 -1</clus>
<clus scale="   63.339">  2  3  1 -1</clus>
<clus scale="   65.544">  2  5  1 -1</clus>
<clus scale="   32.272">  2  3  1 -1</clus>
</clustering>
</event>
<event>
 6    0  0.6338511E+002  0.1939838E+03  0.7546771E-02  0.1154917E+00
         21   -1    0    0  503  502  0.00000000000E+00  0.00000000000E+00  0.62716658593E+03  0.62716658593E+03  0.00000000000E+00 0. -1.
          2   -1    0    0  505    0 -0.00000000000E+00 -0.00000000000E+00 -0.26998274451E+04  0.26998274451E+04  0.00000000000E+00 0.  1.
         21    1    1    2  503  504  0.39750429270E+02  0.18966646783E+03  0.56300360457E+03  0.59542129992E+03  0.00000000000E+00 0. -1.
         21    1    1    2  504  501 -0.18866053825E+03 -0.16572475918E+03 -0.65901647066E+03  0.70523769263E+03  0.00000000000E+00 0.  1.
         21    1    1    2  505  502  0.14633503446E+03 -0.61918613604E+02 -0.23157319085E+03  0.28084515261E+03  0.00000000000E+00 0.  1.
          2    1    1    2  501    0  0.25750745175E+01  0.37976904961E+02 -0.17450748022E+04  0.17454898858E+04  0.00000000000E+00 0.  1.
<scales pt_clust_3="14000.00000" pt_clust_4="193.98377" pt_clust_5="155.85957" pt_clust_6="38.06411"></scales>
<clustering>
<clus scale="   38.064">  2  6  1 -1</clus>
<clus scale="  155.860">  2  5  1 -1</clus>
<clus scale="  193.984">  2  4  1 -1</clus>
<clus scale="  193.984">  1  3  2 -1</clus>
</clustering>
</event>
<event>
 6    0  0.6338511E+002  0.9968882E+02  0.7546771E-02  0.1280952E+00
          2   -1    0    0  503    0 -0.00000000000E+00  0.00000000000E+00  0.62900895815E+03  0.62900895815E+03  0.00000000000E+00 0. -1.
         21   -1    0    0  505  502  0.00000000000E+00 -0.00000000000E+00 -0.95358319589E+03  0.95358319589E+03  0.00000000000E+00 0. -1.
         21    1    1    2  503  502 -0.96416953999E+02  0.97236855141E+02 -0.63548427128E+03  0.65007037624E+03  0.00000000000E+00 0. -1.
         21    1    1    2  504  501  0.82592832419E+02 -0.25413578623E+02 -0.36415951586E+02  0.93773916818E+02  0.00000000000E+00 0. -1.
         21    1    1    2  505  504  0.25276807345E+02 -0.27452907224E+02 -0.24340155822E+03  0.24624560432E+03  0.00000000000E+00 0. -1.
          2    1    1    2  501    0 -0.11452685764E+02 -0.44370369294E+02  0.59072754335E+03  0.59250225666E+03  0.00000000000E+00 0. -1.
<scales pt_clust_3="99.68882" pt_clust_4="14000.00000" pt_clust_5="37.31728" pt_clust_6="45.84998"></scales>
<clustering>
<clus scale="   37.317">  2  5  1 -1</clus>
<clus scale="   45.850">  1  6  2 -1</clus>
<clus scale="   99.689">  2  3  1 -1</clus>
<clus scale="   37.317">  2  3  1 -1</clus>
</clustering>
</event>
<event>
 6    0  0.6338511E+002  0.7975973E+02  0.7546771E-02  0.1329735E+00
         -3   -1    0    0    0  501 -0.00000000000E+00  0.00000000000E+00  0.10015898645E+04  0.10015898645E+04  0.00000000000E+00 0. -1.
         21   -1    0    0  505  502  0.00000000000E+00 -0.00000000000E+00 -0.23467288576E+03  0.23467288576E+03  0.00000000000E+00 0.  1.
         21    1    1    2  503  501 -0.77218051121E+02 -0.10431580550E+02  0.52742993705E+03  0.53315455901E+03  0.00000000000E+00 0. -1.
         21    1    1    2  504  502 -0.37797768408E+02 -0.44560643163E+02 -0.30166993368E+02  0.65759939968E+02  0.00000000000E+00 0.  1.
         21    1    1    2  505  503  0.88295840880E+02 -0.20945512661E+02 -0.16875654561E+03  0.19160804186E+03  0.00000000000E+00 0.  1.
         -3    1    1    2    0  504  0.26719978649E+02  0.75937736373E+02  0.43841058072E+03  0.44574020948E+03  0.00000000000E+00 0. -1.
<scales pt_clust_3="78.58746" pt_clust_4="58.43220" pt_clust_5="14000.00000" pt_clust_6="79.75973"></scales>
<clustering>
<clus scale="   58.432">  2  4  1 -1</clus>
<clus scale="   78.587">  1  3  2 -1</clus>
<clus scale="   79.760">  1  6  2 -1</clus>
<clus scale="   58.432">  2  3  1 -1</clus>
</clustering>
</event>
<event>
 6    0  0.6338511E+002  0.1587184E+03  0.7546771E-02  0.1190151E+00
         21   -1    0    0  503  502  0.00000000000E+00  0.00000000000E+00  0.89061602378E+03  0.89061602378E+03  0.00000000000E+00 0.  1.
          1   -1    0    0  504    0 -0.00000000000E+00 -0.00000000000E+00 -0.36756890661E+04  0.36756890661E+04  0.00000000000E+00 0. -1.
         21    1    1    2  503  505 -0.27066357420E+02  0.21530445054E+02  0.38787788846E+02  0.51967685457E+02  0.00000000000E+00 0. -1.
         21    1    1    2  504  502  0.56757254591E+02  0.13542179507E+03  0.83055317696E+03  0.84343288309E+03  0.00000000000E+00 0.  1.
         21    1    1    2  505  501  0.41411857959E+02 -0.13211524938E+03 -0.60821954700E+03  0.62377912633E+03  0.00000000000E+00 0. -1.
          1    1    1    2  501    0 -0.71102755131E+02 -0.24836990746E+02 -0.30461944611E+04  0.30471253950E+04  0.00000000000E+00 0. -1.
<scales pt_clust_3="34.58537" pt_clust_4="14000.00000" pt_clust_5="158.71838" pt_clust_6="75.32602"></scales>
<clustering>
<clus scale="   34.585">  1  3  2 -1</clus>
<clus scale="   75.326">  2  6  1 -1</clus>
<clus scale="  158.718">  2  5  1 -1</clus>
<clus scale="   34.585">  1  3  2 -1</clus>
</clustering>
</event>
<event>
 6    0  0.6338511E+002  0.1352100E+03  0.7546771E-02  0.1219924E+00
          2   -1    0    0  504    0 -0.00000000000E+00  0.00000000000E+00  0.31781611151E+02  0.31781611151E+02  0.00000000000E+00 0. -1.
         21   -1    0    0  503  502  0.00000000000E+00 -0.00000000000E+00 -0.71520449849E+03  0.71520449849E+03  0.00000000000E+00 0. -1.
         21    1    1    2  503  501  0.47247908960E+02 -0.11126201447E+03 -0.33754776170E+03  0.35853882941E+03  0.00000000000E+00 0. -1.
         21    1    1    2  504  505 -0.66365792852E+02  0.62559731466E+02 -0.13494577347E+03  0.16287572023E+03  0.00000000000E+00 0. -1.
         21    1    1    2  505  502 -0.15050832125E+02  0.36583807160E+02 -0.14536253973E+03  0.15064916346E+03  0.00000000000E+00 0. -1.
          2    1    1    2  501    0  0.34168716017E+02  0.12118475847E+02 -0.65566812450E+02  0.74922396558E+02  0.00000000000E+00 0. -1.
<scales pt_clust_3="122.53471" pt_clust_4="39.13924" pt_clust_5="39.13924" pt_clust_6="36.25408"></scales>
<clustering>
<clus scale="   36.254">  1  6  2 -1</clus>
<clus scale="   39.139">  4  5 -1 -1</clus>
<clus scale="  122.535">  2  3  1 -1</clus>
<clus scale="  122.535">  2  3  1 -1</clus>
</clustering>
</event>
<event>
 6    0  0.6338511E+002  0.1471122E+03  0.7546771E-02  0.1204067E+00
          1   -1    0    0  503    0 -0.00000000000E+00  0.00000000000E+00  0.15212471733E+04  0.15212471733E+04  0.00000000000E+00 0.  1.
         21   -1    0    0  504  502  0.00000000000E+00 -0.00000000000E+00 -0.28295281775E+03  0.28295281775E+03  0.00000000000E+00 0. -1.
         21    1    1    2  503  505 -0.13355268966E+03  0.14321371728E+03  0.41079894810E+03  0.45508489922E+03  0.00000000000E+00 0. -1.
         21    1    1    2  504  501  0.95611656457E+02 -0.49033693042E+02  0.11773745984E+03  0.15939887501E+03  0.00000000000E+00 0. -1.
         21    1    1    2  505  502  0.43954320938E+02 -0.49695288952E+02 -0.23485052213E+03  0.24404174196E+03  0.00000000000E+00 0. -1.
          1    1    1    2  501    0 -0.60132877311E+01 -0.44484735288E+02  0.94460846979E+03  0.94567447491E+03  0.00000000000E+00 0.  1.
<scales pt_clust_3="147.11220" pt_clust_4="14000.00000" pt_clust_5="66.57916" pt_clust_6="44.88932"></scales>
<clustering>
<clus scale="   44.889">  1  6  2 -1</clus>
<clus scale="   66.579">  2  5  1 -1</clus>
<clus scale="  147.112">  1  3  2 -1</clus>
<clus scale="   66.579">  2  3  1 -1</clus>
</clustering>
</event>
<event>
 6    0  0.6338511E+002  0.6974750E+02  0.7546771E-02  0.1360954E+00
          2   -1    0    0  505    0 -0.00000000000E+00  0.00000000000E+00  0.14910909223E+04  0.14910909223E+04  0.00000000000E+00 0.  1.
         21   -1    0    0  503  502  0.00000000000E+00 -0.00000000000E+00 -0.40930989828E+03  0.40930989828E+03  0.00000000000E+00 0. -1.
         21    1    1    2  503  501 -0.31688913379E+02  0.56807953181E+02 -0.36736788419E+03  0.37308242133E+03  0.00000000000E+00 0. -1.
         21    1    1    2  504  502  0.87554496435E+02 -0.37285037861E+02  0.50387320542E+02  0.10767936648E+03  0.00000000000E+00 0.  1.
         21    1    1    2  505  504 -0.80683339706E+02 -0.73583783541E+02  0.29978890452E+03  0.31905761514E+03  0.00000000000E+00 0.  1.
          2    1    1    2  501    0  0.24817756651E+02  0.54060868221E+02  0.10989726831E+04  0.11005814176E+04  0.00000000000E+00 0.  1.
<scales pt_clust_3="65.30607" pt_clust_4="14000.00000" pt_clust_5="69.74750" pt_clust_6="59.48528"></scales>
<clustering>
<clus scale="   59.485">  1  6  2 -1</clus>
<clus scale="   65.306">  2  3  1 -1</clus>
<clus scale="   69.748">  1  5  2 -1</clus>
<clus scale="   65.306">  2  3  1 -1</clus>
</clustering>
</event>
<event>
 6    0  0.8113457E+002  0.6900828E+02  0.7546771E-02  0.1363498E+00
         21   -1    0    0  503  502  0.00000000000E+00  0.00000000000E+00  0.60397653590E+03  0.60397653590E+03  0.00000000000E+00 0.  1.
          1   -1    0    0  505    0 -0.00000000000E+00 -0.00000000000E+00 -0.35670080183E+03  0.35670080183E+03  0.00000000000E+00 0. -1.
         21    1    1    2  503  501  0.17244560617E+02 -0.28414179845E+02  0.34666124097E+02  0.48025833123E+02  0.00000000000E+00 0. -1.
         21    1    1    2  504  502 -0.84531508191E+02  0.28917979078E+02  0.51995708896E+03  0.52757672404E+03  0.00000000000E+00 0.  1.
         21    1    1    2  505  504 -0.20140124533E+02 -0.54284400263E+02  0.32150354761E+01  0.57989285055E+02  0.00000000000E+00 0.  1.
          1    1    1    2  501    0  0.87427072106E+02  0.53780601031E+02 -0.31056251446E+03  0.32708549551E+03  0.00000000000E+00 0. -1.
<scales pt_clust_3="33.23764" pt_clust_4="69.00828" pt_clust_5="59.03981" pt_clust_6="14000.00000"></scales>
<clustering>
<clus scale="   33.238">  1  3  2 -1</clus>
<clus scale="   59.040">  2  5  1 -1</clus>
<clus scale="   69.008">  1  4  2 -1</clus>
<clus scale="   33.238">  1  3  2 -1</clus>
</clustering>
</event>
<event>
 6    0  0.6338511E+002  0.1201666E+03  0.7546771E-02  0.1242822E+00
         21   -1    0    0  504  502  0.00000000000E+00  0.00000000000E+00  0.38065064056E+03  0.38065064056E+03  0.00000000000E+00 0.  1.
          2   -1    0    0  503    0 -0.00000000000E+00 -0.00000000000E+00 -0.12169446544E+04  0.12169446544E+04  0.00000000000E+00 0.  1.
         21    1    1    2  503  505 -0.13576997535E+03  0.48145975047E+02 -0.15929087444E+03  0.21476755761E+03  0.00000000000E+00 0.  1.
         21    1    1    2  504  501  0.78383472282E+02  0.65003152955E+02  0.22069241764E+03  0.24305250837E+03  0.00000000000E+00 0.  1.
         21    1    1    2  505  502  0.17687116809E+02 -0.13734164398E+03  0.80700564792E+02  0.16027520841E+03  0.00000000000E+00 0.  1.
          2    1    1    2  501    0  0.39699386264E+02  0.24192515976E+02 -0.97839612184E+03  0.97950002059E+03  0.00000000000E+00 0.  1.
<scales pt_clust_3="120.16662" pt_clust_4="103.99159" pt_clust_5="14000.00000" pt_clust_6="46.48999"></scales>
<clustering>
<clus scale="   46.490">  2  6  1 -1</clus>
<clus scale="  103.992">  1  4  2 -1</clus>
<clus scale="  120.167">  2  3  1 -1</clus>
<clus scale="  103.992">  1  3  2 -1</clus>
</clustering>
</event>
<event>
 6    0  0.6338511E+002  0.1749636E+03  0.7546771E-02  0.1172768E+00
         21   -1    0    0  504  502  0.00000000000E+00  0.00000000000E+00  0.20037970980E+03  0.20037970980E+03  0.00000000000E+00 0.  1.
         -4   -1    0    0    0  501 -0.00000000000E+00 -0.00000000000E+00 -0.77430716478E+03  0.77430716478E+03  0.00000000000E+00 0. -1.
         21    1    1    2  503  501 -0.12611257919E+03  0.71798442192E+02  0.37449690252E+02  0.14987287357E+03  0.00000000000E+00 0.  1.
         21    1    1    2  504  505 -0.94807535687E+01 -0.41764258311E+02  0.35724243127E+02  0.55770597160E+02  0.00000000000E+00 0.  1.
         21    1    1    2  505  503  0.91068554610E+01  0.97306963768E+02 -0.22907090205E+00  0.97732453605E+02  0.00000000000E+00 0.  1.
         -4    1    1    2    0  502  0.12648647730E+03 -0.12734114765E+03 -0.64687231746E+03  0.67131095025E+03  0.00000000000E+00 0. -1.
<scales pt_clust_3="174.96359" pt_clust_4="42.82684" pt_clust_5="84.36186" pt_clust_6="14000.00000"></scales>
<clustering>
<clus scale="   42.827">  1  4  2 -1</clus>
<clus scale="   84.362">  1  5  2 -1</clus>
<clus scale="  174.964">  1  3  2 -1</clus>
<clus scale="   42.827">  1  3  2 -1</clus>
</clustering>
</event>
<event>
 6    0  0.6338511E+002  0.7529866E+02  0.7546771E-02  0.1342949E+00
         21   -1    0    0  504  502  0.00000000000E+00  0.00000000000E+00  0.20319945385E+03  0.20319945385E+03  0.00000000000E+00 0.  1.
          1   -1    0    0  505    0 -0.00000000000E+00 -0.00000000000E+00 -0.42581490331E+03  0.42581490331E+03  0.00000000000E+00 0. -1.
         21    1    1    2  503  502  0.45433553609E+02 -0.53368171364E+02  0.75642506049E+02  0.10312205501E+03  0.00000000000E+00 0.  1.
         21    1    1    2  504  501  0.28185699629E+02  0.53268025733E+02  0.82540338661E+02  0.10219992043E+03  0.00000000000E+00 0.  1.
         21    1    1    2  505  503  0.43683697422E+02  0.90273143376E+01 -0.21987147703E+03  0.22435067247E+03  0.00000000000E+00 0.  1.
          1    1    1    2  501    0 -0.11730295066E+03 -0.89271687074E+01 -0.16092681713E+03  0.19934170925E+03  0.00000000000E+00 0. -1.
<scales pt_clust_3="14000.00000" pt_clust_4="61.65864" pt_clust_5="44.60670" pt_clust_6="75.29866"></scales>
<clustering>
<clus scale="   44.607">  2  5  1 -1</clus>
<clus scale="   61.659">  1  4  2 -1</clus>
<clus scale="   75.299">  2  6  1 -1</clus>
<clus scale="   61.659">  1  3  2 -1</clus>
</clustering>
</event>
<event>
 6    0  0.6338511E+002  0.1312027E+03  0.7546771E-02  0.1225682E+00
          2   -1    0    0  504    0 -0.00000000000E+00  0.00000000000E+00  0.24900916800E+04  0.24900916800E+04  0.00000000000E+00 0. -1.
         21   -1    0    0  505  502  0.00000000000E+00 -0.00000000000E+00 -0.58167877990E+02  0.58167877990E+02  0.00000000000E+00 0.  1.
         21    1    1    2  503  502  0.11564849963E+03  0.94778288327E+02  0.95395557173E+02  0.17736350170E+03  0.00000000000E+00 0.  1.
         21    1    1    2  504  503 -0.21114952735E+02 -0.10636813551E+03  0.30255788552E+03  0.32140518909E+03  0.00000000000E+00 0. -1.
         21    1    1    2  505  501 -0.74149328890E+02 -0.23373047815E+02  0.19293083717E+03  0.20800656305E+03  0.00000000000E+00 0. -1.
          2    1    1    2  501    0 -0.20384218007E+02  0.34962895002E+02  0.18410395222E+04  0.18414843042E+04  0.00000000000E+00 0. -1.
<scales pt_clust_3="131.20271" pt_clust_4="14000.00000" pt_clust_5="81.42364" pt_clust_6="40.47123"></scales>
<clustering>
<clus scale="   40.471">  1  6  2 -1</clus>
<clus scale="   81.424">  1  5  2 -1</clus>
<clus scale="  131.203">  2  3  1 -1</clus>
<clus scale="  131.203">  2  3  1 -1</clus>
</clustering>
</event>
<event>
 6    0  0.6338511E+002  0.1060530E+03  0.7546771E-02  0.1268059E+00
          1   -1    0    0  504    0 -0.00000000000E+00  0.00000000000E+00  0.11163644781E+04  0.11163644781E+04  0.00000000000E+00 0.  1.
         21   -1    0    0  503  502  0.00000000000E+00 -0.00000000000E+00 -0.12814677402E+03  0.12814677402E+03  0.00000000000E+00 0.  1.
         21    1    1    2  503  501 -0.14238396410E+02 -0.53526837374E+02 -0.24042185955E+02  0.60381130803E+02  0.00000000000E+00 0.  1.
         21    1    1    2  504  505  0.30791025596E+02 -0.59668632887E+02  0.35959106358E+02  0.76167514978E+02  0.00000000000E+00 0.  1.
         21    1    1    2  505  502  0.47181011164E+02  0.21078396124E+02 -0.52157737514E+02  0.73421905316E+02  0.00000000000E+00 0.  1.
          1    1    1    2  501    0 -0.63733640350E+02  0.92117074137E+02  0.10284585212E+04  0.10345407010E+04  0.00000000000E+00 0.  1.
<scales pt_clust_3="43.08827" pt_clust_4="14000.00000" pt_clust_5="51.67540" pt_clust_6="106.05304"></scales>
<clustering>
<clus scale="   51.675">  2  5  1 -1</clus>
<clus scale="   43.088">  2  3  1 -1</clus>
<clus scale="  106.053">  1  6  2 -1</clus>
<clus scale="   51.675">  2  3  1 -1</clus>
</clustering>
</event>
<event>
 6    0  0.6338511E+002  0.1032230E+03  0.7546771E-02  0.1273661E+00
         21   -1    0    0  503  502  0.00000000000E+00  0.00000000000E+00  0.85128015020E+03  0.85128015020E+03  0.00000000000E+00 0.  1.
          1   -1    0    0  504    0 -0.00000000000E+00 -0.00000000000E+00 -0.36086603443E+03  0.36086603443E+03  0.00000000000E+00 0. -1.
         21    1    1    2  503  501  0.48120035496E+02  0.33061073113E+02  0.19458487984E+03  0.20315473865E+03  0.00000000000E+00 0.  1.
         21    1    1    2  504  505  0.24528894931E+02 -0.42312180850E+02 -0.25118254039E+02  0.54981033282E+02  0.00000000000E+00 0. -1.
         21    1    1    2  505  502 -0.10389289807E+03  0.55605182554E+02  0.62950042598E+03  0.64043458441E+03  0.00000000000E+00 0.  1.
          1    1    1    2  501    0  0.31243967642E+02 -0.46354074817E+02 -0.30855293602E+03  0.31357582830E+03  0.00000000000E+00 0. -1.
<scales pt_clust_3="58.33662" pt_clust_4="48.90795" pt_clust_5="103.22302" pt_clust_6="14000.00000"></scales>
<clustering>
<clus scale="   48.908">  2  4  1 -1</clus>
<clus scale="   58.337">  1  3  2 -1</clus>
<clus scale="  103.223">  1  5  2 -1</clus>
<clus scale="   58.337">  1  3  2 -1</clus>
</clustering>
</event>
<event>
 6    0  0.6338511E+002  0.3543919E+03  0.7546771E-02  0.1060827E+00
          2   -1    0    0  503    0 -0.00000000000E+00  0.00000000000E+00  0.14337834342E+04  0.14337834342E+04  0.00000000000E+00 0.  1.
         21   -1    0    0  504  502  0.00000000000E+00 -0.00000000000E+00 -0.14171583224E+03  0.14171583224E+03  0.00000000000E+00 0.  1.
         21    1    1    2  503  505 -0.11741897212E+03 -0.24147068118E+03  0.32616444037E+03  0.42246721417E+03  0.00000000000E+00 0.  1.
         21    1    1    2  504  501  0.19374253766E+03  0.31416121486E+03  0.38747458679E+03  0.53513549241E+03  0.00000000000E+00 0.  1.
         21    1    1    2  505  502 -0.32990745679E+02 -0.46995946396E+02  0.25754089916E+02  0.62930766923E+02  0.00000000000E+00 0.  1.
          2    1    1    2  501    0 -0.43332819868E+02 -0.25694587281E+02  0.55267448488E+03  0.55496579294E+03  0.00000000000E+00 0.  1.
<scales pt_clust_3="35.60611" pt_clust_4="345.92654" pt_clust_5="35.60611" pt_clust_6="50.37802"></scales>
<clustering>
<clus scale="   35.606">  3  5 -1 -1</clus>
<clus scale="   50.378">  1  6  2 -1</clus>
<clus scale="  345.927">  1  4  2 -1</clus>
<clus scale="  354.392">  2  3  1 -1</clus>
</clustering>
</event>
<event>
 6    0  0.6338511E+002  0.9918067E+02  0.7546771E-02  0.1282028E+00
         21   -1    0    0  503  502  0.00000000000E+00  0.00000000000E+00  0.53764294065E+03  0.53764294065E+03  0.00000000000E+00 0.  1.
          2   -1    0    0  504    0 -0.00000000000E+00 -0.00000000000E+00 -0.44251664000E+04  0.44251664000E+04  0.00000000000E+00 0.  1.
         21    1    1    2  503  505 -0.45302637747E+02 -0.56967842849E+02  0.47394307131E+03  0.47949942539E+03  0.00000000000E+00 0.  1.
         21    1    1    2  504  502  0.13788053814E+01 -0.30331981200E+02  0.31403997207E+02  0.43682275907E+02  0.00000000000E+00 0.  1.
         21    1    1    2  505  501  0.13066201776E+03  0.39056549645E+02 -0.18118586927E+03  0.22677366729E+03  0.00000000000E+00 0.  1.
          2    1    1    2  501    0 -0.86738185393E+02  0.48243274404E+02 -0.42116846586E+04  0.42128539720E+04  0.00000000000E+00 0.  1.
<scales pt_clust_3="96.49179" pt_clust_4="30.36330" pt_clust_5="14000.00000" pt_clust_6="99.18067"></scales>
<clustering>
<clus scale="   30.363">  1  4  2 -1</clus>
<clus scale="   96.492">  1  3  2 -1</clus>
<clus scale="   99.181">  2  6  1 -1</clus>
<clus scale="   30.363">  1  3  2 -1</clus>
</clustering>
</event>
<event>
 6    0  0.6338511E+002  0.8431046E+02  0.7546771E-02  0.1317246E+00
          2   -1    0    0  503    0 -0.00000000000E+00  0.00000000000E+00  0.27300668340E+04  0.27300668340E+04  0.00000000000E+00 0. -1.
         21   -1    0    0  504  502  0.00000000000E+00 -0.00000000000E+00 -0.68131943109E+02  0.68131943109E+02  0.00000000000E+00 0.  1.
         21    1    1    2  503  502 -0.73942939764E+02 -0.56034505987E+02  0.13108902081E+02  0.93697745522E+02  0.00000000000E+00 0.  1.
         21    1    1    2  504  505 -0.11514954616E+02  0.29396460404E+02 -0.13279855729E+02  0.34250556671E+02  0.00000000000E+00 0.  1.
         21    1    1    2  505  501  0.67443225001E+02 -0.31356178889E+02  0.37319809961E+03  0.38053727821E+03  0.00000000000E+00 0. -1.
          2    1    1    2  501    0  0.18014669378E+02  0.57994224472E+02  0.22889077449E+04  0.22897131967E+04  0.00000000000E+00 0. -1.
<scales pt_clust_3="84.31046" pt_clust_4="31.57129" pt_clust_5="14000.00000" pt_clust_6="60.95182"></scales>
<clustering>
<clus scale="   31.571">  2  4  1 -1</clus>
<clus scale="   60.952">  1  6  2 -1</clus>
<clus scale="   84.310">  2  3  1 -1</clus>
<clus scale="   31.571">  2  3  1 -1</clus>
</clustering>
</event>
<event>
 6    0  0.6338511E+002  0.3685537E+03  0.7546771E-02  0.1055247E+00
         21   -1    0    0  503  502  0.00000000000E+00  0.00000000000E+00  0.59450469499E+03  0.59450469499E+03  0.00000000000E+00 0. -1.
          2   -1    0    0  505    0 -0.00000000000E+00 -0.00000000000E+00 -0.10062059569E+04  0.10062059569E+04  0.00000000000E+00 0. -1.
         21    1    1    2  503  504  0.63674192866E+01  0.62317987901E+02  0.23198484562E+03  0.24029366250E+03  0.00000000000E+00 0. -1.
         21    1    1    2  504  501 -0.30964014273E+03  0.19223933060E+03 -0.11868591079E+03  0.38330056566E+03  0.00000000000E+00 0. -1.
         21    1    1    2  505  502  0.27725356524E+03 -0.27223621712E+03  0.58348088642E+02  0.39292059859E+03  0.00000000000E+00 0. -1.
          2    1    1    2  501    0  0.26019158204E+02  0.17678898620E+02 -0.58334828536E+03  0.58419582512E+03  0.00000000000E+00 0. -1.
<scales pt_clust_3="62.84186" pt_clust_4="14000.00000" pt_clust_5="368.55367" pt_clust_6="31.45696"></scales>
<clustering>
<clus scale="   31.457">  2  6  1 -1</clus>
<clus scale="   62.842">  1  3  2 -1</clus>
<clus scale="  368.554">  1  5  2 -1</clus>
<clus scale="   62.842">  1  3  2 -1</clus>
</clustering>
</event>
<event>
 6    0  0.6338511E+002  0.7991670E+02  0.7546771E-02  0.1329288E+00
         21   -1    0    0  504  502  0.00000000000E+00  0.00000000000E+00  0.74811584755E+03  0.74811584755E+03  0.00000000000E+00 0.  1.
          2   -1    0    0  505    0 -0.00000000000E+00 -0.00000000000E+00 -0.17091060926E+04  0.17091060926E+04  0.00000000000E+00 0.  1.
         21    1    1    2  503  502 -0.38347169798E+02  0.49226138773E+02  0.71665824029E+03  0.71936969045E+03  0.00000000000E+00 0.  1.
         21    1    1    2  504  501 -0.26306679340E+02 -0.10276594930E+03 -0.14039358660E+03  0.17596374874E+03  0.00000000000E+00 0. -1.
         21    1    1    2  505  503  0.10320114481E+03 -0.12334213574E+02 -0.22984288833E+03  0.25225059451E+03  0.00000000000E+00 0. -1.
          2    1    1    2  501    0 -0.38547295668E+02  0.65874024099E+02 -0.13074120104E+04  0.13096379064E+04  0.00000000000E+00 0.  1.
<scales pt_clust_3="62.39966" pt_clust_4="14000.00000" pt_clust_5="79.91670" pt_clust_6="78.61102"></scales>
<clustering>
<clus scale="   62.400">  1  3  2 -1</clus>
<clus scale="   78.611">  2  6  1 -1</clus>
<clus scale="   79.917">  2  5  1 -1</clus>
<clus scale="   62.400">  1  3  2 -1</clus>
</clustering>
</event>
<event>
 6    0  0.6338511E+002  0.1117594E+03  0.7546771E-02  0.1257346E+00
          1   -1    0    0  505    0 -0.00000000000E+00  0.00000000000E+00  0.51566674170E+03  0.51566674170E+03  0.00000000000E+00 0. -1.
         21   -1    0    0  504  502  0.00000000000E+00 -0.00000000000E+00 -0.31334051161E+03  0.31334051161E+03  0.00000000000E+00 0. -1.
         21    1    1    2  503  502 -0.37997365467E+02  0.90204421292E+02 -0.18395285613E+03  0.20837296053E+03  0.00000000000E+00 0. -1.
         21    1    1    2  504  501 -0.41295289213E+02 -0.15651442499E+03 -0.25941858235E+02  0.16393610386E+03  0.00000000000E+00 0. -1.
         21    1    1    2  505  503  0.11134521416E+03  0.45196368936E+02  0.15249948455E+03  0.19415602300E+03  0.00000000000E+00 0. -1.
          1    1    1    2  501    0 -0.32052559479E+02  0.21113634764E+02  0.25972145991E+03  0.26254216591E+03  0.00000000000E+00 0. -1.
<scales pt_clust_3="99.41628" pt_clust_4="111.75937" pt_clust_5="14000.00000" pt_clust_6="38.38166"></scales>
<clustering>
<clus scale="   38.382">  1  6  2 -1</clus>
<clus scale="   99.416">  2  3  1 -1</clus>
<clus scale="  111.759">  2  4  1 -1</clus>
<clus scale="   99.416">  2  3  1 -1</clus>
</clustering>
</event>
<event>
 6    0  0.6338511E+002  0.1803625E+03  0.7546771E-02  0.1167453E+00
         21   -1    0    0  503  502  0.00000000000E+00  0.00000000000E+00  0.96110684096E+03  0.96110684096E+03  0.00000000000E+00 0.  1.
          1   -1    0    0  505    0 -0.00000000000E+00 -0.00000000000E+00 -0.41164863286E+03  0.41164863286E+03  0.00000000000E+00 0. -1.
         21    1    1    2  503  501 -0.10080566273E+03  0.21098308868E+03  0.78690982033E+03  0.82091577563E+03  0.00000000000E+00 0.  1.
         21    1    1    2  504  502  0.28710942465E+02 -0.48288681275E+02  0.91833714172E+02  0.10765475380E+03  0.00000000000E+00 0. -1.
         21    1    1    2  505  504  0.82127387271E+02  0.20097973006E+02 -0.20815397560E+03  0.22467067859E+03  0.00000000000E+00 0.  1.
          1    1    1    2  501    0 -0.10032667002E+02 -0.18279238041E+03 -0.12113135080E+03  0.21951426581E+03  0.00000000000E+00 0. -1.
<scales pt_clust_3="14000.00000" pt_clust_4="56.17931" pt_clust_5="84.70969" pt_clust_6="180.36249"></scales>
<clustering>
<clus scale="   56.179">  1  4  2 -1</clus>
<clus scale="   84.710">  2  5  1 -1</clus>
<clus scale="  180.362">  2  6  1 -1</clus>
<clus scale="   56.179">  1  3  2 -1</clus>
</clustering>
</event>
<event>
 6    0  0.6338511E+002  0.1154350E+03  0.7546771E-02  0.1250824E+00
          1   -1    0    0  504    0 -0.00000000000E+00  0.00000000000E+00  0.66332972291E+03  0.66332972291E+03  0.00000000000E+00 0. -1.
         21   -1    0    0  505  502  0.00000000000E+00 -0.00000000000E+00 -0.72061452293E+03  0.72061452293E+03  0.00000000000E+00 0. -1.
         21    1    1    2  503  502  0.53038931905E+01  0.72528543242E+02 -0.64465390689E+03  0.64874276916E+03  0.00000000000E+00 0. -1.
         21    1    1    2  504  503  0.94249139807E+02 -0.13896006248E+02  0.13239742463E+03  0.16311062930E+03  0.00000000000E+00 0. -1.
         21    1    1    2  505  501 -0.35766479717E+02  0.41964703343E+02 -0.36673999887E+02  0.66221293144E+02  0.00000000000E+00 0. -1.
          1    1    1    2  501    0 -0.63786553280E+02 -0.10059724034E+03  0.49164568213E+03  0.50586955423E+03  0.00000000000E+00 0. -1.
<scales pt_clust_3="115.43498" pt_clust_4="94.31923" pt_clust_5="55.13871" pt_clust_6="14000.00000"></scales>
<clustering>
<clus scale="   55.139">  2  5  1 -1</clus>
<clus scale="   94.319">  1  4  2 -1</clus>
<clus scale="  115.435">  2  3  1 -1</clus>
<clus scale="   55.139">  2  3  1 -1</clus>
</clustering>
</event>
<event>
 6    0  0.6338511E+002  0.1295103E+03  0.7546771E-02  0.1228184E+00
          2   -1    0    0  503    0 -0.00000000000E+00  0.00000000000E+00  0.10000497479E+04  0.10000497479E+04  0.00000000000E+00 0. -1.
         21   -1    0    0  501  502  0.00000000000E+00 -0.00000000000E+00 -0.66656926951E+02  0.66656926951E+02  0.00000000000E+00 0. -1.
         21    1    1    2  503  505 -0.13244431533E+03 -0.52997014320E+02  0.49988031409E+03  0.51983700196E+03  0.00000000000E+00 0. -1.
         21    1    1    2  504  502  0.31067111361E+02  0.33229321197E+01 -0.25898800739E+02  0.40582695400E+02  0.00000000000E+00 0. -1.
         21    1    1    2  505  504  0.69602720311E+02  0.94321144323E+02  0.14178165739E+03  0.18396482086E+03  0.00000000000E+00 0. -1.
          2    1    1    2  501    0  0.31774483660E+02 -0.44647062123E+02  0.31762965025E+03  0.32232215668E+03  0.00000000000E+00 0. -1.
<scales pt_clust_3="129.51028" pt_clust_4="31.24432" pt_clust_5="14000.00000" pt_clust_6="55.90686"></scales>
<clustering>
<clus scale="   31.244">  2  4  1 -1</clus>
<clus scale="   55.907">  1  6  2 -1</clus>
<clus scale="  129.510">  1  3  2 -1</clus>
<clus scale="   31.244">  2  3  1 -1</clus>
</clustering>
</event>
<event>
 6    0  0.6338511E+002  0.8734402E+02  0.7546771E-02  0.1309414E+00
         -2   -1    0    0    0  501 -0.00000000000E+00  0.00000000000E+00  0.63185451141E+03  0.63185451141E+03  0.00000000000E+00 0.  1.
         21   -1    0    0  504  502  0.00000000000E+00 -0.00000000000E+00 -0.38026292351E+03  0.38026292351E+03  0.00000000000E+00 0.  1.
         21    1    1    2  503  502  0.79472179042E+02 -0.20896941223E+02 -0.90729587248E+02  0.12241065067E+03  0.00000000000E+00 0.  1.
         21    1    1    2  504  505 -0.50987268041E+02  0.15148176615E+02 -0.25564030793E+03  0.26111517726E+03  0.00000000000E+00 0.  1.
         21    1    1    2  505  501 -0.10743776384E+03  0.31259874143E+01  0.25646350363E+03  0.27807584143E+03  0.00000000000E+00 0.  1.
         -2    1    1    2    0  503  0.78952852842E+02  0.26227771939E+01  0.34149797946E+03  0.35051576556E+03  0.00000000000E+00 0.  1.
<scales pt_clust_3="35.72079" pt_clust_4="53.18993" pt_clust_5="87.34402" pt_clust_6="14000.00000"></scales>
<clustering>
<clus scale="   53.190">  2  4  1 -1</clus>
<clus scale="   35.721">  2  3  1 -1</clus>
<clus scale="   87.344">  2  5  1 -1</clus>
<clus scale="   53.190">  2  3  1 -1</clus>
</clustering>
</event>
<event>
 6    0  0.6338511E+002  0.7447808E+02  0.7546771E-02  0.1345495E+00
         21   -1    0    0  504  502  0.00000000000E+00  0.00000000000E+00  0.41842503857E+03  0.41842503857E+03  0.00000000000E+00 0. -1.
          2   -1    0    0  503    0 -0.00000000000E+00 -0.00000000000E+00 -0.61960346967E+03  0.61960346967E+03  0.00000000000E+00 0. -1.
         21    1    1    2  503  505  0.84248789762E+02 -0.54937433635E+02  0.48177095867E+02  0.11152135561E+03  0.00000000000E+00 0. -1.
         21    1    1    2  504  501 -0.41769027401E+02  0.47775692620E+02  0.13643071741E+02  0.64909951948E+02  0.00000000000E+00 0. -1.
         21    1    1    2  505  502  0.24349682649E+02 -0.23950130349E+02  0.29589672320E+03  0.29786135464E+03  0.00000000000E+00 0. -1.
          2    1    1    2  501    0 -0.66829445009E+02  0.31111871364E+02 -0.55889532191E+03  0.56373584605E+03  0.00000000000E+00 0. -1.
<scales pt_clust_3="14000.00000" pt_clust_4="52.46111" pt_clust_5="34.15429" pt_clust_6="74.47808"></scales>
<clustering>
<clus scale="   34.154">  1  5  2 -1</clus>
<clus scale="   52.461">  1  4  2 -1</clus>
<clus scale="   74.478">  2  6  1 -1</clus>
<clus scale="   34.154">  1  3  2 -1</clus>
</clustering>
</event>
<event>
 6    0  0.6338511E+002  0.8331632E+02  0.7546771E-02  0.1319895E+00
          4   -1    0    0  503    0 -0.00000000000E+00  0.00000000000E+00  0.97569647847E+02  0.97569647847E+02  0.00000000000E+00 0.  1.
         21   -1    0    0  504  502  0.00000000000E+00 -0.00000000000E+00 -0.51989744252E+03  0.51989744252E+03  0.00000000000E+00 0. -1.
         21    1    1    2  503  505 -0.39284944385E+02  0.13376373629E+02 -0.22689172614E+02  0.47297280901E+02  0.00000000000E+00 0. -1.
         21    1    1    2  504  501  0.30002701517E+02 -0.62154356932E+02 -0.36369752137E+03  0.37018807819E+03  0.00000000000E+00 0. -1.
         21    1    1    2  505  502 -0.42821439584E+02 -0.25509766040E+02 -0.83718780500E+02  0.97433351887E+02  0.00000000000E+00 0. -1.
          4    1    1    2  501    0  0.52103682451E+02  0.74287749343E+02  0.47777679809E+02  0.10254837939E+03  0.00000000000E+00 0.  1.
<scales pt_clust_3="41.49981" pt_clust_4="14000.00000" pt_clust_5="52.06974" pt_clust_6="83.31632"></scales>
<clustering>
<clus scale="   41.500">  1  3  2 -1</clus>
<clus scale="   52.070">  2  5  1 -1</clus>
<clus scale="   83.316">  1  6  2 -1</clus>
<clus scale="   52.070">  2  3  1 -1</clus>
</clustering>
</event>
<event>
 6    0  0.6338511E+002  0.1222637E+03  0.7546771E-02  0.1239409E+00
          1   -1    0    0  504    0 -0.00000000000E+00  0.00000000000E+00  0.63073657466E+03  0.63073657466E+03  0.00000000000E+00 0. -1.
         21   -1    0    0  505  502  0.00000000000E+00 -0.00000000000E+00 -0.96719823568E+03  0.96719823568E+03  0.00000000000E+00 0.  1.
         21    1    1    2  503  502 -0.42857994156E+02  0.11596017516E+02 -0.47353883764E+02  0.64912753700E+02  0.00000000000E+00 0.  1.
         21    1    1    2  504  503  0.32478923957E+02  0.86270255014E+02 -0.14300685896E+03  0.17014229077E+03  0.00000000000E+00 0.  1.
         21    1    1    2  505  501 -0.63684477185E+02  0.28448602699E+00 -0.74690869866E+03  0.74961883494E+03  0.00000000000E+00 0.  1.
          1    1    1    2  501    0  0.74063547384E+02 -0.98150758556E+02  0.60080778036E+03  0.61326093093E+03  0.00000000000E+00 0. -1.
<scales pt_clust_3="44.39905" pt_clust_4="91.76635" pt_clust_5="14000.00000" pt_clust_6="122.26368"></scales>
<clustering>
<clus scale="   44.399">  2  3  1 -1</clus>
<clus scale="   91.766">  2  4  1 -1</clus>
<clus scale="  122.264">  1  6  2 -1</clus>
<clus scale="   44.399">  2  3  1 -1</clus>
</clustering>
</event>
<event>
 6    0  0.6338511E+002  0.1187740E+03  0.7546771E-02  0.1245133E+00
         21   -1    0    0  503  502  0.00000000000E+00  0.00000000000E+00  0.36684945967E+03  0.36684945967E+03  0.00000000000E+00 0. -1.
          2   -1    0    0  505    0 -0.00000000000E+00 -0.00000000000E+00 -0.30665776465E+03  0.30665776465E+03  0.00000000000E+00 0.  1.
         21    1    1    2  503  504 -0.55066862555E+02  0.17302860052E+02  0.20773205922E+03  0.21560231155E+03  0.00000000000E+00 0. -1.
         21    1    1    2  504  501  0.18738515108E+03  0.28964154169E+02 -0.11740892504E+03  0.22301787541E+03  0.00000000000E+00 0. -1.
         21    1    1    2  505  502 -0.72836283850E+02 -0.10176946615E+02  0.77426985564E+02  0.10678779228E+03  0.00000000000E+00 0. -1.
          2    1    1    2  501    0 -0.59482004679E+02 -0.36090067606E+02 -0.10755842472E+03  0.12809924508E+03  0.00000000000E+00 0.  1.
<scales pt_clust_3="57.72130" pt_clust_4="118.77403" pt_clust_5="14000.00000" pt_clust_6="72.15331"></scales>
<clustering>
<clus scale="   57.721">  1  3  2 -1</clus>
<clus scale="   72.153">  2  6  1 -1</clus>
<clus scale="  118.774">  2  4  1 -1</clus>
<clus scale="   57.721">  1  3  2 -1</clus>
</clustering>
</event>
<event>
 6    0  0.6338511E+002  0.6467874E+02  0.7546771E-02  0.1379184E+00
         21   -1    0    0  505  502  0.00000000000E+00  0.00000000000E+00  0.43344603185E+02  0.43344603185E+02  0.00000000000E+00 0. -1.
          2   -1    0    0  503    0 -0.00000000000E+00 -0.00000000000E+00 -0.65526077829E+03  0.65526077829E+03  0.00000000000E+00 0.  1.
         21    1    1    2  503  504 -0.75215889763E+01 -0.77463694490E+02 -0.23984365741E+03  0.25215506789E+03  0.00000000000E+00 0. -1.
         21    1    1    2  504  502  0.12989323533E+02  0.45878359683E+02 -0.50406084542E+01  0.47947410218E+02  0.00000000000E+00 0.  1.
         21    1    1    2  505  501 -0.65899428378E+02  0.45497848608E+01 -0.79083485666E+02  0.10304189880E+03  0.00000000000E+00 0. -1.
          2    1    1    2  501    0  0.60431693821E+02  0.27035549947E+02 -0.28794842358E+03  0.29546100457E+03  0.00000000000E+00 0.  1.
<scales pt_clust_3="64.67874" pt_clust_4="47.68172" pt_clust_5="14000.00000" pt_clust_6="61.27036"></scales>
<clustering>
<clus scale="   47.682">  1  4  2 -1</clus>
<clus scale="   64.679">  2  3  1 -1</clus>
<clus scale="   61.270">  2  6  1 -1</clus>
<clus scale="   47.682">  1  3  2 -1</clus>
</clustering>
</event>
<event>
 6    0  0.6338511E+002  0.1181802E+03  0.7546771E-02  0.1246130E+00
         21   -1    0    0  505  502  0.00000000000E+00  0.00000000000E+00  0.26976352605E+03  0.26976352605E+03  0.00000000000E+00 0.  1.
          1   -1    0    0  503    0 -0.00000000000E+00 -0.00000000000E+00 -0.13058840508E+04  0.13058840508E+04  0.00000000000E+00 0.  1.
         21    1    1    2  503  504  0.41022185023E+02  0.19776682858E+00 -0.12157763440E+02  0.42786329448E+02  0.00000000000E+00 0. -1.
         21    1    1    2  504  502  0.33975023729E+02  0.51411992761E+02 -0.47527111782E+01  0.61806824062E+02  0.00000000000E+00 0.  1.
         21    1    1    2  505  501 -0.50094697998E+02 -0.10243625373E+03  0.21084145024E+03  0.23970144343E+03  0.00000000000E+00 0.  1.
          1    1    1    2  501    0 -0.24902510754E+02  0.50826494136E+02 -0.12300515004E+04  0.12313529799E+04  0.00000000000E+00 0.  1.
<scales pt_clust_3="39.68347" pt_clust_4="39.68347" pt_clust_5="107.70767" pt_clust_6="56.59918"></scales>
<clustering>
<clus scale="   39.683">  3  4 -1 -1</clus>
<clus scale="   56.599">  2  6  1 -1</clus>
<clus scale="  107.708">  1  5  2 -1</clus>
<clus scale="  107.708">  1  3  2 -1</clus>
</clustering>
</event>
<event>
 6    0  0.6338511E+002  0.7916835E+02  0.7546771E-02  0.1331428E+00
          2   -1    0    0  504    0 -0.00000000000E+00  0.00000000000E+00  0.13267276167E+04  0.13267276167E+04  0.00000000000E+00 0.  1.
         21   -1    0    0  505  502  0.00000000000E+00 -0.00000000000E+00 -0.12861718079E+03  0.12861718079E+03  0.00000000000E+00 0.  1.
         21    1    1    2  503  501 -0.18100121556E+02  0.72543758012E+02  0.26107409095E+02  0.79194747531E+02  0.00000000000E+00 0.  1.
         21    1    1    2  504  502  0.11686724440E+03 -0.11684703358E+03 -0.10815801618E+02  0.16561450309E+03  0.00000000000E+00 0.  1.
         21    1    1    2  505  503 -0.36652745993E+02 -0.27493410018E+01  0.14328513994E+02  0.39449828619E+02  0.00000000000E+00 0.  1.
          2    1    1    2  501    0 -0.62114376853E+02  0.47052616570E+02  0.11684903144E+04  0.11710857182E+04  0.00000000000E+00 0.  1.
<scales pt_clust_3="76.63624" pt_clust_4="79.16835" pt_clust_5="36.75572" pt_clust_6="14000.00000"></scales>
<clustering>
<clus scale="   36.756">  2  5  1 -1</clus>
<clus scale="   76.636">  2  3  1 -1</clus>
<clus scale="   79.168">  2  4  1 -1</clus>
<clus scale="   36.756">  2  3  1 -1</clus>
</clustering>
</event>
<event>
 6    0  0.6453774E+002  0.9887975E+02  0.7546771E-02  0.1282669E+00
         21   -1    0    0  501  502  0.00000000000E+00  0.00000000000E+00  0.21873995245E+03  0.21873995245E+03  0.00000000000E+00 0. -1.
          2   -1    0    0  503    0 -0.00000000000E+00 -0.00000000000E+00 -0.35772207191E+04  0.35772207191E+04  0.00000000000E+00 0.  1.
         21    1    1    2  503  504  0.39726860295E+02 -0.94435908054E+01 -0.49543991347E+03  0.49711981724E+03  0.00000000000E+00 0. -1.
         21    1    1    2  504  505 -0.13345726489E+03  0.98593179021E+01  0.91716565835E+02  0.16223432482E+03  0.00000000000E+00 0. -1.
         21    1    1    2  505  502  0.36358858890E+02  0.90835955640E+01  0.86773118685E+02  0.94520116665E+02  0.00000000000E+00 0. -1.
          2    1    1    2  501    0  0.57371545700E+02 -0.94993226607E+01 -0.30415305377E+04  0.30420864128E+04  0.00000000000E+00 0.  1.
<scales pt_clust_3="41.05220" pt_clust_4="98.87975" pt_clust_5="37.47637" pt_clust_6="14000.00000"></scales>
<clustering>
<clus scale="   37.476">  1  5  2 -1</clus>
<clus scale="   41.052">  2  3  1 -1</clus>
<clus scale="   98.880">  1  4  2 -1</clus>
<clus scale="   37.476">  1  3  2 -1</clus>
</clustering>
</event>
<event>
 6    0  0.6338511E+002  0.1087362E+03  0.7546771E-02  0.1262928E+00
         -3   -1    0    0    0  501 -0.00000000000E+00  0.00000000000E+00  0.67983555121E+03  0.67983555121E+03  0.00000000000E+00 0.  1.
         21   -1    0    0  504  502  0.00000000000E+00 -0.00000000000E+00 -0.16057503790E+03  0.16057503790E+03  0.00000000000E+00 0.  1.
         21    1    1    2  503  502 -0.31909353659E+02  0.27347054758E+02 -0.68084342971E+02  0.80009661996E+02  0.00000000000E+00 0.  1.
         21    1    1    2  504  501  0.13443237686E+03 -0.37003414092E+02  0.87360565185E+02  0.16453931127E+03  0.00000000000E+00 0.  1.
         21    1    1    2  505  503 -0.89705398370E+01  0.67217203659E+02 -0.14866764691E+02  0.69423654075E+02  0.00000000000E+00 0.  1.
         -3    1    1    2    0  505 -0.93552483368E+02 -0.57560844325E+02  0.51485105579E+03  0.52643796177E+03  0.00000000000E+00 0.  1.
<scales pt_clust_3="42.02461" pt_clust_4="108.73616" pt_clust_5="84.18491" pt_clust_6="14000.00000"></scales>
<clustering>
<clus scale="   42.025">  2  3  1 -1</clus>
<clus scale="   84.185">  2  5  1 -1</clus>
<clus scale="  108.736">  2  4  1 -1</clus>
<clus scale="   42.025">  2  3  1 -1</clus>
</clustering>
</event>
<event>
 6    0  0.6338511E+002  0.9755806E+02  0.7546771E-02  0.1285516E+00
          2   -1    0    0  503    0 -0.00000000000E+00  0.00000000000E+00  0.25256354531E+03  0.25256354531E+03  0.00000000000E+00 0. -1.
         21   -1    0    0  505  502  0.00000000000E+00 -0.00000000000E+00 -0.38936814974E+03  0.38936814974E+03  0.00000000000E+00 0.  1.
         21    1    1    2  503  502 -0.36708121879E+02 -0.26742100026E+02 -0.47912924483E+02  0.66017228495E+02  0.00000000000E+00 0. -1.
         21    1    1    2  504  501  0.67205386356E+02  0.10661799233E+03 -0.57027623883E+02  0.13833332978E+03  0.00000000000E+00 0. -1.
         21    1    1    2  505  504 -0.28170245126E+01 -0.67100077479E+02 -0.22872121438E+03  0.23837732680E+03  0.00000000000E+00 0.  1.
          2    1    1    2  501    0 -0.27680239965E+02 -0.12775814823E+02  0.19685715831E+03  0.19920380997E+03  0.00000000000E+00 0. -1.
<scales pt_clust_3="50.38838" pt_clust_4="97.55806" pt_clust_5="14000.00000" pt_clust_6="30.48634"></scales>
<clustering>
<clus scale="   30.486">  1  6  2 -1</clus>
<clus scale="   50.388">  2  3  1 -1</clus>
<clus scale="   97.558">  1  4  2 -1</clus>
<clus scale="   50.388">  2  3  1 -1</clus>
</clustering>
</event>
<event>
 6    0  0.6338511E+002  0.1125509E+03  0.7546771E-02  0.1255918E+00
          2   -1    0    0  505    0 -0.00000000000E+00  0.00000000000E+00  0.12075929335E+04  0.12075929335E+04  0.00000000000E+00 0. -1.
         21   -1    0    0  501  502  0.00000000000E+00 -0.00000000000E+00 -0.14057637097E+03  0.14057637097E+03  0.00000000000E+00 0.  1.
         21    1    1    2  503  504  0.12031569392E+03 -0.17717446489E+02  0.96599025681E+02  0.15530983831E+03  0.00000000000E+00 0.  1.
         21    1    1    2  504  502 -0.10407077939E+02  0.62263440082E+02 -0.97656466275E+02  0.11628339799E+03  0.00000000000E+00 0.  1.
         21    1    1    2  505  503 -0.87088429821E+02 -0.10595575010E+02  0.86398719693E+03  0.86842992652E+03  0.00000000000E+00 0. -1.
          2    1    1    2  501    0 -0.22820186161E+02 -0.33950418584E+02  0.20408680620E+03  0.20814614165E+03  0.00000000000E+00 0. -1.
<scales pt_clust_3="14000.00000" pt_clust_4="62.85132" pt_clust_5="112.55087" pt_clust_6="40.90711"></scales>
<clustering>
<clus scale="   40.907">  1  6  2 -1</clus>
<clus scale="   62.851">  2  4  1 -1</clus>
<clus scale="  112.551">  1  5  2 -1</clus>
<clus scale="   62.851">  2  3  1 -1</clus>
</clustering>
</event>
<event>
 6    0  0.6338511E+002  0.1105717E+03  0.7546771E-02  0.1259515E+00
         21   -1    0    0  503  502  0.00000000000E+00  0.00000000000E+00  0.47777943908E+03  0.47777943908E+03  0.00000000000E+00 0. -1.
          2   -1    0    0  502    0 -0.00000000000E+00 -0.00000000000E+00 -0.58700729440E+03  0.58700729440E+03  0.00000000000E+00 0.  1.
         21    1    1    2  503  504  0.42841304500E+02  0.30679088367E+02  0.25944770803E+03  0.26474458831E+03  0.00000000000E+00 0. -1.
         21    1    1    2  504  505  0.78474594143E+02  0.11756810787E+00  0.16669083492E+03  0.18423927430E+03  0.00000000000E+00 0. -1.
         21    1    1    2  505  501 -0.96349642578E+02 -0.48113547131E+02 -0.33168703010E+02  0.11268686659E+03  0.00000000000E+00 0. -1.
          2    1    1    2  501    0 -0.24966256065E+02  0.17316890657E+02 -0.50219769526E+03  0.50311600428E+03  0.00000000000E+00 0.  1.
<scales pt_clust_3="52.38024" pt_clust_4="110.57168" pt_clust_5="14000.00000" pt_clust_6="30.38402"></scales>
<clustering>
<clus scale="   30.384">  2  6  1 -1</clus>
<clus scale="   52.380">  1  3  2 -1</clus>
<clus scale="  110.572">  1  4  2 -1</clus>
<clus scale="   52.380">  1  3  2 -1</clus>
</clustering>
</event>
<event>
 6    0  0.6338511E+002  0.6805402E+02  0.7546771E-02  0.1366838E+00
         21   -1    0    0  505  502  0.00000000000E+00  0.00000000000E+00  0.18922512370E+03  0.18922512370E+03  0.00000000000E+00 0. -1.
          2   -1    0    0  504    0 -0.00000000000E+00 -0.00000000000E+00 -0.32558572360E+03  0.32558572360E+03  0.00000000000E+00 0. -1.
         21    1    1    2  503  502 -0.33546120785E+02  0.11186850180E+02  0.36651659762E+02  0.50929677006E+02  0.00000000000E+00 0. -1.
         21    1    1    2  504  503 -0.22892030325E+02 -0.77571191464E+02 -0.13957987982E+03  0.16131917942E+03  0.00000000000E+00 0. -1.
         21    1    1    2  505  501  0.87157378436E+02  0.27627640334E+02  0.11453225039E+03  0.14655146368E+03  0.00000000000E+00 0. -1.
          2    1    1    2  501    0 -0.30719227326E+02  0.38756700951E+02 -0.14796463024E+03  0.15601052720E+03  0.00000000000E+00 0. -1.
<scales pt_clust_3="35.36224" pt_clust_4="14000.00000" pt_clust_5="68.05402" pt_clust_6="50.27631"></scales>
<clustering>
<clus scale="   35.362">  1  3  2 -1</clus>
<clus scale="   50.276">  2  6  1 -1</clus>
<clus scale="   68.054">  1  5  2 -1</clus>
<clus scale="   35.362">  1  3  2 -1</clus>
</clustering>
</event>
<event>
 6    0  0.6338511E+002  0.7793751E+02  0.7546771E-02  0.1335008E+00
         -1   -1    0    0    0  501 -0.00000000000E+00  0.00000000000E+00  0.73162523222E+03  0.73162523222E+03  0.00000000000E+00 0. -1.
         21   -1    0    0  505  502  0.00000000000E+00 -0.00000000000E+00 -0.74394507734E+03  0.74394507734E+03  0.00000000000E+00 0.  1.
         21    1    1    2  503  501 -0.11821613619E+03 -0.43124939388E+01 -0.92945277935E+02  0.15044094240E+03  0.00000000000E+00 0. -1.
         21    1    1    2  504  502  0.67855964990E+02 -0.52359598806E+02  0.56049801752E+03  0.56701321609E+03  0.00000000000E+00 0.  1.
         21    1    1    2  505  503  0.43406341307E+02  0.18305947133E+02 -0.61534428467E+03  0.61714488318E+03  0.00000000000E+00 0.  1.
         -1    1    1    2    0  504  0.69538298960E+01  0.38366145611E+02  0.13547169996E+03  0.14097126789E+03  0.00000000000E+00 0. -1.
<scales pt_clust_3="77.93751" pt_clust_4="14000.00000" pt_clust_5="47.14094" pt_clust_6="38.99124"></scales>
<clustering>
<clus scale="   38.991">  1  6  2 -1</clus>
<clus scale="   47.141">  2  5  1 -1</clus>
<clus scale="   77.938">  2  3  1 -1</clus>
<clus scale="   47.141">  2  3  1 -1</clus>
</clustering>
</event>
<event>
 6    0  0.6338511E+002  0.8738543E+02  0.7546771E-02  0.1309310E+00
         -3   -1    0    0    0  501 -0.00000000000E+00  0.00000000000E+00  0.39030892262E+03  0.39030892262E+03  0.00000000000E+00 0. -1.
         21   -1    0    0  503  502  0.00000000000E+00 -0.00000000000E+00 -0.45882793980E+03  0.45882793980E+03  0.00000000000E+00 0. -1.
         21    1    1    2  503  504  0.57260514657E+02 -0.22752680814E+02 -0.36168879695E+03  0.36689949150E+03  0.00000000000E+00 0. -1.
         21    1    1    2  504  501 -0.12762660018E+03  0.46321924671E+01 -0.28308936299E+01  0.12774200655E+03  0.00000000000E+00 0. -1.
         21    1    1    2  505  502  0.25337718954E+02  0.21906902859E+02 -0.17475078275E+02  0.37779501788E+02  0.00000000000E+00 0. -1.
         -3    1    1    2    0  505  0.45028366566E+02 -0.37864145116E+01  0.31347575166E+03  0.31671586258E+03  0.00000000000E+00 0. -1.
<scales pt_clust_3="87.38543" pt_clust_4="14000.00000" pt_clust_5="33.49496" pt_clust_6="45.27534"></scales>
<clustering>
<clus scale="   33.495">  2  5  1 -1</clus>
<clus scale="   45.275">  1  6  2 -1</clus>
<clus scale="   87.385">  2  3  1 -1</clus>
<clus scale="   33.495">  2  3  1 -1</clus>
</clustering>
</event>
<event>
 6    0  0.6338511E+002  0.1008274E+03  0.7546771E-02  0.1278566E+00
         21   -1    0    0  505  502  0.00000000000E+00  0.00000000000E+00  0.34998359605E+02  0.34998359605E+02  0.00000000000E+00 0.  1.
          2   -1    0    0  503    0 -0.00000000000E+00 -0.00000000000E+00 -0.27542003716E+04  0.27542003716E+04  0.00000000000E+00 0. -1.
         21    1    1    2  503  504 -0.17922544300E+02  0.77811120130E+02 -0.10702520144E+03  0.13352970364E+03  0.00000000000E+00 0.  1.
         21    1    1    2  504  502  0.26212782560E+02  0.62282147672E+02 -0.74575942000E+02  0.10063670808E+03  0.00000000000E+00 0.  1.
         21    1    1    2  505  501 -0.63878711739E+01 -0.52156296967E+02 -0.79124428170E+02  0.94982942388E+02  0.00000000000E+00 0.  1.
          2    1    1    2  501    0 -0.19023670856E+01 -0.87936970836E+02 -0.24584764404E+04  0.24600493771E+04  0.00000000000E+00 0. -1.
<scales pt_clust_3="42.75528" pt_clust_4="42.75528" pt_clust_5="52.54602" pt_clust_6="89.47669"></scales>
<clustering>
<clus scale="   42.755">  3  4 -1 -1</clus>
<clus scale="   52.546">  1  5  2 -1</clus>
<clus scale="   89.477">  2  6  1 -1</clus>
<clus scale="   52.546">  1  3  2 -1</clus>
</clustering>
</event>
<event>
 6    0  0.6338511E+002  0.9746484E+02  0.7546771E-02  0.1285719E+00
         21   -1    0    0  501  502  0.00000000000E+00  0.00000000000E+00  0.60017428620E+03  0.60017428620E+03  0.00000000000E+00 0. -1.
          3   -1    0    0  503    0 -0.00000000000E+00 -0.00000000000E+00 -0.10542050073E+03  0.10542050073E+03  0.00000000000E+00 0.  1.
         21    1    1    2  503  504  0.71605420034E+01 -0.60233016279E+02  0.13804181030E+03  0.15078073817E+03  0.00000000000E+00 0. -1.
         21    1    1    2  504  505 -0.40026676163E+02 -0.57602290990E+02  0.12326699032E+03  0.14182704126E+03  0.00000000000E+00 0. -1.
         21    1    1    2  505  502  0.60819630720E+02  0.48140612300E+02  0.30169932771E+03  0.31151088323E+03  0.00000000000E+00 0. -1.
          3    1    1    2  501    0 -0.27953496560E+02  0.69694694970E+02 -0.68254342857E+02  0.10147612426E+03  0.00000000000E+00 0.  1.
<scales pt_clust_3="45.28708" pt_clust_4="45.28708" pt_clust_5="84.42579" pt_clust_6="75.09160"></scales>
<clustering>
<clus scale="   45.287">  3  4 -1 -1</clus>
<clus scale="   75.092">  2  6  1 -1</clus>
<clus scale="   84.426">  1  5  2 -1</clus>
<clus scale="   84.426">  1  3  2 -1</clus>
</clustering>
</event>
<event>
 6    0  0.6338511E+002  0.8111733E+02  0.7546771E-02  0.1325910E+00
          1   -1    0    0  505    0 -0.00000000000E+00  0.00000000000E+00  0.23502504571E+04  0.23502504571E+04  0.00000000000E+00 0.  1.
         21   -1    0    0  504  502  0.00000000000E+00 -0.00000000000E+00 -0.20536632302E+02  0.20536632302E+02  0.00000000000E+00 0. -1.
         21    1    1    2  503  502  0.26936539678E+02  0.40716886805E+02  0.62332240413E+02  0.79175439600E+02  0.00000000000E+00 0. -1.
         21    1    1    2  504  501  0.34974488839E+02  0.24635182416E+01  0.88534858827E+02  0.95224497999E+02  0.00000000000E+00 0. -1.
         21    1    1    2  505  503 -0.13344147043E+03 -0.16187547973E+02  0.56651778308E+03  0.58224656400E+03  0.00000000000E+00 0. -1.
          1    1    1    2  501    0  0.71530441913E+02 -0.26992857074E+02  0.16123289425E+04  0.16141405878E+04  0.00000000000E+00 0.  1.
<scales pt_clust_3="60.82505" pt_clust_4="35.06114" pt_clust_5="14000.00000" pt_clust_6="81.11733"></scales>
<clustering>
<clus scale="   35.061">  2  4  1 -1</clus>
<clus scale="   60.825">  2  3  1 -1</clus>
<clus scale="   81.117">  1  6  2 -1</clus>
<clus scale="   35.061">  2  3  1 -1</clus>
</clustering>
</event>
<event>
 6    0  0.6338511E+002  0.8002891E+02  0.7546771E-02  0.1328969E+00
          2   -1    0    0  504    0 -0.00000000000E+00  0.00000000000E+00  0.13052975194E+04  0.13052975194E+04  0.00000000000E+00 0.  1.
         21   -1    0    0  505  502  0.00000000000E+00 -0.00000000000E+00 -0.16449939301E+04  0.16449939301E+04  0.00000000000E+00 0. -1.
         21    1    1    2  503  502 -0.38197885507E+02 -0.79046841515E+01 -0.19111096758E+03  0.19505118410E+03  0.00000000000E+00 0. -1.
         21    1    1    2  504  503  0.12368727726E+03 -0.32644985899E+02 -0.57430435106E+02  0.14022301001E+03  0.00000000000E+00 0.  1.
         21    1    1    2  505  501 -0.39877367082E+02  0.19337498340E+02 -0.13522216545E+04  0.13529477248E+04  0.00000000000E+00 0. -1.
          2    1    1    2  501    0 -0.45612024669E+02  0.21212171710E+02  0.12610666465E+04  0.12620695306E+04  0.00000000000E+00 0.  1.
<scales pt_clust_3="39.00721" pt_clust_4="14000.00000" pt_clust_5="80.02891" pt_clust_6="50.31402"></scales>
<clustering>
<clus scale="   39.007">  2  3  1 -1</clus>
<clus scale="   50.314">  1  6  2 -1</clus>
<clus scale="   80.029">  2  5  1 -1</clus>
<clus scale="   39.007">  2  3  1 -1</clus>
</clustering>
</event>
<event>
 6    0  0.6338511E+002  0.1103863E+03  0.7546771E-02  0.1259856E+00
          3   -1    0    0  503    0 -0.00000000000E+00  0.00000000000E+00  0.84222674716E+03  0.84222674716E+03  0.00000000000E+00 0.  1.
         21   -1    0    0  504  502  0.00000000000E+00 -0.00000000000E+00 -0.25833276409E+03  0.25833276409E+03  0.00000000000E+00 0. -1.
         21    1    1    2  503  502 -0.10811851881E+03 -0.33358266143E+01  0.11463535371E+03  0.15761347077E+03  0.00000000000E+00 0. -1.
         21    1    1    2  504  505  0.76543717956E+02 -0.50573541107E+02 -0.16187886120E+03  0.18606823888E+03  0.00000000000E+00 0. -1.
         21    1    1    2  505  501  0.11280288305E+02  0.15866989799E+03  0.51055812531E+02  0.16706309415E+03  0.00000000000E+00 0. -1.
          3    1    1    2  501    0  0.20294512546E+02 -0.10476053027E+03  0.58008167803E+03  0.58981470745E+03  0.00000000000E+00 0.  1.
<scales pt_clust_3="90.09220" pt_clust_4="91.74216" pt_clust_5="110.38628" pt_clust_6="14000.00000"></scales>
<clustering>
<clus scale="   91.742">  2  4  1 -1</clus>
<clus scale="   90.092">  2  3  1 -1</clus>
<clus scale="  110.386">  2  5  1 -1</clus>
<clus scale="   91.742">  2  3  1 -1</clus>
</clustering>
</event>
<event>
 6    0  0.6338511E+002  0.7994761E+02  0.7546771E-02  0.1329200E+00
         21   -1    0    0  504  502  0.00000000000E+00  0.00000000000E+00  0.28044372986E+02  0.28044372986E+02  0.00000000000E+00 0. -1.
          2   -1    0    0  503    0 -0.00000000000E+00 -0.00000000000E+00 -0.15948358168E+04  0.15948358168E+04  0.00000000000E+00 0.  1.
         21    1    1    2  503  505 -0.15563116072E+01  0.35722716980E+02 -0.16866321722E+03  0.17241176136E+03  0.00000000000E+00 0. -1.
         21    1    1    2  504  501 -0.11056008966E+03 -0.34333769511E+02 -0.20347191538E+03  0.23410075075E+03  0.00000000000E+00 0. -1.
         21    1    1    2  505  502  0.50010194315E+02 -0.15309047773E+02 -0.58660764182E+02  0.78590532087E+02  0.00000000000E+00 0. -1.
          2    1    1    2  501    0  0.62106206949E+02  0.13920100304E+02 -0.11359955470E+04  0.11377771456E+04  0.00000000000E+00 0.  1.
<scales pt_clust_3="35.75660" pt_clust_4="79.94761" pt_clust_5="51.75089" pt_clust_6="14000.00000"></scales>
<clustering>
<clus scale="   35.757">  2  3  1 -1</clus>
<clus scale="   51.751">  1  5  2 -1</clus>
<clus scale="   79.948">  1  4  2 -1</clus>
<clus scale="   51.751">  1  3  2 -1</clus>
</clustering>
</event>
<event>
 6    0  0.6338511E+002  0.1447572E+03  0.7546771E-02  0.1207067E+00
         21   -1    0    0  503  502  0.00000000000E+00  0.00000000000E+00  0.55521333381E+03  0.55521333381E+03  0.00000000000E+00 0. -1.
         -1   -1    0    0    0  501 -0.00000000000E+00 -0.00000000000E+00 -0.21051428469E+03  0.21051428469E+03  0.00000000000E+00 0.  1.
         21    1    1    2  503  501  0.13768088883E+03  0.85307762418E+01 -0.17685669273E+01  0.13795625800E+03  0.00000000000E+00 0.  1.
         21    1    1    2  504  505 -0.67341682232E+02  0.20441208003E+02  0.27980215909E+03  0.28851688578E+03  0.00000000000E+00 0. -1.
         21    1    1    2  505  502 -0.33613289257E+02  0.65621778832E+02  0.17555751308E+03  0.19041142684E+03  0.00000000000E+00 0. -1.
         -1    1    1    2    0  504 -0.36725917337E+02 -0.94593763077E+02 -0.10889205612E+03  0.14884304788E+03  0.00000000000E+00 0.  1.
<scales pt_clust_3="128.58261" pt_clust_4="64.96179" pt_clust_5="64.96179" pt_clust_6="101.47302"></scales>
<clustering>
<clus scale="   64.962">  4  5 -1 -1</clus>
<clus scale="  101.473">  2  6  1 -1</clus>
<clus scale="  128.583">  2  3  1 -1</clus>
<clus scale="  144.757">  1  3  2 -1</clus>
</clustering>
</event>
<event>
 6    0  0.6338511E+002  0.1156000E+03  0.7546771E-02  0.1250537E+00
         21   -1    0    0  501  502  0.00000000000E+00  0.00000000000E+00  0.62185312827E+03  0.62185312827E+03  0.00000000000E+00 0.  1.
          3   -1    0    0  505    0 -0.00000000000E+00 -0.00000000000E+00 -0.12192382519E+03  0.12192382519E+03  0.00000000000E+00 0.  1.
         21    1    1    2  503  502 -0.14048411417E+02  0.32467332081E+02  0.64633195039E+02  0.73681309819E+02  0.00000000000E+00 0.  1.
         21    1    1    2  504  503  0.13746938409E+03 -0.82266405626E+01  0.49471295045E+03  0.51352352674E+03  0.00000000000E+00 0.  1.
         21    1    1    2  505  504 -0.78151628117E+02  0.58861845299E+01 -0.33169803396E+01  0.78443141856E+02  0.00000000000E+00 0.  1.
          3    1    1    2  501    0 -0.45269344552E+02 -0.30126876049E+02 -0.56099862071E+02  0.78128975041E+02  0.00000000000E+00 0.  1.
<scales pt_clust_3="35.37634" pt_clust_4="14000.00000" pt_clust_5="115.59996" pt_clust_6="54.25681"></scales>
<clustering>
<clus scale="   35.376">  1  3  2 -1</clus>
<clus scale="   54.257">  2  6  1 -1</clus>
<clus scale="  115.600">  2  5  1 -1</clus>
<clus scale="   35.376">  1  3  2 -1</clus>
</clustering>
</event>
<event>
 6    0  0.6338511E+002  0.1089419E+03  0.7546771E-02  0.1262542E+00
         21   -1    0    0  503  502  0.00000000000E+00  0.00000000000E+00  0.14584416073E+03  0.14584416073E+03  0.00000000000E+00 0.  1.
          2   -1    0    0  505    0 -0.00000000000E+00 -0.00000000000E+00 -0.15758301206E+04  0.15758301206E+04  0.00000000000E+00 0. -1.
         21    1    1    2  503  504  0.10985124247E+02 -0.30375454196E+02  0.11297832278E+03  0.11750507475E+03  0.00000000000E+00 0.  1.
         21    1    1    2  504  501  0.16736216071E+02  0.97468372887E+02 -0.99446124362E+02  0.14024876574E+03  0.00000000000E+00 0. -1.
         21    1    1    2  505  502 -0.99295284219E+02 -0.11854055041E+03 -0.86204690322E+03  0.87580607381E+03  0.00000000000E+00 0. -1.
          2    1    1    2  501    0  0.71573943901E+02  0.51447631723E+02 -0.58147125511E+03  0.58811436709E+03  0.00000000000E+00 0. -1.
<scales pt_clust_3="32.30079" pt_clust_4="80.87979" pt_clust_5="14000.00000" pt_clust_6="108.94186"></scales>
<clustering>
<clus scale="   32.301">  1  3  2 -1</clus>
<clus scale="   80.880">  1  4  2 -1</clus>
<clus scale="  108.942">  2  6  1 -1</clus>
<clus scale="   32.301">  1  3  2 -1</clus>
</clustering>
</event>
<event>
 6    0  0.6338511E+002  0.1364050E+03  0.7546771E-02  0.1218250E+00
         21   -1    0    0  504  502  0.00000000000E+00  0.00000000000E+00  0.30025707046E+03  0.30025707046E+03  0.00000000000E+00 0.  1.
          2   -1    0    0  502    0 -0.00000000000E+00 -0.00000000000E+00 -0.28624847191E+03  0.28624847191E+03  0.00000000000E+00 0. -1.
         21    1    1    2  503  505 -0.49017117268E+02 -0.66575543747E+02  0.23663541045E+03  0.25066172083E+03  0.00000000000E+00 0.  1.
         21    1    1    2  504  503 -0.46333151455E+02 -0.15685769536E+02  0.22556952662E+02  0.53866691035E+02  0.00000000000E+00 0.  1.
         21    1    1    2  505  501  0.81321916666E+02  0.44565125553E+02 -0.12784138368E+03  0.15793265630E+03  0.00000000000E+00 0. -1.
          2    1    1    2  501    0  0.14028352057E+02  0.37696187729E+02 -0.11734238088E+03  0.12404447420E+03  0.00000000000E+00 0. -1.
<scales pt_clust_3="122.75549" pt_clust_4="48.91630" pt_clust_5="39.17048" pt_clust_6="39.17048"></scales>
<clustering>
<clus scale="   39.170">  5  6 -1 -1</clus>
<clus scale="   48.916">  1  4  2 -1</clus>
<clus scale="  122.755">  1  3  2 -1</clus>
<clus scale="   48.916">  1  3  2 -1</clus>
</clustering>
</event>
<event>
 6    0  0.6338511E+002  0.1051436E+03  0.7546771E-02  0.1269837E+00
          2   -1    0    0  504    0 -0.00000000000E+00  0.00000000000E+00  0.15429074723E+03  0.15429074723E+03  0.00000000000E+00 0.  1.
         21   -1    0    0  501  502  0.00000000000E+00 -0.00000000000E+00 -0.14069803146E+04  0.14069803146E+04  0.00000000000E+00 0.  1.
         21    1    1    2  503  505  0.43043315494E+02 -0.64683444838E+02 -0.56554325671E+03  0.57085536719E+03  0.00000000000E+00 0.  1.
         21    1    1    2  504  503  0.28898985228E+02  0.36479280564E+02  0.89855740982E+01  0.47398626557E+02  0.00000000000E+00 0.  1.
         21    1    1    2  505  502  0.33426118835E+02 -0.11067434449E+02 -0.79349421671E+03  0.79427505656E+03  0.00000000000E+00 0.  1.
          2    1    1    2  501    0 -0.10536841956E+03  0.39271598723E+02  0.97362331949E+02  0.14874201151E+03  0.00000000000E+00 0.  1.
<scales pt_clust_3="14000.00000" pt_clust_4="46.92902" pt_clust_5="35.21070" pt_clust_6="105.14358"></scales>
<clustering>
<clus scale="   35.211">  2  5  1 -1</clus>
<clus scale="   46.929">  1  4  2 -1</clus>
<clus scale="  105.144">  1  6  2 -1</clus>
<clus scale="   35.211">  2  3  1 -1</clus>
</clustering>
</event>
<event>
 6    0  0.6338511E+002  0.7067090E+02  0.7546771E-02  0.1357826E+00
          1   -1    0    0  504    0 -0.00000000000E+00  0.00000000000E+00  0.26873377172E+04  0.26873377172E+04  0.00000000000E+00 0.  1.
         21   -1    0    0  501  502  0.00000000000E+00 -0.00000000000E+00 -0.11946596386E+03  0.11946596386E+03  0.00000000000E+00 0.  1.
         21    1    1    2  503  505 -0.72601207356E+02 -0.82377723896E+01 -0.55717745493E+02  0.91887231792E+02  0.00000000000E+00 0.  1.
         21    1    1    2  504  503  0.61769695799E+02 -0.66847710936E+02  0.12654881548E+04  0.12687570223E+04  0.00000000000E+00 0.  1.
         21    1    1    2  505  502  0.29792060429E+02  0.13960487454E+02 -0.37045064401E+02  0.49545926887E+02  0.00000000000E+00 0.  1.
          1    1    1    2  501    0 -0.18960548872E+02  0.61124995872E+02  0.13951464084E+04  0.13966135000E+04  0.00000000000E+00 0.  1.
<scales pt_clust_3="44.05393" pt_clust_4="70.67090" pt_clust_5="32.90079" pt_clust_6="14000.00000"></scales>
<clustering>
<clus scale="   32.901">  2  5  1 -1</clus>
<clus scale="   44.054">  2  3  1 -1</clus>
<clus scale="   70.671">  2  4  1 -1</clus>
<clus scale="   32.901">  2  3  1 -1</clus>
</clustering>
</event>
<event>
 6    0  0.6338511E+002  0.1431690E+03  0.7546771E-02  0.1209127E+00
         21   -1    0    0  505  502  0.00000000000E+00  0.00000000000E+00  0.35654054527E+03  0.35654054527E+03  0.00000000000E+00 0.  1.
          2   -1    0    0  503    0 -0.00000000000E+00 -0.00000000000E+00 -0.61411943975E+03  0.61411943975E+03  0.00000000000E+00 0.  1.
         21    1    1    2  503  502  0.13837470484E+03 -0.68869048200E+02  0.27061326846E+03  0.31164410119E+03  0.00000000000E+00 0.  1.
         21    1    1    2  504  501 -0.11364669427E+03 -0.32439404639E+02 -0.48343387677E+03  0.49767077401E+03  0.00000000000E+00 0.  1.
         21    1    1    2  505  504  0.79200937334E+01  0.71701797753E+02  0.27089494833E+02  0.77056579317E+02  0.00000000000E+00 0. -1.
          2    1    1    2  501    0 -0.32648104304E+02  0.29606655086E+02 -0.71847781001E+02  0.84288530505E+02  0.00000000000E+00 0.  1.
<scales pt_clust_3="143.16900" pt_clust_4="14000.00000" pt_clust_5="73.36123" pt_clust_6="44.07327"></scales>
<clustering>
<clus scale="   44.073">  2  6  1 -1</clus>
<clus scale="   73.361">  1  5  2 -1</clus>
<clus scale="  143.169">  1  3  2 -1</clus>
<clus scale="   73.361">  1  3  2 -1</clus>
</clustering>
</event>
<event>
 6    0  0.6338511E+002  0.8854970E+02  0.7546771E-02  0.1306402E+00
          2   -1    0    0  504    0 -0.00000000000E+00  0.00000000000E+00  0.16533120243E+04  0.16533120243E+04  0.00000000000E+00 0. -1.
         21   -1    0    0  505  502  0.00000000000E+00 -0.00000000000E+00 -0.39756239397E+02  0.39756239397E+02  0.00000000000E+00 0.  1.
         21    1    1    2  503  502 -0.13510856467E+02 -0.27763433959E+02  0.55513640400E+02  0.63522561174E+02  0.00000000000E+00 0. -1.
         21    1    1    2  504  503 -0.83754031012E+01 -0.10160063550E+03  0.67503432606E+03  0.68268893199E+03  0.00000000000E+00 0.  1.
         21    1    1    2  505  501  0.78410835057E+02  0.83328348331E+02  0.77820060934E+02  0.13837570081E+03  0.00000000000E+00 0.  1.
          2    1    1    2  501    0 -0.56524575489E+02  0.46035721129E+02  0.80518775754E+03  0.80848106975E+03  0.00000000000E+00 0. -1.
<scales pt_clust_3="30.87639" pt_clust_4="14000.00000" pt_clust_5="88.54970" pt_clust_6="72.58755"></scales>
<clustering>
<clus scale="   30.876">  2  3  1 -1</clus>
<clus scale="   72.588">  1  6  2 -1</clus>
<clus scale="   88.550">  2  5  1 -1</clus>
<clus scale="   30.876">  2  3  1 -1</clus>
</clustering>
</event>
<event>
 6    0  0.6338511E+002  0.6888785E+02  0.7546771E-02  0.1363916E+00
          1   -1    0    0  503    0 -0.00000000000E+00  0.00000000000E+00  0.65857637096E+03  0.65857637096E+03  0.00000000000E+00 0.  1.
         21   -1    0    0  505  502  0.00000000000E+00 -0.00000000000E+00 -0.34178356954E+02  0.34178356954E+02  0.00000000000E+00 0.  1.
         21    1    1    2  503  502  0.70672036890E+02 -0.49540186428E+02  0.11335389852E+03  0.14247060461E+03  0.00000000000E+00 0.  1.
         21    1    1    2  504  501 -0.11292289678E+02  0.61706229333E+02  0.16945405558E+03  0.18069269907E+03  0.00000000000E+00 0.  1.
         21    1    1    2  505  504 -0.87717573925E+01  0.39710442205E+02  0.32329183365E+02  0.51952276610E+02  0.00000000000E+00 0.  1.
          1    1    1    2  501    0 -0.50607989819E+02 -0.51876485110E+02  0.30926087654E+03  0.31763914762E+03  0.00000000000E+00 0.  1.
<scales pt_clust_3="63.17884" pt_clust_4="14000.00000" pt_clust_5="40.66771" pt_clust_6="68.88785"></scales>
<clustering>
<clus scale="   40.668">  2  5  1 -1</clus>
<clus scale="   68.888">  1  6  2 -1</clus>
<clus scale="   63.179">  2  3  1 -1</clus>
<clus scale="   40.668">  2  3  1 -1</clus>
</clustering>
</event>
<event>
 6    0  0.6338511E+002  0.1547560E+03  0.7546771E-02  0.1194748E+00
          2   -1    0    0  504    0 -0.00000000000E+00  0.00000000000E+00  0.29143091590E+04  0.29143091590E+04  0.00000000000E+00 0. -1.
         21   -1    0    0  505  502  0.00000000000E+00 -0.00000000000E+00 -0.32292655742E+03  0.32292655742E+03  0.00000000000E+00 0. -1.
         21    1    1    2  503  502 -0.77727170539E+02  0.32981272332E+02 -0.35226641384E+02  0.91488762303E+02  0.00000000000E+00 0.  1.
         21    1    1    2  504  503 -0.42228645651E+01 -0.55952742749E+02  0.25008648739E+03  0.25630410294E+03  0.00000000000E+00 0.  1.
         21    1    1    2  505  501  0.65671501895E+02  0.12311795954E+03 -0.23642201488E+03  0.27452895520E+03  0.00000000000E+00 0. -1.
          2    1    1    2  501    0  0.16278533209E+02 -0.10014648913E+03  0.26129447705E+04  0.26149138960E+04  0.00000000000E+00 0. -1.
<scales pt_clust_3="84.24698" pt_clust_4="56.11187" pt_clust_5="154.75600" pt_clust_6="14000.00000"></scales>
<clustering>
<clus scale="   56.112">  1  4  2 -1</clus>
<clus scale="   84.247">  2  3  1 -1</clus>
<clus scale="  154.756">  2  5  1 -1</clus>
<clus scale="   84.247">  2  3  1 -1</clus>
</clustering>
</event>
<event>
 6    0  0.1245243E+003  0.9418551E+02  0.7546771E-02  0.1293021E+00
          1   -1    0    0  505    0 -0.00000000000E+00  0.00000000000E+00  0.10944002195E+04  0.10944002195E+04  0.00000000000E+00 0.  1.
         21   -1    0    0  504  502  0.00000000000E+00 -0.00000000000E+00 -0.15835944632E+04  0.15835944632E+04  0.00000000000E+00 0.  1.
         21    1    1    2  503  502  0.36425295048E+02  0.70724801334E+01 -0.22850999914E+03  0.23150300603E+03  0.00000000000E+00 0.  1.
         21    1    1    2  504  501  0.43547104482E+02 -0.61910055511E+02 -0.12394554763E+04  0.12417645039E+04  0.00000000000E+00 0.  1.
         21    1    1    2  505  503 -0.52643993040E+02  0.83035631313E+02 -0.91159582566E+02  0.13407600667E+03  0.00000000000E+00 0.  1.
          1    1    1    2  501    0 -0.27328406490E+02 -0.28198055936E+02  0.10699308143E+04  0.10706511661E+04  0.00000000000E+00 0.  1.
<scales pt_clust_3="37.10555" pt_clust_4="14000.00000" pt_clust_5="94.18551" pt_clust_6="39.25986"></scales>
<clustering>
<clus scale="   37.106">  2  3  1 -1</clus>
<clus scale="   39.260">  1  6  2 -1</clus>
<clus scale="   94.186">  1  5  2 -1</clus>
<clus scale="   37.106">  2  3  1 -1</clus>
</clustering>
</event>
<event>
 6    0  0.6338511E+002  0.8386226E+02  0.7546771E-02  0.1318435E+00
          2   -1    0    0  504    0 -0.00000000000E+00  0.00000000000E+00  0.10710205511E+04  0.10710205511E+04  0.00000000000E+00 0. -1.
         21   -1    0    0  505  502  0.00000000000E+00 -0.00000000000E+00 -0.11562038024E+03  0.11562038024E+03  0.00000000000E+00 0. -1.
         21    1    1    2  503  502 -0.33137358988E+02 -0.12829886617E+02 -0.66694795584E+02  0.75570406306E+02  0.00000000000E+00 0. -1.
         21    1    1    2  504  503  0.37659519446E+02  0.24706352701E+02  0.47011762188E+02  0.65105676040E+02  0.00000000000E+00 0. -1.
         21    1    1    2  505  501  0.66767928830E+02 -0.55802609130E+02  0.22728485390E+02  0.89935930273E+02  0.00000000000E+00 0. -1.
          2    1    1    2  501    0 -0.71290089289E+02  0.43926143046E+02  0.95235471883E+03  0.95602891868E+03  0.00000000000E+00 0. -1.
<scales pt_clust_3="35.53436" pt_clust_4="38.00505" pt_clust_5="83.86226" pt_clust_6="14000.00000"></scales>
<clustering>
<clus scale="   35.534">  2  3  1 -1</clus>
<clus scale="   38.005">  2  4  1 -1</clus>
<clus scale="   83.862">  2  5  1 -1</clus>
<clus scale="   35.534">  2  3  1 -1</clus>
</clustering>
</event>
<event>
 6    0  0.6338511E+002  0.1084503E+03  0.7546771E-02  0.1263467E+00
          2   -1    0    0  504    0 -0.00000000000E+00  0.00000000000E+00  0.10880111810E+03  0.10880111810E+03  0.00000000000E+00 0.  1.
         21   -1    0    0  503  502  0.00000000000E+00 -0.00000000000E+00 -0.13006545615E+04  0.13006545615E+04  0.00000000000E+00 0. -1.
         21    1    1    2  503  501 -0.10103720868E+03 -0.54279228755E+02 -0.11271838913E+04  0.11330040940E+04  0.00000000000E+00 0. -1.
         21    1    1    2  504  505  0.18859071746E+02  0.65533614024E+02  0.61727153925E+02  0.91981306176E+02  0.00000000000E+00 0.  1.
         21    1    1    2  505  502  0.79354972536E+02  0.23917853402E+02 -0.12394115298E+03  0.14909958008E+03  0.00000000000E+00 0.  1.
          2    1    1    2  501    0  0.28231643933E+01 -0.35172238671E+02 -0.24555530313E+01  0.35370699329E+02  0.00000000000E+00 0.  1.
<scales pt_clust_3="108.45030" pt_clust_4="42.00797" pt_clust_5="14000.00000" pt_clust_6="35.28536"></scales>
<clustering>
<clus scale="   35.285">  1  6  2 -1</clus>
<clus scale="   42.008">  1  4  2 -1</clus>
<clus scale="  108.450">  2  3  1 -1</clus>
<clus scale="  108.450">  2  3  1 -1</clus>
</clustering>
</event>
<event>
 6    0  0.6338511E+002  0.1040831E+03  0.7546771E-02  0.1271937E+00
         21   -1    0    0  504  502  0.00000000000E+00  0.00000000000E+00  0.10053321719E+03  0.10053321719E+03  0.00000000000E+00 0. -1.
          2   -1    0    0  503    0 -0.00000000000E+00 -0.00000000000E+00 -0.18267134078E+04  0.18267134078E+04  0.00000000000E+00 0. -1.
         21    1    1    2  503  505 -0.15464147694E+02 -0.34486969498E+02 -0.27364057913E+03  0.27623840695E+03  0.00000000000E+00 0.  1.
         21    1    1    2  504  501 -0.54799730642E+01  0.10503799070E+03  0.64661873741E+02  0.12346727304E+03  0.00000000000E+00 0. -1.
         21    1    1    2  505  502 -0.51226144729E+02 -0.19873344146E+02 -0.20058784804E+03  0.20797728840E+03  0.00000000000E+00 0.  1.
          2    1    1    2  501    0  0.72170265488E+02 -0.50677677057E+02 -0.13166136372E+04  0.13195636566E+04  0.00000000000E+00 0. -1.
<scales pt_clust_3="37.79538" pt_clust_4="104.08314" pt_clust_5="58.59048" pt_clust_6="14000.00000"></scales>
<clustering>
<clus scale="   37.795">  2  3  1 -1</clus>
<clus scale="   58.590">  2  5  1 -1</clus>
<clus scale="  104.083">  1  4  2 -1</clus>
<clus scale="  104.083">  1  3  2 -1</clus>
</clustering>
</event>
<event>
 6    0  0.6338511E+002  0.1644476E+03  0.7546771E-02  0.1183765E+00
         21   -1    0    0  503  502  0.00000000000E+00  0.00000000000E+00  0.27229582838E+03  0.27229582838E+03  0.00000000000E+00 0.  1.
          2   -1    0    0  502    0 -0.00000000000E+00 -0.00000000000E+00 -0.28310037162E+04  0.28310037162E+04  0.00000000000E+00 0.  1.
         21    1    1    2  503  505 -0.83641502905E+02 -0.13661645402E+03  0.21280156521E+03  0.26635401757E+03  0.00000000000E+00 0.  1.
         21    1    1    2  504  501 -0.59644610455E+02 -0.12912780899E+02 -0.74854339583E+03  0.75102692023E+03  0.00000000000E+00 0.  1.
         21    1    1    2  505  504  0.15773464811E+03  0.18305545015E+03 -0.43560472885E+03  0.49813752803E+03  0.00000000000E+00 0.  1.
          2    1    1    2  501    0 -0.14448534745E+02 -0.33526215231E+02 -0.15873613283E+04  0.15877810787E+04  0.00000000000E+00 0.  1.
<scales pt_clust_3="14000.00000" pt_clust_4="75.96190" pt_clust_5="164.44758" pt_clust_6="36.50709"></scales>
<clustering>
<clus scale="   36.507">  2  6  1 -1</clus>
<clus scale="   75.962">  2  4  1 -1</clus>
<clus scale="  164.448">  2  5  1 -1</clus>
<clus scale="  164.448">  1  3  2 -1</clus>
</clustering>
</event>
<event>
 6    0  0.6338511E+002  0.1827103E+03  0.7546771E-02  0.1165205E+00
         -4   -1    0    0    0  501 -0.00000000000E+00  0.00000000000E+00  0.15098202016E+04  0.15098202016E+04  0.00000000000E+00 0. -1.
         21   -1    0    0  504  502  0.00000000000E+00 -0.00000000000E+00 -0.13386467437E+03  0.13386467437E+03  0.00000000000E+00 0. -1.
         21    1    1    2  503  502 -0.98101816651E+02  0.13072091576E+03  0.55182915308E+03  0.57552353422E+03  0.00000000000E+00 0. -1.
         21    1    1    2  504  505  0.17875430084E+03 -0.61434616299E+02 -0.32322786956E+02  0.19176046179E+03  0.00000000000E+00 0. -1.
         21    1    1    2  505  501  0.33579524194E+02 -0.29688747696E+02  0.90747755650E+02  0.10121344446E+03  0.00000000000E+00 0. -1.
         -4    1    1    2    0  503 -0.11423200839E+03 -0.39597551768E+02  0.76570140548E+03  0.77518743552E+03  0.00000000000E+00 0. -1.
<scales pt_clust_3="182.71031" pt_clust_4="14000.00000" pt_clust_5="44.82194" pt_clust_6="110.96929"></scales>
<clustering>
<clus scale="   44.822">  1  5  2 -1</clus>
<clus scale="  110.969">  1  6  2 -1</clus>
<clus scale="  182.710">  1  3  2 -1</clus>
<clus scale="  182.710">  2  3  1 -1</clus>
</clustering>
</event>
<event>
 6    0  0.6338511E+002  0.8145176E+02  0.7546771E-02  0.1324981E+00
          1   -1    0    0  503    0 -0.00000000000E+00  0.00000000000E+00  0.28921088970E+03  0.28921088970E+03  0.00000000000E+00 0.  1.
         21   -1    0    0  504  502  0.00000000000E+00 -0.00000000000E+00 -0.52885286114E+03  0.52885286114E+03  0.00000000000E+00 0.  1.
         21    1    1    2  503  502  0.40266233487E+02  0.11479330304E+03 -0.14526994798E+03  0.18947883726E+03  0.00000000000E+00 0.  1.
         21    1    1    2  504  505  0.50489693779E+01 -0.67324804426E+02 -0.30601342764E+03  0.31337252477E+03  0.00000000000E+00 0.  1.
         21    1    1    2  505  501 -0.28057263562E+02 -0.78914767536E+02 -0.15568155212E+02  0.85188720090E+02  0.00000000000E+00 0.  1.
          1    1    1    2  501    0 -0.17257939303E+02  0.31446268918E+02  0.22720955938E+03  0.23002366872E+03  0.00000000000E+00 0.  1.
<scales pt_clust_3="14000.00000" pt_clust_4="65.53749" pt_clust_5="81.45176" pt_clust_6="35.87066"></scales>
<clustering>
<clus scale="   35.871">  1  6  2 -1</clus>
<clus scale="   65.537">  2  4  1 -1</clus>
<clus scale="   81.452">  1  5  2 -1</clus>
<clus scale="   65.537">  2  3  1 -1</clus>
</clustering>
</event>
<event>
 6    0  0.6338511E+002  0.1339230E+03  0.7546771E-02  0.1221748E+00
          2   -1    0    0  503    0 -0.00000000000E+00  0.00000000000E+00  0.37389565114E+04  0.37389565114E+04  0.00000000000E+00 0. -1.
         21   -1    0    0  504  502  0.00000000000E+00 -0.00000000000E+00 -0.27721105505E+02  0.27721105505E+02  0.00000000000E+00 0. -1.
         21    1    1    2  503  502  0.65189440747E+02  0.16254729264E+01  0.10448814209E+03  0.12316686723E+03  0.00000000000E+00 0. -1.
         21    1    1    2  504  505 -0.69189723929E+02  0.10014789905E+03  0.28522626447E+03  0.31011423947E+03  0.00000000000E+00 0. -1.
         21    1    1    2  505  501 -0.45419654444E+02 -0.15613588454E+01  0.98933238818E+02  0.10887225815E+03  0.00000000000E+00 0.  1.
          2    1    1    2  501    0  0.49419937627E+02 -0.10021201313E+03  0.32225877605E+04  0.32245242521E+04  0.00000000000E+00 0. -1.
<scales pt_clust_3="65.20970" pt_clust_4="43.70688" pt_clust_5="43.70688" pt_clust_6="113.22020"></scales>
<clustering>
<clus scale="   43.707">  4  5 -1 -1</clus>
<clus scale="   65.210">  2  3  1 -1</clus>
<clus scale="  113.220">  1  6  2 -1</clus>
<clus scale="   65.210">  2  3  1 -1</clus>
</clustering>
</event>
<event>
 6    0  0.6338511E+002  0.1009721E+03  0.7546771E-02  0.1278265E+00
          2   -1    0    0  505    0 -0.00000000000E+00  0.00000000000E+00  0.77297752072E+03  0.77297752072E+03  0.00000000000E+00 0.  1.
         21   -1    0    0  504  502  0.00000000000E+00 -0.00000000000E+00 -0.38059017879E+03  0.38059017879E+03  0.00000000000E+00 0. -1.
         21    1    1    2  503  502 -0.36573306352E+02  0.64433529100E+02  0.72477849393E+02  0.10364518832E+03  0.00000000000E+00 0. -1.
         21    1    1    2  504  501 -0.44629392348E+02 -0.91104937414E+02 -0.35169409993E+03  0.36603364901E+03  0.00000000000E+00 0. -1.
         21    1    1    2  505  503  0.37835873666E+02 -0.22900564171E+02  0.11189402305E+03  0.12031733695E+03  0.00000000000E+00 0. -1.
          2    1    1    2  501    0  0.43366825033E+02  0.49571972485E+02  0.55970956941E+03  0.56357152524E+03  0.00000000000E+00 0.  1.
<scales pt_clust_3="68.97667" pt_clust_4="100.97206" pt_clust_5="44.22657" pt_clust_6="14000.00000"></scales>
<clustering>
<clus scale="   44.227">  1  5  2 -1</clus>
<clus scale="   68.977">  1  3  2 -1</clus>
<clus scale="  100.972">  2  4  1 -1</clus>
<clus scale="  100.972">  2  3  1 -1</clus>
</clustering>
</event>
<event>
 6    0  0.6338511E+002  0.9447750E+02  0.7546771E-02  0.1292357E+00
         21   -1    0    0  505  502  0.00000000000E+00  0.00000000000E+00  0.31626270375E+03  0.31626270375E+03  0.00000000000E+00 0. -1.
         -4   -1    0    0    0  501 -0.00000000000E+00 -0.00000000000E+00 -0.21405458584E+03  0.21405458584E+03  0.00000000000E+00 0. -1.
         21    1    1    2  503  502  0.11484177857E+01  0.33613912860E+02  0.15180663327E+03  0.15548783845E+03  0.00000000000E+00 0. -1.
         21    1    1    2  504  503  0.82512562251E+02 -0.82958577844E+02  0.11900688326E+03  0.16689244090E+03  0.00000000000E+00 0.  1.
         21    1    1    2  505  501 -0.39521759487E+02  0.62640801111E+02 -0.87430253150E+02  0.11458572600E+03  0.00000000000E+00 0.  1.
         -4    1    1    2    0  504 -0.44139220550E+02 -0.13296136127E+02 -0.81175145471E+02  0.93351284238E+02  0.00000000000E+00 0. -1.
<scales pt_clust_3="33.63352" pt_clust_4="94.47750" pt_clust_5="14000.00000" pt_clust_6="45.70977"></scales>
<clustering>
<clus scale="   33.634">  1  3  2 -1</clus>
<clus scale="   45.710">  2  6  1 -1</clus>
<clus scale="   94.478">  1  4  2 -1</clus>
<clus scale="   33.634">  1  3  2 -1</clus>
</clustering>
</event>
<event>
 6    0  0.6338511E+002  0.2330426E+03  0.7546771E-02  0.1124516E+00
         21   -1    0    0  505  502  0.00000000000E+00  0.00000000000E+00  0.43514431995E+03  0.43514431995E+03  0.00000000000E+00 0. -1.
         -2   -1    0    0    0  501 -0.00000000000E+00 -0.00000000000E+00 -0.40249513094E+03  0.40249513094E+03  0.00000000000E+00 0. -1.
         21    1    1    2  503  501 -0.95020014428E+02  0.18502879193E+03  0.16839780076E+03  0.26762338516E+03  0.00000000000E+00 0. -1.
         21    1    1    2  504  502  0.10277722936E+03 -0.16304906230E+03  0.65546727694E+02  0.20357929439E+03  0.00000000000E+00 0. -1.
         21    1    1    2  505  503  0.38665981642E+01  0.34865699270E+02  0.75698339712E+02  0.83431446122E+02  0.00000000000E+00 0. -1.
         -2    1    1    2    0  504 -0.11623813098E+02 -0.56845428904E+02 -0.27699367915E+03  0.28300532522E+03  0.00000000000E+00 0. -1.
<scales pt_clust_3="34.34452" pt_clust_4="217.51971" pt_clust_5="34.34452" pt_clust_6="58.02168"></scales>
<clustering>
<clus scale="   34.345">  3  5 -1 -1</clus>
<clus scale="   58.022">  2  6  1 -1</clus>
<clus scale="  217.520">  2  4  1 -1</clus>
<clus scale="  233.043">  1  3  2 -1</clus>
</clustering>
</event>
<event>
 6    0  0.6338511E+002  0.8555185E+02  0.7546771E-02  0.1313996E+00
          2   -1    0    0  505    0 -0.00000000000E+00  0.00000000000E+00  0.42028526843E+03  0.42028526843E+03  0.00000000000E+00 0. -1.
         21   -1    0    0  501  502  0.00000000000E+00 -0.00000000000E+00 -0.60815437676E+02  0.60815437676E+02  0.00000000000E+00 0. -1.
         21    1    1    2  503  504 -0.34481601241E+02  0.12130581513E+03  0.15557918457E+03  0.20027222543E+03  0.00000000000E+00 0. -1.
         21    1    1    2  504  502 -0.26815203146E+01 -0.45160857853E+02 -0.69438963518E+01  0.45770201329E+02  0.00000000000E+00 0.  1.
         21    1    1    2  505  503  0.40109619735E+02 -0.15176748143E+02  0.85926644481E+02  0.96033866481E+02  0.00000000000E+00 0. -1.
          2    1    1    2  501    0 -0.29464981793E+01 -0.60968209130E+02  0.12490789806E+03  0.13902441287E+03  0.00000000000E+00 0. -1.
<scales pt_clust_3="85.55185" pt_clust_4="46.05665" pt_clust_5="42.88491" pt_clust_6="14000.00000"></scales>
<clustering>
<clus scale="   42.885">  1  5  2 -1</clus>
<clus scale="   46.057">  2  4  1 -1</clus>
<clus scale="   85.552">  2  3  1 -1</clus>
<clus scale="   46.057">  2  3  1 -1</clus>
</clustering>
</event>
<event>
 6    0  0.6338511E+002  0.1168309E+03  0.7546771E-02  0.1248419E+00
         -1   -1    0    0    0  501 -0.00000000000E+00  0.00000000000E+00  0.27071027688E+03  0.27071027688E+03  0.00000000000E+00 0. -1.
         21   -1    0    0  505  502  0.00000000000E+00 -0.00000000000E+00 -0.55421317211E+03  0.55421317211E+03  0.00000000000E+00 0. -1.
         21    1    1    2  503  504 -0.49184453227E+02 -0.13634595678E+03 -0.35016897121E+02  0.14911577198E+03  0.00000000000E+00 0. -1.
         21    1    1    2  504  502  0.49253801138E+02  0.73258577817E+02 -0.40700451182E+03  0.41646780042E+03  0.00000000000E+00 0. -1.
         21    1    1    2  505  501  0.39267184504E+02  0.75607693207E+01 -0.35662511185E+02  0.53580702829E+02  0.00000000000E+00 0.  1.
         -1    1    1    2    0  503 -0.39336532416E+02  0.55526609638E+02  0.19418102489E+03  0.20575917376E+03  0.00000000000E+00 0. -1.
<scales pt_clust_3="14000.00000" pt_clust_4="116.83091" pt_clust_5="39.98846" pt_clust_6="67.86175"></scales>
<clustering>
<clus scale="   39.988">  2  5  1 -1</clus>
<clus scale="   67.862">  1  6  2 -1</clus>
<clus scale="  116.831">  2  4  1 -1</clus>
<clus scale="   39.988">  2  3  1 -1</clus>
</clustering>
</event>
<event>
 6    0  0.6338511E+002  0.1239821E+03  0.7546771E-02  0.1236669E+00
         21   -1    0    0  503  502  0.00000000000E+00  0.00000000000E+00  0.87305594566E+03  0.87305594566E+03  0.00000000000E+00 0.  1.
          3   -1    0    0  504    0 -0.00000000000E+00 -0.00000000000E+00 -0.70127088383E+02  0.70127088383E+02  0.00000000000E+00 0.  1.
         21    1    1    2  503  505  0.79278755805E+00  0.35963997498E+02  0.22722404357E+03  0.23005391456E+03  0.00000000000E+00 0. -1.
         21    1    1    2  504  502 -0.41088457020E+02 -0.13382585666E+03  0.37444641376E+03  0.39975960025E+03  0.00000000000E+00 0.  1.
         21    1    1    2  505  501  0.42834263364E+02  0.58079690716E+02  0.24428098815E+03  0.25471793373E+03  0.00000000000E+00 0.  1.
          3    1    1    2  501    0 -0.25385939021E+01  0.39782168442E+02 -0.43022588214E+02  0.58651585499E+02  0.00000000000E+00 0.  1.
<scales pt_clust_3="31.09077" pt_clust_4="115.89802" pt_clust_5="31.09077" pt_clust_6="39.86308"></scales>
<clustering>
<clus scale="   31.091">  3  5 -1 -1</clus>
<clus scale="   39.863">  2  6  1 -1</clus>
<clus scale="  115.898">  2  4  1 -1</clus>
<clus scale="  123.982">  1  3  2 -1</clus>
</clustering>
</event>
<event>
 6    0  0.6338511E+002  0.1010683E+03  0.7546771E-02  0.1278065E+00
          1   -1    0    0  505    0 -0.00000000000E+00  0.00000000000E+00  0.12883920354E+04  0.12883920354E+04  0.00000000000E+00 0. -1.
         21   -1    0    0  501  502  0.00000000000E+00 -0.00000000000E+00 -0.29827551856E+02  0.29827551856E+02  0.00000000000E+00 0. -1.
         21    1    1    2  503  504 -0.22445411050E+02  0.70466932746E+02  0.10617891651E+03  0.12939608727E+03  0.00000000000E+00 0. -1.
         21    1    1    2  504  502 -0.47712356415E+02  0.82461725993E+01  0.89487097005E+02  0.10174678790E+03  0.00000000000E+00 0. -1.
         21    1    1    2  505  503 -0.64144789294E+02 -0.56791123920E+02  0.29395842164E+03  0.30618840508E+03  0.00000000000E+00 0. -1.
          1    1    1    2  501    0  0.13430255676E+03 -0.21921981425E+02  0.76894004840E+03  0.78088830703E+03  0.00000000000E+00 0. -1.
<scales pt_clust_3="87.46702" pt_clust_4="48.41971" pt_clust_5="101.06830" pt_clust_6="14000.00000"></scales>
<clustering>
<clus scale="   48.420">  2  4  1 -1</clus>
<clus scale="   87.467">  2  3  1 -1</clus>
<clus scale="  101.068">  2  5  1 -1</clus>
<clus scale="   48.420">  2  3  1 -1</clus>
</clustering>
</event>
<event>
 6    0  0.6338511E+002  0.3162068E+03  0.7546771E-02  0.1077408E+00
         21   -1    0    0  501  502  0.00000000000E+00  0.00000000000E+00  0.24410721622E+03  0.24410721622E+03  0.00000000000E+00 0.  1.
          2   -1    0    0  503    0 -0.00000000000E+00 -0.00000000000E+00 -0.14123923821E+04  0.14123923821E+04  0.00000000000E+00 0.  1.
         21    1    1    2  503  504 -0.12218635228E+03 -0.13747031438E+03 -0.59128026770E+02  0.19319346668E+03  0.00000000000E+00 0. -1.
         21    1    1    2  504  505 -0.24122396918E+02 -0.10480410715E+03 -0.27354923885E+02  0.11096883693E+03  0.00000000000E+00 0.  1.
         21    1    1    2  505  502  0.18203724234E+02 -0.43691985829E+02  0.11014803683E+03  0.11988726046E+03  0.00000000000E+00 0.  1.
          2    1    1    2  501    0  0.12810502496E+03  0.28596640736E+03 -0.11919502520E+04  0.12324500342E+04  0.00000000000E+00 0.  1.
<scales pt_clust_3="55.05086" pt_clust_4="55.05086" pt_clust_5="47.33250" pt_clust_6="308.30911"></scales>
<clustering>
<clus scale="   47.332">  1  5  2 -1</clus>
<clus scale="   55.051">  3  4 -1 -1</clus>
<clus scale="  308.309">  2  6  1 -1</clus>
<clus scale="   47.332">  1  3  2 -1</clus>
</clustering>
</event>
<event>
 6    0  0.9182034E+002  0.1041153E+03  0.7546771E-02  0.1271873E+00
         21   -1    0    0  503  502  0.00000000000E+00  0.00000000000E+00  0.30629478196E+03  0.30629478196E+03  0.00000000000E+00 0. -1.
          2   -1    0    0  505    0 -0.00000000000E+00 -0.00000000000E+00 -0.21178503496E+04  0.21178503496E+04  0.00000000000E+00 0. -1.
         21    1    1    2  503  501  0.79291387680E+02  0.27086438421E+02  0.26578319217E+03  0.27867813791E+03  0.00000000000E+00 0. -1.
         21    1    1    2  504  502  0.27182516187E+02 -0.49220833764E+02  0.50089618325E+01  0.56450592214E+02  0.00000000000E+00 0. -1.
         21    1    1    2  505  504 -0.65794041204E+02 -0.14027953514E+02 -0.38758947492E+03  0.39338434184E+03  0.00000000000E+00 0. -1.
          2    1    1    2  501    0 -0.40679862663E+02  0.36162348857E+02 -0.16947582467E+04  0.16956320596E+04  0.00000000000E+00 0. -1.
<scales pt_clust_3="14000.00000" pt_clust_4="53.11618" pt_clust_5="104.11527" pt_clust_6="54.42947"></scales>
<clustering>
<clus scale="   54.429">  2  6  1 -1</clus>
<clus scale="   53.116">  1  4  2 -1</clus>
<clus scale="  104.115">  2  5  1 -1</clus>
<clus scale="   53.116">  1  3  2 -1</clus>
</clustering>
</event>
<event>
 6    0  0.6338511E+002  0.1088395E+03  0.7546771E-02  0.1262734E+00
          1   -1    0    0  503    0 -0.00000000000E+00  0.00000000000E+00  0.40302594497E+03  0.40302594497E+03  0.00000000000E+00 0.  1.
         21   -1    0    0  501  502  0.00000000000E+00 -0.00000000000E+00 -0.10431567127E+04  0.10431567127E+04  0.00000000000E+00 0. -1.
         21    1    1    2  503  504 -0.88319557967E+02  0.14729242236E+02  0.27059251193E+03  0.28502210863E+03  0.00000000000E+00 0.  1.
         21    1    1    2  504  505  0.68603330382E+02  0.76045031668E+02 -0.39049838321E+03  0.40370564904E+03  0.00000000000E+00 0. -1.
         21    1    1    2  505  502  0.40783907886E+02 -0.58671687740E+02 -0.63367083482E+03  0.63768677341E+03  0.00000000000E+00 0. -1.
          1    1    1    2  501    0 -0.21067680301E+02 -0.32102586164E+02  0.11344593841E+03  0.11976812653E+03  0.00000000000E+00 0.  1.
<scales pt_clust_3="108.83951" pt_clust_4="14000.00000" pt_clust_5="71.55507" pt_clust_6="38.39822"></scales>
<clustering>
<clus scale="   38.398">  1  6  2 -1</clus>
<clus scale="   71.555">  2  5  1 -1</clus>
<clus scale="  108.840">  1  3  2 -1</clus>
<clus scale="   71.555">  2  3  1 -1</clus>
</clustering>
</event>
<event>
 6    0  0.6338511E+002  0.8623999E+02  0.7546771E-02  0.1312221E+00
          4   -1    0    0  505    0 -0.00000000000E+00  0.00000000000E+00  0.50135065451E+03  0.50135065451E+03  0.00000000000E+00 0.  1.
         21   -1    0    0  503  502  0.00000000000E+00 -0.00000000000E+00 -0.52901094923E+03  0.52901094923E+03  0.00000000000E+00 0. -1.
         21    1    1    2  503  504  0.68702672039E+02  0.24964038422E+02 -0.35180686820E+03  0.35932065467E+03  0.00000000000E+00 0. -1.
         21    1    1    2  504  501 -0.15212327937E+03 -0.13505182020E+02 -0.12591340822E+03  0.19793450543E+03  0.00000000000E+00 0.  1.
         21    1    1    2  505  502  0.40665365870E+02 -0.12519591337E+02  0.32965680986E+02  0.53825163925E+02  0.00000000000E+00 0.  1.
          4    1    1    2  501    0  0.42755241465E+02  0.10607349354E+01  0.41709430072E+03  0.41928127972E+03  0.00000000000E+00 0.  1.
<scales pt_clust_3="73.37638" pt_clust_4="86.23999" pt_clust_5="42.54894" pt_clust_6="14000.00000"></scales>
<clustering>
<clus scale="   42.549">  1  5  2 -1</clus>
<clus scale="   73.376">  2  3  1 -1</clus>
<clus scale="   86.240">  2  4  1 -1</clus>
<clus scale="   73.376">  2  3  1 -1</clus>
</clustering>
</event>
<event>
 6    0  0.6338511E+002  0.1435035E+03  0.7546771E-02  0.1208691E+00
         21   -1    0    0  504  502  0.00000000000E+00  0.00000000000E+00  0.15077311101E+04  0.15077311101E+04  0.00000000000E+00 0. -1.
          2   -1    0    0  505    0 -0.00000000000E+00 -0.00000000000E+00 -0.32966871092E+03  0.32966871092E+03  0.00000000000E+00 0. -1.
         21    1    1    2  503  502 -0.84990160002E+02 -0.81067815410E+02  0.11970678184E+04  0.12028161454E+04  0.00000000000E+00 0. -1.
         21    1    1    2  504  501 -0.58872322142E+02  0.50241702814E+02  0.27967238233E+03  0.29018411475E+03  0.00000000000E+00 0. -1.
         21    1    1    2  505  503  0.64288826927E+02  0.21935932680E+02 -0.53463740422E+02  0.86444259209E+02  0.00000000000E+00 0. -1.
          2    1    1    2  501    0  0.79573655217E+02  0.88901799160E+01 -0.24521406106E+03  0.25795530164E+03  0.00000000000E+00 0. -1.
<scales pt_clust_3="14000.00000" pt_clust_4="76.70389" pt_clust_5="67.92819" pt_clust_6="143.50352"></scales>
<clustering>
<clus scale="   67.928">  2  5  1 -1</clus>
<clus scale="   76.704">  1  4  2 -1</clus>
<clus scale="  143.504">  2  6  1 -1</clus>
<clus scale="   76.704">  1  3  2 -1</clus>
</clustering>
</event>
<event>
 6    0  0.6338511E+002  0.1672074E+03  0.7546771E-02  0.1180792E+00
          1   -1    0    0  505    0 -0.00000000000E+00  0.00000000000E+00  0.31522762075E+03  0.31522762075E+03  0.00000000000E+00 0. -1.
         21   -1    0    0  504  502  0.00000000000E+00 -0.00000000000E+00 -0.24580453041E+04  0.24580453041E+04  0.00000000000E+00 0.  1.
         21    1    1    2  503  501 -0.13361739468E+03  0.14885064052E+03 -0.17431363148E+03  0.26532124578E+03  0.00000000000E+00 0.  1.
         21    1    1    2  504  503  0.17308466169E+03 -0.10539516093E+02 -0.17005082468E+04  0.17093266742E+04  0.00000000000E+00 0.  1.
         21    1    1    2  505  502 -0.90383137662E+02 -0.13064450336E+03 -0.51880634131E+03  0.54258374249E+03  0.00000000000E+00 0.  1.
          1    1    1    2  501    0  0.50915870648E+02 -0.76666210709E+01  0.25081053626E+03  0.25604126242E+03  0.00000000000E+00 0. -1.
<scales pt_clust_3="167.20739" pt_clust_4="14000.00000" pt_clust_5="154.75796" pt_clust_6="51.48983"></scales>
<clustering>
<clus scale="   51.490">  1  6  2 -1</clus>
<clus scale="  154.758">  2  5  1 -1</clus>
<clus scale="  167.207">  1  3  2 -1</clus>
<clus scale="  154.758">  2  3  1 -1</clus>
</clustering>
</event>
<event>
 6    0  0.6338511E+002  0.1438912E+03  0.7546771E-02  0.1208187E+00
         21   -1    0    0  501  502  0.00000000000E+00  0.00000000000E+00  0.51500342707E+03  0.51500342707E+03  0.00000000000E+00 0.  1.
          1   -1    0    0  503    0 -0.00000000000E+00 -0.00000000000E+00 -0.11240262695E+04  0.11240262695E+04  0.00000000000E+00 0. -1.
         21    1    1    2  503  505  0.57516704723E+02  0.62823993769E+01 -0.16381774967E+03  0.17373512878E+03  0.00000000000E+00 0. -1.
         21    1    1    2  504  502 -0.58160762654E+02  0.15587005296E+02  0.25260510651E+03  0.25968243853E+03  0.00000000000E+00 0.  1.
         21    1    1    2  505  504 -0.50603978913E+02  0.64777873072E+02  0.24449582297E+03  0.25794406946E+03  0.00000000000E+00 0.  1.
          1    1    1    2  501    0  0.51248036845E+02 -0.86647277745E+02 -0.94230602219E+03  0.94766805975E+03  0.00000000000E+00 0. -1.
<scales pt_clust_3="57.85879" pt_clust_4="43.13102" pt_clust_5="43.13102" pt_clust_6="134.77796"></scales>
<clustering>
<clus scale="   43.131">  4  5 -1 -1</clus>
<clus scale="   57.859">  2  3  1 -1</clus>
<clus scale="  134.778">  2  6  1 -1</clus>
<clus scale="  143.891">  1  3  2 -1</clus>
</clustering>
</event>
<event>
 6    0  0.6338511E+002  0.1173562E+03  0.7546771E-02  0.1247523E+00
         21   -1    0    0  503  502  0.00000000000E+00  0.00000000000E+00  0.79949175004E+02  0.79949175004E+02  0.00000000000E+00 0.  1.
          1   -1    0    0  505    0 -0.00000000000E+00 -0.00000000000E+00 -0.20345120188E+04  0.20345120188E+04  0.00000000000E+00 0.  1.
         21    1    1    2  503  504  0.52117110529E+02  0.50968496045E+02 -0.26610584010E+02  0.77602216337E+02  0.00000000000E+00 0.  1.
         21    1    1    2  504  501 -0.14780551623E+03  0.86085336844E+02 -0.14266413409E+03  0.22273349771E+03  0.00000000000E+00 0.  1.
         21    1    1    2  505  502  0.38853444568E+02 -0.36119857459E+02 -0.43814532556E+02  0.68803688279E+02  0.00000000000E+00 0.  1.
          1    1    1    2  501    0  0.56834961132E+02 -0.10093397543E+03 -0.17414735931E+04  0.17453217915E+04  0.00000000000E+00 0.  1.
<scales pt_clust_3="76.51852" pt_clust_4="117.35621" pt_clust_5="53.04936" pt_clust_6="14000.00000"></scales>
<clustering>
<clus scale="   53.049">  1  5  2 -1</clus>
<clus scale="   76.519">  1  3  2 -1</clus>
<clus scale="  117.356">  1  4  2 -1</clus>
<clus scale="   53.049">  1  3  2 -1</clus>
</clustering>
</event>
<event>
 6    0  0.6338511E+002  0.1745606E+03  0.7546771E-02  0.1173174E+00
          2   -1    0    0  504    0 -0.00000000000E+00  0.00000000000E+00  0.49469740814E+03  0.49469740814E+03  0.00000000000E+00 0. -1.
         21   -1    0    0  505  502  0.00000000000E+00 -0.00000000000E+00 -0.28009106821E+03  0.28009106821E+03  0.00000000000E+00 0.  1.
         21    1    1    2  503  501  0.46269993688E+02 -0.12643106281E+03  0.15022758100E+03  0.20172766804E+03  0.00000000000E+00 0. -1.
         21    1    1    2  504  502 -0.12683223109E+03  0.20890408388E+03  0.16151728963E+02  0.24492490574E+03  0.00000000000E+00 0.  1.
         21    1    1    2  505  503  0.61821210130E+02 -0.48809656006E+02 -0.12660569322E+03  0.14910816911E+03  0.00000000000E+00 0.  1.
          2    1    1    2  501    0  0.18741027271E+02 -0.33663365067E+02  0.17483272318E+03  0.17902773345E+03  0.00000000000E+00 0. -1.
<scales pt_clust_3="14000.00000" pt_clust_4="174.56061" pt_clust_5="80.02815" pt_clust_6="38.52854"></scales>
<clustering>
<clus scale="   38.529">  1  6  2 -1</clus>
<clus scale="   80.028">  2  5  1 -1</clus>
<clus scale="  174.561">  2  4  1 -1</clus>
<clus scale="   80.028">  2  3  1 -1</clus>
</clustering>
</event>
<event>
 6    0  0.6338511E+002  0.9965441E+02  0.7546771E-02  0.1281024E+00
         21   -1    0    0  503  502  0.00000000000E+00  0.00000000000E+00  0.13747088607E+03  0.13747088607E+03  0.00000000000E+00 0.  1.
          2   -1    0    0  505    0 -0.00000000000E+00 -0.00000000000E+00 -0.12472170900E+04  0.12472170900E+04  0.00000000000E+00 0.  1.
         21    1    1    2  503  504  0.24763102462E+02  0.55028232505E+02  0.16315182186E+02  0.62510021484E+02  0.00000000000E+00 0.  1.
         21    1    1    2  504  501 -0.11878596608E+03 -0.45268102312E+02  0.37991393294E+02  0.13267498931E+03  0.00000000000E+00 0.  1.
         21    1    1    2  505  502 -0.30561823625E+02  0.83567648198E+02 -0.40745081955E+03  0.41705365031E+03  0.00000000000E+00 0.  1.
          2    1    1    2  501    0  0.12458468724E+03 -0.93327778391E+02 -0.75660195984E+03  0.77244931494E+03  0.00000000000E+00 0.  1.
<scales pt_clust_3="60.34333" pt_clust_4="14000.00000" pt_clust_5="91.11823" pt_clust_6="99.65441"></scales>
<clustering>
<clus scale="   60.343">  1  3  2 -1</clus>
<clus scale="   91.118">  2  5  1 -1</clus>
<clus scale="   99.654">  2  6  1 -1</clus>
<clus scale="   60.343">  1  3  2 -1</clus>
</clustering>
</event>
<event>
 6    0  0.6338511E+002  0.9578111E+02  0.7546771E-02  0.1289426E+00
          1   -1    0    0  503    0 -0.00000000000E+00  0.00000000000E+00  0.19836951450E+04  0.19836951450E+04  0.00000000000E+00 0. -1.
         21   -1    0    0  504  502  0.00000000000E+00 -0.00000000000E+00 -0.28799652881E+02  0.28799652881E+02  0.00000000000E+00 0.  1.
         21    1    1    2  503  505  0.48448055415E+02  0.14740870861E+02  0.37427008258E+02  0.62970535128E+02  0.00000000000E+00 0.  1.
         21    1    1    2  504  501  0.25946027553E+02 -0.77740573215E+02  0.17890103194E+03  0.19678000990E+03  0.00000000000E+00 0.  1.
         21    1    1    2  505  502  0.25276400627E+02  0.40497205980E+02  0.98110405571E+02  0.10910807395E+03  0.00000000000E+00 0. -1.
          1    1    1    2  501    0 -0.99670483594E+02  0.22502496374E+02  0.16404570463E+04  0.16436361789E+04  0.00000000000E+00 0. -1.
<scales pt_clust_3="14000.00000" pt_clust_4="71.69200" pt_clust_5="47.73804" pt_clust_6="95.78111"></scales>
<clustering>
<clus scale="   47.738">  2  5  1 -1</clus>
<clus scale="   71.692">  2  4  1 -1</clus>
<clus scale="   95.781">  1  6  2 -1</clus>
<clus scale="   47.738">  2  3  1 -1</clus>
</clustering>
</event>
<event>
 6    0  0.6338511E+002  0.7385990E+02  0.7546771E-02  0.1347438E+00
         21   -1    0    0  503  502  0.00000000000E+00  0.00000000000E+00  0.22893642617E+03  0.22893642617E+03  0.00000000000E+00 0.  1.
          2   -1    0    0  505    0 -0.00000000000E+00 -0.00000000000E+00 -0.39260475695E+03  0.39260475695E+03  0.00000000000E+00 0. -1.
         21    1    1    2  503  504 -0.31939541704E+02 -0.71551541161E+01  0.15667108374E+03  0.16005361300E+03  0.00000000000E+00 0.  1.
         21    1    1    2  504  501 -0.74754677684E+02  0.33462809197E+02 -0.17089701129E+02  0.83666476678E+02  0.00000000000E+00 0.  1.
         21    1    1    2  505  502  0.80639680226E+02  0.25402640624E+02 -0.17595982826E+02  0.86357806764E+02  0.00000000000E+00 0.  1.
          2    1    1    2  501    0  0.26054539162E+02 -0.51710295705E+02 -0.28565373056E+03  0.29146328667E+03  0.00000000000E+00 0. -1.
<scales pt_clust_3="32.73119" pt_clust_4="14000.00000" pt_clust_5="73.85990" pt_clust_6="57.58961"></scales>
<clustering>
<clus scale="   32.731">  1  3  2 -1</clus>
<clus scale="   57.590">  2  6  1 -1</clus>
<clus scale="   73.860">  1  5  2 -1</clus>
<clus scale="   32.731">  1  3  2 -1</clus>
</clustering>
</event>
<event>
 6    0  0.6338511E+002  0.1988121E+03  0.7546771E-02  0.1150745E+00
          1   -1    0    0  505    0 -0.00000000000E+00  0.00000000000E+00  0.91006311345E+03  0.91006311345E+03  0.00000000000E+00 0. -1.
         21   -1    0    0  504  502  0.00000000000E+00 -0.00000000000E+00 -0.10025420597E+04  0.10025420597E+04  0.00000000000E+00 0.  1.
         21    1    1    2  503  502 -0.80760629587E+02  0.12595623651E+03 -0.12438593695E+03  0.19457418667E+03  0.00000000000E+00 0. -1.
         21    1    1    2  504  501 -0.11662850255E+03 -0.63365493560E+02 -0.81619834412E+03  0.82692026842E+03  0.00000000000E+00 0.  1.
         21    1    1    2  505  503  0.19918960225E+03 -0.10848716463E+03  0.67921018630E+03  0.71608130803E+03  0.00000000000E+00 0. -1.
          1    1    1    2  501    0 -0.18004701126E+01  0.45896421679E+02  0.16889514847E+03  0.17502941008E+03  0.00000000000E+00 0. -1.
<scales pt_clust_3="198.81212" pt_clust_4="132.58321" pt_clust_5="14000.00000" pt_clust_6="45.93172"></scales>
<clustering>
<clus scale="   45.932">  1  6  2 -1</clus>
<clus scale="  132.583">  2  4  1 -1</clus>
<clus scale="  198.812">  2  3  1 -1</clus>
<clus scale="  132.583">  2  3  1 -1</clus>
</clustering>
</event>
<event>
 6    0  0.6338511E+002  0.1846652E+03  0.7546771E-02  0.1163363E+00
         21   -1    0    0  505  502  0.00000000000E+00  0.00000000000E+00  0.11999979967E+03  0.11999979967E+03  0.00000000000E+00 0.  1.
         -1   -1    0    0    0  501 -0.00000000000E+00 -0.00000000000E+00 -0.17767838861E+04  0.17767838861E+04  0.00000000000E+00 0. -1.
         21    1    1    2  503  504 -0.33430435476E+02  0.68660758216E+02 -0.22380753634E+02  0.79578840580E+02  0.00000000000E+00 0.  1.
         21    1    1    2  504  502  0.15129956839E+02  0.72442704274E+02 -0.41370073873E+02  0.84784102335E+02  0.00000000000E+00 0.  1.
         21    1    1    2  505  501  0.12201103601E+03 -0.24230496657E+03 -0.21330742052E+03  0.34510642617E+03  0.00000000000E+00 0.  1.
         -1    1    1    2    0  503 -0.10371055737E+03  0.10120150408E+03 -0.13797258384E+04  0.13873143167E+04  0.00000000000E+00 0. -1.
<scales pt_clust_3="51.20797" pt_clust_4="51.20797" pt_clust_5="177.18723" pt_clust_6="144.90557"></scales>
<clustering>
<clus scale="   51.208">  3  4 -1 -1</clus>
<clus scale="  144.906">  2  6  1 -1</clus>
<clus scale="  177.187">  2  5  1 -1</clus>
<clus scale="  184.665">  1  3  2 -1</clus>
</clustering>
</event>
<event>
 6    0  0.6338511E+002  0.9827083E+02  0.7546771E-02  0.1283975E+00
          1   -1    0    0  505    0 -0.00000000000E+00  0.00000000000E+00  0.13540119977E+04  0.13540119977E+04  0.00000000000E+00 0. -1.
         21   -1    0    0  504  502  0.00000000000E+00 -0.00000000000E+00 -0.28804854924E+03  0.28804854924E+03  0.00000000000E+00 0.  1.
         21    1    1    2  503  502  0.20214885372E+02 -0.56461698962E+02  0.65917041776E+02  0.89115775465E+02  0.00000000000E+00 0. -1.
         21    1    1    2  504  501 -0.78612482992E+02  0.59231435245E+02 -0.26159434097E+03  0.27949934638E+03  0.00000000000E+00 0.  1.
         21    1    1    2  505  503 -0.38216462846E+02  0.18581179645E+02  0.80905190959E+03  0.81016711282E+03  0.00000000000E+00 0. -1.
          1    1    1    2  501    0  0.96614060466E+02 -0.21350915929E+02  0.45258883804E+03  0.46327831226E+03  0.00000000000E+00 0. -1.
<scales pt_clust_3="55.80689" pt_clust_4="98.27083" pt_clust_5="42.49421" pt_clust_6="14000.00000"></scales>
<clustering>
<clus scale="   42.494">  1  5  2 -1</clus>
<clus scale="   55.807">  1  3  2 -1</clus>
<clus scale="   98.271">  2  4  1 -1</clus>
<clus scale="   98.271">  2  3  1 -1</clus>
</clustering>
</event>
<event>
 6    0  0.6338511E+002  0.1961131E+03  0.7546771E-02  0.1153060E+00
          2   -1    0    0  504    0 -0.00000000000E+00  0.00000000000E+00  0.19383571176E+04  0.19383571176E+04  0.00000000000E+00 0. -1.
         21   -1    0    0  503  502  0.00000000000E+00 -0.00000000000E+00 -0.61645120411E+02  0.61645120411E+02  0.00000000000E+00 0. -1.
         21    1    1    2  503  501 -0.10388784377E+03  0.17673294929E+03  0.27088068815E+03  0.33971100462E+03  0.00000000000E+00 0. -1.
         21    1    1    2  504  505  0.79897948152E+02  0.39494762962E+02  0.13720958816E+03  0.16361537062E+03  0.00000000000E+00 0. -1.
         21    1    1    2  505  502  0.38677424894E+02 -0.16220194521E+02  0.56396944940E+02  0.70282667175E+02  0.00000000000E+00 0.  1.
          2    1    1    2  501    0 -0.14687529272E+02 -0.20000751773E+03  0.14122247759E+04  0.14263931956E+04  0.00000000000E+00 0. -1.
<scales pt_clust_3="14000.00000" pt_clust_4="131.24329" pt_clust_5="35.13281" pt_clust_6="196.11306"></scales>
<clustering>
<clus scale="   35.133">  4  5 -1 -1</clus>
<clus scale="  131.243">  2  4  1 -1</clus>
<clus scale="  196.113">  1  6  2 -1</clus>
<clus scale="  131.243">  2  3  1 -1</clus>
</clustering>
</event>
<event>
 6    0  0.6338511E+002  0.7723754E+02  0.7546771E-02  0.1337079E+00
          2   -1    0    0  504    0 -0.00000000000E+00  0.00000000000E+00  0.24595006218E+04  0.24595006218E+04  0.00000000000E+00 0.  1.
         21   -1    0    0  505  502  0.00000000000E+00 -0.00000000000E+00 -0.55213181853E+03  0.55213181853E+03  0.00000000000E+00 0.  1.
         21    1    1    2  503  502  0.35279083264E+02  0.26994484554E+02 -0.72213572049E+01  0.45005154284E+02  0.00000000000E+00 0. -1.
         21    1    1    2  504  503 -0.20147029102E+02 -0.66807823094E+02  0.43287335200E+03  0.43846154550E+03  0.00000000000E+00 0. -1.
         21    1    1    2  505  501 -0.10901065306E+03 -0.47020568785E+01 -0.51617139507E+03  0.52757780555E+03  0.00000000000E+00 0.  1.
          2    1    1    2  501    0  0.93878598902E+02  0.44515395419E+02  0.19978882035E+04  0.20005879350E+04  0.00000000000E+00 0.  1.
<scales pt_clust_3="44.42202" pt_clust_4="69.58832" pt_clust_5="14000.00000" pt_clust_6="77.23754"></scales>
<clustering>
<clus scale="   44.422">  2  3  1 -1</clus>
<clus scale="   69.588">  1  4  2 -1</clus>
<clus scale="   77.238">  1  6  2 -1</clus>
<clus scale="   44.422">  2  3  1 -1</clus>
</clustering>
</event>
<event>
 6    0  0.6338511E+002  0.1725967E+03  0.7546771E-02  0.1175167E+00
         21   -1    0    0  503  502  0.00000000000E+00  0.00000000000E+00  0.17869230929E+04  0.17869230929E+04  0.00000000000E+00 0.  1.
          2   -1    0    0  505    0 -0.00000000000E+00 -0.00000000000E+00 -0.12318283658E+04  0.12318283658E+04  0.00000000000E+00 0. -1.
         21    1    1    2  503  504  0.39779378841E+02 -0.15940616346E+02  0.11027193600E+04  0.11035517610E+04  0.00000000000E+00 0.  1.
         21    1    1    2  504  501  0.90063654347E+02 -0.18652674501E+03  0.15709168259E+03  0.25996439213E+03  0.00000000000E+00 0.  1.
         21    1    1    2  505  502 -0.42073965912E+01  0.85050155843E+02  0.46510823008E+03  0.47283918712E+03  0.00000000000E+00 0. -1.
          2    1    1    2  501    0 -0.12563563660E+03  0.11741720552E+03 -0.11698245456E+04  0.11823961184E+04  0.00000000000E+00 0. -1.
<scales pt_clust_3="42.85443" pt_clust_4="14000.00000" pt_clust_5="77.62630" pt_clust_6="172.59674"></scales>
<clustering>
<clus scale="   42.854">  1  3  2 -1</clus>
<clus scale="   77.626">  1  5  2 -1</clus>
<clus scale="  172.597">  2  6  1 -1</clus>
<clus scale="   42.854">  1  3  2 -1</clus>
</clustering>
</event>
<event>
 6    0  0.6338511E+002  0.2879904E+03  0.7546771E-02  0.1091403E+00
          2   -1    0    0  504    0 -0.00000000000E+00  0.00000000000E+00  0.20717949593E+04  0.20717949593E+04  0.00000000000E+00 0. -1.
         21   -1    0    0  501  502  0.00000000000E+00 -0.00000000000E+00 -0.10540612811E+04  0.10540612811E+04  0.00000000000E+00 0.  1.
         21    1    1    2  503  502  0.38119443646E+02  0.34797585085E+02 -0.74921556732E+03  0.75099129837E+03  0.00000000000E+00 0.  1.
         21    1    1    2  504  505  0.37605286997E+02 -0.14132750188E+02  0.18084884811E+02  0.44056274203E+02  0.00000000000E+00 0.  1.
         21    1    1    2  505  503  0.16609661663E+03  0.17327236728E+03 -0.22724613497E+03  0.33053321343E+03  0.00000000000E+00 0.  1.
          2    1    1    2  501    0 -0.24182134728E+03 -0.19393720218E+03  0.19761104956E+04  0.20002754544E+04  0.00000000000E+00 0. -1.
<scales pt_clust_3="51.62154" pt_clust_4="40.17328" pt_clust_5="287.99042" pt_clust_6="14000.00000"></scales>
<clustering>
<clus scale="   40.173">  1  4  2 -1</clus>
<clus scale="   51.622">  2  3  1 -1</clus>
<clus scale="  287.990">  2  5  1 -1</clus>
<clus scale="   51.622">  2  3  1 -1</clus>
</clustering>
</event>
<event>
 6    0  0.6338511E+002  0.1352601E+03  0.7546771E-02  0.1219853E+00
         21   -1    0    0  503  502  0.00000000000E+00  0.00000000000E+00  0.95538575231E+03  0.95538575231E+03  0.00000000000E+00 0. -1.
          2   -1    0    0  504    0 -0.00000000000E+00 -0.00000000000E+00 -0.20407578632E+03  0.20407578632E+03  0.00000000000E+00 0.  1.
         21    1    1    2  503  505  0.31736274834E+02 -0.23064500842E+02  0.69384636352E+03  0.69495463054E+03  0.00000000000E+00 0. -1.
         21    1    1    2  504  502  0.48296291524E+02 -0.13016632251E+01 -0.23926125857E+02  0.53913686580E+02  0.00000000000E+00 0.  1.
         21    1    1    2  505  501 -0.95762414244E+02 -0.10058443275E+03  0.19606474597E+03  0.24026870938E+03  0.00000000000E+00 0. -1.
          2    1    1    2  501    0  0.15729847886E+02  0.12495059681E+03 -0.11467501765E+03  0.17032451213E+03  0.00000000000E+00 0.  1.
<scales pt_clust_3="39.23216" pt_clust_4="50.18835" pt_clust_5="135.26009" pt_clust_6="14000.00000"></scales>
<clustering>
<clus scale="   39.232">  1  3  2 -1</clus>
<clus scale="   50.188">  2  4  1 -1</clus>
<clus scale="  135.260">  1  5  2 -1</clus>
<clus scale="   39.232">  1  3  2 -1</clus>
</clustering>
</event>
<event>
 6    0  0.6338511E+002  0.1495640E+03  0.7546771E-02  0.1201010E+00
         -2   -1    0    0    0  501 -0.00000000000E+00  0.00000000000E+00  0.16033042294E+04  0.16033042294E+04  0.00000000000E+00 0. -1.
         21   -1    0    0  504  502  0.00000000000E+00 -0.00000000000E+00 -0.42118617073E+02  0.42118617073E+02  0.00000000000E+00 0. -1.
         21    1    1    2  503  505 -0.14397711439E+03  0.10190089190E+03  0.40325565638E+03  0.44014580043E+03  0.00000000000E+00 0. -1.
         21    1    1    2  504  501  0.16401397241E+02  0.31749723055E+02  0.45223337451E+02  0.57638537419E+02  0.00000000000E+00 0.  1.
         21    1    1    2  505  502  0.20858201360E+02 -0.38499825083E+02  0.24690895957E+02  0.50268692429E+02  0.00000000000E+00 0.  1.
         -2    1    1    2    0  503  0.10671751579E+03 -0.95150789876E+02  0.10880157225E+04  0.10973698162E+04  0.00000000000E+00 0. -1.
<scales pt_clust_3="149.56404" pt_clust_4="35.73585" pt_clust_5="38.10904" pt_clust_6="14000.00000"></scales>
<clustering>
<clus scale="   35.736">  2  4  1 -1</clus>
<clus scale="   38.109">  2  5  1 -1</clus>
<clus scale="  149.564">  2  3  1 -1</clus>
<clus scale="   35.736">  2  3  1 -1</clus>
</clustering>
</event>
<event>
 6    0  0.6338511E+002  0.8120755E+02  0.7546771E-02  0.1325659E+00
         -1   -1    0    0    0  501 -0.00000000000E+00  0.00000000000E+00  0.41339852171E+03  0.41339852171E+03  0.00000000000E+00 0. -1.
         21   -1    0    0  504  502  0.00000000000E+00 -0.00000000000E+00 -0.88908515915E+02  0.88908515915E+02  0.00000000000E+00 0. -1.
         21    1    1    2  503  501 -0.57721182910E+02  0.15160885277E+02  0.86551941405E+02  0.10513242107E+03  0.00000000000E+00 0. -1.
         21    1    1    2  504  503  0.68596437848E+02 -0.94548941142E+02  0.16947703919E+01  0.11682399498E+03  0.00000000000E+00 0. -1.
         21    1    1    2  505  502  0.39146027794E+01  0.41118625580E+02  0.75131808507E+00  0.41311378134E+02  0.00000000000E+00 0. -1.
         -1    1    1    2    0  505 -0.14789857717E+02  0.38269430286E+02  0.23549197592E+03  0.23903924344E+03  0.00000000000E+00 0. -1.
<scales pt_clust_3="14000.00000" pt_clust_4="81.20755" pt_clust_5="45.73872" pt_clust_6="41.02791"></scales>
<clustering>
<clus scale="   41.028">  1  6  2 -1</clus>
<clus scale="   45.739">  2  5  1 -1</clus>
<clus scale="   81.208">  2  4  1 -1</clus>
<clus scale="   45.739">  2  3  1 -1</clus>
</clustering>
</event>
<event>
 6    0  0.6338511E+002  0.1219254E+03  0.7546771E-02  0.1239954E+00
         -4   -1    0    0    0  501 -0.00000000000E+00  0.00000000000E+00  0.51545788767E+03  0.51545788767E+03  0.00000000000E+00 0.  1.
         21   -1    0    0  504  502  0.00000000000E+00 -0.00000000000E+00 -0.82208996479E+03  0.82208996479E+03  0.00000000000E+00 0.  1.
         21    1    1    2  503  502  0.33778350682E+02  0.97425803679E+01 -0.14754600056E+03  0.15167635652E+03  0.00000000000E+00 0.  1.
         21    1    1    2  504  501 -0.10256792256E+03 -0.87590776518E+02 -0.58730322118E+03  0.60259223068E+03  0.00000000000E+00 0.  1.
         21    1    1    2  505  503 -0.44742095396E+02  0.33584382692E+02 -0.58851548170E+02  0.81198956787E+02  0.00000000000E+00 0. -1.
         -4    1    1    2    0  505  0.11353166728E+03  0.44263813457E+02  0.48706869279E+03  0.50208030846E+03  0.00000000000E+00 0.  1.
<scales pt_clust_3="35.15530" pt_clust_4="121.92541" pt_clust_5="53.81972" pt_clust_6="14000.00000"></scales>
<clustering>
<clus scale="   35.155">  2  3  1 -1</clus>
<clus scale="   53.820">  2  5  1 -1</clus>
<clus scale="  121.925">  2  4  1 -1</clus>
<clus scale="   35.155">  2  3  1 -1</clus>
</clustering>
</event>
<event>
 6    0  0.6338511E+002  0.6669298E+02  0.7546771E-02  0.1371714E+00
         21   -1    0    0  504  502  0.00000000000E+00  0.00000000000E+00  0.31932342988E+03  0.31932342988E+03  0.00000000000E+00 0.  1.
          2   -1    0    0  503    0 -0.00000000000E+00 -0.00000000000E+00 -0.50704072143E+03  0.50704072143E+03  0.00000000000E+00 0. -1.
         21    1    1    2  503  505  0.68822815705E+02 -0.46439501159E+02  0.15889022701E+03  0.17927440271E+03  0.00000000000E+00 0.  1.
         21    1    1    2  504  501 -0.66353421695E+02 -0.56736226588E+02 -0.59657942030E+02  0.10573951969E+03  0.00000000000E+00 0.  1.
         21    1    1    2  505  502 -0.71065652728E+01  0.63177594676E+02  0.11819549693E+03  0.13420911755E+03  0.00000000000E+00 0.  1.
          2    1    1    2  501    0  0.46371712622E+01  0.39998133070E+02 -0.40514507346E+03  0.40714111135E+03  0.00000000000E+00 0. -1.
<scales pt_clust_3="14000.00000" pt_clust_4="65.58187" pt_clust_5="66.69298" pt_clust_6="40.26604"></scales>
<clustering>
<clus scale="   40.266">  2  6  1 -1</clus>
<clus scale="   66.693">  1  5  2 -1</clus>
<clus scale="   65.582">  2  4  1 -1</clus>
<clus scale="   66.693">  1  3  2 -1</clus>
</clustering>
</event>
<event>
 6    0  0.6338511E+002  0.1736699E+03  0.7546771E-02  0.1174074E+00
          2   -1    0    0  505    0 -0.00000000000E+00  0.00000000000E+00  0.33114246325E+04  0.33114246325E+04  0.00000000000E+00 0. -1.
         21   -1    0    0  504  502  0.00000000000E+00 -0.00000000000E+00 -0.27006472296E+02  0.27006472296E+02  0.00000000000E+00 0. -1.
         21    1    1    2  503  502  0.12627840127E+02 -0.18267330477E+03  0.13107774701E+04  0.13235054117E+04  0.00000000000E+00 0. -1.
         21    1    1    2  504  501 -0.54366559498E+02  0.16280393813E+03  0.49127475057E+03  0.52039573942E+03  0.00000000000E+00 0. -1.
         21    1    1    2  505  503  0.84930743450E+02  0.42576318547E+02  0.40243670591E+03  0.41349882267E+03  0.00000000000E+00 0. -1.
          2    1    1    2  501    0 -0.43192024079E+02 -0.22706951910E+02  0.10799292336E+04  0.10810311310E+04  0.00000000000E+00 0. -1.
<scales pt_clust_3="14000.00000" pt_clust_4="173.66995" pt_clust_5="86.08355" pt_clust_6="48.79710"></scales>
<clustering>
<clus scale="   48.797">  1  6  2 -1</clus>
<clus scale="   86.084">  1  5  2 -1</clus>
<clus scale="  173.670">  2  4  1 -1</clus>
<clus scale="  173.670">  2  3  1 -1</clus>
</clustering>
</event>
<event>
 6    0  0.6338511E+002  0.7165638E+02  0.7546771E-02  0.1354549E+00
          1   -1    0    0  503    0 -0.00000000000E+00  0.00000000000E+00  0.80296820381E+03  0.80296820381E+03  0.00000000000E+00 0.  1.
         21   -1    0    0  505  502  0.00000000000E+00 -0.00000000000E+00 -0.17401989194E+03  0.17401989194E+03  0.00000000000E+00 0.  1.
         21    1    1    2  503  504  0.73682317474E+02 -0.53083138300E+02 -0.36564890705E+02  0.97897368261E+02  0.00000000000E+00 0.  1.
         21    1    1    2  504  502  0.18875046357E+02  0.84409016969E+02 -0.73048421948E+02  0.11321316827E+03  0.00000000000E+00 0.  1.
         21    1    1    2  505  501 -0.27987317453E+02 -0.28880766788E+02  0.20919454681E+02  0.45332242528E+02  0.00000000000E+00 0. -1.
          1    1    1    2  501    0 -0.64570046378E+02 -0.24451118812E+01  0.71764216985E+03  0.72054531669E+03  0.00000000000E+00 0.  1.
<scales pt_clust_3="71.65638" pt_clust_4="14000.00000" pt_clust_5="40.21677" pt_clust_6="64.87749"></scales>
<clustering>
<clus scale="   40.217">  2  5  1 -1</clus>
<clus scale="   64.877">  1  6  2 -1</clus>
<clus scale="   71.656">  1  3  2 -1</clus>
<clus scale="   40.217">  2  3  1 -1</clus>
</clustering>
</event>
<event>
 6    0  0.6338511E+002  0.1050642E+03  0.7546771E-02  0.1269993E+00
          1   -1    0    0  504    0 -0.00000000000E+00  0.00000000000E+00  0.81541089792E+03  0.81541089792E+03  0.00000000000E+00 0. -1.
         21   -1    0    0  501  502  0.00000000000E+00 -0.00000000000E+00 -0.26459096651E+03  0.26459096651E+03  0.00000000000E+00 0. -1.
         21    1    1    2  503  505 -0.73598429636E+02  0.31047985653E+02 -0.35005156580E+02  0.87212769966E+02  0.00000000000E+00 0. -1.
         21    1    1    2  504  503  0.12195238556E+03  0.59204052547E+02  0.15167533177E+03  0.20342789988E+03  0.00000000000E+00 0. -1.
         21    1    1    2  505  502 -0.43813919223E+02 -0.38311155264E+01 -0.17176050279E+03  0.17730202278E+03  0.00000000000E+00 0. -1.
          1    1    1    2  501    0 -0.45400367017E+01 -0.86420922674E+02  0.60591025901E+03  0.61205917180E+03  0.00000000000E+00 0. -1.
<scales pt_clust_3="14000.00000" pt_clust_4="105.06415" pt_clust_5="43.98110" pt_clust_6="86.76191"></scales>
<clustering>
<clus scale="   43.981">  2  5  1 -1</clus>
<clus scale="   86.762">  1  6  2 -1</clus>
<clus scale="  105.064">  1  4  2 -1</clus>
<clus scale="   43.981">  2  3  1 -1</clus>
</clustering>
</event>
<event>
 6    0  0.6338511E+002  0.2145201E+03  0.7546771E-02  0.1138036E+00
          2   -1    0    0  504    0 -0.00000000000E+00  0.00000000000E+00  0.23212065479E+04  0.23212065479E+04  0.00000000000E+00 0. -1.
         21   -1    0    0  501  502  0.00000000000E+00 -0.00000000000E+00 -0.29969399868E+03  0.29969399868E+03  0.00000000000E+00 0.  1.
         21    1    1    2  503  505 -0.43942205838E+02  0.12495831002E+03 -0.21422570697E+03  0.25186931179E+03  0.00000000000E+00 0.  1.
         21    1    1    2  504  503 -0.10418230652E+03 -0.10749000281E+03  0.30769970247E+03  0.34218001197E+03  0.00000000000E+00 0.  1.
         21    1    1    2  505  502  0.13738331148E+02  0.10034447643E+03  0.11424450172E+02  0.10192288140E+03  0.00000000000E+00 0.  1.
          2    1    1    2  501    0  0.13438618121E+03 -0.11781278363E+03  0.19166141036E+04  0.19249283414E+04  0.00000000000E+00 0. -1.
<scales pt_clust_3="214.52013" pt_clust_4="144.22050" pt_clust_5="101.28058" pt_clust_6="14000.00000"></scales>
<clustering>
<clus scale="  101.281">  2  5  1 -1</clus>
<clus scale="  144.221">  1  4  2 -1</clus>
<clus scale="  214.520">  2  3  1 -1</clus>
<clus scale="  101.281">  2  3  1 -1</clus>
</clustering>
</event>
<event>
 6    0  0.6338511E+002  0.2319774E+03  0.7546771E-02  0.1125256E+00
         21   -1    0    0  504  502  0.00000000000E+00  0.00000000000E+00  0.47572045224E+03  0.47572045224E+03  0.00000000000E+00 0. -1.
          2   -1    0    0  505    0 -0.00000000000E+00 -0.00000000000E+00 -0.17189015934E+04  0.17189015934E+04  0.00000000000E+00 0. -1.
         21    1    1    2  503  501 -0.17285589989E+03  0.24758800031E+03  0.23902839512E+03  0.38511498763E+03  0.00000000000E+00 0. -1.
         21    1    1    2  504  503  0.40037693337E+02 -0.55417652682E+02  0.10766796149E+03  0.12754028010E+03  0.00000000000E+00 0.  1.
         21    1    1    2  505  502  0.19305714585E+03 -0.73479629513E+02 -0.20609263393E+03  0.29179529002E+03  0.00000000000E+00 0. -1.
          2    1    1    2  501    0 -0.60238939297E+02 -0.11869071812E+03 -0.13837848638E+04  0.13901714879E+04  0.00000000000E+00 0. -1.
<scales pt_clust_3="14000.00000" pt_clust_4="68.36763" pt_clust_5="231.97735" pt_clust_6="133.38246"></scales>
<clustering>
<clus scale="   68.368">  1  4  2 -1</clus>
<clus scale="  133.382">  2  6  1 -1</clus>
<clus scale="  231.977">  2  5  1 -1</clus>
<clus scale="   68.368">  1  3  2 -1</clus>
</clustering>
</event>
<event>
 6    0  0.6338511E+002  0.9917910E+02  0.7546771E-02  0.1282032E+00
         21   -1    0    0  503  502  0.00000000000E+00  0.00000000000E+00  0.16558246915E+04  0.16558246915E+04  0.00000000000E+00 0.  1.
          2   -1    0    0  504    0 -0.00000000000E+00 -0.00000000000E+00 -0.36387626525E+03  0.36387626525E+03  0.00000000000E+00 0.  1.
         21    1    1    2  503  501 -0.10094794748E+02  0.97988495198E+02  0.15840730425E+04  0.15871329667E+04  0.00000000000E+00 0.  1.
         21    1    1    2  504  505  0.72679735253E+02  0.12064711065E+02 -0.13481823980E+03  0.15363547426E+03  0.00000000000E+00 0.  1.
         21    1    1    2  505  502 -0.36447796935E+02 -0.15587784674E+03 -0.65327813520E+02  0.17289901164E+03  0.00000000000E+00 0.  1.
          2    1    1    2  501    0 -0.26137143571E+02  0.45824640478E+02 -0.91978562959E+02  0.10603350411E+03  0.00000000000E+00 0.  1.
<scales pt_clust_3="14000.00000" pt_clust_4="69.18369" pt_clust_5="99.17910" pt_clust_6="52.75460"></scales>
<clustering>
<clus scale="   52.755">  2  6  1 -1</clus>
<clus scale="   69.184">  2  4  1 -1</clus>
<clus scale="   99.179">  2  5  1 -1</clus>
<clus scale="   99.179">  1  3  2 -1</clus>
</clustering>
</event>
<event>
 6    0  0.6338511E+002  0.1203143E+03  0.7546771E-02  0.1242579E+00
          1   -1    0    0  503    0 -0.00000000000E+00  0.00000000000E+00  0.24594309626E+04  0.24594309626E+04  0.00000000000E+00 0.  1.
         21   -1    0    0  504  502  0.00000000000E+00 -0.00000000000E+00 -0.11126737704E+04  0.11126737704E+04  0.00000000000E+00 0.  1.
         21    1    1    2  503  505 -0.87314472125E+02  0.88078470023E+02 -0.36003291339E+02  0.12914283144E+03  0.00000000000E+00 0.  1.
         21    1    1    2  504  501  0.43599761316E+02 -0.68634439515E+02 -0.70312144426E+03  0.70780745324E+03  0.00000000000E+00 0.  1.
         21    1    1    2  505  502  0.72505303136E+02  0.14403367863E+02 -0.32022030399E+03  0.32864193141E+03  0.00000000000E+00 0. -1.
          1    1    1    2  501    0 -0.28790592327E+02 -0.33847398370E+02  0.24061022318E+04  0.24065125170E+04  0.00000000000E+00 0.  1.
<scales pt_clust_3="120.31429" pt_clust_4="14000.00000" pt_clust_5="71.19460" pt_clust_6="44.43585"></scales>
<clustering>
<clus scale="   44.436">  1  6  2 -1</clus>
<clus scale="   71.195">  2  5  1 -1</clus>
<clus scale="  120.314">  1  3  2 -1</clus>
<clus scale="   71.195">  2  3  1 -1</clus>
</clustering>
</event>
<event>
 6    0  0.6338511E+002  0.9205968E+02  0.7546771E-02  0.1297939E+00
          1   -1    0    0  503    0 -0.00000000000E+00  0.00000000000E+00  0.11272074344E+04  0.11272074344E+04  0.00000000000E+00 0. -1.
         21   -1    0    0  505  502  0.00000000000E+00 -0.00000000000E+00 -0.17933312957E+03  0.17933312957E+03  0.00000000000E+00 0. -1.
         21    1    1    2  503  502 -0.62744207717E+02 -0.17127948176E+02  0.20500497468E+03  0.21507496799E+03  0.00000000000E+00 0. -1.
         21    1    1    2  504  501 -0.62453304852E+02  0.55620383370E+02  0.28060266757E+03  0.29280010140E+03  0.00000000000E+00 0. -1.
         21    1    1    2  505  504  0.23905236857E+02 -0.18778771337E+02 -0.16255841302E+03  0.16537635939E+03  0.00000000000E+00 0. -1.
          1    1    1    2  501    0  0.10129227571E+03 -0.19713663856E+02  0.62482507557E+03  0.63328913517E+03  0.00000000000E+00 0. -1.
<scales pt_clust_3="59.64260" pt_clust_4="14000.00000" pt_clust_5="30.39906" pt_clust_6="92.05968"></scales>
<clustering>
<clus scale="   30.399">  2  5  1 -1</clus>
<clus scale="   59.643">  2  3  1 -1</clus>
<clus scale="   92.060">  1  6  2 -1</clus>
<clus scale="   30.399">  2  3  1 -1</clus>
</clustering>
</event>
<event>
 6    0  0.6338511E+002  0.8202153E+02  0.7546771E-02  0.1323411E+00
         21   -1    0    0  505  502  0.00000000000E+00  0.00000000000E+00  0.11488261109E+04  0.11488261109E+04  0.00000000000E+00 0.  1.
          2   -1    0    0  503    0 -0.00000000000E+00 -0.00000000000E+00 -0.18603463307E+04  0.18603463307E+04  0.00000000000E+00 0.  1.
         21    1    1    2  503  504  0.11098318293E+01 -0.10122842217E+03 -0.10571357223E+03  0.14636865968E+03  0.00000000000E+00 0.  1.
         21    1    1    2  504  502  0.47352940833E+02 -0.56269806141E+01  0.11211635928E+04  0.11221772435E+04  0.00000000000E+00 0.  1.
         21    1    1    2  505  501 -0.24331201931E+02  0.56759157897E+02 -0.14403965818E+03  0.15671959839E+03  0.00000000000E+00 0.  1.
          2    1    1    2  501    0 -0.24131570731E+02  0.50096244890E+02 -0.15829305823E+04  0.15839069401E+04  0.00000000000E+00 0.  1.
<scales pt_clust_3="14000.00000" pt_clust_4="47.68610" pt_clust_5="82.02153" pt_clust_6="55.14963"></scales>
<clustering>
<clus scale="   47.686">  1  4  2 -1</clus>
<clus scale="   55.150">  2  6  1 -1</clus>
<clus scale="   82.022">  1  5  2 -1</clus>
<clus scale="   47.686">  1  3  2 -1</clus>
</clustering>
</event>
<event>
 6    0  0.6338511E+002  0.9712125E+02  0.7546771E-02  0.1286469E+00
         21   -1    0    0  503  502  0.00000000000E+00  0.00000000000E+00  0.10028492870E+04  0.10028492870E+04  0.00000000000E+00 0.  1.
          1   -1    0    0  505    0 -0.00000000000E+00 -0.00000000000E+00 -0.30051266472E+03  0.30051266472E+03  0.00000000000E+00 0. -1.
         21    1    1    2  503  504  0.26212247739E+02  0.16709208411E+02  0.89060802004E+03  0.89115033801E+03  0.00000000000E+00 0.  1.
         21    1    1    2  504  501 -0.25838551711E+02 -0.90219298751E+02  0.34808364684E+00  0.93847076587E+02  0.00000000000E+00 0. -1.
         21    1    1    2  505  502 -0.16671705936E+02  0.10597493942E+03  0.17824420560E+02  0.10874899324E+03  0.00000000000E+00 0. -1.
          1    1    1    2  501    0  0.16298009908E+02 -0.32464849076E+02 -0.20644390200E+03  0.20961554385E+03  0.00000000000E+00 0. -1.
<scales pt_clust_3="31.08504" pt_clust_4="14000.00000" pt_clust_5="97.12125" pt_clust_6="36.28389"></scales>
<clustering>
<clus scale="   31.085">  1  3  2 -1</clus>
<clus scale="   36.284">  2  6  1 -1</clus>
<clus scale="   97.121">  2  5  1 -1</clus>
<clus scale="   31.085">  1  3  2 -1</clus>
</clustering>
</event>
<event>
 6    0  0.6338511E+002  0.6860456E+02  0.7546771E-02  0.1364904E+00
          2   -1    0    0  505    0 -0.00000000000E+00  0.00000000000E+00  0.15098156344E+04  0.15098156344E+04  0.00000000000E+00 0. -1.
         21   -1    0    0  501  502  0.00000000000E+00 -0.00000000000E+00 -0.32290521455E+02  0.32290521455E+02  0.00000000000E+00 0. -1.
         21    1    1    2  503  504 -0.77887925257E+02 -0.30139564868E+02  0.17266212565E+03  0.19179971821E+03  0.00000000000E+00 0.  1.
         21    1    1    2  504  502  0.32296244671E+02  0.31180551123E+02  0.83210583678E+01  0.45656480379E+02  0.00000000000E+00 0. -1.
         21    1    1    2  505  503  0.28784170293E+02 -0.68577842779E+02  0.75494628062E+03  0.75860090667E+03  0.00000000000E+00 0. -1.
          2    1    1    2  501    0  0.16807510293E+02  0.67536856524E+02  0.54159564828E+03  0.54604905057E+03  0.00000000000E+00 0. -1.
<scales pt_clust_3="55.81403" pt_clust_4="44.89181" pt_clust_5="68.60456" pt_clust_6="14000.00000"></scales>
<clustering>
<clus scale="   44.892">  2  4  1 -1</clus>
<clus scale="   55.814">  2  3  1 -1</clus>
<clus scale="   68.605">  1  5  2 -1</clus>
<clus scale="   44.892">  2  3  1 -1</clus>
</clustering>
</event>
<event>
 6    0  0.6338511E+002  0.1141118E+03  0.7546771E-02  0.1253139E+00
          3   -1    0    0  503    0 -0.00000000000E+00  0.00000000000E+00  0.28677343784E+04  0.28677343784E+04  0.00000000000E+00 0.  1.
         21   -1    0    0  504  502  0.00000000000E+00 -0.00000000000E+00 -0.60021274972E+03  0.60021274972E+03  0.00000000000E+00 0.  1.
         21    1    1    2  503  502 -0.28718658707E+02  0.16967094571E+02  0.21792727304E+02  0.39844279633E+02  0.00000000000E+00 0.  1.
         21    1    1    2  504  505  0.23559365128E+02  0.10201354068E+03 -0.57454719161E+03  0.58400880263E+03  0.00000000000E+00 0.  1.
         21    1    1    2  505  501  0.68982575760E+02 -0.78945617632E+02  0.23049392598E+03  0.25321622423E+03  0.00000000000E+00 0.  1.
          3    1    1    2  501    0 -0.63823282182E+02 -0.40035017623E+02  0.25897821670E+04  0.25908778217E+04  0.00000000000E+00 0.  1.
<scales pt_clust_3="33.35631" pt_clust_4="14000.00000" pt_clust_5="114.11182" pt_clust_6="75.35485"></scales>
<clustering>
<clus scale="   33.356">  2  3  1 -1</clus>
<clus scale="   75.355">  1  6  2 -1</clus>
<clus scale="  114.112">  1  5  2 -1</clus>
<clus scale="   33.356">  2  3  1 -1</clus>
</clustering>
</event>
<event>
 6    0  0.6338511E+002  0.1247203E+03  0.7546771E-02  0.1235507E+00
         -2   -1    0    0    0  501 -0.00000000000E+00  0.00000000000E+00  0.77211054488E+03  0.77211054488E+03  0.00000000000E+00 0. -1.
         21   -1    0    0  501  502  0.00000000000E+00 -0.00000000000E+00 -0.89076416419E+02  0.89076416419E+02  0.00000000000E+00 0. -1.
         21    1    1    2  503  502 -0.34735935644E+02 -0.23799909369E+02 -0.28655362603E+02  0.50932805901E+02  0.00000000000E+00 0. -1.
         21    1    1    2  504  505 -0.17563475256E+02 -0.47323431164E+02  0.15840274035E+02  0.52904603596E+02  0.00000000000E+00 0. -1.
         21    1    1    2  505  503  0.30163090291E+02 -0.44031026525E+02  0.17350257394E+01  0.53399940328E+02  0.00000000000E+00 0. -1.
         -2    1    1    2    0  504  0.22136320609E+02  0.11515436706E+03  0.69411419129E+03  0.70394961147E+03  0.00000000000E+00 0. -1.
<scales pt_clust_3="42.10725" pt_clust_4="47.35396" pt_clust_5="47.35396" pt_clust_6="114.31439"></scales>
<clustering>
<clus scale="   42.107">  2  3  1 -1</clus>
<clus scale="   47.354">  4  5 -1 -1</clus>
<clus scale="  114.314">  1  6  2 -1</clus>
<clus scale="   42.107">  2  3  1 -1</clus>
</clustering>
</event>
<event>
 6    0  0.6338511E+002  0.1176482E+03  0.7546771E-02  0.1247028E+00
         21   -1    0    0  503  502  0.00000000000E+00  0.00000000000E+00  0.50744979141E+03  0.50744979141E+03  0.00000000000E+00 0. -1.
          2   -1    0    0  505    0 -0.00000000000E+00 -0.00000000000E+00 -0.15900141633E+03  0.15900141633E+03  0.00000000000E+00 0.  1.
         21    1    1    2  503  501 -0.10403261381E+03  0.71935422902E+01  0.18419226561E+03  0.21166322897E+03  0.00000000000E+00 0. -1.
         21    1    1    2  504  502  0.39630305919E+01  0.35606879114E+02  0.11651944401E+03  0.12190297897E+03  0.00000000000E+00 0.  1.
         21    1    1    2  505  504  0.12602851637E+03 -0.74902729181E+02  0.15776391010E+03  0.21536726099E+03  0.00000000000E+00 0. -1.
          2    1    1    2  501    0 -0.25958933154E+02  0.32102307777E+02 -0.11002724463E+03  0.11751773881E+03  0.00000000000E+00 0.  1.
<scales pt_clust_3="14000.00000" pt_clust_4="35.82674" pt_clust_5="117.64817" pt_clust_6="41.52846"></scales>
<clustering>
<clus scale="   35.827">  1  4  2 -1</clus>
<clus scale="   41.528">  2  6  1 -1</clus>
<clus scale="  117.648">  2  5  1 -1</clus>
<clus scale="   35.827">  1  3  2 -1</clus>
</clustering>
</event>
<event>
 6    0  0.3437258E+003  0.8654494E+02  0.7546771E-02  0.1311441E+00
         -1   -1    0    0    0  501 -0.00000000000E+00  0.00000000000E+00  0.10167872154E+04  0.10167872154E+04  0.00000000000E+00 0. -1.
         21   -1    0    0  503  502  0.00000000000E+00 -0.00000000000E+00 -0.18899460705E+03  0.18899460705E+03  0.00000000000E+00 0.  1.
         21    1    1    2  503  504 -0.23469362820E+02  0.24067261144E+02  0.17324382226E+02  0.37817697837E+02  0.00000000000E+00 0.  1.
         21    1    1    2  504  501 -0.66967482761E+01 -0.40545848605E+02  0.16404388356E+02  0.44248347245E+02  0.00000000000E+00 0.  1.
         21    1    1    2  505  502  0.92165246880E+02 -0.43728245739E+02 -0.14686958579E+03  0.17882188747E+03  0.00000000000E+00 0.  1.
         -1    1    1    2    0  505 -0.61999135784E+02  0.60206833199E+02  0.94093342358E+03  0.94489388993E+03  0.00000000000E+00 0. -1.
<scales pt_clust_3="33.61613" pt_clust_4="39.59979" pt_clust_5="14000.00000" pt_clust_6="86.54494"></scales>
<clustering>
<clus scale="   33.616">  2  3  1 -1</clus>
<clus scale="   39.600">  2  4  1 -1</clus>
<clus scale="   86.545">  1  6  2 -1</clus>
<clus scale="   33.616">  2  3  1 -1</clus>
</clustering>
</event>
<event>
 6    0  0.7655366E+002  0.1222373E+03  0.7546771E-02  0.1239451E+00
          2   -1    0    0  503    0 -0.00000000000E+00  0.00000000000E+00  0.18975478389E+04  0.18975478389E+04  0.00000000000E+00 0.  1.
         21   -1    0    0  505  502  0.00000000000E+00 -0.00000000000E+00 -0.26730220721E+03  0.26730220721E+03  0.00000000000E+00 0. -1.
         21    1    1    2  503  504 -0.82037398679E+02  0.49330110737E+01  0.19323166297E+03  0.20998320160E+03  0.00000000000E+00 0. -1.
         21    1    1    2  504  502  0.22738064780E+02  0.22266389989E+02 -0.94890027857E+02  0.10008460970E+03  0.00000000000E+00 0. -1.
         21    1    1    2  505  501  0.10669840832E+03 -0.24839484456E+02 -0.14247886361E+03  0.17972695096E+03  0.00000000000E+00 0. -1.
          2    1    1    2  501    0 -0.47399074416E+02 -0.23599166064E+01  0.16743828601E+04  0.16750552838E+04  0.00000000000E+00 0.  1.
<scales pt_clust_3="14000.00000" pt_clust_4="31.82470" pt_clust_5="122.23728" pt_clust_6="47.41065"></scales>
<clustering>
<clus scale="   31.825">  2  4  1 -1</clus>
<clus scale="   47.411">  1  6  2 -1</clus>
<clus scale="  122.237">  2  5  1 -1</clus>
<clus scale="   31.825">  2  3  1 -1</clus>
</clustering>
</event>
<event>
 6    0  0.6338511E+002  0.1071079E+03  0.7546771E-02  0.1266021E+00
         21   -1    0    0  505  502  0.00000000000E+00  0.00000000000E+00  0.10158561240E+03  0.10158561240E+03  0.00000000000E+00 0. -1.
         -4   -1    0    0    0  501 -0.00000000000E+00 -0.00000000000E+00 -0.44332451134E+03  0.44332451134E+03  0.00000000000E+00 0.  1.
         21    1    1    2  503  502 -0.11819204349E+03  0.58619873189E+01 -0.89282352753E+02  0.14823987504E+03  0.00000000000E+00 0.  1.
         21    1    1    2  504  501  0.81221771681E+02 -0.64169805626E+02 -0.12907677378E+03  0.16545559428E+03  0.00000000000E+00 0.  1.
         21    1    1    2  505  504  0.16152745200E+01  0.32786396472E+02  0.45888195346E+02  0.56420593559E+02  0.00000000000E+00 0. -1.
         -4    1    1    2    0  503  0.35354997286E+02  0.25521421835E+02 -0.16926796775E+03  0.17479406086E+03  0.00000000000E+00 0.  1.
<scales pt_clust_3="107.10790" pt_clust_4="14000.00000" pt_clust_5="32.82616" pt_clust_6="44.74930"></scales>
<clustering>
<clus scale="   32.826">  1  5  2 -1</clus>
<clus scale="   44.749">  2  6  1 -1</clus>
<clus scale="  107.108">  1  3  2 -1</clus>
<clus scale="   32.826">  1  3  2 -1</clus>
</clustering>
</event>
<event>
 6    0  0.6338511E+002  0.1054373E+03  0.7546771E-02  0.1269260E+00
          2   -1    0    0  505    0 -0.00000000000E+00  0.00000000000E+00  0.19538647520E+04  0.19538647520E+04  0.00000000000E+00 0. -1.
         21   -1    0    0  504  502  0.00000000000E+00 -0.00000000000E+00 -0.19042293845E+03  0.19042293845E+03  0.00000000000E+00 0. -1.
         21    1    1    2  503  501 -0.94335397560E+02  0.12948256580E+03  0.42890058861E+03  0.45784344157E+03  0.00000000000E+00 0. -1.
         21    1    1    2  504  503  0.93210353096E+02 -0.10432210391E+03 -0.18305753290E+02  0.14108994256E+03  0.00000000000E+00 0. -1.
         21    1    1    2  505  502 -0.65506806842E+02  0.15215611922E+02 -0.83320805233E+02  0.10707480177E+03  0.00000000000E+00 0. -1.
          2    1    1    2  501    0  0.66631851306E+02 -0.40376073812E+02  0.14361677835E+04  0.14382795045E+04  0.00000000000E+00 0. -1.
<scales pt_clust_3="105.43727" pt_clust_4="14000.00000" pt_clust_5="67.25070" pt_clust_6="77.20212"></scales>
<clustering>
<clus scale="   67.251">  2  5  1 -1</clus>
<clus scale="   77.202">  1  6  2 -1</clus>
<clus scale="  105.437">  1  3  2 -1</clus>
<clus scale="   67.251">  2  3  1 -1</clus>
</clustering>
</event>
<event>
 6    0  0.6338511E+002  0.1210515E+03  0.7546771E-02  0.1241372E+00
          1   -1    0    0  504    0 -0.00000000000E+00  0.00000000000E+00  0.20000987757E+04  0.20000987757E+04  0.00000000000E+00 0. -1.
         21   -1    0    0  503  502  0.00000000000E+00 -0.00000000000E+00 -0.22818433077E+02  0.22818433077E+02  0.00000000000E+00 0. -1.
         21    1    1    2  503  501  0.16298929367E+02 -0.41338673167E+02  0.11975193576E+03  0.12773044709E+03  0.00000000000E+00 0. -1.
         21    1    1    2  504  505 -0.88335232934E+02 -0.71010158000E+02  0.10528319258E+04  0.10589148313E+04  0.00000000000E+00 0. -1.
         21    1    1    2  505  502 -0.50420394226E+02  0.43727979669E+02  0.11978088385E+03  0.13711970134E+03  0.00000000000E+00 0. -1.
          1    1    1    2  501    0  0.12245669779E+03  0.68620851497E+02  0.68491559722E+03  0.69915222906E+03  0.00000000000E+00 0. -1.
<scales pt_clust_3="44.43581" pt_clust_4="121.05147" pt_clust_5="49.51370" pt_clust_6="14000.00000"></scales>
<clustering>
<clus scale="   44.436">  2  3  1 -1</clus>
<clus scale="   49.514">  2  5  1 -1</clus>
<clus scale="  121.051">  1  4  2 -1</clus>
<clus scale="   44.436">  2  3  1 -1</clus>
</clustering>
</event>
<event>
 6    0  0.6338511E+002  0.1252804E+03  0.7546771E-02  0.1234632E+00
          2   -1    0    0  505    0 -0.00000000000E+00  0.00000000000E+00  0.27540257549E+04  0.27540257549E+04  0.00000000000E+00 0.  1.
         21   -1    0    0  503  502  0.00000000000E+00 -0.00000000000E+00 -0.10304316588E+02  0.10304316588E+02  0.00000000000E+00 0.  1.
         21    1    1    2  503  501  0.24519991887E+02 -0.44168493862E+02  0.19189777781E+03  0.19843599215E+03  0.00000000000E+00 0.  1.
         21    1    1    2  504  502 -0.76839776578E+00  0.45620396544E+02  0.18704547094E+03  0.19253004757E+03  0.00000000000E+00 0.  1.
         21    1    1    2  505  504 -0.93780841153E+02  0.48466566605E+02  0.16609386913E+04  0.16642899959E+04  0.00000000000E+00 0.  1.
          2    1    1    2  501    0  0.70029247032E+02 -0.49918469287E+02  0.70383949831E+03  0.70907403591E+03  0.00000000000E+00 0.  1.
<scales pt_clust_3="44.93472" pt_clust_4="45.62687" pt_clust_5="110.71539" pt_clust_6="44.93472"></scales>
<clustering>
<clus scale="   44.935">  3  6 -1 -1</clus>
<clus scale="   45.627">  2  4  1 -1</clus>
<clus scale="  110.715">  1  5  2 -1</clus>
<clus scale="   45.627">  2  3  1 -1</clus>
</clustering>
</event>
<event>
 6    0  0.6338511E+002  0.1156307E+03  0.7546771E-02  0.1250484E+00
         21   -1    0    0  504  502  0.00000000000E+00  0.00000000000E+00  0.12235705379E+03  0.12235705379E+03  0.00000000000E+00 0.  1.
          2   -1    0    0  505    0 -0.00000000000E+00 -0.00000000000E+00 -0.32164821244E+03  0.32164821244E+03  0.00000000000E+00 0.  1.
         21    1    1    2  503  502  0.42545519702E+02 -0.75046277114E+02 -0.67288708724E+01  0.86529432326E+02  0.00000000000E+00 0.  1.
         21    1    1    2  504  501  0.55709447237E+02  0.11169187806E+02  0.84513838388E+01  0.57443181985E+02  0.00000000000E+00 0.  1.
         21    1    1    2  505  503  0.18259857040E+02 -0.51294949794E+02 -0.78164647844E+02  0.95259154028E+02  0.00000000000E+00 0.  1.
          2    1    1    2  501    0 -0.11651482398E+03  0.11517203910E+03 -0.12284902378E+03  0.20477349790E+03  0.00000000000E+00 0.  1.
<scales pt_clust_3="14000.00000" pt_clust_4="57.90664" pt_clust_5="54.44809" pt_clust_6="115.63069"></scales>
<clustering>
<clus scale="   54.448">  2  5  1 -1</clus>
<clus scale="   57.907">  1  4  2 -1</clus>
<clus scale="  115.631">  2  6  1 -1</clus>
<clus scale="   57.907">  1  3  2 -1</clus>
</clustering>
</event>
<event>
 6    0  0.6338511E+002  0.1085824E+03  0.7546771E-02  0.1263218E+00
          2   -1    0    0  504    0 -0.00000000000E+00  0.00000000000E+00  0.87874960526E+03  0.87874960526E+03  0.00000000000E+00 0.  1.
         21   -1    0    0  505  502  0.00000000000E+00 -0.00000000000E+00 -0.58313619302E+03  0.58313619302E+03  0.00000000000E+00 0.  1.
         21    1    1    2  503  502  0.21133183258E+02 -0.22389182031E+02 -0.34503636552E+03  0.34640724652E+03  0.00000000000E+00 0.  1.
         21    1    1    2  504  503 -0.24195901671E+02  0.11470563573E+03 -0.19286644147E+03  0.22569955421E+03  0.00000000000E+00 0.  1.
         21    1    1    2  505  501  0.74221639719E+02 -0.94436986277E+01  0.32880106296E+02  0.81725985075E+02  0.00000000000E+00 0.  1.
          2    1    1    2  501    0 -0.71158921306E+02 -0.82872755071E+02  0.80063611294E+03  0.80805301247E+03  0.00000000000E+00 0.  1.
<scales pt_clust_3="30.78777" pt_clust_4="108.58237" pt_clust_5="77.29347" pt_clust_6="14000.00000"></scales>
<clustering>
<clus scale="   30.788">  2  3  1 -1</clus>
<clus scale="   77.293">  2  5  1 -1</clus>
<clus scale="  108.582">  2  4  1 -1</clus>
<clus scale="   30.788">  2  3  1 -1</clus>
</clustering>
</event>
<event>
 6    0  0.6338511E+002  0.1120198E+03  0.7546771E-02  0.1256875E+00
         21   -1    0    0  504  502  0.00000000000E+00  0.00000000000E+00  0.10997934738E+04  0.10997934738E+04  0.00000000000E+00 0. -1.
          2   -1    0    0  503    0 -0.00000000000E+00 -0.00000000000E+00 -0.10004510104E+04  0.10004510104E+04  0.00000000000E+00 0. -1.
         21    1    1    2  503  502 -0.99739914455E+01  0.11009921689E+03  0.10090786641E+04  0.10151162832E+04  0.00000000000E+00 0. -1.
         21    1    1    2  504  505  0.14819344507E+00 -0.48894173097E+02  0.25782091607E+02  0.55275477128E+02  0.00000000000E+00 0. -1.
         21    1    1    2  505  501 -0.10010976458E+03 -0.31664772520E+02 -0.19506568659E+02  0.10679479858E+03  0.00000000000E+00 0.  1.
          2    1    1    2  501    0  0.10993556258E+03 -0.29540271275E+02 -0.91601172364E+03  0.92305792527E+03  0.00000000000E+00 0. -1.
<scales pt_clust_3="64.14033" pt_clust_4="48.89440" pt_clust_5="14000.00000" pt_clust_6="112.01977"></scales>
<clustering>
<clus scale="   48.894">  1  4  2 -1</clus>
<clus scale="   64.140">  1  3  2 -1</clus>
<clus scale="  112.020">  2  6  1 -1</clus>
<clus scale="   48.894">  1  3  2 -1</clus>
</clustering>
</event>
<event>
 6    0  0.6338511E+002  0.2922072E+03  0.7546771E-02  0.1089202E+00
          2   -1    0    0  504    0 -0.00000000000E+00  0.00000000000E+00  0.34490999133E+04  0.34490999133E+04  0.00000000000E+00 0.  1.
         21   -1    0    0  505  502  0.00000000000E+00 -0.00000000000E+00 -0.16286030386E+03  0.16286030386E+03  0.00000000000E+00 0.  1.
         21    1    1    2  503  501  0.15749811688E+02 -0.30360194987E+03  0.54657096778E+03  0.62542947112E+03  0.00000000000E+00 0.  1.
         21    1    1    2  504  502 -0.11688538300E+03  0.26123643276E+03  0.35312642405E+03  0.45453815892E+03  0.00000000000E+00 0.  1.
         21    1    1    2  505  503  0.48000493527E+02  0.39135674107E+02 -0.59197414341E+02  0.85673696262E+02  0.00000000000E+00 0.  1.
          2    1    1    2  501    0  0.53135077780E+02  0.32298430033E+01  0.24457396320E+04  0.24463188909E+04  0.00000000000E+00 0.  1.
<scales pt_clust_3="292.20720" pt_clust_4="14000.00000" pt_clust_5="62.50440" pt_clust_6="53.23315"></scales>
<clustering>
<clus scale="   53.233">  1  6  2 -1</clus>
<clus scale="   62.504">  2  5  1 -1</clus>
<clus scale="  292.207">  1  3  2 -1</clus>
<clus scale="   62.504">  2  3  1 -1</clus>
</clustering>
</event>
<event>
 6    0  0.6338511E+002  0.8637098E+02  0.7546771E-02  0.1311886E+00
          2   -1    0    0  503    0 -0.00000000000E+00  0.00000000000E+00  0.37390764631E+03  0.37390764631E+03  0.00000000000E+00 0.  1.
         21   -1    0    0  504  502  0.00000000000E+00 -0.00000000000E+00 -0.13649286350E+03  0.13649286350E+03  0.00000000000E+00 0.  1.
         21    1    1    2  503  505  0.77691998412E+02  0.71388443155E+02  0.15851830230E+03  0.19042166000E+03  0.00000000000E+00 0.  1.
         21    1    1    2  504  501 -0.65509976735E+02 -0.50066641519E+02 -0.35651423241E+02  0.89829002131E+02  0.00000000000E+00 0.  1.
         21    1    1    2  505  502  0.23276045908E+02 -0.23563434535E+02 -0.51011620376E+02  0.60821009311E+02  0.00000000000E+00 0.  1.
          2    1    1    2  501    0 -0.35458067585E+02  0.22416328994E+01  0.16555952412E+03  0.16932883836E+03  0.00000000000E+00 0.  1.
<scales pt_clust_3="86.37098" pt_clust_4="14000.00000" pt_clust_5="33.12114" pt_clust_6="34.95455"></scales>
<clustering>
<clus scale="   33.121">  2  5  1 -1</clus>
<clus scale="   34.955">  1  6  2 -1</clus>
<clus scale="   86.371">  1  3  2 -1</clus>
<clus scale="   33.121">  2  3  1 -1</clus>
</clustering>
</event>
<event>
 6    0  0.6338511E+002  0.1222918E+03  0.7546771E-02  0.1239363E+00
          2   -1    0    0  504    0 -0.00000000000E+00  0.00000000000E+00  0.17101692951E+04  0.17101692951E+04  0.00000000000E+00 0.  1.
         21   -1    0    0  503  502  0.00000000000E+00 -0.00000000000E+00 -0.23542654325E+03  0.23542654325E+03  0.00000000000E+00 0.  1.
         21    1    1    2  503  505 -0.50448515212E+02 -0.11229387169E+03 -0.19031523177E+03  0.22666021651E+03  0.00000000000E+00 0.  1.
         21    1    1    2  504  502  0.16224616111E+01  0.38337764598E+02  0.96001918788E+01  0.39554775440E+02  0.00000000000E+00 0.  1.
         21    1    1    2  505  501  0.80306656575E+02  0.83568721248E+02  0.27366323326E+03  0.29719430596E+03  0.00000000000E+00 0.  1.
          2    1    1    2  501    0 -0.31480602974E+02 -0.96126141573E+01  0.13817945585E+04  0.13821865405E+04  0.00000000000E+00 0.  1.
<scales pt_clust_3="122.29181" pt_clust_4="37.62505" pt_clust_5="14000.00000" pt_clust_6="32.91551"></scales>
<clustering>
<clus scale="   32.916">  1  6  2 -1</clus>
<clus scale="   37.625">  1  4  2 -1</clus>
<clus scale="  122.292">  2  3  1 -1</clus>
<clus scale="  122.292">  2  3  1 -1</clus>
</clustering>
</event>
<event>
 6    0  0.6338511E+002  0.1021896E+03  0.7546771E-02  0.1275758E+00
         21   -1    0    0  504  502  0.00000000000E+00  0.00000000000E+00  0.19123422198E+03  0.19123422198E+03  0.00000000000E+00 0.  1.
          2   -1    0    0  505    0 -0.00000000000E+00 -0.00000000000E+00 -0.65708443656E+03  0.65708443656E+03  0.00000000000E+00 0.  1.
         21    1    1    2  503  501  0.63480223228E+02  0.20073982067E+02 -0.76249217021E+02  0.10122572101E+03  0.00000000000E+00 0.  1.
         21    1    1    2  504  503 -0.75802808269E+02 -0.80932847394E+02  0.15449293666E+03  0.19016902746E+03  0.00000000000E+00 0.  1.
         21    1    1    2  505  502 -0.18026674293E+02  0.27684216573E+02 -0.45083090361E+02  0.55891518765E+02  0.00000000000E+00 0.  1.
          2    1    1    2  501    0  0.30349259334E+02  0.33174648753E+02 -0.49901084385E+03  0.50103239131E+03  0.00000000000E+00 0.  1.
<scales pt_clust_3="14000.00000" pt_clust_4="102.18962" pt_clust_5="33.03599" pt_clust_6="58.09787"></scales>
<clustering>
<clus scale="   33.036">  2  5  1 -1</clus>
<clus scale="   58.098">  2  6  1 -1</clus>
<clus scale="  102.190">  1  4  2 -1</clus>
<clus scale="  102.190">  1  3  2 -1</clus>
</clustering>
</event>
<event>
 6    0  0.6338511E+002  0.6784378E+02  0.7546771E-02  0.1367583E+00
         -2   -1    0    0    0  501 -0.00000000000E+00  0.00000000000E+00  0.39355188901E+02  0.39355188901E+02  0.00000000000E+00 0. -1.
         21   -1    0    0  503  502  0.00000000000E+00 -0.00000000000E+00 -0.68030207919E+03  0.68030207919E+03  0.00000000000E+00 0. -1.
         21    1    1    2  503  501 -0.47932377561E+02 -0.83940546753E+02 -0.25780984001E+03  0.27533514453E+03  0.00000000000E+00 0. -1.
         21    1    1    2  504  502  0.27362185552E+02 -0.29302635372E+02 -0.26498013799E+03  0.26799590886E+03  0.00000000000E+00 0. -1.
         21    1    1    2  505  504  0.18984803454E+02  0.48839017324E+02 -0.93816139726E+02  0.10745762164E+03  0.00000000000E+00 0. -1.
         -2    1    1    2    0  505  0.15853885545E+01  0.64404164801E+02 -0.24340772559E+02  0.68868593055E+02  0.00000000000E+00 0. -1.
<scales pt_clust_3="67.84378" pt_clust_4="40.09157" pt_clust_5="48.96246" pt_clust_6="14000.00000"></scales>
<clustering>
<clus scale="   40.092">  2  4  1 -1</clus>
<clus scale="   48.962">  2  5  1 -1</clus>
<clus scale="   67.844">  2  3  1 -1</clus>
<clus scale="   40.092">  2  3  1 -1</clus>
</clustering>
</event>
<event>
 6    0  0.7565371E+002  0.1527547E+03  0.7546771E-02  0.1197128E+00
          2   -1    0    0  504    0 -0.00000000000E+00  0.00000000000E+00  0.31455971560E+04  0.31455971560E+04  0.00000000000E+00 0.  1.
         21   -1    0    0  503  502  0.00000000000E+00 -0.00000000000E+00 -0.11477768946E+03  0.11477768946E+03  0.00000000000E+00 0.  1.
         21    1    1    2  503  501 -0.36232581781E+02  0.14201056962E+03  0.66719412561E+01  0.14671167870E+03  0.00000000000E+00 0.  1.
         21    1    1    2  504  505 -0.27571825642E+02 -0.29272848456E+02  0.56538387149E+02  0.69380793072E+02  0.00000000000E+00 0. -1.
         21    1    1    2  505  502  0.72384626118E+01  0.29378862967E+02 -0.30096489010E+02  0.42676827213E+02  0.00000000000E+00 0.  1.
          2    1    1    2  501    0  0.56565944811E+02 -0.14211658413E+03  0.29977056271E+04  0.30016055464E+04  0.00000000000E+00 0.  1.
<scales pt_clust_3="152.75467" pt_clust_4="38.07443" pt_clust_5="30.25744" pt_clust_6="14000.00000"></scales>
<clustering>
<clus scale="   30.257">  2  5  1 -1</clus>
<clus scale="   38.074">  2  4  1 -1</clus>
<clus scale="  152.755">  2  3  1 -1</clus>
<clus scale="   30.257">  2  3  1 -1</clus>
</clustering>
</event>
<event>
 6    0  0.6338511E+002  0.1620543E+03  0.7546771E-02  0.1186397E+00
         21   -1    0    0  501  502  0.00000000000E+00  0.00000000000E+00  0.22247937007E+03  0.22247937007E+03  0.00000000000E+00 0. -1.
          2   -1    0    0  505    0 -0.00000000000E+00 -0.00000000000E+00 -0.50076739072E+03  0.50076739072E+03  0.00000000000E+00 0. -1.
         21    1    1    2  503  504 -0.10830266590E+03 -0.19554153475E+02 -0.22975907774E+02  0.11242653022E+03  0.00000000000E+00 0.  1.
         21    1    1    2  504  502 -0.74919623487E+01 -0.36159132426E+02  0.49141401405E+01  0.37252666092E+02  0.00000000000E+00 0.  1.
         21    1    1    2  505  503  0.41595494039E+02  0.19942280163E+03  0.62075136850E+02  0.21296234773E+03  0.00000000000E+00 0. -1.
          2    1    1    2  501    0  0.74199134214E+02 -0.14370951573E+03 -0.32230138987E+03  0.36060521674E+03  0.00000000000E+00 0. -1.
<scales pt_clust_3="113.37333" pt_clust_4="36.92712" pt_clust_5="14000.00000" pt_clust_6="162.05425"></scales>
<clustering>
<clus scale="   36.927">  1  4  2 -1</clus>
<clus scale="  113.373">  1  3  2 -1</clus>
<clus scale="  162.054">  2  6  1 -1</clus>
<clus scale="   36.927">  1  3  2 -1</clus>
</clustering>
</event>
<event>
 6    0  0.6338511E+002  0.1376284E+03  0.7546771E-02  0.1216556E+00
         21   -1    0    0  505  502  0.00000000000E+00  0.00000000000E+00  0.13249275266E+04  0.13249275266E+04  0.00000000000E+00 0.  1.
          1   -1    0    0  503    0 -0.00000000000E+00 -0.00000000000E+00 -0.30646499040E+04  0.30646499040E+04  0.00000000000E+00 0.  1.
         21    1    1    2  503  504  0.66731921384E+02 -0.24063053040E+03 -0.12943552028E+04  0.13182228918E+04  0.00000000000E+00 0.  1.
         21    1    1    2  504  502 -0.66100365358E+02  0.12038357939E+03  0.13029055241E+04  0.13101237610E+04  0.00000000000E+00 0.  1.
         21    1    1    2  505  501 -0.26400959028E+02  0.61302473195E+02 -0.18564059171E+03  0.19727501907E+03  0.00000000000E+00 0.  1.
          1    1    1    2  501    0  0.25769403002E+02  0.58944477816E+02 -0.15626321070E+04  0.15639557587E+04  0.00000000000E+00 0.  1.
<scales pt_clust_3="14000.00000" pt_clust_4="137.62839" pt_clust_5="72.59741" pt_clust_6="64.33128"></scales>
<clustering>
<clus scale="   64.331">  2  6  1 -1</clus>
<clus scale="   72.597">  2  5  1 -1</clus>
<clus scale="  137.628">  1  4  2 -1</clus>
<clus scale="  137.628">  1  3  2 -1</clus>
</clustering>
</event>
<event>
 6    0  0.6338511E+002  0.8240566E+02  0.7546771E-02  0.1322360E+00
         21   -1    0    0  504  502  0.00000000000E+00  0.00000000000E+00  0.30007021962E+03  0.30007021962E+03  0.00000000000E+00 0.  1.
          2   -1    0    0  503    0 -0.00000000000E+00 -0.00000000000E+00 -0.62167925450E+03  0.62167925450E+03  0.00000000000E+00 0.  1.
         21    1    1    2  503  505  0.50065954470E+02 -0.64014393362E+02 -0.51826936856E+01  0.81432810761E+02  0.00000000000E+00 0.  1.
         21    1    1    2  504  501 -0.25114565956E+02  0.10948020714E+03 -0.19930970104E+03  0.22878158603E+03  0.00000000000E+00 0. -1.
         21    1    1    2  505  502  0.53330024397E+02 -0.62079339575E+02  0.23583144821E+03  0.24962853978E+03  0.00000000000E+00 0.  1.
          2    1    1    2  501    0 -0.78281412910E+02  0.16613525801E+02 -0.35294808836E+03  0.36190653755E+03  0.00000000000E+00 0.  1.
<scales pt_clust_3="71.71629" pt_clust_4="14000.00000" pt_clust_5="82.40566" pt_clust_6="80.02493"></scales>
<clustering>
<clus scale="   80.025">  2  6  1 -1</clus>
<clus scale="   71.716">  2  3  1 -1</clus>
<clus scale="   82.406">  1  5  2 -1</clus>
<clus scale="   82.406">  1  3  2 -1</clus>
</clustering>
</event>
<event>
 6    0  0.6338511E+002  0.1401050E+03  0.7546771E-02  0.1213188E+00
          2   -1    0    0  502    0 -0.00000000000E+00  0.00000000000E+00  0.51189531379E+03  0.51189531379E+03  0.00000000000E+00 0. -1.
         21   -1    0    0  503  502  0.00000000000E+00 -0.00000000000E+00 -0.24752761551E+03  0.24752761551E+03  0.00000000000E+00 0. -1.
         21    1    1    2  503  504  0.93255692321E+02 -0.34666895153E+02 -0.93295166055E+02  0.13639063670E+03  0.00000000000E+00 0. -1.
         21    1    1    2  504  505  0.19183223813E+02  0.13589160167E+03 -0.70907702498E+02  0.15447467674E+03  0.00000000000E+00 0. -1.
         21    1    1    2  505  501 -0.76926745664E+02 -0.10670885871E+03  0.21549172608E+03  0.25247017395E+03  0.00000000000E+00 0. -1.
          2    1    1    2  501    0 -0.35512170470E+02  0.54841521844E+01  0.21307884075E+03  0.21608744192E+03  0.00000000000E+00 0. -1.
<scales pt_clust_3="96.94126" pt_clust_4="14000.00000" pt_clust_5="140.10501" pt_clust_6="35.93313"></scales>
<clustering>
<clus scale="   35.933">  1  6  2 -1</clus>
<clus scale="   96.941">  2  3  1 -1</clus>
<clus scale="  140.105">  1  5  2 -1</clus>
<clus scale="   96.941">  2  3  1 -1</clus>
</clustering>
</event>
<event>
 6    0  0.6338511E+002  0.1343765E+03  0.7546771E-02  0.1221103E+00
         21   -1    0    0  504  502  0.00000000000E+00  0.00000000000E+00  0.47677594563E+03  0.47677594563E+03  0.00000000000E+00 0.  1.
         -2   -1    0    0    0  501 -0.00000000000E+00 -0.00000000000E+00 -0.56901631947E+03  0.56901631947E+03  0.00000000000E+00 0.  1.
         21    1    1    2  503  502  0.33057921567E+02  0.34326524193E+02  0.93416195057E+02  0.10487002403E+03  0.00000000000E+00 0.  1.
         21    1    1    2  504  501 -0.70028234381E+02 -0.14570075729E+03  0.29957317800E+03  0.34040674679E+03  0.00000000000E+00 0.  1.
         21    1    1    2  505  503  0.39261288441E+02  0.37592568046E+02  0.41656812921E+02  0.68483136647E+02  0.00000000000E+00 0. -1.
         -2    1    1    2    0  505 -0.22909756263E+01  0.73781665048E+02 -0.52688655981E+03  0.53203235764E+03  0.00000000000E+00 0.  1.
<scales pt_clust_3="35.08692" pt_clust_4="129.04599" pt_clust_5="35.08692" pt_clust_6="73.81722"></scales>
<clustering>
<clus scale="   35.087">  3  5 -1 -1</clus>
<clus scale="   73.817">  2  6  1 -1</clus>
<clus scale="  129.046">  2  4  1 -1</clus>
<clus scale="  134.377">  1  3  2 -1</clus>
</clustering>
</event>
<event>
 6    0  0.6338511E+002  0.1702381E+03  0.7546771E-02  0.1177600E+00
          1   -1    0    0  503    0 -0.00000000000E+00  0.00000000000E+00  0.54531587157E+03  0.54531587157E+03  0.00000000000E+00 0.  1.
         21   -1    0    0  504  502  0.00000000000E+00 -0.00000000000E+00 -0.86555668939E+03  0.86555668939E+03  0.00000000000E+00 0.  1.
         21    1    1    2  503  502 -0.31252743499E+02 -0.13964337664E+03 -0.80911459640E+03  0.82167112443E+03  0.00000000000E+00 0.  1.
         21    1    1    2  504  505 -0.55696709817E+02 -0.14943899463E+00 -0.14593488604E+02  0.57577041658E+02  0.00000000000E+00 0.  1.
         21    1    1    2  505  501  0.49452545566E+02  0.92378818626E+02  0.25044289704E+03  0.27147936399E+03  0.00000000000E+00 0.  1.
          1    1    1    2  501    0  0.37496907751E+02  0.47413997013E+02  0.25302437015E+03  0.26014503089E+03  0.00000000000E+00 0.  1.
<scales pt_clust_3="164.12809" pt_clust_4="55.69691" pt_clust_5="34.33061" pt_clust_6="34.33061"></scales>
<clustering>
<clus scale="   34.331">  5  6 -1 -1</clus>
<clus scale="   55.697">  2  4  1 -1</clus>
<clus scale="  164.128">  2  3  1 -1</clus>
<clus scale="   55.697">  2  3  1 -1</clus>
</clustering>
</event>
<event>
 6    0  0.6338511E+002  0.1145095E+03  0.7546771E-02  0.1252440E+00
          2   -1    0    0  505    0 -0.00000000000E+00  0.00000000000E+00  0.11512481459E+04  0.11512481459E+04  0.00000000000E+00 0. -1.
         21   -1    0    0  504  502  0.00000000000E+00 -0.00000000000E+00 -0.46531015795E+03  0.46531015795E+03  0.00000000000E+00 0. -1.
         21    1    1    2  503  501  0.11336543053E+03  0.97234923478E+01  0.85801490255E+02  0.14250671168E+03  0.00000000000E+00 0. -1.
         21    1    1    2  504  503 -0.80787025972E+02 -0.83774502407E+02 -0.42378548615E+03  0.43947565244E+03  0.00000000000E+00 0. -1.
         21    1    1    2  505  502 -0.22973695575E+01  0.77992282392E+02  0.29906279607E+03  0.30907382615E+03  0.00000000000E+00 0. -1.
          2    1    1    2  501    0 -0.30281035002E+02 -0.39412723327E+01  0.72485918774E+03  0.72550211355E+03  0.00000000000E+00 0. -1.
<scales pt_clust_3="114.50950" pt_clust_4="14000.00000" pt_clust_5="78.88946" pt_clust_6="30.53645"></scales>
<clustering>
<clus scale="   30.536">  1  6  2 -1</clus>
<clus scale="   78.889">  1  5  2 -1</clus>
<clus scale="  114.510">  1  3  2 -1</clus>
<clus scale="  114.510">  2  3  1 -1</clus>
</clustering>
</event>
<event>
 6    0  0.6338511E+002  0.6014911E+02  0.7546771E-02  0.1397207E+00
          2   -1    0    0  503    0 -0.00000000000E+00  0.00000000000E+00  0.21330341111E+04  0.21330341111E+04  0.00000000000E+00 0. -1.
         21   -1    0    0  505  502  0.00000000000E+00 -0.00000000000E+00 -0.77183735742E+02  0.77183735742E+02  0.00000000000E+00 0. -1.
         21    1    1    2  503  504 -0.94630229565E+02 -0.28047206089E+02  0.12891304155E+04  0.12929032269E+04  0.00000000000E+00 0. -1.
         21    1    1    2  504  502  0.10272246982E+02 -0.43292861610E+02 -0.61682559639E+02  0.76056091722E+02  0.00000000000E+00 0. -1.
         21    1    1    2  505  501  0.45842539907E+02  0.43478988808E+02  0.17372725209E+03  0.18485972805E+03  0.00000000000E+00 0.  1.
          2    1    1    2  501    0  0.38515442676E+02  0.27861078891E+02  0.65467526738E+03  0.65639880009E+03  0.00000000000E+00 0. -1.
<scales pt_clust_3="60.14911" pt_clust_4="44.49484" pt_clust_5="14000.00000" pt_clust_6="45.96657"></scales>
<clustering>
<clus scale="   44.495">  2  4  1 -1</clus>
<clus scale="   45.967">  1  6  2 -1</clus>
<clus scale="   60.149">  1  3  2 -1</clus>
<clus scale="   44.495">  2  3  1 -1</clus>
</clustering>
</event>
<event>
 6    0  0.6338511E+002  0.3328328E+03  0.7546771E-02  0.1069890E+00
         21   -1    0    0  505  502  0.00000000000E+00  0.00000000000E+00  0.15558657920E+03  0.15558657920E+03  0.00000000000E+00 0.  1.
          3   -1    0    0  504    0 -0.00000000000E+00 -0.00000000000E+00 -0.13615774455E+04  0.13615774455E+04  0.00000000000E+00 0. -1.
         21    1    1    2  503  501  0.13631446653E+03 -0.46089339844E+02 -0.53850515575E+03  0.55739901668E+03  0.00000000000E+00 0. -1.
         21    1    1    2  504  502 -0.18807198312E+02 -0.93405104169E+02 -0.27891442439E+02  0.99278178642E+02  0.00000000000E+00 0.  1.
         21    1    1    2  505  503 -0.28637485729E+03  0.19323878433E+03 -0.23230443223E+03  0.41631374694E+03  0.00000000000E+00 0.  1.
          3    1    1    2  501    0  0.16886758907E+03 -0.53744340319E+02 -0.40728983591E+03  0.44417308247E+03  0.00000000000E+00 0. -1.
<scales pt_clust_3="66.92264" pt_clust_4="95.27972" pt_clust_5="324.44113" pt_clust_6="66.92264"></scales>
<clustering>
<clus scale="   66.923">  3  6 -1 -1</clus>
<clus scale="   95.280">  1  4  2 -1</clus>
<clus scale="  324.441">  1  5  2 -1</clus>
<clus scale="   95.280">  1  3  2 -1</clus>
</clustering>
</event>
<event>
 6    0  0.6338511E+002  0.2691094E+03  0.7546771E-02  0.1101790E+00
         21   -1    0    0  503  502  0.00000000000E+00  0.00000000000E+00  0.91995507855E+03  0.91995507855E+03  0.00000000000E+00 0. -1.
          2   -1    0    0  505    0 -0.00000000000E+00 -0.00000000000E+00 -0.79084520771E+03  0.79084520771E+03  0.00000000000E+00 0. -1.
         21    1    1    2  503  501 -0.14029067146E+03  0.35745763796E+03 -0.14010423376E+03  0.40876231694E+03  0.00000000000E+00 0.  1.
         21    1    1    2  504  502  0.14551063018E+03 -0.12988849221E+03  0.61550013651E+03  0.64566615363E+03  0.00000000000E+00 0. -1.
         21    1    1    2  505  504 -0.12855427110E+03 -0.18388673692E+03  0.57748595551E+02  0.23167959108E+03  0.00000000000E+00 0.  1.
          2    1    1    2  501    0  0.12333431238E+03 -0.43682408828E+02 -0.40403462746E+03  0.42469222460E+03  0.00000000000E+00 0. -1.
<scales pt_clust_3="14000.00000" pt_clust_4="199.91109" pt_clust_5="269.10944" pt_clust_6="130.84153"></scales>
<clustering>
<clus scale="  130.842">  2  6  1 -1</clus>
<clus scale="  199.911">  1  4  2 -1</clus>
<clus scale="  269.109">  1  5  2 -1</clus>
<clus scale="  199.911">  1  3  2 -1</clus>
</clustering>
</event>
<event>
 6    0  0.6338511E+002  0.2693153E+03  0.7546771E-02  0.1101672E+00
         21   -1    0    0  505  502  0.00000000000E+00  0.00000000000E+00  0.35485414794E+02  0.35485414794E+02  0.00000000000E+00 0.  1.
          2   -1    0    0  502    0 -0.00000000000E+00 -0.00000000000E+00 -0.27185792228E+04  0.27185792228E+04  0.00000000000E+00 0.  1.
         21    1    1    2  503  501  0.59320746157E+02 -0.22259608177E+03 -0.13137619020E+04  0.13338059460E+04  0.00000000000E+00 0.  1.
         21    1    1    2  504  503 -0.28022464024E+02  0.12558762112E+03 -0.24121922700E+03  0.27339389997E+03  0.00000000000E+00 0.  1.
         21    1    1    2  505  504 -0.62950143422E+02  0.12181459721E+03 -0.53163542412E+03  0.54903346058E+03  0.00000000000E+00 0.  1.
          2    1    1    2  501    0  0.31651861290E+02 -0.24806136562E+02 -0.59647725490E+03  0.59783133102E+03  0.00000000000E+00 0.  1.
<scales pt_clust_3="250.86287" pt_clust_4="96.84194" pt_clust_5="96.84194" pt_clust_6="40.21424"></scales>
<clustering>
<clus scale="   40.214">  2  6  1 -1</clus>
<clus scale="   96.842">  4  5 -1 -1</clus>
<clus scale="  250.863">  2  3  1 -1</clus>
<clus scale="  269.315">  1  3  2 -1</clus>
</clustering>
</event>
<event>
 6    0  0.6338511E+002  0.7360039E+02  0.7546771E-02  0.1348261E+00
         -2   -1    0    0    0  501 -0.00000000000E+00  0.00000000000E+00  0.97931319029E+03  0.97931319029E+03  0.00000000000E+00 0.  1.
         21   -1    0    0  504  502  0.00000000000E+00 -0.00000000000E+00 -0.22359385531E+03  0.22359385531E+03  0.00000000000E+00 0. -1.
         21    1    1    2  503  501  0.38238910535E+02  0.11201232740E+03  0.23652077017E+02  0.12069961274E+03  0.00000000000E+00 0.  1.
         21    1    1    2  504  503  0.17999150721E+02 -0.32387638134E+02 -0.16038204389E+03  0.16460658715E+03  0.00000000000E+00 0. -1.
         21    1    1    2  505  502 -0.27650084169E+02 -0.13272423051E+02  0.10088664529E+02  0.32287234632E+02  0.00000000000E+00 0.  1.
         -2    1    1    2    0  505 -0.28587977087E+02 -0.66352266216E+02  0.88236063732E+03  0.88531361108E+03  0.00000000000E+00 0.  1.
<scales pt_clust_3="73.60039" pt_clust_4="42.65314" pt_clust_5="30.67058" pt_clust_6="14000.00000"></scales>
<clustering>
<clus scale="   30.671">  2  5  1 -1</clus>
<clus scale="   42.653">  2  4  1 -1</clus>
<clus scale="   73.600">  2  3  1 -1</clus>
<clus scale="   30.671">  2  3  1 -1</clus>
</clustering>
</event>
<event>
 6    0  0.6338511E+002  0.8775561E+02  0.7546771E-02  0.1308380E+00
         21   -1    0    0  505  502  0.00000000000E+00  0.00000000000E+00  0.90680117151E+03  0.90680117151E+03  0.00000000000E+00 0.  1.
         -4   -1    0    0    0  501 -0.00000000000E+00 -0.00000000000E+00 -0.48333815865E+03  0.48333815865E+03  0.00000000000E+00 0.  1.
         21    1    1    2  503  501  0.74675154791E+00 -0.43194846618E+02 -0.28843679828E+03  0.29165414281E+03  0.00000000000E+00 0.  1.
         21    1    1    2  504  502 -0.44129673464E+02  0.16781464264E+02  0.70121536713E+03  0.70280298571E+03  0.00000000000E+00 0.  1.
         21    1    1    2  505  503 -0.40899927620E+02 -0.45851870682E+02  0.18169002983E+03  0.19179797983E+03  0.00000000000E+00 0.  1.
         -4    1    1    2    0  504  0.84282849535E+02  0.72265253036E+02 -0.17100558582E+03  0.20388422182E+03  0.00000000000E+00 0.  1.
<scales pt_clust_3="43.20130" pt_clust_4="47.14714" pt_clust_5="87.75561" pt_clust_6="14000.00000"></scales>
<clustering>
<clus scale="   43.201">  2  3  1 -1</clus>
<clus scale="   47.147">  1  4  2 -1</clus>
<clus scale="   87.756">  1  5  2 -1</clus>
<clus scale="   47.147">  1  3  2 -1</clus>
</clustering>
</event>
<event>
 6    0  0.6338511E+002  0.1297750E+03  0.7546771E-02  0.1227790E+00
          2   -1    0    0  503    0 -0.00000000000E+00  0.00000000000E+00  0.34458946947E+02  0.34458946947E+02  0.00000000000E+00 0. -1.
         21   -1    0    0  504  502  0.00000000000E+00 -0.00000000000E+00 -0.20999308773E+04  0.20999308773E+04  0.00000000000E+00 0. -1.
         21    1    1    2  503  505 -0.51734117331E+02  0.13408126260E+02 -0.18055252691E+03  0.18829607462E+03  0.00000000000E+00 0. -1.
         21    1    1    2  504  501  0.47646286108E+02 -0.12393196544E+03 -0.15545733894E+04  0.15602332273E+04  0.00000000000E+00 0. -1.
         21    1    1    2  505  502  0.33526899962E+02  0.14693943429E+02 -0.26196421802E+03  0.26450938833E+03  0.00000000000E+00 0.  1.
          2    1    1    2  501    0 -0.29439068739E+02  0.95829895755E+02 -0.68381796061E+02  0.12135113399E+03  0.00000000000E+00 0. -1.
<scales pt_clust_3="50.60583" pt_clust_4="129.77496" pt_clust_5="36.60553" pt_clust_6="14000.00000"></scales>
<clustering>
<clus scale="   36.606">  2  5  1 -1</clus>
<clus scale="   50.606">  1  3  2 -1</clus>
<clus scale="  129.775">  2  4  1 -1</clus>
<clus scale="   36.606">  2  3  1 -1</clus>
</clustering>
</event>
<event>
 6    0  0.6338511E+002  0.6543209E+02  0.7546771E-02  0.1376353E+00
         21   -1    0    0  503  502  0.00000000000E+00  0.00000000000E+00  0.19639827804E+04  0.19639827804E+04  0.00000000000E+00 0. -1.
         -1   -1    0    0    0  501 -0.00000000000E+00 -0.00000000000E+00 -0.97211103507E+03  0.97211103507E+03  0.00000000000E+00 0. -1.
         21    1    1    2  503  501 -0.68326782239E+02  0.75559964014E+02 -0.33098058988E+02  0.10711367253E+03  0.00000000000E+00 0. -1.
         21    1    1    2  504  502 -0.38315037905E+02 -0.24686134259E+02  0.18844550644E+04  0.18850061902E+04  0.00000000000E+00 0. -1.
         21    1    1    2  505  504  0.42872144605E+02 -0.38839118173E+02  0.20669013324E+02  0.61430497273E+02  0.00000000000E+00 0. -1.
         -1    1    1    2    0  505  0.63769675539E+02 -0.12034711582E+02 -0.88015427340E+03  0.88254345547E+03  0.00000000000E+00 0. -1.
<scales pt_clust_3="65.43209" pt_clust_4="45.57902" pt_clust_5="56.52804" pt_clust_6="14000.00000"></scales>
<clustering>
<clus scale="   45.579">  1  4  2 -1</clus>
<clus scale="   56.528">  1  5  2 -1</clus>
<clus scale="   65.432">  1  3  2 -1</clus>
<clus scale="   45.579">  1  3  2 -1</clus>
</clustering>
</event>
<event>
 6    0  0.6338511E+002  0.1368987E+03  0.7546771E-02  0.1217564E+00
         21   -1    0    0  504  502  0.00000000000E+00  0.00000000000E+00  0.37384627933E+03  0.37384627933E+03  0.00000000000E+00 0. -1.
          1   -1    0    0  502    0 -0.00000000000E+00 -0.00000000000E+00 -0.68042066652E+03  0.68042066652E+03  0.00000000000E+00 0.  1.
         21    1    1    2  503  505 -0.15005127330E+03 -0.40093878164E+01  0.14781322719E+03  0.21066611009E+03  0.00000000000E+00 0. -1.
         21    1    1    2  504  503  0.11866380257E+03 -0.59643159313E+02  0.12125319807E+03  0.17983532060E+03  0.00000000000E+00 0. -1.
         21    1    1    2  505  501  0.37419048485E+02  0.32354596996E+02  0.29625852981E+02  0.57660179510E+02  0.00000000000E+00 0.  1.
          1    1    1    2  501    0 -0.60315777523E+01  0.31297950133E+02 -0.60526666543E+03  0.60610533565E+03  0.00000000000E+00 0.  1.
<scales pt_clust_3="14000.00000" pt_clust_4="136.89866" pt_clust_5="52.70615" pt_clust_6="31.87384"></scales>
<clustering>
<clus scale="   31.874">  2  6  1 -1</clus>
<clus scale="   52.706">  2  5  1 -1</clus>
<clus scale="  136.899">  1  4  2 -1</clus>
<clus scale="  136.899">  1  3  2 -1</clus>
</clustering>
</event>
<event>
 6    0  0.6338511E+002  0.1286581E+03  0.7546771E-02  0.1229461E+00
          2   -1    0    0  504    0 -0.00000000000E+00  0.00000000000E+00  0.22822200454E+04  0.22822200454E+04  0.00000000000E+00 0. -1.
         21   -1    0    0  503  502  0.00000000000E+00 -0.00000000000E+00 -0.10663964153E+04  0.10663964153E+04  0.00000000000E+00 0. -1.
         21    1    1    2  503  501  0.38438784973E+02  0.26922781651E+01 -0.52538095010E+03  0.52679211391E+03  0.00000000000E+00 0. -1.
         21    1    1    2  504  505  0.11164840543E+03 -0.30145786051E+02  0.62188935995E+03  0.63255079707E+03  0.00000000000E+00 0. -1.
         21    1    1    2  505  502 -0.13094144030E+02  0.70988582353E+02 -0.52940261292E+03  0.53430137750E+03  0.00000000000E+00 0. -1.
          2    1    1    2  501    0 -0.13699304637E+03 -0.43535074468E+02  0.16487178332E+04  0.16549721723E+04  0.00000000000E+00 0. -1.
<scales pt_clust_3="38.53295" pt_clust_4="14000.00000" pt_clust_5="77.68445" pt_clust_6="128.65806"></scales>
<clustering>
<clus scale="   38.533">  2  3  1 -1</clus>
<clus scale="   77.684">  2  5  1 -1</clus>
<clus scale="  128.658">  1  6  2 -1</clus>
<clus scale="   38.533">  2  3  1 -1</clus>
</clustering>
</event>
<event>
 6    0  0.6338511E+002  0.2143584E+03  0.7546771E-02  0.1138160E+00
          2   -1    0    0  505    0 -0.00000000000E+00  0.00000000000E+00  0.49873702714E+03  0.49873702714E+03  0.00000000000E+00 0. -1.
         21   -1    0    0  504  502  0.00000000000E+00 -0.00000000000E+00 -0.14265338798E+04  0.14265338798E+04  0.00000000000E+00 0.  1.
         21    1    1    2  503  502  0.68042176758E+01  0.46214169231E+02 -0.46319625638E+03  0.46554572143E+03  0.00000000000E+00 0.  1.
         21    1    1    2  504  501  0.25733098850E+02 -0.24362791354E+03  0.40142366915E+02  0.24825020092E+03  0.00000000000E+00 0.  1.
         21    1    1    2  505  503 -0.75922024374E+01  0.15852873471E+03 -0.84921517933E+03  0.86391864320E+03  0.00000000000E+00 0.  1.
          2    1    1    2  501    0 -0.24945114088E+02  0.38885009597E+02  0.34447221618E+03  0.34755634135E+03  0.00000000000E+00 0. -1.
<scales pt_clust_3="30.35886" pt_clust_4="206.92533" pt_clust_5="30.35886" pt_clust_6="46.19851"></scales>
<clustering>
<clus scale="   30.359">  3  5 -1 -1</clus>
<clus scale="   46.199">  1  6  2 -1</clus>
<clus scale="  206.925">  1  4  2 -1</clus>
<clus scale="  214.358">  2  3  1 -1</clus>
</clustering>
</event>
<event>
 6    0  0.6338511E+002  0.1370473E+03  0.7546771E-02  0.1217358E+00
         21   -1    0    0  505  502  0.00000000000E+00  0.00000000000E+00  0.82831297865E+03  0.82831297865E+03  0.00000000000E+00 0.  1.
         -4   -1    0    0    0  501 -0.00000000000E+00 -0.00000000000E+00 -0.13641192856E+04  0.13641192856E+04  0.00000000000E+00 0.  1.
         21    1    1    2  503  502  0.75447704121E+02  0.85092949749E+01  0.32034892009E+03  0.32922362424E+03  0.00000000000E+00 0.  1.
         21    1    1    2  504  503 -0.50336088211E+02 -0.68423795321E+02 -0.24831454315E+03  0.26244170759E+03  0.00000000000E+00 0.  1.
         21    1    1    2  505  501  0.92946975422E+01  0.10469780137E+03  0.49016593000E+03  0.50130894660E+03  0.00000000000E+00 0.  1.
         -4    1    1    2    0  504 -0.34406313452E+02 -0.44783301027E+02 -0.10980066139E+04  0.10994579858E+04  0.00000000000E+00 0.  1.
<scales pt_clust_3="75.27353" pt_clust_4="137.04727" pt_clust_5="14000.00000" pt_clust_6="56.47423"></scales>
<clustering>
<clus scale="   56.474">  2  6  1 -1</clus>
<clus scale="   75.274">  1  3  2 -1</clus>
<clus scale="  137.047">  2  4  1 -1</clus>
<clus scale="   75.274">  1  3  2 -1</clus>
</clustering>
</event>
<event>
 6    0  0.6338511E+002  0.1744125E+03  0.7546771E-02  0.1173323E+00
          4   -1    0    0  505    0 -0.00000000000E+00  0.00000000000E+00  0.59617372129E+03  0.59617372129E+03  0.00000000000E+00 0. -1.
         21   -1    0    0  501  502  0.00000000000E+00 -0.00000000000E+00 -0.30205360074E+03  0.30205360074E+03  0.00000000000E+00 0. -1.
         21    1    1    2  503  502  0.30697017761E+02  0.16297227328E+03 -0.18577142983E+03  0.24902468331E+03  0.00000000000E+00 0. -1.
         21    1    1    2  504  503 -0.77168571653E+02 -0.20773466262E+03  0.90208727238E+02  0.23926197561E+03  0.00000000000E+00 0. -1.
         21    1    1    2  505  504  0.31285085783E+02  0.59531832000E+01  0.19337068914E+02  0.37257471960E+02  0.00000000000E+00 0. -1.
          4    1    1    2  501    0  0.15186468109E+02  0.38809206141E+02  0.37034575423E+03  0.37268319115E+03  0.00000000000E+00 0. -1.
<scales pt_clust_3="14000.00000" pt_clust_4="174.41247" pt_clust_5="31.84646" pt_clust_6="55.63100"></scales>
<clustering>
<clus scale="   31.846">  1  5  2 -1</clus>
<clus scale="   55.631">  1  6  2 -1</clus>
<clus scale="  174.412">  1  4  2 -1</clus>
<clus scale="  174.412">  2  3  1 -1</clus>
</clustering>
</event>
<event>
 6    0  0.6338511E+002  0.8935982E+02  0.7546771E-02  0.1304409E+00
          2   -1    0    0  505    0 -0.00000000000E+00  0.00000000000E+00  0.10291248070E+04  0.10291248070E+04  0.00000000000E+00 0.  1.
         21   -1    0    0  503  502  0.00000000000E+00 -0.00000000000E+00 -0.11296041985E+03  0.11296041985E+03  0.00000000000E+00 0.  1.
         21    1    1    2  503  504 -0.64692900288E+01 -0.80879796744E+02 -0.56273326818E+02  0.98742496150E+02  0.00000000000E+00 0.  1.
         21    1    1    2  504  501 -0.58695792861E+02  0.78429653599E+02  0.11892815086E+03  0.15407891397E+03  0.00000000000E+00 0.  1.
         21    1    1    2  505  502  0.91459969636E+02 -0.57844429240E+02  0.16314955942E+03  0.19577712527E+03  0.00000000000E+00 0.  1.
          2    1    1    2  501    0 -0.26294886746E+02  0.60294572385E+02  0.69036000374E+03  0.69348669150E+03  0.00000000000E+00 0.  1.
<scales pt_clust_3="77.50991" pt_clust_4="14000.00000" pt_clust_5="89.35982" pt_clust_6="65.77885"></scales>
<clustering>
<clus scale="   65.779">  1  6  2 -1</clus>
<clus scale="   77.510">  2  3  1 -1</clus>
<clus scale="   89.360">  1  5  2 -1</clus>
<clus scale="   77.510">  2  3  1 -1</clus>
</clustering>
</event>
<event>
 6    0  0.6338511E+002  0.6720810E+02  0.7546771E-02  0.1369853E+00
         21   -1    0    0  504  502  0.00000000000E+00  0.00000000000E+00  0.23507853308E+02  0.23507853308E+02  0.00000000000E+00 0.  1.
          2   -1    0    0  505    0 -0.00000000000E+00 -0.00000000000E+00 -0.31724850279E+04  0.31724850279E+04  0.00000000000E+00 0. -1.
         21    1    1    2  503  501 -0.92198149026E+01 -0.76491611159E+02 -0.12300042801E+04  0.12324149061E+04  0.00000000000E+00 0. -1.
         21    1    1    2  504  503  0.52536931968E+01 -0.55625396991E+02 -0.63084020302E+02  0.84269684347E+02  0.00000000000E+00 0.  1.
         21    1    1    2  505  502 -0.12792325780E+02  0.10111441720E+03 -0.21389606360E+03  0.23693732291E+03  0.00000000000E+00 0. -1.
          2    1    1    2  501    0  0.16758447486E+02  0.31002590954E+02 -0.16419928106E+04  0.16423709679E+04  0.00000000000E+00 0. -1.
<scales pt_clust_3="51.72438" pt_clust_4="67.20810" pt_clust_5="14000.00000" pt_clust_6="35.24211"></scales>
<clustering>
<clus scale="   35.242">  2  6  1 -1</clus>
<clus scale="   51.724">  2  3  1 -1</clus>
<clus scale="   67.208">  1  4  2 -1</clus>
<clus scale="   67.208">  1  3  2 -1</clus>
</clustering>
</event>
<event>
 6    0  0.6338511E+002  0.1092096E+03  0.7546771E-02  0.1262041E+00
         21   -1    0    0  505  502  0.00000000000E+00  0.00000000000E+00  0.57363333963E+03  0.57363333963E+03  0.00000000000E+00 0.  1.
          1   -1    0    0  503    0 -0.00000000000E+00 -0.00000000000E+00 -0.36692985812E+03  0.36692985812E+03  0.00000000000E+00 0.  1.
         21    1    1    2  503  502 -0.90247598751E+02  0.11378490431E+02  0.40195879660E+02  0.99447513124E+02  0.00000000000E+00 0.  1.
         21    1    1    2  504  501  0.12257704761E+02 -0.10881333648E+03 -0.95622045370E+02  0.14537595772E+03  0.00000000000E+00 0.  1.
         21    1    1    2  505  504  0.10170122729E+03  0.58957561331E+02  0.46924733174E+03  0.48374806668E+03  0.00000000000E+00 0.  1.
          1    1    1    2  501    0 -0.23711333297E+02  0.38477284714E+02 -0.20711768452E+03  0.21199166023E+03  0.00000000000E+00 0.  1.
<scales pt_clust_3="14000.00000" pt_clust_4="79.57091" pt_clust_5="109.20963" pt_clust_6="45.19656"></scales>
<clustering>
<clus scale="   45.197">  2  6  1 -1</clus>
<clus scale="   79.571">  2  4  1 -1</clus>
<clus scale="  109.210">  1  5  2 -1</clus>
<clus scale="  109.210">  1  3  2 -1</clus>
</clustering>
</event>
<event>
 6    0  0.6338511E+002  0.1080928E+03  0.7546771E-02  0.1264143E+00
         21   -1    0    0  505  502  0.00000000000E+00  0.00000000000E+00  0.17457644516E+03  0.17457644516E+03  0.00000000000E+00 0. -1.
          2   -1    0    0  504    0 -0.00000000000E+00 -0.00000000000E+00 -0.24292776970E+04  0.24292776970E+04  0.00000000000E+00 0. -1.
         21    1    1    2  503  502 -0.77936606382E+02  0.77928850110E+02  0.11955914841E+03  0.16260814943E+03  0.00000000000E+00 0. -1.
         21    1    1    2  504  503  0.72678700971E+02 -0.61184343590E+02 -0.11936063867E+03  0.15255385783E+03  0.00000000000E+00 0.  1.
         21    1    1    2  505  501 -0.28816562981E+02 -0.32688003518E+02 -0.11622828843E+02  0.45099778562E+02  0.00000000000E+00 0.  1.
          2    1    1    2  501    0  0.34074468392E+02  0.15943496998E+02 -0.22432769327E+04  0.22435923563E+04  0.00000000000E+00 0. -1.
<scales pt_clust_3="108.09281" pt_clust_4="14000.00000" pt_clust_5="38.38094" pt_clust_6="37.62000"></scales>
<clustering>
<clus scale="   37.620">  2  6  1 -1</clus>
<clus scale="   38.381">  2  5  1 -1</clus>
<clus scale="  108.093">  1  3  2 -1</clus>
<clus scale="  108.093">  1  3  2 -1</clus>
</clustering>
</event>
<event>
 6    0  0.6338511E+002  0.1701848E+03  0.7546771E-02  0.1177655E+00
          1   -1    0    0  504    0 -0.00000000000E+00  0.00000000000E+00  0.29747968560E+04  0.29747968560E+04  0.00000000000E+00 0. -1.
         21   -1    0    0  501  502  0.00000000000E+00 -0.00000000000E+00 -0.66191465877E+03  0.66191465877E+03  0.00000000000E+00 0. -1.
         21    1    1    2  503  502 -0.15105462921E+03  0.43505820728E+02 -0.63833134458E+03  0.65740182759E+03  0.00000000000E+00 0. -1.
         21    1    1    2  504  505  0.17487299220E+02 -0.61963018928E+02  0.19247702237E+03  0.20295966468E+03  0.00000000000E+00 0.  1.
         21    1    1    2  505  503  0.88820831483E+02 -0.41094642744E+02  0.28210640808E+03  0.29859995855E+03  0.00000000000E+00 0.  1.
          1    1    1    2  501    0  0.44746498504E+02  0.59551840944E+02  0.24766301113E+04  0.24777500639E+04  0.00000000000E+00 0. -1.
<scales pt_clust_3="156.69252" pt_clust_4="53.86472" pt_clust_5="53.86472" pt_clust_6="74.48940"></scales>
<clustering>
<clus scale="   53.865">  4  5 -1 -1</clus>
<clus scale="   74.489">  1  6  2 -1</clus>
<clus scale="  156.693">  2  3  1 -1</clus>
<clus scale="  156.693">  2  3  1 -1</clus>
</clustering>
</event>
<event>
 6    0  0.6338511E+002  0.1884617E+03  0.7546771E-02  0.1159856E+00
          2   -1    0    0  503    0 -0.00000000000E+00  0.00000000000E+00  0.24385884949E+04  0.24385884949E+04  0.00000000000E+00 0. -1.
         21   -1    0    0  505  502  0.00000000000E+00 -0.00000000000E+00 -0.33598524643E+03  0.33598524643E+03  0.00000000000E+00 0. -1.
         21    1    1    2  503  504 -0.13182220145E+03 -0.75665160047E+02  0.54719516311E+03  0.56791271845E+03  0.00000000000E+00 0.  1.
         21    1    1    2  504  502  0.24776852283E+02  0.19276473489E+03 -0.23646131988E+03  0.30608183746E+03  0.00000000000E+00 0. -1.
         21    1    1    2  505  501  0.18000573070E+03 -0.13040112692E+02  0.10473744219E+03  0.20866729360E+03  0.00000000000E+00 0.  1.
          2    1    1    2  501    0 -0.72960381529E+02 -0.10405946215E+03  0.16871319630E+04  0.16919118918E+04  0.00000000000E+00 0. -1.
<scales pt_clust_3="14000.00000" pt_clust_4="188.46170" pt_clust_5="168.37995" pt_clust_6="127.08890"></scales>
<clustering>
<clus scale="  127.089">  1  6  2 -1</clus>
<clus scale="  168.380">  1  5  2 -1</clus>
<clus scale="  188.462">  2  4  1 -1</clus>
<clus scale="  188.462">  2  3  1 -1</clus>
</clustering>
</event>
<event>
 6    0  0.6338511E+002  0.7683950E+02  0.7546771E-02  0.1338268E+00
          2   -1    0    0  503    0 -0.00000000000E+00  0.00000000000E+00  0.35286055529E+04  0.35286055529E+04  0.00000000000E+00 0. -1.
         21   -1    0    0  504  502  0.00000000000E+00 -0.00000000000E+00 -0.99611699402E+02  0.99611699402E+02  0.00000000000E+00 0.  1.
         21    1    1    2  503  505 -0.10282911900E+03 -0.14365213387E+02  0.56525845980E+03  0.57471498453E+03  0.00000000000E+00 0. -1.
         21    1    1    2  504  501  0.99623383978E+02  0.19394807614E+02  0.93086347377E+02  0.13771726568E+03  0.00000000000E+00 0. -1.
         21    1    1    2  505  502 -0.33884062897E+02 -0.39354525467E+02 -0.63022775327E+02  0.81662589985E+02  0.00000000000E+00 0.  1.
          2    1    1    2  501    0  0.37089797924E+02  0.34324931240E+02  0.28336718217E+04  0.28341224121E+04  0.00000000000E+00 0. -1.
<scales pt_clust_3="76.83950" pt_clust_4="14000.00000" pt_clust_5="51.25820" pt_clust_6="50.53567"></scales>
<clustering>
<clus scale="   50.536">  1  6  2 -1</clus>
<clus scale="   51.258">  2  5  1 -1</clus>
<clus scale="   76.839">  1  3  2 -1</clus>
<clus scale="   51.258">  2  3  1 -1</clus>
</clustering>
</event>
<event>
 6    0  0.6338511E+002  0.1339684E+03  0.7546771E-02  0.1221683E+00
         21   -1    0    0  504  502  0.00000000000E+00  0.00000000000E+00  0.11407513065E+04  0.11407513065E+04  0.00000000000E+00 0.  1.
         -1   -1    0    0    0  501 -0.00000000000E+00 -0.00000000000E+00 -0.11647009928E+03  0.11647009928E+03  0.00000000000E+00 0.  1.
         21    1    1    2  503  505  0.15919920075E+03 -0.86776976665E+02  0.89472846661E+03  0.91291492384E+03  0.00000000000E+00 0.  1.
         21    1    1    2  504  503 -0.55931657508E+02  0.75646340334E+01  0.11293776858E+03  0.12625574669E+03  0.00000000000E+00 0. -1.
         21    1    1    2  505  501 -0.12242118374E+03  0.48479288053E+02 -0.51117661373E+02  0.14124518718E+03  0.00000000000E+00 0.  1.
         -1    1    1    2    0  502  0.19153640491E+02  0.30733054579E+02  0.67732633393E+02  0.76805548069E+02  0.00000000000E+00 0.  1.
<scales pt_clust_3="14000.00000" pt_clust_4="54.90196" pt_clust_5="133.96845" pt_clust_6="36.21302"></scales>
<clustering>
<clus scale="   36.213">  1  6  2 -1</clus>
<clus scale="   54.902">  1  4  2 -1</clus>
<clus scale="  133.968">  2  5  1 -1</clus>
<clus scale="   36.213">  1  3  2 -1</clus>
</clustering>
</event>
<event>
 6    0  0.6338511E+002  0.1825933E+03  0.7546771E-02  0.1165317E+00
         21   -1    0    0  504  502  0.00000000000E+00  0.00000000000E+00  0.14274609706E+04  0.14274609706E+04  0.00000000000E+00 0.  1.
          2   -1    0    0  503    0 -0.00000000000E+00 -0.00000000000E+00 -0.13265625871E+03  0.13265625871E+03  0.00000000000E+00 0. -1.
         21    1    1    2  503  505  0.10877033241E+02  0.41709658299E+02  0.52140933323E+02  0.67651181625E+02  0.00000000000E+00 0. -1.
         21    1    1    2  504  501  0.12529919004E+02  0.67332973710E+02  0.24616635041E+03  0.25551634056E+03  0.00000000000E+00 0.  1.
         21    1    1    2  505  502  0.32623309021E+02 -0.24280419668E+03  0.10531388622E+04  0.10812583509E+04  0.00000000000E+00 0.  1.
          2    1    1    2  501    0 -0.56030261266E+02  0.13376156467E+03 -0.56641434057E+02  0.15569135626E+03  0.00000000000E+00 0. -1.
<scales pt_clust_3="43.10459" pt_clust_4="70.09829" pt_clust_5="14000.00000" pt_clust_6="182.59331"></scales>
<clustering>
<clus scale="   43.105">  2  3  1 -1</clus>
<clus scale="   70.098">  1  4  2 -1</clus>
<clus scale="  182.593">  2  6  1 -1</clus>
<clus scale="   70.098">  1  3  2 -1</clus>
</clustering>
</event>
<event>
 6    0  0.6338511E+002  0.1167933E+03  0.7546771E-02  0.1248483E+00
         21   -1    0    0  504  502  0.00000000000E+00  0.00000000000E+00  0.31926719457E+03  0.31926719457E+03  0.00000000000E+00 0. -1.
          2   -1    0    0  503    0 -0.00000000000E+00 -0.00000000000E+00 -0.34416694817E+03  0.34416694817E+03  0.00000000000E+00 0.  1.
         21    1    1    2  503  505  0.83451249474E+02  0.33354958477E+02 -0.96784761974E+02  0.13207556339E+03  0.00000000000E+00 0.  1.
         21    1    1    2  504  501 -0.53927593053E+02  0.48253265288E+02  0.10978757425E+03  0.13149096685E+03  0.00000000000E+00 0. -1.
         21    1    1    2  505  502 -0.49848958332E+02 -0.12438525462E+03  0.15287965486E+03  0.20329485750E+03  0.00000000000E+00 0. -1.
          2    1    1    2  501    0  0.20325301911E+02  0.42777030861E+02 -0.19078222073E+03  0.19657275501E+03  0.00000000000E+00 0.  1.
<scales pt_clust_3="14000.00000" pt_clust_4="73.40187" pt_clust_5="116.79330" pt_clust_6="47.36024"></scales>
<clustering>
<clus scale="   47.360">  2  6  1 -1</clus>
<clus scale="   73.402">  1  4  2 -1</clus>
<clus scale="  116.793">  1  5  2 -1</clus>
<clus scale="   73.402">  1  3  2 -1</clus>
</clustering>
</event>
<event>
 6    0  0.6338511E+002  0.1026225E+03  0.7546771E-02  0.1274876E+00
          1   -1    0    0  502    0 -0.00000000000E+00  0.00000000000E+00  0.63089306547E+03  0.63089306547E+03  0.00000000000E+00 0.  1.
         21   -1    0    0  503  502  0.00000000000E+00 -0.00000000000E+00 -0.20090083674E+03  0.20090083674E+03  0.00000000000E+00 0.  1.
         21    1    1    2  503  505 -0.60223346655E+02  0.26566019622E+01 -0.12396004232E+03  0.13784049154E+03  0.00000000000E+00 0.  1.
         21    1    1    2  504  501  0.89118691240E+02  0.61825539943E+02  0.95346785268E+02  0.14441450058E+03  0.00000000000E+00 0.  1.
         21    1    1    2  505  504 -0.33385032393E+02 -0.17236143242E+02 -0.36371019494E+02  0.52292409400E+02  0.00000000000E+00 0. -1.
          1    1    1    2  501    0  0.44896878074E+01 -0.47245998663E+02  0.49497650526E+03  0.49724650069E+03  0.00000000000E+00 0.  1.
<scales pt_clust_3="30.26250" pt_clust_4="95.19455" pt_clust_5="30.26250" pt_clust_6="47.45884"></scales>
<clustering>
<clus scale="   30.262">  3  5 -1 -1</clus>
<clus scale="   47.459">  1  6  2 -1</clus>
<clus scale="   95.195">  1  4  2 -1</clus>
<clus scale="  102.623">  2  3  1 -1</clus>
</clustering>
</event>
<event>
 6    0  0.6338511E+002  0.7473326E+02  0.7546771E-02  0.1344699E+00
         21   -1    0    0  503  502  0.00000000000E+00  0.00000000000E+00  0.57997401479E+03  0.57997401479E+03  0.00000000000E+00 0.  1.
          2   -1    0    0  504    0 -0.00000000000E+00 -0.00000000000E+00 -0.25505495664E+03  0.25505495664E+03  0.00000000000E+00 0.  1.
         21    1    1    2  503  505  0.38031885879E+02 -0.60450865060E+01  0.76528326191E+02  0.85671186078E+02  0.00000000000E+00 0.  1.
         21    1    1    2  504  502 -0.82457235909E+02  0.68971319441E+02  0.46634822265E+03  0.47857800140E+03  0.00000000000E+00 0.  1.
         21    1    1    2  505  501 -0.41553940894E+01 -0.65510349611E+02 -0.22549936479E+02  0.69407296745E+02  0.00000000000E+00 0.  1.
          2    1    1    2  501    0  0.48580744119E+02  0.25841166759E+01 -0.19540755422E+03  0.20137248721E+03  0.00000000000E+00 0.  1.
<scales pt_clust_3="38.50932" pt_clust_4="14000.00000" pt_clust_5="74.73326" pt_clust_6="48.87458"></scales>
<clustering>
<clus scale="   38.509">  1  3  2 -1</clus>
<clus scale="   48.875">  2  6  1 -1</clus>
<clus scale="   74.733">  2  5  1 -1</clus>
<clus scale="   38.509">  1  3  2 -1</clus>
</clustering>
</event>
<event>
 6    0  0.6338511E+002  0.8854213E+02  0.7546771E-02  0.1306421E+00
          2   -1    0    0  503    0 -0.00000000000E+00  0.00000000000E+00  0.11868052326E+04  0.11868052326E+04  0.00000000000E+00 0. -1.
         21   -1    0    0  504  502  0.00000000000E+00 -0.00000000000E+00 -0.65500396444E+03  0.65500396444E+03  0.00000000000E+00 0. -1.
         21    1    1    2  503  505  0.48777643866E+02  0.20927987909E+02 -0.27985345228E+03  0.28484240199E+03  0.00000000000E+00 0. -1.
         21    1    1    2  504  501 -0.13351220512E+03  0.64642796649E+02 -0.23576051765E+03  0.27854482899E+03  0.00000000000E+00 0. -1.
         21    1    1    2  505  502  0.20933348052E+02 -0.24674399196E+02 -0.11152816200E+03  0.11612735231E+03  0.00000000000E+00 0. -1.
          2    1    1    2  501    0  0.63801213205E+02 -0.60896385361E+02  0.11589434000E+04  0.11622946137E+04  0.00000000000E+00 0. -1.
<scales pt_clust_3="60.24012" pt_clust_4="88.54213" pt_clust_5="32.35786" pt_clust_6="14000.00000"></scales>
<clustering>
<clus scale="   32.358">  2  5  1 -1</clus>
<clus scale="   60.240">  2  3  1 -1</clus>
<clus scale="   88.542">  2  4  1 -1</clus>
<clus scale="   32.358">  2  3  1 -1</clus>
</clustering>
</event>
<event>
 6    0  0.6338511E+002  0.1558899E+03  0.7546771E-02  0.1193417E+00
          1   -1    0    0  503    0 -0.00000000000E+00  0.00000000000E+00  0.19703330969E+04  0.19703330969E+04  0.00000000000E+00 0. -1.
         21   -1    0    0  504  502  0.00000000000E+00 -0.00000000000E+00 -0.41059921251E+02  0.41059921251E+02  0.00000000000E+00 0. -1.
         21    1    1    2  503  502 -0.14492302150E+01 -0.38176787520E+02  0.37464205738E+02  0.53508261840E+02  0.00000000000E+00 0. -1.
         21    1    1    2  504  505 -0.72201042965E+02  0.16961262301E+03  0.28382621412E+03  0.33843574325E+03  0.00000000000E+00 0. -1.
         21    1    1    2  505  501  0.10019584245E+03 -0.11434687518E+03  0.10961111789E+04  0.11066047764E+04  0.00000000000E+00 0. -1.
          1    1    1    2  501    0 -0.26545569266E+02 -0.17088960315E+02  0.51187157691E+03  0.51284423665E+03  0.00000000000E+00 0. -1.
<scales pt_clust_3="38.77687" pt_clust_4="14000.00000" pt_clust_5="155.88989" pt_clust_6="31.57055"></scales>
<clustering>
<clus scale="   31.571">  1  6  2 -1</clus>
<clus scale="   38.777">  2  3  1 -1</clus>
<clus scale="  155.890">  1  5  2 -1</clus>
<clus scale="   38.777">  2  3  1 -1</clus>
</clustering>
</event>
<event>
 6    0  0.6338511E+002  0.1074809E+03  0.7546771E-02  0.1265307E+00
         21   -1    0    0  504  502  0.00000000000E+00  0.00000000000E+00  0.25984821889E+04  0.25984821889E+04  0.00000000000E+00 0.  1.
         -2   -1    0    0    0  501 -0.00000000000E+00 -0.00000000000E+00 -0.76216682147E+03  0.76216682147E+03  0.00000000000E+00 0. -1.
         21    1    1    2  503  502  0.57907957559E+02  0.13521674839E+03  0.11293515490E+04  0.11388906101E+04  0.00000000000E+00 0.  1.
         21    1    1    2  504  505 -0.20741729954E+02 -0.26054833836E+02  0.11549380883E+04  0.11554181328E+04  0.00000000000E+00 0.  1.
         21    1    1    2  505  501 -0.12579974314E+02 -0.76711003034E+02  0.30373729408E+03  0.31352699654E+03  0.00000000000E+00 0. -1.
         -2    1    1    2    0  503 -0.24586253291E+02 -0.32450911525E+02 -0.75171156396E+03  0.75281327094E+03  0.00000000000E+00 0. -1.
<scales pt_clust_3="107.48087" pt_clust_4="33.30276" pt_clust_5="14000.00000" pt_clust_6="40.72567"></scales>
<clustering>
<clus scale="   33.303">  1  4  2 -1</clus>
<clus scale="   40.726">  2  6  1 -1</clus>
<clus scale="  107.481">  1  3  2 -1</clus>
<clus scale="   33.303">  1  3  2 -1</clus>
</clustering>
</event>
<event>
 6    0  0.6338511E+002  0.1111971E+03  0.7546771E-02  0.1258369E+00
         -3   -1    0    0    0  501 -0.00000000000E+00  0.00000000000E+00  0.47402797753E+03  0.47402797753E+03  0.00000000000E+00 0. -1.
         21   -1    0    0  504  502  0.00000000000E+00 -0.00000000000E+00 -0.15125397158E+03  0.15125397158E+03  0.00000000000E+00 0.  1.
         21    1    1    2  503  501  0.16951802913E+01 -0.12518936228E+03  0.11897244798E+03  0.17271274835E+03  0.00000000000E+00 0.  1.
         21    1    1    2  504  503  0.38428706295E+02 -0.70337560415E+01 -0.85896550988E+02  0.94363428632E+02  0.00000000000E+00 0.  1.
         21    1    1    2  505  502  0.96613926343E+01  0.34698996699E+02 -0.11429055140E+02  0.37788704409E+02  0.00000000000E+00 0. -1.
         -3    1    1    2    0  505 -0.49785279220E+02  0.97524121618E+02  0.30112716410E+03  0.32041706772E+03  0.00000000000E+00 0. -1.
<scales pt_clust_3="111.19708" pt_clust_4="48.62501" pt_clust_5="36.01892" pt_clust_6="14000.00000"></scales>
<clustering>
<clus scale="   36.019">  2  5  1 -1</clus>
<clus scale="   48.625">  2  4  1 -1</clus>
<clus scale="  111.197">  2  3  1 -1</clus>
<clus scale="   36.019">  2  3  1 -1</clus>
</clustering>
</event>
<event>
 6    0  0.6338511E+002  0.7925090E+02  0.7546771E-02  0.1331191E+00
          2   -1    0    0  502    0 -0.00000000000E+00  0.00000000000E+00  0.36896875631E+04  0.36896875631E+04  0.00000000000E+00 0.  1.
         21   -1    0    0  503  502  0.00000000000E+00 -0.00000000000E+00 -0.84333323312E+03  0.84333323312E+03  0.00000000000E+00 0.  1.
         21    1    1    2  503  504  0.10729907443E+02  0.72391401801E+02 -0.39327698683E+03  0.40002804194E+03  0.00000000000E+00 0.  1.
         21    1    1    2  504  505  0.47487731324E+02 -0.89466401253E+02 -0.42519850707E+03  0.43709620451E+03  0.00000000000E+00 0.  1.
         21    1    1    2  505  501 -0.86473187205E+02  0.62817122388E+02  0.17101054234E+03  0.20166360247E+03  0.00000000000E+00 0. -1.
          2    1    1    2  501    0  0.28255548438E+02 -0.45742122936E+02  0.34938192816E+04  0.34942329473E+04  0.00000000000E+00 0.  1.
<scales pt_clust_3="79.25090" pt_clust_4="14000.00000" pt_clust_5="62.59905" pt_clust_6="53.76540"></scales>
<clustering>
<clus scale="   53.765">  1  6  2 -1</clus>
<clus scale="   62.599">  1  5  2 -1</clus>
<clus scale="   79.251">  2  3  1 -1</clus>
<clus scale="   79.251">  2  3  1 -1</clus>
</clustering>
</event>
<event>
 6    0  0.6338511E+002  0.8311427E+02  0.7546771E-02  0.1320439E+00
          1   -1    0    0  505    0 -0.00000000000E+00  0.00000000000E+00  0.27167571108E+03  0.27167571108E+03  0.00000000000E+00 0.  1.
         21   -1    0    0  503  502  0.00000000000E+00 -0.00000000000E+00 -0.53469967884E+03  0.53469967884E+03  0.00000000000E+00 0.  1.
         21    1    1    2  503  501 -0.32408197391E+02  0.86716177324E+02 -0.21603964294E+03  0.23503853725E+03  0.00000000000E+00 0.  1.
         21    1    1    2  504  502  0.37278375375E+02 -0.10036038449E+02 -0.23606644367E+03  0.23920235192E+03  0.00000000000E+00 0.  1.
         21    1    1    2  505  504 -0.32662533666E+02 -0.97019447191E+02 -0.32876660333E+02  0.10751971463E+03  0.00000000000E+00 0.  1.
          1    1    1    2  501    0  0.27792355681E+02  0.20339308315E+02  0.22195877918E+03  0.22461478614E+03  0.00000000000E+00 0.  1.
<scales pt_clust_3="14000.00000" pt_clust_4="39.31360" pt_clust_5="83.11427" pt_clust_6="34.43984"></scales>
<clustering>
<clus scale="   34.440">  1  6  2 -1</clus>
<clus scale="   39.314">  2  4  1 -1</clus>
<clus scale="   83.114">  1  5  2 -1</clus>
<clus scale="   39.314">  2  3  1 -1</clus>
</clustering>
</event>
<event>
 6    0  0.6338511E+002  0.3556287E+03  0.7546771E-02  0.1060328E+00
         21   -1    0    0  503  502  0.00000000000E+00  0.00000000000E+00  0.16134988569E+03  0.16134988569E+03  0.00000000000E+00 0. -1.
          2   -1    0    0  504    0 -0.00000000000E+00 -0.00000000000E+00 -0.34236134786E+04  0.34236134786E+04  0.00000000000E+00 0.  1.
         21    1    1    2  503  505 -0.17538352248E+02  0.82286514563E+02  0.17317134329E+02  0.85898471581E+02  0.00000000000E+00 0.  1.
         21    1    1    2  504  502 -0.28232570957E+02 -0.22592787492E+02 -0.29324590549E+01  0.36278250035E+02  0.00000000000E+00 0. -1.
         21    1    1    2  505  501  0.20596432716E+03 -0.36767811014E+03 -0.45625910510E+03  0.62111260471E+03  0.00000000000E+00 0. -1.
          2    1    1    2  501    0 -0.16019340396E+03  0.30798438307E+03 -0.28203891631E+04  0.28416740380E+04  0.00000000000E+00 0.  1.
<scales pt_clust_3="79.19583" pt_clust_4="36.15954" pt_clust_5="14000.00000" pt_clust_6="355.62866"></scales>
<clustering>
<clus scale="   36.160">  1  4  2 -1</clus>
<clus scale="   79.196">  1  3  2 -1</clus>
<clus scale="  355.629">  2  6  1 -1</clus>
<clus scale="   36.160">  1  3  2 -1</clus>
</clustering>
</event>
<event>
 6    0  0.6338511E+002  0.1395335E+03  0.7546771E-02  0.1213958E+00
         -3   -1    0    0    0  501 -0.00000000000E+00  0.00000000000E+00  0.10233718788E+04  0.10233718788E+04  0.00000000000E+00 0. -1.
         21   -1    0    0  503  502  0.00000000000E+00 -0.00000000000E+00 -0.48626177167E+03  0.48626177167E+03  0.00000000000E+00 0.  1.
         21    1    1    2  503  504 -0.15363066881E+02 -0.56409163209E+02 -0.33322162983E+03  0.33831150158E+03  0.00000000000E+00 0.  1.
         21    1    1    2  504  501  0.24305528402E+02  0.59756694491E+02  0.25606768306E+02  0.69406972491E+02  0.00000000000E+00 0.  1.
         21    1    1    2  505  502  0.13087672919E+03 -0.78412537046E+01 -0.88550791507E+02  0.15821329331E+03  0.00000000000E+00 0.  1.
         -3    1    1    2    0  505 -0.13981919071E+03  0.44937224233E+01  0.93327576012E+03  0.94370188304E+03  0.00000000000E+00 0. -1.
<scales pt_clust_3="58.46381" pt_clust_4="56.07386" pt_clust_5="139.53349" pt_clust_6="14000.00000"></scales>
<clustering>
<clus scale="   58.464">  2  3  1 -1</clus>
<clus scale="   56.074">  2  4  1 -1</clus>
<clus scale="  139.533">  2  5  1 -1</clus>
<clus scale="   58.464">  2  3  1 -1</clus>
</clustering>
</event>
<event>
 6    0  0.6338511E+002  0.1540615E+03  0.7546771E-02  0.1195569E+00
          2   -1    0    0  504    0 -0.00000000000E+00  0.00000000000E+00  0.49918244962E+04  0.49918244962E+04  0.00000000000E+00 0.  1.
         21   -1    0    0  503  502  0.00000000000E+00 -0.00000000000E+00 -0.32337663149E+02  0.32337663149E+02  0.00000000000E+00 0. -1.
         21    1    1    2  503  501  0.12527280854E+03  0.30563192350E+02  0.15909225295E+03  0.20478703630E+03  0.00000000000E+00 0. -1.
         21    1    1    2  504  505  0.20259799086E+02  0.43076800274E+02  0.10430375331E+03  0.11465314272E+03  0.00000000000E+00 0. -1.
         21    1    1    2  505  502 -0.21427086294E+02  0.21053083500E+02  0.72238169817E+02  0.78234938042E+02  0.00000000000E+00 0.  1.
          2    1    1    2  501    0 -0.12410552133E+03 -0.94693076123E+02  0.46238526570E+04  0.46264870423E+04  0.00000000000E+00 0.  1.
<scales pt_clust_3="154.06150" pt_clust_4="49.60763" pt_clust_5="30.03918" pt_clust_6="14000.00000"></scales>
<clustering>
<clus scale="   30.039">  2  5  1 -1</clus>
<clus scale="   49.608">  2  4  1 -1</clus>
<clus scale="  154.061">  2  3  1 -1</clus>
<clus scale="   30.039">  2  3  1 -1</clus>
</clustering>
</event>
<event>
 6    0  0.6338511E+002  0.8988513E+02  0.7546771E-02  0.1303130E+00
          2   -1    0    0  505    0 -0.00000000000E+00  0.00000000000E+00  0.25663737820E+04  0.25663737820E+04  0.00000000000E+00 0.  1.
         21   -1    0    0  504  502  0.00000000000E+00 -0.00000000000E+00 -0.11642373247E+03  0.11642373247E+03  0.00000000000E+00 0. -1.
         21    1    1    2  503  502  0.83376438437E+01  0.36410414061E+02 -0.80043533762E+01  0.38200840697E+02  0.00000000000E+00 0.  1.
         21    1    1    2  504  501  0.29692569665E+02  0.25441110834E+02 -0.83553829203E+02  0.92250426493E+02  0.00000000000E+00 0. -1.
         21    1    1    2  505  503 -0.11911708475E+03 -0.63173089479E+02  0.10480150541E+04  0.10566528629E+04  0.00000000000E+00 0. -1.
          2    1    1    2  501    0  0.81086871240E+02  0.13215645839E+01  0.14934931780E+04  0.14956933844E+04  0.00000000000E+00 0.  1.
<scales pt_clust_3="37.35284" pt_clust_4="70.55667" pt_clust_5="89.88513" pt_clust_6="14000.00000"></scales>
<clustering>
<clus scale="   37.353">  2  3  1 -1</clus>
<clus scale="   70.557">  2  4  1 -1</clus>
<clus scale="   89.885">  2  5  1 -1</clus>
<clus scale="   37.353">  2  3  1 -1</clus>
</clustering>
</event>
<event>
 6    0  0.6338511E+002  0.2287954E+03  0.7546771E-02  0.1127491E+00
          3   -1    0    0  503    0 -0.00000000000E+00  0.00000000000E+00  0.11377203170E+04  0.11377203170E+04  0.00000000000E+00 0. -1.
         21   -1    0    0  505  502  0.00000000000E+00 -0.00000000000E+00 -0.11247330982E+04  0.11247330982E+04  0.00000000000E+00 0. -1.
         21    1    1    2  503  504  0.36865364373E+03  0.11668997092E+03  0.38102617797E+03  0.54286555117E+03  0.00000000000E+00 0. -1.
         21    1    1    2  504  502 -0.59387664302E+02 -0.12064904641E+03 -0.33607885851E+03  0.36198354412E+03  0.00000000000E+00 0. -1.
         21    1    1    2  505  501 -0.10757601418E+03 -0.40951979190E+01 -0.67505007631E+03  0.68358026229E+03  0.00000000000E+00 0. -1.
          3    1    1    2  501    0 -0.20168996524E+03  0.80542734042E+01  0.64308997571E+03  0.67402405762E+03  0.00000000000E+00 0. -1.
<scales pt_clust_3="14000.00000" pt_clust_4="189.70001" pt_clust_5="107.65393" pt_clust_6="228.79537"></scales>
<clustering>
<clus scale="  107.654">  2  5  1 -1</clus>
<clus scale="  189.700">  2  4  1 -1</clus>
<clus scale="  228.795">  1  6  2 -1</clus>
<clus scale="  107.654">  2  3  1 -1</clus>
</clustering>
</event>
<event>
 6    0  0.6338511E+002  0.1927139E+03  0.7546771E-02  0.1156036E+00
         -4   -1    0    0    0  501 -0.00000000000E+00  0.00000000000E+00  0.53476084905E+03  0.53476084905E+03  0.00000000000E+00 0.  1.
         21   -1    0    0  501  502  0.00000000000E+00 -0.00000000000E+00 -0.50744251202E+03  0.50744251202E+03  0.00000000000E+00 0.  1.
         21    1    1    2  503  502 -0.62744103269E+02  0.18252938798E+03 -0.33953470364E+03  0.39056064183E+03  0.00000000000E+00 0.  1.
         21    1    1    2  504  503  0.80345969564E+02 -0.17494910902E+03 -0.40304680965E+02  0.19669044939E+03  0.00000000000E+00 0.  1.
         21    1    1    2  505  504 -0.33185998178E+02 -0.87449027880E+02  0.98857574193E+02  0.13609358151E+03  0.00000000000E+00 0.  1.
         -4    1    1    2    0  505  0.15584131883E+02  0.79868748923E+02  0.30830014745E+03  0.31885868835E+03  0.00000000000E+00 0.  1.
<scales pt_clust_3="192.71391" pt_clust_4="14000.00000" pt_clust_5="51.45890" pt_clust_6="81.37495"></scales>
<clustering>
<clus scale="   81.375">  1  6  2 -1</clus>
<clus scale="   51.459">  1  5  2 -1</clus>
<clus scale="  192.714">  2  3  1 -1</clus>
<clus scale="  192.714">  2  3  1 -1</clus>
</clustering>
</event>
<event>
 6    0  0.6338511E+002  0.7635625E+02  0.7546771E-02  0.1339722E+00
          1   -1    0    0  504    0 -0.00000000000E+00  0.00000000000E+00  0.15699317174E+03  0.15699317174E+03  0.00000000000E+00 0.  1.
         21   -1    0    0  505  502  0.00000000000E+00 -0.00000000000E+00 -0.21794873410E+03  0.21794873410E+03  0.00000000000E+00 0. -1.
         21    1    1    2  503  501 -0.48664989971E+02 -0.62805443822E+01  0.28552515105E+01  0.49151591509E+02  0.00000000000E+00 0.  1.
         21    1    1    2  504  502  0.82159215507E+02 -0.94841923518E+01 -0.49203903763E+01  0.82851052128E+02  0.00000000000E+00 0.  1.
         21    1    1    2  505  503 -0.57972786640E+02  0.52007328155E+02 -0.13459849538E+03  0.15550678805E+03  0.00000000000E+00 0. -1.
          1    1    1    2  501    0  0.24478561104E+02 -0.36242591421E+02  0.75708071891E+02  0.87432474151E+02  0.00000000000E+00 0.  1.
<scales pt_clust_3="44.39175" pt_clust_4="76.35625" pt_clust_5="14000.00000" pt_clust_6="43.73472"></scales>
<clustering>
<clus scale="   43.735">  1  6  2 -1</clus>
<clus scale="   44.392">  1  3  2 -1</clus>
<clus scale="   76.356">  1  4  2 -1</clus>
<clus scale="   76.356">  2  3  1 -1</clus>
</clustering>
</event>
<event>
 6    0  0.6338511E+002  0.7916020E+02  0.7546771E-02  0.1331452E+00
         -1   -1    0    0    0  501 -0.00000000000E+00  0.00000000000E+00  0.20809143289E+04  0.20809143289E+04  0.00000000000E+00 0. -1.
         21   -1    0    0  505  502  0.00000000000E+00 -0.00000000000E+00 -0.18524747343E+03  0.18524747343E+03  0.00000000000E+00 0.  1.
         21    1    1    2  503  502  0.10865042369E+03 -0.20075022108E+02  0.21485725836E+03  0.24160207481E+03  0.00000000000E+00 0. -1.
         21    1    1    2  504  501 -0.47448059481E+02 -0.25893122847E+01  0.24842089457E+02  0.53620446615E+02  0.00000000000E+00 0.  1.
         21    1    1    2  505  504 -0.75903079642E+02 -0.18914533107E+02 -0.14748603433E+03  0.16694660040E+03  0.00000000000E+00 0.  1.
         -1    1    1    2    0  503  0.14700715430E+02  0.41578867500E+02  0.18034535420E+04  0.18039926806E+04  0.00000000000E+00 0. -1.
<scales pt_clust_3="14000.00000" pt_clust_4="45.48697" pt_clust_5="79.16020" pt_clust_6="44.10117"></scales>
<clustering>
<clus scale="   44.101">  1  6  2 -1</clus>
<clus scale="   45.487">  1  4  2 -1</clus>
<clus scale="   79.160">  2  5  1 -1</clus>
<clus scale="   79.160">  2  3  1 -1</clus>
</clustering>
</event>
<event>
 6    0  0.8626613E+002  0.9570113E+02  0.7546771E-02  0.1289605E+00
          2   -1    0    0  505    0 -0.00000000000E+00  0.00000000000E+00  0.15539438590E+04  0.15539438590E+04  0.00000000000E+00 0. -1.
         21   -1    0    0  503  502  0.00000000000E+00 -0.00000000000E+00 -0.16346259950E+04  0.16346259950E+04  0.00000000000E+00 0.  1.
         21    1    1    2  503  501  0.19677044533E+02  0.80729171212E+02  0.30322880167E+03  0.31440752428E+03  0.00000000000E+00 0.  1.
         21    1    1    2  504  502 -0.51538492187E+02 -0.80730841228E+02 -0.16172273076E+04  0.16200610635E+04  0.00000000000E+00 0.  1.
         21    1    1    2  505  504  0.12642389084E+02  0.32266712114E+02  0.19619115337E+02  0.39823113879E+02  0.00000000000E+00 0. -1.
          2    1    1    2  501    0  0.19219058570E+02 -0.32265042098E+02  0.12136972546E+04  0.12142781523E+04  0.00000000000E+00 0. -1.
<scales pt_clust_3="95.70113" pt_clust_4="14000.00000" pt_clust_5="34.65502" pt_clust_6="30.01519"></scales>
<clustering>
<clus scale="   34.655">  1  5  2 -1</clus>
<clus scale="   30.015">  1  6  2 -1</clus>
<clus scale="   95.701">  1  3  2 -1</clus>
<clus scale="   95.701">  2  3  1 -1</clus>
</clustering>
</event>
<event>
 6    0  0.6338511E+002  0.2370689E+03  0.7546771E-02  0.1121761E+00
          2   -1    0    0  503    0 -0.00000000000E+00  0.00000000000E+00  0.23662048000E+04  0.23662048000E+04  0.00000000000E+00 0.  1.
         21   -1    0    0  505  502  0.00000000000E+00 -0.00000000000E+00 -0.19419755930E+03  0.19419755930E+03  0.00000000000E+00 0. -1.
         21    1    1    2  503  502 -0.20496720830E+03  0.12732879619E+02  0.27105816047E+01  0.20538020828E+03  0.00000000000E+00 0. -1.
         21    1    1    2  504  501  0.21273183404E+03 -0.12243809190E+02  0.82041414825E+03  0.84763442517E+03  0.00000000000E+00 0.  1.
         21    1    1    2  505  504 -0.40269195945E+02  0.25014413563E+02 -0.71836201810E+02  0.86068396746E+02  0.00000000000E+00 0. -1.
          2    1    1    2  501    0  0.32504570202E+02 -0.25503483992E+02  0.14207187127E+04  0.14213193291E+04  0.00000000000E+00 0.  1.
<scales pt_clust_3="237.06887" pt_clust_4="14000.00000" pt_clust_5="47.09682" pt_clust_6="41.31555"></scales>
<clustering>
<clus scale="   41.316">  1  6  2 -1</clus>
<clus scale="   47.097">  2  5  1 -1</clus>
<clus scale="  237.069">  2  3  1 -1</clus>
<clus scale="   47.097">  2  3  1 -1</clus>
</clustering>
</event>
<event>
 6    0  0.6338511E+002  0.1383029E+03  0.7546771E-02  0.1215631E+00
          3   -1    0    0  505    0 -0.00000000000E+00  0.00000000000E+00  0.58870173627E+03  0.58870173627E+03  0.00000000000E+00 0. -1.
         21   -1    0    0  501  502  0.00000000000E+00 -0.00000000000E+00 -0.20476869859E+04  0.20476869859E+04  0.00000000000E+00 0. -1.
         21    1    1    2  503  502  0.17080755991E+02 -0.13940060563E+03 -0.19214614899E+04  0.19265872776E+04  0.00000000000E+00 0. -1.
         21    1    1    2  504  503  0.28489782447E+02  0.10920269058E+03 -0.41082854330E+02  0.12010285697E+03  0.00000000000E+00 0.  1.
         21    1    1    2  505  504 -0.48934984839E+02  0.85659243927E+02  0.17156060095E+02  0.10013225859E+03  0.00000000000E+00 0.  1.
          3    1    1    2  501    0  0.33644464016E+01 -0.55461328874E+02  0.48640303452E+03  0.48956632900E+03  0.00000000000E+00 0. -1.
<scales pt_clust_3="138.30285" pt_clust_4="14000.00000" pt_clust_5="71.09620" pt_clust_6="55.56328"></scales>
<clustering>
<clus scale="   55.563">  1  6  2 -1</clus>
<clus scale="   71.096">  1  5  2 -1</clus>
<clus scale="  138.303">  2  3  1 -1</clus>
<clus scale="  138.303">  2  3  1 -1</clus>
</clustering>
</event>
<event>
 6    0  0.7667215E+002  0.9877473E+02  0.7546771E-02  0.1282894E+00
          2   -1    0    0  505    0 -0.00000000000E+00  0.00000000000E+00  0.16380104507E+04  0.16380104507E+04  0.00000000000E+00 0. -1.
         21   -1    0    0  503  502  0.00000000000E+00 -0.00000000000E+00 -0.12262210083E+04  0.12262210083E+04  0.00000000000E+00 0.  1.
         21    1    1    2  503  501 -0.36423036828E+02 -0.98702716611E+01 -0.33163118175E+02  0.50237956582E+02  0.00000000000E+00 0. -1.
         21    1    1    2  504  502  0.22506422102E+02  0.52058283576E+02 -0.57844759085E+03  0.58122131696E+03  0.00000000000E+00 0.  1.
         21    1    1    2  505  504  0.10484644137E+03 -0.80578944638E+02 -0.59593611046E+03  0.61043065973E+03  0.00000000000E+00 0.  1.
          2    1    1    2  501    0 -0.90929826647E+02  0.38390932723E+02  0.16193362619E+04  0.16223415257E+04  0.00000000000E+00 0. -1.
<scales pt_clust_3="37.73672" pt_clust_4="47.45771" pt_clust_5="98.77473" pt_clust_6="14000.00000"></scales>
<clustering>
<clus scale="   37.737">  2  3  1 -1</clus>
<clus scale="   47.458">  2  4  1 -1</clus>
<clus scale="   98.775">  2  5  1 -1</clus>
<clus scale="   37.737">  2  3  1 -1</clus>
</clustering>
</event>
<event>
 6    0  0.6338511E+002  0.7768810E+02  0.7546771E-02  0.1335743E+00
          2   -1    0    0  505    0 -0.00000000000E+00  0.00000000000E+00  0.70230770898E+03  0.70230770898E+03  0.00000000000E+00 0.  1.
         21   -1    0    0  501  502  0.00000000000E+00 -0.00000000000E+00 -0.53519416104E+02  0.53519416104E+02  0.00000000000E+00 0. -1.
         21    1    1    2  503  504 -0.41187099359E+02  0.47523851805E+02  0.61528700080E+02  0.87981103526E+02  0.00000000000E+00 0. -1.
         21    1    1    2  504  502 -0.15636933119E+02 -0.11708789059E+03  0.93846595454E+02  0.15086839058E+03  0.00000000000E+00 0. -1.
         21    1    1    2  505  503  0.13170890846E+02  0.31223246938E+02  0.42859163313E+03  0.42992924011E+03  0.00000000000E+00 0.  1.
          2    1    1    2  501    0  0.43653141632E+02  0.38340791842E+02  0.64821364214E+02  0.87048390864E+02  0.00000000000E+00 0.  1.
<scales pt_clust_3="77.68810" pt_clust_4="14000.00000" pt_clust_5="33.88751" pt_clust_6="66.70878"></scales>
<clustering>
<clus scale="   33.888">  1  5  2 -1</clus>
<clus scale="   66.709">  2  6  1 -1</clus>
<clus scale="   77.688">  1  3  2 -1</clus>
<clus scale="   66.709">  2  3  1 -1</clus>
</clustering>
</event>
<event>
 6    0  0.6338511E+002  0.6652307E+02  0.7546771E-02  0.1372332E+00
         21   -1    0    0  503  502  0.00000000000E+00  0.00000000000E+00  0.21832423828E+03  0.21832423828E+03  0.00000000000E+00 0.  1.
          2   -1    0    0  505    0 -0.00000000000E+00 -0.00000000000E+00 -0.68373220236E+03  0.68373220236E+03  0.00000000000E+00 0.  1.
         21    1    1    2  503  501 -0.29187269169E+00  0.65606755391E+02  0.19430400149E+03  0.20508139003E+03  0.00000000000E+00 0.  1.
         21    1    1    2  504  502 -0.74924152198E+01 -0.10521613067E+03 -0.21534709356E+03  0.23979353857E+03  0.00000000000E+00 0.  1.
         21    1    1    2  505  504  0.50122755412E+02  0.14977215542E+02 -0.30513162310E+03  0.30958345403E+03  0.00000000000E+00 0.  1.
          2    1    1    2  501    0 -0.42338467500E+02  0.24632159736E+02 -0.13923324891E+03  0.14759805800E+03  0.00000000000E+00 0.  1.
<scales pt_clust_3="14000.00000" pt_clust_4="66.52307" pt_clust_5="38.96641" pt_clust_6="48.98254"></scales>
<clustering>
<clus scale="   48.983">  2  6  1 -1</clus>
<clus scale="   38.966">  2  5  1 -1</clus>
<clus scale="   66.523">  2  4  1 -1</clus>
<clus scale="   66.523">  1  3  2 -1</clus>
</clustering>
</event>
<event>
 6    0  0.6338511E+002  0.9699230E+02  0.7546771E-02  0.1286751E+00
         -2   -1    0    0    0  501 -0.00000000000E+00  0.00000000000E+00  0.48387036308E+03  0.48387036308E+03  0.00000000000E+00 0.  1.
         21   -1    0    0  503  502  0.00000000000E+00 -0.00000000000E+00 -0.12775781782E+03  0.12775781782E+03  0.00000000000E+00 0.  1.
         21    1    1    2  503  504  0.69754955100E+02 -0.10978068429E+03 -0.38422608665E+02  0.13562392584E+03  0.00000000000E+00 0.  1.
         21    1    1    2  504  501  0.58740411043E+01  0.94064222811E+02  0.26029266294E+03  0.27683000696E+03  0.00000000000E+00 0.  1.
         21    1    1    2  505  502 -0.39581594190E+02  0.19955260500E+02 -0.14052980157E+02  0.46501626547E+02  0.00000000000E+00 0.  1.
         -2    1    1    2    0  505 -0.36047402015E+02 -0.42387990211E+01  0.14829547115E+03  0.15267262155E+03  0.00000000000E+00 0.  1.
<scales pt_clust_3="96.99230" pt_clust_4="14000.00000" pt_clust_5="45.81129" pt_clust_6="36.29577"></scales>
<clustering>
<clus scale="   36.296">  1  6  2 -1</clus>
<clus scale="   45.811">  2  5  1 -1</clus>
<clus scale="   96.992">  2  3  1 -1</clus>
<clus scale="   45.811">  2  3  1 -1</clus>
</clustering>
</event>
<event>
 6    0  0.6338511E+002  0.1649334E+03  0.7546771E-02  0.1183237E+00
         -1   -1    0    0    0  501 -0.00000000000E+00  0.00000000000E+00  0.45256140117E+03  0.45256140117E+03  0.00000000000E+00 0. -1.
         21   -1    0    0  503  502  0.00000000000E+00 -0.00000000000E+00 -0.72962175600E+03  0.72962175600E+03  0.00000000000E+00 0.  1.
         21    1    1    2  503  504 -0.66549088874E+02  0.11219381279E+03  0.79925408681E+02  0.15298465221E+03  0.00000000000E+00 0.  1.
         21    1    1    2  504  501 -0.15050797986E+03  0.28586665800E+02  0.13680544697E+03  0.20539128458E+03  0.00000000000E+00 0.  1.
         21    1    1    2  505  502  0.13188897374E+03 -0.10559500848E+03 -0.63394531917E+03  0.65607291890E+03  0.00000000000E+00 0.  1.
         -1    1    1    2    0  505  0.85168094995E+02 -0.35185470111E+02  0.14015410869E+03  0.16773430149E+03  0.00000000000E+00 0. -1.
<scales pt_clust_3="164.93338" pt_clust_4="102.05778" pt_clust_5="14000.00000" pt_clust_6="92.15000"></scales>
<clustering>
<clus scale="   92.150">  1  6  2 -1</clus>
<clus scale="  102.058">  1  4  2 -1</clus>
<clus scale="  164.933">  1  3  2 -1</clus>
<clus scale="  164.933">  2  3  1 -1</clus>
</clustering>
</event>
<event>
 6    0  0.6338511E+002  0.9733208E+02  0.7546771E-02  0.1286008E+00
         21   -1    0    0  503  502  0.00000000000E+00  0.00000000000E+00  0.54528566034E+03  0.54528566034E+03  0.00000000000E+00 0. -1.
          2   -1    0    0  504    0 -0.00000000000E+00 -0.00000000000E+00 -0.20853922474E+04  0.20853922474E+04  0.00000000000E+00 0.  1.
         21    1    1    2  503  505 -0.10193985888E+02  0.32896314493E+02  0.40529449466E+03  0.40675510108E+03  0.00000000000E+00 0. -1.
         21    1    1    2  504  502 -0.50501990341E+02  0.99216092081E+01  0.91871185173E+02  0.10530528962E+03  0.00000000000E+00 0.  1.
         21    1    1    2  505  501  0.14163694589E+03  0.97275908462E+01 -0.88156654990E+02  0.16711447060E+03  0.00000000000E+00 0.  1.
          2    1    1    2  501    0 -0.80940969662E+02 -0.52545514547E+02 -0.19491156119E+04  0.19515030464E+04  0.00000000000E+00 0.  1.
<scales pt_clust_3="34.43958" pt_clust_4="66.59105" pt_clust_5="97.33208" pt_clust_6="14000.00000"></scales>
<clustering>
<clus scale="   34.440">  1  3  2 -1</clus>
<clus scale="   66.591">  1  4  2 -1</clus>
<clus scale="   97.332">  1  5  2 -1</clus>
<clus scale="   34.440">  1  3  2 -1</clus>
</clustering>
</event>
<event>
 6    0  0.6338511E+002  0.1193821E+03  0.7546771E-02  0.1244120E+00
          2   -1    0    0  502    0 -0.00000000000E+00  0.00000000000E+00  0.27239474727E+04  0.27239474727E+04  0.00000000000E+00 0.  1.
         21   -1    0    0  503  502  0.00000000000E+00 -0.00000000000E+00 -0.49655922087E+02  0.49655922087E+02  0.00000000000E+00 0.  1.
         21    1    1    2  503  504 -0.17757428049E+02 -0.63291517564E+02 -0.14507430371E+02  0.67317219063E+02  0.00000000000E+00 0.  1.
         21    1    1    2  504  505  0.84516468349E+02 -0.29171761536E+02  0.27423540354E+03  0.28844251013E+03  0.00000000000E+00 0.  1.
         21    1    1    2  505  501 -0.86437572966E+01  0.52807273158E+02  0.83389329892E+03  0.83560837515E+03  0.00000000000E+00 0. -1.
          2    1    1    2  501    0 -0.58115283003E+02  0.39656005942E+02  0.15806702785E+04  0.15822352904E+04  0.00000000000E+00 0.  1.
<scales pt_clust_3="65.73540" pt_clust_4="106.80634" pt_clust_5="46.51244" pt_clust_6="46.51244"></scales>
<clustering>
<clus scale="   46.512">  5  6 -1 -1</clus>
<clus scale="   65.735">  2  3  1 -1</clus>
<clus scale="  106.806">  2  4  1 -1</clus>
<clus scale="   65.735">  2  3  1 -1</clus>
</clustering>
</event>
<event>
 6    0  0.6338511E+002  0.1189572E+03  0.7546771E-02  0.1244827E+00
          1   -1    0    0  503    0 -0.00000000000E+00  0.00000000000E+00  0.65758851252E+03  0.65758851252E+03  0.00000000000E+00 0.  1.
         21   -1    0    0  504  502  0.00000000000E+00 -0.00000000000E+00 -0.48169302500E+03  0.48169302500E+03  0.00000000000E+00 0.  1.
         21    1    1    2  503  502 -0.75937310232E+02 -0.33663743380E+02 -0.13227636810E+03  0.15619462302E+03  0.00000000000E+00 0.  1.
         21    1    1    2  504  505  0.50117774186E+02  0.75331265555E+01 -0.16286642845E+03  0.17056967140E+03  0.00000000000E+00 0.  1.
         21    1    1    2  505  501  0.97283125851E+02  0.21483885443E+02 -0.15398544017E+03  0.18340414306E+03  0.00000000000E+00 0.  1.
          1    1    1    2  501    0 -0.71463589806E+02  0.46467313818E+01  0.62502372423E+03  0.62911310004E+03  0.00000000000E+00 0.  1.
<scales pt_clust_3="108.70823" pt_clust_4="34.45260" pt_clust_5="34.45260" pt_clust_6="71.61450"></scales>
<clustering>
<clus scale="   34.453">  4  5 -1 -1</clus>
<clus scale="   71.615">  1  6  2 -1</clus>
<clus scale="  108.708">  2  3  1 -1</clus>
<clus scale="  108.708">  2  3  1 -1</clus>
</clustering>
</event>
<event>
 6    0  0.6338511E+002  0.1253993E+03  0.7546771E-02  0.1234447E+00
         -2   -1    0    0    0  501 -0.00000000000E+00  0.00000000000E+00  0.12503860708E+04  0.12503860708E+04  0.00000000000E+00 0. -1.
         21   -1    0    0  505  502  0.00000000000E+00 -0.00000000000E+00 -0.27421129990E+03  0.27421129990E+03  0.00000000000E+00 0. -1.
         21    1    1    2  503  501  0.42669402468E+01 -0.61262048803E+02  0.23690536985E+03  0.24473536660E+03  0.00000000000E+00 0. -1.
         21    1    1    2  504  502 -0.49179937875E+02  0.67930430512E+02  0.74693612445E+02  0.11230469901E+03  0.00000000000E+00 0. -1.
         21    1    1    2  505  503  0.12647280015E+03 -0.49976742473E+02 -0.23055668640E+03  0.26767411083E+03  0.00000000000E+00 0. -1.
         -2    1    1    2    0  504 -0.81559802523E+02  0.43308360764E+02  0.89513247499E+03  0.89988319424E+03  0.00000000000E+00 0. -1.
<scales pt_clust_3="61.41047" pt_clust_4="125.39934" pt_clust_5="14000.00000" pt_clust_6="78.56229"></scales>
<clustering>
<clus scale="   61.410">  1  3  2 -1</clus>
<clus scale="   78.562">  1  6  2 -1</clus>
<clus scale="  125.399">  1  4  2 -1</clus>
<clus scale="  125.399">  2  3  1 -1</clus>
</clustering>
</event>
<event>
 6    0  0.6338511E+002  0.1278064E+03  0.7546771E-02  0.1230747E+00
         -1   -1    0    0    0  501 -0.00000000000E+00  0.00000000000E+00  0.60511500107E+02  0.60511500107E+02  0.00000000000E+00 0.  1.
         21   -1    0    0  504  502  0.00000000000E+00 -0.00000000000E+00 -0.63597069022E+03  0.63597069022E+03  0.00000000000E+00 0. -1.
         21    1    1    2  503  502 -0.46213156675E+02 -0.31012958168E+02 -0.24136606862E+03  0.24769949234E+03  0.00000000000E+00 0. -1.
         21    1    1    2  504  501  0.64275208116E+02  0.24512610127E+02 -0.82315492267E+02  0.10727539653E+03  0.00000000000E+00 0. -1.
         21    1    1    2  505  503 -0.11965926763E+02 -0.78295403378E+02 -0.24353845889E+03  0.25609438602E+03  0.00000000000E+00 0. -1.
         -1    1    1    2    0  505 -0.60961246778E+01  0.84795751419E+02 -0.82391703327E+01  0.85412915432E+02  0.00000000000E+00 0.  1.
<scales pt_clust_3="48.46500" pt_clust_4="68.79077" pt_clust_5="48.46500" pt_clust_6="113.98128"></scales>
<clustering>
<clus scale="   48.465">  3  5 -1 -1</clus>
<clus scale="   68.791">  1  4  2 -1</clus>
<clus scale="  113.981">  1  6  2 -1</clus>
<clus scale="  127.806">  2  3  1 -1</clus>
</clustering>
</event>
<event>
 6    0  0.6338511E+002  0.1717365E+03  0.7546771E-02  0.1176049E+00
         -2   -1    0    0    0  501 -0.00000000000E+00  0.00000000000E+00  0.11385066051E+03  0.11385066051E+03  0.00000000000E+00 0. -1.
         21   -1    0    0  504  502  0.00000000000E+00 -0.00000000000E+00 -0.59556081271E+03  0.59556081271E+03  0.00000000000E+00 0. -1.
         21    1    1    2  503  505  0.15650480938E+03  0.85166989715E+02 -0.12451519134E+03  0.21737342149E+03  0.00000000000E+00 0. -1.
         21    1    1    2  504  501 -0.15858758094E+02 -0.50656442414E+02 -0.11978305925E+03  0.13101739063E+03  0.00000000000E+00 0. -1.
         21    1    1    2  505  502  0.36077941109E+02 -0.36354247507E+02 -0.16014312368E+03  0.16813408104E+03  0.00000000000E+00 0. -1.
         -2    1    1    2    0  503 -0.17672399239E+03  0.18437002058E+01 -0.77268777926E+02  0.19288658004E+03  0.00000000000E+00 0. -1.
<scales pt_clust_3="14000.00000" pt_clust_4="61.45866" pt_clust_5="51.21766" pt_clust_6="171.73650"></scales>
<clustering>
<clus scale="   51.218">  2  5  1 -1</clus>
<clus scale="   61.459">  2  4  1 -1</clus>
<clus scale="  171.737">  1  6  2 -1</clus>
<clus scale="   51.218">  2  3  1 -1</clus>
</clustering>
</event>
<event>
 6    0  0.6338511E+002  0.8612216E+02  0.7546771E-02  0.1312524E+00
          2   -1    0    0  503    0 -0.00000000000E+00  0.00000000000E+00  0.21802869529E+04  0.21802869529E+04  0.00000000000E+00 0. -1.
         21   -1    0    0  501  502  0.00000000000E+00 -0.00000000000E+00 -0.16818341329E+02  0.16818341329E+02  0.00000000000E+00 0. -1.
         21    1    1    2  503  504  0.27708929783E+02  0.74210854069E+02  0.10769620960E+04  0.10798714701E+04  0.00000000000E+00 0. -1.
         21    1    1    2  504  505 -0.80058702688E+01 -0.89354007871E+02  0.23415026595E+03  0.25074804033E+03  0.00000000000E+00 0. -1.
         21    1    1    2  505  502 -0.50290207922E+02  0.17937126783E+02  0.98804943261E+02  0.11230878124E+03  0.00000000000E+00 0. -1.
          2    1    1    2  501    0  0.30587148407E+02 -0.27939729807E+01  0.75355130629E+03  0.75417700253E+03  0.00000000000E+00 0. -1.
<scales pt_clust_3="86.12216" pt_clust_4="14000.00000" pt_clust_5="51.19504" pt_clust_6="30.71449"></scales>
<clustering>
<clus scale="   30.714">  1  6  2 -1</clus>
<clus scale="   51.195">  2  5  1 -1</clus>
<clus scale="   86.122">  1  3  2 -1</clus>
<clus scale="   51.195">  2  3  1 -1</clus>
</clustering>
</event>
<event>
 6    0  0.6338511E+002  0.1603614E+03  0.7546771E-02  0.1188289E+00
          1   -1    0    0  505    0 -0.00000000000E+00  0.00000000000E+00  0.18727589181E+03  0.18727589181E+03  0.00000000000E+00 0.  1.
         21   -1    0    0  501  502  0.00000000000E+00 -0.00000000000E+00 -0.16228785059E+04  0.16228785059E+04  0.00000000000E+00 0.  1.
         21    1    1    2  503  504  0.34393953865E+02  0.44020666628E+02 -0.35565141056E+03  0.36001206784E+03  0.00000000000E+00 0.  1.
         21    1    1    2  504  502  0.23325247532E+02  0.26028495530E+02 -0.96918508916E+03  0.96981507867E+03  0.00000000000E+00 0.  1.
         21    1    1    2  505  503 -0.62883296813E+02  0.99747300021E+02 -0.23965382745E+03  0.26709135121E+03  0.00000000000E+00 0.  1.
          1    1    1    2  501    0  0.51640954160E+01 -0.16979646218E+03  0.12888771310E+03  0.21323589998E+03  0.00000000000E+00 0.  1.
<scales pt_clust_3="74.97260" pt_clust_4="34.95068" pt_clust_5="14000.00000" pt_clust_6="160.36143"></scales>
<clustering>
<clus scale="   34.951">  2  4  1 -1</clus>
<clus scale="   74.973">  2  3  1 -1</clus>
<clus scale="  160.361">  1  6  2 -1</clus>
<clus scale="   34.951">  2  3  1 -1</clus>
</clustering>
</event>
<event>
 6    0  0.6338511E+002  0.1115763E+03  0.7546771E-02  0.1257678E+00
         21   -1    0    0  503  502  0.00000000000E+00  0.00000000000E+00  0.31935407144E+02  0.31935407144E+02  0.00000000000E+00 0. -1.
          2   -1    0    0  504    0 -0.00000000000E+00 -0.00000000000E+00 -0.12881634111E+04  0.12881634111E+04  0.00000000000E+00 0. -1.
         21    1    1    2  503  501  0.31835217061E+01  0.79224940300E+02 -0.16108948375E+03  0.17954539190E+03  0.00000000000E+00 0. -1.
         21    1    1    2  504  505 -0.45345180432E+02 -0.14647848608E+03 -0.77847891251E+03  0.79343654409E+03  0.00000000000E+00 0. -1.
         21    1    1    2  505  502  0.54279741267E+02  0.29691805867E+02 -0.55886173457E+02  0.83373605123E+02  0.00000000000E+00 0. -1.
          2    1    1    2  501    0 -0.12118082541E+02  0.37561739914E+02 -0.26077343426E+03  0.26374327716E+03  0.00000000000E+00 0. -1.
<scales pt_clust_3="14000.00000" pt_clust_4="111.57633" pt_clust_5="62.42734" pt_clust_6="39.46812"></scales>
<clustering>
<clus scale="   39.468">  2  6  1 -1</clus>
<clus scale="   62.427">  1  5  2 -1</clus>
<clus scale="  111.576">  2  4  1 -1</clus>
<clus scale="   62.427">  1  3  2 -1</clus>
</clustering>
</event>
<event>
 6    0  0.6338511E+002  0.1810835E+03  0.7546771E-02  0.1166759E+00
         21   -1    0    0  504  502  0.00000000000E+00  0.00000000000E+00  0.74236808126E+03  0.74236808126E+03  0.00000000000E+00 0.  1.
         -2   -1    0    0    0  501 -0.00000000000E+00 -0.00000000000E+00 -0.88375796866E+03  0.88375796866E+03  0.00000000000E+00 0.  1.
         21    1    1    2  503  501 -0.66011819991E+02  0.76547877628E+02  0.75497772151E+02  0.12616279780E+03  0.00000000000E+00 0.  1.
         21    1    1    2  504  503 -0.32613204645E+02 -0.31362477343E+00  0.60589782301E+03  0.60677499240E+03  0.00000000000E+00 0.  1.
         21    1    1    2  505  502  0.18164365672E+02  0.97167377523E+02 -0.82911608540E+02  0.12901851908E+03  0.00000000000E+00 0.  1.
         -2    1    1    2    0  505  0.80460658964E+02 -0.17340163038E+03 -0.73987387402E+03  0.76416974065E+03  0.00000000000E+00 0.  1.
<scales pt_clust_3="14000.00000" pt_clust_4="32.61471" pt_clust_5="97.93302" pt_clust_6="181.08352"></scales>
<clustering>
<clus scale="   32.615">  1  4  2 -1</clus>
<clus scale="   97.933">  1  5  2 -1</clus>
<clus scale="  181.084">  2  6  1 -1</clus>
<clus scale="   32.615">  1  3  2 -1</clus>
</clustering>
</event>
<event>
 6    0  0.6338511E+002  0.8000981E+02  0.7546771E-02  0.1329024E+00
         21   -1    0    0  503  502  0.00000000000E+00  0.00000000000E+00  0.76105227463E+03  0.76105227463E+03  0.00000000000E+00 0.  1.
          2   -1    0    0  502    0 -0.00000000000E+00 -0.00000000000E+00 -0.22635132717E+04  0.22635132717E+04  0.00000000000E+00 0. -1.
         21    1    1    2  503  505  0.53052395945E+02 -0.61336741554E+02  0.69197600163E+03  0.69671194866E+03  0.00000000000E+00 0.  1.
         21    1    1    2  504  501 -0.64997965421E+01  0.67149222188E+02 -0.61595948993E+02  0.91352757637E+02  0.00000000000E+00 0. -1.
         21    1    1    2  505  504 -0.95848577852E+02 -0.67603497080E+01  0.67670843144E+01  0.96324688604E+02  0.00000000000E+00 0. -1.
          2    1    1    2  501    0  0.49295978449E+02  0.94786907345E+00 -0.21396081340E+04  0.21401761514E+04  0.00000000000E+00 0. -1.
<scales pt_clust_3="80.00981" pt_clust_4="71.86028" pt_clust_5="14000.00000" pt_clust_6="49.30509"></scales>
<clustering>
<clus scale="   49.305">  2  6  1 -1</clus>
<clus scale="   71.860">  2  4  1 -1</clus>
<clus scale="   80.010">  1  3  2 -1</clus>
<clus scale="   80.010">  1  3  2 -1</clus>
</clustering>
</event>
<event>
 6    0  0.6338511E+002  0.6899425E+02  0.7546771E-02  0.1363547E+00
         -3   -1    0    0    0  501 -0.00000000000E+00  0.00000000000E+00  0.61958658896E+03  0.61958658896E+03  0.00000000000E+00 0. -1.
         21   -1    0    0  505  502  0.00000000000E+00 -0.00000000000E+00 -0.57993448415E+03  0.57993448415E+03  0.00000000000E+00 0.  1.
         21    1    1    2  503  502  0.65994759269E+02  0.29041490172E+02 -0.44083046379E+03  0.44668805022E+03  0.00000000000E+00 0.  1.
         21    1    1    2  504  503 -0.51189639527E+02  0.72669884221E+02 -0.58512545319E+02  0.10641902662E+03  0.00000000000E+00 0.  1.
         21    1    1    2  505  501  0.48721590350E+01 -0.43275807660E+02 -0.42976993603E+02  0.61184601342E+02  0.00000000000E+00 0.  1.
         -3    1    1    2    0  504 -0.19677278778E+02 -0.58435566733E+02  0.58197210752E+03  0.58522939493E+03  0.00000000000E+00 0. -1.
<scales pt_clust_3="68.99425" pt_clust_4="14000.00000" pt_clust_5="43.54921" pt_clust_6="61.78141"></scales>
<clustering>
<clus scale="   43.549">  2  5  1 -1</clus>
<clus scale="   61.781">  1  6  2 -1</clus>
<clus scale="   68.994">  2  3  1 -1</clus>
<clus scale="   43.549">  2  3  1 -1</clus>
</clustering>
</event>
<event>
 6    0  0.6338511E+002  0.1055334E+03  0.7546771E-02  0.1269072E+00
         21   -1    0    0  505  502  0.00000000000E+00  0.00000000000E+00  0.31317653141E+03  0.31317653141E+03  0.00000000000E+00 0. -1.
          2   -1    0    0  503    0 -0.00000000000E+00 -0.00000000000E+00 -0.77019180405E+03  0.77019180405E+03  0.00000000000E+00 0.  1.
         21    1    1    2  503  502 -0.39709063113E+01  0.49370252439E+02 -0.15388379298E+03  0.16165831765E+03  0.00000000000E+00 0.  1.
         21    1    1    2  504  501  0.78291555947E+02 -0.75732528114E+02 -0.45887397428E+02  0.11819744832E+03  0.00000000000E+00 0. -1.
         21    1    1    2  505  504 -0.26807574036E+02  0.10352178848E+03  0.25856436252E+03  0.27980517558E+03  0.00000000000E+00 0. -1.
          2    1    1    2  501    0 -0.47513075600E+02 -0.77159512808E+02 -0.51580844474E+03  0.52370739391E+03  0.00000000000E+00 0.  1.
<scales pt_clust_3="49.52969" pt_clust_4="14000.00000" pt_clust_5="105.53341" pt_clust_6="61.90567"></scales>
<clustering>
<clus scale="   49.530">  2  3  1 -1</clus>
<clus scale="   61.906">  2  6  1 -1</clus>
<clus scale="  105.533">  1  5  2 -1</clus>
<clus scale="  105.533">  1  3  2 -1</clus>
</clustering>
</event>
<event>
 6    0  0.6338511E+002  0.1144124E+03  0.7546771E-02  0.1252610E+00
         21   -1    0    0  505  502  0.00000000000E+00  0.00000000000E+00  0.62958542971E+03  0.62958542971E+03  0.00000000000E+00 0. -1.
          3   -1    0    0  504    0 -0.00000000000E+00 -0.00000000000E+00 -0.19944954673E+03  0.19944954673E+03  0.00000000000E+00 0.  1.
         21    1    1    2  503  502  0.19075882389E+02  0.66751947551E+02  0.32175296403E+03  0.32915753318E+03  0.00000000000E+00 0. -1.
         21    1    1    2  504  503 -0.11299337462E+03  0.98198627805E+02  0.62004759318E+02  0.16203414266E+03  0.00000000000E+00 0. -1.
         21    1    1    2  505  501  0.82526145591E+02 -0.79564690346E+02  0.15902396717E+03  0.19603501420E+03  0.00000000000E+00 0. -1.
          3    1    1    2  501    0  0.11391346638E+02 -0.85385885010E+02 -0.11264580753E+03  0.14180828640E+03  0.00000000000E+00 0.  1.
<scales pt_clust_3="69.42414" pt_clust_4="114.41243" pt_clust_5="14000.00000" pt_clust_6="83.10172"></scales>
<clustering>
<clus scale="   69.424">  1  3  2 -1</clus>
<clus scale="   83.102">  2  6  1 -1</clus>
<clus scale="  114.412">  2  4  1 -1</clus>
<clus scale="   69.424">  1  3  2 -1</clus>
</clustering>
</event>
<event>
 6    0  0.6338511E+002  0.9234285E+02  0.7546771E-02  0.1297275E+00
          4   -1    0    0  503    0 -0.00000000000E+00  0.00000000000E+00  0.12907096019E+04  0.12907096019E+04  0.00000000000E+00 0.  1.
         21   -1    0    0  504  502  0.00000000000E+00 -0.00000000000E+00 -0.24821363238E+03  0.24821363238E+03  0.00000000000E+00 0. -1.
         21    1    1    2  503  505  0.36269966369E+02 -0.77411201968E+01  0.90430360425E+03  0.90506377900E+03  0.00000000000E+00 0.  1.
         21    1    1    2  504  501 -0.64572754116E+02 -0.46911351870E+02 -0.25519859086E+00  0.79814664284E+02  0.00000000000E+00 0. -1.
         21    1    1    2  505  502 -0.39009977564E+02  0.58673185823E+02 -0.19838669970E+03  0.21052696669E+03  0.00000000000E+00 0. -1.
          4    1    1    2  501    0  0.67312765311E+02 -0.40207137570E+01  0.33683426360E+03  0.34351782435E+03  0.00000000000E+00 0.  1.
<scales pt_clust_3="37.08686" pt_clust_4="14000.00000" pt_clust_5="70.04198" pt_clust_6="92.34285"></scales>
<clustering>
<clus scale="   37.087">  1  3  2 -1</clus>
<clus scale="   70.042">  2  5  1 -1</clus>
<clus scale="   92.343">  1  6  2 -1</clus>
<clus scale="   70.042">  2  3  1 -1</clus>
</clustering>
</event>
<event>
 6    0  0.6338511E+002  0.8232068E+02  0.7546771E-02  0.1322592E+00
         21   -1    0    0  504  502  0.00000000000E+00  0.00000000000E+00  0.29435880822E+04  0.29435880822E+04  0.00000000000E+00 0.  1.
         -4   -1    0    0    0  501 -0.00000000000E+00 -0.00000000000E+00 -0.10912520844E+03  0.10912520844E+03  0.00000000000E+00 0. -1.
         21    1    1    2  503  501 -0.42792153273E+02 -0.78934788977E+01  0.55330096590E+02  0.70391014906E+02  0.00000000000E+00 0.  1.
         21    1    1    2  504  503 -0.58762607427E+02 -0.46392581401E+02  0.24937701998E+04  0.24948938104E+04  0.00000000000E+00 0.  1.
         21    1    1    2  505  502 -0.20732501564E+02  0.25514090874E+02  0.34626203425E+03  0.34781920853E+03  0.00000000000E+00 0.  1.
         -4    1    1    2    0  505  0.12228726226E+03  0.28771969425E+02 -0.60899456900E+02  0.13960925681E+03  0.00000000000E+00 0. -1.
<scales pt_clust_3="43.90118" pt_clust_4="82.32068" pt_clust_5="32.87561" pt_clust_6="14000.00000"></scales>
<clustering>
<clus scale="   32.876">  1  5  2 -1</clus>
<clus scale="   43.901">  2  3  1 -1</clus>
<clus scale="   82.321">  1  4  2 -1</clus>
<clus scale="   32.876">  1  3  2 -1</clus>
</clustering>
</event>
<event>
 6    0  0.6338511E+002  0.1582895E+03  0.7546771E-02  0.1190642E+00
         -1   -1    0    0    0  501 -0.00000000000E+00  0.00000000000E+00  0.17141325186E+04  0.17141325186E+04  0.00000000000E+00 0.  1.
         21   -1    0    0  504  502  0.00000000000E+00 -0.00000000000E+00 -0.17102705207E+03  0.17102705207E+03  0.00000000000E+00 0.  1.
         21    1    1    2  503  502  0.96161569254E+02 -0.11123219200E+03 -0.10464086578E+03  0.18046982775E+03  0.00000000000E+00 0.  1.
         21    1    1    2  504  505 -0.41060588713E+02  0.26197384020E+02  0.35164590869E+02  0.60073482719E+02  0.00000000000E+00 0. -1.
         21    1    1    2  505  501 -0.16200782428E+02  0.96450809531E+02  0.13619600837E+03  0.16767401918E+03  0.00000000000E+00 0. -1.
         -1    1    1    2    0  503 -0.38900198113E+02 -0.11416001554E+02  0.14763857331E+04  0.14769422410E+04  0.00000000000E+00 0.  1.
<scales pt_clust_3="144.47332" pt_clust_4="48.14637" pt_clust_5="48.14637" pt_clust_6="40.54073"></scales>
<clustering>
<clus scale="   40.541">  1  6  2 -1</clus>
<clus scale="   48.146">  4  5 -1 -1</clus>
<clus scale="  144.473">  2  3  1 -1</clus>
<clus scale="  144.473">  2  3  1 -1</clus>
</clustering>
</event>
<event>
 6    0  0.6338511E+002  0.1797315E+03  0.7546771E-02  0.1168063E+00
          2   -1    0    0  504    0 -0.00000000000E+00  0.00000000000E+00  0.62891612010E+03  0.62891612010E+03  0.00000000000E+00 0.  1.
         21   -1    0    0  503  502  0.00000000000E+00 -0.00000000000E+00 -0.77206350999E+03  0.77206350999E+03  0.00000000000E+00 0.  1.
         21    1    1    2  503  501 -0.29318523325E+02  0.16819677853E+03 -0.17340868086E+03  0.24335221946E+03  0.00000000000E+00 0.  1.
         21    1    1    2  504  505  0.34374947406E+02 -0.19692531717E+03 -0.40457469379E+02  0.20395593735E+03  0.00000000000E+00 0.  1.
         21    1    1    2  505  502 -0.32519372637E+02 -0.63712729936E+01 -0.43988250993E+03  0.44112892136E+03  0.00000000000E+00 0.  1.
          2    1    1    2  501    0  0.27462948557E+02  0.35099811628E+02  0.51060127028E+03  0.51254255192E+03  0.00000000000E+00 0.  1.
<scales pt_clust_3="14000.00000" pt_clust_4="179.73152" pt_clust_5="33.13763" pt_clust_6="44.49361"></scales>
<clustering>
<clus scale="   33.138">  2  5  1 -1</clus>
<clus scale="   44.494">  1  6  2 -1</clus>
<clus scale="  179.732">  1  4  2 -1</clus>
<clus scale="   33.138">  2  3  1 -1</clus>
</clustering>
</event>
<event>
 6    0  0.6338511E+002  0.1064313E+03  0.7546771E-02  0.1267325E+00
         21   -1    0    0  504  502  0.00000000000E+00  0.00000000000E+00  0.69402719070E+02  0.69402719070E+02  0.00000000000E+00 0. -1.
          2   -1    0    0  505    0 -0.00000000000E+00 -0.00000000000E+00 -0.20851807897E+04  0.20851807897E+04  0.00000000000E+00 0. -1.
         21    1    1    2  503  501  0.64933271073E+02 -0.10907653015E+03 -0.25093067645E+03  0.28121206145E+03  0.00000000000E+00 0. -1.
         21    1    1    2  504  503 -0.26290049291E+02 -0.17140782174E+02  0.44538748809E+02  0.54485532490E+02  0.00000000000E+00 0. -1.
         21    1    1    2  505  502 -0.47406853349E+02  0.61514190458E+02 -0.37213636012E+03  0.38015375297E+03  0.00000000000E+00 0. -1.
          2    1    1    2  501    0  0.87636315672E+01  0.64703121864E+02 -0.14372497829E+04  0.14387321619E+04  0.00000000000E+00 0. -1.
<scales pt_clust_3="106.43133" pt_clust_4="31.38428" pt_clust_5="14000.00000" pt_clust_6="64.53555"></scales>
<clustering>
<clus scale="   31.384">  1  4  2 -1</clus>
<clus scale="   64.536">  2  6  1 -1</clus>
<clus scale="  106.431">  1  3  2 -1</clus>
<clus scale="   31.384">  1  3  2 -1</clus>
</clustering>
</event>
<event>
 6    0  0.6338511E+002  0.1832534E+03  0.7546771E-02  0.1164691E+00
          3   -1    0    0  505    0 -0.00000000000E+00  0.00000000000E+00  0.68452943071E+03  0.68452943071E+03  0.00000000000E+00 0.  1.
         21   -1    0    0  504  502  0.00000000000E+00 -0.00000000000E+00 -0.14656406636E+03  0.14656406636E+03  0.00000000000E+00 0. -1.
         21    1    1    2  503  501  0.15091262672E+03  0.34988333457E+02  0.20861769544E+03  0.25984639161E+03  0.00000000000E+00 0.  1.
         21    1    1    2  504  503 -0.20249749553E+03 -0.12307615499E+02  0.13977563861E+02  0.20335212166E+03  0.00000000000E+00 0. -1.
         21    1    1    2  505  502  0.15819015857E+02 -0.57012892034E+02  0.11836411884E+02  0.60339139594E+02  0.00000000000E+00 0. -1.
          3    1    1    2  501    0  0.35765852952E+02  0.34332174076E+02  0.30353369316E+03  0.30755584420E+03  0.00000000000E+00 0.  1.
<scales pt_clust_3="14000.00000" pt_clust_4="183.25338" pt_clust_5="57.07868" pt_clust_6="49.57716"></scales>
<clustering>
<clus scale="   49.577">  1  6  2 -1</clus>
<clus scale="   57.079">  2  5  1 -1</clus>
<clus scale="  183.253">  2  4  1 -1</clus>
<clus scale="   57.079">  2  3  1 -1</clus>
</clustering>
</event>
<event>
 6    0  0.6338511E+002  0.1387028E+03  0.7546771E-02  0.1215085E+00
         -1   -1    0    0    0  501 -0.00000000000E+00  0.00000000000E+00  0.67751643432E+03  0.67751643432E+03  0.00000000000E+00 0.  1.
         21   -1    0    0  504  502  0.00000000000E+00 -0.00000000000E+00 -0.14439554859E+03  0.14439554859E+03  0.00000000000E+00 0. -1.
         21    1    1    2  503  502 -0.24446099878E+02  0.15351977647E+03 -0.55269922339E+02  0.16498696276E+03  0.00000000000E+00 0. -1.
         21    1    1    2  504  505  0.19586959169E+01 -0.10858432790E+03  0.71932621815E+02  0.13026394296E+03  0.00000000000E+00 0. -1.
         21    1    1    2  505  501 -0.26368486969E+02 -0.22665284287E+02  0.35079781852E+03  0.35251683888E+03  0.00000000000E+00 0.  1.
         -1    1    1    2    0  503  0.48855890930E+02 -0.22270164282E+02  0.16566036774E+03  0.17414423830E+03  0.00000000000E+00 0.  1.
<scales pt_clust_3="14000.00000" pt_clust_4="138.70276" pt_clust_5="34.77085" pt_clust_6="48.93372"></scales>
<clustering>
<clus scale="   34.771">  1  5  2 -1</clus>
<clus scale="   48.934">  1  6  2 -1</clus>
<clus scale="  138.703">  1  4  2 -1</clus>
<clus scale="  138.703">  2  3  1 -1</clus>
</clustering>
</event>
<event>
 6    0  0.6338511E+002  0.1070166E+03  0.7546771E-02  0.1266196E+00
         21   -1    0    0  503  502  0.00000000000E+00  0.00000000000E+00  0.32267115606E+03  0.32267115606E+03  0.00000000000E+00 0.  1.
          1   -1    0    0  505    0 -0.00000000000E+00 -0.00000000000E+00 -0.13817505526E+04  0.13817505526E+04  0.00000000000E+00 0.  1.
         21    1    1    2  503  501  0.12708127592E+03  0.37900617445E+02 -0.17423846348E+03  0.21896380900E+03  0.00000000000E+00 0.  1.
         21    1    1    2  504  502 -0.32635845692E+02  0.17662705189E+02  0.29539802091E+03  0.29771976813E+03  0.00000000000E+00 0.  1.
         21    1    1    2  505  504 -0.36374579869E+02 -0.18108158974E+02 -0.15714513836E+03  0.16231330812E+03  0.00000000000E+00 0.  1.
          1    1    1    2  501    0 -0.58070850362E+02 -0.37455163659E+02 -0.10230938156E+04  0.10254248234E+04  0.00000000000E+00 0.  1.
<scales pt_clust_3="14000.00000" pt_clust_4="37.10889" pt_clust_5="42.85036" pt_clust_6="107.01664"></scales>
<clustering>
<clus scale="   37.109">  1  4  2 -1</clus>
<clus scale="   42.850">  2  5  1 -1</clus>
<clus scale="  107.017">  2  6  1 -1</clus>
<clus scale="   37.109">  1  3  2 -1</clus>
</clustering>
</event>
<event>
 6    0  0.6338511E+002  0.1720159E+03  0.7546771E-02  0.1175762E+00
          2   -1    0    0  505    0 -0.00000000000E+00  0.00000000000E+00  0.25001760077E+04  0.25001760077E+04  0.00000000000E+00 0.  1.
         21   -1    0    0  501  502  0.00000000000E+00 -0.00000000000E+00 -0.28608161852E+02  0.28608161852E+02  0.00000000000E+00 0.  1.
         21    1    1    2  503  504 -0.90373324975E+02  0.66892088099E+01  0.24819134951E+03  0.26421776881E+03  0.00000000000E+00 0.  1.
         21    1    1    2  504  502  0.15990460121E+03  0.84246833888E+02  0.49606581388E+03  0.52796619419E+03  0.00000000000E+00 0.  1.
         21    1    1    2  505  503 -0.60456779480E+02  0.15832280658E+02  0.38705710880E+03  0.39207000493E+03  0.00000000000E+00 0.  1.
          2    1    1    2  501    0 -0.90744967564E+01 -0.10676832336E+03  0.13402535736E+04  0.13445302016E+04  0.00000000000E+00 0.  1.
<scales pt_clust_3="51.96822" pt_clust_4="160.22913" pt_clust_5="51.96822" pt_clust_6="107.15326"></scales>
<clustering>
<clus scale="   51.968">  3  5 -1 -1</clus>
<clus scale="  107.153">  1  6  2 -1</clus>
<clus scale="  160.229">  2  4  1 -1</clus>
<clus scale="  160.229">  2  3  1 -1</clus>
</clustering>
</event>
<event>
 6    0  0.6338511E+002  0.8764001E+02  0.7546771E-02  0.1308670E+00
         -1   -1    0    0    0  501 -0.00000000000E+00  0.00000000000E+00  0.10458115838E+04  0.10458115838E+04  0.00000000000E+00 0. -1.
         21   -1    0    0  505  502  0.00000000000E+00 -0.00000000000E+00 -0.26683087649E+02  0.26683087649E+02  0.00000000000E+00 0. -1.
         21    1    1    2  503  501 -0.70741149886E+02 -0.28096683415E+02  0.25700839780E+03  0.26804300111E+03  0.00000000000E+00 0.  1.
         21    1    1    2  504  502  0.91434003060E+02 -0.20223111675E+02  0.17780814786E+03  0.20095991791E+03  0.00000000000E+00 0. -1.
         21    1    1    2  505  503  0.57822415977E+01 -0.31180425959E+02  0.32698957592E+02  0.45550797013E+02  0.00000000000E+00 0.  1.
         -1    1    1    2    0  504 -0.26475094771E+02  0.79500221050E+02  0.55161299292E+03  0.55794095543E+03  0.00000000000E+00 0. -1.
<scales pt_clust_3="78.24791" pt_clust_4="14000.00000" pt_clust_5="31.71204" pt_clust_6="87.64001"></scales>
<clustering>
<clus scale="   31.712">  2  5  1 -1</clus>
<clus scale="   78.248">  1  3  2 -1</clus>
<clus scale="   87.640">  1  6  2 -1</clus>
<clus scale="   31.712">  2  3  1 -1</clus>
</clustering>
</event>
<event>
 6    0  0.6338511E+002  0.2376737E+03  0.7546771E-02  0.1121352E+00
         21   -1    0    0  504  502  0.00000000000E+00  0.00000000000E+00  0.22124276791E+04  0.22124276791E+04  0.00000000000E+00 0. -1.
          2   -1    0    0  503    0 -0.00000000000E+00 -0.00000000000E+00 -0.89376885794E+03  0.89376885794E+03  0.00000000000E+00 0. -1.
         21    1    1    2  503  505  0.48309685764E+02  0.60976345390E+02  0.66866248402E+03  0.67317268065E+03  0.00000000000E+00 0. -1.
         21    1    1    2  504  501  0.18405334992E+03 -0.33390347538E+02  0.35295228575E+03  0.39945696507E+03  0.00000000000E+00 0. -1.
         21    1    1    2  505  502 -0.43822322944E+01  0.50384540978E+02  0.11480222381E+04  0.11491357035E+04  0.00000000000E+00 0. -1.
          2    1    1    2  501    0 -0.22798080339E+03 -0.77970538830E+02 -0.85097818673E+03  0.88443118779E+03  0.00000000000E+00 0. -1.
<scales pt_clust_3="103.33086" pt_clust_4="14000.00000" pt_clust_5="50.57476" pt_clust_6="237.67367"></scales>
<clustering>
<clus scale="   50.575">  1  5  2 -1</clus>
<clus scale="  103.331">  1  3  2 -1</clus>
<clus scale="  237.674">  2  6  1 -1</clus>
<clus scale="   50.575">  1  3  2 -1</clus>
</clustering>
</event>
<event>
 6    0  0.6338511E+002  0.9008863E+02  0.7546771E-02  0.1302637E+00
          2   -1    0    0  503    0 -0.00000000000E+00  0.00000000000E+00  0.92253189228E+03  0.92253189228E+03  0.00000000000E+00 0. -1.
         21   -1    0    0  504  502  0.00000000000E+00 -0.00000000000E+00 -0.15032090422E+03  0.15032090422E+03  0.00000000000E+00 0.  1.
         21    1    1    2  503  502 -0.37104801343E+02 -0.26258446756E+02 -0.30110685219E+02  0.54524541934E+02  0.00000000000E+00 0.  1.
         21    1    1    2  504  505 -0.23501061876E+02  0.97938013321E+02 -0.64654789138E+02  0.11968456927E+03  0.00000000000E+00 0.  1.
         21    1    1    2  505  501  0.83129212976E+02 -0.34058146783E+02  0.11760802835E+03  0.14799348548E+03  0.00000000000E+00 0.  1.
          2    1    1    2  501    0 -0.22523349756E+02 -0.37621419781E+02  0.74936843407E+03  0.75065019982E+03  0.00000000000E+00 0. -1.
<scales pt_clust_3="48.31106" pt_clust_4="90.08863" pt_clust_5="14000.00000" pt_clust_6="43.84829"></scales>
<clustering>
<clus scale="   43.848">  1  6  2 -1</clus>
<clus scale="   48.311">  2  3  1 -1</clus>
<clus scale="   90.089">  2  4  1 -1</clus>
<clus scale="   48.311">  2  3  1 -1</clus>
</clustering>
</event>
<event>
 6    0  0.6338511E+002  0.9467198E+02  0.7546771E-02  0.1291917E+00
          2   -1    0    0  504    0 -0.00000000000E+00  0.00000000000E+00  0.12537077857E+04  0.12537077857E+04  0.00000000000E+00 0. -1.
         21   -1    0    0  505  502  0.00000000000E+00 -0.00000000000E+00 -0.21145696852E+03  0.21145696852E+03  0.00000000000E+00 0. -1.
         21    1    1    2  503  502  0.86391990046E+02  0.49033636757E+02  0.28125651131E+02  0.10324207344E+03  0.00000000000E+00 0. -1.
         21    1    1    2  504  503 -0.90582635090E+01  0.29171850923E+02  0.33022958914E+02  0.44984050946E+02  0.00000000000E+00 0. -1.
         21    1    1    2  505  501 -0.46872706216E+02 -0.84019126318E+02 -0.15390811641E+03  0.18150474504E+03  0.00000000000E+00 0. -1.
          2    1    1    2  501    0 -0.30461020321E+02  0.58136386386E+01  0.11350103235E+04  0.11354338848E+04  0.00000000000E+00 0. -1.
<scales pt_clust_3="14000.00000" pt_clust_4="30.54585" pt_clust_5="94.67198" pt_clust_6="51.08174"></scales>
<clustering>
<clus scale="   30.546">  1  4  2 -1</clus>
<clus scale="   51.082">  1  6  2 -1</clus>
<clus scale="   94.672">  2  5  1 -1</clus>
<clus scale="   94.672">  2  3  1 -1</clus>
</clustering>
</event>
<event>
 6    0  0.6338511E+002  0.1158593E+03  0.7546771E-02  0.1250089E+00
         21   -1    0    0  504  502  0.00000000000E+00  0.00000000000E+00  0.19790401444E+03  0.19790401444E+03  0.00000000000E+00 0. -1.
         -3   -1    0    0    0  501 -0.00000000000E+00 -0.00000000000E+00 -0.22364173284E+03  0.22364173284E+03  0.00000000000E+00 0. -1.
         21    1    1    2  503  505  0.55251771988E+01  0.10564855883E+03 -0.47809007562E+02  0.11609412893E+03  0.00000000000E+00 0. -1.
         21    1    1    2  504  501 -0.99652842051E+02 -0.81089793052E+02  0.10063517829E+03  0.16319829219E+03  0.00000000000E+00 0. -1.
         21    1    1    2  505  502  0.23547373400E+02 -0.28641359552E+02 -0.70428894604E+00  0.37085068342E+02  0.00000000000E+00 0. -1.
         -3    1    1    2    0  503  0.70580291452E+02  0.40825937701E+01 -0.77859600178E+02  0.10516825782E+03  0.00000000000E+00 0. -1.
<scales pt_clust_3="115.85929" pt_clust_4="14000.00000" pt_clust_5="37.07838" pt_clust_6="72.39449"></scales>
<clustering>
<clus scale="   37.078">  1  5  2 -1</clus>
<clus scale="   72.394">  2  6  1 -1</clus>
<clus scale="  115.859">  2  3  1 -1</clus>
<clus scale="   37.078">  1  3  2 -1</clus>
</clustering>
</event>
<event>
 6    0  0.6619435E+002  0.1583786E+03  0.7546771E-02  0.1190540E+00
         21   -1    0    0  505  502  0.00000000000E+00  0.00000000000E+00  0.26851934752E+03  0.26851934752E+03  0.00000000000E+00 0.  1.
          2   -1    0    0  503    0 -0.00000000000E+00 -0.00000000000E+00 -0.25643282212E+04  0.25643282212E+04  0.00000000000E+00 0. -1.
         21    1    1    2  503  504 -0.34957886309E+02 -0.18451484046E+02 -0.14060368399E+04  0.14065923738E+04  0.00000000000E+00 0. -1.
         21    1    1    2  504  502  0.53337126939E+02  0.97760515594E+02  0.97825946041E+00  0.11136841792E+03  0.00000000000E+00 0. -1.
         21    1    1    2  505  501  0.38543473758E+02  0.40660633294E+02  0.20428562423E+03  0.21182894688E+03  0.00000000000E+00 0.  1.
          2    1    1    2  501    0 -0.56922714388E+02 -0.11996966484E+03 -0.10950359175E+04  0.11030578301E+04  0.00000000000E+00 0. -1.
<scales pt_clust_3="39.52861" pt_clust_4="14000.00000" pt_clust_5="55.90384" pt_clust_6="158.37860"></scales>
<clustering>
<clus scale="   39.529">  2  3  1 -1</clus>
<clus scale="   55.904">  1  5  2 -1</clus>
<clus scale="  158.379">  2  6  1 -1</clus>
<clus scale="   55.904">  1  3  2 -1</clus>
</clustering>
</event>
<event>
 6    0  0.6338511E+002  0.3954210E+03  0.7546771E-02  0.1045377E+00
          2   -1    0    0  502    0 -0.00000000000E+00  0.00000000000E+00  0.33893890834E+04  0.33893890834E+04  0.00000000000E+00 0.  1.
         21   -1    0    0  505  502  0.00000000000E+00 -0.00000000000E+00 -0.35260396124E+03  0.35260396124E+03  0.00000000000E+00 0. -1.
         21    1    1    2  503  501  0.31980229633E+03 -0.31413952203E+03  0.35103238657E+03  0.56936884746E+03  0.00000000000E+00 0. -1.
         21    1    1    2  504  503 -0.25619961606E+03  0.24234766425E+03  0.75514213274E+02  0.36065638777E+03  0.00000000000E+00 0. -1.
         21    1    1    2  505  504  0.23899666386E+02  0.76500080300E+02 -0.84118125737E+02  0.11618655437E+03  0.00000000000E+00 0. -1.
          2    1    1    2  501    0 -0.87502346658E+02 -0.47082225253E+01  0.26943566481E+04  0.26957812550E+04  0.00000000000E+00 0.  1.
<scales pt_clust_3="395.42104" pt_clust_4="14000.00000" pt_clust_5="80.14647" pt_clust_6="87.55024"></scales>
<clustering>
<clus scale="   80.146">  2  5  1 -1</clus>
<clus scale="   87.550">  1  6  2 -1</clus>
<clus scale="  395.421">  1  3  2 -1</clus>
<clus scale="   80.146">  2  3  1 -1</clus>
</clustering>
</event>
<event>
 6    0  0.6338511E+002  0.1248535E+03  0.7546771E-02  0.1235298E+00
         21   -1    0    0  505  502  0.00000000000E+00  0.00000000000E+00  0.28742669373E+03  0.28742669373E+03  0.00000000000E+00 0.  1.
          1   -1    0    0  504    0 -0.00000000000E+00 -0.00000000000E+00 -0.14004818970E+04  0.14004818970E+04  0.00000000000E+00 0. -1.
         21    1    1    2  503  502 -0.66918798871E+02 -0.55836799620E+02  0.24316142037E+03  0.25830863360E+03  0.00000000000E+00 0.  1.
         21    1    1    2  504  503  0.61759119005E+02  0.18018066655E+03 -0.30752181250E+03  0.36173046117E+03  0.00000000000E+00 0.  1.
         21    1    1    2  505  501 -0.46709985608E+02 -0.77429935496E+02 -0.24531326093E+03  0.26144944760E+03  0.00000000000E+00 0.  1.
          1    1    1    2  501    0  0.51869665474E+02 -0.46913931435E+02 -0.80338155022E+03  0.80642004836E+03  0.00000000000E+00 0. -1.
<scales pt_clust_3="87.03452" pt_clust_4="14000.00000" pt_clust_5="124.85350" pt_clust_6="69.93840"></scales>
<clustering>
<clus scale="   69.938">  2  6  1 -1</clus>
<clus scale="   87.035">  1  3  2 -1</clus>
<clus scale="  124.854">  2  5  1 -1</clus>
<clus scale="   87.035">  1  3  2 -1</clus>
</clustering>
</event>
<event>
 6    0  0.1458611E+003  0.9154190E+02  0.7546771E-02  0.1299160E+00
         21   -1    0    0  503  502  0.00000000000E+00  0.00000000000E+00  0.77943748258E+03  0.77943748258E+03  0.00000000000E+00 0.  1.
          1   -1    0    0  505    0 -0.00000000000E+00 -0.00000000000E+00 -0.34886314088E+04  0.34886314088E+04  0.00000000000E+00 0. -1.
         21    1    1    2  503  504 -0.27643228218E+02 -0.23891430249E+02  0.31668439804E+02  0.48351200453E+02  0.00000000000E+00 0. -1.
         21    1    1    2  504  501  0.11702318467E+03  0.53645543910E+02 -0.14287954769E+04  0.14345831398E+04  0.00000000000E+00 0. -1.
         21    1    1    2  505  502 -0.53568092332E+02 -0.18022494669E+02  0.73527592896E+03  0.73744494204E+03  0.00000000000E+00 0.  1.
          1    1    1    2  501    0 -0.35811864121E+02 -0.11731618991E+02 -0.20473428181E+04  0.20476896091E+04  0.00000000000E+00 0. -1.
<scales pt_clust_3="36.53695" pt_clust_4="91.54190" pt_clust_5="14000.00000" pt_clust_6="37.69239"></scales>
<clustering>
<clus scale="   36.537">  1  3  2 -1</clus>
<clus scale="   37.692">  2  6  1 -1</clus>
<clus scale="   91.542">  2  4  1 -1</clus>
<clus scale="   36.537">  1  3  2 -1</clus>
</clustering>
</event>
<event>
 6    0  0.6338511E+002  0.7743679E+02  0.7546771E-02  0.1336487E+00
         21   -1    0    0  503  502  0.00000000000E+00  0.00000000000E+00  0.87303486344E+03  0.87303486344E+03  0.00000000000E+00 0.  1.
         -4   -1    0    0    0  501 -0.00000000000E+00 -0.00000000000E+00 -0.16811195732E+03  0.16811195732E+03  0.00000000000E+00 0. -1.
         21    1    1    2  503  501  0.77020150086E+00 -0.33048247865E+02  0.55746434536E+03  0.55844361957E+03  0.00000000000E+00 0.  1.
         21    1    1    2  504  505  0.91543010077E+02 -0.21795027893E+02  0.17974394462E+03  0.20288674565E+03  0.00000000000E+00 0.  1.
         21    1    1    2  505  502 -0.43323000832E+02  0.60222440151E+02  0.10805675640E+03  0.13107206911E+03  0.00000000000E+00 0.  1.
         -4    1    1    2    0  504 -0.48990210746E+02 -0.53791643938E+01 -0.14034214026E+03  0.14874438642E+03  0.00000000000E+00 0. -1.
<scales pt_clust_3="33.05722" pt_clust_4="77.43679" pt_clust_5="14000.00000" pt_clust_6="49.32449"></scales>
<clustering>
<clus scale="   33.057">  1  3  2 -1</clus>
<clus scale="   49.324">  2  6  1 -1</clus>
<clus scale="   77.437">  2  4  1 -1</clus>
<clus scale="   33.057">  1  3  2 -1</clus>
</clustering>
</event>
<event>
 6    0  0.6338511E+002  0.7669879E+02  0.7546771E-02  0.1338690E+00
          2   -1    0    0  504    0 -0.00000000000E+00  0.00000000000E+00  0.12936130843E+04  0.12936130843E+04  0.00000000000E+00 0.  1.
         21   -1    0    0  505  502  0.00000000000E+00 -0.00000000000E+00 -0.41976017481E+03  0.41976017481E+03  0.00000000000E+00 0. -1.
         21    1    1    2  503  501  0.10426682800E+03 -0.61255907257E+02 -0.70253422334E+02  0.13985492821E+03  0.00000000000E+00 0. -1.
         21    1    1    2  504  502 -0.20006479613E+02 -0.32234268901E+02 -0.87270553204E+02  0.95160163801E+02  0.00000000000E+00 0. -1.
         21    1    1    2  505  503 -0.13040478010E+02  0.66317006048E+02 -0.21719171239E+03  0.22746480890E+03  0.00000000000E+00 0. -1.
          2    1    1    2  501    0 -0.71219870379E+02  0.27173170110E+02  0.12485685974E+04  0.12508933582E+04  0.00000000000E+00 0.  1.
<scales pt_clust_3="14000.00000" pt_clust_4="37.93820" pt_clust_5="51.83665" pt_clust_6="76.69879"></scales>
<clustering>
<clus scale="   37.938">  2  4  1 -1</clus>
<clus scale="   51.837">  2  5  1 -1</clus>
<clus scale="   76.699">  1  6  2 -1</clus>
<clus scale="   37.938">  2  3  1 -1</clus>
</clustering>
</event>
<event>
 6    0  0.6338511E+002  0.6384522E+02  0.7546771E-02  0.1382369E+00
         21   -1    0    0  503  502  0.00000000000E+00  0.00000000000E+00  0.35056441449E+02  0.35056441449E+02  0.00000000000E+00 0. -1.
          2   -1    0    0  504    0 -0.00000000000E+00 -0.00000000000E+00 -0.20376110781E+04  0.20376110781E+04  0.00000000000E+00 0. -1.
         21    1    1    2  503  501 -0.12456535600E+02 -0.11780632344E+03 -0.80635097602E+03  0.81500637522E+03  0.00000000000E+00 0. -1.
         21    1    1    2  504  505 -0.48357640735E+01  0.51056591176E+02 -0.20860742349E+03  0.21481903373E+03  0.00000000000E+00 0. -1.
         21    1    1    2  505  502 -0.13311026611E+02  0.60290599619E+02 -0.74425220979E+01  0.62189476337E+02  0.00000000000E+00 0. -1.
          2    1    1    2  501    0  0.30603326285E+02  0.64591326467E+01 -0.98015371501E+03  0.98065263423E+03  0.00000000000E+00 0. -1.
<scales pt_clust_3="14000.00000" pt_clust_4="52.36604" pt_clust_5="63.84522" pt_clust_6="31.27753"></scales>
<clustering>
<clus scale="   31.278">  2  6  1 -1</clus>
<clus scale="   52.366">  2  4  1 -1</clus>
<clus scale="   63.845">  1  5  2 -1</clus>
<clus scale="   63.845">  1  3  2 -1</clus>
</clustering>
</event>
<event>
 6    0  0.6338511E+002  0.9211671E+02  0.7546771E-02  0.1297805E+00
          2   -1    0    0  503    0 -0.00000000000E+00  0.00000000000E+00  0.58341691800E+03  0.58341691800E+03  0.00000000000E+00 0. -1.
         21   -1    0    0  504  502  0.00000000000E+00 -0.00000000000E+00 -0.37016191522E+03  0.37016191522E+03  0.00000000000E+00 0. -1.
         21    1    1    2  503  505 -0.81580102030E+02  0.78625506246E+02  0.35446018424E+03  0.37212807673E+03  0.00000000000E+00 0. -1.
         21    1    1    2  504  501 -0.39937873846E+02 -0.54201106760E+02 -0.16448488934E+03  0.17773033664E+03  0.00000000000E+00 0. -1.
         21    1    1    2  505  502  0.79473792352E+02 -0.29902824734E+02 -0.17842903442E+03  0.19760360048E+03  0.00000000000E+00 0. -1.
          2    1    1    2  501    0  0.42044183524E+02  0.54784252468E+01  0.20170874229E+03  0.20611681937E+03  0.00000000000E+00 0. -1.
<scales pt_clust_3="92.11671" pt_clust_4="66.81595" pt_clust_5="14000.00000" pt_clust_6="42.39961"></scales>
<clustering>
<clus scale="   42.400">  1  6  2 -1</clus>
<clus scale="   66.816">  2  4  1 -1</clus>
<clus scale="   92.117">  1  3  2 -1</clus>
<clus scale="   66.816">  2  3  1 -1</clus>
</clustering>
</event>
<event>
 6    0  0.6338511E+002  0.9214123E+02  0.7546771E-02  0.1297748E+00
         21   -1    0    0  504  502  0.00000000000E+00  0.00000000000E+00  0.22817832529E+03  0.22817832529E+03  0.00000000000E+00 0.  1.
          2   -1    0    0  503    0 -0.00000000000E+00 -0.00000000000E+00 -0.48620854725E+03  0.48620854725E+03  0.00000000000E+00 0.  1.
         21    1    1    2  503  505  0.38012244938E+02 -0.69594102970E+02  0.14256552525E+03  0.16313552318E+03  0.00000000000E+00 0. -1.
         21    1    1    2  504  501 -0.50594181218E+02 -0.26522056616E+02  0.42977662430E+02  0.71486153402E+02  0.00000000000E+00 0.  1.
         21    1    1    2  505  502  0.37538625868E+02  0.69212917787E+01 -0.14537991069E+02  0.40846124617E+02  0.00000000000E+00 0.  1.
          2    1    1    2  501    0 -0.24956689588E+02  0.89194867807E+02 -0.42903541857E+03  0.43891907134E+03  0.00000000000E+00 0.  1.
<scales pt_clust_3="92.14123" pt_clust_4="47.51501" pt_clust_5="38.17136" pt_clust_6="14000.00000"></scales>
<clustering>
<clus scale="   38.171">  1  5  2 -1</clus>
<clus scale="   47.515">  1  4  2 -1</clus>
<clus scale="   92.141">  1  3  2 -1</clus>
<clus scale="   38.171">  1  3  2 -1</clus>
</clustering>
</event>
<event>
 6    0  0.6338511E+002  0.1144067E+03  0.7546771E-02  0.1252620E+00
          2   -1    0    0  505    0 -0.00000000000E+00  0.00000000000E+00  0.47977285713E+03  0.47977285713E+03  0.00000000000E+00 0. -1.
         21   -1    0    0  503  502  0.00000000000E+00 -0.00000000000E+00 -0.90448506392E+03  0.90448506392E+03  0.00000000000E+00 0.  1.
         21    1    1    2  503  504 -0.10004301425E+02 -0.59137575204E+02 -0.61172636850E+03  0.61465965279E+03  0.00000000000E+00 0.  1.
         21    1    1    2  504  501 -0.77362674158E+01 -0.74265680780E+02 -0.23629116825E+03  0.24780790417E+03  0.00000000000E+00 0.  1.
         21    1    1    2  505  502  0.33912841037E+02  0.96537910410E+02  0.59458718164E+01  0.10249391360E+03  0.00000000000E+00 0.  1.
          2    1    1    2  501    0 -0.16172272196E+02  0.36865345575E+02  0.41735945814E+03  0.41929645049E+03  0.00000000000E+00 0. -1.
<scales pt_clust_3="59.17694" pt_clust_4="14000.00000" pt_clust_5="114.40671" pt_clust_6="40.25663"></scales>
<clustering>
<clus scale="   40.257">  1  6  2 -1</clus>
<clus scale="   59.177">  2  3  1 -1</clus>
<clus scale="  114.407">  1  5  2 -1</clus>
<clus scale="   59.177">  2  3  1 -1</clus>
</clustering>
</event>
<event>
 6    0  0.6338511E+002  0.1643778E+03  0.7546771E-02  0.1183841E+00
         21   -1    0    0  505  502  0.00000000000E+00  0.00000000000E+00  0.35164663993E+03  0.35164663993E+03  0.00000000000E+00 0. -1.
          1   -1    0    0  503    0 -0.00000000000E+00 -0.00000000000E+00 -0.84016834037E+03  0.84016834037E+03  0.00000000000E+00 0. -1.
         21    1    1    2  503  502  0.26452978125E+02 -0.18928990389E+03  0.23455436312E+03  0.30256598789E+03  0.00000000000E+00 0. -1.
         21    1    1    2  504  501 -0.21400206982E+01  0.10334618089E+03 -0.33103844342E+03  0.34680176444E+03  0.00000000000E+00 0. -1.
         21    1    1    2  505  504 -0.13830567668E+02  0.12305333031E+03  0.22724789136E+02  0.12589607914E+03  0.00000000000E+00 0. -1.
          1    1    1    2  501    0 -0.10482389759E+02 -0.37109607313E+02 -0.41476240928E+03  0.41655114884E+03  0.00000000000E+00 0. -1.
<scales pt_clust_3="164.37782" pt_clust_4="74.46402" pt_clust_5="14000.00000" pt_clust_6="38.56168"></scales>
<clustering>
<clus scale="   38.562">  2  6  1 -1</clus>
<clus scale="   74.464">  2  4  1 -1</clus>
<clus scale="  164.378">  1  3  2 -1</clus>
<clus scale="  164.378">  1  3  2 -1</clus>
</clustering>
</event>
<event>
 6    0  0.6338511E+002  0.1144643E+03  0.7546771E-02  0.1252519E+00
         -3   -1    0    0    0  501 -0.00000000000E+00  0.00000000000E+00  0.90775524606E+03  0.90775524606E+03  0.00000000000E+00 0.  1.
         21   -1    0    0  505  502  0.00000000000E+00 -0.00000000000E+00 -0.65854149216E+02  0.65854149216E+02  0.00000000000E+00 0. -1.
         21    1    1    2  503  501 -0.44863464043E+02  0.46056235778E+02  0.14123487554E+03  0.15518117582E+03  0.00000000000E+00 0. -1.
         21    1    1    2  504  502  0.50657070334E+01 -0.11499396477E+03  0.27702748697E+02  0.11839221092E+03  0.00000000000E+00 0. -1.
         21    1    1    2  505  503  0.60043238017E+02  0.14438067089E+01  0.66959991723E+02  0.89949516402E+02  0.00000000000E+00 0. -1.
         -3    1    1    2    0  504 -0.20245481008E+02  0.67493922280E+02  0.60600348088E+03  0.61008649214E+03  0.00000000000E+00 0.  1.
<scales pt_clust_3="59.32306" pt_clust_4="14000.00000" pt_clust_5="60.06059" pt_clust_6="114.46427"></scales>
<clustering>
<clus scale="   60.061">  2  5  1 -1</clus>
<clus scale="   59.323">  1  3  2 -1</clus>
<clus scale="  114.464">  1  6  2 -1</clus>
<clus scale="   60.061">  2  3  1 -1</clus>
</clustering>
</event>
<event>
 6    0  0.6338511E+002  0.8116183E+02  0.7546771E-02  0.1325786E+00
         21   -1    0    0  505  502  0.00000000000E+00  0.00000000000E+00  0.19600166818E+04  0.19600166818E+04  0.00000000000E+00 0.  1.
         -2   -1    0    0    0  501 -0.00000000000E+00 -0.00000000000E+00 -0.64603547282E+02  0.64603547282E+02  0.00000000000E+00 0. -1.
         21    1    1    2  503  502  0.84105087191E+02 -0.11927689814E+01  0.79391509612E+03  0.79835848354E+03  0.00000000000E+00 0.  1.
         21    1    1    2  504  503 -0.10221243559E+03 -0.27466330754E+02  0.47783085269E+03  0.48941199934E+03  0.00000000000E+00 0.  1.
         21    1    1    2  505  501 -0.19013854669E+02 -0.24836101318E+02  0.66103590248E+03  0.66177550798E+03  0.00000000000E+00 0.  1.
         -2    1    1    2    0  504  0.37121203073E+02  0.53495201054E+02 -0.37368716764E+02  0.75074238231E+02  0.00000000000E+00 0. -1.
<scales pt_clust_3="81.16183" pt_clust_4="14000.00000" pt_clust_5="31.27872" pt_clust_6="64.65954"></scales>
<clustering>
<clus scale="   31.279">  1  5  2 -1</clus>
<clus scale="   64.660">  2  6  1 -1</clus>
<clus scale="   81.162">  1  3  2 -1</clus>
<clus scale="   31.279">  1  3  2 -1</clus>
</clustering>
</event>
<event>
 6    0  0.6338511E+002  0.1069733E+03  0.7546771E-02  0.1266280E+00
         21   -1    0    0  503  502  0.00000000000E+00  0.00000000000E+00  0.34186999335E+03  0.34186999335E+03  0.00000000000E+00 0. -1.
          2   -1    0    0  505    0 -0.00000000000E+00 -0.00000000000E+00 -0.10604133748E+04  0.10604133748E+04  0.00000000000E+00 0. -1.
         21    1    1    2  503  501  0.79691618594E+02 -0.26966956986E+01  0.12739545154E+03  0.15029180721E+03  0.00000000000E+00 0.  1.
         21    1    1    2  504  502 -0.25019927196E+02 -0.93335087264E+02  0.18061212698E+03  0.20483694902E+03  0.00000000000E+00 0. -1.
         21    1    1    2  505  504 -0.95961604699E+01  0.46699821224E+02 -0.52901367228E+02  0.71214564892E+02  0.00000000000E+00 0.  1.
          2    1    1    2  501    0 -0.45075530928E+02  0.49331961739E+02 -0.97364959278E+03  0.97594004706E+03  0.00000000000E+00 0. -1.
<scales pt_clust_3="79.61092" pt_clust_4="14000.00000" pt_clust_5="47.67557" pt_clust_6="106.97327"></scales>
<clustering>
<clus scale="   47.676">  2  5  1 -1</clus>
<clus scale="   79.611">  1  3  2 -1</clus>
<clus scale="  106.973">  2  6  1 -1</clus>
<clus scale="   79.611">  1  3  2 -1</clus>
</clustering>
</event>
<event>
 6    0  0.6338511E+002  0.9336969E+02  0.7546771E-02  0.1294891E+00
         21   -1    0    0  504  502  0.00000000000E+00  0.00000000000E+00  0.19922301858E+02  0.19922301858E+02  0.00000000000E+00 0. -1.
          2   -1    0    0  505    0 -0.00000000000E+00 -0.00000000000E+00 -0.38593696913E+04  0.38593696913E+04  0.00000000000E+00 0.  1.
         21    1    1    2  503  502 -0.11055888813E+02 -0.77431315736E+02 -0.18599097447E+03  0.20176839177E+03  0.00000000000E+00 0.  1.
         21    1    1    2  504  501 -0.31250777661E+02  0.12286533863E+03 -0.35025352142E+03  0.37249165333E+03  0.00000000000E+00 0. -1.
         21    1    1    2  505  503  0.57776070064E+02 -0.58242066246E+01 -0.25253929890E+04  0.25260605188E+04  0.00000000000E+00 0.  1.
          2    1    1    2  501    0 -0.15469403589E+02 -0.39609816266E+02 -0.77780990461E+03  0.77897142932E+03  0.00000000000E+00 0.  1.
<scales pt_clust_3="14000.00000" pt_clust_4="93.36969" pt_clust_5="59.16138" pt_clust_6="42.52341"></scales>
<clustering>
<clus scale="   42.523">  2  6  1 -1</clus>
<clus scale="   59.161">  2  5  1 -1</clus>
<clus scale="   93.370">  2  4  1 -1</clus>
<clus scale="   93.370">  1  3  2 -1</clus>
</clustering>
</event>
<event>
 6    0  0.6338511E+002  0.1450474E+03  0.7546771E-02  0.1206694E+00
          2   -1    0    0  504    0 -0.00000000000E+00  0.00000000000E+00  0.14324594877E+04  0.14324594877E+04  0.00000000000E+00 0. -1.
         21   -1    0    0  503  502  0.00000000000E+00 -0.00000000000E+00 -0.10171024379E+03  0.10171024379E+03  0.00000000000E+00 0.  1.
         21    1    1    2  503  505 -0.25153022406E+02  0.18524356291E+02 -0.20164498497E+02  0.37181088093E+02  0.00000000000E+00 0.  1.
         21    1    1    2  504  502  0.92056196825E+02  0.12844846600E+03  0.43559164925E+02  0.16392300827E+03  0.00000000000E+00 0.  1.
         21    1    1    2  505  501 -0.28411949439E+02 -0.10977661315E+03  0.25179859006E+03  0.27615335164E+03  0.00000000000E+00 0. -1.
          2    1    1    2  501    0 -0.38491224980E+02 -0.37196209142E+02  0.10555559874E+04  0.10569122835E+04  0.00000000000E+00 0. -1.
<scales pt_clust_3="31.23822" pt_clust_4="14000.00000" pt_clust_5="145.04736" pt_clust_6="53.57611"></scales>
<clustering>
<clus scale="   31.238">  2  3  1 -1</clus>
<clus scale="   53.576">  1  6  2 -1</clus>
<clus scale="  145.047">  1  5  2 -1</clus>
<clus scale="   31.238">  2  3  1 -1</clus>
</clustering>
</event>
<event>
 6    0  0.6338511E+002  0.9119035E+02  0.7546771E-02  0.1299994E+00
         21   -1    0    0  503  502  0.00000000000E+00  0.00000000000E+00  0.74423772340E+03  0.74423772340E+03  0.00000000000E+00 0. -1.
          2   -1    0    0  502    0 -0.00000000000E+00 -0.00000000000E+00 -0.62922451307E+03  0.62922451307E+03  0.00000000000E+00 0.  1.
         21    1    1    2  503  504 -0.26114399257E+02  0.22745940897E+02  0.54163196898E+03  0.54273799341E+03  0.00000000000E+00 0. -1.
         21    1    1    2  504  505 -0.42273637568E+01  0.56464450171E+02  0.10979747486E+03  0.12353780888E+03  0.00000000000E+00 0. -1.
         21    1    1    2  505  501  0.11367437225E+03 -0.10985368452E+03  0.53705972994E+01  0.15817249516E+03  0.00000000000E+00 0. -1.
          2    1    1    2  501    0 -0.83332609237E+02  0.30643293455E+02 -0.54178683081E+03  0.54901393901E+03  0.00000000000E+00 0.  1.
<scales pt_clust_3="34.63148" pt_clust_4="72.22631" pt_clust_5="91.19035" pt_clust_6="14000.00000"></scales>
<clustering>
<clus scale="   34.631">  1  3  2 -1</clus>
<clus scale="   72.226">  1  4  2 -1</clus>
<clus scale="   91.190">  1  5  2 -1</clus>
<clus scale="   34.631">  1  3  2 -1</clus>
</clustering>
</event>
<event>
 6    0  0.6338511E+002  0.9600902E+02  0.7546771E-02  0.1288920E+00
          1   -1    0    0  504    0 -0.00000000000E+00  0.00000000000E+00  0.12730787010E+04  0.12730787010E+04  0.00000000000E+00 0.  1.
         21   -1    0    0  503  502  0.00000000000E+00 -0.00000000000E+00 -0.32630939582E+03  0.32630939582E+03  0.00000000000E+00 0.  1.
         21    1    1    2  503  505 -0.60702222905E+02 -0.14512063855E+02 -0.25530810310E+03  0.26282615428E+03  0.00000000000E+00 0.  1.
         21    1    1    2  504  502  0.64271668086E+02  0.11909842217E+03  0.21015069498E+03  0.24995718850E+03  0.00000000000E+00 0. -1.
         21    1    1    2  505  501 -0.53425727855E+01 -0.64384901981E+02 -0.24711151427E+02  0.69170800862E+02  0.00000000000E+00 0.  1.
          1    1    1    2  501    0  0.17731276041E+01 -0.40201456337E+02  0.10166378648E+04  0.10174339532E+04  0.00000000000E+00 0.  1.
<scales pt_clust_3="62.52742" pt_clust_4="96.00902" pt_clust_5="14000.00000" pt_clust_6="40.24054"></scales>
<clustering>
<clus scale="   40.241">  1  6  2 -1</clus>
<clus scale="   62.527">  2  3  1 -1</clus>
<clus scale="   96.009">  1  4  2 -1</clus>
<clus scale="   62.527">  2  3  1 -1</clus>
</clustering>
</event>
<event>
 6    0  0.6338511E+002  0.1273322E+03  0.7546771E-02  0.1231469E+00
         21   -1    0    0  505  502  0.00000000000E+00  0.00000000000E+00  0.24511277067E+03  0.24511277067E+03  0.00000000000E+00 0. -1.
          1   -1    0    0  503    0 -0.00000000000E+00 -0.00000000000E+00 -0.19985882725E+03  0.19985882725E+03  0.00000000000E+00 0. -1.
         21    1    1    2  503  504 -0.50876483119E+00  0.67943980747E+02  0.55415215960E+02  0.87678329827E+02  0.00000000000E+00 0. -1.
         21    1    1    2  504  502  0.49233577005E+02  0.35800452186E+02  0.30694634014E+02  0.68174614328E+02  0.00000000000E+00 0. -1.
         21    1    1    2  505  501 -0.15573095732E+02 -0.11060072571E+03  0.96529080414E+02  0.14762420264E+03  0.00000000000E+00 0. -1.
          1    1    1    2  501    0 -0.33151716442E+02  0.68562927773E+01 -0.13738498697E+03  0.14149445112E+03  0.00000000000E+00 0. -1.
<scales pt_clust_3="53.72919" pt_clust_4="53.72919" pt_clust_5="111.69271" pt_clust_6="33.85329"></scales>
<clustering>
<clus scale="   33.853">  2  6  1 -1</clus>
<clus scale="   53.729">  3  4 -1 -1</clus>
<clus scale="  111.693">  1  5  2 -1</clus>
<clus scale="  111.693">  1  3  2 -1</clus>
</clustering>
</event>
<event>
 6    0  0.6338511E+002  0.1279607E+03  0.7546771E-02  0.1230513E+00
         21   -1    0    0  505  502  0.00000000000E+00  0.00000000000E+00  0.45786340434E+02  0.45786340434E+02  0.00000000000E+00 0.  1.
          1   -1    0    0  503    0 -0.00000000000E+00 -0.00000000000E+00 -0.23385926382E+04  0.23385926382E+04  0.00000000000E+00 0.  1.
         21    1    1    2  503  504 -0.14374884022E+03 -0.11584459152E+03 -0.32875286689E+03  0.37704395757E+03  0.00000000000E+00 0.  1.
         21    1    1    2  504  502  0.31085352261E+02  0.99108869479E+02 -0.19377073778E+03  0.21985441991E+03  0.00000000000E+00 0.  1.
         21    1    1    2  505  501  0.79074705410E+02 -0.32294618702E+02 -0.21911380740E+03  0.23517357850E+03  0.00000000000E+00 0.  1.
          1    1    1    2  501    0  0.33588782554E+02  0.49030340740E+02 -0.15511688857E+04  0.15523070226E+04  0.00000000000E+00 0.  1.
<scales pt_clust_3="127.96067" pt_clust_4="14000.00000" pt_clust_5="90.60552" pt_clust_6="59.43215"></scales>
<clustering>
<clus scale="   59.432">  2  6  1 -1</clus>
<clus scale="   90.606">  2  5  1 -1</clus>
<clus scale="  127.961">  2  3  1 -1</clus>
<clus scale="  127.961">  1  3  2 -1</clus>
</clustering>
</event>
<event>
 6    0  0.6338511E+002  0.8261410E+02  0.7546771E-02  0.1321793E+00
          2   -1    0    0  503    0 -0.00000000000E+00  0.00000000000E+00  0.25794473960E+04  0.25794473960E+04  0.00000000000E+00 0. -1.
         21   -1    0    0  501  502  0.00000000000E+00 -0.00000000000E+00 -0.30588273512E+03  0.30588273512E+03  0.00000000000E+00 0.  1.
         21    1    1    2  503  505  0.38004216882E+02  0.11914387133E+02  0.22757126070E+03  0.23103019676E+03  0.00000000000E+00 0. -1.
         21    1    1    2  504  502  0.49359661552E+01  0.61446619005E+02 -0.29687102180E+03  0.30320365159E+03  0.00000000000E+00 0.  1.
         21    1    1    2  505  504  0.20778350284E+02  0.43085275165E+02  0.11255744279E+04  0.11265903752E+04  0.00000000000E+00 0. -1.
          2    1    1    2  501    0 -0.63718533321E+02 -0.11644628130E+03  0.12172899941E+04  0.12245059075E+04  0.00000000000E+00 0. -1.
<scales pt_clust_3="39.82804" pt_clust_4="61.66467" pt_clust_5="14000.00000" pt_clust_6="82.61410"></scales>
<clustering>
<clus scale="   39.828">  1  3  2 -1</clus>
<clus scale="   61.665">  2  4  1 -1</clus>
<clus scale="   82.614">  2  6  1 -1</clus>
<clus scale="   61.665">  2  3  1 -1</clus>
</clustering>
</event>
<event>
 6    0  0.6338511E+002  0.8941934E+02  0.7546771E-02  0.1304264E+00
         -2   -1    0    0    0  501 -0.00000000000E+00  0.00000000000E+00  0.16165769275E+04  0.16165769275E+04  0.00000000000E+00 0. -1.
         21   -1    0    0  503  502  0.00000000000E+00 -0.00000000000E+00 -0.35594814443E+02  0.35594814443E+02  0.00000000000E+00 0.  1.
         21    1    1    2  503  504 -0.88130495582E+01  0.63978690938E+02  0.41663759803E+02  0.76855784542E+02  0.00000000000E+00 0.  1.
         21    1    1    2  504  501  0.37506050094E+02  0.55021067251E+02  0.22241815781E+03  0.23217204517E+03  0.00000000000E+00 0.  1.
         21    1    1    2  505  502 -0.77628085470E+02 -0.10098788690E+03  0.31348633641E+03  0.33837605717E+03  0.00000000000E+00 0.  1.
         -2    1    1    2    0  505  0.48935084934E+02 -0.18011871288E+02  0.10034138590E+04  0.10047678550E+04  0.00000000000E+00 0. -1.
<scales pt_clust_3="62.36948" pt_clust_4="14000.00000" pt_clust_5="89.41934" pt_clust_6="52.14470"></scales>
<clustering>
<clus scale="   52.145">  1  6  2 -1</clus>
<clus scale="   62.369">  2  3  1 -1</clus>
<clus scale="   89.419">  2  5  1 -1</clus>
<clus scale="   62.369">  2  3  1 -1</clus>
</clustering>
</event>
<event>
 6    0  0.6338511E+002  0.9098922E+02  0.7546771E-02  0.1300474E+00
         21   -1    0    0  501  502  0.00000000000E+00  0.00000000000E+00  0.64420374095E+03  0.64420374095E+03  0.00000000000E+00 0.  1.
         -2   -1    0    0    0  501 -0.00000000000E+00 -0.00000000000E+00 -0.24680792618E+04  0.24680792618E+04  0.00000000000E+00 0.  1.
         21    1    1    2  503  504 -0.11534202256E+03 -0.19999781471E+02 -0.14946971841E+03  0.18985512937E+03  0.00000000000E+00 0.  1.
         21    1    1    2  504  502  0.87649640757E+02 -0.23267193119E+02  0.61914334406E+03  0.62574939256E+03  0.00000000000E+00 0.  1.
         21    1    1    2  505  503 -0.36557170797E+01  0.65531732733E+02 -0.81815459467E+03  0.82078298779E+03  0.00000000000E+00 0.  1.
         -2    1    1    2    0  505  0.31348098882E+02 -0.22264758143E+02 -0.14753945519E+04  0.14758954931E+04  0.00000000000E+00 0.  1.
<scales pt_clust_3="14000.00000" pt_clust_4="90.98922" pt_clust_5="52.12484" pt_clust_6="38.45026"></scales>
<clustering>
<clus scale="   38.450">  2  6  1 -1</clus>
<clus scale="   52.125">  2  5  1 -1</clus>
<clus scale="   90.989">  1  4  2 -1</clus>
<clus scale="   90.989">  1  3  2 -1</clus>
</clustering>
</event>
<event>
 6    0  0.6338511E+002  0.8464160E+02  0.7546771E-02  0.1316372E+00
         21   -1    0    0  505  502  0.00000000000E+00  0.00000000000E+00  0.17584084167E+03  0.17584084167E+03  0.00000000000E+00 0.  1.
         -3   -1    0    0    0  501 -0.00000000000E+00 -0.00000000000E+00 -0.24529327004E+04  0.24529327004E+04  0.00000000000E+00 0.  1.
         21    1    1    2  503  502  0.31766448975E+02  0.86036232948E-01  0.92272956678E+02  0.97587976804E+02  0.00000000000E+00 0.  1.
         21    1    1    2  504  503 -0.12217991270E+03 -0.17115352750E+02 -0.58489068266E+02  0.13653511443E+03  0.00000000000E+00 0.  1.
         21    1    1    2  505  501  0.52404503471E+02  0.27583454673E+02  0.20705203016E+02  0.62735830174E+02  0.00000000000E+00 0.  1.
         -3    1    1    2    0  504  0.38008960250E+02 -0.10554138156E+02 -0.23315809502E+04  0.23319146207E+04  0.00000000000E+00 0.  1.
<scales pt_clust_3="31.76657" pt_clust_4="14000.00000" pt_clust_5="84.64160" pt_clust_6="39.51013"></scales>
<clustering>
<clus scale="   31.767">  1  3  2 -1</clus>
<clus scale="   39.510">  2  6  1 -1</clus>
<clus scale="   84.642">  1  5  2 -1</clus>
<clus scale="   31.767">  1  3  2 -1</clus>
</clustering>
</event>
<event>
 6    0  0.6338511E+002  0.1505419E+03  0.7546771E-02  0.1199809E+00
          2   -1    0    0  505    0 -0.00000000000E+00  0.00000000000E+00  0.20407546063E+04  0.20407546063E+04  0.00000000000E+00 0.  1.
         21   -1    0    0  503  502  0.00000000000E+00 -0.00000000000E+00 -0.13664289060E+04  0.13664289060E+04  0.00000000000E+00 0.  1.
         21    1    1    2  503  504  0.42870759515E+02  0.14127724440E+03 -0.11355538503E+03  0.18625785158E+03  0.00000000000E+00 0. -1.
         21    1    1    2  504  501 -0.28716585255E+01 -0.13833315525E+03  0.37281970538E+02  0.14329777943E+03  0.00000000000E+00 0. -1.
         21    1    1    2  505  502  0.28055003990E+02  0.12153566406E+02 -0.11626786844E+04  0.11630806144E+04  0.00000000000E+00 0.  1.
          2    1    1    2  501    0 -0.68054104979E+02 -0.15097655557E+02  0.19132777992E+04  0.19145472670E+04  0.00000000000E+00 0.  1.
<scales pt_clust_3="150.54186" pt_clust_4="14000.00000" pt_clust_5="30.57438" pt_clust_6="69.61507"></scales>
<clustering>
<clus scale="   30.574">  2  5  1 -1</clus>
<clus scale="   69.615">  1  6  2 -1</clus>
<clus scale="  150.542">  2  3  1 -1</clus>
<clus scale="   30.574">  2  3  1 -1</clus>
</clustering>
</event>
<event>
 6    0  0.6338511E+002  0.8753404E+02  0.7546771E-02  0.1308936E+00
          2   -1    0    0  503    0 -0.00000000000E+00  0.00000000000E+00  0.96563584481E+03  0.96563584481E+03  0.00000000000E+00 0.  1.
         21   -1    0    0  505  502  0.00000000000E+00 -0.00000000000E+00 -0.73214216235E+02  0.73214216235E+02  0.00000000000E+00 0.  1.
         21    1    1    2  503  504 -0.26019272586E+02 -0.66800833113E+02  0.23477692957E+03  0.24547822817E+03  0.00000000000E+00 0.  1.
         21    1    1    2  504  502 -0.16464617997E+02 -0.80956307754E+02 -0.19764763362E+02  0.84945001511E+02  0.00000000000E+00 0.  1.
         21    1    1    2  505  501  0.12372620067E+02  0.13345974752E+03  0.28875742517E+03  0.31834798024E+03  0.00000000000E+00 0.  1.
          2    1    1    2  501    0  0.30111270515E+02  0.14297393352E+02  0.38865203720E+03  0.39007885111E+03  0.00000000000E+00 0.  1.
<scales pt_clust_3="62.31689" pt_clust_4="87.53404" pt_clust_5="14000.00000" pt_clust_6="33.33323"></scales>
<clustering>
<clus scale="   33.333">  1  6  2 -1</clus>
<clus scale="   62.317">  1  3  2 -1</clus>
<clus scale="   87.534">  2  4  1 -1</clus>
<clus scale="   87.534">  2  3  1 -1</clus>
</clustering>
</event>
<event>
 6    0  0.6338511E+002  0.1424223E+03  0.7546771E-02  0.1210106E+00
         21   -1    0    0  504  502  0.00000000000E+00  0.00000000000E+00  0.27375112571E+03  0.27375112571E+03  0.00000000000E+00 0.  1.
          1   -1    0    0  502    0 -0.00000000000E+00 -0.00000000000E+00 -0.53715921879E+03  0.53715921879E+03  0.00000000000E+00 0. -1.
         21    1    1    2  503  501 -0.76642008270E+02  0.74418206302E+01 -0.32739258251E+02  0.83673395753E+02  0.00000000000E+00 0. -1.
         21    1    1    2  504  505 -0.48560773109E+02 -0.12764706013E+03  0.71014146179E+02  0.15393157442E+03  0.00000000000E+00 0.  1.
         21    1    1    2  505  503  0.94946481432E+02  0.11867164344E+03  0.92529070497E+02  0.17793094779E+03  0.00000000000E+00 0.  1.
          1    1    1    2  501    0  0.30256299948E+02  0.15335960585E+01 -0.39421205151E+03  0.39537442654E+03  0.00000000000E+00 0. -1.
<scales pt_clust_3="64.77623" pt_clust_4="142.42233" pt_clust_5="14000.00000" pt_clust_6="30.29514"></scales>
<clustering>
<clus scale="   30.295">  2  6  1 -1</clus>
<clus scale="   64.776">  2  3  1 -1</clus>
<clus scale="  142.422">  1  4  2 -1</clus>
<clus scale="  142.422">  1  3  2 -1</clus>
</clustering>
</event>
<event>
 6    0  0.6338511E+002  0.1204644E+03  0.7546771E-02  0.1242333E+00
         21   -1    0    0  501  502  0.00000000000E+00  0.00000000000E+00  0.36104331324E+02  0.36104331324E+02  0.00000000000E+00 0.  1.
          2   -1    0    0  505    0 -0.00000000000E+00 -0.00000000000E+00 -0.13753208540E+04  0.13753208540E+04  0.00000000000E+00 0. -1.
         21    1    1    2  503  502  0.85967327885E+02  0.21079708910E+02 -0.63213782470E+02  0.10876910354E+03  0.00000000000E+00 0.  1.
         21    1    1    2  504  503  0.16872465572E+01  0.30517762475E+02 -0.70790639947E+02  0.77107038146E+02  0.00000000000E+00 0. -1.
         21    1    1    2  505  504 -0.72912520127E+02  0.61765726882E+02 -0.35305503637E+03  0.36575825256E+03  0.00000000000E+00 0.  1.
          2    1    1    2  501    0 -0.14742054315E+02 -0.11336319827E+03 -0.85215706390E+03  0.85979079109E+03  0.00000000000E+00 0. -1.
<scales pt_clust_3="88.51404" pt_clust_4="30.43102" pt_clust_5="30.43102" pt_clust_6="107.77957"></scales>
<clustering>
<clus scale="   30.431">  4  5 -1 -1</clus>
<clus scale="   88.514">  1  3  2 -1</clus>
<clus scale="  107.780">  2  6  1 -1</clus>
<clus scale="   88.514">  1  3  2 -1</clus>
</clustering>
</event>
<event>
 6    0  0.6338511E+002  0.1085746E+03  0.7546771E-02  0.1263233E+00
         21   -1    0    0  504  502  0.00000000000E+00  0.00000000000E+00  0.63378678973E+03  0.63378678973E+03  0.00000000000E+00 0.  1.
          2   -1    0    0  503    0 -0.00000000000E+00 -0.00000000000E+00 -0.19435153475E+04  0.19435153475E+04  0.00000000000E+00 0. -1.
         21    1    1    2  503  502 -0.19144849212E+03 -0.38762830964E+02  0.29783429533E+03  0.35617460559E+03  0.00000000000E+00 0.  1.
         21    1    1    2  504  505  0.10484986059E+02  0.30114093902E+02  0.19527705131E+03  0.19786338810E+03  0.00000000000E+00 0.  1.
         21    1    1    2  505  501  0.75476440802E+02 -0.15276403327E+02  0.95030088322E+02  0.12231426450E+03  0.00000000000E+00 0.  1.
          2    1    1    2  501    0  0.10548706526E+03  0.23925140389E+02 -0.18978699927E+04  0.19009498790E+04  0.00000000000E+00 0. -1.
<scales pt_clust_3="108.57455" pt_clust_4="31.88720" pt_clust_5="78.47030" pt_clust_6="14000.00000"></scales>
<clustering>
<clus scale="   31.887">  1  4  2 -1</clus>
<clus scale="   78.470">  1  5  2 -1</clus>
<clus scale="  108.575">  1  3  2 -1</clus>
<clus scale="   31.887">  1  3  2 -1</clus>
</clustering>
</event>
<event>
 6    0  0.6338511E+002  0.1345194E+03  0.7546771E-02  0.1220900E+00
          2   -1    0    0  504    0 -0.00000000000E+00  0.00000000000E+00  0.20102110398E+04  0.20102110398E+04  0.00000000000E+00 0.  1.
         21   -1    0    0  505  502  0.00000000000E+00 -0.00000000000E+00 -0.16311956163E+03  0.16311956163E+03  0.00000000000E+00 0.  1.
         21    1    1    2  503  501  0.12537955328E+03  0.34717152593E+02  0.16661649058E+01  0.13010799042E+03  0.00000000000E+00 0.  1.
         21    1    1    2  504  502 -0.94453107601E+02 -0.40308376199E+02  0.16251870697E+04  0.16284284344E+04  0.00000000000E+00 0.  1.
         21    1    1    2  505  503  0.11383528335E+02 -0.28465915279E+02 -0.92461940118E+02  0.97412029136E+02  0.00000000000E+00 0.  1.
          2    1    1    2  501    0 -0.42309974014E+02  0.34057138885E+02  0.31270018367E+03  0.31738214739E+03  0.00000000000E+00 0.  1.
<scales pt_clust_3="14000.00000" pt_clust_4="134.51937" pt_clust_5="30.65768" pt_clust_6="53.39931"></scales>
<clustering>
<clus scale="   30.658">  2  5  1 -1</clus>
<clus scale="   53.399">  1  6  2 -1</clus>
<clus scale="  134.519">  1  4  2 -1</clus>
<clus scale="   30.658">  2  3  1 -1</clus>
</clustering>
</event>
<event>
 6    0  0.6338511E+002  0.1061071E+03  0.7546771E-02  0.1267954E+00
         21   -1    0    0  504  502  0.00000000000E+00  0.00000000000E+00  0.47069452235E+03  0.47069452235E+03  0.00000000000E+00 0.  1.
          1   -1    0    0  503    0 -0.00000000000E+00 -0.00000000000E+00 -0.35963566213E+04  0.35963566213E+04  0.00000000000E+00 0. -1.
         21    1    1    2  503  502 -0.13816472031E+02  0.52729259099E+02  0.25142548291E+02  0.60028471570E+02  0.00000000000E+00 0. -1.
         21    1    1    2  504  505 -0.80375368869E+02 -0.55215266075E+02  0.42175792152E+03  0.43288412988E+03  0.00000000000E+00 0.  1.
         21    1    1    2  505  501  0.53568150613E+02 -0.21572650909E+02 -0.16988858810E+04  0.16998671015E+04  0.00000000000E+00 0. -1.
          1    1    1    2  501    0  0.40623690287E+02  0.24058657885E+02 -0.18736766877E+04  0.18742714407E+04  0.00000000000E+00 0. -1.
<scales pt_clust_3="54.50935" pt_clust_4="94.20183" pt_clust_5="44.15505" pt_clust_6="44.15505"></scales>
<clustering>
<clus scale="   44.155">  5  6 -1 -1</clus>
<clus scale="   54.509">  1  3  2 -1</clus>
<clus scale="   94.202">  1  4  2 -1</clus>
<clus scale="   54.509">  1  3  2 -1</clus>
</clustering>
</event>
<event>
 6    0  0.6338511E+002  0.1642068E+03  0.7546771E-02  0.1184028E+00
         21   -1    0    0  503  502  0.00000000000E+00  0.00000000000E+00  0.50910028503E+02  0.50910028503E+02  0.00000000000E+00 0. -1.
          1   -1    0    0  504    0 -0.00000000000E+00 -0.00000000000E+00 -0.18830407080E+04  0.18830407080E+04  0.00000000000E+00 0.  1.
         21    1    1    2  503  501 -0.76478893864E+02  0.52944401880E+02 -0.41469331630E+03  0.42499726761E+03  0.00000000000E+00 0.  1.
         21    1    1    2  504  505  0.86213740852E+02 -0.87388217420E+02 -0.14839230366E+03  0.19258708534E+03  0.00000000000E+00 0. -1.
         21    1    1    2  505  502  0.36908702688E+02 -0.35160684810E+02 -0.68969516940E+01  0.51440198610E+02  0.00000000000E+00 0. -1.
          1    1    1    2  501    0 -0.46643549676E+02  0.69604500351E+02 -0.12621481079E+04  0.12649261850E+04  0.00000000000E+00 0.  1.
<scales pt_clust_3="147.33183" pt_clust_4="46.72335" pt_clust_5="46.72335" pt_clust_6="83.78787"></scales>
<clustering>
<clus scale="   46.723">  4  5 -1 -1</clus>
<clus scale="   83.788">  2  6  1 -1</clus>
<clus scale="  147.332">  2  3  1 -1</clus>
<clus scale="  164.207">  1  3  2 -1</clus>
</clustering>
</event>
<event>
 6    0  0.6338511E+002  0.1071002E+03  0.7546771E-02  0.1266036E+00
         21   -1    0    0  505  502  0.00000000000E+00  0.00000000000E+00  0.30135429303E+04  0.30135429303E+04  0.00000000000E+00 0. -1.
          2   -1    0    0  503    0 -0.00000000000E+00 -0.00000000000E+00 -0.92127449722E+03  0.92127449722E+03  0.00000000000E+00 0.  1.
         21    1    1    2  503  504  0.85556262509E+02 -0.80383598738E+02 -0.22079250007E+03  0.25006144263E+03  0.00000000000E+00 0.  1.
         21    1    1    2  504  502  0.32023424075E+02 -0.19718563897E+02  0.34322382431E+03  0.34527802569E+03  0.00000000000E+00 0. -1.
         21    1    1    2  505  501 -0.64315644950E+02  0.93075019072E+01  0.26502117410E+04  0.26510083749E+04  0.00000000000E+00 0. -1.
          2    1    1    2  501    0 -0.53264041633E+02  0.90794660727E+02 -0.68037463210E+03  0.68846958434E+03  0.00000000000E+00 0.  1.
<scales pt_clust_3="14000.00000" pt_clust_4="37.60747" pt_clust_5="34.10056" pt_clust_6="107.10024"></scales>
<clustering>
<clus scale="   37.607">  1  4  2 -1</clus>
<clus scale="   34.101">  1  5  2 -1</clus>
<clus scale="  107.100">  2  6  1 -1</clus>
<clus scale="   37.607">  1  3  2 -1</clus>
</clustering>
</event>
<event>
 6    0  0.6338511E+002  0.2038343E+03  0.7546771E-02  0.1146544E+00
         21   -1    0    0  503  502  0.00000000000E+00  0.00000000000E+00  0.67638614299E+02  0.67638614299E+02  0.00000000000E+00 0.  1.
          2   -1    0    0  504    0 -0.00000000000E+00 -0.00000000000E+00 -0.15581436626E+04  0.15581436626E+04  0.00000000000E+00 0.  1.
         21    1    1    2  503  501 -0.23423723366E+02 -0.76572374687E+02 -0.40354574454E+02  0.89668785321E+02  0.00000000000E+00 0. -1.
         21    1    1    2  504  505  0.39902719516E+02  0.97852612772E+01 -0.59827797948E+02  0.72576468434E+02  0.00000000000E+00 0.  1.
         21    1    1    2  505  502  0.92870766686E+02  0.20065029336E+03 -0.38933810771E+03  0.44773840761E+03  0.00000000000E+00 0.  1.
          2    1    1    2  501    0 -0.10934976284E+03 -0.13386317995E+03 -0.10009845682E+04  0.10157986156E+04  0.00000000000E+00 0.  1.
<scales pt_clust_3="80.07496" pt_clust_4="36.23451" pt_clust_5="36.23451" pt_clust_6="185.69545"></scales>
<clustering>
<clus scale="   36.235">  4  5 -1 -1</clus>
<clus scale="   80.075">  1  3  2 -1</clus>
<clus scale="  185.695">  2  6  1 -1</clus>
<clus scale="   80.075">  1  3  2 -1</clus>
</clustering>
</event>
<event>
 6    0  0.6338511E+002  0.1437968E+03  0.7546771E-02  0.1208310E+00
          2   -1    0    0  505    0 -0.00000000000E+00  0.00000000000E+00  0.25063664202E+04  0.25063664202E+04  0.00000000000E+00 0.  1.
         21   -1    0    0  503  502  0.00000000000E+00 -0.00000000000E+00 -0.43929719441E+03  0.43929719441E+03  0.00000000000E+00 0. -1.
         21    1    1    2  503  504  0.17390577840E+02  0.87683112669E+02 -0.92007862972E+02  0.12828174965E+03  0.00000000000E+00 0. -1.
         21    1    1    2  504  501  0.69242016555E+02  0.76389447859E+02 -0.48166175255E+02  0.11379712228E+03  0.00000000000E+00 0. -1.
         21    1    1    2  505  502 -0.78487239809E+02 -0.81919040871E+02 -0.23447071617E+03  0.26047551289E+03  0.00000000000E+00 0. -1.
          2    1    1    2  501    0 -0.81453545869E+01 -0.82153519657E+02  0.24417139802E+04  0.24431092298E+04  0.00000000000E+00 0.  1.
<scales pt_clust_3="62.65972" pt_clust_4="62.65972" pt_clust_5="127.07914" pt_clust_6="82.55633"></scales>
<clustering>
<clus scale="   62.660">  3  4 -1 -1</clus>
<clus scale="   82.556">  1  6  2 -1</clus>
<clus scale="  127.079">  2  5  1 -1</clus>
<clus scale="  127.079">  2  3  1 -1</clus>
</clustering>
</event>
<event>
 6    0  0.6338511E+002  0.2373448E+03  0.7546771E-02  0.1121574E+00
         21   -1    0    0  503  502  0.00000000000E+00  0.00000000000E+00  0.20679505234E+03  0.20679505234E+03  0.00000000000E+00 0. -1.
          2   -1    0    0  505    0 -0.00000000000E+00 -0.00000000000E+00 -0.74127844808E+03  0.74127844808E+03  0.00000000000E+00 0. -1.
         21    1    1    2  503  501  0.21744120411E+03  0.16458744420E+03 -0.29409239533E+03  0.40107361048E+03  0.00000000000E+00 0. -1.
         21    1    1    2  504  502 -0.95369965081E+02 -0.56166211431E+02  0.56360268694E+02  0.12420367721E+03  0.00000000000E+00 0. -1.
         21    1    1    2  505  504 -0.18990023467E+03 -0.84510989014E+02 -0.14078647109E+03  0.25104787757E+03  0.00000000000E+00 0. -1.
          2    1    1    2  501    0  0.67828995639E+02 -0.23910243755E+02 -0.15596479801E+03  0.17174833515E+03  0.00000000000E+00 0. -1.
<scales pt_clust_3="14000.00000" pt_clust_4="108.00770" pt_clust_5="237.34479" pt_clust_6="71.91990"></scales>
<clustering>
<clus scale="   71.920">  2  6  1 -1</clus>
<clus scale="  108.008">  1  4  2 -1</clus>
<clus scale="  237.345">  2  5  1 -1</clus>
<clus scale="  108.008">  1  3  2 -1</clus>
</clustering>
</event>
<event>
 6    0  0.6338511E+002  0.1318570E+03  0.7546771E-02  0.1224726E+00
         21   -1    0    0  501  502  0.00000000000E+00  0.00000000000E+00  0.47606842441E+03  0.47606842441E+03  0.00000000000E+00 0. -1.
          1   -1    0    0  505    0 -0.00000000000E+00 -0.00000000000E+00 -0.27382573488E+03  0.27382573488E+03  0.00000000000E+00 0. -1.
         21    1    1    2  503  502  0.23041789670E+02 -0.69856616787E+02  0.16797472657E+03  0.18337497034E+03  0.00000000000E+00 0. -1.
         21    1    1    2  504  503  0.23902592932E+02 -0.41709229717E+02  0.27062613273E+03  0.27486268846E+03  0.00000000000E+00 0. -1.
         21    1    1    2  505  504 -0.14113005213E+02  0.11144240137E+03 -0.96793277767E+02  0.14828190840E+03  0.00000000000E+00 0. -1.
          1    1    1    2  501    0 -0.32831377388E+02  0.12344513421E+00 -0.13956489199E+03  0.14337459209E+03  0.00000000000E+00 0. -1.
<scales pt_clust_3="44.04008" pt_clust_4="44.04008" pt_clust_5="120.10802" pt_clust_6="32.83161"></scales>
<clustering>
<clus scale="   32.832">  2  6  1 -1</clus>
<clus scale="   44.040">  3  4 -1 -1</clus>
<clus scale="  120.108">  2  5  1 -1</clus>
<clus scale="  131.857">  1  3  2 -1</clus>
</clustering>
</event>
<event>
 6    0  0.6338511E+002  0.8454684E+02  0.7546771E-02  0.1316622E+00
         -1   -1    0    0    0  501 -0.00000000000E+00  0.00000000000E+00  0.22717581492E+04  0.22717581492E+04  0.00000000000E+00 0.  1.
         21   -1    0    0  505  502  0.00000000000E+00 -0.00000000000E+00 -0.28344169395E+02  0.28344169395E+02  0.00000000000E+00 0.  1.
         21    1    1    2  503  502 -0.97858774877E+02 -0.26352613602E+02  0.10791921251E+03  0.14804511641E+03  0.00000000000E+00 0.  1.
         21    1    1    2  504  503  0.87777168029E+02  0.14972867561E+02  0.71143008935E+03  0.71698102487E+03  0.00000000000E+00 0.  1.
         21    1    1    2  505  501  0.27665496216E+02 -0.16069905730E+02  0.42848543611E+02  0.53475407812E+02  0.00000000000E+00 0. -1.
         -1    1    1    2    0  504 -0.17583889368E+02  0.27449651771E+02  0.13812161343E+04  0.13816007695E+04  0.00000000000E+00 0.  1.
<scales pt_clust_3="84.54684" pt_clust_4="14000.00000" pt_clust_5="31.99409" pt_clust_6="32.36134"></scales>
<clustering>
<clus scale="   31.994">  2  5  1 -1</clus>
<clus scale="   32.361">  1  6  2 -1</clus>
<clus scale="   84.547">  2  3  1 -1</clus>
<clus scale="   31.994">  2  3  1 -1</clus>
</clustering>
</event>
<event>
 6    0  0.6338511E+002  0.8648267E+02  0.7546771E-02  0.1311600E+00
         21   -1    0    0  503  502  0.00000000000E+00  0.00000000000E+00  0.47821149371E+02  0.47821149371E+02  0.00000000000E+00 0.  1.
          2   -1    0    0  505    0 -0.00000000000E+00 -0.00000000000E+00 -0.24210713259E+04  0.24210713259E+04  0.00000000000E+00 0.  1.
         21    1    1    2  503  501  0.22142856464E+02  0.43671142624E+02 -0.13413306115E+02  0.50768017209E+02  0.00000000000E+00 0. -1.
         21    1    1    2  504  502  0.65845383733E+02 -0.42271794005E+02 -0.29463961086E+02  0.83610071943E+02  0.00000000000E+00 0.  1.
         21    1    1    2  505  504 -0.86960750118E+02  0.37630846641E+02 -0.19044365594E+04  0.19067922964E+04  0.00000000000E+00 0.  1.
          2    1    1    2  501    0 -0.10274900792E+01 -0.39030195260E+02 -0.42593634995E+03  0.42772208978E+03  0.00000000000E+00 0.  1.
<scales pt_clust_3="48.39712" pt_clust_4="14000.00000" pt_clust_5="86.48267" pt_clust_6="39.04372"></scales>
<clustering>
<clus scale="   39.044">  2  6  1 -1</clus>
<clus scale="   48.397">  1  3  2 -1</clus>
<clus scale="   86.483">  2  5  1 -1</clus>
<clus scale="   48.397">  1  3  2 -1</clus>
</clustering>
</event>
<event>
 6    0  0.6338511E+002  0.2264829E+03  0.7546771E-02  0.1129140E+00
          2   -1    0    0  505    0 -0.00000000000E+00  0.00000000000E+00  0.19222293890E+04  0.19222293890E+04  0.00000000000E+00 0.  1.
         21   -1    0    0  503  502  0.00000000000E+00 -0.00000000000E+00 -0.51908375661E+03  0.51908375661E+03  0.00000000000E+00 0.  1.
         21    1    1    2  503  504 -0.19226876023E+02 -0.28011940539E+02 -0.38627194825E+03  0.38776327776E+03  0.00000000000E+00 0.  1.
         21    1    1    2  504  501 -0.10266486821E+03 -0.13495343729E+03  0.13682689663E+03  0.21788553198E+03  0.00000000000E+00 0. -1.
         21    1    1    2  505  502  0.19410835637E+03  0.22737191928E+03  0.15837260440E+03  0.33831630985E+03  0.00000000000E+00 0.  1.
          2    1    1    2  501    0 -0.72216612132E+02 -0.64406541448E+02  0.14942180796E+04  0.14973480260E+04  0.00000000000E+00 0.  1.
<scales pt_clust_3="33.97560" pt_clust_4="14000.00000" pt_clust_5="226.48291" pt_clust_6="97.15590"></scales>
<clustering>
<clus scale="   33.976">  2  3  1 -1</clus>
<clus scale="   97.156">  1  6  2 -1</clus>
<clus scale="  226.483">  1  5  2 -1</clus>
<clus scale="   33.976">  2  3  1 -1</clus>
</clustering>
</event>
<event>
 6    0  0.6338511E+002  0.2133899E+03  0.7546771E-02  0.1138909E+00
          2   -1    0    0  503    0 -0.00000000000E+00  0.00000000000E+00  0.30413993203E+04  0.30413993203E+04  0.00000000000E+00 0. -1.
         21   -1    0    0  504  502  0.00000000000E+00 -0.00000000000E+00 -0.43002064109E+02  0.43002064109E+02  0.00000000000E+00 0. -1.
         21    1    1    2  503  502 -0.14627859906E+02 -0.40658763591E+02  0.96358974906E+02  0.10560379438E+03  0.00000000000E+00 0. -1.
         21    1    1    2  504  505  0.14605518969E+03 -0.90479249559E+02  0.22897041658E+03  0.28626223067E+03  0.00000000000E+00 0. -1.
         21    1    1    2  505  501  0.32897695984E+02  0.14596197239E+02  0.49270977769E+02  0.61015871912E+02  0.00000000000E+00 0. -1.
          2    1    1    2  501    0 -0.16432502577E+03  0.11654181591E+03  0.26237968870E+04  0.26315194875E+04  0.00000000000E+00 0. -1.
<scales pt_clust_3="43.21006" pt_clust_4="33.63750" pt_clust_5="33.63750" pt_clust_6="200.33428"></scales>
<clustering>
<clus scale="   33.638">  4  5 -1 -1</clus>
<clus scale="   43.210">  2  3  1 -1</clus>
<clus scale="  200.334">  1  6  2 -1</clus>
<clus scale="   43.210">  2  3  1 -1</clus>
</clustering>
</event>
<event>
 6    0  0.6338511E+002  0.6367560E+02  0.7546771E-02  0.1383024E+00
          1   -1    0    0  503    0 -0.00000000000E+00  0.00000000000E+00  0.24600150514E+04  0.24600150514E+04  0.00000000000E+00 0. -1.
         21   -1    0    0  504  502  0.00000000000E+00 -0.00000000000E+00 -0.16124788060E+04  0.16124788060E+04  0.00000000000E+00 0. -1.
         21    1    1    2  503  505  0.76184384271E+02 -0.70203320948E+02  0.44272806407E+03  0.45468748102E+03  0.00000000000E+00 0.  1.
         21    1    1    2  504  501 -0.83247132552E+00  0.54000730251E+02 -0.86993172932E+02  0.10239425771E+03  0.00000000000E+00 0. -1.
         21    1    1    2  505  502 -0.53430080408E+02 -0.21890870825E+02 -0.15110128779E+04  0.15121157035E+04  0.00000000000E+00 0. -1.
          1    1    1    2  501    0 -0.21921832538E+02  0.38093461522E+02  0.20028142321E+04  0.20032964151E+04  0.00000000000E+00 0. -1.
<scales pt_clust_3="63.67560" pt_clust_4="54.65589" pt_clust_5="14000.00000" pt_clust_6="43.95087"></scales>
<clustering>
<clus scale="   43.951">  1  6  2 -1</clus>
<clus scale="   54.656">  2  4  1 -1</clus>
<clus scale="   63.676">  1  3  2 -1</clus>
<clus scale="   54.656">  2  3  1 -1</clus>
</clustering>
</event>
<event>
 6    0  0.6338511E+002  0.1420206E+03  0.7546771E-02  0.1210636E+00
         21   -1    0    0  505  502  0.00000000000E+00  0.00000000000E+00  0.82457262059E+03  0.82457262059E+03  0.00000000000E+00 0. -1.
          1   -1    0    0  502    0 -0.00000000000E+00 -0.00000000000E+00 -0.72100798275E+03  0.72100798275E+03  0.00000000000E+00 0. -1.
         21    1    1    2  503  501  0.53455471713E+02 -0.36517454231E+02 -0.21559027350E+03  0.22510037305E+03  0.00000000000E+00 0. -1.
         21    1    1    2  504  503 -0.10912439028E+03  0.11974254235E+03  0.36684688285E+03  0.40102748591E+03  0.00000000000E+00 0. -1.
         21    1    1    2  505  504  0.76099001945E+01 -0.35665545470E+02  0.43274623507E+03  0.43428014654E+03  0.00000000000E+00 0. -1.
          1    1    1    2  501    0  0.48059018369E+02 -0.47559542653E+02 -0.48043820658E+03  0.48517259783E+03  0.00000000000E+00 0. -1.
<scales pt_clust_3="50.50308" pt_clust_4="132.33269" pt_clust_5="36.46837" pt_clust_6="50.50308"></scales>
<clustering>
<clus scale="   36.468">  1  5  2 -1</clus>
<clus scale="   50.503">  3  6 -1 -1</clus>
<clus scale="  132.333">  1  4  2 -1</clus>
<clus scale="   36.468">  1  3  2 -1</clus>
</clustering>
</event>
<event>
 6    0  0.6338511E+002  0.7720333E+02  0.7546771E-02  0.1337181E+00
         -1   -1    0    0    0  501 -0.00000000000E+00  0.00000000000E+00  0.33458525181E+03  0.33458525181E+03  0.00000000000E+00 0.  1.
         21   -1    0    0  504  502  0.00000000000E+00 -0.00000000000E+00 -0.96526044585E+02  0.96526044585E+02  0.00000000000E+00 0. -1.
         21    1    1    2  503  501  0.47804892699E+02 -0.47944187822E+02  0.45706282442E+02  0.81688537547E+02  0.00000000000E+00 0. -1.
         21    1    1    2  504  503 -0.98768145922E+01 -0.28647706619E+02  0.95888114931E+01  0.31783452721E+02  0.00000000000E+00 0. -1.
         21    1    1    2  505  502 -0.43889282573E+02 -0.37714220002E+02 -0.37817199887E+02  0.69128663537E+02  0.00000000000E+00 0. -1.
         -1    1    1    2    0  505  0.59612044666E+01  0.11430611444E+03  0.22058131318E+03  0.24851064259E+03  0.00000000000E+00 0.  1.
<scales pt_clust_3="70.74119" pt_clust_4="30.30252" pt_clust_5="77.20333" pt_clust_6="14000.00000"></scales>
<clustering>
<clus scale="   30.303">  2  4  1 -1</clus>
<clus scale="   70.741">  1  3  2 -1</clus>
<clus scale="   77.203">  2  5  1 -1</clus>
<clus scale="   30.303">  2  3  1 -1</clus>
</clustering>
</event>
<event>
 6    0  0.6338511E+002  0.7626356E+02  0.7546771E-02  0.1340002E+00
          2   -1    0    0  505    0 -0.00000000000E+00  0.00000000000E+00  0.65512622749E+03  0.65512622749E+03  0.00000000000E+00 0. -1.
         21   -1    0    0  504  502  0.00000000000E+00 -0.00000000000E+00 -0.34568174621E+03  0.34568174621E+03  0.00000000000E+00 0.  1.
         21    1    1    2  503  501  0.23553449453E+01 -0.62757608553E+02 -0.63572456173E+02  0.89361749451E+02  0.00000000000E+00 0. -1.
         21    1    1    2  504  503  0.17310340831E+02 -0.27733110581E+02 -0.20064813803E+03  0.20329399553E+03  0.00000000000E+00 0.  1.
         21    1    1    2  505  502  0.55550377630E+02  0.75795903431E+02 -0.30766862691E+02  0.98881056181E+02  0.00000000000E+00 0. -1.
          2    1    1    2  501    0 -0.75216063406E+02  0.14694815703E+02  0.60443193818E+03  0.60927117254E+03  0.00000000000E+00 0. -1.
<scales pt_clust_3="14000.00000" pt_clust_4="32.69210" pt_clust_5="74.16148" pt_clust_6="76.26356"></scales>
<clustering>
<clus scale="   32.692">  2  4  1 -1</clus>
<clus scale="   76.264">  1  6  2 -1</clus>
<clus scale="   74.161">  1  5  2 -1</clus>
<clus scale="   32.692">  2  3  1 -1</clus>
</clustering>
</event>
<event>
 6    0  0.6338511E+002  0.2213883E+03  0.7546771E-02  0.1132852E+00
          2   -1    0    0  505    0 -0.00000000000E+00  0.00000000000E+00  0.30570329389E+03  0.30570329389E+03  0.00000000000E+00 0. -1.
         21   -1    0    0  504  502  0.00000000000E+00 -0.00000000000E+00 -0.55920674959E+03  0.55920674959E+03  0.00000000000E+00 0.  1.
         21    1    1    2  503  501  0.10428352921E+03 -0.83395869461E+01 -0.10335592921E+02  0.10512577066E+03  0.00000000000E+00 0. -1.
         21    1    1    2  504  503  0.34223364722E+02 -0.17733344630E+02 -0.32702278366E+02  0.50548483805E+02  0.00000000000E+00 0. -1.
         21    1    1    2  505  502 -0.27599590059E+03 -0.20078117457E+02 -0.39015081352E+03  0.47832470691E+03  0.00000000000E+00 0.  1.
          2    1    1    2  501    0  0.13748900666E+03  0.46151049034E+02  0.17968522912E+03  0.23091108211E+03  0.00000000000E+00 0. -1.
<scales pt_clust_3="30.46026" pt_clust_4="30.46026" pt_clust_5="215.62586" pt_clust_6="145.02809"></scales>
<clustering>
<clus scale="   30.460">  3  4 -1 -1</clus>
<clus scale="  145.028">  1  6  2 -1</clus>
<clus scale="  215.626">  2  5  1 -1</clus>
<clus scale="  215.626">  2  3  1 -1</clus>
</clustering>
</event>
<event>
 6    0  0.6338511E+002  0.9586908E+02  0.7546771E-02  0.1289231E+00
         21   -1    0    0  504  502  0.00000000000E+00  0.00000000000E+00  0.11484160641E+03  0.11484160641E+03  0.00000000000E+00 0.  1.
          2   -1    0    0  503    0 -0.00000000000E+00 -0.00000000000E+00 -0.95052784287E+03  0.95052784287E+03  0.00000000000E+00 0.  1.
         21    1    1    2  503  505  0.96556334392E+00  0.51735748939E+02 -0.11391561987E+03  0.12511709908E+03  0.00000000000E+00 0.  1.
         21    1    1    2  504  501  0.69055440193E+02 -0.88626225127E+02 -0.28333394093E+03  0.30479728294E+03  0.00000000000E+00 0.  1.
         21    1    1    2  505  502 -0.52855122205E+02  0.78459615866E+02  0.74583771705E+02  0.12046706715E+03  0.00000000000E+00 0.  1.
          2    1    1    2  501    0 -0.17165881332E+02 -0.41569139678E+02 -0.51302044735E+03  0.51498800011E+03  0.00000000000E+00 0.  1.
<scales pt_clust_3="40.52689" pt_clust_4="14000.00000" pt_clust_5="95.86908" pt_clust_6="44.97400"></scales>
<clustering>
<clus scale="   44.974">  2  6  1 -1</clus>
<clus scale="   40.527">  2  3  1 -1</clus>
<clus scale="   95.869">  1  5  2 -1</clus>
<clus scale="   95.869">  1  3  2 -1</clus>
</clustering>
</event>
<event>
 6    0  0.6338511E+002  0.1141793E+03  0.7546771E-02  0.1253020E+00
          1   -1    0    0  505    0 -0.00000000000E+00  0.00000000000E+00  0.40612553025E+03  0.40612553025E+03  0.00000000000E+00 0. -1.
         21   -1    0    0  501  502  0.00000000000E+00 -0.00000000000E+00 -0.21351825713E+03  0.21351825713E+03  0.00000000000E+00 0. -1.
         21    1    1    2  503  502  0.28032807438E+01  0.55615326319E+02 -0.41770716662E+02  0.69611174929E+02  0.00000000000E+00 0. -1.
         21    1    1    2  504  503  0.54222647800E+02 -0.61628970609E+02 -0.98954821194E+02  0.12857014502E+03  0.00000000000E+00 0. -1.
         21    1    1    2  505  504  0.41983862697E+02  0.14169534462E+01 -0.25534168038E+02  0.49159396065E+02  0.00000000000E+00 0.  1.
          1    1    1    2  501    0 -0.99009791241E+02  0.45966908434E+01  0.35886697901E+03  0.37230307137E+03  0.00000000000E+00 0. -1.
<scales pt_clust_3="55.68593" pt_clust_4="40.52473" pt_clust_5="40.52473" pt_clust_6="99.13537"></scales>
<clustering>
<clus scale="   40.525">  4  5 -1 -1</clus>
<clus scale="   55.686">  2  3  1 -1</clus>
<clus scale="   99.135">  1  6  2 -1</clus>
<clus scale="   55.686">  2  3  1 -1</clus>
</clustering>
</event>
<event>
 6    0  0.6338511E+002  0.8891414E+02  0.7546771E-02  0.1305503E+00
         21   -1    0    0  504  502  0.00000000000E+00  0.00000000000E+00  0.28188499376E+03  0.28188499376E+03  0.00000000000E+00 0.  1.
          1   -1    0    0  505    0 -0.00000000000E+00 -0.00000000000E+00 -0.13299965128E+03  0.13299965128E+03  0.00000000000E+00 0.  1.
         21    1    1    2  503  501 -0.24024609414E+01  0.72513863243E+02  0.49161101337E+02  0.87640436248E+02  0.00000000000E+00 0. -1.
         21    1    1    2  504  503 -0.37093151064E+02  0.11067804366E+02  0.50767683274E+02  0.63841646394E+02  0.00000000000E+00 0.  1.
         21    1    1    2  505  502 -0.28416630957E+02 -0.10506056952E+03  0.12055046323E+03  0.16241195266E+03  0.00000000000E+00 0.  1.
          1    1    1    2  501    0  0.67912242962E+02  0.21478901908E+02 -0.71593905355E+02  0.10099060974E+03  0.00000000000E+00 0.  1.
<scales pt_clust_3="88.91414" pt_clust_4="38.70915" pt_clust_5="14000.00000" pt_clust_6="69.14632"></scales>
<clustering>
<clus scale="   38.709">  1  4  2 -1</clus>
<clus scale="   69.146">  2  6  1 -1</clus>
<clus scale="   88.914">  2  3  1 -1</clus>
<clus scale="   38.709">  1  3  2 -1</clus>
</clustering>
</event>
<event>
 6    0  0.6338511E+002  0.2041999E+03  0.7546771E-02  0.1146243E+00
         21   -1    0    0  505  502  0.00000000000E+00  0.00000000000E+00  0.53874986661E+03  0.53874986661E+03  0.00000000000E+00 0.  1.
         -2   -1    0    0    0  501 -0.00000000000E+00 -0.00000000000E+00 -0.12502226523E+04  0.12502226523E+04  0.00000000000E+00 0.  1.
         21    1    1    2  503  501 -0.36109659286E+02 -0.12711124272E+03 -0.80723004887E+02  0.15484630779E+03  0.00000000000E+00 0.  1.
         21    1    1    2  504  503 -0.22755958833E+02  0.14420349503E+03  0.26100468241E+03  0.29905839878E+03  0.00000000000E+00 0.  1.
         21    1    1    2  505  504 -0.41311165780E+02  0.52438548154E+02  0.21319899446E+03  0.22340596453E+03  0.00000000000E+00 0.  1.
         -2    1    1    2    0  502  0.10017678390E+03 -0.69530800464E+02 -0.11049534577E+04  0.11116618478E+04  0.00000000000E+00 0.  1.
<scales pt_clust_3="190.71025" pt_clust_4="49.35568" pt_clust_5="49.35568" pt_clust_6="121.94228"></scales>
<clustering>
<clus scale="   49.356">  4  5 -1 -1</clus>
<clus scale="  121.942">  2  6  1 -1</clus>
<clus scale="  190.710">  2  3  1 -1</clus>
<clus scale="  204.200">  1  3  2 -1</clus>
</clustering>
</event>
<event>
 6    0  0.6338511E+002  0.1485490E+03  0.7546771E-02  0.1202267E+00
          1   -1    0    0  503    0 -0.00000000000E+00  0.00000000000E+00  0.32122131193E+04  0.32122131193E+04  0.00000000000E+00 0. -1.
         21   -1    0    0  505  502  0.00000000000E+00 -0.00000000000E+00 -0.69717269015E+02  0.69717269015E+02  0.00000000000E+00 0. -1.
         21    1    1    2  503  504  0.54591614044E+02  0.14202438559E+03  0.11543406831E+03  0.19098741989E+03  0.00000000000E+00 0. -1.
         21    1    1    2  504  502  0.33702547725E+02 -0.43168754611E+01 -0.18139207097E+02  0.38516593451E+02  0.00000000000E+00 0. -1.
         21    1    1    2  505  501 -0.39594279313E+02 -0.87394692605E+02  0.74409064374E+03  0.75025090827E+03  0.00000000000E+00 0.  1.
          1    1    1    2  501    0 -0.48699882456E+02 -0.50312817528E+02  0.23011103454E+04  0.23021754668E+04  0.00000000000E+00 0. -1.
<scales pt_clust_3="14000.00000" pt_clust_4="33.97789" pt_clust_5="148.54898" pt_clust_6="69.76103"></scales>
<clustering>
<clus scale="   33.978">  2  4  1 -1</clus>
<clus scale="   69.761">  1  6  2 -1</clus>
<clus scale="  148.549">  1  5  2 -1</clus>
<clus scale="   33.978">  2  3  1 -1</clus>
</clustering>
</event>
<event>
 6    0  0.6338511E+002  0.1004914E+03  0.7546771E-02  0.1279266E+00
          2   -1    0    0  504    0 -0.00000000000E+00  0.00000000000E+00  0.21602014072E+04  0.21602014072E+04  0.00000000000E+00 0.  1.
         21   -1    0    0  503  502  0.00000000000E+00 -0.00000000000E+00 -0.30384030011E+02  0.30384030011E+02  0.00000000000E+00 0. -1.
         21    1    1    2  503  501  0.30462142743E+02 -0.87843847264E+01  0.64552201873E+01  0.32353939840E+02  0.00000000000E+00 0. -1.
         21    1    1    2  504  505 -0.95710869405E+02 -0.27797793996E+02  0.58401045811E+03  0.59245379824E+03  0.00000000000E+00 0.  1.
         21    1    1    2  505  502  0.84044416044E+02 -0.19754626634E+02  0.13548007624E+03  0.16065042857E+03  0.00000000000E+00 0. -1.
          2    1    1    2  501    0 -0.18795689382E+02  0.56336805356E+02  0.14038716226E+04  0.14051272705E+04  0.00000000000E+00 0.  1.
<scales pt_clust_3="31.70343" pt_clust_4="100.49143" pt_clust_5="14000.00000" pt_clust_6="58.74981"></scales>
<clustering>
<clus scale="   31.703">  2  3  1 -1</clus>
<clus scale="   58.750">  1  6  2 -1</clus>
<clus scale="  100.491">  1  4  2 -1</clus>
<clus scale="   31.703">  2  3  1 -1</clus>
</clustering>
</event>
<event>
 6    0  0.6338511E+002  0.7652016E+02  0.7546771E-02  0.1339227E+00
          2   -1    0    0  502    0 -0.00000000000E+00  0.00000000000E+00  0.78827796806E+03  0.78827796806E+03  0.00000000000E+00 0. -1.
         21   -1    0    0  505  502  0.00000000000E+00 -0.00000000000E+00 -0.46044797692E+02  0.46044797692E+02  0.00000000000E+00 0. -1.
         21    1    1    2  503  504 -0.91279687745E+02 -0.81171448324E+01  0.95543953466E+02  0.13238775049E+03  0.00000000000E+00 0. -1.
         21    1    1    2  504  501  0.80464529654E+02  0.64166578238E+02  0.31135721685E+03  0.32792561166E+03  0.00000000000E+00 0. -1.
         21    1    1    2  505  503  0.42451171626E+02 -0.23325129784E+02  0.15357130480E+02  0.50813434330E+02  0.00000000000E+00 0. -1.
          2    1    1    2  501    0 -0.31636013536E+02 -0.32724303622E+02  0.31997486957E+03  0.32319596928E+03  0.00000000000E+00 0. -1.
<scales pt_clust_3="76.52016" pt_clust_4="14000.00000" pt_clust_5="47.69050" pt_clust_6="45.51612"></scales>
<clustering>
<clus scale="   45.516">  1  6  2 -1</clus>
<clus scale="   47.691">  2  5  1 -1</clus>
<clus scale="   76.520">  2  3  1 -1</clus>
<clus scale="   47.691">  2  3  1 -1</clus>
</clustering>
</event>
<event>
 6    0  0.6338511E+002  0.2160448E+03  0.7546771E-02  0.1136867E+00
          2   -1    0    0  505    0 -0.00000000000E+00  0.00000000000E+00  0.63758053786E+03  0.63758053786E+03  0.00000000000E+00 0.  1.
         21   -1    0    0  503  502  0.00000000000E+00 -0.00000000000E+00 -0.42113538977E+03  0.42113538977E+03  0.00000000000E+00 0. -1.
         21    1    1    2  503  504 -0.19246568258E+03 -0.68316830514E+02 -0.15626212723E+03  0.25715380750E+03  0.00000000000E+00 0. -1.
         21    1    1    2  504  501  0.22352419363E+03  0.74735822302E+02 -0.81996196058E+02  0.24954335182E+03  0.00000000000E+00 0. -1.
         21    1    1    2  505  502 -0.23123658669E+02  0.10404509076E+03  0.26642284991E+02  0.10986307774E+03  0.00000000000E+00 0. -1.
          2    1    1    2  501    0 -0.79348523766E+01 -0.11046408255E+03  0.42806118638E+03  0.44215569057E+03  0.00000000000E+00 0.  1.
<scales pt_clust_3="216.04476" pt_clust_4="14000.00000" pt_clust_5="106.58370" pt_clust_6="40.16818"></scales>
<clustering>
<clus scale="  106.584">  1  5  2 -1</clus>
<clus scale="   40.168">  1  6  2 -1</clus>
<clus scale="  216.045">  2  3  1 -1</clus>
<clus scale="  216.045">  2  3  1 -1</clus>
</clustering>
</event>
<event>
 6    0  0.6338511E+002  0.1703527E+03  0.7546771E-02  0.1177481E+00
          2   -1    0    0  504    0 -0.00000000000E+00  0.00000000000E+00  0.13358919701E+04  0.13358919701E+04  0.00000000000E+00 0. -1.
         21   -1    0    0  505  502  0.00000000000E+00 -0.00000000000E+00 -0.15046922085E+03  0.15046922085E+03  0.00000000000E+00 0.  1.
         21    1    1    2  503  502 -0.10604753932E+03 -0.16384817361E+02  0.92147054272E+02  0.14144123319E+03  0.00000000000E+00 0.  1.
         21    1    1    2  504  503 -0.14526850246E+03 -0.36046376898E+02  0.41697342898E+03  0.44302270773E+03  0.00000000000E+00 0. -1.
         21    1    1    2  505  501  0.59124604887E+02  0.57484093633E+02 -0.83971104245E+02  0.11769148768E+03  0.00000000000E+00 0.  1.
          2    1    1    2  501    0  0.19219143688E+03 -0.50528993743E+01  0.76027337022E+03  0.78420576233E+03  0.00000000000E+00 0. -1.
<scales pt_clust_3="77.64774" pt_clust_4="14000.00000" pt_clust_5="82.46296" pt_clust_6="170.35271"></scales>
<clustering>
<clus scale="   82.463">  2  5  1 -1</clus>
<clus scale="   77.648">  2  3  1 -1</clus>
<clus scale="  170.353">  1  6  2 -1</clus>
<clus scale="   82.463">  2  3  1 -1</clus>
</clustering>
</event>
<event>
 6    0  0.6338511E+002  0.1023287E+03  0.7546771E-02  0.1275474E+00
          2   -1    0    0  504    0 -0.00000000000E+00  0.00000000000E+00  0.80139357362E+02  0.80139357362E+02  0.00000000000E+00 0. -1.
         21   -1    0    0  503  502  0.00000000000E+00 -0.00000000000E+00 -0.69941013767E+03  0.69941013767E+03  0.00000000000E+00 0. -1.
         21    1    1    2  503  505 -0.11571793517E+02 -0.38623987138E+02 -0.26244783887E+03  0.26552699847E+03  0.00000000000E+00 0.  1.
         21    1    1    2  504  502 -0.54799736297E+02  0.12427392428E+03 -0.30299070332E+03  0.33203973506E+03  0.00000000000E+00 0. -1.
         21    1    1    2  505  501  0.15405392737E+02 -0.77329310255E+02 -0.89456684427E+02  0.11924616027E+03  0.00000000000E+00 0. -1.
          2    1    1    2  501    0  0.50966137077E+02 -0.83206268897E+01  0.35624446312E+02  0.62736601242E+02  0.00000000000E+00 0. -1.
<scales pt_clust_3="40.32020" pt_clust_4="14000.00000" pt_clust_5="102.32867" pt_clust_6="51.49411"></scales>
<clustering>
<clus scale="   40.320">  2  3  1 -1</clus>
<clus scale="   51.494">  1  6  2 -1</clus>
<clus scale="  102.329">  1  5  2 -1</clus>
<clus scale="   40.320">  2  3  1 -1</clus>
</clustering>
</event>
<event>
 6    0  0.6338511E+002  0.7695276E+02  0.7546771E-02  0.1337928E+00
          2   -1    0    0  503    0 -0.00000000000E+00  0.00000000000E+00  0.16111667176E+04  0.16111667176E+04  0.00000000000E+00 0. -1.
         21   -1    0    0  501  502  0.00000000000E+00 -0.00000000000E+00 -0.75860269917E+02  0.75860269917E+02  0.00000000000E+00 0. -1.
         21    1    1    2  503  504 -0.67222318624E+02  0.86056023608E+01  0.31026008679E+03  0.31757553112E+03  0.00000000000E+00 0. -1.
         21    1    1    2  504  505 -0.58995531073E+02  0.31988586711E+02  0.13530690308E+03  0.15103542759E+03  0.00000000000E+00 0. -1.
         21    1    1    2  505  502  0.49157493906E+02 -0.16073920247E+02 -0.52278655892E+02  0.73538343612E+02  0.00000000000E+00 0. -1.
          2    1    1    2  501    0  0.77060355791E+02 -0.24520268825E+02  0.11420181137E+04  0.11448776852E+04  0.00000000000E+00 0. -1.
<scales pt_clust_3="14000.00000" pt_clust_4="36.65616" pt_clust_5="51.71876" pt_clust_6="76.95276"></scales>
<clustering>
<clus scale="   51.719">  2  5  1 -1</clus>
<clus scale="   36.656">  2  4  1 -1</clus>
<clus scale="   76.953">  1  6  2 -1</clus>
<clus scale="   51.719">  2  3  1 -1</clus>
</clustering>
</event>
<event>
 6    0  0.6338511E+002  0.9834352E+02  0.7546771E-02  0.1283818E+00
          2   -1    0    0  504    0 -0.00000000000E+00  0.00000000000E+00  0.32386106255E+04  0.32386106255E+04  0.00000000000E+00 0.  1.
         21   -1    0    0  505  502  0.00000000000E+00 -0.00000000000E+00 -0.23935958592E+02  0.23935958592E+02  0.00000000000E+00 0. -1.
         21    1    1    2  503  501 -0.24590829859E+02 -0.49102294577E+02  0.24802958908E+03  0.25403625982E+03  0.00000000000E+00 0.  1.
         21    1    1    2  504  502  0.94384602878E+02 -0.61818587761E+01  0.53466321865E+03  0.54296540039E+03  0.00000000000E+00 0.  1.
         21    1    1    2  505  503  0.26280168779E+02  0.28782738493E+02  0.83438233948E+01  0.39858658972E+02  0.00000000000E+00 0. -1.
          2    1    1    2  501    0 -0.96073941797E+02  0.26501414860E+02  0.24236380358E+04  0.24256862649E+04  0.00000000000E+00 0.  1.
<scales pt_clust_3="41.32765" pt_clust_4="14000.00000" pt_clust_5="38.97555" pt_clust_6="98.34352"></scales>
<clustering>
<clus scale="   38.976">  2  5  1 -1</clus>
<clus scale="   41.328">  2  3  1 -1</clus>
<clus scale="   98.344">  1  6  2 -1</clus>
<clus scale="   38.976">  2  3  1 -1</clus>
</clustering>
</event>
<event>
 6    0  0.6338511E+002  0.1547531E+03  0.7546771E-02  0.1194751E+00
         21   -1    0    0  503  502  0.00000000000E+00  0.00000000000E+00  0.50694535298E+03  0.50694535298E+03  0.00000000000E+00 0.  1.
          3   -1    0    0  504    0 -0.00000000000E+00 -0.00000000000E+00 -0.12021276980E+03  0.12021276980E+03  0.00000000000E+00 0. -1.
         21    1    1    2  503  501 -0.27348028566E+02  0.94138035156E+02  0.10611339599E+02  0.98602661514E+02  0.00000000000E+00 0.  1.
         21    1    1    2  504  505  0.30348203326E+02 -0.92232304583E+02  0.16640231006E+03  0.19265912967E+03  0.00000000000E+00 0.  1.
         21    1    1    2  505  502 -0.14214373982E+02 -0.58655025353E+02  0.25524513455E+03  0.26228331846E+03  0.00000000000E+00 0.  1.
          3    1    1    2  501    0  0.11214199222E+02  0.56749294780E+02 -0.45526201032E+02  0.73613013134E+02  0.00000000000E+00 0. -1.
<scales pt_clust_3="56.51124" pt_clust_4="136.14929" pt_clust_5="60.35280" pt_clust_6="56.51124"></scales>
<clustering>
<clus scale="   56.511">  3  6 -1 -1</clus>
<clus scale="   60.353">  1  5  2 -1</clus>
<clus scale="  136.149">  1  4  2 -1</clus>
<clus scale="   60.353">  1  3  2 -1</clus>
</clustering>
</event>
<event>
 6    0  0.6338511E+002  0.1072328E+03  0.7546771E-02  0.1265782E+00
          1   -1    0    0  503    0 -0.00000000000E+00  0.00000000000E+00  0.12201325323E+04  0.12201325323E+04  0.00000000000E+00 0. -1.
         21   -1    0    0  504  502  0.00000000000E+00 -0.00000000000E+00 -0.36608984244E+03  0.36608984244E+03  0.00000000000E+00 0. -1.
         21    1    1    2  503  502 -0.76732168434E+02  0.44481339696E+02  0.82008375100E+02  0.12079647694E+03  0.00000000000E+00 0.  1.
         21    1    1    2  504  505  0.38965141796E+00  0.46953275059E+02 -0.32669566849E+03  0.33005275590E+03  0.00000000000E+00 0. -1.
         21    1    1    2  505  501  0.13383270107E+03 -0.27223453691E+02  0.27398811348E+03  0.30614015522E+03  0.00000000000E+00 0. -1.
          1    1    1    2  501    0 -0.57490184052E+02 -0.64211161064E+02  0.82474186975E+03  0.82923298667E+03  0.00000000000E+00 0. -1.
<scales pt_clust_3="107.23275" pt_clust_4="46.95489" pt_clust_5="14000.00000" pt_clust_6="84.10904"></scales>
<clustering>
<clus scale="   46.955">  2  4  1 -1</clus>
<clus scale="   84.109">  1  6  2 -1</clus>
<clus scale="  107.233">  2  3  1 -1</clus>
<clus scale="   46.955">  2  3  1 -1</clus>
</clustering>
</event>
<event>
 6    0  0.6338511E+002  0.3817242E+03  0.7546771E-02  0.1050298E+00
          1   -1    0    0  503    0 -0.00000000000E+00  0.00000000000E+00  0.76318736724E+03  0.76318736724E+03  0.00000000000E+00 0. -1.
         21   -1    0    0  505  502  0.00000000000E+00 -0.00000000000E+00 -0.46208070242E+03  0.46208070242E+03  0.00000000000E+00 0. -1.
         21    1    1    2  503  504 -0.29708597281E+03 -0.13142388874E+03  0.46812169135E+02  0.32821287749E+03  0.00000000000E+00 0. -1.
         21    1    1    2  504  502  0.44277917755E+03  0.10747084886E+03  0.69855509579E+02  0.46095897393E+03  0.00000000000E+00 0. -1.
         21    1    1    2  505  501 -0.10858207189E+03  0.10386142040E+02 -0.10056756318E+03  0.14836365137E+03  0.00000000000E+00 0.  1.
          1    1    1    2  501    0 -0.37111132851E+02  0.13566897847E+02  0.28500654929E+03  0.28773256687E+03  0.00000000000E+00 0. -1.
<scales pt_clust_3="14000.00000" pt_clust_4="381.72420" pt_clust_5="110.99510" pt_clust_6="39.51325"></scales>
<clustering>
<clus scale="   39.513">  1  6  2 -1</clus>
<clus scale="  110.995">  2  5  1 -1</clus>
<clus scale="  381.724">  2  4  1 -1</clus>
<clus scale="  110.995">  2  3  1 -1</clus>
</clustering>
</event>
<event>
 6    0  0.6338511E+002  0.1170209E+03  0.7546771E-02  0.1248094E+00
          2   -1    0    0  504    0 -0.00000000000E+00  0.00000000000E+00  0.19570487676E+03  0.19570487676E+03  0.00000000000E+00 0.  1.
         21   -1    0    0  505  502  0.00000000000E+00 -0.00000000000E+00 -0.28464139871E+03  0.28464139871E+03  0.00000000000E+00 0.  1.
         21    1    1    2  503  502 -0.61061832522E+02  0.11488189318E+03 -0.17231756855E+03  0.21591605128E+03  0.00000000000E+00 0.  1.
         21    1    1    2  504  503  0.29642620998E+02 -0.72776569110E+02  0.40734012852E+02  0.88511998023E+02  0.00000000000E+00 0.  1.
         21    1    1    2  505  501  0.77937939409E+02 -0.67376036247E+01 -0.29027631566E+02  0.83440524305E+02  0.00000000000E+00 0.  1.
          2    1    1    2  501    0 -0.46518727885E+02 -0.35367720446E+02  0.71674665311E+02  0.92477701859E+02  0.00000000000E+00 0.  1.
<scales pt_clust_3="117.02093" pt_clust_4="14000.00000" pt_clust_5="68.50864" pt_clust_6="58.43687"></scales>
<clustering>
<clus scale="   58.437">  1  6  2 -1</clus>
<clus scale="   68.509">  1  5  2 -1</clus>
<clus scale="  117.021">  2  3  1 -1</clus>
<clus scale="  117.021">  2  3  1 -1</clus>
</clustering>
</event>
<event>
 6    0  0.6338511E+002  0.1053460E+03  0.7546771E-02  0.1269439E+00
          1   -1    0    0  504    0 -0.00000000000E+00  0.00000000000E+00  0.56273382706E+03  0.56273382706E+03  0.00000000000E+00 0. -1.
         21   -1    0    0  505  502  0.00000000000E+00 -0.00000000000E+00 -0.29189340754E+03  0.29189340754E+03  0.00000000000E+00 0.  1.
         21    1    1    2  503  501 -0.92231717838E+02 -0.35367263849E+02 -0.49862342215E+02  0.11065164390E+03  0.00000000000E+00 0. -1.
         21    1    1    2  504  502  0.74805084869E+02  0.25045493197E+02  0.15736834687E+03  0.17603372986E+03  0.00000000000E+00 0. -1.
         21    1    1    2  505  503 -0.22386762488E+02  0.21869793874E+02 -0.19990735058E+03  0.20234229373E+03  0.00000000000E+00 0.  1.
          1    1    1    2  501    0  0.39813395457E+02 -0.11548023222E+02  0.36324176545E+03  0.36559956710E+03  0.00000000000E+00 0. -1.
<scales pt_clust_3="105.34599" pt_clust_4="14000.00000" pt_clust_5="31.29625" pt_clust_6="41.09642"></scales>
<clustering>
<clus scale="   31.296">  2  5  1 -1</clus>
<clus scale="   41.096">  1  6  2 -1</clus>
<clus scale="  105.346">  2  3  1 -1</clus>
<clus scale="   31.296">  2  3  1 -1</clus>
</clustering>
</event>
<event>
 6    0  0.6338511E+002  0.9346759E+02  0.7546771E-02  0.1294665E+00
          1   -1    0    0  504    0 -0.00000000000E+00  0.00000000000E+00  0.73619493050E+03  0.73619493050E+03  0.00000000000E+00 0. -1.
         21   -1    0    0  503  502  0.00000000000E+00 -0.00000000000E+00 -0.24950812576E+04  0.24950812576E+04  0.00000000000E+00 0.  1.
         21    1    1    2  503  501  0.23715624976E+02 -0.67582751224E+02 -0.21904600829E+04  0.21916307248E+04  0.00000000000E+00 0.  1.
         21    1    1    2  504  505 -0.51305544523E+02 -0.89719639570E+01  0.13823111443E+03  0.14771796111E+03  0.00000000000E+00 0. -1.
         21    1    1    2  505  502  0.71264223619E+02  0.88430774637E+02 -0.28760622063E+03  0.30921825563E+03  0.00000000000E+00 0. -1.
          1    1    1    2  501    0 -0.43674304072E+02 -0.11876059457E+02  0.58094886206E+03  0.58270924650E+03  0.00000000000E+00 0. -1.
<scales pt_clust_3="71.61090" pt_clust_4="14000.00000" pt_clust_5="93.46759" pt_clust_6="45.26020"></scales>
<clustering>
<clus scale="   45.260">  1  6  2 -1</clus>
<clus scale="   71.611">  2  3  1 -1</clus>
<clus scale="   93.468">  2  5  1 -1</clus>
<clus scale="   71.611">  2  3  1 -1</clus>
</clustering>
</event>
<event>
 6    0  0.6338511E+002  0.9148808E+02  0.7546771E-02  0.1299288E+00
         -2   -1    0    0    0  501 -0.00000000000E+00  0.00000000000E+00  0.18329712437E+04  0.18329712437E+04  0.00000000000E+00 0.  1.
         21   -1    0    0  504  502  0.00000000000E+00 -0.00000000000E+00 -0.80401100691E+02  0.80401100691E+02  0.00000000000E+00 0. -1.
         21    1    1    2  503  502  0.45890889501E+02 -0.82242678975E+02 -0.29975825855E+02  0.98835125942E+02  0.00000000000E+00 0. -1.
         21    1    1    2  504  505 -0.67913669260E+01  0.86056642953E+02  0.13725285585E+03  0.16214257584E+03  0.00000000000E+00 0.  1.
         21    1    1    2  505  501 -0.72781351594E+02 -0.13592533796E+02  0.41180327660E+03  0.41840628668E+03  0.00000000000E+00 0.  1.
         -2    1    1    2    0  503  0.33681829019E+02  0.97785698181E+01  0.12334898364E+04  0.12339883560E+04  0.00000000000E+00 0.  1.
<scales pt_clust_3="91.48808" pt_clust_4="14000.00000" pt_clust_5="49.91692" pt_clust_6="35.07258"></scales>
<clustering>
<clus scale="   35.073">  1  6  2 -1</clus>
<clus scale="   49.917">  1  5  2 -1</clus>
<clus scale="   91.488">  2  3  1 -1</clus>
<clus scale="   91.488">  2  3  1 -1</clus>
</clustering>
</event>
<event>
 6    0  0.6338511E+002  0.8050165E+02  0.7546771E-02  0.1327634E+00
         21   -1    0    0  501  502  0.00000000000E+00  0.00000000000E+00  0.30901678172E+03  0.30901678172E+03  0.00000000000E+00 0.  1.
         -2   -1    0    0    0  501 -0.00000000000E+00 -0.00000000000E+00 -0.77182714150E+03  0.77182714150E+03  0.00000000000E+00 0. -1.
         21    1    1    2  503  502  0.43210107231E+02  0.28830949815E+01  0.23037563965E+03  0.23441066731E+03  0.00000000000E+00 0.  1.
         21    1    1    2  504  503  0.10262968917E+02 -0.54349115573E+02  0.44262485271E+02  0.70840119261E+02  0.00000000000E+00 0. -1.
         21    1    1    2  505  504  0.25230080224E+02  0.82049350741E+02 -0.96695527525E+02  0.12930072679E+03  0.00000000000E+00 0. -1.
         -2    1    1    2    0  505 -0.78703156372E+02 -0.30583330150E+02 -0.64075295718E+03  0.64629240986E+03  0.00000000000E+00 0. -1.
<scales pt_clust_3="43.30618" pt_clust_4="67.43837" pt_clust_5="80.50165" pt_clust_6="14000.00000"></scales>
<clustering>
<clus scale="   43.306">  1  3  2 -1</clus>
<clus scale="   67.438">  1  4  2 -1</clus>
<clus scale="   80.502">  1  5  2 -1</clus>
<clus scale="   43.306">  1  3  2 -1</clus>
</clustering>
</event>
<event>
 6    0  0.6338511E+002  0.8767148E+02  0.7546771E-02  0.1308591E+00
         -4   -1    0    0    0  501 -0.00000000000E+00  0.00000000000E+00  0.18430407103E+03  0.18430407103E+03  0.00000000000E+00 0.  1.
         21   -1    0    0  504  502  0.00000000000E+00 -0.00000000000E+00 -0.67790025196E+03  0.67790025196E+03  0.00000000000E+00 0.  1.
         21    1    1    2  503  505 -0.60319037153E+02 -0.34065599158E+02 -0.58581880811E+01  0.69521001551E+02  0.00000000000E+00 0.  1.
         21    1    1    2  504  501  0.28528101721E+02  0.62221928683E+02 -0.19670275677E+03  0.20827240700E+03  0.00000000000E+00 0.  1.
         21    1    1    2  505  502  0.35786679134E+02  0.34454204863E+02 -0.42951716601E+03  0.43238035863E+03  0.00000000000E+00 0.  1.
         -4    1    1    2    0  503 -0.39957437029E+01 -0.62610534388E+02  0.13848192992E+03  0.15203055581E+03  0.00000000000E+00 0.  1.
<scales pt_clust_3="14000.00000" pt_clust_4="87.67148" pt_clust_5="49.67674" pt_clust_6="61.73901"></scales>
<clustering>
<clus scale="   49.677">  2  5  1 -1</clus>
<clus scale="   61.739">  1  6  2 -1</clus>
<clus scale="   87.671">  2  4  1 -1</clus>
<clus scale="   49.677">  2  3  1 -1</clus>
</clustering>
</event>
<event>
 6    0  0.6338511E+002  0.1664967E+03  0.7546771E-02  0.1181551E+00
          1   -1    0    0  505    0 -0.00000000000E+00  0.00000000000E+00  0.32666768275E+04  0.32666768275E+04  0.00000000000E+00 0.  1.
         21   -1    0    0  504  502  0.00000000000E+00 -0.00000000000E+00 -0.66029074624E+03  0.66029074624E+03  0.00000000000E+00 0. -1.
         21    1    1    2  503  501  0.32783291159E+02 -0.94899425828E+02  0.15253012925E+04  0.15286021974E+04  0.00000000000E+00 0. -1.
         21    1    1    2  504  503 -0.12144058431E+03  0.11528152068E+03 -0.59476328684E+03  0.61788430300E+03  0.00000000000E+00 0. -1.
         21    1    1    2  505  502  0.38269097725E+02  0.75472782290E+01 -0.44496100435E+02  0.59172529127E+02  0.00000000000E+00 0.  1.
          1    1    1    2  501    0  0.50388195431E+02 -0.27929373078E+02  0.17203441760E+04  0.17213085441E+04  0.00000000000E+00 0.  1.
<scales pt_clust_3="57.20184" pt_clust_4="148.39219" pt_clust_5="39.00622" pt_clust_6="57.20184"></scales>
<clustering>
<clus scale="   39.006">  2  5  1 -1</clus>
<clus scale="   57.202">  3  6 -1 -1</clus>
<clus scale="  148.392">  2  4  1 -1</clus>
<clus scale="   39.006">  2  3  1 -1</clus>
</clustering>
</event>
<event>
 6    0  0.6338511E+002  0.1477021E+03  0.7546771E-02  0.1203325E+00
          2   -1    0    0  505    0 -0.00000000000E+00  0.00000000000E+00  0.94551358410E+03  0.94551358410E+03  0.00000000000E+00 0. -1.
         21   -1    0    0  504  502  0.00000000000E+00 -0.00000000000E+00 -0.29028247744E+03  0.29028247744E+03  0.00000000000E+00 0.  1.
         21    1    1    2  503  502 -0.19247185886E+03  0.14713934692E+03  0.90048604224E+02  0.25846499761E+03  0.00000000000E+00 0.  1.
         21    1    1    2  504  501  0.13640672607E+03  0.59421370135E+02 -0.13756161991E+03  0.20263487710E+03  0.00000000000E+00 0.  1.
         21    1    1    2  505  503 -0.16734617201E+02 -0.11942664340E+03  0.87325561312E+02  0.14889098101E+03  0.00000000000E+00 0. -1.
          2    1    1    2  501    0  0.72799749998E+02 -0.87134073652E+02  0.61541856103E+03  0.62580520583E+03  0.00000000000E+00 0. -1.
<scales pt_clust_3="14000.00000" pt_clust_4="147.70212" pt_clust_5="151.41455" pt_clust_6="113.54361"></scales>
<clustering>
<clus scale="  113.544">  1  6  2 -1</clus>
<clus scale="  151.415">  1  5  2 -1</clus>
<clus scale="  147.702">  2  4  1 -1</clus>
<clus scale="  147.702">  2  3  1 -1</clus>
</clustering>
</event>
<event>
 6    0  0.6338511E+002  0.1051137E+03  0.7546771E-02  0.1269896E+00
         21   -1    0    0  504  502  0.00000000000E+00  0.00000000000E+00  0.44990569000E+02  0.44990569000E+02  0.00000000000E+00 0.  1.
         -2   -1    0    0    0  501 -0.00000000000E+00 -0.00000000000E+00 -0.10408007501E+04  0.10408007501E+04  0.00000000000E+00 0. -1.
         21    1    1    2  503  501  0.12211517031E+03 -0.20327598155E+02 -0.18580957098E+03  0.22327230625E+03  0.00000000000E+00 0.  1.
         21    1    1    2  504  503 -0.34880559930E+01  0.87162426032E+02 -0.10429724812E+03  0.13596827208E+03  0.00000000000E+00 0. -1.
         21    1    1    2  505  502 -0.87393329758E+02 -0.22875879384E+01 -0.24139696771E+03  0.25673979661E+03  0.00000000000E+00 0.  1.
         -2    1    1    2    0  505 -0.31233784560E+02 -0.64547239939E+02 -0.46430639424E+03  0.46981094412E+03  0.00000000000E+00 0. -1.
<scales pt_clust_3="105.11366" pt_clust_4="74.32680" pt_clust_5="14000.00000" pt_clust_6="71.70701"></scales>
<clustering>
<clus scale="   71.707">  2  6  1 -1</clus>
<clus scale="   74.327">  1  4  2 -1</clus>
<clus scale="  105.114">  1  3  2 -1</clus>
<clus scale="   74.327">  1  3  2 -1</clus>
</clustering>
</event>
<event>
 6    0  0.6338511E+002  0.8309865E+02  0.7546771E-02  0.1320481E+00
          1   -1    0    0  505    0 -0.00000000000E+00  0.00000000000E+00  0.17853403159E+04  0.17853403159E+04  0.00000000000E+00 0.  1.
         21   -1    0    0  503  502  0.00000000000E+00 -0.00000000000E+00 -0.52958309867E+02  0.52958309867E+02  0.00000000000E+00 0.  1.
         21    1    1    2  503  501 -0.49022680833E+02  0.27242696231E+02  0.33117632834E+03  0.33589157207E+03  0.00000000000E+00 0.  1.
         21    1    1    2  504  502  0.40405861802E+02  0.33591935983E+02 -0.26113081729E+02  0.58676612619E+02  0.00000000000E+00 0.  1.
         21    1    1    2  505  504  0.89995094411E+02 -0.47673798092E+02  0.38785548475E+03  0.40100347267E+03  0.00000000000E+00 0.  1.
          1    1    1    2  501    0 -0.81378275380E+02 -0.13160834122E+02  0.10394632746E+04  0.10427269684E+04  0.00000000000E+00 0.  1.
<scales pt_clust_3="52.98336" pt_clust_4="52.54571" pt_clust_5="14000.00000" pt_clust_6="83.09865"></scales>
<clustering>
<clus scale="   52.546">  2  4  1 -1</clus>
<clus scale="   52.983">  2  3  1 -1</clus>
<clus scale="   83.099">  1  6  2 -1</clus>
<clus scale="   52.546">  2  3  1 -1</clus>
</clustering>
</event>
<event>
 6    0  0.6338511E+002  0.9459906E+02  0.7546771E-02  0.1292082E+00
         21   -1    0    0  505  502  0.00000000000E+00  0.00000000000E+00  0.15235304285E+03  0.15235304285E+03  0.00000000000E+00 0.  1.
         -1   -1    0    0    0  501 -0.00000000000E+00 -0.00000000000E+00 -0.72170867163E+03  0.72170867163E+03  0.00000000000E+00 0.  1.
         21    1    1    2  503  501  0.10143216894E+03  0.11974887034E+03  0.50668248978E+02  0.16491072827E+03  0.00000000000E+00 0.  1.
         21    1    1    2  504  502 -0.15706752250E+02 -0.60619062051E+02 -0.48645480705E+01  0.62809526173E+02  0.00000000000E+00 0.  1.
         21    1    1    2  505  503 -0.55716717543E+02 -0.80718463421E+01 -0.42274130988E+02  0.70403192172E+02  0.00000000000E+00 0.  1.
         -1    1    1    2    0  504 -0.30008699150E+02 -0.51057961950E+02 -0.57288519869E+03  0.57593826786E+03  0.00000000000E+00 0.  1.
<scales pt_clust_3="14000.00000" pt_clust_4="94.59906" pt_clust_5="56.29838" pt_clust_6="59.61406"></scales>
<clustering>
<clus scale="   56.298">  1  5  2 -1</clus>
<clus scale="   59.614">  2  6  1 -1</clus>
<clus scale="   94.599">  2  4  1 -1</clus>
<clus scale="   56.298">  1  3  2 -1</clus>
</clustering>
</event>
<event>
 6    0  0.6338511E+002  0.7167160E+02  0.7546771E-02  0.1354499E+00
         21   -1    0    0  503  502  0.00000000000E+00  0.00000000000E+00  0.23831610270E+03  0.23831610270E+03  0.00000000000E+00 0. -1.
         -1   -1    0    0    0  501 -0.00000000000E+00 -0.00000000000E+00 -0.22756722773E+03  0.22756722773E+03  0.00000000000E+00 0. -1.
         21    1    1    2  503  501 -0.69580848093E+01 -0.83296372767E+02  0.12673714855E+03  0.15181898920E+03  0.00000000000E+00 0. -1.
         21    1    1    2  504  502  0.33976926223E+02  0.26266274556E+02  0.55037605942E+02  0.69810362859E+02  0.00000000000E+00 0. -1.
         21    1    1    2  505  504 -0.68139505315E+02 -0.15937824636E+01 -0.11136643768E+02  0.69061980579E+02  0.00000000000E+00 0. -1.
         -1    1    1    2    0  505  0.41120663901E+02  0.58623880674E+02 -0.15988923574E+03  0.17519199779E+03  0.00000000000E+00 0. -1.
<scales pt_clust_3="14000.00000" pt_clust_4="42.94588" pt_clust_5="62.60442" pt_clust_6="71.67160"></scales>
<clustering>
<clus scale="   42.946">  1  4  2 -1</clus>
<clus scale="   62.604">  1  5  2 -1</clus>
<clus scale="   71.672">  2  6  1 -1</clus>
<clus scale="   42.946">  1  3  2 -1</clus>
</clustering>
</event>
<event>
 6    0  0.6338511E+002  0.1588396E+03  0.7546771E-02  0.1190013E+00
         21   -1    0    0  505  502  0.00000000000E+00  0.00000000000E+00  0.11012996187E+04  0.11012996187E+04  0.00000000000E+00 0.  1.
          1   -1    0    0  503    0 -0.00000000000E+00 -0.00000000000E+00 -0.18970808382E+03  0.18970808382E+03  0.00000000000E+00 0.  1.
         21    1    1    2  503  502 -0.13287175804E+03 -0.16128327018E+02 -0.66961448778E+02  0.14966249577E+03  0.00000000000E+00 0.  1.
         21    1    1    2  504  501  0.13313854582E+03 -0.35658687174E+02  0.53532964570E+03  0.55278860690E+03  0.00000000000E+00 0.  1.
         21    1    1    2  505  504  0.31987974194E+02  0.41963469289E+02  0.51054442035E+03  0.51326383897E+03  0.00000000000E+00 0.  1.
          1    1    1    2  501    0 -0.32254761974E+02  0.98235449031E+01 -0.67321082400E+02  0.75292760874E+02  0.00000000000E+00 0.  1.
<scales pt_clust_3="14000.00000" pt_clust_4="158.83961" pt_clust_5="52.63159" pt_clust_6="33.71753"></scales>
<clustering>
<clus scale="   33.718">  2  6  1 -1</clus>
<clus scale="   52.632">  1  5  2 -1</clus>
<clus scale="  158.840">  1  4  2 -1</clus>
<clus scale="   52.632">  1  3  2 -1</clus>
</clustering>
</event>
<event>
 6    0  0.6338511E+002  0.8748927E+02  0.7546771E-02  0.1309048E+00
         21   -1    0    0  503  502  0.00000000000E+00  0.00000000000E+00  0.28474951880E+03  0.28474951880E+03  0.00000000000E+00 0. -1.
         -2   -1    0    0    0  501 -0.00000000000E+00 -0.00000000000E+00 -0.15154272665E+04  0.15154272665E+04  0.00000000000E+00 0. -1.
         21    1    1    2  503  504 -0.32323922965E+02  0.48212308603E+02  0.13409816775E+03  0.14612180292E+03  0.00000000000E+00 0. -1.
         21    1    1    2  504  501  0.94899832590E+02 -0.63653038119E+02 -0.13023773991E+01  0.11427766043E+03  0.00000000000E+00 0. -1.
         21    1    1    2  505  502  0.63590147878E+01 -0.37431616867E+02  0.82698671248E+02  0.90997984793E+02  0.00000000000E+00 0. -1.
         -2    1    1    2    0  505 -0.68934924413E+02  0.52872346383E+02 -0.14461722093E+04  0.14487793371E+04  0.00000000000E+00 0. -1.
<scales pt_clust_3="35.29087" pt_clust_4="14000.00000" pt_clust_5="37.96792" pt_clust_6="87.48927"></scales>
<clustering>
<clus scale="   37.968">  1  5  2 -1</clus>
<clus scale="   35.291">  1  3  2 -1</clus>
<clus scale="   87.489">  2  6  1 -1</clus>
<clus scale="   37.968">  1  3  2 -1</clus>
</clustering>
</event>
<event>
 6    0  0.6338511E+002  0.8755006E+02  0.7546771E-02  0.1308895E+00
          2   -1    0    0  503    0 -0.00000000000E+00  0.00000000000E+00  0.53092857235E+03  0.53092857235E+03  0.00000000000E+00 0. -1.
         21   -1    0    0  505  502  0.00000000000E+00 -0.00000000000E+00 -0.35956014229E+03  0.35956014229E+03  0.00000000000E+00 0. -1.
         21    1    1    2  503  502  0.53422901067E+02  0.12617480706E+03  0.15377342926E+03  0.20596202524E+03  0.00000000000E+00 0. -1.
         21    1    1    2  504  501  0.47173916386E+01 -0.47699189942E+02 -0.77245435292E+02  0.90908326233E+02  0.00000000000E+00 0.  1.
         21    1    1    2  505  504 -0.11583852614E+02 -0.45943454733E+02 -0.24475862480E+03  0.24930256936E+03  0.00000000000E+00 0. -1.
          2    1    1    2  501    0 -0.46556440092E+02 -0.32532162384E+02  0.33959906089E+03  0.34431579380E+03  0.00000000000E+00 0. -1.
<scales pt_clust_3="14000.00000" pt_clust_4="87.55006" pt_clust_5="47.38129" pt_clust_6="57.55070"></scales>
<clustering>
<clus scale="   47.381">  2  5  1 -1</clus>
<clus scale="   57.551">  1  6  2 -1</clus>
<clus scale="   87.550">  2  4  1 -1</clus>
<clus scale="   47.381">  2  3  1 -1</clus>
</clustering>
</event>
<event>
 6    0  0.6338511E+002  0.9132966E+02  0.7546771E-02  0.1299663E+00
         -4   -1    0    0    0  501 -0.00000000000E+00  0.00000000000E+00  0.53167239111E+03  0.53167239111E+03  0.00000000000E+00 0.  1.
         21   -1    0    0  505  502  0.00000000000E+00 -0.00000000000E+00 -0.94994699417E+02  0.94994699417E+02  0.00000000000E+00 0.  1.
         21    1    1    2  503  501  0.14495510017E+02  0.62842556217E+02  0.10684777200E+03  0.12480285680E+03  0.00000000000E+00 0.  1.
         21    1    1    2  504  502 -0.12694813110E+03 -0.10455391926E+03  0.16120455865E+03  0.23029168407E+03  0.00000000000E+00 0.  1.
         21    1    1    2  505  503  0.79127655115E+02  0.17813972565E+02 -0.15808871827E+02  0.82634398715E+02  0.00000000000E+00 0.  1.
         -4    1    1    2    0  504  0.33324965972E+02  0.23897390479E+02  0.18443423286E+03  0.18893815094E+03  0.00000000000E+00 0.  1.
<scales pt_clust_3="75.37662" pt_clust_4="91.32966" pt_clust_5="14000.00000" pt_clust_6="41.00779"></scales>
<clustering>
<clus scale="   41.008">  1  6  2 -1</clus>
<clus scale="   75.377">  1  3  2 -1</clus>
<clus scale="   91.330">  1  4  2 -1</clus>
<clus scale="   91.330">  2  3  1 -1</clus>
</clustering>
</event>
<event>
 6    0  0.6338511E+002  0.2458853E+03  0.7546771E-02  0.1115933E+00
          2   -1    0    0  503    0 -0.00000000000E+00  0.00000000000E+00  0.36331292142E+04  0.36331292142E+04  0.00000000000E+00 0.  1.
         21   -1    0    0  504  502  0.00000000000E+00 -0.00000000000E+00 -0.41710875312E+03  0.41710875312E+03  0.00000000000E+00 0. -1.
         21    1    1    2  503  502 -0.16990241447E+02  0.93929289684E+02 -0.29993778575E+03  0.31476031371E+03  0.00000000000E+00 0. -1.
         21    1    1    2  504  505 -0.65381749506E+02 -0.24584669266E+03  0.27159694860E+03  0.37212937528E+03  0.00000000000E+00 0. -1.
         21    1    1    2  505  501  0.21409594676E+03  0.18219676467E+03  0.28298781791E+03  0.39889201616E+03  0.00000000000E+00 0. -1.
          2    1    1    2  501    0 -0.13172395581E+03 -0.30279361691E+02  0.29613734803E+04  0.29644562622E+04  0.00000000000E+00 0.  1.
<scales pt_clust_3="95.45355" pt_clust_4="14000.00000" pt_clust_5="245.88527" pt_clust_6="135.10298"></scales>
<clustering>
<clus scale="   95.454">  2  3  1 -1</clus>
<clus scale="  135.103">  1  6  2 -1</clus>
<clus scale="  245.885">  1  5  2 -1</clus>
<clus scale="   95.454">  2  3  1 -1</clus>
</clustering>
</event>
<event>
 6    0  0.6338511E+002  0.1144866E+03  0.7546771E-02  0.1252480E+00
         21   -1    0    0  505  502  0.00000000000E+00  0.00000000000E+00  0.22909039249E+04  0.22909039249E+04  0.00000000000E+00 0. -1.
          2   -1    0    0  503    0 -0.00000000000E+00 -0.00000000000E+00 -0.53295666500E+03  0.53295666500E+03  0.00000000000E+00 0.  1.
         21    1    1    2  503  502  0.10792462660E+03 -0.28838890537E+02  0.20103069264E+04  0.20134083900E+04  0.00000000000E+00 0. -1.
         21    1    1    2  504  501  0.25066302255E+02 -0.62360878730E+02  0.13701279488E+02  0.68592446846E+02  0.00000000000E+00 0. -1.
         21    1    1    2  505  504 -0.15846041307E+03  0.60815666080E+02  0.20669009118E+03  0.26744913824E+03  0.00000000000E+00 0. -1.
          2    1    1    2  501    0  0.25469484211E+02  0.30384103188E+02 -0.47275103714E+03  0.47441061484E+03  0.00000000000E+00 0.  1.
<scales pt_clust_3="114.48660" pt_clust_4="60.75845" pt_clust_5="14000.00000" pt_clust_6="39.64705"></scales>
<clustering>
<clus scale="   39.647">  2  6  1 -1</clus>
<clus scale="   60.758">  2  4  1 -1</clus>
<clus scale="  114.487">  1  3  2 -1</clus>
<clus scale="  114.487">  1  3  2 -1</clus>
</clustering>
</event>
<event>
 6    0  0.6338511E+002  0.8410965E+02  0.7546771E-02  0.1317777E+00
         21   -1    0    0  505  502  0.00000000000E+00  0.00000000000E+00  0.43006898561E+03  0.43006898561E+03  0.00000000000E+00 0. -1.
          2   -1    0    0  504    0 -0.00000000000E+00 -0.00000000000E+00 -0.10445246370E+04  0.10445246370E+04  0.00000000000E+00 0.  1.
         21    1    1    2  503  501 -0.37152340446E+02  0.74178746917E+02  0.87499971665E+02  0.12057789157E+03  0.00000000000E+00 0. -1.
         21    1    1    2  504  502 -0.89809966694E+02 -0.65673765699E+02 -0.17548279922E+03  0.20778134286E+03  0.00000000000E+00 0.  1.
         21    1    1    2  505  503  0.53723680325E+02  0.12420165420E+02  0.30567460879E+03  0.31060821108E+03  0.00000000000E+00 0. -1.
          2    1    1    2  501    0  0.73238626815E+02 -0.20925146639E+02 -0.83214743264E+03  0.83562617711E+03  0.00000000000E+00 0.  1.
<scales pt_clust_3="14000.00000" pt_clust_4="84.10965" pt_clust_5="55.14068" pt_clust_6="76.85846"></scales>
<clustering>
<clus scale="   55.141">  1  5  2 -1</clus>
<clus scale="   76.858">  2  6  1 -1</clus>
<clus scale="   84.110">  2  4  1 -1</clus>
<clus scale="   55.141">  1  3  2 -1</clus>
</clustering>
</event>
<event>
 6    0  0.6338511E+002  0.1009455E+03  0.7546771E-02  0.1278320E+00
          2   -1    0    0  505    0 -0.00000000000E+00  0.00000000000E+00  0.16272108725E+04  0.16272108725E+04  0.00000000000E+00 0.  1.
         21   -1    0    0  501  502  0.00000000000E+00 -0.00000000000E+00 -0.29884788183E+03  0.29884788183E+03  0.00000000000E+00 0. -1.
         21    1    1    2  503  504  0.10760803406E+03  0.44050729844E+02  0.12184566262E+03  0.16842304265E+03  0.00000000000E+00 0.  1.
         21    1    1    2  504  502 -0.72127247364E+02 -0.69923419444E+02 -0.25901070346E+03  0.27780959110E+03  0.00000000000E+00 0. -1.
         21    1    1    2  505  503 -0.44940812113E+02 -0.25163905400E+02  0.92947264570E+02  0.10626425890E+03  0.00000000000E+00 0.  1.
          2    1    1    2  501    0  0.94600254188E+01  0.51036594999E+02  0.13725807670E+04  0.13735618617E+04  0.00000000000E+00 0.  1.
<scales pt_clust_3="100.94552" pt_clust_4="14000.00000" pt_clust_5="51.50630" pt_clust_6="42.00649"></scales>
<clustering>
<clus scale="   51.506">  1  5  2 -1</clus>
<clus scale="   42.006">  1  6  2 -1</clus>
<clus scale="  100.946">  1  3  2 -1</clus>
<clus scale="  100.946">  2  3  1 -1</clus>
</clustering>
</event>
<event>
 6    0  0.6338511E+002  0.9249772E+02  0.7546771E-02  0.1296913E+00
         21   -1    0    0  501  502  0.00000000000E+00  0.00000000000E+00  0.89740231240E+02  0.89740231240E+02  0.00000000000E+00 0.  1.
         -2   -1    0    0    0  501 -0.00000000000E+00 -0.00000000000E+00 -0.31812120580E+03  0.31812120580E+03  0.00000000000E+00 0.  1.
         21    1    1    2  503  505 -0.69588303393E+02 -0.73094498155E+02 -0.63773830324E+02  0.11938357954E+03  0.00000000000E+00 0.  1.
         21    1    1    2  504  502 -0.37626556042E+02  0.10641947390E+02  0.82776781022E+01  0.39969097045E+02  0.00000000000E+00 0.  1.
         21    1    1    2  505  504  0.10671735023E+02  0.54581978914E+02 -0.65156176322E+01  0.55995817913E+02  0.00000000000E+00 0.  1.
         -2    1    1    2    0  503  0.96543124411E+02  0.78705718502E+01 -0.16636920471E+03  0.19251294255E+03  0.00000000000E+00 0.  1.
<scales pt_clust_3="92.49772" pt_clust_4="39.10254" pt_clust_5="58.69974" pt_clust_6="14000.00000"></scales>
<clustering>
<clus scale="   39.103">  1  4  2 -1</clus>
<clus scale="   58.700">  1  5  2 -1</clus>
<clus scale="   92.498">  1  3  2 -1</clus>
<clus scale="   39.103">  1  3  2 -1</clus>
</clustering>
</event>
<event>
 6    0  0.6338511E+002  0.2381428E+03  0.7546771E-02  0.1121036E+00
         -1   -1    0    0    0  501 -0.00000000000E+00  0.00000000000E+00  0.28424693403E+03  0.28424693403E+03  0.00000000000E+00 0.  1.
         21   -1    0    0  501  502  0.00000000000E+00 -0.00000000000E+00 -0.68456347108E+03  0.68456347108E+03  0.00000000000E+00 0. -1.
         21    1    1    2  503  505 -0.37955845906E+02 -0.33397100087E+03 -0.10310618795E+03  0.35157952394E+03  0.00000000000E+00 0.  1.
         21    1    1    2  504  503  0.71362355427E+02  0.71348126244E+02 -0.51849498268E+02  0.11345268336E+03  0.00000000000E+00 0.  1.
         21    1    1    2  505  502 -0.20881729700E+02  0.21376073034E+03 -0.33673847571E+03  0.39940267587E+03  0.00000000000E+00 0. -1.
         -1    1    1    2    0  504 -0.12524779821E+02  0.48862144288E+02  0.91377624870E+02  0.10437552194E+03  0.00000000000E+00 0.  1.
<scales pt_clust_3="238.14283" pt_clust_4="105.40182" pt_clust_5="14000.00000" pt_clust_6="50.44184"></scales>
<clustering>
<clus scale="   50.442">  1  6  2 -1</clus>
<clus scale="  105.402">  1  4  2 -1</clus>
<clus scale="  238.143">  1  3  2 -1</clus>
<clus scale="  238.143">  2  3  1 -1</clus>
</clustering>
</event>
<event>
 6    0  0.6338511E+002  0.1013714E+03  0.7546771E-02  0.1277438E+00
         21   -1    0    0  505  502  0.00000000000E+00  0.00000000000E+00  0.69141232268E+03  0.69141232268E+03  0.00000000000E+00 0. -1.
          2   -1    0    0  503    0 -0.00000000000E+00 -0.00000000000E+00 -0.49999421769E+03  0.49999421769E+03  0.00000000000E+00 0. -1.
         21    1    1    2  503  502 -0.31379970087E+02  0.29972090402E+02  0.14764888130E+03  0.15389353747E+03  0.00000000000E+00 0. -1.
         21    1    1    2  504  501  0.67165381022E+02  0.82910116066E+02  0.42514210295E+02  0.11485962664E+03  0.00000000000E+00 0. -1.
         21    1    1    2  505  504 -0.60007020155E+02 -0.78365541149E+02  0.45569478496E+03  0.46626144763E+03  0.00000000000E+00 0. -1.
          2    1    1    2  501    0  0.24221609220E+02 -0.34516665319E+02 -0.45443977156E+03  0.45639192863E+03  0.00000000000E+00 0. -1.
<scales pt_clust_3="40.50133" pt_clust_4="101.37141" pt_clust_5="14000.00000" pt_clust_6="42.16736"></scales>
<clustering>
<clus scale="   42.167">  2  6  1 -1</clus>
<clus scale="   40.501">  1  3  2 -1</clus>
<clus scale="  101.371">  2  4  1 -1</clus>
<clus scale="   40.501">  1  3  2 -1</clus>
</clustering>
</event>
<event>
 6    0  0.6338511E+002  0.8545960E+02  0.7546771E-02  0.1314235E+00
          2   -1    0    0  504    0 -0.00000000000E+00  0.00000000000E+00  0.10042563058E+04  0.10042563058E+04  0.00000000000E+00 0. -1.
         21   -1    0    0  505  502  0.00000000000E+00 -0.00000000000E+00 -0.60267766160E+02  0.60267766160E+02  0.00000000000E+00 0. -1.
         21    1    1    2  503  501  0.81684202435E+02  0.13449068777E+02  0.29610352422E+03  0.30745810029E+03  0.00000000000E+00 0. -1.
         21    1    1    2  504  502 -0.72024582018E+02 -0.50231599910E+02  0.18106582409E+03  0.20123515274E+03  0.00000000000E+00 0. -1.
         21    1    1    2  505  503 -0.49851489582E+02  0.25768072134E+02 -0.25579101076E+02  0.61672157145E+02  0.00000000000E+00 0. -1.
          2    1    1    2  501    0  0.40191869165E+02  0.11014458999E+02  0.49239829239E+03  0.49415866177E+03  0.00000000000E+00 0. -1.
<scales pt_clust_3="85.45960" pt_clust_4="14000.00000" pt_clust_5="55.04409" pt_clust_6="41.67379"></scales>
<clustering>
<clus scale="   41.674">  1  6  2 -1</clus>
<clus scale="   55.044">  2  5  1 -1</clus>
<clus scale="   85.460">  2  3  1 -1</clus>
<clus scale="   55.044">  2  3  1 -1</clus>
</clustering>
</event>
<event>
 6    0  0.6338511E+002  0.1737922E+03  0.7546771E-02  0.1173950E+00
         21   -1    0    0  504  502  0.00000000000E+00  0.00000000000E+00  0.16667734304E+03  0.16667734304E+03  0.00000000000E+00 0. -1.
         -3   -1    0    0    0  501 -0.00000000000E+00 -0.00000000000E+00 -0.16905465513E+04  0.16905465513E+04  0.00000000000E+00 0. -1.
         21    1    1    2  503  502 -0.10091932887E+03  0.18383184019E+03  0.33224762116E+02  0.21232696773E+03  0.00000000000E+00 0. -1.
         21    1    1    2  504  501 -0.66801246097E+01 -0.41050403094E+02  0.25589393582E+02  0.48832127978E+02  0.00000000000E+00 0.  1.
         21    1    1    2  505  503  0.53244335733E+02 -0.10770569358E+03 -0.64105705598E+03  0.65221900060E+03  0.00000000000E+00 0.  1.
         -3    1    1    2    0  505  0.54355117749E+02 -0.35075743515E+02 -0.94162630802E+03  0.94384579808E+03  0.00000000000E+00 0. -1.
<scales pt_clust_3="173.79215" pt_clust_4="41.59038" pt_clust_5="14000.00000" pt_clust_6="64.83343"></scales>
<clustering>
<clus scale="   41.590">  1  4  2 -1</clus>
<clus scale="   64.833">  2  6  1 -1</clus>
<clus scale="  173.792">  1  3  2 -1</clus>
<clus scale="   41.590">  1  3  2 -1</clus>
</clustering>
</event>
<event>
 6    0  0.6338511E+002  0.7309185E+02  0.7546771E-02  0.1349884E+00
         21   -1    0    0  504  502  0.00000000000E+00  0.00000000000E+00  0.22822220353E+02  0.22822220353E+02  0.00000000000E+00 0. -1.
          2   -1    0    0  503    0 -0.00000000000E+00 -0.00000000000E+00 -0.30969273335E+04  0.30969273335E+04  0.00000000000E+00 0. -1.
         21    1    1    2  503  505 -0.28910772745E+02  0.94283556077E+02 -0.32668888321E+03  0.34124895332E+03  0.00000000000E+00 0. -1.
         21    1    1    2  504  501 -0.82860722480E+02 -0.25114752399E+02 -0.15541365727E+03  0.17790462328E+03  0.00000000000E+00 0. -1.
         21    1    1    2  505  502  0.54199612404E+02 -0.25223524938E+02 -0.23512554190E+03  0.24260635740E+03  0.00000000000E+00 0. -1.
          2    1    1    2  501    0  0.57571882820E+02 -0.43945278740E+02 -0.23568770308E+04  0.23579896199E+04  0.00000000000E+00 0. -1.
<scales pt_clust_3="73.09185" pt_clust_4="64.73910" pt_clust_5="59.78147" pt_clust_6="14000.00000"></scales>
<clustering>
<clus scale="   59.781">  1  5  2 -1</clus>
<clus scale="   64.739">  1  4  2 -1</clus>
<clus scale="   73.092">  1  3  2 -1</clus>
<clus scale="   59.781">  1  3  2 -1</clus>
</clustering>
</event>
<event>
 6    0  0.6338511E+002  0.1741244E+03  0.7546771E-02  0.1173614E+00
          2   -1    0    0  504    0 -0.00000000000E+00  0.00000000000E+00  0.18206360086E+04  0.18206360086E+04  0.00000000000E+00 0.  1.
         21   -1    0    0  505  502  0.00000000000E+00 -0.00000000000E+00 -0.81030178092E+02  0.81030178092E+02  0.00000000000E+00 0.  1.
         21    1    1    2  503  502 -0.62037239150E+02 -0.16642400742E+03  0.58611100539E+02  0.18703162940E+03  0.00000000000E+00 0.  1.
         21    1    1    2  504  503  0.19023817460E+02  0.14698434387E+03  0.10308311491E+04  0.10414313040E+04  0.00000000000E+00 0.  1.
         21    1    1    2  505  501  0.86447511431E+02  0.24151338965E+02  0.18123496992E+03  0.20224384719E+03  0.00000000000E+00 0.  1.
          2    1    1    2  501    0 -0.43434089742E+02 -0.47116754144E+01  0.46892861092E+03  0.47095940608E+03  0.00000000000E+00 0.  1.
<scales pt_clust_3="14000.00000" pt_clust_4="174.12437" pt_clust_5="83.64561" pt_clust_6="43.68890"></scales>
<clustering>
<clus scale="   43.689">  1  6  2 -1</clus>
<clus scale="   83.646">  1  5  2 -1</clus>
<clus scale="  174.124">  1  4  2 -1</clus>
<clus scale="  174.124">  2  3  1 -1</clus>
</clustering>
</event>
<event>
 6    0  0.6338511E+002  0.1151429E+03  0.7546771E-02  0.1251332E+00
          1   -1    0    0  504    0 -0.00000000000E+00  0.00000000000E+00  0.24460254720E+04  0.24460254720E+04  0.00000000000E+00 0. -1.
         21   -1    0    0  503  502  0.00000000000E+00 -0.00000000000E+00 -0.89263168726E+03  0.89263168726E+03  0.00000000000E+00 0.  1.
         21    1    1    2  503  505 -0.11254233516E+03 -0.78459303905E+02  0.96739769361E+02  0.16786965941E+03  0.00000000000E+00 0.  1.
         21    1    1    2  504  502  0.10013679303E+01  0.40018559863E+02 -0.85074344703E+03  0.85168474246E+03  0.00000000000E+00 0.  1.
         21    1    1    2  505  501  0.10092234316E+03 -0.80777542712E+01  0.45659468547E+03  0.46768501821E+03  0.00000000000E+00 0.  1.
          1    1    1    2  501    0  0.10618624068E+02  0.46518498314E+02  0.18508027769E+04  0.18514177392E+04  0.00000000000E+00 0. -1.
<scales pt_clust_3="115.14288" pt_clust_4="40.03109" pt_clust_5="14000.00000" pt_clust_6="48.00638"></scales>
<clustering>
<clus scale="   40.031">  2  4  1 -1</clus>
<clus scale="   48.006">  1  6  2 -1</clus>
<clus scale="  115.143">  2  3  1 -1</clus>
<clus scale="   40.031">  2  3  1 -1</clus>
</clustering>
</event>
<event>
 6    0  0.6338511E+002  0.9477448E+02  0.7546771E-02  0.1291685E+00
         21   -1    0    0  504  502  0.00000000000E+00  0.00000000000E+00  0.49344031251E+03  0.49344031251E+03  0.00000000000E+00 0.  1.
          2   -1    0    0  503    0 -0.00000000000E+00 -0.00000000000E+00 -0.88280697547E+03  0.88280697547E+03  0.00000000000E+00 0. -1.
         21    1    1    2  503  502 -0.24268866173E+02 -0.57664616421E+02  0.12306216840E+03  0.13805246518E+03  0.00000000000E+00 0.  1.
         21    1    1    2  504  505  0.12026519899E+03  0.10380057561E+03  0.29567217606E+03  0.33564909248E+03  0.00000000000E+00 0.  1.
         21    1    1    2  505  501 -0.56305551385E+02 -0.24049716316E+02  0.26495809023E+02  0.66713805673E+02  0.00000000000E+00 0. -1.
          2    1    1    2  501    0 -0.39690781435E+02 -0.22086242875E+02 -0.83459681644E+03  0.83583192465E+03  0.00000000000E+00 0. -1.
<scales pt_clust_3="68.33665" pt_clust_4="94.77448" pt_clust_5="14000.00000" pt_clust_6="45.42202"></scales>
<clustering>
<clus scale="   45.422">  2  6  1 -1</clus>
<clus scale="   68.337">  1  3  2 -1</clus>
<clus scale="   94.774">  1  4  2 -1</clus>
<clus scale="   68.337">  1  3  2 -1</clus>
</clustering>
</event>
<event>
 6    0  0.6338511E+002  0.1967915E+03  0.7546771E-02  0.1152475E+00
         21   -1    0    0  505  502  0.00000000000E+00  0.00000000000E+00  0.18734853676E+03  0.18734853676E+03  0.00000000000E+00 0.  1.
         -4   -1    0    0    0  501 -0.00000000000E+00 -0.00000000000E+00 -0.64878356565E+03  0.64878356565E+03  0.00000000000E+00 0.  1.
         21    1    1    2  503  502  0.31150440743E+02  0.10987458321E+03 -0.33016051255E+02  0.11888159502E+03  0.00000000000E+00 0.  1.
         21    1    1    2  504  501  0.22996008961E+03 -0.13275545309E+03 -0.13475748695E+03  0.29776707915E+03  0.00000000000E+00 0.  1.
         21    1    1    2  505  504 -0.77382957145E+02  0.39632254150E+02 -0.19620972703E+02  0.89128111139E+02  0.00000000000E+00 0.  1.
         -4    1    1    2    0  503 -0.18372757321E+03 -0.16751384272E+02 -0.27404051798E+03  0.33035531709E+03  0.00000000000E+00 0.  1.
<scales pt_clust_3="121.38801" pt_clust_4="196.79153" pt_clust_5="86.94158" pt_clust_6="14000.00000"></scales>
<clustering>
<clus scale="   86.942">  1  5  2 -1</clus>
<clus scale="  121.388">  1  3  2 -1</clus>
<clus scale="  196.792">  1  4  2 -1</clus>
<clus scale="   86.942">  1  3  2 -1</clus>
</clustering>
</event>
<event>
 6    0  0.6338511E+002  0.7013204E+02  0.7546771E-02  0.1359645E+00
          2   -1    0    0  505    0 -0.00000000000E+00  0.00000000000E+00  0.14361292266E+04  0.14361292266E+04  0.00000000000E+00 0.  1.
         21   -1    0    0  504  502  0.00000000000E+00 -0.00000000000E+00 -0.19892383600E+02  0.19892383600E+02  0.00000000000E+00 0.  1.
         21    1    1    2  503  502  0.17972480247E+02  0.27385493788E+02  0.40995948156E+02  0.52475166331E+02  0.00000000000E+00 0.  1.
         21    1    1    2  504  501 -0.98988621195E+02  0.41497832353E+02  0.36602791754E+03  0.38144102249E+03  0.00000000000E+00 0.  1.
         21    1    1    2  505  503  0.17569834347E+02 -0.57292008373E+02  0.16699559925E+03  0.17742210536E+03  0.00000000000E+00 0.  1.
          2    1    1    2  501    0  0.63446306601E+02 -0.11591317767E+02  0.84221737805E+03  0.84468331602E+03  0.00000000000E+00 0.  1.
<scales pt_clust_3="32.75630" pt_clust_4="70.13204" pt_clust_5="53.04165" pt_clust_6="14000.00000"></scales>
<clustering>
<clus scale="   32.756">  2  3  1 -1</clus>
<clus scale="   53.042">  2  5  1 -1</clus>
<clus scale="   70.132">  2  4  1 -1</clus>
<clus scale="   32.756">  2  3  1 -1</clus>
</clustering>
</event>
<event>
 6    0  0.6338511E+002  0.9778206E+02  0.7546771E-02  0.1285030E+00
         21   -1    0    0  501  502  0.00000000000E+00  0.00000000000E+00  0.52194972869E+03  0.52194972869E+03  0.00000000000E+00 0. -1.
          1   -1    0    0  505    0 -0.00000000000E+00 -0.00000000000E+00 -0.24463368850E+03  0.24463368850E+03  0.00000000000E+00 0.  1.
         21    1    1    2  503  502  0.22511610883E+02 -0.31478705461E+02  0.27165774675E+03  0.27440046081E+03  0.00000000000E+00 0. -1.
         21    1    1    2  504  503 -0.95076382486E+02  0.79001049017E+02  0.16848375838E+03  0.20896760775E+03  0.00000000000E+00 0. -1.
         21    1    1    2  505  504  0.41385818319E+02 -0.11235423160E+03 -0.17430279291E+02  0.12099617329E+03  0.00000000000E+00 0. -1.
          1    1    1    2  501    0  0.31178953285E+02  0.64831888040E+02 -0.14539518565E+03  0.16221917533E+03  0.00000000000E+00 0.  1.
<scales pt_clust_3="38.69989" pt_clust_4="97.78206" pt_clust_5="14000.00000" pt_clust_6="71.31981"></scales>
<clustering>
<clus scale="   38.700">  1  3  2 -1</clus>
<clus scale="   71.320">  2  6  1 -1</clus>
<clus scale="   97.782">  1  4  2 -1</clus>
<clus scale="   38.700">  1  3  2 -1</clus>
</clustering>
</event>
<event>
 6    0  0.6338511E+002  0.9422763E+02  0.7546771E-02  0.1292925E+00
          2   -1    0    0  505    0 -0.00000000000E+00  0.00000000000E+00  0.59571378849E+03  0.59571378849E+03  0.00000000000E+00 0. -1.
         21   -1    0    0  504  502  0.00000000000E+00 -0.00000000000E+00 -0.40897118699E+03  0.40897118699E+03  0.00000000000E+00 0. -1.
         21    1    1    2  503  502  0.11005361955E+02 -0.50667304626E+02  0.62260244716E+01  0.52221232565E+02  0.00000000000E+00 0. -1.
         21    1    1    2  504  501 -0.95145155657E+02 -0.15924796454E-01 -0.36038976981E+03  0.37273769206E+03  0.00000000000E+00 0. -1.
         21    1    1    2  505  503  0.15954522143E+02 -0.36160616984E+02  0.39387460204E+03  0.39585267351E+03  0.00000000000E+00 0. -1.
          2    1    1    2  501    0  0.68185271559E+02  0.86843846406E+02  0.14703174480E+03  0.18387337734E+03  0.00000000000E+00 0. -1.
<scales pt_clust_3="57.49450" pt_clust_4="14000.00000" pt_clust_5="39.52388" pt_clust_6="94.22763"></scales>
<clustering>
<clus scale="   39.524">  1  5  2 -1</clus>
<clus scale="   57.494">  1  3  2 -1</clus>
<clus scale="   94.228">  1  6  2 -1</clus>
<clus scale="   94.228">  2  3  1 -1</clus>
</clustering>
</event>
<event>
 6    0  0.6338511E+002  0.9881058E+02  0.7546771E-02  0.1282817E+00
          2   -1    0    0  504    0 -0.00000000000E+00  0.00000000000E+00  0.12586359000E+04  0.12586359000E+04  0.00000000000E+00 0. -1.
         21   -1    0    0  503  502  0.00000000000E+00 -0.00000000000E+00 -0.43186271629E+03  0.43186271629E+03  0.00000000000E+00 0.  1.
         21    1    1    2  503  505  0.18852365977E+02 -0.26822204698E+02 -0.88893315930E+02  0.94746313833E+02  0.00000000000E+00 0.  1.
         21    1    1    2  504  502 -0.11778098960E+03  0.26871862751E+02 -0.23263179770E+03  0.26212976142E+03  0.00000000000E+00 0.  1.
         21    1    1    2  505  501  0.78847139475E+02  0.68126158303E+02 -0.61991579778E+02  0.12124768374E+03  0.00000000000E+00 0.  1.
          2    1    1    2  501    0  0.20081484146E+02 -0.68175816356E+02  0.12102898771E+04  0.12123748573E+04  0.00000000000E+00 0. -1.
<scales pt_clust_3="32.78479" pt_clust_4="14000.00000" pt_clust_5="98.81058" pt_clust_6="71.16707"></scales>
<clustering>
<clus scale="   32.785">  2  3  1 -1</clus>
<clus scale="   71.167">  1  6  2 -1</clus>
<clus scale="   98.811">  1  5  2 -1</clus>
<clus scale="   32.785">  2  3  1 -1</clus>
</clustering>
</event>
<event>
 6    0  0.6338511E+002  0.1423401E+03  0.7546771E-02  0.1210214E+00
         21   -1    0    0  504  502  0.00000000000E+00  0.00000000000E+00  0.39818650308E+02  0.39818650308E+02  0.00000000000E+00 0.  1.
          2   -1    0    0  505    0 -0.00000000000E+00 -0.00000000000E+00 -0.28009308111E+04  0.28009308111E+04  0.00000000000E+00 0.  1.
         21    1    1    2  503  501  0.83140881023E+02  0.84641293882E+02 -0.13884925302E+04  0.13935523173E+04  0.00000000000E+00 0.  1.
         21    1    1    2  504  503  0.44626278966E+02  0.66871899144E+02 -0.15331439113E+03  0.17311458112E+03  0.00000000000E+00 0.  1.
         21    1    1    2  505  502 -0.12308757406E+03 -0.18199157853E+03 -0.41834854196E+03  0.47253252597E+03  0.00000000000E+00 0.  1.
          2    1    1    2  501    0 -0.46795859289E+01  0.30478385499E+02 -0.80095669756E+03  0.80155003704E+03  0.00000000000E+00 0.  1.
<scales pt_clust_3="142.34014" pt_clust_4="82.26973" pt_clust_5="14000.00000" pt_clust_6="30.83554"></scales>
<clustering>
<clus scale="   30.836">  2  6  1 -1</clus>
<clus scale="   82.270">  1  4  2 -1</clus>
<clus scale="  142.340">  2  3  1 -1</clus>
<clus scale="   82.270">  1  3  2 -1</clus>
</clustering>
</event>
<event>
 6    0  0.9352960E+002  0.1046918E+03  0.7546771E-02  0.1270728E+00
          2   -1    0    0  505    0 -0.00000000000E+00  0.00000000000E+00  0.76896320770E+03  0.76896320770E+03  0.00000000000E+00 0.  1.
         21   -1    0    0  503  502  0.00000000000E+00 -0.00000000000E+00 -0.16983617669E+04  0.16983617669E+04  0.00000000000E+00 0. -1.
         21    1    1    2  503  504 -0.82577555991E+02  0.27915339680E+02 -0.12413214829E+04  0.12443782958E+04  0.00000000000E+00 0. -1.
         21    1    1    2  504  501  0.10689551695E+03 -0.92280086887E+02 -0.27637129118E+03  0.31036004345E+03  0.00000000000E+00 0. -1.
         21    1    1    2  505  502  0.19205980813E+01 -0.36833444842E+02 -0.15634892960E+03  0.16064052771E+03  0.00000000000E+00 0. -1.
          2    1    1    2  501    0 -0.26238559040E+02  0.10119819205E+03  0.74464314457E+03  0.75194610765E+03  0.00000000000E+00 0.  1.
<scales pt_clust_3="81.04770" pt_clust_4="104.69182" pt_clust_5="36.88348" pt_clust_6="14000.00000"></scales>
<clustering>
<clus scale="   36.883">  2  5  1 -1</clus>
<clus scale="   81.048">  2  3  1 -1</clus>
<clus scale="  104.692">  2  4  1 -1</clus>
<clus scale="   36.883">  2  3  1 -1</clus>
</clustering>
</event>
<event>
 6    0  0.6338511E+002  0.1248255E+03  0.7546771E-02  0.1235342E+00
         21   -1    0    0  505  502  0.00000000000E+00  0.00000000000E+00  0.72706395432E+02  0.72706395432E+02  0.00000000000E+00 0. -1.
          2   -1    0    0  504    0 -0.00000000000E+00 -0.00000000000E+00 -0.30380127445E+04  0.30380127445E+04  0.00000000000E+00 0. -1.
         21    1    1    2  503  502 -0.54503578013E+02 -0.32499294379E+02  0.10358847312E+02  0.64297355070E+02  0.00000000000E+00 0. -1.
         21    1    1    2  504  503 -0.65109015183E+02 -0.31864345603E+01 -0.15794639680E+01  0.65206072798E+02  0.00000000000E+00 0. -1.
         21    1    1    2  505  501  0.81160733579E+02  0.15514717781E+02 -0.50249203581E+03  0.50924062799E+03  0.00000000000E+00 0.  1.
          2    1    1    2  501    0  0.38451859617E+02  0.20171011159E+02 -0.24715936966E+04  0.24719750841E+04  0.00000000000E+00 0. -1.
<scales pt_clust_3="32.92227" pt_clust_4="32.92227" pt_clust_5="120.28296" pt_clust_6="43.42137"></scales>
<clustering>
<clus scale="   32.922">  3  4 -1 -1</clus>
<clus scale="   43.421">  2  6  1 -1</clus>
<clus scale="  120.283">  2  5  1 -1</clus>
<clus scale="  124.826">  1  3  2 -1</clus>
</clustering>
</event>
<event>
 6    0  0.6338511E+002  0.1581555E+03  0.7546771E-02  0.1190795E+00
          1   -1    0    0  504    0 -0.00000000000E+00  0.00000000000E+00  0.96434155731E+03  0.96434155731E+03  0.00000000000E+00 0.  1.
         21   -1    0    0  503  502  0.00000000000E+00 -0.00000000000E+00 -0.18698272898E+03  0.18698272898E+03  0.00000000000E+00 0. -1.
         21    1    1    2  503  505 -0.13449389396E+03  0.12564706270E+02 -0.23343483875E+02  0.13708171867E+03  0.00000000000E+00 0. -1.
         21    1    1    2  504  502  0.20148487991E+03  0.29355700713E+02  0.48237651552E+01  0.20366929741E+03  0.00000000000E+00 0. -1.
         21    1    1    2  505  501 -0.78241426030E+02 -0.10211049785E+02  0.22016433479E+03  0.23387672094E+03  0.00000000000E+00 0. -1.
          1    1    1    2  501    0  0.11250440076E+02 -0.31709357198E+02  0.57571421226E+03  0.57669654927E+03  0.00000000000E+00 0.  1.
<scales pt_clust_3="158.15551" pt_clust_4="14000.00000" pt_clust_5="77.21605" pt_clust_6="33.64604"></scales>
<clustering>
<clus scale="   33.646">  1  6  2 -1</clus>
<clus scale="   77.216">  1  5  2 -1</clus>
<clus scale="  158.156">  2  3  1 -1</clus>
<clus scale="  158.156">  2  3  1 -1</clus>
</clustering>
</event>
<event>
 6    0  0.6338511E+002  0.9756233E+02  0.7546771E-02  0.1285507E+00
         21   -1    0    0  505  502  0.00000000000E+00  0.00000000000E+00  0.46093428342E+03  0.46093428342E+03  0.00000000000E+00 0.  1.
          2   -1    0    0  503    0 -0.00000000000E+00 -0.00000000000E+00 -0.19415915625E+04  0.19415915625E+04  0.00000000000E+00 0. -1.
         21    1    1    2  503  504 -0.20775453268E+02 -0.72271112109E+02 -0.12810412871E+02  0.76281320006E+02  0.00000000000E+00 0. -1.
         21    1    1    2  504  502 -0.61305829610E+02 -0.17438811429E+01  0.37341060679E+03  0.37841369839E+03  0.00000000000E+00 0.  1.
         21    1    1    2  505  501  0.11903495625E+03  0.79210376827E+02 -0.43169956260E+02  0.14935611715E+03  0.00000000000E+00 0. -1.
          2    1    1    2  501    0 -0.36953673372E+02 -0.51953835757E+01 -0.17980875168E+04  0.17984747104E+04  0.00000000000E+00 0. -1.
<scales pt_clust_3="14000.00000" pt_clust_4="61.97803" pt_clust_5="97.56233" pt_clust_6="37.31710"></scales>
<clustering>
<clus scale="   37.317">  2  6  1 -1</clus>
<clus scale="   61.978">  1  4  2 -1</clus>
<clus scale="   97.562">  1  5  2 -1</clus>
<clus scale="   61.978">  1  3  2 -1</clus>
</clustering>
</event>
<event>
 6    0  0.6338511E+002  0.1109345E+03  0.7546771E-02  0.1258849E+00
          2   -1    0    0  503    0 -0.00000000000E+00  0.00000000000E+00  0.93575158072E+03  0.93575158072E+03  0.00000000000E+00 0.  1.
         21   -1    0    0  505  502  0.00000000000E+00 -0.00000000000E+00 -0.24109074951E+03  0.24109074951E+03  0.00000000000E+00 0.  1.
         21    1    1    2  503  504 -0.76243680436E+02  0.36095129241E+02  0.17691216083E+03  0.19599456577E+03  0.00000000000E+00 0. -1.
         21    1    1    2  504  502  0.11627468016E+03 -0.19717459365E+01 -0.10618267738E+03  0.15747523616E+03  0.00000000000E+00 0.  1.
         21    1    1    2  505  501 -0.54202916206E+01 -0.30494731582E+02 -0.96885644280E+02  0.10171595884E+03  0.00000000000E+00 0. -1.
          2    1    1    2  501    0 -0.34610708101E+02 -0.36286517223E+01  0.72081699204E+03  0.72165656946E+03  0.00000000000E+00 0.  1.
<scales pt_clust_3="110.93447" pt_clust_4="14000.00000" pt_clust_5="30.97270" pt_clust_6="34.82589"></scales>
<clustering>
<clus scale="   30.973">  2  5  1 -1</clus>
<clus scale="   34.826">  1  6  2 -1</clus>
<clus scale="  110.934">  1  3  2 -1</clus>
<clus scale="   30.973">  2  3  1 -1</clus>
</clustering>
</event>
<event>
 6    0  0.6338511E+002  0.7268003E+02  0.7546771E-02  0.1351210E+00
         21   -1    0    0  503  502  0.00000000000E+00  0.00000000000E+00  0.64943826242E+03  0.64943826242E+03  0.00000000000E+00 0. -1.
         -2   -1    0    0    0  501 -0.00000000000E+00 -0.00000000000E+00 -0.11629117793E+03  0.11629117793E+03  0.00000000000E+00 0.  1.
         21    1    1    2  503  504 -0.68210490571E+02 -0.16701115629E+02  0.40278445802E+03  0.40886051156E+03  0.00000000000E+00 0. -1.
         21    1    1    2  504  501 -0.23135253557E+02 -0.45908218411E+02  0.74352397583E+02  0.90394045718E+02  0.00000000000E+00 0.  1.
         21    1    1    2  505  502  0.63910966130E+02  0.90253263654E+02  0.13732210458E+03  0.17631682732E+03  0.00000000000E+00 0.  1.
         -2    1    1    2    0  505  0.27434777998E+02 -0.27643929614E+02 -0.81311875693E+02  0.90158055752E+02  0.00000000000E+00 0.  1.
<scales pt_clust_3="72.68003" pt_clust_4="55.50098" pt_clust_5="14000.00000" pt_clust_6="38.94681"></scales>
<clustering>
<clus scale="   38.947">  2  6  1 -1</clus>
<clus scale="   55.501">  2  4  1 -1</clus>
<clus scale="   72.680">  1  3  2 -1</clus>
<clus scale="   72.680">  1  3  2 -1</clus>
</clustering>
</event>
<event>
 6    0  0.6338511E+002  0.1069188E+03  0.7546771E-02  0.1266385E+00
         21   -1    0    0  501  502  0.00000000000E+00  0.00000000000E+00  0.13501124940E+02  0.13501124940E+02  0.00000000000E+00 0.  1.
          1   -1    0    0  505    0 -0.00000000000E+00 -0.00000000000E+00 -0.24271618929E+04  0.24271618929E+04  0.00000000000E+00 0. -1.
         21    1    1    2  503  502 -0.20763963060E+02 -0.23017848504E+02 -0.39096994762E+02  0.49895275439E+02  0.00000000000E+00 0.  1.
         21    1    1    2  504  503  0.10847742823E+03  0.32484550603E+02 -0.72432722755E+03  0.73312518101E+03  0.00000000000E+00 0. -1.
         21    1    1    2  505  504 -0.10515481040E+03 -0.36474626019E+02 -0.92151718495E+03  0.92821433659E+03  0.00000000000E+00 0.  1.
          1    1    1    2  501    0  0.17441345231E+02  0.27007923920E+02 -0.72871936068E+03  0.72942822478E+03  0.00000000000E+00 0. -1.
<scales pt_clust_3="30.99941" pt_clust_4="106.91879" pt_clust_5="14000.00000" pt_clust_6="30.81219"></scales>
<clustering>
<clus scale="   30.999">  1  3  2 -1</clus>
<clus scale="   30.812">  2  6  1 -1</clus>
<clus scale="  106.919">  1  4  2 -1</clus>
<clus scale="   30.999">  1  3  2 -1</clus>
</clustering>
</event>
<event>
 6    0  0.6338511E+002  0.9300253E+02  0.7546771E-02  0.1295739E+00
          2   -1    0    0  505    0 -0.00000000000E+00  0.00000000000E+00  0.81384513106E+03  0.81384513106E+03  0.00000000000E+00 0.  1.
         21   -1    0    0  503  502  0.00000000000E+00 -0.00000000000E+00 -0.14153164117E+03  0.14153164117E+03  0.00000000000E+00 0.  1.
         21    1    1    2  503  501  0.85332633920E+02 -0.35281259204E+02  0.97369610308E+02  0.13419115721E+03  0.00000000000E+00 0.  1.
         21    1    1    2  504  502 -0.29548773460E+02 -0.60025843982E+01 -0.10259520515E+03  0.10693426557E+03  0.00000000000E+00 0.  1.
         21    1    1    2  505  504 -0.10517475993E+03  0.44457761868E+02  0.17296754647E+03  0.20725828053E+03  0.00000000000E+00 0.  1.
          2    1    1    2  501    0  0.49390899465E+02 -0.31739182660E+01  0.50457153826E+03  0.50699306892E+03  0.00000000000E+00 0.  1.
<scales pt_clust_3="93.00253" pt_clust_4="30.15230" pt_clust_5="14000.00000" pt_clust_6="48.53508"></scales>
<clustering>
<clus scale="   30.152">  2  4  1 -1</clus>
<clus scale="   48.535">  1  6  2 -1</clus>
<clus scale="   93.003">  2  3  1 -1</clus>
<clus scale="   30.152">  2  3  1 -1</clus>
</clustering>
</event>
<event>
 6    0  0.6338511E+002  0.8358676E+02  0.7546771E-02  0.1319170E+00
         21   -1    0    0  503  502  0.00000000000E+00  0.00000000000E+00  0.11918197841E+02  0.11918197841E+02  0.00000000000E+00 0. -1.
          2   -1    0    0  504    0 -0.00000000000E+00 -0.00000000000E+00 -0.22155964177E+04  0.22155964177E+04  0.00000000000E+00 0. -1.
         21    1    1    2  503  501 -0.73318506267E+02 -0.16583786175E+02 -0.55568567280E+03  0.56074699489E+03  0.00000000000E+00 0. -1.
         21    1    1    2  504  505  0.92711256613E+02  0.11579755782E+02 -0.47030352916E+03  0.47949439766E+03  0.00000000000E+00 0. -1.
         21    1    1    2  505  502  0.27138395505E+02  0.22331435458E+02 -0.68650598528E+02  0.77123862705E+02  0.00000000000E+00 0. -1.
          2    1    1    2  501    0 -0.46531145850E+02 -0.17327405065E+02 -0.11090384193E+04  0.11101493603E+04  0.00000000000E+00 0. -1.
<scales pt_clust_3="83.58676" pt_clust_4="14000.00000" pt_clust_5="35.14521" pt_clust_6="47.25733"></scales>
<clustering>
<clus scale="   35.145">  1  5  2 -1</clus>
<clus scale="   47.257">  2  6  1 -1</clus>
<clus scale="   83.587">  1  3  2 -1</clus>
<clus scale="   35.145">  1  3  2 -1</clus>
</clustering>
</event>
<event>
 6    0  0.6338511E+002  0.1127996E+03  0.7546771E-02  0.1255472E+00
         21   -1    0    0  505  502  0.00000000000E+00  0.00000000000E+00  0.15224924491E+03  0.15224924491E+03  0.00000000000E+00 0.  1.
          2   -1    0    0  503    0 -0.00000000000E+00 -0.00000000000E+00 -0.44894197061E+04  0.44894197061E+04  0.00000000000E+00 0.  1.
         21    1    1    2  503  504 -0.23178070086E+02 -0.86200966806E+02 -0.68915701900E+02  0.11277057941E+03  0.00000000000E+00 0.  1.
         21    1    1    2  504  502 -0.59712619683E+02 -0.43367328343E+02  0.11197370575E+03  0.13410605093E+03  0.00000000000E+00 0.  1.
         21    1    1    2  505  501  0.98140797011E+02  0.48061989207E+02 -0.42917340467E+03  0.44286722854E+03  0.00000000000E+00 0.  1.
          2    1    1    2  501    0 -0.15250107242E+02  0.81506305941E+02 -0.39510550603E+04  0.39519250921E+04  0.00000000000E+00 0.  1.
<scales pt_clust_3="14000.00000" pt_clust_4="73.79920" pt_clust_5="112.79957" pt_clust_6="82.45538"></scales>
<clustering>
<clus scale="   73.799">  1  4  2 -1</clus>
<clus scale="   82.455">  2  6  1 -1</clus>
<clus scale="  112.800">  2  5  1 -1</clus>
<clus scale="   73.799">  1  3  2 -1</clus>
</clustering>
</event>
<event>
 6    0  0.6338511E+002  0.1067316E+03  0.7546771E-02  0.1266745E+00
          1   -1    0    0  503    0 -0.00000000000E+00  0.00000000000E+00  0.10889560971E+04  0.10889560971E+04  0.00000000000E+00 0. -1.
         21   -1    0    0  505  502  0.00000000000E+00 -0.00000000000E+00 -0.40440488959E+02  0.40440488959E+02  0.00000000000E+00 0.  1.
         21    1    1    2  503  504 -0.87309958676E+01 -0.11103573133E+03  0.10655142380E+03  0.15413750301E+03  0.00000000000E+00 0.  1.
         21    1    1    2  504  502  0.36179128488E+02  0.10553196188E+02  0.59324184758E+02  0.70282701891E+02  0.00000000000E+00 0.  1.
         21    1    1    2  505  501  0.46935396849E+02  0.11449513207E+03  0.51986769980E+03  0.53439170282E+03  0.00000000000E+00 0.  1.
          1    1    1    2  501    0 -0.74383529469E+02 -0.14012596933E+02  0.36277229977E+03  0.37058467832E+03  0.00000000000E+00 0. -1.
<scales pt_clust_3="106.73165" pt_clust_4="37.68686" pt_clust_5="14000.00000" pt_clust_6="71.50239"></scales>
<clustering>
<clus scale="   37.687">  2  4  1 -1</clus>
<clus scale="   71.502">  1  6  2 -1</clus>
<clus scale="  106.732">  2  3  1 -1</clus>
<clus scale="   37.687">  2  3  1 -1</clus>
</clustering>
</event>
<event>
 6    0  0.6769314E+002  0.7855004E+02  0.7546771E-02  0.1333217E+00
          1   -1    0    0  505    0 -0.00000000000E+00  0.00000000000E+00  0.16414328663E+04  0.16414328663E+04  0.00000000000E+00 0. -1.
         21   -1    0    0  504  502  0.00000000000E+00 -0.00000000000E+00 -0.37336092684E+03  0.37336092684E+03  0.00000000000E+00 0.  1.
         21    1    1    2  503  502 -0.48981554242E+02 -0.10902798604E+03 -0.33868018519E+03  0.35915256123E+03  0.00000000000E+00 0.  1.
         21    1    1    2  504  501  0.15329025959E+02  0.38802621808E+02  0.50436512830E+01  0.42024527532E+02  0.00000000000E+00 0.  1.
         21    1    1    2  505  503  0.35771179100E+02 -0.16294489787E+02  0.76989455269E+02  0.86443414291E+02  0.00000000000E+00 0.  1.
          1    1    1    2  501    0 -0.21186508166E+01  0.86519854019E+02  0.15247190181E+04  0.15271732901E+04  0.00000000000E+00 0. -1.
<scales pt_clust_3="78.55004" pt_clust_4="41.69462" pt_clust_5="39.30760" pt_clust_6="14000.00000"></scales>
<clustering>
<clus scale="   39.308">  1  5  2 -1</clus>
<clus scale="   41.695">  2  4  1 -1</clus>
<clus scale="   78.550">  2  3  1 -1</clus>
<clus scale="   41.695">  2  3  1 -1</clus>
</clustering>
</event>
<event>
 6    0  0.6338511E+002  0.1645116E+03  0.7546771E-02  0.1183695E+00
          2   -1    0    0  503    0 -0.00000000000E+00  0.00000000000E+00  0.19550978067E+04  0.19550978067E+04  0.00000000000E+00 0. -1.
         21   -1    0    0  505  502  0.00000000000E+00 -0.00000000000E+00 -0.10736709954E+03  0.10736709954E+03  0.00000000000E+00 0.  1.
         21    1    1    2  503  502 -0.93772526145E+02 -0.10706839206E+03  0.55353673715E+02  0.15271200487E+03  0.00000000000E+00 0.  1.
         21    1    1    2  504  501  0.48362278988E+02  0.16188115488E+03  0.41037235803E+03  0.44379036782E+03  0.00000000000E+00 0.  1.
         21    1    1    2  505  504  0.10341425091E+02 -0.51187789008E+02 -0.25431228541E+02  0.58085128919E+02  0.00000000000E+00 0. -1.
          2    1    1    2  501    0  0.35068822066E+02 -0.36249738183E+01  0.14074359040E+04  0.14078774046E+04  0.00000000000E+00 0. -1.
<scales pt_clust_3="164.51164" pt_clust_4="14000.00000" pt_clust_5="52.54465" pt_clust_6="35.25568"></scales>
<clustering>
<clus scale="   35.256">  1  6  2 -1</clus>
<clus scale="   52.545">  2  5  1 -1</clus>
<clus scale="  164.512">  2  3  1 -1</clus>
<clus scale="   52.545">  2  3  1 -1</clus>
</clustering>
</event>
<event>
 6    0  0.6338511E+002  0.8876513E+02  0.7546771E-02  0.1305870E+00
          2   -1    0    0  504    0 -0.00000000000E+00  0.00000000000E+00  0.90559207665E+03  0.90559207665E+03  0.00000000000E+00 0.  1.
         21   -1    0    0  505  502  0.00000000000E+00 -0.00000000000E+00 -0.47713868160E+03  0.47713868160E+03  0.00000000000E+00 0.  1.
         21    1    1    2  503  501  0.59781662548E+02  0.20848158863E+00  0.32578326211E+03  0.33122292269E+03  0.00000000000E+00 0. -1.
         21    1    1    2  504  502  0.31010061321E+02  0.44342648021E+02 -0.50559504967E+02  0.74055100291E+02  0.00000000000E+00 0.  1.
         21    1    1    2  505  503 -0.12047104350E+03 -0.55022702498E+02 -0.40101279054E+03  0.42231744966E+03  0.00000000000E+00 0.  1.
          2    1    1    2  501    0  0.29679319626E+02  0.10471572889E+02  0.55424242844E+03  0.55513528562E+03  0.00000000000E+00 0.  1.
<scales pt_clust_3="88.76513" pt_clust_4="54.97018" pt_clust_5="14000.00000" pt_clust_6="31.47246"></scales>
<clustering>
<clus scale="   31.472">  1  6  2 -1</clus>
<clus scale="   54.970">  2  4  1 -1</clus>
<clus scale="   88.765">  1  3  2 -1</clus>
<clus scale="   54.970">  2  3  1 -1</clus>
</clustering>
</event>
<event>
 6    0  0.6338511E+002  0.1166965E+03  0.7546771E-02  0.1248649E+00
          1   -1    0    0  503    0 -0.00000000000E+00  0.00000000000E+00  0.40299492510E+03  0.40299492510E+03  0.00000000000E+00 0. -1.
         21   -1    0    0  505  502  0.00000000000E+00 -0.00000000000E+00 -0.19722705282E+03  0.19722705282E+03  0.00000000000E+00 0. -1.
         21    1    1    2  503  504  0.86294736391E+02 -0.51218013169E+02  0.50794937178E+02  0.11247307253E+03  0.00000000000E+00 0. -1.
         21    1    1    2  504  502  0.26739317160E+02 -0.73803871881E+02 -0.19601134921E+02  0.80908634131E+02  0.00000000000E+00 0. -1.
         21    1    1    2  505  501  0.12844169666E+02  0.10505329944E+03 -0.72873614919E+02  0.12849798508E+03  0.00000000000E+00 0. -1.
          1    1    1    2  501    0 -0.12587822322E+03  0.19968585612E+02  0.24744768494E+03  0.27834228618E+03  0.00000000000E+00 0. -1.
<scales pt_clust_3="116.69647" pt_clust_4="78.49842" pt_clust_5="62.77379" pt_clust_6="14000.00000"></scales>
<clustering>
<clus scale="   78.498">  2  4  1 -1</clus>
<clus scale="   62.774">  2  5  1 -1</clus>
<clus scale="  116.696">  2  3  1 -1</clus>
<clus scale="   78.498">  2  3  1 -1</clus>
</clustering>
</event>
<event>
 6    0  0.6338511E+002  0.1067865E+03  0.7546771E-02  0.1266639E+00
          4   -1    0    0  503    0 -0.00000000000E+00  0.00000000000E+00  0.17098450569E+04  0.17098450569E+04  0.00000000000E+00 0.  1.
         21   -1    0    0  505  502  0.00000000000E+00 -0.00000000000E+00 -0.28856656846E+03  0.28856656846E+03  0.00000000000E+00 0. -1.
         21    1    1    2  503  504  0.27206305290E+02 -0.11098096466E+03 -0.30248423115E+02  0.11820289618E+03  0.00000000000E+00 0. -1.
         21    1    1    2  504  502  0.43720201793E+02 -0.25379208393E+02 -0.16584299560E+03  0.17337664045E+03  0.00000000000E+00 0. -1.
         21    1    1    2  505  501 -0.74976536536E+02  0.73838151721E+02  0.18632853734E+02  0.10686784792E+03  0.00000000000E+00 0. -1.
          4    1    1    2  501    0  0.40500294528E+01  0.62522021332E+02  0.15987370534E+04  0.15999642408E+04  0.00000000000E+00 0.  1.
<scales pt_clust_3="14000.00000" pt_clust_4="50.55255" pt_clust_5="106.78652" pt_clust_6="62.53744"></scales>
<clustering>
<clus scale="   50.553">  2  4  1 -1</clus>
<clus scale="   62.537">  1  6  2 -1</clus>
<clus scale="  106.787">  2  5  1 -1</clus>
<clus scale="   50.553">  2  3  1 -1</clus>
</clustering>
</event>
<event>
 6    0  0.6338511E+002  0.1400821E+03  0.7546771E-02  0.1213219E+00
         21   -1    0    0  505  502  0.00000000000E+00  0.00000000000E+00  0.77246567191E+02  0.77246567191E+02  0.00000000000E+00 0. -1.
          1   -1    0    0  504    0 -0.00000000000E+00 -0.00000000000E+00 -0.13921138620E+04  0.13921138620E+04  0.00000000000E+00 0.  1.
         21    1    1    2  503  501  0.46668672966E+02  0.24497489148E+02 -0.35885704015E+03  0.36270713706E+03  0.00000000000E+00 0. -1.
         21    1    1    2  504  502 -0.65997582187E+02 -0.78643970736E+02 -0.95380538072E+02  0.14013565581E+03  0.00000000000E+00 0.  1.
         21    1    1    2  505  503 -0.14633641817E+02 -0.28426342038E+02  0.45714971595E+02  0.55785831735E+02  0.00000000000E+00 0. -1.
          1    1    1    2  501    0  0.33962551038E+02  0.82572823626E+02 -0.90634468821E+03  0.91073180461E+03  0.00000000000E+00 0.  1.
<scales pt_clust_3="41.56838" pt_clust_4="129.13991" pt_clust_5="31.97187" pt_clust_6="41.56838"></scales>
<clustering>
<clus scale="   31.972">  1  5  2 -1</clus>
<clus scale="   41.568">  3  6 -1 -1</clus>
<clus scale="  129.140">  1  4  2 -1</clus>
<clus scale="   31.972">  1  3  2 -1</clus>
</clustering>
</event>
<event>
 6    0  0.6338511E+002  0.1089967E+03  0.7546771E-02  0.1262439E+00
         21   -1    0    0  503  502  0.00000000000E+00  0.00000000000E+00  0.14505466713E+02  0.14505466713E+02  0.00000000000E+00 0. -1.
          2   -1    0    0  505    0 -0.00000000000E+00 -0.00000000000E+00 -0.22263903844E+04  0.22263903844E+04  0.00000000000E+00 0. -1.
         21    1    1    2  503  501  0.45483161571E+02 -0.36420550813E+02 -0.23086476572E+03  0.23810441945E+03  0.00000000000E+00 0. -1.
         21    1    1    2  504  502 -0.28857638188E+02  0.36293351429E+02 -0.94379836707E+02  0.10515476317E+03  0.00000000000E+00 0.  1.
         21    1    1    2  505  504 -0.48219657122E+02  0.77587399617E+02 -0.48667965008E+03  0.49517877753E+03  0.00000000000E+00 0. -1.
          2    1    1    2  501    0  0.31594133739E+02 -0.77460200233E+02 -0.13999606652E+04  0.14024578910E+04  0.00000000000E+00 0. -1.
<scales pt_clust_3="58.26813" pt_clust_4="44.26638" pt_clust_5="44.26638" pt_clust_6="89.55324"></scales>
<clustering>
<clus scale="   44.266">  4  5 -1 -1</clus>
<clus scale="   58.268">  1  3  2 -1</clus>
<clus scale="   89.553">  2  6  1 -1</clus>
<clus scale="   58.268">  1  3  2 -1</clus>
</clustering>
</event>
<event>
 6    0  0.6338511E+002  0.1475892E+03  0.7546771E-02  0.1203467E+00
         21   -1    0    0  505  502  0.00000000000E+00  0.00000000000E+00  0.87131057340E+03  0.87131057340E+03  0.00000000000E+00 0. -1.
          2   -1    0    0  503    0 -0.00000000000E+00 -0.00000000000E+00 -0.82696220268E+03  0.82696220268E+03  0.00000000000E+00 0.  1.
         21    1    1    2  503  502  0.73650819443E+02 -0.12880608677E+03 -0.32581505633E+03  0.35800963971E+03  0.00000000000E+00 0.  1.
         21    1    1    2  504  501 -0.49615300187E+02  0.12409015616E+03 -0.10694303531E+03  0.17116324860E+03  0.00000000000E+00 0.  1.
         21    1    1    2  505  504 -0.23180574795E+01  0.33317658674E+02  0.82183120722E+03  0.82250955796E+03  0.00000000000E+00 0. -1.
          2    1    1    2  501    0 -0.21717461776E+02 -0.28601728065E+02 -0.34472474486E+03  0.34659032981E+03  0.00000000000E+00 0.  1.
<scales pt_clust_3="147.58922" pt_clust_4="14000.00000" pt_clust_5="33.39820" pt_clust_6="35.43786"></scales>
<clustering>
<clus scale="   33.398">  1  5  2 -1</clus>
<clus scale="   35.438">  2  6  1 -1</clus>
<clus scale="  147.589">  2  3  1 -1</clus>
<clus scale="   33.398">  1  3  2 -1</clus>
</clustering>
</event>
<event>
 6    0  0.6338511E+002  0.1319426E+03  0.7546771E-02  0.1224601E+00
         -3   -1    0    0    0  501 -0.00000000000E+00  0.00000000000E+00  0.12148652912E+04  0.12148652912E+04  0.00000000000E+00 0.  1.
         21   -1    0    0  504  502  0.00000000000E+00 -0.00000000000E+00 -0.83269858348E+02  0.83269858348E+02  0.00000000000E+00 0.  1.
         21    1    1    2  503  501  0.97095370624E+02 -0.22099388990E+02  0.34547898505E+02  0.10540138178E+03  0.00000000000E+00 0.  1.
         21    1    1    2  504  503  0.34300185302E+02 -0.30395353534E+02 -0.84119014493E+01  0.46595496716E+02  0.00000000000E+00 0.  1.
         21    1    1    2  505  502 -0.82784742121E+02  0.52041150387E+02  0.10127271844E+03  0.14077556024E+03  0.00000000000E+00 0. -1.
         -3    1    1    2    0  505 -0.48610813806E+02  0.45359213751E+00  0.10041867174E+04  0.10053627108E+04  0.00000000000E+00 0.  1.
<scales pt_clust_3="33.23145" pt_clust_4="33.23145" pt_clust_5="122.51278" pt_clust_6="48.61293"></scales>
<clustering>
<clus scale="   33.231">  3  4 -1 -1</clus>
<clus scale="   48.613">  1  6  2 -1</clus>
<clus scale="  122.513">  1  5  2 -1</clus>
<clus scale="  131.943">  2  3  1 -1</clus>
</clustering>
</event>
<event>
 6    0  0.6338511E+002  0.9420125E+02  0.7546771E-02  0.1292985E+00
          3   -1    0    0  503    0 -0.00000000000E+00  0.00000000000E+00  0.97757494568E+02  0.97757494568E+02  0.00000000000E+00 0. -1.
         21   -1    0    0  505  502  0.00000000000E+00 -0.00000000000E+00 -0.93748917115E+03  0.93748917115E+03  0.00000000000E+00 0.  1.
         21    1    1    2  503  504 -0.48456166108E+02 -0.24866183789E+02 -0.55697871942E+02  0.77901091577E+02  0.00000000000E+00 0.  1.
         21    1    1    2  504  502 -0.67776771662E+02  0.14568807798E+02 -0.55547332940E+03  0.55978260120E+03  0.00000000000E+00 0.  1.
         21    1    1    2  505  501  0.81206550106E+02  0.84262289775E+02 -0.27822430105E+03  0.30183339602E+03  0.00000000000E+00 0.  1.
          3    1    1    2  501    0  0.35026387664E+02 -0.73964913784E+02  0.49663825805E+02  0.95729576920E+02  0.00000000000E+00 0. -1.
<scales pt_clust_3="54.46400" pt_clust_4="70.37811" pt_clust_5="14000.00000" pt_clust_6="94.20125"></scales>
<clustering>
<clus scale="   54.464">  1  3  2 -1</clus>
<clus scale="   70.378">  2  4  1 -1</clus>
<clus scale="   94.201">  1  6  2 -1</clus>
<clus scale="   70.378">  2  3  1 -1</clus>
</clustering>
</event>
<event>
 6    0  0.6338511E+002  0.1156326E+03  0.7546771E-02  0.1250481E+00
          2   -1    0    0  503    0 -0.00000000000E+00  0.00000000000E+00  0.47597742303E+04  0.47597742303E+04  0.00000000000E+00 0.  1.
         21   -1    0    0  504  502  0.00000000000E+00 -0.00000000000E+00 -0.72707621089E+02  0.72707621089E+02  0.00000000000E+00 0. -1.
         21    1    1    2  503  505  0.50132242572E+02  0.53672647291E+02  0.34101098781E+02  0.80974562368E+02  0.00000000000E+00 0. -1.
         21    1    1    2  504  501 -0.13718939220E+03 -0.11648293619E+03  0.63727006853E+03  0.66219509512E+03  0.00000000000E+00 0. -1.
         21    1    1    2  505  502  0.30840215110E+02 -0.34293175486E+02 -0.21268926943E+02  0.50788857107E+02  0.00000000000E+00 0. -1.
          2    1    1    2  501    0  0.56216934519E+02  0.97103464389E+02  0.40369643689E+04  0.40385233368E+04  0.00000000000E+00 0.  1.
<scales pt_clust_3="76.72094" pt_clust_4="115.63259" pt_clust_5="46.12094" pt_clust_6="14000.00000"></scales>
<clustering>
<clus scale="   46.121">  2  5  1 -1</clus>
<clus scale="   76.721">  2  3  1 -1</clus>
<clus scale="  115.633">  2  4  1 -1</clus>
<clus scale="   46.121">  2  3  1 -1</clus>
</clustering>
</event>
<event>
 6    0  0.6338511E+002  0.7600453E+02  0.7546771E-02  0.1340788E+00
         -2   -1    0    0    0  501 -0.00000000000E+00  0.00000000000E+00  0.88371482901E+03  0.88371482901E+03  0.00000000000E+00 0. -1.
         21   -1    0    0  503  502  0.00000000000E+00 -0.00000000000E+00 -0.40587395472E+03  0.40587395472E+03  0.00000000000E+00 0.  1.
         21    1    1    2  503  501  0.73199936416E+02 -0.77857428114E+01 -0.22100140236E+03  0.23293876518E+03  0.00000000000E+00 0.  1.
         21    1    1    2  504  502 -0.10278025780E+03 -0.62677035662E+02 -0.15155664435E+03  0.19355001586E+03  0.00000000000E+00 0.  1.
         21    1    1    2  505  504  0.53502402642E+02  0.44223978834E+02  0.19945593060E+03  0.21118933600E+03  0.00000000000E+00 0. -1.
         -2    1    1    2    0  505 -0.23922081260E+02  0.26238799640E+02  0.65094299040E+03  0.65191066668E+03  0.00000000000E+00 0. -1.
<scales pt_clust_3="72.93280" pt_clust_4="14000.00000" pt_clust_5="76.00453" pt_clust_6="35.50691"></scales>
<clustering>
<clus scale="   35.507">  1  6  2 -1</clus>
<clus scale="   72.933">  2  3  1 -1</clus>
<clus scale="   76.005">  1  5  2 -1</clus>
<clus scale="   72.933">  2  3  1 -1</clus>
</clustering>
</event>
<event>
 6    0  0.6338511E+002  0.2235337E+03  0.7546771E-02  0.1131276E+00
         21   -1    0    0  504  502  0.00000000000E+00  0.00000000000E+00  0.12132109313E+03  0.12132109313E+03  0.00000000000E+00 0. -1.
          2   -1    0    0  503    0 -0.00000000000E+00 -0.00000000000E+00 -0.86747135024E+03  0.86747135024E+03  0.00000000000E+00 0. -1.
         21    1    1    2  503  502  0.37623476860E+02  0.20000531199E+03 -0.56647221621E+03  0.60192061152E+03  0.00000000000E+00 0. -1.
         21    1    1    2  504  505  0.24125395515E+02 -0.18563842794E+03 -0.64445429717E+02  0.19798200436E+03  0.00000000000E+00 0. -1.
         21    1    1    2  505  501  0.19136446673E+02 -0.26482286053E+02  0.14325853673E+02  0.35675553946E+02  0.00000000000E+00 0. -1.
          2    1    1    2  501    0 -0.80885319048E+02  0.12115402010E+02 -0.12955846485E+03  0.15321427355E+03  0.00000000000E+00 0. -1.
<scales pt_clust_3="211.54243" pt_clust_4="30.17558" pt_clust_5="30.17558" pt_clust_6="81.78764"></scales>
<clustering>
<clus scale="   30.176">  4  5 -1 -1</clus>
<clus scale="   81.788">  2  6  1 -1</clus>
<clus scale="  211.542">  2  3  1 -1</clus>
<clus scale="  223.534">  1  3  2 -1</clus>
</clustering>
</event>
<event>
 6    0  0.6338511E+002  0.9385594E+02  0.7546771E-02  0.1293774E+00
         21   -1    0    0  504  502  0.00000000000E+00  0.00000000000E+00  0.18846287002E+03  0.18846287002E+03  0.00000000000E+00 0.  1.
          2   -1    0    0  503    0 -0.00000000000E+00 -0.00000000000E+00 -0.35049410121E+03  0.35049410121E+03  0.00000000000E+00 0. -1.
         21    1    1    2  503  502  0.44463925430E+02  0.55567145442E+02  0.13433965439E+03  0.15202595522E+03  0.00000000000E+00 0.  1.
         21    1    1    2  504  505  0.49849174842E+02 -0.28671915825E+01  0.61486172962E+00  0.49935348952E+02  0.00000000000E+00 0.  1.
         21    1    1    2  505  501 -0.85972202934E+02  0.85387995779E+01 -0.10885536306E+03  0.13897345374E+03  0.00000000000E+00 0. -1.
          2    1    1    2  501    0 -0.83408973385E+01 -0.61238753437E+02 -0.18813038425E+03  0.19802221332E+03  0.00000000000E+00 0. -1.
<scales pt_clust_3="14000.00000" pt_clust_4="49.93156" pt_clust_5="93.85594" pt_clust_6="61.70482"></scales>
<clustering>
<clus scale="   49.932">  1  4  2 -1</clus>
<clus scale="   61.705">  2  6  1 -1</clus>
<clus scale="   93.856">  2  5  1 -1</clus>
<clus scale="   49.932">  1  3  2 -1</clus>
</clustering>
</event>
<event>
 6    0  0.6338511E+002  0.2373986E+03  0.7546771E-02  0.1121538E+00
         21   -1    0    0  503  502  0.00000000000E+00  0.00000000000E+00  0.18485475124E+03  0.18485475124E+03  0.00000000000E+00 0.  1.
          2   -1    0    0  504    0 -0.00000000000E+00 -0.00000000000E+00 -0.13529957520E+04  0.13529957520E+04  0.00000000000E+00 0.  1.
         21    1    1    2  503  501 -0.12649227180E+03  0.18041249665E+03 -0.28624982148E+03  0.36123112279E+03  0.00000000000E+00 0.  1.
         21    1    1    2  504  505  0.20894005094E+03 -0.16290349850E+03 -0.16426660842E+03  0.31173227833E+03  0.00000000000E+00 0.  1.
         21    1    1    2  505  502 -0.51972443995E+02 -0.10525389722E+02  0.63730618031E+02  0.82906636877E+02  0.00000000000E+00 0.  1.
          2    1    1    2  501    0 -0.30475335148E+02 -0.69836084242E+01 -0.78135518887E+03  0.78198046524E+03  0.00000000000E+00 0.  1.
<scales pt_clust_3="237.39856" pt_clust_4="14000.00000" pt_clust_5="53.55205" pt_clust_6="31.26527"></scales>
<clustering>
<clus scale="   31.265">  2  6  1 -1</clus>
<clus scale="   53.552">  1  5  2 -1</clus>
<clus scale="  237.399">  2  3  1 -1</clus>
<clus scale="   53.552">  1  3  2 -1</clus>
</clustering>
</event>
<event>
 6    0  0.6338511E+002  0.9222078E+02  0.7546771E-02  0.1297561E+00
         21   -1    0    0  504  502  0.00000000000E+00  0.00000000000E+00  0.22633475406E+03  0.22633475406E+03  0.00000000000E+00 0.  1.
          1   -1    0    0  505    0 -0.00000000000E+00 -0.00000000000E+00 -0.97527775590E+03  0.97527775590E+03  0.00000000000E+00 0. -1.
         21    1    1    2  503  502 -0.74528408144E+02 -0.50463374020E+02  0.15536502254E+03  0.17955312853E+03  0.00000000000E+00 0.  1.
         21    1    1    2  504  501  0.11708455400E+03  0.95233131588E+01 -0.20077948051E+02  0.11917470485E+03  0.00000000000E+00 0. -1.
         21    1    1    2  505  503 -0.70319847295E+02  0.13250893742E+01 -0.13615934208E+03  0.15325143791E+03  0.00000000000E+00 0. -1.
          1    1    1    2  501    0  0.27763701438E+02  0.39614971487E+02 -0.74807073424E+03  0.74963323866E+03  0.00000000000E+00 0. -1.
<scales pt_clust_3="14000.00000" pt_clust_4="92.22078" pt_clust_5="58.94154" pt_clust_6="48.37529"></scales>
<clustering>
<clus scale="   48.375">  2  6  1 -1</clus>
<clus scale="   58.942">  2  5  1 -1</clus>
<clus scale="   92.221">  2  4  1 -1</clus>
<clus scale="   92.221">  1  3  2 -1</clus>
</clustering>
</event>
<event>
 6    0  0.6338511E+002  0.8089403E+02  0.7546771E-02  0.1326533E+00
         21   -1    0    0  504  502  0.00000000000E+00  0.00000000000E+00  0.97673186444E+03  0.97673186444E+03  0.00000000000E+00 0.  1.
          2   -1    0    0  503    0 -0.00000000000E+00 -0.00000000000E+00 -0.12561039726E+04  0.12561039726E+04  0.00000000000E+00 0. -1.
         21    1    1    2  503  502  0.39533065984E+02 -0.23082842671E+02  0.77591112319E+02  0.90089187158E+02  0.00000000000E+00 0. -1.
         21    1    1    2  504  505 -0.53146100315E+02  0.68310907615E+02  0.86590988573E+03  0.87022457922E+03  0.00000000000E+00 0.  1.
         21    1    1    2  505  501 -0.16885186486E+02 -0.11788429304E+03 -0.12805171077E+03  0.17486868416E+03  0.00000000000E+00 0. -1.
          2    1    1    2  501    0  0.30498220817E+02  0.72656228101E+02 -0.10948213954E+04  0.10976533865E+04  0.00000000000E+00 0. -1.
<scales pt_clust_3="45.77861" pt_clust_4="48.17144" pt_clust_5="14000.00000" pt_clust_6="80.89403"></scales>
<clustering>
<clus scale="   45.779">  1  3  2 -1</clus>
<clus scale="   48.171">  1  4  2 -1</clus>
<clus scale="   80.894">  2  6  1 -1</clus>
<clus scale="   45.779">  1  3  2 -1</clus>
</clustering>
</event>
<event>
 6    0  0.6338511E+002  0.1158002E+03  0.7546771E-02  0.1250191E+00
         21   -1    0    0  505  502  0.00000000000E+00  0.00000000000E+00  0.82564398091E+02  0.82564398091E+02  0.00000000000E+00 0. -1.
         -1   -1    0    0    0  501 -0.00000000000E+00 -0.00000000000E+00 -0.40002472323E+03  0.40002472323E+03  0.00000000000E+00 0. -1.
         21    1    1    2  503  502  0.54136334544E+02 -0.29815153248E+02  0.78904106833E+01  0.62305253886E+02  0.00000000000E+00 0. -1.
         21    1    1    2  504  503  0.26546387675E+01 -0.46947962479E+02 -0.49556802337E+00  0.47025566191E+02  0.00000000000E+00 0. -1.
         21    1    1    2  505  501 -0.83625494456E+02  0.10801440589E+03 -0.20345039790E+03  0.24505591119E+03  0.00000000000E+00 0. -1.
         -1    1    1    2    0  504  0.26834521145E+02 -0.31251290161E+02 -0.12140476990E+03  0.12820239006E+03  0.00000000000E+00 0. -1.
<scales pt_clust_3="45.97745" pt_clust_4="45.97745" pt_clust_5="103.09675" pt_clust_6="41.19144"></scales>
<clustering>
<clus scale="   41.191">  2  6  1 -1</clus>
<clus scale="   45.977">  3  4 -1 -1</clus>
<clus scale="  103.097">  2  5  1 -1</clus>
<clus scale="  115.800">  1  3  2 -1</clus>
</clustering>
</event>
<event>
 6    0  0.6338511E+002  0.1192319E+03  0.7546771E-02  0.1244370E+00
          1   -1    0    0  505    0 -0.00000000000E+00  0.00000000000E+00  0.88387808148E+03  0.88387808148E+03  0.00000000000E+00 0. -1.
         21   -1    0    0  504  502  0.00000000000E+00 -0.00000000000E+00 -0.80330339203E+02  0.80330339203E+02  0.00000000000E+00 0.  1.
         21    1    1    2  503  502 -0.10125258604E+03 -0.59014645507E+02 -0.65904142040E+01  0.11738078260E+03  0.00000000000E+00 0.  1.
         21    1    1    2  504  501  0.10800347578E+03  0.72559037723E+02  0.27548707169E+03  0.30466816605E+03  0.00000000000E+00 0. -1.
         21    1    1    2  505  503 -0.20419474328E+02 -0.40562915767E+02  0.16095835209E+03  0.16724202873E+03  0.00000000000E+00 0. -1.
          1    1    1    2  501    0  0.13668584586E+02  0.27018523552E+02  0.37369273270E+03  0.37491744330E+03  0.00000000000E+00 0. -1.
<scales pt_clust_3="119.23190" pt_clust_4="14000.00000" pt_clust_5="35.66168" pt_clust_6="30.27921"></scales>
<clustering>
<clus scale="   30.279">  1  6  2 -1</clus>
<clus scale="   35.662">  1  5  2 -1</clus>
<clus scale="  119.232">  2  3  1 -1</clus>
<clus scale="  119.232">  2  3  1 -1</clus>
</clustering>
</event>
<event>
 6    0  0.6338511E+002  0.1625594E+03  0.7546771E-02  0.1185837E+00
         21   -1    0    0  501  502  0.00000000000E+00  0.00000000000E+00  0.49030411735E+03  0.49030411735E+03  0.00000000000E+00 0. -1.
          2   -1    0    0  504    0 -0.00000000000E+00 -0.00000000000E+00 -0.20025760890E+04  0.20025760890E+04  0.00000000000E+00 0. -1.
         21    1    1    2  503  505 -0.29311221106E+02  0.12876390016E+03  0.41148090522E+02  0.13832011792E+03  0.00000000000E+00 0. -1.
         21    1    1    2  504  503  0.40822584252E+02  0.62899668345E+01 -0.27880565930E+03  0.28184861668E+03  0.00000000000E+00 0.  1.
         21    1    1    2  505  502 -0.69044195754E+02  0.46809293087E+01  0.39260511468E+03  0.39865748223E+03  0.00000000000E+00 0. -1.
          2    1    1    2  501    0  0.57532832608E+02 -0.13973479630E+03 -0.16672195176E+04  0.16740539896E+04  0.00000000000E+00 0. -1.
<scales pt_clust_3="162.55944" pt_clust_4="41.30432" pt_clust_5="69.13187" pt_clust_6="14000.00000"></scales>
<clustering>
<clus scale="   41.304">  2  4  1 -1</clus>
<clus scale="   69.132">  1  5  2 -1</clus>
<clus scale="  162.559">  1  3  2 -1</clus>
<clus scale="   69.132">  1  3  2 -1</clus>
</clustering>
</event>
<event>
 6    0  0.6338511E+002  0.1632771E+03  0.7546771E-02  0.1185046E+00
         21   -1    0    0  503  502  0.00000000000E+00  0.00000000000E+00  0.72274687285E+03  0.72274687285E+03  0.00000000000E+00 0. -1.
          4   -1    0    0  502    0 -0.00000000000E+00 -0.00000000000E+00 -0.12397495036E+04  0.12397495036E+04  0.00000000000E+00 0.  1.
         21    1    1    2  503  504  0.29837991250E+02 -0.71733933185E+01  0.54979231620E+03  0.55064812199E+03  0.00000000000E+00 0. -1.
         21    1    1    2  504  505  0.45183966976E+02 -0.25491329774E+02  0.36722451482E+02  0.63560500377E+02  0.00000000000E+00 0. -1.
         21    1    1    2  505  501  0.81874438082E+02  0.87163295080E+02  0.85956851183E+02  0.14727336448E+03  0.00000000000E+00 0. -1.
          4    1    1    2  501    0 -0.15689639631E+03 -0.54498571987E+02 -0.11894742496E+04  0.12010143896E+04  0.00000000000E+00 0.  1.
<scales pt_clust_3="30.68816" pt_clust_4="60.50529" pt_clust_5="163.27711" pt_clust_6="14000.00000"></scales>
<clustering>
<clus scale="   30.688">  1  3  2 -1</clus>
<clus scale="   60.505">  1  4  2 -1</clus>
<clus scale="  163.277">  1  5  2 -1</clus>
<clus scale="   30.688">  1  3  2 -1</clus>
</clustering>
</event>
<event>
 6    0  0.6338511E+002  0.1313046E+03  0.7546771E-02  0.1225533E+00
          2   -1    0    0  504    0 -0.00000000000E+00  0.00000000000E+00  0.48702290351E+04  0.48702290351E+04  0.00000000000E+00 0. -1.
         21   -1    0    0  505  502  0.00000000000E+00 -0.00000000000E+00 -0.38717326965E+03  0.38717326965E+03  0.00000000000E+00 0.  1.
         21    1    1    2  503  502 -0.57776496553E+02  0.59489973767E+02 -0.89253656195E+02  0.12183347519E+03  0.00000000000E+00 0.  1.
         21    1    1    2  504  503  0.19510290707E+02 -0.29872212446E+02  0.32899174025E+03  0.33092078459E+03  0.00000000000E+00 0. -1.
         21    1    1    2  505  501 -0.13528791548E+02  0.52070721738E+02 -0.27756496797E+03  0.28273079017E+03  0.00000000000E+00 0.  1.
          2    1    1    2  501    0  0.51794997394E+02 -0.81688483059E+02  0.45208826493E+04  0.45219172548E+04  0.00000000000E+00 0. -1.
<scales pt_clust_3="14000.00000" pt_clust_4="35.67913" pt_clust_5="53.78028" pt_clust_6="131.30458"></scales>
<clustering>
<clus scale="   35.679">  1  4  2 -1</clus>
<clus scale="   53.780">  2  5  1 -1</clus>
<clus scale="  131.305">  1  6  2 -1</clus>
<clus scale="   53.780">  2  3  1 -1</clus>
</clustering>
</event>
<event>
 6    0  0.6338511E+002  0.6908584E+02  0.7546771E-02  0.1363230E+00
          1   -1    0    0  503    0 -0.00000000000E+00  0.00000000000E+00  0.39488284217E+04  0.39488284217E+04  0.00000000000E+00 0.  1.
         21   -1    0    0  505  502  0.00000000000E+00 -0.00000000000E+00 -0.69043288631E+02  0.69043288631E+02  0.00000000000E+00 0. -1.
         21    1    1    2  503  502  0.76459563451E+02  0.22975683662E+02  0.21068117387E+03  0.22530091856E+03  0.00000000000E+00 0.  1.
         21    1    1    2  504  501 -0.66870668605E+02 -0.69424186853E+02  0.46990626579E+03  0.47969084071E+03  0.00000000000E+00 0. -1.
         21    1    1    2  505  504 -0.55936314171E+02 -0.21358510892E+01 -0.42627134195E+02  0.70359829964E+02  0.00000000000E+00 0. -1.
          1    1    1    2  501    0  0.46347419324E+02  0.48584354280E+02  0.32418248276E+04  0.32425201211E+04  0.00000000000E+00 0.  1.
<scales pt_clust_3="48.96506" pt_clust_4="69.08584" pt_clust_5="55.97708" pt_clust_6="14000.00000"></scales>
<clustering>
<clus scale="   55.977">  2  5  1 -1</clus>
<clus scale="   48.965">  2  3  1 -1</clus>
<clus scale="   69.086">  2  4  1 -1</clus>
<clus scale="   55.977">  2  3  1 -1</clus>
</clustering>
</event>
<event>
 6    0  0.6338511E+002  0.2294012E+03  0.7546771E-02  0.1127062E+00
         21   -1    0    0  503  502  0.00000000000E+00  0.00000000000E+00  0.12421991642E+03  0.12421991642E+03  0.00000000000E+00 0.  1.
          1   -1    0    0  505    0 -0.00000000000E+00 -0.00000000000E+00 -0.14646058130E+04  0.14646058130E+04  0.00000000000E+00 0. -1.
         21    1    1    2  503  501  0.18999349419E+03 -0.88455308795E+02 -0.75196556870E+02  0.22265756590E+03  0.00000000000E+00 0.  1.
         21    1    1    2  504  502  0.39187632697E+02  0.65619813475E+02 -0.60156860056E+02  0.97264990046E+02  0.00000000000E+00 0.  1.
         21    1    1    2  505  504  0.17014231181E+02 -0.10331041453E+03 -0.19100648586E+03  0.21782103538E+03  0.00000000000E+00 0. -1.
          1    1    1    2  501    0 -0.24619535807E+03  0.12614590985E+03 -0.10140259938E+04  0.10510821381E+04  0.00000000000E+00 0. -1.
<scales pt_clust_3="229.40118" pt_clust_4="76.43056" pt_clust_5="97.49579" pt_clust_6="14000.00000"></scales>
<clustering>
<clus scale="   76.431">  1  4  2 -1</clus>
<clus scale="   97.496">  2  5  1 -1</clus>
<clus scale="  229.401">  1  3  2 -1</clus>
<clus scale="   76.431">  1  3  2 -1</clus>
</clustering>
</event>
<event>
 6    0  0.6338511E+002  0.1691432E+03  0.7546771E-02  0.1178744E+00
         21   -1    0    0  501  502  0.00000000000E+00  0.00000000000E+00  0.77078666841E+03  0.77078666841E+03  0.00000000000E+00 0. -1.
          1   -1    0    0  503    0 -0.00000000000E+00 -0.00000000000E+00 -0.13700223849E+03  0.13700223849E+03  0.00000000000E+00 0.  1.
         21    1    1    2  503  505  0.14975031837E+03  0.54134240117E+01  0.52726518066E+02  0.15885385963E+03  0.00000000000E+00 0.  1.
         21    1    1    2  504  502  0.50837992409E+02 -0.13295926665E+02  0.25437394301E+03  0.25974484792E+03  0.00000000000E+00 0.  1.
         21    1    1    2  505  504 -0.19648697412E+03  0.88458488238E+02  0.34471236525E+03  0.40652017158E+03  0.00000000000E+00 0. -1.
          1    1    1    2  501    0 -0.41013366639E+01 -0.80575985584E+02 -0.18028396415E+02  0.82670027776E+02  0.00000000000E+00 0.  1.
<scales pt_clust_3="169.14318" pt_clust_4="52.54791" pt_clust_5="14000.00000" pt_clust_6="81.41750"></scales>
<clustering>
<clus scale="   52.548">  1  4  2 -1</clus>
<clus scale="   81.417">  2  6  1 -1</clus>
<clus scale="  169.143">  2  3  1 -1</clus>
<clus scale="   52.548">  1  3  2 -1</clus>
</clustering>
</event>
<event>
 6    0  0.6338511E+002  0.7374330E+02  0.7546771E-02  0.1347807E+00
         -4   -1    0    0    0  501 -0.00000000000E+00  0.00000000000E+00  0.26033995454E+03  0.26033995454E+03  0.00000000000E+00 0. -1.
         21   -1    0    0  501  502  0.00000000000E+00 -0.00000000000E+00 -0.32463509836E+03  0.32463509836E+03  0.00000000000E+00 0.  1.
         21    1    1    2  503  504 -0.74604840861E+02 -0.17650484422E+02 -0.14687344424E+03  0.16567809301E+03  0.00000000000E+00 0.  1.
         21    1    1    2  504  502  0.11404553580E+02 -0.36174977507E+02 -0.10459440477E+03  0.11125952701E+03  0.00000000000E+00 0. -1.
         21    1    1    2  505  503  0.39345355397E+01  0.91758921286E+02 -0.15819003264E+02  0.93195606494E+02  0.00000000000E+00 0.  1.
         -4    1    1    2    0  505  0.59265751741E+02 -0.37933459357E+02  0.20299170846E+03  0.21484182640E+03  0.00000000000E+00 0. -1.
<scales pt_clust_3="14000.00000" pt_clust_4="37.93010" pt_clust_5="73.74330" pt_clust_6="71.16495"></scales>
<clustering>
<clus scale="   37.930">  2  4  1 -1</clus>
<clus scale="   71.165">  1  6  2 -1</clus>
<clus scale="   73.743">  1  5  2 -1</clus>
<clus scale="   37.930">  2  3  1 -1</clus>
</clustering>
</event>
<event>
 6    0  0.6338511E+002  0.2423275E+03  0.7546771E-02  0.1118252E+00
         21   -1    0    0  503  502  0.00000000000E+00  0.00000000000E+00  0.20102087441E+04  0.20102087441E+04  0.00000000000E+00 0. -1.
         -2   -1    0    0    0  501 -0.00000000000E+00 -0.00000000000E+00 -0.77805926329E+02  0.77805926329E+02  0.00000000000E+00 0. -1.
         21    1    1    2  503  501 -0.15582392927E+01  0.52664289249E+02  0.43863263691E+03  0.44178563313E+03  0.00000000000E+00 0. -1.
         21    1    1    2  504  505 -0.21085871825E+03 -0.17721715678E+03  0.99129709305E+03  0.10288523929E+04  0.00000000000E+00 0. -1.
         21    1    1    2  505  502  0.27066179601E+02 -0.18952311655E+02  0.31632079584E+03  0.31804184328E+03  0.00000000000E+00 0. -1.
         -2    1    1    2    0  504  0.18535077794E+03  0.14350517919E+03  0.18615229192E+03  0.29933480106E+03  0.00000000000E+00 0. -1.
<scales pt_clust_3="48.04988" pt_clust_4="242.32752" pt_clust_5="33.04192" pt_clust_6="14000.00000"></scales>
<clustering>
<clus scale="   33.042">  1  5  2 -1</clus>
<clus scale="   48.050">  1  3  2 -1</clus>
<clus scale="  242.328">  1  4  2 -1</clus>
<clus scale="   33.042">  1  3  2 -1</clus>
</clustering>
</event>
<event>
 6    0  0.6338511E+002  0.9256466E+02  0.7546771E-02  0.1296757E+00
          2   -1    0    0  505    0 -0.00000000000E+00  0.00000000000E+00  0.39743509704E+04  0.39743509704E+04  0.00000000000E+00 0.  1.
         21   -1    0    0  504  502  0.00000000000E+00 -0.00000000000E+00 -0.30866953977E+03  0.30866953977E+03  0.00000000000E+00 0.  1.
         21    1    1    2  503  501 -0.38057107634E+02  0.38530624615E+02  0.86301347682E+03  0.86471105789E+03  0.00000000000E+00 0. -1.
         21    1    1    2  504  503 -0.45877727343E+02 -0.16215676925E+01 -0.26770921483E+03  0.27161667669E+03  0.00000000000E+00 0.  1.
         21    1    1    2  505  502  0.12384310117E+03 -0.52419898699E+02  0.80961412228E+02  0.15697041045E+03  0.00000000000E+00 0.  1.
          2    1    1    2  501    0 -0.39908266195E+02  0.15510841777E+02  0.29894157564E+04  0.29897223651E+04  0.00000000000E+00 0.  1.
<scales pt_clust_3="14000.00000" pt_clust_4="45.98443" pt_clust_5="92.56466" pt_clust_6="42.81654"></scales>
<clustering>
<clus scale="   42.817">  1  6  2 -1</clus>
<clus scale="   45.984">  2  4  1 -1</clus>
<clus scale="   92.565">  2  5  1 -1</clus>
<clus scale="   45.984">  2  3  1 -1</clus>
</clustering>
</event>
<event>
 6    0  0.6338511E+002  0.1303100E+03  0.7546771E-02  0.1226996E+00
         21   -1    0    0  503  502  0.00000000000E+00  0.00000000000E+00  0.57605269337E+03  0.57605269337E+03  0.00000000000E+00 0.  1.
          2   -1    0    0  505    0 -0.00000000000E+00 -0.00000000000E+00 -0.19498347105E+03  0.19498347105E+03  0.00000000000E+00 0. -1.
         21    1    1    2  503  504 -0.41353801246E+02  0.48977321372E+02  0.38306596520E+03  0.38839213249E+03  0.00000000000E+00 0.  1.
         21    1    1    2  504  501 -0.10616399858E+03  0.26019939352E+02  0.95495435119E+02  0.14514547863E+03  0.00000000000E+00 0. -1.
         21    1    1    2  505  502  0.16156731406E+02 -0.41857168135E+02  0.27953050643E+02  0.52862420813E+02  0.00000000000E+00 0.  1.
          2    1    1    2  501    0  0.13136106842E+03 -0.33140092589E+02 -0.12544522864E+03  0.18463613249E+03  0.00000000000E+00 0. -1.
<scales pt_clust_3="35.18495" pt_clust_4="14000.00000" pt_clust_5="44.86716" pt_clust_6="130.31004"></scales>
<clustering>
<clus scale="   44.867">  1  5  2 -1</clus>
<clus scale="   35.185">  1  3  2 -1</clus>
<clus scale="  130.310">  2  6  1 -1</clus>
<clus scale="   44.867">  1  3  2 -1</clus>
</clustering>
</event>
<event>
 6    0  0.6338511E+002  0.8289701E+02  0.7546771E-02  0.1321026E+00
         -2   -1    0    0    0  501 -0.00000000000E+00  0.00000000000E+00  0.96773737114E+02  0.96773737114E+02  0.00000000000E+00 0. -1.
         21   -1    0    0  503  502  0.00000000000E+00 -0.00000000000E+00 -0.43350088341E+03  0.43350088341E+03  0.00000000000E+00 0. -1.
         21    1    1    2  503  504 -0.93165150553E+02  0.19302008998E+01 -0.16747666847E+03  0.19165569502E+03  0.00000000000E+00 0. -1.
         21    1    1    2  504  501  0.96984439614E+01 -0.10289748846E+03 -0.67722279677E+02  0.12356480126E+03  0.00000000000E+00 0. -1.
         21    1    1    2  505  502  0.67170583723E+02  0.44916957787E+02 -0.12767279164E+03  0.15109520885E+03  0.00000000000E+00 0. -1.
         -2    1    1    2    0  505  0.16296122869E+02  0.56050329774E+02  0.26144593487E+02  0.63958915383E+02  0.00000000000E+00 0. -1.
<scales pt_clust_3="82.89701" pt_clust_4="74.95736" pt_clust_5="14000.00000" pt_clust_6="58.37125"></scales>
<clustering>
<clus scale="   58.371">  1  6  2 -1</clus>
<clus scale="   74.957">  1  4  2 -1</clus>
<clus scale="   82.897">  1  3  2 -1</clus>
<clus scale="   82.897">  2  3  1 -1</clus>
</clustering>
</event>
<event>
 6    0  0.6338511E+002  0.2318853E+03  0.7546771E-02  0.1125320E+00
         -2   -1    0    0    0  501 -0.00000000000E+00  0.00000000000E+00  0.38554595051E+03  0.38554595051E+03  0.00000000000E+00 0.  1.
         21   -1    0    0  503  502  0.00000000000E+00 -0.00000000000E+00 -0.77477822693E+03  0.77477822693E+03  0.00000000000E+00 0.  1.
         21    1    1    2  503  501 -0.12259174363E+03 -0.27877202540E+02 -0.32488644614E+02  0.12985139990E+03  0.00000000000E+00 0. -1.
         21    1    1    2  504  502  0.10424202502E+03  0.83630653204E+02 -0.52583404273E+03  0.54255131226E+03  0.00000000000E+00 0.  1.
         21    1    1    2  505  504  0.56169032019E+02  0.64422424539E+02 -0.13442534240E+03  0.15929652106E+03  0.00000000000E+00 0.  1.
         -2    1    1    2    0  505 -0.37819313409E+02 -0.12017587520E+03  0.30351575333E+03  0.32862494423E+03  0.00000000000E+00 0.  1.
<scales pt_clust_3="125.72141" pt_clust_4="75.85282" pt_clust_5="75.85282" pt_clust_6="211.59939"></scales>
<clustering>
<clus scale="   75.853">  4  5 -1 -1</clus>
<clus scale="  125.721">  1  3  2 -1</clus>
<clus scale="  211.599">  1  6  2 -1</clus>
<clus scale="  231.885">  2  3  1 -1</clus>
</clustering>
</event>
<event>
 6    0  0.6338511E+002  0.1084344E+03  0.7546771E-02  0.1263497E+00
          2   -1    0    0  503    0 -0.00000000000E+00  0.00000000000E+00  0.22782446265E+04  0.22782446265E+04  0.00000000000E+00 0.  1.
         21   -1    0    0  505  502  0.00000000000E+00 -0.00000000000E+00 -0.47988515411E+03  0.47988515411E+03  0.00000000000E+00 0.  1.
         21    1    1    2  503  502  0.42556054861E+02  0.23422937816E+02 -0.29236801901E+02  0.56696052831E+02  0.00000000000E+00 0. -1.
         21    1    1    2  504  501 -0.27921897526E+02  0.69668879902E+02 -0.16131684571E+03  0.17792276386E+03  0.00000000000E+00 0. -1.
         21    1    1    2  505  504  0.36445350932E+02  0.30840230182E+01 -0.26472677864E+03  0.26724154267E+03  0.00000000000E+00 0.  1.
          2    1    1    2  501    0 -0.51079508267E+02 -0.96175840736E+02  0.22536398986E+04  0.22562694212E+04  0.00000000000E+00 0.  1.
<scales pt_clust_3="55.36912" pt_clust_4="108.43443" pt_clust_5="36.57560" pt_clust_6="14000.00000"></scales>
<clustering>
<clus scale="   36.576">  2  5  1 -1</clus>
<clus scale="   55.369">  2  3  1 -1</clus>
<clus scale="  108.434">  2  4  1 -1</clus>
<clus scale="   36.576">  2  3  1 -1</clus>
</clustering>
</event>
<event>
 6    0  0.6338511E+002  0.1112203E+03  0.7546771E-02  0.1258327E+00
         21   -1    0    0  504  502  0.00000000000E+00  0.00000000000E+00  0.10474794283E+03  0.10474794283E+03  0.00000000000E+00 0.  1.
         -2   -1    0    0    0  501 -0.00000000000E+00 -0.00000000000E+00 -0.21318122219E+04  0.21318122219E+04  0.00000000000E+00 0.  1.
         21    1    1    2  503  502  0.22813750118E+02  0.11074237371E+03 -0.80734617643E+02  0.13893314585E+03  0.00000000000E+00 0.  1.
         21    1    1    2  504  501 -0.25209201830E+02  0.19684594942E+02  0.58018615819E+02  0.66250637102E+02  0.00000000000E+00 0.  1.
         21    1    1    2  505  503 -0.15762942932E+02 -0.98981474731E+02 -0.17501727629E+03  0.20168502599E+03  0.00000000000E+00 0. -1.
         -2    1    1    2    0  505  0.18158394644E+02 -0.31445493921E+02 -0.18293310010E+04  0.18296913558E+04  0.00000000000E+00 0.  1.
<scales pt_clust_3="14000.00000" pt_clust_4="31.98417" pt_clust_5="111.22029" pt_clust_6="36.18645"></scales>
<clustering>
<clus scale="   31.984">  1  4  2 -1</clus>
<clus scale="   36.186">  2  6  1 -1</clus>
<clus scale="  111.220">  2  5  1 -1</clus>
<clus scale="   31.984">  1  3  2 -1</clus>
</clustering>
</event>
<event>
 6    0  0.6338511E+002  0.1260142E+03  0.7546771E-02  0.1233493E+00
          2   -1    0    0  504    0 -0.00000000000E+00  0.00000000000E+00  0.12918214681E+04  0.12918214681E+04  0.00000000000E+00 0.  1.
         21   -1    0    0  501  502  0.00000000000E+00 -0.00000000000E+00 -0.84359512082E+02  0.84359512082E+02  0.00000000000E+00 0. -1.
         21    1    1    2  503  505  0.69163368614E+02  0.52163519527E+02  0.30343639808E+02  0.91789655214E+02  0.00000000000E+00 0.  1.
         21    1    1    2  504  503 -0.34667102072E+02  0.46743029937E+01  0.80705805256E+02  0.87960696203E+02  0.00000000000E+00 0. -1.
         21    1    1    2  505  502  0.62009793440E+02 -0.60355495449E+01 -0.26881484114E+02  0.67854672123E+02  0.00000000000E+00 0. -1.
          2    1    1    2  501    0 -0.96506059982E+02 -0.50802272976E+02  0.11232939950E+04  0.11285759566E+04  0.00000000000E+00 0.  1.
<scales pt_clust_3="126.01418" pt_clust_4="34.98081" pt_clust_5="61.70974" pt_clust_6="14000.00000"></scales>
<clustering>
<clus scale="   34.981">  1  4  2 -1</clus>
<clus scale="   61.710">  2  5  1 -1</clus>
<clus scale="  126.014">  2  3  1 -1</clus>
<clus scale="   61.710">  2  3  1 -1</clus>
</clustering>
</event>
<event>
 6    0  0.6338511E+002  0.1255279E+03  0.7546771E-02  0.1234247E+00
         21   -1    0    0  505  502  0.00000000000E+00  0.00000000000E+00  0.11060132253E+04  0.11060132253E+04  0.00000000000E+00 0.  1.
          4   -1    0    0  503    0 -0.00000000000E+00 -0.00000000000E+00 -0.43107832655E+02  0.43107832655E+02  0.00000000000E+00 0.  1.
         21    1    1    2  503  504 -0.11128306958E+03 -0.10469966432E+03  0.24338868057E+03  0.28737430489E+03  0.00000000000E+00 0.  1.
         21    1    1    2  504  502  0.10323958332E+03  0.69949608090E+02  0.43089889063E+03  0.44858133397E+03  0.00000000000E+00 0.  1.
         21    1    1    2  505  501 -0.39980926986E+02  0.18464129930E+02  0.34024539545E+03  0.34308355796E+03  0.00000000000E+00 0.  1.
          4    1    1    2  501    0  0.48024413248E+02  0.16285926298E+02  0.48372425987E+02  0.70081861127E+02  0.00000000000E+00 0.  1.
<scales pt_clust_3="125.52792" pt_clust_4="14000.00000" pt_clust_5="44.03860" pt_clust_6="48.29350"></scales>
<clustering>
<clus scale="   44.039">  1  5  2 -1</clus>
<clus scale="   48.293">  2  6  1 -1</clus>
<clus scale="  125.528">  2  3  1 -1</clus>
<clus scale="   44.039">  1  3  2 -1</clus>
</clustering>
</event>
<event>
 6    0  0.6338511E+002  0.9379877E+02  0.7546771E-02  0.1293905E+00
          1   -1    0    0  505    0 -0.00000000000E+00  0.00000000000E+00  0.20980826489E+03  0.20980826489E+03  0.00000000000E+00 0. -1.
         21   -1    0    0  503  502  0.00000000000E+00 -0.00000000000E+00 -0.24622971175E+03  0.24622971175E+03  0.00000000000E+00 0. -1.
         21    1    1    2  503  501  0.56815224514E+02  0.91177697205E+02  0.36776719909E+02  0.11355117495E+03  0.00000000000E+00 0. -1.
         21    1    1    2  504  502 -0.66158844076E+02  0.40242334451E+02 -0.14623602186E+03  0.16547329761E+03  0.00000000000E+00 0. -1.
         21    1    1    2  505  504  0.11263521254E+02 -0.10129258537E+03  0.43790131535E+01  0.10201093333E+03  0.00000000000E+00 0. -1.
          1    1    1    2  501    0 -0.19199016927E+01 -0.30127446285E+02  0.68658841946E+02  0.75002570753E+02  0.00000000000E+00 0. -1.
<scales pt_clust_3="93.79877" pt_clust_4="76.48228" pt_clust_5="14000.00000" pt_clust_6="30.18856"></scales>
<clustering>
<clus scale="   30.189">  1  6  2 -1</clus>
<clus scale="   76.482">  2  4  1 -1</clus>
<clus scale="   93.799">  1  3  2 -1</clus>
<clus scale="   76.482">  2  3  1 -1</clus>
</clustering>
</event>
<event>
 6    0  0.6338511E+002  0.1475905E+03  0.7546771E-02  0.1203465E+00
          2   -1    0    0  504    0 -0.00000000000E+00  0.00000000000E+00  0.12077695557E+04  0.12077695557E+04  0.00000000000E+00 0. -1.
         21   -1    0    0  503  502  0.00000000000E+00 -0.00000000000E+00 -0.27422818978E+03  0.27422818978E+03  0.00000000000E+00 0. -1.
         21    1    1    2  503  501  0.11538695133E+03  0.17507088530E+03  0.96415595993E+02  0.23078113131E+03  0.00000000000E+00 0. -1.
         21    1    1    2  504  505 -0.36212238477E+02 -0.43997578842E+02  0.12206771713E+03  0.13471317947E+03  0.00000000000E+00 0. -1.
         21    1    1    2  505  502 -0.94530101361E+02 -0.10165684164E+03 -0.17637618369E+03  0.22445180259E+03  0.00000000000E+00 0. -1.
          2    1    1    2  501    0  0.15355388510E+02 -0.29416464821E+02  0.89143423649E+03  0.89205163211E+03  0.00000000000E+00 0. -1.
<scales pt_clust_3="147.59053" pt_clust_4="63.47175" pt_clust_5="14000.00000" pt_clust_6="33.18307"></scales>
<clustering>
<clus scale="   33.183">  1  6  2 -1</clus>
<clus scale="   63.472">  1  4  2 -1</clus>
<clus scale="  147.591">  1  3  2 -1</clus>
<clus scale="  147.591">  2  3  1 -1</clus>
</clustering>
</event>
<event>
 6    0  0.6338511E+002  0.1312571E+03  0.7546771E-02  0.1225602E+00
          1   -1    0    0  504    0 -0.00000000000E+00  0.00000000000E+00  0.17049482422E+04  0.17049482422E+04  0.00000000000E+00 0. -1.
         21   -1    0    0  503  502  0.00000000000E+00 -0.00000000000E+00 -0.18920204636E+03  0.18920204636E+03  0.00000000000E+00 0.  1.
         21    1    1    2  503  505  0.46761049123E+02 -0.90743412996E+02  0.22631353511E+03  0.24827158293E+03  0.00000000000E+00 0.  1.
         21    1    1    2  504  502 -0.11086826841E+03  0.79316701691E+02 -0.12230517162E+03  0.18314329666E+03  0.00000000000E+00 0.  1.
         21    1    1    2  505  501  0.10389399034E+03  0.57542184068E+02  0.11750526787E+03  0.16707050055E+03  0.00000000000E+00 0.  1.
          1    1    1    2  501    0 -0.39786771053E+02 -0.46115472762E+02  0.12942325645E+04  0.12956649085E+04  0.00000000000E+00 0. -1.
<scales pt_clust_3="131.25714" pt_clust_4="14000.00000" pt_clust_5="99.20152" pt_clust_6="60.90668"></scales>
<clustering>
<clus scale="   60.907">  1  6  2 -1</clus>
<clus scale="   99.202">  1  5  2 -1</clus>
<clus scale="  131.257">  1  3  2 -1</clus>
<clus scale="  131.257">  2  3  1 -1</clus>
</clustering>
</event>
<event>
 6    0  0.6338511E+002  0.1102511E+03  0.7546771E-02  0.1260106E+00
         21   -1    0    0  504  502  0.00000000000E+00  0.00000000000E+00  0.50256479011E+03  0.50256479011E+03  0.00000000000E+00 0. -1.
         -3   -1    0    0    0  501 -0.00000000000E+00 -0.00000000000E+00 -0.56734864765E+03  0.56734864765E+03  0.00000000000E+00 0. -1.
         21    1    1    2  503  502 -0.96385721467E+02 -0.38655515471E+01 -0.11172028008E+02  0.97108001737E+02  0.00000000000E+00 0. -1.
         21    1    1    2  504  505  0.19531050133E+02 -0.27213622765E+02  0.29829395784E+03  0.30016883327E+03  0.00000000000E+00 0. -1.
         21    1    1    2  505  501  0.10006937463E+03 -0.18371372627E+02  0.14257118925E+03  0.17515116635E+03  0.00000000000E+00 0. -1.
         -3    1    1    2    0  503 -0.23214703297E+02  0.49450546939E+02 -0.49447697661E+03  0.49748543641E+03  0.00000000000E+00 0. -1.
<scales pt_clust_3="14000.00000" pt_clust_4="33.49691" pt_clust_5="110.25114" pt_clust_6="54.38493"></scales>
<clustering>
<clus scale="   33.497">  1  4  2 -1</clus>
<clus scale="   54.385">  2  6  1 -1</clus>
<clus scale="  110.251">  1  5  2 -1</clus>
<clus scale="   33.497">  1  3  2 -1</clus>
</clustering>
</event>
<event>
 6    0  0.6338511E+002  0.7134804E+02  0.7546771E-02  0.1355568E+00
         21   -1    0    0  503  502  0.00000000000E+00  0.00000000000E+00  0.17178562933E+03  0.17178562933E+03  0.00000000000E+00 0. -1.
          2   -1    0    0  502    0 -0.00000000000E+00 -0.00000000000E+00 -0.16628273569E+04  0.16628273569E+04  0.00000000000E+00 0. -1.
         21    1    1    2  503  504  0.15033149480E+02 -0.27594056128E+02  0.14849663646E+03  0.15178497474E+03  0.00000000000E+00 0. -1.
         21    1    1    2  504  505 -0.79325518268E+02  0.47739386828E+01 -0.77429201038E+02  0.11095318613E+03  0.00000000000E+00 0. -1.
         21    1    1    2  505  501  0.85541324021E+02 -0.23499236645E+02 -0.45349999618E+03  0.46209498890E+03  0.00000000000E+00 0. -1.
          2    1    1    2  501    0 -0.21248955233E+02  0.46319354090E+02 -0.11086091669E+04  0.11097798365E+04  0.00000000000E+00 0. -1.
<scales pt_clust_3="31.42336" pt_clust_4="71.34804" pt_clust_5="14000.00000" pt_clust_6="50.11304"></scales>
<clustering>
<clus scale="   31.423">  1  3  2 -1</clus>
<clus scale="   50.113">  2  6  1 -1</clus>
<clus scale="   71.348">  1  4  2 -1</clus>
<clus scale="   31.423">  1  3  2 -1</clus>
</clustering>
</event>
<event>
 6    0  0.6338511E+002  0.1260165E+03  0.7546771E-02  0.1233489E+00
         21   -1    0    0  504  502  0.00000000000E+00  0.00000000000E+00  0.46152471165E+03  0.46152471165E+03  0.00000000000E+00 0. -1.
         -1   -1    0    0    0  501 -0.00000000000E+00 -0.00000000000E+00 -0.73390635608E+03  0.73390635608E+03  0.00000000000E+00 0. -1.
         21    1    1    2  503  505  0.55072895774E+02 -0.17492447068E+03 -0.15548084545E+03  0.24042854987E+03  0.00000000000E+00 0. -1.
         21    1    1    2  504  501 -0.77423263545E+02 -0.67782843407E+01 -0.32333349485E+02  0.84176911119E+02  0.00000000000E+00 0.  1.
         21    1    1    2  505  502 -0.47413939545E+02  0.81456785776E+02  0.37946237779E+03  0.39099230909E+03  0.00000000000E+00 0. -1.
         -1    1    1    2    0  503  0.69764307316E+02  0.10024596924E+03 -0.46402982728E+03  0.47983329765E+03  0.00000000000E+00 0. -1.
<scales pt_clust_3="126.01653" pt_clust_4="77.71941" pt_clust_5="94.53545" pt_clust_6="14000.00000"></scales>
<clustering>
<clus scale="   77.719">  2  4  1 -1</clus>
<clus scale="   94.535">  1  5  2 -1</clus>
<clus scale="  126.017">  1  3  2 -1</clus>
<clus scale="   94.535">  1  3  2 -1</clus>
</clustering>
</event>
<event>
 6    0  0.6338511E+002  0.1333464E+03  0.7546771E-02  0.1222573E+00
          1   -1    0    0  504    0 -0.00000000000E+00  0.00000000000E+00  0.38454717471E+03  0.38454717471E+03  0.00000000000E+00 0.  1.
         21   -1    0    0  503  502  0.00000000000E+00 -0.00000000000E+00 -0.66042841567E+03  0.66042841567E+03  0.00000000000E+00 0. -1.
         21    1    1    2  503  505 -0.42062417022E+02  0.32654927756E+02 -0.25857755990E+03  0.26400368505E+03  0.00000000000E+00 0. -1.
         21    1    1    2  504  502  0.10950967581E+03  0.83157129940E+02 -0.35623236414E+03  0.38184941353E+03  0.00000000000E+00 0. -1.
         21    1    1    2  505  501 -0.10075033075E+03 -0.91685461750E+02  0.13755640728E+03  0.19359395193E+03  0.00000000000E+00 0. -1.
          1    1    1    2  501    0  0.33303071961E+02 -0.24126595945E+02  0.20137227581E+03  0.20552853987E+03  0.00000000000E+00 0.  1.
<scales pt_clust_3="52.63452" pt_clust_4="14000.00000" pt_clust_5="133.34642" pt_clust_6="41.12405"></scales>
<clustering>
<clus scale="   41.124">  1  6  2 -1</clus>
<clus scale="   52.635">  2  3  1 -1</clus>
<clus scale="  133.346">  1  5  2 -1</clus>
<clus scale="   52.635">  2  3  1 -1</clus>
</clustering>
</event>
<event>
 6    0  0.6338511E+002  0.6968956E+02  0.7546771E-02  0.1361152E+00
          2   -1    0    0  504    0 -0.00000000000E+00  0.00000000000E+00  0.11446096928E+04  0.11446096928E+04  0.00000000000E+00 0. -1.
         21   -1    0    0  503  502  0.00000000000E+00 -0.00000000000E+00 -0.14993390421E+03  0.14993390421E+03  0.00000000000E+00 0.  1.
         21    1    1    2  503  501  0.18029389342E+02 -0.30364520554E+02 -0.80663165534E+02  0.88054581155E+02  0.00000000000E+00 0.  1.
         21    1    1    2  504  505  0.27011637029E+02 -0.97426388818E+02  0.53102051850E+02  0.11419876393E+03  0.00000000000E+00 0.  1.
         21    1    1    2  505  502 -0.17503508040E+02  0.65019053596E+02 -0.42346815022E+00  0.67335202157E+02  0.00000000000E+00 0. -1.
          2    1    1    2  501    0 -0.27537518332E+02  0.62771855775E+02  0.10226603704E+04  0.10249550497E+04  0.00000000000E+00 0. -1.
<scales pt_clust_3="35.31378" pt_clust_4="14000.00000" pt_clust_5="50.00623" pt_clust_6="69.68956"></scales>
<clustering>
<clus scale="   35.314">  2  3  1 -1</clus>
<clus scale="   50.006">  2  5  1 -1</clus>
<clus scale="   69.690">  1  6  2 -1</clus>
<clus scale="   35.314">  2  3  1 -1</clus>
</clustering>
</event>
<event>
 6    0  0.6338511E+002  0.9149417E+02  0.7546771E-02  0.1299273E+00
          3   -1    0    0  505    0 -0.00000000000E+00  0.00000000000E+00  0.13317821073E+03  0.13317821073E+03  0.00000000000E+00 0.  1.
         21   -1    0    0  504  502  0.00000000000E+00 -0.00000000000E+00 -0.13463626088E+04  0.13463626088E+04  0.00000000000E+00 0.  1.
         21    1    1    2  503  501 -0.11953536308E+03  0.26651960332E+01 -0.95237759586E+02  0.15285953404E+03  0.00000000000E+00 0. -1.
         21    1    1    2  504  503  0.22492063921E+02  0.34774771397E+02 -0.10031263813E+04  0.10039809333E+04  0.00000000000E+00 0.  1.
         21    1    1    2  505  502  0.56778627348E+02 -0.71758968574E+02 -0.20141292031E+03  0.22122460659E+03  0.00000000000E+00 0.  1.
          3    1    1    2  501    0  0.40264671812E+02  0.34319001144E+02  0.86592663108E+02  0.10147574557E+03  0.00000000000E+00 0.  1.
<scales pt_clust_3="91.49417" pt_clust_4="41.41470" pt_clust_5="14000.00000" pt_clust_6="53.76781"></scales>
<clustering>
<clus scale="   41.415">  2  4  1 -1</clus>
<clus scale="   53.768">  1  6  2 -1</clus>
<clus scale="   91.494">  1  3  2 -1</clus>
<clus scale="   41.415">  2  3  1 -1</clus>
</clustering>
</event>
<event>
 6    0  0.6338511E+002  0.1373506E+03  0.7546771E-02  0.1216939E+00
          2   -1    0    0  505    0 -0.00000000000E+00  0.00000000000E+00  0.28917208970E+03  0.28917208970E+03  0.00000000000E+00 0. -1.
         21   -1    0    0  504  502  0.00000000000E+00 -0.00000000000E+00 -0.66324252719E+03  0.66324252719E+03  0.00000000000E+00 0. -1.
         21    1    1    2  503  501 -0.11130940989E+03  0.91963762768E+02 -0.13615410032E+03  0.19845668904E+03  0.00000000000E+00 0. -1.
         21    1    1    2  504  503 -0.11052451250E+02  0.35077914354E+02 -0.43215707893E+03  0.43371921519E+03  0.00000000000E+00 0. -1.
         21    1    1    2  505  502  0.28611730267E+02 -0.27592486507E+02 -0.35253850629E+02  0.53130127091E+02  0.00000000000E+00 0. -1.
          2    1    1    2  501    0  0.93750130873E+02 -0.99449190615E+02  0.22949459239E+03  0.26710858557E+03  0.00000000000E+00 0. -1.
<scales pt_clust_3="137.35064" pt_clust_4="36.77794" pt_clust_5="33.71904" pt_clust_6="14000.00000"></scales>
<clustering>
<clus scale="   36.778">  2  4  1 -1</clus>
<clus scale="   33.719">  2  5  1 -1</clus>
<clus scale="  137.351">  2  3  1 -1</clus>
<clus scale="   36.778">  2  3  1 -1</clus>
</clustering>
</event>
<event>
 6    0  0.6338511E+002  0.7197885E+02  0.7546771E-02  0.1353490E+00
         21   -1    0    0  503  502  0.00000000000E+00  0.00000000000E+00  0.28206151208E+03  0.28206151208E+03  0.00000000000E+00 0.  1.
          2   -1    0    0  505    0 -0.00000000000E+00 -0.00000000000E+00 -0.56966628822E+03  0.56966628822E+03  0.00000000000E+00 0. -1.
         21    1    1    2  503  501  0.17098727054E+02 -0.72959970435E+02  0.16612252426E+03  0.18224219275E+03  0.00000000000E+00 0.  1.
         21    1    1    2  504  502 -0.11720550133E+02 -0.62502693162E+02  0.87719348200E+01  0.64194273798E+02  0.00000000000E+00 0.  1.
         21    1    1    2  505  504 -0.32390834905E+02  0.68579225457E+02  0.47976688237E+02  0.89744297671E+02  0.00000000000E+00 0.  1.
          2    1    1    2  501    0  0.27012657984E+02  0.66883438140E+02 -0.51047592346E+03  0.51554703609E+03  0.00000000000E+00 0. -1.
<scales pt_clust_3="71.97885" pt_clust_4="63.59212" pt_clust_5="62.28417" pt_clust_6="14000.00000"></scales>
<clustering>
<clus scale="   63.592">  1  4  2 -1</clus>
<clus scale="   62.284">  1  5  2 -1</clus>
<clus scale="   71.979">  1  3  2 -1</clus>
<clus scale="   63.592">  1  3  2 -1</clus>
</clustering>
</event>
<event>
 6    0  0.6338511E+002  0.1293661E+03  0.7546771E-02  0.1228399E+00
         21   -1    0    0  503  502  0.00000000000E+00  0.00000000000E+00  0.26621871904E+02  0.26621871904E+02  0.00000000000E+00 0. -1.
          1   -1    0    0  505    0 -0.00000000000E+00 -0.00000000000E+00 -0.16443386770E+04  0.16443386770E+04  0.00000000000E+00 0.  1.
         21    1    1    2  503  501 -0.45940907142E+02  0.10642919943E+02 -0.38336926580E+03  0.38625876385E+03  0.00000000000E+00 0.  1.
         21    1    1    2  504  502  0.50392052399E+02 -0.24702939966E+02 -0.45933929275E+02  0.72522548539E+02  0.00000000000E+00 0. -1.
         21    1    1    2  505  504  0.65533071504E+02  0.69861859664E+02 -0.22400320107E+03  0.24362408950E+03  0.00000000000E+00 0.  1.
          1    1    1    2  501    0 -0.69984216761E+02 -0.55801839641E+02 -0.96441040892E+03  0.96855514698E+03  0.00000000000E+00 0.  1.
<scales pt_clust_3="43.14198" pt_clust_4="56.12125" pt_clust_5="114.90372" pt_clust_6="43.14198"></scales>
<clustering>
<clus scale="   43.142">  3  6 -1 -1</clus>
<clus scale="   56.121">  1  4  2 -1</clus>
<clus scale="  114.904">  1  5  2 -1</clus>
<clus scale="   56.121">  1  3  2 -1</clus>
</clustering>
</event>
<event>
 6    0  0.6338511E+002  0.9189099E+02  0.7546771E-02  0.1298336E+00
         21   -1    0    0  504  502  0.00000000000E+00  0.00000000000E+00  0.14578488133E+03  0.14578488133E+03  0.00000000000E+00 0.  1.
          2   -1    0    0  502    0 -0.00000000000E+00 -0.00000000000E+00 -0.11671516415E+04  0.11671516415E+04  0.00000000000E+00 0.  1.
         21    1    1    2  503  501 -0.64078842486E+02 -0.62821092332E+01 -0.11879131834E+03  0.13511824549E+03  0.00000000000E+00 0.  1.
         21    1    1    2  504  505 -0.30055820096E+02 -0.86833073001E+02  0.10715887216E+03  0.14116075507E+03  0.00000000000E+00 0.  1.
         21    1    1    2  505  503  0.41824148437E+02  0.82717624384E+02 -0.15745908541E+03  0.18271515633E+03  0.00000000000E+00 0.  1.
          2    1    1    2  501    0  0.52310514145E+02  0.10397557850E+02 -0.85227522860E+03  0.85394236596E+03  0.00000000000E+00 0.  1.
<scales pt_clust_3="42.98212" pt_clust_4="91.89099" pt_clust_5="14000.00000" pt_clust_6="53.33385"></scales>
<clustering>
<clus scale="   53.334">  2  6  1 -1</clus>
<clus scale="   42.982">  2  3  1 -1</clus>
<clus scale="   91.891">  1  4  2 -1</clus>
<clus scale="   91.891">  1  3  2 -1</clus>
</clustering>
</event>
<event>
 6    0  0.6338511E+002  0.1133868E+03  0.7546771E-02  0.1254424E+00
          1   -1    0    0  504    0 -0.00000000000E+00  0.00000000000E+00  0.81500575767E+03  0.81500575767E+03  0.00000000000E+00 0. -1.
         21   -1    0    0  505  502  0.00000000000E+00 -0.00000000000E+00 -0.32687037748E+03  0.32687037748E+03  0.00000000000E+00 0. -1.
         21    1    1    2  503  501 -0.18799088771E+02  0.41023020353E+02  0.20747399614E+03  0.21232464062E+03  0.00000000000E+00 0. -1.
         21    1    1    2  504  502 -0.61189149798E+02 -0.23411641624E+02 -0.22997946683E+03  0.23912919558E+03  0.00000000000E+00 0. -1.
         21    1    1    2  505  503  0.12189867973E+03 -0.63567779446E+02 -0.34503368176E+02  0.14174143049E+03  0.00000000000E+00 0. -1.
          1    1    1    2  501    0 -0.41910441158E+02  0.45956400718E+02  0.54514421905E+03  0.54868086846E+03  0.00000000000E+00 0. -1.
<scales pt_clust_3="32.36904" pt_clust_4="65.51501" pt_clust_5="106.82891" pt_clust_6="32.36904"></scales>
<clustering>
<clus scale="   32.369">  3  6 -1 -1</clus>
<clus scale="   65.515">  2  4  1 -1</clus>
<clus scale="  106.829">  2  5  1 -1</clus>
<clus scale="   65.515">  2  3  1 -1</clus>
</clustering>
</event>
<event>
 6    0  0.6338511E+002  0.1160455E+03  0.7546771E-02  0.1249767E+00
         21   -1    0    0  503  502  0.00000000000E+00  0.00000000000E+00  0.85748783057E+03  0.85748783057E+03  0.00000000000E+00 0. -1.
         -4   -1    0    0    0  501 -0.00000000000E+00 -0.00000000000E+00 -0.12716405901E+04  0.12716405901E+04  0.00000000000E+00 0. -1.
         21    1    1    2  503  501  0.10746695253E+01 -0.34656228078E+02  0.12580996256E+03  0.13050040513E+03  0.00000000000E+00 0. -1.
         21    1    1    2  504  505 -0.10811702747E+03  0.56650021801E+02 -0.17751722104E+03  0.21543184621E+03  0.00000000000E+00 0. -1.
         21    1    1    2  505  502  0.66958751778E+02 -0.60646581057E+02  0.70677565156E+03  0.71252600225E+03  0.00000000000E+00 0. -1.
         -4    1    1    2    0  504  0.40083606164E+02  0.38652787334E+02 -0.10692211526E+04  0.10706701671E+04  0.00000000000E+00 0. -1.
<scales pt_clust_3="34.67289" pt_clust_4="14000.00000" pt_clust_5="116.04545" pt_clust_6="55.66111"></scales>
<clustering>
<clus scale="   34.673">  1  3  2 -1</clus>
<clus scale="   55.661">  2  6  1 -1</clus>
<clus scale="  116.045">  1  5  2 -1</clus>
<clus scale="   34.673">  1  3  2 -1</clus>
</clustering>
</event>
<event>
 6    0  0.6338511E+002  0.9748614E+02  0.7546771E-02  0.1285673E+00
          3   -1    0    0  503    0 -0.00000000000E+00  0.00000000000E+00  0.91137778790E+03  0.91137778790E+03  0.00000000000E+00 0. -1.
         21   -1    0    0  504  502  0.00000000000E+00 -0.00000000000E+00 -0.16173331159E+03  0.16173331159E+03  0.00000000000E+00 0.  1.
         21    1    1    2  503  505  0.25814321092E+02  0.15296903357E+02  0.97130949470E+02  0.10166019757E+03  0.00000000000E+00 0. -1.
         21    1    1    2  504  501 -0.95392500201E+02  0.37753304125E+02 -0.28977548327E+02  0.10660553163E+03  0.00000000000E+00 0. -1.
         21    1    1    2  505  502  0.39294948338E+02 -0.10222818622E+03 -0.57434261346E+02  0.12366644411E+03  0.00000000000E+00 0.  1.
          3    1    1    2  501    0  0.30283230771E+02  0.49177978737E+02  0.73892533652E+03  0.74117892618E+03  0.00000000000E+00 0. -1.
<scales pt_clust_3="30.00624" pt_clust_4="14000.00000" pt_clust_5="97.48614" pt_clust_6="82.94400"></scales>
<clustering>
<clus scale="   30.006">  1  3  2 -1</clus>
<clus scale="   82.944">  1  6  2 -1</clus>
<clus scale="   97.486">  2  5  1 -1</clus>
<clus scale="   97.486">  2  3  1 -1</clus>
</clustering>
</event>
<event>
 6    0  0.6338511E+002  0.1381259E+03  0.7546771E-02  0.1215873E+00
         -2   -1    0    0    0  501 -0.00000000000E+00  0.00000000000E+00  0.40699715859E+03  0.40699715859E+03  0.00000000000E+00 0.  1.
         21   -1    0    0  505  502  0.00000000000E+00 -0.00000000000E+00 -0.18823237115E+04  0.18823237115E+04  0.00000000000E+00 0. -1.
         21    1    1    2  503  502 -0.51940900576E+02 -0.12731545596E+03 -0.16656590883E+04  0.16713250076E+04  0.00000000000E+00 0. -1.
         21    1    1    2  504  501  0.37515325117E+02 -0.13125064952E+02  0.21359729996E+02  0.45121004135E+02  0.00000000000E+00 0.  1.
         21    1    1    2  505  504  0.10463183280E+03  0.11268788521E+03 -0.16516282641E+03  0.22566599021E+03  0.00000000000E+00 0. -1.
         -2    1    1    2    0  503 -0.90206257346E+02  0.27752635699E+02  0.33413563184E+03  0.34720886814E+03  0.00000000000E+00 0.  1.
<scales pt_clust_3="138.12592" pt_clust_4="39.74502" pt_clust_5="14000.00000" pt_clust_6="58.19468"></scales>
<clustering>
<clus scale="   39.745">  1  4  2 -1</clus>
<clus scale="   58.195">  1  6  2 -1</clus>
<clus scale="  138.126">  2  3  1 -1</clus>
<clus scale="  138.126">  2  3  1 -1</clus>
</clustering>
</event>
<event>
 6    0  0.6338511E+002  0.8174235E+02  0.7546771E-02  0.1324178E+00
          2   -1    0    0  505    0 -0.00000000000E+00  0.00000000000E+00  0.13070087146E+04  0.13070087146E+04  0.00000000000E+00 0.  1.
         21   -1    0    0  503  502  0.00000000000E+00 -0.00000000000E+00 -0.18085280479E+02  0.18085280479E+02  0.00000000000E+00 0.  1.
         21    1    1    2  503  501 -0.51549236014E+01  0.39661557638E+02  0.77850072449E+02  0.87522832290E+02  0.00000000000E+00 0.  1.
         21    1    1    2  504  502  0.99815671632E+02 -0.12142030465E+02  0.25265280533E+03  0.27192652913E+03  0.00000000000E+00 0.  1.
         21    1    1    2  505  504 -0.34569268683E+02 -0.38436019558E+02  0.58312482139E+03  0.58541175190E+03  0.00000000000E+00 0.  1.
          2    1    1    2  501    0 -0.60091479348E+02  0.10916492384E+02  0.37529573496E+03  0.38023288176E+03  0.00000000000E+00 0.  1.
<scales pt_clust_3="39.99515" pt_clust_4="14000.00000" pt_clust_5="49.51667" pt_clust_6="81.74235"></scales>
<clustering>
<clus scale="   39.995">  2  3  1 -1</clus>
<clus scale="   49.517">  1  5  2 -1</clus>
<clus scale="   81.742">  1  6  2 -1</clus>
<clus scale="   39.995">  2  3  1 -1</clus>
</clustering>
</event>
<event>
 6    0  0.6338511E+002  0.9110650E+02  0.7546771E-02  0.1300194E+00
          2   -1    0    0  504    0 -0.00000000000E+00  0.00000000000E+00  0.14867287813E+04  0.14867287813E+04  0.00000000000E+00 0.  1.
         21   -1    0    0  503  502  0.00000000000E+00 -0.00000000000E+00 -0.72788506463E+02  0.72788506463E+02  0.00000000000E+00 0. -1.
         21    1    1    2  503  501 -0.53547736813E+02  0.45076320035E+02  0.67081874138E+02  0.96949536273E+02  0.00000000000E+00 0. -1.
         21    1    1    2  504  505  0.15886230790E+01  0.57811065108E+02  0.14280298241E+03  0.15406925312E+03  0.00000000000E+00 0. -1.
         21    1    1    2  505  502 -0.34405289473E+02 -0.86204743998E+02 -0.80871842034E+01  0.93168580432E+02  0.00000000000E+00 0. -1.
          2    1    1    2  501    0  0.86364403206E+02 -0.16682641145E+02  0.12121426025E+04  0.12153299180E+04  0.00000000000E+00 0.  1.
<scales pt_clust_3="72.25490" pt_clust_4="57.83289" pt_clust_5="91.10650" pt_clust_6="14000.00000"></scales>
<clustering>
<clus scale="   57.833">  1  4  2 -1</clus>
<clus scale="   72.255">  2  3  1 -1</clus>
<clus scale="   91.107">  2  5  1 -1</clus>
<clus scale="   72.255">  2  3  1 -1</clus>
</clustering>
</event>
<event>
 6    0  0.6338511E+002  0.1096854E+03  0.7546771E-02  0.1261154E+00
          1   -1    0    0  503    0 -0.00000000000E+00  0.00000000000E+00  0.85761606076E+03  0.85761606076E+03  0.00000000000E+00 0. -1.
         21   -1    0    0  504  502  0.00000000000E+00 -0.00000000000E+00 -0.90132783537E+02  0.90132783537E+02  0.00000000000E+00 0.  1.
         21    1    1    2  503  505 -0.37067320129E+02 -0.66633401227E+02  0.10033168430E+03  0.12601763073E+03  0.00000000000E+00 0.  1.
         21    1    1    2  504  501  0.11127350010E+03  0.33437905287E+02  0.19605667780E+03  0.22789933358E+03  0.00000000000E+00 0.  1.
         21    1    1    2  505  502 -0.94843021429E+02  0.70958973332E+02 -0.23125456779E+01  0.11847245451E+03  0.00000000000E+00 0.  1.
          1    1    1    2  501    0  0.20636841457E+02 -0.37763477393E+02  0.47340746080E+03  0.47535942547E+03  0.00000000000E+00 0. -1.
<scales pt_clust_3="83.72524" pt_clust_4="14000.00000" pt_clust_5="109.68537" pt_clust_6="43.03440"></scales>
<clustering>
<clus scale="   43.034">  1  6  2 -1</clus>
<clus scale="   83.725">  1  3  2 -1</clus>
<clus scale="  109.685">  2  5  1 -1</clus>
<clus scale="  109.685">  2  3  1 -1</clus>
</clustering>
</event>
<event>
 6    0  0.6338511E+002  0.7527897E+02  0.7546771E-02  0.1343009E+00
          4   -1    0    0  503    0 -0.00000000000E+00  0.00000000000E+00  0.10122351123E+03  0.10122351123E+03  0.00000000000E+00 0. -1.
         21   -1    0    0  505  502  0.00000000000E+00 -0.00000000000E+00 -0.31249980170E+04  0.31249980170E+04  0.00000000000E+00 0. -1.
         21    1    1    2  503  502  0.29424525486E+02  0.17509450039E+02 -0.82936151458E+03  0.83006801252E+03  0.00000000000E+00 0. -1.
         21    1    1    2  504  501 -0.94080496612E+02 -0.26172274984E+02 -0.66929797775E+03  0.67638444012E+03  0.00000000000E+00 0. -1.
         21    1    1    2  505  504  0.33583033993E+02 -0.60191122940E+02 -0.16069333819E+04  0.16084109193E+04  0.00000000000E+00 0. -1.
          4    1    1    2  501    0  0.31072937133E+02  0.68853947885E+02  0.81818368437E+02  0.11135815630E+03  0.00000000000E+00 0. -1.
<scales pt_clust_3="34.24009" pt_clust_4="14000.00000" pt_clust_5="72.34537" pt_clust_6="75.27897"></scales>
<clustering>
<clus scale="   34.240">  2  3  1 -1</clus>
<clus scale="   72.345">  2  5  1 -1</clus>
<clus scale="   75.279">  1  6  2 -1</clus>
<clus scale="   34.240">  2  3  1 -1</clus>
</clustering>
</event>
<event>
 6    0  0.6338511E+002  0.1759378E+03  0.7546771E-02  0.1171793E+00
          2   -1    0    0  505    0 -0.00000000000E+00  0.00000000000E+00  0.56066849990E+03  0.56066849990E+03  0.00000000000E+00 0. -1.
         21   -1    0    0  504  502  0.00000000000E+00 -0.00000000000E+00 -0.49815183148E+03  0.49815183148E+03  0.00000000000E+00 0.  1.
         21    1    1    2  503  502 -0.55725612057E+01 -0.35302167418E+02 -0.18451425588E+03  0.18794362741E+03  0.00000000000E+00 0.  1.
         21    1    1    2  504  501  0.56427443091E+02 -0.69820018259E+02 -0.79505449873E+01  0.90122707733E+02  0.00000000000E+00 0.  1.
         21    1    1    2  505  503 -0.97718718950E+02 -0.70088914490E+02 -0.23187924383E+03  0.26120755671E+03  0.00000000000E+00 0.  1.
          2    1    1    2  501    0  0.46863837065E+02  0.17521110017E+03  0.48686071311E+03  0.51954643952E+03  0.00000000000E+00 0. -1.
<scales pt_clust_3="35.73928" pt_clust_4="93.62992" pt_clust_5="14000.00000" pt_clust_6="175.93782"></scales>
<clustering>
<clus scale="   35.739">  2  3  1 -1</clus>
<clus scale="   93.630">  2  4  1 -1</clus>
<clus scale="  175.938">  1  6  2 -1</clus>
<clus scale="   35.739">  2  3  1 -1</clus>
</clustering>
</event>
<event>
 6    0  0.6338511E+002  0.9044395E+02  0.7546771E-02  0.1301780E+00
          2   -1    0    0  503    0 -0.00000000000E+00  0.00000000000E+00  0.31955525230E+03  0.31955525230E+03  0.00000000000E+00 0.  1.
         21   -1    0    0  505  502  0.00000000000E+00 -0.00000000000E+00 -0.10688720638E+03  0.10688720638E+03  0.00000000000E+00 0. -1.
         21    1    1    2  503  502  0.23842640730E+02 -0.87345136099E+02  0.64000106086E+01  0.90766758524E+02  0.00000000000E+00 0. -1.
         21    1    1    2  504  501  0.71697644640E+02  0.77448130256E+02  0.64089185126E+02  0.12347545820E+03  0.00000000000E+00 0. -1.
         21    1    1    2  505  504 -0.11926042201E+02  0.37305971032E+02 -0.62384033094E+01  0.39659596985E+02  0.00000000000E+00 0. -1.
          2    1    1    2  501    0 -0.83614243169E+02 -0.27408965189E+02  0.14841725349E+03  0.17254064497E+03  0.00000000000E+00 0.  1.
<scales pt_clust_3="70.88110" pt_clust_4="90.44395" pt_clust_5="39.16588" pt_clust_6="14000.00000"></scales>
<clustering>
<clus scale="   39.166">  2  5  1 -1</clus>
<clus scale="   70.881">  2  3  1 -1</clus>
<clus scale="   90.444">  2  4  1 -1</clus>
<clus scale="   39.166">  2  3  1 -1</clus>
</clustering>
</event>
<event>
 6    0  0.6338511E+002  0.9773821E+02  0.7546771E-02  0.1285125E+00
          2   -1    0    0  504    0 -0.00000000000E+00  0.00000000000E+00  0.16475254297E+04  0.16475254297E+04  0.00000000000E+00 0. -1.
         21   -1    0    0  503  502  0.00000000000E+00 -0.00000000000E+00 -0.15844170163E+04  0.15844170163E+04  0.00000000000E+00 0. -1.
         21    1    1    2  503  505  0.41466161945E+02 -0.11226351719E+02 -0.77262978154E+03  0.77382314057E+03  0.00000000000E+00 0. -1.
         21    1    1    2  504  502 -0.10721224128E+03  0.18829125244E+02 -0.26219817697E+03  0.28389590459E+03  0.00000000000E+00 0. -1.
         21    1    1    2  505  501  0.62535579039E+02 -0.40251265894E+02 -0.53540859805E+03  0.54054900788E+03  0.00000000000E+00 0.  1.
          2    1    1    2  501    0  0.32105002988E+01  0.32648492369E+02  0.16333449700E+04  0.16336743930E+04  0.00000000000E+00 0. -1.
<scales pt_clust_3="42.74987" pt_clust_4="14000.00000" pt_clust_5="97.73821" pt_clust_6="32.80597"></scales>
<clustering>
<clus scale="   32.806">  1  6  2 -1</clus>
<clus scale="   42.750">  2  3  1 -1</clus>
<clus scale="   97.738">  2  5  1 -1</clus>
<clus scale="   42.750">  2  3  1 -1</clus>
</clustering>
</event>
<event>
 6    0  0.6338511E+002  0.1109496E+03  0.7546771E-02  0.1258821E+00
         21   -1    0    0  505  502  0.00000000000E+00  0.00000000000E+00  0.14602270313E+03  0.14602270313E+03  0.00000000000E+00 0.  1.
         -4   -1    0    0    0  501 -0.00000000000E+00 -0.00000000000E+00 -0.80903533105E+03  0.80903533105E+03  0.00000000000E+00 0.  1.
         21    1    1    2  503  501 -0.18112485308E+02 -0.26464637940E+02 -0.15501530072E+03  0.15829776575E+03  0.00000000000E+00 0.  1.
         21    1    1    2  504  502 -0.73702461202E+02 -0.89237556089E+02  0.10244428615E+03  0.15456463363E+03  0.00000000000E+00 0.  1.
         21    1    1    2  505  503  0.59130771413E+02  0.63060692858E+02 -0.12022308870E+03  0.14807663613E+03  0.00000000000E+00 0. -1.
         -4    1    1    2    0  504  0.32684175098E+02  0.52641501170E+02 -0.49021852464E+03  0.49411899867E+03  0.00000000000E+00 0.  1.
<scales pt_clust_3="32.06929" pt_clust_4="14000.00000" pt_clust_5="110.94957" pt_clust_6="37.80835"></scales>
<clustering>
<clus scale="   32.069">  2  3  1 -1</clus>
<clus scale="   37.808">  2  6  1 -1</clus>
<clus scale="  110.950">  2  5  1 -1</clus>
<clus scale="  110.950">  1  3  2 -1</clus>
</clustering>
</event>
<event>
 6    0  0.6338511E+002  0.9459645E+02  0.7546771E-02  0.1292088E+00
          1   -1    0    0  503    0 -0.00000000000E+00  0.00000000000E+00  0.46318548985E+04  0.46318548985E+04  0.00000000000E+00 0.  1.
         21   -1    0    0  504  502  0.00000000000E+00 -0.00000000000E+00 -0.72659579494E+02  0.72659579494E+02  0.00000000000E+00 0.  1.
         21    1    1    2  503  502 -0.32871082602E+02 -0.71047911563E+02  0.17160993591E+04  0.17178839671E+04  0.00000000000E+00 0.  1.
         21    1    1    2  504  505  0.31834951588E+02  0.32643587475E+02 -0.24939808455E+02  0.51971742242E+02  0.00000000000E+00 0.  1.
         21    1    1    2  505  501  0.63140194594E+02 -0.96030928650E+01 -0.16617249770E+01  0.63887908839E+02  0.00000000000E+00 0.  1.
          1    1    1    2  501    0 -0.62104063580E+02  0.48007416953E+02  0.28696974933E+04  0.28707708599E+04  0.00000000000E+00 0.  1.
<scales pt_clust_3="77.16295" pt_clust_4="45.59680" pt_clust_5="94.59645" pt_clust_6="14000.00000"></scales>
<clustering>
<clus scale="   45.597">  2  4  1 -1</clus>
<clus scale="   77.163">  1  3  2 -1</clus>
<clus scale="   94.596">  2  5  1 -1</clus>
<clus scale="   45.597">  2  3  1 -1</clus>
</clustering>
</event>
<event>
 6    0  0.6338511E+002  0.1063932E+03  0.7546771E-02  0.1267399E+00
         21   -1    0    0  505  502  0.00000000000E+00  0.00000000000E+00  0.62542697027E+03  0.62542697027E+03  0.00000000000E+00 0.  1.
          2   -1    0    0  503    0 -0.00000000000E+00 -0.00000000000E+00 -0.91083067160E+03  0.91083067160E+03  0.00000000000E+00 0.  1.
         21    1    1    2  503  504 -0.15658792260E+03 -0.19693078971E+02 -0.32488309023E+03  0.36118778659E+03  0.00000000000E+00 0. -1.
         21    1    1    2  504  502  0.12785369993E+02  0.80625327217E+02  0.53993815195E+03  0.54607427792E+03  0.00000000000E+00 0.  1.
         21    1    1    2  505  501  0.88105671260E+02 -0.55306621716E+02  0.19664511539E+02  0.10586843121E+03  0.00000000000E+00 0. -1.
          2    1    1    2  501    0  0.55696881344E+02 -0.56256265303E+01 -0.52012327459E+03  0.52312714614E+03  0.00000000000E+00 0.  1.
<scales pt_clust_3="106.39323" pt_clust_4="81.65892" pt_clust_5="14000.00000" pt_clust_6="55.98027"></scales>
<clustering>
<clus scale="   55.980">  2  6  1 -1</clus>
<clus scale="   81.659">  1  4  2 -1</clus>
<clus scale="  106.393">  2  3  1 -1</clus>
<clus scale="   81.659">  1  3  2 -1</clus>
</clustering>
</event>
<event>
 6    0  0.6338511E+002  0.1114690E+03  0.7546771E-02  0.1257873E+00
         -4   -1    0    0    0  501 -0.00000000000E+00  0.00000000000E+00  0.67800046421E+03  0.67800046421E+03  0.00000000000E+00 0.  1.
         21   -1    0    0  503  502  0.00000000000E+00 -0.00000000000E+00 -0.55566631951E+03  0.55566631951E+03  0.00000000000E+00 0.  1.
         21    1    1    2  503  501 -0.30592497509E+02  0.39165028513E+02 -0.31153193082E+03  0.31547098802E+03  0.00000000000E+00 0.  1.
         21    1    1    2  504  505  0.67430271347E+02 -0.46278488853E+02  0.79655356517E+02  0.11416442461E+03  0.00000000000E+00 0.  1.
         21    1    1    2  505  502 -0.81158849543E+02  0.10265410501E+02 -0.21657957367E+03  0.23151425278E+03  0.00000000000E+00 0.  1.
         -4    1    1    2    0  504  0.44321075705E+02 -0.31519501612E+01  0.57079029267E+03  0.57251711830E+03  0.00000000000E+00 0.  1.
<scales pt_clust_3="49.14960" pt_clust_4="14000.00000" pt_clust_5="111.46900" pt_clust_6="44.43301"></scales>
<clustering>
<clus scale="   44.433">  1  6  2 -1</clus>
<clus scale="   49.150">  2  3  1 -1</clus>
<clus scale="  111.469">  2  5  1 -1</clus>
<clus scale="   49.150">  2  3  1 -1</clus>
</clustering>
</event>
<event>
 6    0  0.6338511E+002  0.2035572E+03  0.7546771E-02  0.1146772E+00
         21   -1    0    0  505  502  0.00000000000E+00  0.00000000000E+00  0.74464833299E+03  0.74464833299E+03  0.00000000000E+00 0.  1.
         -3   -1    0    0    0  501 -0.00000000000E+00 -0.00000000000E+00 -0.15308581711E+04  0.15308581711E+04  0.00000000000E+00 0.  1.
         21    1    1    2  503  502  0.21579924953E+02 -0.29922449244E+02  0.55701778349E+02  0.66811183502E+02  0.00000000000E+00 0. -1.
         21    1    1    2  504  501 -0.15241039452E+03  0.59087627916E+02  0.20916379254E+02  0.16479614999E+03  0.00000000000E+00 0. -1.
         21    1    1    2  505  504  0.19664083870E+03 -0.19618613538E+02  0.57321191479E+03  0.60632038453E+03  0.00000000000E+00 0.  1.
         -3    1    1    2    0  503 -0.65810369131E+02 -0.95465651336E+01 -0.14360399105E+04  0.14375787860E+04  0.00000000000E+00 0.  1.
<scales pt_clust_3="36.89236" pt_clust_4="203.55717" pt_clust_5="14000.00000" pt_clust_6="66.47999"></scales>
<clustering>
<clus scale="   36.892">  1  3  2 -1</clus>
<clus scale="   66.480">  2  6  1 -1</clus>
<clus scale="  203.557">  2  4  1 -1</clus>
<clus scale="   36.892">  1  3  2 -1</clus>
</clustering>
</event>
<event>
 6    0  0.6338511E+002  0.1172117E+03  0.7546771E-02  0.1247769E+00
          2   -1    0    0  504    0 -0.00000000000E+00  0.00000000000E+00  0.17029384215E+04  0.17029384215E+04  0.00000000000E+00 0. -1.
         21   -1    0    0  501  502  0.00000000000E+00 -0.00000000000E+00 -0.56975283036E+02  0.56975283036E+02  0.00000000000E+00 0.  1.
         21    1    1    2  503  505 -0.25936696669E+02 -0.14393614663E+03  0.12408163331E+03  0.19179827493E+03  0.00000000000E+00 0.  1.
         21    1    1    2  504  503  0.77960696365E+02 -0.56212887635E+02  0.35584338020E+03  0.36859499474E+03  0.00000000000E+00 0.  1.
         21    1    1    2  505  502  0.17360287501E+01  0.45075761222E+02  0.36241120598E+02  0.57864124185E+02  0.00000000000E+00 0. -1.
          2    1    1    2  501    0 -0.53760028446E+02  0.15507327304E+03  0.11297970044E+04  0.11416563107E+04  0.00000000000E+00 0. -1.
<scales pt_clust_3="14000.00000" pt_clust_4="92.81189" pt_clust_5="45.10918" pt_clust_6="117.21172"></scales>
<clustering>
<clus scale="   45.109">  2  5  1 -1</clus>
<clus scale="   92.812">  1  4  2 -1</clus>
<clus scale="  117.212">  1  6  2 -1</clus>
<clus scale="   45.109">  2  3  1 -1</clus>
</clustering>
</event>
<event>
 6    0  0.6338511E+002  0.8134928E+02  0.7546771E-02  0.1325265E+00
         21   -1    0    0  503  502  0.00000000000E+00  0.00000000000E+00  0.66929451808E+03  0.66929451808E+03  0.00000000000E+00 0.  1.
          2   -1    0    0  504    0 -0.00000000000E+00 -0.00000000000E+00 -0.27655008450E+03  0.27655008450E+03  0.00000000000E+00 0. -1.
         21    1    1    2  503  505 -0.16386326715E+01 -0.38002335172E+02  0.47521816216E+03  0.47673804573E+03  0.00000000000E+00 0.  1.
         21    1    1    2  504  502  0.42534511716E+02  0.49587159177E+02 -0.61222406432E+02  0.89533536128E+02  0.00000000000E+00 0. -1.
         21    1    1    2  505  501  0.30308979825E+02  0.50828766222E+02  0.16245610623E+03  0.17289934698E+03  0.00000000000E+00 0.  1.
          2    1    1    2  501    0 -0.71204858870E+02 -0.62413590228E+02 -0.18370742839E+03  0.20667367374E+03  0.00000000000E+00 0. -1.
<scales pt_clust_3="38.03765" pt_clust_4="81.34928" pt_clust_5="33.96630" pt_clust_6="14000.00000"></scales>
<clustering>
<clus scale="   38.038">  1  3  2 -1</clus>
<clus scale="   33.966">  1  5  2 -1</clus>
<clus scale="   81.349">  1  4  2 -1</clus>
<clus scale="   38.038">  1  3  2 -1</clus>
</clustering>
</event>
<event>
 6    0  0.6338511E+002  0.1259184E+03  0.7546771E-02  0.1233641E+00
          2   -1    0    0  505    0 -0.00000000000E+00  0.00000000000E+00  0.83042733095E+03  0.83042733095E+03  0.00000000000E+00 0.  1.
         21   -1    0    0  503  502  0.00000000000E+00 -0.00000000000E+00 -0.49777461094E+03  0.49777461094E+03  0.00000000000E+00 0.  1.
         21    1    1    2  503  501 -0.15226396532E+03 -0.39848986907E+02  0.47400870893E+03  0.49945621734E+03  0.00000000000E+00 0. -1.
         21    1    1    2  504  502  0.40457523841E+02 -0.13790529419E+02 -0.37681601244E+03  0.37923251070E+03  0.00000000000E+00 0.  1.
         21    1    1    2  505  504  0.79929616251E+02  0.55222942851E+02 -0.84019787340E+02  0.12844314554E+03  0.00000000000E+00 0. -1.
          2    1    1    2  501    0  0.31876825228E+02 -0.15834265257E+01  0.31947981085E+03  0.32107006832E+03  0.00000000000E+00 0.  1.
<scales pt_clust_3="14000.00000" pt_clust_4="42.81598" pt_clust_5="125.91845" pt_clust_6="31.91613"></scales>
<clustering>
<clus scale="   31.916">  1  6  2 -1</clus>
<clus scale="   42.816">  2  4  1 -1</clus>
<clus scale="  125.918">  2  5  1 -1</clus>
<clus scale="   42.816">  2  3  1 -1</clus>
</clustering>
</event>
<event>
 6    0  0.6338511E+002  0.8738384E+02  0.7546771E-02  0.1309314E+00
          1   -1    0    0  505    0 -0.00000000000E+00  0.00000000000E+00  0.70539471403E+03  0.70539471403E+03  0.00000000000E+00 0.  1.
         21   -1    0    0  503  502  0.00000000000E+00 -0.00000000000E+00 -0.38393896443E+02  0.38393896443E+02  0.00000000000E+00 0. -1.
         21    1    1    2  503  501 -0.41188766531E+02 -0.38234638820E+02  0.10751389624E+03  0.12131628076E+03  0.00000000000E+00 0.  1.
         21    1    1    2  504  502  0.37499719206E+02  0.19026632490E+02  0.14108922219E+02  0.44354293711E+02  0.00000000000E+00 0. -1.
         21    1    1    2  505  504  0.70636854753E+02 -0.41359634738E+02  0.13459130006E+03  0.15752778386E+03  0.00000000000E+00 0.  1.
          1    1    1    2  501    0 -0.66947807428E+02  0.60567641068E+02  0.41078669906E+03  0.42059025213E+03  0.00000000000E+00 0.  1.
<scales pt_clust_3="44.34341" pt_clust_4="42.05047" pt_clust_5="14000.00000" pt_clust_6="87.38384"></scales>
<clustering>
<clus scale="   42.050">  2  4  1 -1</clus>
<clus scale="   44.343">  2  3  1 -1</clus>
<clus scale="   87.384">  1  6  2 -1</clus>
<clus scale="   42.050">  2  3  1 -1</clus>
</clustering>
</event>
<event>
 6    0  0.6338511E+002  0.7828213E+02  0.7546771E-02  0.1333998E+00
          2   -1    0    0  504    0 -0.00000000000E+00  0.00000000000E+00  0.28475734217E+04  0.28475734217E+04  0.00000000000E+00 0. -1.
         21   -1    0    0  503  502  0.00000000000E+00 -0.00000000000E+00 -0.11648161142E+03  0.11648161142E+03  0.00000000000E+00 0.  1.
         21    1    1    2  503  501  0.15049024061E+03  0.20756103982E+02  0.20394951290E+03  0.25430991365E+03  0.00000000000E+00 0.  1.
         21    1    1    2  504  505 -0.44668983258E+02 -0.37871261109E+02  0.93919081544E+01  0.59310693994E+02  0.00000000000E+00 0.  1.
         21    1    1    2  505  502 -0.30372670476E+02  0.28599037959E+01 -0.62233273723E+02  0.69308430366E+02  0.00000000000E+00 0.  1.
          2    1    1    2  501    0 -0.75448586877E+02  0.14255253331E+02  0.25799836629E+04  0.25811259951E+04  0.00000000000E+00 0. -1.
<scales pt_clust_3="78.28213" pt_clust_4="69.88505" pt_clust_5="30.50702" pt_clust_6="14000.00000"></scales>
<clustering>
<clus scale="   30.507">  2  5  1 -1</clus>
<clus scale="   69.885">  2  4  1 -1</clus>
<clus scale="   78.282">  2  3  1 -1</clus>
<clus scale="   30.507">  2  3  1 -1</clus>
</clustering>
</event>
<event>
 6    0  0.6338511E+002  0.1379578E+03  0.7546771E-02  0.1216104E+00
          1   -1    0    0  505    0 -0.00000000000E+00  0.00000000000E+00  0.12292716284E+04  0.12292716284E+04  0.00000000000E+00 0. -1.
         21   -1    0    0  503  502  0.00000000000E+00 -0.00000000000E+00 -0.50379897787E+02  0.50379897787E+02  0.00000000000E+00 0. -1.
         21    1    1    2  503  501  0.55178643964E+02 -0.10765432638E+03  0.41050015852E+03  0.42795387238E+03  0.00000000000E+00 0. -1.
         21    1    1    2  504  502 -0.61172243157E+02  0.98114753605E+01  0.58089625866E+02  0.84927692862E+02  0.00000000000E+00 0. -1.
         21    1    1    2  505  504 -0.35188169277E+02  0.12734623608E+03  0.13376484932E+03  0.18801145182E+03  0.00000000000E+00 0. -1.
          1    1    1    2  501    0  0.41181768470E+02 -0.29503385056E+02  0.57653709693E+03  0.57875850915E+03  0.00000000000E+00 0. -1.
<scales pt_clust_3="137.95781" pt_clust_4="57.03311" pt_clust_5="14000.00000" pt_clust_6="50.65953"></scales>
<clustering>
<clus scale="   50.660">  1  6  2 -1</clus>
<clus scale="   57.033">  2  4  1 -1</clus>
<clus scale="  137.958">  1  3  2 -1</clus>
<clus scale="   57.033">  2  3  1 -1</clus>
</clustering>
</event>
<event>
 6    0  0.6338511E+002  0.1172376E+03  0.7546771E-02  0.1247725E+00
          2   -1    0    0  505    0 -0.00000000000E+00  0.00000000000E+00  0.18732501109E+04  0.18732501109E+04  0.00000000000E+00 0. -1.
         21   -1    0    0  504  502  0.00000000000E+00 -0.00000000000E+00 -0.66434195427E+02  0.66434195427E+02  0.00000000000E+00 0.  1.
         21    1    1    2  503  501  0.25800424470E+02 -0.37589358607E+02 -0.43721957486E+01  0.45801068536E+02  0.00000000000E+00 0.  1.
         21    1    1    2  504  503  0.76558500365E+01 -0.73641851835E+02  0.49559176137E+02  0.89094591984E+02  0.00000000000E+00 0.  1.
         21    1    1    2  505  502  0.73254654136E+02  0.93384351491E+02  0.15850000567E+03  0.19801296234E+03  0.00000000000E+00 0.  1.
          2    1    1    2  501    0 -0.10671092864E+03  0.17846858951E+02  0.16031289294E+04  0.16067756834E+04  0.00000000000E+00 0. -1.
<scales pt_clust_3="40.49693" pt_clust_4="40.49693" pt_clust_5="105.26814" pt_clust_6="108.19303"></scales>
<clustering>
<clus scale="   40.497">  3  4 -1 -1</clus>
<clus scale="  108.193">  1  6  2 -1</clus>
<clus scale="  105.268">  1  5  2 -1</clus>
<clus scale="  117.238">  2  3  1 -1</clus>
</clustering>
</event>
<event>
 6    0  0.6338511E+002  0.7855638E+02  0.7546771E-02  0.1333199E+00
         21   -1    0    0  503  502  0.00000000000E+00  0.00000000000E+00  0.59094368479E+02  0.59094368479E+02  0.00000000000E+00 0. -1.
          2   -1    0    0  505    0 -0.00000000000E+00 -0.00000000000E+00 -0.10317815946E+04  0.10317815946E+04  0.00000000000E+00 0. -1.
         21    1    1    2  503  501 -0.18206907661E+02  0.10574629735E+03 -0.11900254279E+03  0.16023537711E+03  0.00000000000E+00 0. -1.
         21    1    1    2  504  502  0.53110187271E+02 -0.51658283655E+02 -0.12084675609E+02  0.75068699514E+02  0.00000000000E+00 0. -1.
         21    1    1    2  505  504 -0.32095146259E+02 -0.21284980372E+02 -0.49162626128E+02  0.62450881584E+02  0.00000000000E+00 0. -1.
          2    1    1    2  501    0 -0.28081333501E+01 -0.32803033320E+02 -0.79243738155E+03  0.79312100482E+03  0.00000000000E+00 0. -1.
<scales pt_clust_3="78.55638" pt_clust_4="14000.00000" pt_clust_5="43.70811" pt_clust_6="32.92301"></scales>
<clustering>
<clus scale="   32.923">  2  6  1 -1</clus>
<clus scale="   43.708">  2  5  1 -1</clus>
<clus scale="   78.556">  2  3  1 -1</clus>
<clus scale="   78.556">  1  3  2 -1</clus>
</clustering>
</event>
<event>
 6    0  0.6338511E+002  0.8110700E+02  0.7546771E-02  0.1325939E+00
         21   -1    0    0  504  502  0.00000000000E+00  0.00000000000E+00  0.66190702896E+02  0.66190702896E+02  0.00000000000E+00 0. -1.
          1   -1    0    0  503    0 -0.00000000000E+00 -0.00000000000E+00 -0.47049483034E+03  0.47049483034E+03  0.00000000000E+00 0.  1.
         21    1    1    2  503  505  0.53422257063E+02 -0.36822364591E+01 -0.97218519683E+02  0.11099070675E+03  0.00000000000E+00 0. -1.
         21    1    1    2  504  501 -0.94909296140E+02 -0.13229633305E+02 -0.12867806412E+03  0.16043952716E+03  0.00000000000E+00 0. -1.
         21    1    1    2  505  502  0.75279010176E+02  0.18631711186E+02  0.59878477830E+01  0.77781259670E+02  0.00000000000E+00 0. -1.
          1    1    1    2  501    0 -0.33791971099E+02 -0.17198414222E+01 -0.18439539143E+03  0.18747403966E+03  0.00000000000E+00 0.  1.
<scales pt_clust_3="41.28541" pt_clust_4="81.10700" pt_clust_5="14000.00000" pt_clust_6="33.83571"></scales>
<clustering>
<clus scale="   33.836">  2  6  1 -1</clus>
<clus scale="   41.285">  2  3  1 -1</clus>
<clus scale="   81.107">  2  4  1 -1</clus>
<clus scale="   81.107">  1  3  2 -1</clus>
</clustering>
</event>
<event>
 6    0  0.6338511E+002  0.1047916E+03  0.7546771E-02  0.1270531E+00
         -2   -1    0    0    0  501 -0.00000000000E+00  0.00000000000E+00  0.32549990609E+03  0.32549990609E+03  0.00000000000E+00 0.  1.
         21   -1    0    0  505  502  0.00000000000E+00 -0.00000000000E+00 -0.23140432034E+04  0.23140432034E+04  0.00000000000E+00 0.  1.
         21    1    1    2  503  502  0.48110838019E+02 -0.94512904531E+02 -0.21254202616E+04  0.21280645268E+04  0.00000000000E+00 0.  1.
         21    1    1    2  504  503  0.69012316405E+02  0.99527105596E+02 -0.28019382912E+02  0.12431182720E+03  0.00000000000E+00 0.  1.
         21    1    1    2  505  501 -0.85192622167E+02 -0.53241829955E+02 -0.84424368321E+02  0.13122480442E+03  0.00000000000E+00 0. -1.
         -2    1    1    2    0  504 -0.31930532257E+02  0.48227628891E+02  0.24932071556E+03  0.25594195101E+03  0.00000000000E+00 0.  1.
<scales pt_clust_3="14000.00000" pt_clust_4="104.79163" pt_clust_5="102.64224" pt_clust_6="57.83998"></scales>
<clustering>
<clus scale="   57.840">  1  6  2 -1</clus>
<clus scale="  102.642">  1  5  2 -1</clus>
<clus scale="  104.792">  1  4  2 -1</clus>
<clus scale="  104.792">  2  3  1 -1</clus>
</clustering>
</event>
<event>
 6    0  0.6338511E+002  0.9158702E+02  0.7546771E-02  0.1299053E+00
          2   -1    0    0  504    0 -0.00000000000E+00  0.00000000000E+00  0.24537798054E+04  0.24537798054E+04  0.00000000000E+00 0.  1.
         21   -1    0    0  505  502  0.00000000000E+00 -0.00000000000E+00 -0.27324396390E+02  0.27324396390E+02  0.00000000000E+00 0. -1.
         21    1    1    2  503  502  0.79202215023E+02 -0.20570680576E+02  0.22047529798E+03  0.23517121589E+03  0.00000000000E+00 0. -1.
         21    1    1    2  504  503 -0.39919232884E+02 -0.38884499393E+02  0.66451462431E+03  0.66684723541E+03  0.00000000000E+00 0.  1.
         21    1    1    2  505  501  0.25248039603E+02  0.38160676981E+02  0.10932368013E+02  0.47044845008E+02  0.00000000000E+00 0. -1.
          2    1    1    2  501    0 -0.64531021742E+02  0.21294502988E+02  0.15305331187E+04  0.15320409054E+04  0.00000000000E+00 0.  1.
<scales pt_clust_3="91.58702" pt_clust_4="50.11570" pt_clust_5="45.75698" pt_clust_6="14000.00000"></scales>
<clustering>
<clus scale="   45.757">  2  5  1 -1</clus>
<clus scale="   50.116">  1  4  2 -1</clus>
<clus scale="   91.587">  2  3  1 -1</clus>
<clus scale="   45.757">  2  3  1 -1</clus>
</clustering>
</event>
<event>
 6    0  0.6338511E+002  0.1537548E+03  0.7546771E-02  0.1195934E+00
          2   -1    0    0  504    0 -0.00000000000E+00  0.00000000000E+00  0.27735914989E+04  0.27735914989E+04  0.00000000000E+00 0.  1.
         21   -1    0    0  505  502  0.00000000000E+00 -0.00000000000E+00 -0.13583573325E+03  0.13583573325E+03  0.00000000000E+00 0. -1.
         21    1    1    2  503  501  0.89141483836E+02 -0.56307880782E+02  0.79117677605E+02  0.13181953000E+03  0.00000000000E+00 0. -1.
         21    1    1    2  504  502  0.46779069773E+02 -0.13076416123E+02 -0.17581670048E+02  0.51656453122E+02  0.00000000000E+00 0.  1.
         21    1    1    2  505  503 -0.15147012028E+03  0.16551699654E+03  0.96361250541E+02  0.24418141634E+03  0.00000000000E+00 0. -1.
          2    1    1    2  501    0  0.15549566671E+02 -0.96132699637E+02  0.24798585076E+04  0.24817698327E+04  0.00000000000E+00 0.  1.
<scales pt_clust_3="153.75482" pt_clust_4="48.57236" pt_clust_5="14000.00000" pt_clust_6="97.57545"></scales>
<clustering>
<clus scale="   48.572">  2  4  1 -1</clus>
<clus scale="   97.575">  1  6  2 -1</clus>
<clus scale="  153.755">  1  3  2 -1</clus>
<clus scale="   48.572">  2  3  1 -1</clus>
</clustering>
</event>
<event>
 6    0  0.6338511E+002  0.1376685E+03  0.7546771E-02  0.1216501E+00
         21   -1    0    0  503  502  0.00000000000E+00  0.00000000000E+00  0.68091335726E+03  0.68091335726E+03  0.00000000000E+00 0.  1.
          1   -1    0    0  505    0 -0.00000000000E+00 -0.00000000000E+00 -0.12588052062E+04  0.12588052062E+04  0.00000000000E+00 0.  1.
         21    1    1    2  503  504 -0.45002650656E+02 -0.21184874912E+02  0.58247353027E+03  0.58459340653E+03  0.00000000000E+00 0.  1.
         21    1    1    2  504  501 -0.84231993548E+02 -0.45657407216E+02  0.41569758137E+02  0.10443980258E+03  0.00000000000E+00 0.  1.
         21    1    1    2  505  502 -0.84812630633E+01  0.40313305106E+02 -0.60894317518E+00  0.41200305867E+02  0.00000000000E+00 0.  1.
          1    1    1    2  501    0  0.13771590727E+03  0.26528977021E+02 -0.12013261942E+04  0.12094850485E+04  0.00000000000E+00 0.  1.
<scales pt_clust_3="54.44001" pt_clust_4="14000.00000" pt_clust_5="41.19581" pt_clust_6="137.66847"></scales>
<clustering>
<clus scale="   41.196">  1  5  2 -1</clus>
<clus scale="   54.440">  1  3  2 -1</clus>
<clus scale="  137.668">  2  6  1 -1</clus>
<clus scale="   41.196">  1  3  2 -1</clus>
</clustering>
</event>
<event>
 6    0  0.6338511E+002  0.1233344E+03  0.7546771E-02  0.1237696E+00
         21   -1    0    0  501  502  0.00000000000E+00  0.00000000000E+00  0.25764569737E+03  0.25764569737E+03  0.00000000000E+00 0. -1.
          2   -1    0    0  505    0 -0.00000000000E+00 -0.00000000000E+00 -0.76754841265E+03  0.76754841265E+03  0.00000000000E+00 0. -1.
         21    1    1    2  503  504  0.86268928412E+02  0.29752967372E+02  0.59406454396E+02  0.10888844705E+03  0.00000000000E+00 0. -1.
         21    1    1    2  504  502  0.42833185453E+02 -0.11458371234E+01  0.15931225920E+03  0.16497390900E+03  0.00000000000E+00 0. -1.
         21    1    1    2  505  503 -0.45269197298E+02 -0.38790109944E+02 -0.95338130731E+02  0.11244257212E+03  0.00000000000E+00 0. -1.
          2    1    1    2  501    0 -0.83832916567E+02  0.10182979696E+02 -0.63328329815E+03  0.63888918185E+03  0.00000000000E+00 0. -1.
<scales pt_clust_3="123.33439" pt_clust_4="42.84851" pt_clust_5="56.82762" pt_clust_6="14000.00000"></scales>
<clustering>
<clus scale="   42.849">  1  4  2 -1</clus>
<clus scale="   56.828">  2  5  1 -1</clus>
<clus scale="  123.334">  1  3  2 -1</clus>
<clus scale="   42.849">  1  3  2 -1</clus>
</clustering>
</event>
<event>
 6    0  0.6338511E+002  0.1170662E+03  0.7546771E-02  0.1248017E+00
         21   -1    0    0  505  502  0.00000000000E+00  0.00000000000E+00  0.12546686582E+03  0.12546686582E+03  0.00000000000E+00 0. -1.
         -3   -1    0    0    0  501 -0.00000000000E+00 -0.00000000000E+00 -0.18064641312E+04  0.18064641312E+04  0.00000000000E+00 0.  1.
         21    1    1    2  503  502 -0.30038174789E+02 -0.32290066235E+02  0.84397178077E+02  0.95225122681E+02  0.00000000000E+00 0. -1.
         21    1    1    2  504  503  0.98849113751E+02  0.60032298694E+02 -0.22426077262E+03  0.25232502514E+03  0.00000000000E+00 0.  1.
         21    1    1    2  505  501 -0.12037163623E+03 -0.18718666473E+02 -0.15444834216E+03  0.19670792988E+03  0.00000000000E+00 0. -1.
         -3    1    1    2    0  504  0.51560697265E+02 -0.90235659865E+01 -0.13866853286E+04  0.13876729193E+04  0.00000000000E+00 0.  1.
<scales pt_clust_3="44.10148" pt_clust_4="117.06616" pt_clust_5="14000.00000" pt_clust_6="52.01418"></scales>
<clustering>
<clus scale="   44.101">  1  3  2 -1</clus>
<clus scale="   52.014">  2  6  1 -1</clus>
<clus scale="  117.066">  1  4  2 -1</clus>
<clus scale="   44.101">  1  3  2 -1</clus>
</clustering>
</event>
<event>
 6    0  0.6338511E+002  0.1451321E+03  0.7546771E-02  0.1206585E+00
         -3   -1    0    0    0  501 -0.00000000000E+00  0.00000000000E+00  0.14175548938E+04  0.14175548938E+04  0.00000000000E+00 0.  1.
         21   -1    0    0  504  502  0.00000000000E+00 -0.00000000000E+00 -0.23929351936E+03  0.23929351936E+03  0.00000000000E+00 0.  1.
         21    1    1    2  503  502 -0.27299041069E+02  0.16568075484E+02  0.87309630388E+00  0.31945282370E+02  0.00000000000E+00 0.  1.
         21    1    1    2  504  505 -0.62642559295E+01  0.83598666963E+02 -0.14485238699E+03  0.16736245707E+03  0.00000000000E+00 0.  1.
         21    1    1    2  505  501 -0.11036893040E+03 -0.63399886140E+02  0.30366340981E+00  0.12728290762E+03  0.00000000000E+00 0.  1.
         -3    1    1    2    0  503  0.14393222740E+03 -0.36766856307E+02  0.13219370017E+04  0.13302577661E+04  0.00000000000E+00 0.  1.
<scales pt_clust_3="31.93335" pt_clust_4="98.46602" pt_clust_5="14000.00000" pt_clust_6="145.13214"></scales>
<clustering>
<clus scale="   31.933">  2  3  1 -1</clus>
<clus scale="   98.466">  2  4  1 -1</clus>
<clus scale="  145.132">  1  6  2 -1</clus>
<clus scale="   31.933">  2  3  1 -1</clus>
</clustering>
</event>
<event>
 6    0  0.6338511E+002  0.8610686E+02  0.7546771E-02  0.1312563E+00
         21   -1    0    0  501  502  0.00000000000E+00  0.00000000000E+00  0.12505182227E+04  0.12505182227E+04  0.00000000000E+00 0.  1.
          1   -1    0    0  504    0 -0.00000000000E+00 -0.00000000000E+00 -0.78562944604E+02  0.78562944604E+02  0.00000000000E+00 0.  1.
         21    1    1    2  503  502  0.61159395919E+02  0.62489652187E+01  0.10750205734E+04  0.10767770217E+04  0.00000000000E+00 0.  1.
         21    1    1    2  504  505  0.62108141455E+01  0.77837020344E+02  0.60293340807E+02  0.98653245735E+02  0.00000000000E+00 0. -1.
         21    1    1    2  505  503 -0.35863502583E+02 -0.90080614837E+02  0.59958396339E+02  0.11399875999E+03  0.00000000000E+00 0. -1.
          1    1    1    2  501    0 -0.31506707482E+02  0.59946292745E+01 -0.23317032424E+02  0.39652139886E+02  0.00000000000E+00 0.  1.
<scales pt_clust_3="60.90472" pt_clust_4="14000.00000" pt_clust_5="86.10686" pt_clust_6="32.07192"></scales>
<clustering>
<clus scale="   32.072">  2  6  1 -1</clus>
<clus scale="   60.905">  1  3  2 -1</clus>
<clus scale="   86.107">  1  5  2 -1</clus>
<clus scale="   60.905">  1  3  2 -1</clus>
</clustering>
</event>
<event>
 6    0  0.6338511E+002  0.1799614E+03  0.7546771E-02  0.1167840E+00
          2   -1    0    0  505    0 -0.00000000000E+00  0.00000000000E+00  0.75231258095E+03  0.75231258095E+03  0.00000000000E+00 0.  1.
         21   -1    0    0  504  502  0.00000000000E+00 -0.00000000000E+00 -0.15926621614E+03  0.15926621614E+03  0.00000000000E+00 0.  1.
         21    1    1    2  503  501 -0.25917691138E+02  0.34066314499E+02  0.33369120432E+02  0.54274659795E+02  0.00000000000E+00 0.  1.
         21    1    1    2  504  503  0.36504847183E+02  0.57866144124E+01 -0.19011323380E+02  0.41563435744E+02  0.00000000000E+00 0. -1.
         21    1    1    2  505  502  0.51141984562E+02 -0.20490609671E+03  0.39297025919E+00  0.21119224768E+03  0.00000000000E+00 0.  1.
          2    1    1    2  501    0 -0.61729140608E+02  0.16505316780E+03  0.57829559749E+03  0.60454845387E+03  0.00000000000E+00 0.  1.
<scales pt_clust_3="41.47062" pt_clust_4="36.96064" pt_clust_5="14000.00000" pt_clust_6="179.96136"></scales>
<clustering>
<clus scale="   36.961">  2  4  1 -1</clus>
<clus scale="   41.471">  2  3  1 -1</clus>
<clus scale="  179.961">  1  6  2 -1</clus>
<clus scale="   36.961">  2  3  1 -1</clus>
</clustering>
</event>
<event>
 6    0  0.6338511E+002  0.9053835E+02  0.7546771E-02  0.1301553E+00
         21   -1    0    0  503  502  0.00000000000E+00  0.00000000000E+00  0.69998801876E+03  0.69998801876E+03  0.00000000000E+00 0. -1.
          2   -1    0    0  504    0 -0.00000000000E+00 -0.00000000000E+00 -0.16001374806E+04  0.16001374806E+04  0.00000000000E+00 0.  1.
         21    1    1    2  503  501 -0.32738986336E+02 -0.53100193812E+02 -0.12416899273E+02  0.63605433704E+02  0.00000000000E+00 0. -1.
         21    1    1    2  504  505  0.11263313313E+03  0.33838748981E+02  0.33304894554E+03  0.35320374253E+03  0.00000000000E+00 0. -1.
         21    1    1    2  505  502 -0.12187024662E+02  0.79274779502E+02  0.32507038479E+03  0.33481900977E+03  0.00000000000E+00 0. -1.
          2    1    1    2  501    0 -0.67707122129E+02 -0.60013334671E+02 -0.15458518929E+04  0.15484973133E+04  0.00000000000E+00 0.  1.
<scales pt_clust_3="62.38166" pt_clust_4="90.53835" pt_clust_5="60.29862" pt_clust_6="14000.00000"></scales>
<clustering>
<clus scale="   62.382">  1  3  2 -1</clus>
<clus scale="   60.299">  1  5  2 -1</clus>
<clus scale="   90.538">  1  4  2 -1</clus>
<clus scale="   62.382">  1  3  2 -1</clus>
</clustering>
</event>
<event>
 6    0  0.6338511E+002  0.1482580E+03  0.7546771E-02  0.1202630E+00
          1   -1    0    0  505    0 -0.00000000000E+00  0.00000000000E+00  0.16055057343E+04  0.16055057343E+04  0.00000000000E+00 0.  1.
         21   -1    0    0  504  502  0.00000000000E+00 -0.00000000000E+00 -0.31529064850E+03  0.31529064850E+03  0.00000000000E+00 0.  1.
         21    1    1    2  503  502 -0.44890723981E+02  0.58803560701E+02  0.55243639034E+02  0.92330360686E+02  0.00000000000E+00 0.  1.
         21    1    1    2  504  501  0.45378838627E+02 -0.12734981521E+03 -0.25536243632E+03  0.28894149635E+03  0.00000000000E+00 0.  1.
         21    1    1    2  505  503 -0.75247983140E+02  0.12533103714E+03  0.21066952053E+03  0.25642108868E+03  0.00000000000E+00 0. -1.
          1    1    1    2  501    0  0.74759868494E+02 -0.56784782632E+02  0.12796643626E+04  0.12831034371E+04  0.00000000000E+00 0.  1.
<scales pt_clust_3="36.12626" pt_clust_4="139.28932" pt_clust_5="36.12626" pt_clust_6="93.88051"></scales>
<clustering>
<clus scale="   36.126">  3  5 -1 -1</clus>
<clus scale="   93.881">  1  6  2 -1</clus>
<clus scale="  139.289">  2  4  1 -1</clus>
<clus scale="  139.289">  2  3  1 -1</clus>
</clustering>
</event>
<event>
 6    0  0.6338511E+002  0.8996301E+02  0.7546771E-02  0.1302941E+00
          2   -1    0    0  503    0 -0.00000000000E+00  0.00000000000E+00  0.23650948679E+04  0.23650948679E+04  0.00000000000E+00 0. -1.
         21   -1    0    0  504  502  0.00000000000E+00 -0.00000000000E+00 -0.12087236572E+04  0.12087236572E+04  0.00000000000E+00 0.  1.
         21    1    1    2  503  502  0.35660725928E+02  0.64737502668E+02 -0.11409439853E+03  0.13594176474E+03  0.00000000000E+00 0.  1.
         21    1    1    2  504  505  0.36789347024E+02 -0.11958053147E+03 -0.10660428230E+04  0.10733593341E+04  0.00000000000E+00 0.  1.
         21    1    1    2  505  501 -0.44302497480E+02  0.72511203962E+02  0.11617225034E+03  0.14393254577E+03  0.00000000000E+00 0.  1.
          2    1    1    2  501    0 -0.28147575473E+02 -0.17668175158E+02  0.22203361820E+04  0.22205848805E+04  0.00000000000E+00 0. -1.
<scales pt_clust_3="71.72544" pt_clust_4="89.96301" pt_clust_5="14000.00000" pt_clust_6="33.23327"></scales>
<clustering>
<clus scale="   33.233">  1  6  2 -1</clus>
<clus scale="   71.725">  2  3  1 -1</clus>
<clus scale="   89.963">  2  4  1 -1</clus>
<clus scale="   71.725">  2  3  1 -1</clus>
</clustering>
</event>
<event>
 6    0  0.6338511E+002  0.8665067E+02  0.7546771E-02  0.1311171E+00
         21   -1    0    0  503  502  0.00000000000E+00  0.00000000000E+00  0.33583691998E+03  0.33583691998E+03  0.00000000000E+00 0.  1.
         -1   -1    0    0    0  501 -0.00000000000E+00 -0.00000000000E+00 -0.10632598209E+04  0.10632598209E+04  0.00000000000E+00 0. -1.
         21    1    1    2  503  501 -0.47161320362E+02  0.57105881780E+02  0.22158441193E+03  0.23363416591E+03  0.00000000000E+00 0.  1.
         21    1    1    2  504  502  0.39842918114E+02 -0.12517592932E+03  0.33278792603E+02  0.13551365039E+03  0.00000000000E+00 0.  1.
         21    1    1    2  505  504  0.18964607391E+02  0.96207718739E+02 -0.78393037832E+02  0.12554301995E+03  0.00000000000E+00 0. -1.
         -1    1    1    2    0  505 -0.11646205144E+02 -0.28137671202E+02 -0.90389306762E+03  0.90440590463E+03  0.00000000000E+00 0. -1.
<scales pt_clust_3="73.52897" pt_clust_4="14000.00000" pt_clust_5="86.65067" pt_clust_6="30.45263"></scales>
<clustering>
<clus scale="   30.453">  2  6  1 -1</clus>
<clus scale="   73.529">  1  3  2 -1</clus>
<clus scale="   86.651">  2  5  1 -1</clus>
<clus scale="   73.529">  1  3  2 -1</clus>
</clustering>
</event>
<event>
 6    0  0.6338511E+002  0.1400891E+03  0.7546771E-02  0.1213209E+00
         21   -1    0    0  504  502  0.00000000000E+00  0.00000000000E+00  0.88441258821E+02  0.88441258821E+02  0.00000000000E+00 0. -1.
          3   -1    0    0  503    0 -0.00000000000E+00 -0.00000000000E+00 -0.13903052773E+04  0.13903052773E+04  0.00000000000E+00 0. -1.
         21    1    1    2  503  502  0.15185420473E+02  0.28226435205E+02 -0.66401790424E+02  0.73732804170E+02  0.00000000000E+00 0.  1.
         21    1    1    2  504  505 -0.29300282013E+02 -0.38825828528E+02  0.42021444673E+02  0.64278715757E+02  0.00000000000E+00 0. -1.
         21    1    1    2  505  501  0.10167076450E+03 -0.87757575089E+02 -0.13409605298E+03  0.18978958813E+03  0.00000000000E+00 0. -1.
          3    1    1    2  501    0 -0.87555902956E+02  0.98356968412E+02 -0.11433876198E+04  0.11509454281E+04  0.00000000000E+00 0. -1.
<scales pt_clust_3="32.05197" pt_clust_4="48.37404" pt_clust_5="14000.00000" pt_clust_6="140.08906"></scales>
<clustering>
<clus scale="   32.052">  2  3  1 -1</clus>
<clus scale="   48.374">  1  4  2 -1</clus>
<clus scale="  140.089">  2  6  1 -1</clus>
<clus scale="   48.374">  1  3  2 -1</clus>
</clustering>
</event>
