<event>
 4    0  0.2185218E-002  0.1972530E+03  0.7546771E-02  0.1152078E+00
         21   -1    0    0  502  501  0.00000000000E+00  0.00000000000E+00  0.16670878303E+04  0.16670878303E+04  0.00000000000E+00 0.  1.
         21   -1    0    0  501  502 -0.00000000000E+00 -0.00000000000E+00 -0.23339354020E+02  0.23339354020E+02  0.00000000000E+00 0.  1.
         25    1    1    2    0    0  0.94787500537E+02  0.11704107271E+03  0.71687442954E+03  0.74311320180E+03  0.12500000000E+03 0.  0.
         25    1    1    2    0    0 -0.94787500537E+02 -0.11704107271E+03  0.92687404671E+03  0.94731398249E+03  0.12500000000E+03 0.  0.
</event>
<event>
 4    0  0.2185218E-002  0.1862421E+03  0.7546771E-02  0.1161895E+00
         21   -1    0    0  502  501  0.00000000000E+00  0.00000000000E+00  0.73332858482E+03  0.73332858482E+03  0.00000000000E+00 0. -1.
         21   -1    0    0  501  502 -0.00000000000E+00 -0.00000000000E+00 -0.47299541638E+02  0.47299541638E+02  0.00000000000E+00 0. -1.
         25    1    1    2    0    0  0.28091858730E+02  0.28632227330E+02  0.61987494708E+03  0.63362363197E+03  0.12500000000E+03 0.  0.
         25    1    1    2    0    0 -0.28091858730E+02 -0.28632227330E+02  0.66154096095E+02  0.14700449449E+03  0.12500000000E+03 0.  0.
</event>
<event>
 4    0  0.2185218E-002  0.3606371E+03  0.7546771E-02  0.1058332E+00
         21   -1    0    0  502  501  0.00000000000E+00  0.00000000000E+00  0.38357370131E+03  0.38357370131E+03  0.00000000000E+00 0.  1.
         21   -1    0    0  501  502 -0.00000000000E+00 -0.00000000000E+00 -0.33907209873E+03  0.33907209873E+03  0.00000000000E+00 0.  1.
         25    1    1    2    0    0  0.37221915108E+02  0.94249962448E+02 -0.30110989886E+03  0.34140986743E+03  0.12500000000E+03 0.  0.
         25    1    1    2    0    0 -0.37221915108E+02 -0.94249962448E+02  0.34561150144E+03  0.38123593261E+03  0.12500000000E+03 0.  0.
</event>
<event>
 4    0  0.2185218E-002  0.3010226E+03  0.7546771E-02  0.1084731E+00
         21   -1    0    0  502  501  0.00000000000E+00  0.00000000000E+00  0.16104490863E+03  0.16104490863E+03  0.00000000000E+00 0. -1.
         21   -1    0    0  501  502 -0.00000000000E+00 -0.00000000000E+00 -0.56266682922E+03  0.56266682922E+03  0.00000000000E+00 0. -1.
         25    1    1    2    0    0  0.11032461963E+03  0.24957025454E+03 -0.17306394254E+03  0.34645773459E+03  0.12500000000E+03 0.  0.
         25    1    1    2    0    0 -0.11032461963E+03 -0.24957025454E+03 -0.22855797805E+03  0.37725400326E+03  0.12500000000E+03 0.  0.
</event>
<event>
 4    0  0.2185218E-002  0.2797522E+03  0.7546771E-02  0.1095824E+00
         21   -1    0    0  502  501  0.00000000000E+00  0.00000000000E+00  0.82546824488E+03  0.82546824488E+03  0.00000000000E+00 0. -1.
         21   -1    0    0  501  502 -0.00000000000E+00 -0.00000000000E+00 -0.94808339424E+02  0.94808339424E+02  0.00000000000E+00 0. -1.
         25    1    1    2    0    0  0.11759152139E+03 -0.10345644439E+03  0.44254242126E+02  0.20521802975E+03  0.12500000000E+03 0.  0.
         25    1    1    2    0    0 -0.11759152139E+03  0.10345644439E+03  0.68640566333E+03  0.71505855455E+03  0.12500000000E+03 0.  0.
</event>
<event>
 4    0  0.2185218E-002  0.1513496E+03  0.7546771E-02  0.1198824E+00
         21   -1    0    0  502  501  0.00000000000E+00  0.00000000000E+00  0.12562168197E+03  0.12562168197E+03  0.00000000000E+00 0. -1.
         21   -1    0    0  501  502 -0.00000000000E+00 -0.00000000000E+00 -0.18234662006E+03  0.18234662006E+03  0.00000000000E+00 0. -1.
         25    1    1    2    0    0  0.76064907176E+02 -0.37670629719E+02 -0.19449686609E+02  0.15234249819E+03  0.12500000000E+03 0.  0.
         25    1    1    2    0    0 -0.76064907176E+02  0.37670629719E+02 -0.37275251481E+02  0.15562580384E+03  0.12500000000E+03 0.  0.
</event>
<event>
 4    0  0.2185218E-002  0.2541212E+03  0.7546771E-02  0.1110728E+00
         21   -1    0    0  502  501  0.00000000000E+00  0.00000000000E+00  0.20955105926E+03  0.20955105926E+03  0.00000000000E+00 0. -1.
         21   -1    0    0  501  502 -0.00000000000E+00 -0.00000000000E+00 -0.30817119567E+03  0.30817119567E+03  0.00000000000E+00 0. -1.
         25    1    1    2    0    0  0.14741588468E+03 -0.60438593044E+02  0.10707321532E+03  0.22907191016E+03  0.12500000000E+03 0.  0.
         25    1    1    2    0    0 -0.14741588468E+03  0.60438593044E+02 -0.20569335173E+03  0.28865034477E+03  0.12500000000E+03 0.  0.
</event>
<event>
 4    0  0.2185218E-002  0.1783095E+03  0.7546771E-02  0.1169449E+00
         21   -1    0    0  502  501  0.00000000000E+00  0.00000000000E+00  0.31830971053E+03  0.31830971053E+03  0.00000000000E+00 0. -1.
         21   -1    0    0  501  502 -0.00000000000E+00 -0.00000000000E+00 -0.99884726455E+02  0.99884726455E+02  0.00000000000E+00 0. -1.
         25    1    1    2    0    0  0.10068667931E+03  0.73567678199E+02  0.80030631117E+02  0.19385539091E+03  0.12500000000E+03 0.  0.
         25    1    1    2    0    0 -0.10068667931E+03 -0.73567678199E+02  0.13839435296E+03  0.22433904608E+03  0.12500000000E+03 0.  0.
</event>
<event>
 4    0  0.2185218E-002  0.1940147E+03  0.7546771E-02  0.1154889E+00
         21   -1    0    0  502  501  0.00000000000E+00  0.00000000000E+00  0.48111655734E+03  0.48111655734E+03  0.00000000000E+00 0.  1.
         21   -1    0    0  501  502 -0.00000000000E+00 -0.00000000000E+00 -0.78238236194E+02  0.78238236194E+02  0.00000000000E+00 0.  1.
         25    1    1    2    0    0 -0.38027430345E+02 -0.84083107226E+02  0.36893350014E+03  0.40031610248E+03  0.12500000000E+03 0.  0.
         25    1    1    2    0    0  0.38027430345E+02  0.84083107226E+02  0.33944821008E+02  0.15903869106E+03  0.12500000000E+03 0.  0.
</event>
<event>
 4    0  0.2185218E-002  0.4211543E+03  0.7546771E-02  0.1036691E+00
         21   -1    0    0  502  501  0.00000000000E+00  0.00000000000E+00  0.57053324471E+03  0.57053324471E+03  0.00000000000E+00 0.  1.
         21   -1    0    0  501  502 -0.00000000000E+00 -0.00000000000E+00 -0.31088618428E+03  0.31088618428E+03  0.00000000000E+00 0.  1.
         25    1    1    2    0    0  0.76239598254E+01  0.37796915390E+03 -0.13759501541E+02  0.39841326527E+03  0.12500000000E+03 0.  0.
         25    1    1    2    0    0 -0.76239598254E+01 -0.37796915390E+03  0.27340656197E+03  0.48300616372E+03  0.12500000000E+03 0.  0.
</event>
<event>
 4    0  0.2185218E-002  0.2485860E+03  0.7546771E-02  0.1114202E+00
         21   -1    0    0  502  501  0.00000000000E+00  0.00000000000E+00  0.77463895361E+03  0.77463895361E+03  0.00000000000E+00 0.  1.
         21   -1    0    0  501  502 -0.00000000000E+00 -0.00000000000E+00 -0.79772671662E+02  0.79772671662E+02  0.00000000000E+00 0.  1.
         25    1    1    2    0    0 -0.14988614316E+03  0.26875256806E+02  0.86905847108E+02  0.21532710373E+03  0.12500000000E+03 0.  0.
         25    1    1    2    0    0  0.14988614316E+03 -0.26875256806E+02  0.60796043484E+03  0.63908452154E+03  0.12500000000E+03 0.  0.
</event>
<event>
 4    0  0.2185218E-002  0.1839833E+03  0.7546771E-02  0.1164003E+00
         21   -1    0    0  502  501  0.00000000000E+00  0.00000000000E+00  0.76773017182E+03  0.76773017182E+03  0.00000000000E+00 0.  1.
         21   -1    0    0  501  502 -0.00000000000E+00 -0.00000000000E+00 -0.44090834555E+02  0.44090834555E+02  0.00000000000E+00 0.  1.
         25    1    1    2    0    0  0.28787929011E+01  0.71036276935E+02  0.61501267278E+03  0.63160116194E+03  0.12500000000E+03 0.  0.
         25    1    1    2    0    0 -0.28787929011E+01 -0.71036276935E+02  0.10862666449E+03  0.18021984443E+03  0.12500000000E+03 0.  0.
</event>
<event>
 4    0  0.2185218E-002  0.2685664E+03  0.7546771E-02  0.1102103E+00
         21   -1    0    0  502  501  0.00000000000E+00  0.00000000000E+00  0.13316595797E+03  0.13316595797E+03  0.00000000000E+00 0. -1.
         21   -1    0    0  501  502 -0.00000000000E+00 -0.00000000000E+00 -0.54163931711E+03  0.54163931711E+03  0.00000000000E+00 0. -1.
         25    1    1    2    0    0  0.11178851563E+03 -0.15089932597E+03 -0.21161508805E+02  0.22658351277E+03  0.12500000000E+03 0.  0.
         25    1    1    2    0    0 -0.11178851563E+03  0.15089932597E+03 -0.38731185033E+03  0.44822176231E+03  0.12500000000E+03 0.  0.
</event>
<event>
 4    0  0.2185218E-002  0.2548279E+03  0.7546771E-02  0.1110291E+00
         21   -1    0    0  502  501  0.00000000000E+00  0.00000000000E+00  0.40009865112E+03  0.40009865112E+03  0.00000000000E+00 0.  1.
         21   -1    0    0  501  502 -0.00000000000E+00 -0.00000000000E+00 -0.16230306230E+03  0.16230306230E+03  0.00000000000E+00 0.  1.
         25    1    1    2    0    0 -0.36590349392E+02  0.13443181900E+03 -0.71918737771E+02  0.20051950646E+03  0.12500000000E+03 0.  0.
         25    1    1    2    0    0  0.36590349392E+02 -0.13443181900E+03  0.30971432659E+03  0.36188220697E+03  0.12500000000E+03 0.  0.
</event>
<event>
 4    0  0.2185218E-002  0.2104562E+03  0.7546771E-02  0.1141205E+00
         21   -1    0    0  502  501  0.00000000000E+00  0.00000000000E+00  0.53640629098E+02  0.53640629098E+02  0.00000000000E+00 0. -1.
         21   -1    0    0  501  502 -0.00000000000E+00 -0.00000000000E+00 -0.82571389298E+03  0.82571389298E+03  0.00000000000E+00 0. -1.
         25    1    1    2    0    0 -0.15584947964E+03 -0.64764369213E+02 -0.35774958001E+03  0.41484122965E+03  0.12500000000E+03 0.  0.
         25    1    1    2    0    0  0.15584947964E+03  0.64764369213E+02 -0.41432368387E+03  0.46451329243E+03  0.12500000000E+03 0.  0.
</event>
<event>
 4    0  0.2185218E-002  0.3606399E+03  0.7546771E-02  0.1058331E+00
         21   -1    0    0  502  501  0.00000000000E+00  0.00000000000E+00  0.11410475749E+03  0.11410475749E+03  0.00000000000E+00 0.  1.
         21   -1    0    0  501  502 -0.00000000000E+00 -0.00000000000E+00 -0.11398397114E+04  0.11398397114E+04  0.00000000000E+00 0.  1.
         25    1    1    2    0    0  0.31521909412E+03 -0.45455533991E+01 -0.72616083734E+03  0.80144762838E+03  0.12500000000E+03 0.  0.
         25    1    1    2    0    0 -0.31521909412E+03  0.45455533991E+01 -0.29957411657E+03  0.45249684051E+03  0.12500000000E+03 0.  0.
</event>
<event>
 4    0  0.2185218E-002  0.2299740E+03  0.7546771E-02  0.1126658E+00
         21   -1    0    0  502  501  0.00000000000E+00  0.00000000000E+00  0.12701101225E+03  0.12701101225E+03  0.00000000000E+00 0.  1.
         21   -1    0    0  501  502 -0.00000000000E+00 -0.00000000000E+00 -0.41640499357E+03  0.41640499357E+03  0.00000000000E+00 0.  1.
         25    1    1    2    0    0 -0.31201703390E+02  0.15442468676E+03 -0.12908519511E+02  0.20152458920E+03  0.12500000000E+03 0.  0.
         25    1    1    2    0    0  0.31201703390E+02 -0.15442468676E+03 -0.27648546181E+03  0.34189141663E+03  0.12500000000E+03 0.  0.
</event>
<event>
 4    0  0.2185218E-002  0.2845506E+03  0.7546771E-02  0.1093229E+00
         21   -1    0    0  502  501  0.00000000000E+00  0.00000000000E+00  0.39279025794E+03  0.39279025794E+03  0.00000000000E+00 0.  1.
         21   -1    0    0  501  502 -0.00000000000E+00 -0.00000000000E+00 -0.20613814887E+03  0.20613814887E+03  0.00000000000E+00 0.  1.
         25    1    1    2    0    0  0.10519721549E+03  0.37355328501E+02  0.33533981480E+03  0.37488620420E+03  0.12500000000E+03 0.  0.
         25    1    1    2    0    0 -0.10519721549E+03 -0.37355328501E+02 -0.14868770573E+03  0.22404220260E+03  0.12500000000E+03 0.  0.
</event>
<event>
 4    0  0.2185218E-002  0.2060539E+03  0.7546771E-02  0.1144730E+00
         21   -1    0    0  502  501  0.00000000000E+00  0.00000000000E+00  0.76885812306E+03  0.76885812306E+03  0.00000000000E+00 0. -1.
         21   -1    0    0  501  502 -0.00000000000E+00 -0.00000000000E+00 -0.55222432295E+02  0.55222432295E+02  0.00000000000E+00 0. -1.
         25    1    1    2    0    0 -0.38967328005E+02 -0.15762175764E+03  0.31345932156E+03  0.37449274680E+03  0.12500000000E+03 0.  0.
         25    1    1    2    0    0  0.38967328005E+02  0.15762175764E+03  0.40017636921E+03  0.44958780856E+03  0.12500000000E+03 0.  0.
</event>
<event>
 4    0  0.2185218E-002  0.1781488E+03  0.7546771E-02  0.1169607E+00
         21   -1    0    0  502  501  0.00000000000E+00  0.00000000000E+00  0.35005362042E+03  0.35005362042E+03  0.00000000000E+00 0. -1.
         21   -1    0    0  501  502 -0.00000000000E+00 -0.00000000000E+00 -0.90663201716E+02  0.90663201716E+02  0.00000000000E+00 0. -1.
         25    1    1    2    0    0  0.16953569927E+02  0.30220834627E+02  0.28073938570E+03  0.30925770008E+03  0.12500000000E+03 0.  0.
         25    1    1    2    0    0 -0.16953569927E+02 -0.30220834627E+02 -0.21348966995E+02  0.13145912205E+03  0.12500000000E+03 0.  0.
</event>
<event>
 4    0  0.2185218E-002  0.1671657E+03  0.7546771E-02  0.1180836E+00
         21   -1    0    0  502  501  0.00000000000E+00  0.00000000000E+00  0.10625861955E+03  0.10625861955E+03  0.00000000000E+00 0. -1.
         21   -1    0    0  501  502 -0.00000000000E+00 -0.00000000000E+00 -0.26298446760E+03  0.26298446760E+03  0.00000000000E+00 0. -1.
         25    1    1    2    0    0 -0.22302911404E+02 -0.42907708263E+02 -0.18869951362E+03  0.23145409421E+03  0.12500000000E+03 0.  0.
         25    1    1    2    0    0  0.22302911404E+02  0.42907708263E+02  0.31973665570E+02  0.13778899294E+03  0.12500000000E+03 0.  0.
</event>
<event>
 4    0  0.2185218E-002  0.2428692E+03  0.7546771E-02  0.1117896E+00
         21   -1    0    0  502  501  0.00000000000E+00  0.00000000000E+00  0.58745421726E+03  0.58745421726E+03  0.00000000000E+00 0. -1.
         21   -1    0    0  501  502 -0.00000000000E+00 -0.00000000000E+00 -0.10040856115E+03  0.10040856115E+03  0.00000000000E+00 0. -1.
         25    1    1    2    0    0  0.29164403607E+02 -0.97864044129E+02 -0.13464538230E+02  0.16196983472E+03  0.12500000000E+03 0.  0.
         25    1    1    2    0    0 -0.29164403607E+02  0.97864044129E+02  0.50051019435E+03  0.52589294368E+03  0.12500000000E+03 0.  0.
</event>
<event>
 4    0  0.2185218E-002  0.2285775E+03  0.7546771E-02  0.1127645E+00
         21   -1    0    0  502  501  0.00000000000E+00  0.00000000000E+00  0.24882385854E+03  0.24882385854E+03  0.00000000000E+00 0.  1.
         21   -1    0    0  501  502 -0.00000000000E+00 -0.00000000000E+00 -0.20997846765E+03  0.20997846765E+03  0.00000000000E+00 0.  1.
         25    1    1    2    0    0  0.13446460193E+03 -0.13388561987E+03  0.44342885969E+02  0.23151107947E+03  0.12500000000E+03 0.  0.
         25    1    1    2    0    0 -0.13446460193E+03  0.13388561987E+03 -0.54974950818E+01  0.22729124672E+03  0.12500000000E+03 0.  0.
</event>
<event>
 4    0  0.2185218E-002  0.2316168E+03  0.7546771E-02  0.1125507E+00
         21   -1    0    0  502  501  0.00000000000E+00  0.00000000000E+00  0.49666089287E+02  0.49666089287E+02  0.00000000000E+00 0.  1.
         21   -1    0    0  501  502 -0.00000000000E+00 -0.00000000000E+00 -0.10801400376E+04  0.10801400376E+04  0.00000000000E+00 0.  1.
         25    1    1    2    0    0 -0.18763442321E+03 -0.42559659816E+02 -0.43798210825E+03  0.49444041963E+03  0.12500000000E+03 0.  0.
         25    1    1    2    0    0  0.18763442321E+03  0.42559659816E+02 -0.59249184004E+03  0.63536570724E+03  0.12500000000E+03 0.  0.
</event>
<event>
 4    0  0.2185218E-002  0.2151965E+03  0.7546771E-02  0.1137516E+00
         21   -1    0    0  502  501  0.00000000000E+00  0.00000000000E+00  0.24992619488E+03  0.24992619488E+03  0.00000000000E+00 0. -1.
         21   -1    0    0  501  502 -0.00000000000E+00 -0.00000000000E+00 -0.18529281049E+03  0.18529281049E+03  0.00000000000E+00 0. -1.
         25    1    1    2    0    0 -0.95186972269E+00  0.17196536961E+03 -0.13968044125E+01  0.21260278800E+03  0.12500000000E+03 0.  0.
         25    1    1    2    0    0  0.95186972269E+00 -0.17196536961E+03  0.66030188806E+02  0.22261621737E+03  0.12500000000E+03 0.  0.
</event>
<event>
 4    0  0.2185218E-002  0.2047439E+03  0.7546771E-02  0.1145797E+00
         21   -1    0    0  502  501  0.00000000000E+00  0.00000000000E+00  0.28671521940E+03  0.28671521940E+03  0.00000000000E+00 0. -1.
         21   -1    0    0  501  502 -0.00000000000E+00 -0.00000000000E+00 -0.14620803237E+03  0.14620803237E+03  0.00000000000E+00 0. -1.
         25    1    1    2    0    0 -0.13028751954E+03  0.95725382806E+02  0.57011529627E+02  0.21216385454E+03  0.12500000000E+03 0.  0.
         25    1    1    2    0    0  0.13028751954E+03 -0.95725382806E+02  0.83495657405E+02  0.22075939724E+03  0.12500000000E+03 0.  0.
</event>
<event>
 4    0  0.2185218E-002  0.1782858E+03  0.7546771E-02  0.1169472E+00
         21   -1    0    0  502  501  0.00000000000E+00  0.00000000000E+00  0.10010872555E+04  0.10010872555E+04  0.00000000000E+00 0. -1.
         21   -1    0    0  501  502 -0.00000000000E+00 -0.00000000000E+00 -0.31751290674E+02  0.31751290674E+02  0.00000000000E+00 0. -1.
         25    1    1    2    0    0  0.52402603426E+02 -0.11427925870E+03  0.53924611743E+03  0.56764175056E+03  0.12500000000E+03 0.  0.
         25    1    1    2    0    0 -0.52402603426E+02  0.11427925870E+03  0.43008984740E+03  0.46519679561E+03  0.12500000000E+03 0.  0.
</event>
<event>
 4    0  0.2185218E-002  0.2624316E+03  0.7546771E-02  0.1105691E+00
         21   -1    0    0  502  501  0.00000000000E+00  0.00000000000E+00  0.14661169177E+03  0.14661169177E+03  0.00000000000E+00 0.  1.
         21   -1    0    0  501  502 -0.00000000000E+00 -0.00000000000E+00 -0.46974677284E+03  0.46974677284E+03  0.00000000000E+00 0.  1.
         25    1    1    2    0    0  0.88599126191E+02 -0.13324001505E+03  0.33676190316E+02  0.20581980606E+03  0.12500000000E+03 0.  0.
         25    1    1    2    0    0 -0.88599126191E+02  0.13324001505E+03 -0.35681127139E+03  0.41053865855E+03  0.12500000000E+03 0.  0.
</event>
<event>
 4    0  0.2185218E-002  0.2018349E+03  0.7546771E-02  0.1148200E+00
         21   -1    0    0  502  501  0.00000000000E+00  0.00000000000E+00  0.43722168380E+02  0.43722168380E+02  0.00000000000E+00 0. -1.
         21   -1    0    0  501  502 -0.00000000000E+00 -0.00000000000E+00 -0.93173196703E+03  0.93173196703E+03  0.00000000000E+00 0. -1.
         25    1    1    2    0    0  0.13471366929E+03 -0.72185383157E+02 -0.34280607572E+03  0.39560018679E+03  0.12500000000E+03 0.  0.
         25    1    1    2    0    0 -0.13471366929E+03  0.72185383157E+02 -0.54520372293E+03  0.57985394862E+03  0.12500000000E+03 0.  0.
</event>
<event>
 4    0  0.2185218E-002  0.1933834E+03  0.7546771E-02  0.1155445E+00
         21   -1    0    0  502  501  0.00000000000E+00  0.00000000000E+00  0.17624460759E+03  0.17624460759E+03  0.00000000000E+00 0. -1.
         21   -1    0    0  501  502 -0.00000000000E+00 -0.00000000000E+00 -0.21218885752E+03  0.21218885752E+03  0.00000000000E+00 0. -1.
         25    1    1    2    0    0  0.56012363518E+02 -0.54545338709E+02 -0.14364954522E+03  0.20584647358E+03  0.12500000000E+03 0.  0.
         25    1    1    2    0    0 -0.56012363518E+02  0.54545338709E+02  0.10770529529E+03  0.18258699153E+03  0.12500000000E+03 0.  0.
</event>
<event>
 4    0  0.2185218E-002  0.2835184E+03  0.7546771E-02  0.1093783E+00
         21   -1    0    0  502  501  0.00000000000E+00  0.00000000000E+00  0.23435225549E+04  0.23435225549E+04  0.00000000000E+00 0. -1.
         21   -1    0    0  501  502 -0.00000000000E+00 -0.00000000000E+00 -0.34299928309E+02  0.34299928309E+02  0.00000000000E+00 0. -1.
         25    1    1    2    0    0 -0.17744275273E+03 -0.10200133058E+03  0.52048297360E+03  0.57307741863E+03  0.12500000000E+03 0.  0.
         25    1    1    2    0    0  0.17744275273E+03  0.10200133058E+03  0.17887396530E+04  0.18047450646E+04  0.12500000000E+03 0.  0.
</event>
<event>
 4    0  0.2185218E-002  0.3355993E+03  0.7546771E-02  0.1068686E+00
         21   -1    0    0  502  501  0.00000000000E+00  0.00000000000E+00  0.10896824025E+03  0.10896824025E+03  0.00000000000E+00 0.  1.
         21   -1    0    0  501  502 -0.00000000000E+00 -0.00000000000E+00 -0.10335753765E+04  0.10335753765E+04  0.00000000000E+00 0.  1.
         25    1    1    2    0    0  0.22709327558E+03  0.15505238077E+03 -0.21334907710E+03  0.36980457717E+03  0.12500000000E+03 0.  0.
         25    1    1    2    0    0 -0.22709327558E+03 -0.15505238077E+03 -0.71125805916E+03  0.77273903959E+03  0.12500000000E+03 0.  0.
</event>
<event>
 4    0  0.2185218E-002  0.3573455E+03  0.7546771E-02  0.1059640E+00
         21   -1    0    0  502  501  0.00000000000E+00  0.00000000000E+00  0.67229093575E+02  0.67229093575E+02  0.00000000000E+00 0. -1.
         21   -1    0    0  501  502 -0.00000000000E+00 -0.00000000000E+00 -0.18994133049E+04  0.18994133049E+04  0.00000000000E+00 0. -1.
         25    1    1    2    0    0  0.99109071553E+01 -0.12282028635E+03 -0.59564130205E+02  0.18535353902E+03  0.12500000000E+03 0.  0.
         25    1    1    2    0    0 -0.99109071553E+01  0.12282028635E+03 -0.17726200811E+04  0.17812888594E+04  0.12500000000E+03 0.  0.
</event>
<event>
 4    0  0.2185218E-002  0.2343506E+03  0.7546771E-02  0.1123615E+00
         21   -1    0    0  502  501  0.00000000000E+00  0.00000000000E+00  0.16750546904E+03  0.16750546904E+03  0.00000000000E+00 0. -1.
         21   -1    0    0  501  502 -0.00000000000E+00 -0.00000000000E+00 -0.32787103510E+03  0.32787103510E+03  0.00000000000E+00 0. -1.
         25    1    1    2    0    0  0.12350585268E+03  0.14397468190E+03 -0.14101534866E+03  0.26738125071E+03  0.12500000000E+03 0.  0.
         25    1    1    2    0    0 -0.12350585268E+03 -0.14397468190E+03 -0.19350217401E+02  0.22799525343E+03  0.12500000000E+03 0.  0.
</event>
<event>
 4    0  0.2185218E-002  0.2905621E+03  0.7546771E-02  0.1090056E+00
         21   -1    0    0  502  501  0.00000000000E+00  0.00000000000E+00  0.19155157807E+03  0.19155157807E+03  0.00000000000E+00 0.  1.
         21   -1    0    0  501  502 -0.00000000000E+00 -0.00000000000E+00 -0.44074977108E+03  0.44074977108E+03  0.00000000000E+00 0. -1.
         25    1    1    2    0    0 -0.20925059306E+03  0.77865577955E+02 -0.27439086148E+03  0.37518555914E+03  0.12500000000E+03 0.  0.
         25    1    1    2    0    0  0.20925059306E+03 -0.77865577955E+02  0.25192668474E+02  0.25711579001E+03  0.12500000000E+03 0.  0.
</event>
<event>
 4    0  0.2185218E-002  0.1776716E+03  0.7546771E-02  0.1170076E+00
         21   -1    0    0  502  501  0.00000000000E+00  0.00000000000E+00  0.77894368425E+03  0.77894368425E+03  0.00000000000E+00 0. -1.
         21   -1    0    0  501  502 -0.00000000000E+00 -0.00000000000E+00 -0.40525640402E+02  0.40525640402E+02  0.00000000000E+00 0. -1.
         25    1    1    2    0    0  0.75599486705E+02 -0.92580108191E+02  0.46305009711E+03  0.49429419505E+03  0.12500000000E+03 0.  0.
         25    1    1    2    0    0 -0.75599486705E+02  0.92580108191E+02  0.27536794673E+03  0.32517512960E+03  0.12500000000E+03 0.  0.
</event>
<event>
 4    0  0.2185218E-002  0.1538069E+03  0.7546771E-02  0.1195872E+00
         21   -1    0    0  502  501  0.00000000000E+00  0.00000000000E+00  0.81040318726E+03  0.81040318726E+03  0.00000000000E+00 0.  1.
         21   -1    0    0  501  502 -0.00000000000E+00 -0.00000000000E+00 -0.29191090643E+02  0.29191090643E+02  0.00000000000E+00 0.  1.
         25    1    1    2    0    0  0.79042345180E+02  0.36128924325E+02  0.33089804157E+03  0.36424099909E+03  0.12500000000E+03 0.  0.
         25    1    1    2    0    0 -0.79042345180E+02 -0.36128924325E+02  0.45031405505E+03  0.47535327881E+03  0.12500000000E+03 0.  0.
</event>
<event>
 4    0  0.2185218E-002  0.1663803E+03  0.7546771E-02  0.1181676E+00
         21   -1    0    0  502  501  0.00000000000E+00  0.00000000000E+00  0.75231346758E+03  0.75231346758E+03  0.00000000000E+00 0. -1.
         21   -1    0    0  501  502 -0.00000000000E+00 -0.00000000000E+00 -0.36796354475E+02  0.36796354475E+02  0.00000000000E+00 0. -1.
         25    1    1    2    0    0  0.61320946116E+02 -0.87112696908E+02  0.42088036569E+03  0.45178995409E+03  0.12500000000E+03 0.  0.
         25    1    1    2    0    0 -0.61320946116E+02  0.87112696908E+02  0.29463674742E+03  0.33731986796E+03  0.12500000000E+03 0.  0.
</event>
<event>
 4    0  0.2185218E-002  0.2248907E+03  0.7546771E-02  0.1130288E+00
         21   -1    0    0  502  501  0.00000000000E+00  0.00000000000E+00  0.27897694873E+02  0.27897694873E+02  0.00000000000E+00 0.  1.
         21   -1    0    0  501  502 -0.00000000000E+00 -0.00000000000E+00 -0.18129038692E+04  0.18129038692E+04  0.00000000000E+00 0.  1.
         25    1    1    2    0    0 -0.10450215706E+03 -0.44225903413E+02 -0.28444090664E+03  0.33076919556E+03  0.12500000000E+03 0.  0.
         25    1    1    2    0    0  0.10450215706E+03  0.44225903413E+02 -0.15005652677E+04  0.15100323685E+04  0.12500000000E+03 0.  0.
</event>
<event>
 4    0  0.2185218E-002  0.2449967E+03  0.7546771E-02  0.1116508E+00
         21   -1    0    0  502  501  0.00000000000E+00  0.00000000000E+00  0.18076188612E+03  0.18076188612E+03  0.00000000000E+00 0. -1.
         21   -1    0    0  501  502 -0.00000000000E+00 -0.00000000000E+00 -0.33205772118E+03  0.33205772118E+03  0.00000000000E+00 0. -1.
         25    1    1    2    0    0  0.67710011579E+02 -0.17426516631E+03  0.26066908504E+02  0.22640114305E+03  0.12500000000E+03 0.  0.
         25    1    1    2    0    0 -0.67710011579E+02  0.17426516631E+03 -0.17736274357E+03  0.28641846425E+03  0.12500000000E+03 0.  0.
</event>
<event>
 4    0  0.2185218E-002  0.2462125E+03  0.7546771E-02  0.1115722E+00
         21   -1    0    0  502  501  0.00000000000E+00  0.00000000000E+00  0.19433789731E+04  0.19433789731E+04  0.00000000000E+00 0.  1.
         21   -1    0    0  501  502 -0.00000000000E+00 -0.00000000000E+00 -0.31193395929E+02  0.31193395929E+02  0.00000000000E+00 0.  1.
         25    1    1    2    0    0 -0.13633324755E+03  0.70662553543E+02  0.15429041299E+04  0.15555571686E+04  0.12500000000E+03 0.  0.
         25    1    1    2    0    0  0.13633324755E+03 -0.70662553543E+02  0.36928144733E+03  0.41901520044E+03  0.12500000000E+03 0.  0.
</event>
<event>
 4    0  0.2185218E-002  0.2524308E+03  0.7546771E-02  0.1111778E+00
         21   -1    0    0  502  501  0.00000000000E+00  0.00000000000E+00  0.41686604280E+03  0.41686604280E+03  0.00000000000E+00 0.  1.
         21   -1    0    0  501  502 -0.00000000000E+00 -0.00000000000E+00 -0.15285796922E+03  0.15285796922E+03  0.00000000000E+00 0.  1.
         25    1    1    2    0    0  0.53724053507E+02 -0.21248111583E+03  0.14087519343E+03  0.28897286833E+03  0.12500000000E+03 0.  0.
         25    1    1    2    0    0 -0.53724053507E+02  0.21248111583E+03  0.12313288016E+03  0.28075114369E+03  0.12500000000E+03 0.  0.
</event>
<event>
 4    0  0.2185218E-002  0.5932929E+03  0.7546771E-02  0.9919420E-01
         21   -1    0    0  502  501  0.00000000000E+00  0.00000000000E+00  0.42046110580E+03  0.42046110580E+03  0.00000000000E+00 0.  1.
         21   -1    0    0  501  502 -0.00000000000E+00 -0.00000000000E+00 -0.83716783234E+03  0.83716783234E+03  0.00000000000E+00 0. -1.
         25    1    1    2    0    0 -0.13019695709E+03 -0.30449280179E+03 -0.71299527769E+03  0.79602410767E+03  0.12500000000E+03 0.  0.
         25    1    1    2    0    0  0.13019695709E+03  0.30449280179E+03  0.29628855115E+03  0.46160483047E+03  0.12500000000E+03 0.  0.
</event>
<event>
 4    0  0.2185218E-002  0.2377354E+03  0.7546771E-02  0.1121311E+00
         21   -1    0    0  502  501  0.00000000000E+00  0.00000000000E+00  0.31180451601E+03  0.31180451601E+03  0.00000000000E+00 0. -1.
         21   -1    0    0  501  502 -0.00000000000E+00 -0.00000000000E+00 -0.18126132667E+03  0.18126132667E+03  0.00000000000E+00 0. -1.
         25    1    1    2    0    0  0.70557861504E+02  0.18905587596E+03  0.78894083693E+02  0.25013958603E+03  0.12500000000E+03 0.  0.
         25    1    1    2    0    0 -0.70557861504E+02 -0.18905587596E+03  0.51649105642E+02  0.24292625665E+03  0.12500000000E+03 0.  0.
</event>
<event>
 4    0  0.2185218E-002  0.2111901E+03  0.7546771E-02  0.1140627E+00
         21   -1    0    0  502  501  0.00000000000E+00  0.00000000000E+00  0.21877682743E+03  0.21877682743E+03  0.00000000000E+00 0. -1.
         21   -1    0    0  501  502 -0.00000000000E+00 -0.00000000000E+00 -0.20386638162E+03  0.20386638162E+03  0.00000000000E+00 0. -1.
         25    1    1    2    0    0  0.40614178696E+02 -0.31252925065E+02 -0.15497266784E+03  0.20559130481E+03  0.12500000000E+03 0.  0.
         25    1    1    2    0    0 -0.40614178696E+02  0.31252925065E+02  0.16988311364E+03  0.21705190425E+03  0.12500000000E+03 0.  0.
</event>
<event>
 4    0  0.2185218E-002  0.2198850E+03  0.7546771E-02  0.1133969E+00
         21   -1    0    0  502  501  0.00000000000E+00  0.00000000000E+00  0.40612505725E+02  0.40612505725E+02  0.00000000000E+00 0.  1.
         21   -1    0    0  501  502 -0.00000000000E+00 -0.00000000000E+00 -0.11905055053E+04  0.11905055053E+04  0.00000000000E+00 0.  1.
         25    1    1    2    0    0  0.61618955623E+02  0.23928371560E+02 -0.10354764003E+03  0.17526145159E+03  0.12500000000E+03 0.  0.
         25    1    1    2    0    0 -0.61618955623E+02 -0.23928371560E+02 -0.10463453596E+04  0.10558565595E+04  0.12500000000E+03 0.  0.
</event>
<event>
 4    0  0.2185218E-002  0.2420526E+03  0.7546771E-02  0.1118433E+00
         21   -1    0    0  502  501  0.00000000000E+00  0.00000000000E+00  0.22448701858E+03  0.22448701858E+03  0.00000000000E+00 0. -1.
         21   -1    0    0  501  502 -0.00000000000E+00 -0.00000000000E+00 -0.26099266798E+03  0.26099266798E+03  0.00000000000E+00 0. -1.
         25    1    1    2    0    0  0.91426627234E+02 -0.17010396154E+03 -0.93767880987E+02  0.24841819862E+03  0.12500000000E+03 0.  0.
         25    1    1    2    0    0 -0.91426627234E+02  0.17010396154E+03  0.57262231588E+02  0.23706148794E+03  0.12500000000E+03 0.  0.
</event>
<event>
 4    0  0.2185218E-002  0.2550776E+03  0.7546771E-02  0.1110137E+00
         21   -1    0    0  502  501  0.00000000000E+00  0.00000000000E+00  0.26091096144E+03  0.26091096144E+03  0.00000000000E+00 0. -1.
         21   -1    0    0  501  502 -0.00000000000E+00 -0.00000000000E+00 -0.24937465848E+03  0.24937465848E+03  0.00000000000E+00 0. -1.
         25    1    1    2    0    0 -0.20140726893E+03 -0.27282465938E+02 -0.84423414295E+02  0.25310380046E+03  0.12500000000E+03 0.  0.
         25    1    1    2    0    0  0.20140726893E+03  0.27282465938E+02  0.95959717251E+02  0.25718181946E+03  0.12500000000E+03 0.  0.
</event>
<event>
 4    0  0.2185218E-002  0.1938079E+03  0.7546771E-02  0.1155071E+00
         21   -1    0    0  502  501  0.00000000000E+00  0.00000000000E+00  0.78193714348E+02  0.78193714348E+02  0.00000000000E+00 0. -1.
         21   -1    0    0  501  502 -0.00000000000E+00 -0.00000000000E+00 -0.48036465370E+03  0.48036465370E+03  0.00000000000E+00 0. -1.
         25    1    1    2    0    0 -0.16957808205E+02  0.11077751849E+03 -0.34062760003E+03  0.37975174491E+03  0.12500000000E+03 0.  0.
         25    1    1    2    0    0  0.16957808205E+02 -0.11077751849E+03 -0.61543339322E+02  0.17880662314E+03  0.12500000000E+03 0.  0.
</event>
<event>
 4    0  0.2185218E-002  0.2662388E+03  0.7546771E-02  0.1103452E+00
         21   -1    0    0  502  501  0.00000000000E+00  0.00000000000E+00  0.65040307846E+03  0.65040307846E+03  0.00000000000E+00 0.  1.
         21   -1    0    0  501  502 -0.00000000000E+00 -0.00000000000E+00 -0.10898335899E+03  0.10898335899E+03  0.00000000000E+00 0.  1.
         25    1    1    2    0    0  0.23159397529E+03  0.29563420972E+02  0.30972318293E+03  0.40750854628E+03  0.12500000000E+03 0.  0.
         25    1    1    2    0    0 -0.23159397529E+03 -0.29563420972E+02  0.23169653654E+03  0.35187789117E+03  0.12500000000E+03 0.  0.
</event>
<event>
 4    0  0.2185218E-002  0.2429522E+03  0.7546771E-02  0.1117842E+00
         21   -1    0    0  502  501  0.00000000000E+00  0.00000000000E+00  0.13019517942E+03  0.13019517942E+03  0.00000000000E+00 0. -1.
         21   -1    0    0  501  502 -0.00000000000E+00 -0.00000000000E+00 -0.45336385342E+03  0.45336385342E+03  0.00000000000E+00 0. -1.
         25    1    1    2    0    0  0.17167485226E+03  0.22994347910E+02 -0.22562522660E+02  0.21479074087E+03  0.12500000000E+03 0.  0.
         25    1    1    2    0    0 -0.17167485226E+03 -0.22994347910E+02 -0.30060615134E+03  0.36876829197E+03  0.12500000000E+03 0.  0.
</event>
<event>
 4    0  0.2185218E-002  0.2303406E+03  0.7546771E-02  0.1126400E+00
         21   -1    0    0  502  501  0.00000000000E+00  0.00000000000E+00  0.11611077040E+03  0.11611077040E+03  0.00000000000E+00 0. -1.
         21   -1    0    0  501  502 -0.00000000000E+00 -0.00000000000E+00 -0.45694983876E+03  0.45694983876E+03  0.00000000000E+00 0. -1.
         25    1    1    2    0    0 -0.12565307684E+03  0.24554854870E+02 -0.35085610937E+03  0.39384850653E+03  0.12500000000E+03 0.  0.
         25    1    1    2    0    0  0.12565307684E+03 -0.24554854870E+02  0.10017041004E+02  0.17921210262E+03  0.12500000000E+03 0.  0.
</event>
<event>
 4    0  0.2185218E-002  0.1841443E+03  0.7546771E-02  0.1163851E+00
         21   -1    0    0  502  501  0.00000000000E+00  0.00000000000E+00  0.63748577659E+02  0.63748577659E+02  0.00000000000E+00 0.  1.
         21   -1    0    0  501  502 -0.00000000000E+00 -0.00000000000E+00 -0.53191961080E+03  0.53191961080E+03  0.00000000000E+00 0.  1.
         25    1    1    2    0    0 -0.10727261168E+03  0.74699762972E+02 -0.29003548952E+03  0.34180850339E+03  0.12500000000E+03 0.  0.
         25    1    1    2    0    0  0.10727261168E+03 -0.74699762972E+02 -0.17813554362E+03  0.25385968507E+03  0.12500000000E+03 0.  0.
</event>
<event>
 4    0  0.2185218E-002  0.2779700E+03  0.7546771E-02  0.1096803E+00
         21   -1    0    0  502  501  0.00000000000E+00  0.00000000000E+00  0.41600780248E+02  0.41600780248E+02  0.00000000000E+00 0. -1.
         21   -1    0    0  501  502 -0.00000000000E+00 -0.00000000000E+00 -0.18573525028E+04  0.18573525028E+04  0.00000000000E+00 0. -1.
         25    1    1    2    0    0 -0.24491850916E+03 -0.38926539143E+02 -0.94857376344E+03  0.98839138819E+03  0.12500000000E+03 0.  0.
         25    1    1    2    0    0  0.24491850916E+03  0.38926539143E+02 -0.86717795908E+03  0.91056189482E+03  0.12500000000E+03 0.  0.
</event>
<event>
 4    0  0.2185218E-002  0.2172850E+03  0.7546771E-02  0.1135924E+00
         21   -1    0    0  502  501  0.00000000000E+00  0.00000000000E+00  0.56452771403E+02  0.56452771403E+02  0.00000000000E+00 0.  1.
         21   -1    0    0  501  502 -0.00000000000E+00 -0.00000000000E+00 -0.83632314835E+03  0.83632314835E+03  0.00000000000E+00 0.  1.
         25    1    1    2    0    0  0.54217140058E+02  0.16922986820E+03 -0.38359882218E+03  0.44085292666E+03  0.12500000000E+03 0.  0.
         25    1    1    2    0    0 -0.54217140058E+02 -0.16922986820E+03 -0.39627155477E+03  0.45192299309E+03  0.12500000000E+03 0.  0.
</event>
<event>
 4    0  0.2185218E-002  0.1891610E+03  0.7546771E-02  0.1159220E+00
         21   -1    0    0  502  501  0.00000000000E+00  0.00000000000E+00  0.68645855830E+03  0.68645855830E+03  0.00000000000E+00 0. -1.
         21   -1    0    0  501  502 -0.00000000000E+00 -0.00000000000E+00 -0.52125341212E+02  0.52125341212E+02  0.00000000000E+00 0. -1.
         25    1    1    2    0    0  0.10688012967E+03 -0.73455253505E+02  0.20437633660E+03  0.27242195827E+03  0.12500000000E+03 0.  0.
         25    1    1    2    0    0 -0.10688012967E+03  0.73455253505E+02  0.42995688049E+03  0.46616194125E+03  0.12500000000E+03 0.  0.
</event>
<event>
 4    0  0.2185218E-002  0.1858860E+03  0.7546771E-02  0.1162225E+00
         21   -1    0    0  502  501  0.00000000000E+00  0.00000000000E+00  0.13529301015E+04  0.13529301015E+04  0.00000000000E+00 0.  1.
         21   -1    0    0  501  502 -0.00000000000E+00 -0.00000000000E+00 -0.25539817262E+02  0.25539817262E+02  0.00000000000E+00 0.  1.
         25    1    1    2    0    0  0.56170588567E+02 -0.12378693366E+03  0.74237189470E+03  0.76499632025E+03  0.12500000000E+03 0.  0.
         25    1    1    2    0    0 -0.56170588567E+02  0.12378693366E+03  0.58501838953E+03  0.61347359850E+03  0.12500000000E+03 0.  0.
</event>
<event>
 4    0  0.2185218E-002  0.3660542E+03  0.7546771E-02  0.1056212E+00
         21   -1    0    0  502  501  0.00000000000E+00  0.00000000000E+00  0.49093995554E+02  0.49093995554E+02  0.00000000000E+00 0. -1.
         21   -1    0    0  501  502 -0.00000000000E+00 -0.00000000000E+00 -0.27293705034E+04  0.27293705034E+04  0.00000000000E+00 0. -1.
         25    1    1    2    0    0  0.14064454816E+02  0.57497462382E+01 -0.26445887428E+04  0.26475848403E+04  0.12500000000E+03 0.  0.
         25    1    1    2    0    0 -0.14064454816E+02 -0.57497462382E+01 -0.35687765134E+02  0.13087965866E+03  0.12500000000E+03 0.  0.
</event>
<event>
 4    0  0.2185218E-002  0.2471862E+03  0.7546771E-02  0.1115096E+00
         21   -1    0    0  502  501  0.00000000000E+00  0.00000000000E+00  0.13790607432E+03  0.13790607432E+03  0.00000000000E+00 0. -1.
         21   -1    0    0  501  502 -0.00000000000E+00 -0.00000000000E+00 -0.44306247552E+03  0.44306247552E+03  0.00000000000E+00 0. -1.
         25    1    1    2    0    0  0.25965650200E+02 -0.15964409280E+03  0.10746565069E+02  0.20469719103E+03  0.12500000000E+03 0.  0.
         25    1    1    2    0    0 -0.25965650200E+02  0.15964409280E+03 -0.31590296627E+03  0.37627135880E+03  0.12500000000E+03 0.  0.
</event>
<event>
 4    0  0.2185218E-002  0.3660962E+03  0.7546771E-02  0.1056196E+00
         21   -1    0    0  502  501  0.00000000000E+00  0.00000000000E+00  0.10162814086E+03  0.10162814086E+03  0.00000000000E+00 0.  1.
         21   -1    0    0  501  502 -0.00000000000E+00 -0.00000000000E+00 -0.13187925463E+04  0.13187925463E+04  0.00000000000E+00 0.  1.
         25    1    1    2    0    0  0.44949819541E+02 -0.28970608959E+03 -0.95805068304E+03  0.10096713405E+04  0.12500000000E+03 0.  0.
         25    1    1    2    0    0 -0.44949819541E+02  0.28970608959E+03 -0.25911372244E+03  0.41074934666E+03  0.12500000000E+03 0.  0.
</event>
<event>
 4    0  0.2185218E-002  0.3093668E+03  0.7546771E-02  0.1080650E+00
         21   -1    0    0  502  501  0.00000000000E+00  0.00000000000E+00  0.12067536419E+03  0.12067536419E+03  0.00000000000E+00 0.  1.
         21   -1    0    0  501  502 -0.00000000000E+00 -0.00000000000E+00 -0.79310132279E+03  0.79310132279E+03  0.00000000000E+00 0.  1.
         25    1    1    2    0    0 -0.55588071770E+02  0.22142670849E+01  0.73563983965E+02  0.15534347891E+03  0.12500000000E+03 0.  0.
         25    1    1    2    0    0  0.55588071770E+02 -0.22142670849E+01 -0.74598994256E+03  0.75843320807E+03  0.12500000000E+03 0.  0.
</event>
<event>
 4    0  0.2185218E-002  0.2414943E+03  0.7546771E-02  0.1118801E+00
         21   -1    0    0  502  501  0.00000000000E+00  0.00000000000E+00  0.43519539570E+03  0.43519539570E+03  0.00000000000E+00 0.  1.
         21   -1    0    0  501  502 -0.00000000000E+00 -0.00000000000E+00 -0.13400761330E+03  0.13400761330E+03  0.00000000000E+00 0.  1.
         25    1    1    2    0    0 -0.72145833594E+02  0.75823158516E+02 -0.59365828675E+02  0.17350352817E+03  0.12500000000E+03 0.  0.
         25    1    1    2    0    0  0.72145833594E+02 -0.75823158516E+02  0.36055361107E+03  0.39569948083E+03  0.12500000000E+03 0.  0.
</event>
<event>
 4    0  0.2185218E-002  0.4276133E+03  0.7546771E-02  0.1034617E+00
         21   -1    0    0  502  501  0.00000000000E+00  0.00000000000E+00  0.20957228627E+03  0.20957228627E+03  0.00000000000E+00 0. -1.
         21   -1    0    0  501  502 -0.00000000000E+00 -0.00000000000E+00 -0.87250633096E+03  0.87250633096E+03  0.00000000000E+00 0. -1.
         25    1    1    2    0    0  0.11394355013E+03 -0.25961474695E+03  0.41397019472E+02  0.31260464276E+03  0.12500000000E+03 0.  0.
         25    1    1    2    0    0 -0.11394355013E+03  0.25961474695E+03 -0.70433106416E+03  0.76947397448E+03  0.12500000000E+03 0.  0.
</event>
<event>
 4    0  0.2185218E-002  0.1958696E+03  0.7546771E-02  0.1153271E+00
         21   -1    0    0  502  501  0.00000000000E+00  0.00000000000E+00  0.12098278276E+03  0.12098278276E+03  0.00000000000E+00 0.  1.
         21   -1    0    0  501  502 -0.00000000000E+00 -0.00000000000E+00 -0.31711030342E+03  0.31711030342E+03  0.00000000000E+00 0.  1.
         25    1    1    2    0    0 -0.87719534563E+02 -0.11294265318E+03 -0.44557522634E+02  0.19509262537E+03  0.12500000000E+03 0.  0.
         25    1    1    2    0    0  0.87719534563E+02  0.11294265318E+03 -0.15156999803E+03  0.24300046081E+03  0.12500000000E+03 0.  0.
</event>
<event>
 4    0  0.2185218E-002  0.2937797E+03  0.7546771E-02  0.1088392E+00
         21   -1    0    0  502  501  0.00000000000E+00  0.00000000000E+00  0.47961889557E+03  0.47961889557E+03  0.00000000000E+00 0.  1.
         21   -1    0    0  501  502 -0.00000000000E+00 -0.00000000000E+00 -0.17994807036E+03  0.17994807036E+03  0.00000000000E+00 0.  1.
         25    1    1    2    0    0 -0.22336434662E+03 -0.22417808045E+02 -0.10053866207E+02  0.25713861959E+03  0.12500000000E+03 0.  0.
         25    1    1    2    0    0  0.22336434662E+03  0.22417808045E+02  0.30972469142E+03  0.40242834633E+03  0.12500000000E+03 0.  0.
</event>
<event>
 4    0  0.2185218E-002  0.2567092E+03  0.7546771E-02  0.1109137E+00
         21   -1    0    0  502  501  0.00000000000E+00  0.00000000000E+00  0.37314635428E+03  0.37314635428E+03  0.00000000000E+00 0. -1.
         21   -1    0    0  501  502 -0.00000000000E+00 -0.00000000000E+00 -0.17660527178E+03  0.17660527178E+03  0.00000000000E+00 0.  1.
         25    1    1    2    0    0  0.20786089929E+03  0.82504096392E+02  0.11558700145E+03  0.28106660114E+03  0.12500000000E+03 0.  0.
         25    1    1    2    0    0 -0.20786089929E+03 -0.82504096392E+02  0.80954081048E+02  0.26868502491E+03  0.12500000000E+03 0.  0.
</event>
<event>
 4    0  0.2185218E-002  0.2363291E+03  0.7546771E-02  0.1122263E+00
         21   -1    0    0  502  501  0.00000000000E+00  0.00000000000E+00  0.13019701486E+03  0.13019701486E+03  0.00000000000E+00 0. -1.
         21   -1    0    0  501  502 -0.00000000000E+00 -0.00000000000E+00 -0.42897619818E+03  0.42897619818E+03  0.00000000000E+00 0. -1.
         25    1    1    2    0    0  0.16698918631E+03 -0.62825590560E+02 -0.41001106656E+02  0.22167213159E+03  0.12500000000E+03 0.  0.
         25    1    1    2    0    0 -0.16698918631E+03  0.62825590560E+02 -0.25777807666E+03  0.33750108145E+03  0.12500000000E+03 0.  0.
</event>
<event>
 4    0  0.2185218E-002  0.2937782E+03  0.7546771E-02  0.1088393E+00
         21   -1    0    0  502  501  0.00000000000E+00  0.00000000000E+00  0.39602874396E+03  0.39602874396E+03  0.00000000000E+00 0. -1.
         21   -1    0    0  501  502 -0.00000000000E+00 -0.00000000000E+00 -0.21792767737E+03  0.21792767737E+03  0.00000000000E+00 0. -1.
         25    1    1    2    0    0 -0.44267328121E+02  0.77696378051E+02  0.35066839647E+03  0.38287027540E+03  0.12500000000E+03 0.  0.
         25    1    1    2    0    0  0.44267328121E+02 -0.77696378051E+02 -0.17256732987E+03  0.23108614593E+03  0.12500000000E+03 0.  0.
</event>
<event>
 4    0  0.2185218E-002  0.2718721E+03  0.7546771E-02  0.1100213E+00
         21   -1    0    0  502  501  0.00000000000E+00  0.00000000000E+00  0.18147779322E+03  0.18147779322E+03  0.00000000000E+00 0. -1.
         21   -1    0    0  501  502 -0.00000000000E+00 -0.00000000000E+00 -0.40729190010E+03  0.40729190010E+03  0.00000000000E+00 0. -1.
         25    1    1    2    0    0 -0.21356641506E+03  0.86133757568E+02 -0.19143700460E+03  0.32450387450E+03  0.12500000000E+03 0.  0.
         25    1    1    2    0    0  0.21356641506E+03 -0.86133757568E+02 -0.34377102281E+02  0.26426581882E+03  0.12500000000E+03 0.  0.
</event>
<event>
 4    0  0.2185218E-002  0.1901165E+03  0.7546771E-02  0.1158356E+00
         21   -1    0    0  502  501  0.00000000000E+00  0.00000000000E+00  0.41971934742E+03  0.41971934742E+03  0.00000000000E+00 0.  1.
         21   -1    0    0  501  502 -0.00000000000E+00 -0.00000000000E+00 -0.86115325684E+02  0.86115325684E+02  0.00000000000E+00 0.  1.
         25    1    1    2    0    0  0.55587620853E+02  0.31747849912E+00  0.34243148756E+03  0.36874707871E+03  0.12500000000E+03 0.  0.
         25    1    1    2    0    0 -0.55587620853E+02 -0.31747849912E+00 -0.88274658199E+01  0.13708759440E+03  0.12500000000E+03 0.  0.
</event>
<event>
 4    0  0.2185218E-002  0.2243553E+03  0.7546771E-02  0.1130677E+00
         21   -1    0    0  502  501  0.00000000000E+00  0.00000000000E+00  0.22455621845E+03  0.22455621845E+03  0.00000000000E+00 0. -1.
         21   -1    0    0  501  502 -0.00000000000E+00 -0.00000000000E+00 -0.22415452425E+03  0.22415452425E+03  0.00000000000E+00 0. -1.
         25    1    1    2    0    0 -0.11613154932E+03  0.48820899082E+01  0.14580283113E+03  0.22448571695E+03  0.12500000000E+03 0.  0.
         25    1    1    2    0    0  0.11613154932E+03 -0.48820899082E+01 -0.14540113693E+03  0.22422502574E+03  0.12500000000E+03 0.  0.
</event>
<event>
 4    0  0.2185218E-002  0.2292729E+03  0.7546771E-02  0.1127153E+00
         21   -1    0    0  502  501  0.00000000000E+00  0.00000000000E+00  0.14061618563E+03  0.14061618563E+03  0.00000000000E+00 0. -1.
         21   -1    0    0  501  502 -0.00000000000E+00 -0.00000000000E+00 -0.37382663048E+03  0.37382663048E+03  0.00000000000E+00 0. -1.
         25    1    1    2    0    0 -0.72724302909E+02 -0.11318975326E+03 -0.27059737644E+03  0.32703009741E+03  0.12500000000E+03 0.  0.
         25    1    1    2    0    0  0.72724302909E+02  0.11318975326E+03  0.37386931596E+02  0.18741271870E+03  0.12500000000E+03 0.  0.
</event>
<event>
 4    0  0.2185218E-002  0.2004970E+03  0.7546771E-02  0.1149320E+00
         21   -1    0    0  502  501  0.00000000000E+00  0.00000000000E+00  0.33105764400E+02  0.33105764400E+02  0.00000000000E+00 0.  1.
         21   -1    0    0  501  502 -0.00000000000E+00 -0.00000000000E+00 -0.12142613374E+04  0.12142613374E+04  0.00000000000E+00 0.  1.
         25    1    1    2    0    0  0.78146320994E+02  0.13431618784E+03 -0.52634649755E+03  0.56286172483E+03  0.12500000000E+03 0.  0.
         25    1    1    2    0    0 -0.78146320994E+02 -0.13431618784E+03 -0.65480907542E+03  0.68450537694E+03  0.12500000000E+03 0.  0.
</event>
<event>
 4    0  0.2185218E-002  0.2783316E+03  0.7546771E-02  0.1096604E+00
         21   -1    0    0  502  501  0.00000000000E+00  0.00000000000E+00  0.38722277851E+02  0.38722277851E+02  0.00000000000E+00 0.  1.
         21   -1    0    0  501  502 -0.00000000000E+00 -0.00000000000E+00 -0.20006175979E+04  0.20006175979E+04  0.00000000000E+00 0.  1.
         25    1    1    2    0    0  0.48812450232E+02 -0.14932837112E+02 -0.18726023107E+04  0.18774637304E+04  0.12500000000E+03 0.  0.
         25    1    1    2    0    0 -0.48812450232E+02  0.14932837112E+02 -0.89293009391E+02  0.16187614540E+03  0.12500000000E+03 0.  0.
</event>
<event>
 4    0  0.2185218E-002  0.1754740E+03  0.7546771E-02  0.1172257E+00
         21   -1    0    0  502  501  0.00000000000E+00  0.00000000000E+00  0.33188764713E+03  0.33188764713E+03  0.00000000000E+00 0.  1.
         21   -1    0    0  501  502 -0.00000000000E+00 -0.00000000000E+00 -0.92775697453E+02  0.92775697453E+02  0.00000000000E+00 0.  1.
         25    1    1    2    0    0 -0.11854475615E+03 -0.18530911192E+02  0.85981724509E+02  0.19342727530E+03  0.12500000000E+03 0.  0.
         25    1    1    2    0    0  0.11854475615E+03  0.18530911192E+02  0.15313022517E+03  0.23123606929E+03  0.12500000000E+03 0.  0.
</event>
<event>
 4    0  0.2185218E-002  0.1921781E+03  0.7546771E-02  0.1156511E+00
         21   -1    0    0  502  501  0.00000000000E+00  0.00000000000E+00  0.36594804174E+03  0.36594804174E+03  0.00000000000E+00 0. -1.
         21   -1    0    0  501  502 -0.00000000000E+00 -0.00000000000E+00 -0.10092263568E+03  0.10092263568E+03  0.00000000000E+00 0. -1.
         25    1    1    2    0    0 -0.64309322432E+02 -0.85328864152E+02  0.11709925106E+02  0.16486002049E+03  0.12500000000E+03 0.  0.
         25    1    1    2    0    0  0.64309322432E+02  0.85328864152E+02  0.25331548096E+03  0.30201065694E+03  0.12500000000E+03 0.  0.
</event>
<event>
 4    0  0.2185218E-002  0.1980944E+03  0.7546771E-02  0.1151357E+00
         21   -1    0    0  502  501  0.00000000000E+00  0.00000000000E+00  0.10317148749E+04  0.10317148749E+04  0.00000000000E+00 0.  1.
         21   -1    0    0  501  502 -0.00000000000E+00 -0.00000000000E+00 -0.38035124298E+02  0.38035124298E+02  0.00000000000E+00 0.  1.
         25    1    1    2    0    0 -0.58205620702E+02 -0.13255310771E+03  0.35762922570E+03  0.40556366173E+03  0.12500000000E+03 0.  0.
         25    1    1    2    0    0  0.58205620702E+02  0.13255310771E+03  0.63605052486E+03  0.66418633743E+03  0.12500000000E+03 0.  0.
</event>
<event>
 4    0  0.2185218E-002  0.1931388E+03  0.7546771E-02  0.1155660E+00
         21   -1    0    0  502  501  0.00000000000E+00  0.00000000000E+00  0.35634745880E+03  0.35634745880E+03  0.00000000000E+00 0.  1.
         21   -1    0    0  501  502 -0.00000000000E+00 -0.00000000000E+00 -0.10468035346E+03  0.10468035346E+03  0.00000000000E+00 0.  1.
         25    1    1    2    0    0  0.58347035878E+01  0.13670970202E+03  0.60965280351E+02  0.19510343872E+03  0.12500000000E+03 0.  0.
         25    1    1    2    0    0 -0.58347035878E+01 -0.13670970202E+03  0.19070182498E+03  0.26592437354E+03  0.12500000000E+03 0.  0.
</event>
<event>
 4    0  0.2185218E-002  0.2904882E+03  0.7546771E-02  0.1090095E+00
         21   -1    0    0  502  501  0.00000000000E+00  0.00000000000E+00  0.11053867776E+03  0.11053867776E+03  0.00000000000E+00 0.  1.
         21   -1    0    0  501  502 -0.00000000000E+00 -0.00000000000E+00 -0.76338336421E+03  0.76338336421E+03  0.00000000000E+00 0.  1.
         25    1    1    2    0    0  0.75539482885E+02  0.18409240084E+03 -0.69546018101E+02  0.24506708093E+03  0.12500000000E+03 0.  0.
         25    1    1    2    0    0 -0.75539482885E+02 -0.18409240084E+03 -0.58329866835E+03  0.62885496103E+03  0.12500000000E+03 0.  0.
</event>
<event>
 4    0  0.2185218E-002  0.1719497E+03  0.7546771E-02  0.1175830E+00
         21   -1    0    0  502  501  0.00000000000E+00  0.00000000000E+00  0.26082852823E+03  0.26082852823E+03  0.00000000000E+00 0. -1.
         21   -1    0    0  501  502 -0.00000000000E+00 -0.00000000000E+00 -0.11335685500E+03  0.11335685500E+03  0.00000000000E+00 0. -1.
         25    1    1    2    0    0 -0.29928061621E+02  0.11247572702E+03  0.52104825221E+02  0.17856760863E+03  0.12500000000E+03 0.  0.
         25    1    1    2    0    0  0.29928061621E+02 -0.11247572702E+03  0.95366848006E+02  0.19561777460E+03  0.12500000000E+03 0.  0.
</event>
<event>
 4    0  0.2185218E-002  0.2138638E+03  0.7546771E-02  0.1138542E+00
         21   -1    0    0  502  501  0.00000000000E+00  0.00000000000E+00  0.11953015364E+03  0.11953015364E+03  0.00000000000E+00 0. -1.
         21   -1    0    0  501  502 -0.00000000000E+00 -0.00000000000E+00 -0.38264579593E+03  0.38264579593E+03  0.00000000000E+00 0. -1.
         25    1    1    2    0    0  0.12431105437E+03 -0.43784350030E+02 -0.26408787483E+03  0.32052724249E+03  0.12500000000E+03 0.  0.
         25    1    1    2    0    0 -0.12431105437E+03  0.43784350030E+02  0.97223254173E+00  0.18164870708E+03  0.12500000000E+03 0.  0.
</event>
<event>
 4    0  0.2185218E-002  0.3000748E+03  0.7546771E-02  0.1085203E+00
         21   -1    0    0  502  501  0.00000000000E+00  0.00000000000E+00  0.11418757401E+04  0.11418757401E+04  0.00000000000E+00 0.  1.
         21   -1    0    0  501  502 -0.00000000000E+00 -0.00000000000E+00 -0.78856998044E+02  0.78856998044E+02  0.00000000000E+00 0. -1.
         25    1    1    2    0    0 -0.22080857791E+03 -0.10306330871E+03  0.28204676075E+03  0.39313337295E+03  0.12500000000E+03 0.  0.
         25    1    1    2    0    0  0.22080857791E+03  0.10306330871E+03  0.78097198127E+03  0.82759936516E+03  0.12500000000E+03 0.  0.
</event>
<event>
 4    0  0.2185218E-002  0.1966905E+03  0.7546771E-02  0.1152562E+00
         21   -1    0    0  502  501  0.00000000000E+00  0.00000000000E+00  0.57534636248E+03  0.57534636248E+03  0.00000000000E+00 0.  1.
         21   -1    0    0  501  502 -0.00000000000E+00 -0.00000000000E+00 -0.67241470010E+02  0.67241470010E+02  0.00000000000E+00 0.  1.
         25    1    1    2    0    0  0.84597032422E+02 -0.20890088186E+02  0.45721865691E+03  0.48194081992E+03  0.12500000000E+03 0.  0.
         25    1    1    2    0    0 -0.84597032422E+02  0.20890088186E+02  0.50886235566E+02  0.16064701257E+03  0.12500000000E+03 0.  0.
</event>
<event>
 4    0  0.2185218E-002  0.3310113E+03  0.7546771E-02  0.1070690E+00
         21   -1    0    0  502  501  0.00000000000E+00  0.00000000000E+00  0.23819341951E+03  0.23819341951E+03  0.00000000000E+00 0. -1.
         21   -1    0    0  501  502 -0.00000000000E+00 -0.00000000000E+00 -0.45999780112E+03  0.45999780112E+03  0.00000000000E+00 0. -1.
         25    1    1    2    0    0 -0.27963314677E+03 -0.11987918206E+03 -0.71756465721E+02  0.33665962846E+03  0.12500000000E+03 0.  0.
         25    1    1    2    0    0  0.27963314677E+03  0.11987918206E+03 -0.15004791589E+03  0.36153159216E+03  0.12500000000E+03 0.  0.
</event>
<event>
 4    0  0.2185218E-002  0.2228465E+03  0.7546771E-02  0.1131779E+00
         21   -1    0    0  502  501  0.00000000000E+00  0.00000000000E+00  0.22835368723E+03  0.22835368723E+03  0.00000000000E+00 0.  1.
         21   -1    0    0  501  502 -0.00000000000E+00 -0.00000000000E+00 -0.21747211759E+03  0.21747211759E+03  0.00000000000E+00 0.  1.
         25    1    1    2    0    0  0.42538819675E+02 -0.47792157338E+02  0.17852968251E+03  0.22713759931E+03  0.12500000000E+03 0.  0.
         25    1    1    2    0    0 -0.42538819675E+02  0.47792157338E+02 -0.16764811287E+03  0.21868820551E+03  0.12500000000E+03 0.  0.
</event>
<event>
 4    0  0.2185218E-002  0.1884195E+03  0.7546771E-02  0.1159895E+00
         21   -1    0    0  502  501  0.00000000000E+00  0.00000000000E+00  0.24222447347E+02  0.24222447347E+02  0.00000000000E+00 0.  1.
         21   -1    0    0  501  502 -0.00000000000E+00 -0.00000000000E+00 -0.14656621481E+04  0.14656621481E+04  0.00000000000E+00 0.  1.
         25    1    1    2    0    0 -0.46696196284E+02  0.10968268196E+03 -0.42311585511E+03  0.45701515546E+03  0.12500000000E+03 0.  0.
         25    1    1    2    0    0  0.46696196284E+02 -0.10968268196E+03 -0.10183238456E+04  0.10328694400E+04  0.12500000000E+03 0.  0.
</event>
<event>
 4    0  0.2185218E-002  0.1966821E+03  0.7546771E-02  0.1152569E+00
         21   -1    0    0  502  501  0.00000000000E+00  0.00000000000E+00  0.10196697801E+04  0.10196697801E+04  0.00000000000E+00 0.  1.
         21   -1    0    0  501  502 -0.00000000000E+00 -0.00000000000E+00 -0.37937640096E+02  0.37937640096E+02  0.00000000000E+00 0.  1.
         25    1    1    2    0    0  0.82946005784E+02  0.96080703506E+02  0.71496425008E+03  0.73682455195E+03  0.12500000000E+03 0.  0.
         25    1    1    2    0    0 -0.82946005784E+02 -0.96080703506E+02  0.26676788988E+03  0.32078286821E+03  0.12500000000E+03 0.  0.
</event>
<event>
 4    0  0.2185218E-002  0.2304868E+03  0.7546771E-02  0.1126298E+00
         21   -1    0    0  502  501  0.00000000000E+00  0.00000000000E+00  0.26948873523E+02  0.26948873523E+02  0.00000000000E+00 0.  1.
         21   -1    0    0  501  502 -0.00000000000E+00 -0.00000000000E+00 -0.19712946136E+04  0.19712946136E+04  0.00000000000E+00 0.  1.
         25    1    1    2    0    0 -0.10178659521E+03  0.55333253547E+02 -0.16447971232E+04  0.16536035971E+04  0.12500000000E+03 0.  0.
         25    1    1    2    0    0  0.10178659521E+03 -0.55333253547E+02 -0.29954861690E+03  0.34463989003E+03  0.12500000000E+03 0.  0.
</event>
<event>
 4    0  0.2185218E-002  0.1860765E+03  0.7546771E-02  0.1162048E+00
         21   -1    0    0  502  501  0.00000000000E+00  0.00000000000E+00  0.56814200221E+03  0.56814200221E+03  0.00000000000E+00 0.  1.
         21   -1    0    0  501  502 -0.00000000000E+00 -0.00000000000E+00 -0.60943352870E+02  0.60943352870E+02  0.00000000000E+00 0.  1.
         25    1    1    2    0    0 -0.20736608345E+02  0.13614320119E+03  0.26352819430E+03  0.32254780630E+03  0.12500000000E+03 0.  0.
         25    1    1    2    0    0  0.20736608345E+02 -0.13614320119E+03  0.24367045504E+03  0.30653754879E+03  0.12500000000E+03 0.  0.
</event>
<event>
 4    0  0.2185218E-002  0.2802433E+03  0.7546771E-02  0.1095556E+00
         21   -1    0    0  502  501  0.00000000000E+00  0.00000000000E+00  0.85014719720E+02  0.85014719720E+02  0.00000000000E+00 0. -1.
         21   -1    0    0  501  502 -0.00000000000E+00 -0.00000000000E+00 -0.92379625009E+03  0.92379625009E+03  0.00000000000E+00 0. -1.
         25    1    1    2    0    0  0.24071320594E+03 -0.69455654721E+02 -0.39776638362E+03  0.48642577175E+03  0.12500000000E+03 0.  0.
         25    1    1    2    0    0 -0.24071320594E+03  0.69455654721E+02 -0.44101514675E+03  0.52238519806E+03  0.12500000000E+03 0.  0.
</event>
<event>
 4    0  0.2185218E-002  0.1762820E+03  0.7546771E-02  0.1171451E+00
         21   -1    0    0  502  501  0.00000000000E+00  0.00000000000E+00  0.51006337095E+03  0.51006337095E+03  0.00000000000E+00 0. -1.
         21   -1    0    0  501  502 -0.00000000000E+00 -0.00000000000E+00 -0.60924459304E+02  0.60924459304E+02  0.00000000000E+00 0. -1.
         25    1    1    2    0    0 -0.66245094058E+00  0.53476609116E+02  0.42848767629E+02  0.14255245859E+03  0.12500000000E+03 0.  0.
         25    1    1    2    0    0  0.66245094058E+00 -0.53476609116E+02  0.40629014402E+03  0.42843537166E+03  0.12500000000E+03 0.  0.
</event>
<event>
 4    0  0.2185218E-002  0.1698462E+03  0.7546771E-02  0.1178008E+00
         21   -1    0    0  502  501  0.00000000000E+00  0.00000000000E+00  0.12296415335E+03  0.12296415335E+03  0.00000000000E+00 0.  1.
         21   -1    0    0  501  502 -0.00000000000E+00 -0.00000000000E+00 -0.23460289211E+03  0.23460289211E+03  0.00000000000E+00 0.  1.
         25    1    1    2    0    0  0.11400870596E+03 -0.13186587301E+02 -0.63327352050E+02  0.18112764736E+03  0.12500000000E+03 0.  0.
         25    1    1    2    0    0 -0.11400870596E+03  0.13186587301E+02 -0.48311386707E+02  0.17643939811E+03  0.12500000000E+03 0.  0.
</event>
<event>
 4    0  0.2185218E-002  0.2660949E+03  0.7546771E-02  0.1103536E+00
         21   -1    0    0  502  501  0.00000000000E+00  0.00000000000E+00  0.10133401843E+04  0.10133401843E+04  0.00000000000E+00 0.  1.
         21   -1    0    0  501  502 -0.00000000000E+00 -0.00000000000E+00 -0.69874333488E+02  0.69874333488E+02  0.00000000000E+00 0.  1.
         25    1    1    2    0    0  0.65659067897E+02 -0.54035900486E+02  0.91743481585E+03  0.92980784739E+03  0.12500000000E+03 0.  0.
         25    1    1    2    0    0 -0.65659067897E+02  0.54035900486E+02  0.26031034954E+02  0.15340667039E+03  0.12500000000E+03 0.  0.
</event>
<event>
 4    0  0.2185218E-002  0.2347373E+03  0.7546771E-02  0.1123349E+00
         21   -1    0    0  502  501  0.00000000000E+00  0.00000000000E+00  0.21910105426E+03  0.21910105426E+03  0.00000000000E+00 0. -1.
         21   -1    0    0  501  502 -0.00000000000E+00 -0.00000000000E+00 -0.25148935077E+03  0.25148935077E+03  0.00000000000E+00 0. -1.
         25    1    1    2    0    0  0.14975568808E+03 -0.45291375233E+02  0.10656533607E+03  0.22684630399E+03  0.12500000000E+03 0.  0.
         25    1    1    2    0    0 -0.14975568808E+03  0.45291375233E+02 -0.13895363258E+03  0.24374410104E+03  0.12500000000E+03 0.  0.
</event>
<event>
 4    0  0.2185218E-002  0.1350915E+03  0.7546771E-02  0.1220091E+00
         21   -1    0    0  502  501  0.00000000000E+00  0.00000000000E+00  0.30422500566E+02  0.30422500566E+02  0.00000000000E+00 0. -1.
         21   -1    0    0  501  502 -0.00000000000E+00 -0.00000000000E+00 -0.59987523118E+03  0.59987523118E+03  0.00000000000E+00 0. -1.
         25    1    1    2    0    0  0.51129370003E+02  0.12970486614E+00 -0.27717596047E+03  0.30832732990E+03  0.12500000000E+03 0.  0.
         25    1    1    2    0    0 -0.51129370003E+02 -0.12970486614E+00 -0.29227677015E+03  0.32197040185E+03  0.12500000000E+03 0.  0.
</event>
<event>
 4    0  0.2185218E-002  0.2341459E+03  0.7546771E-02  0.1123755E+00
         21   -1    0    0  502  501  0.00000000000E+00  0.00000000000E+00  0.18486906169E+03  0.18486906169E+03  0.00000000000E+00 0. -1.
         21   -1    0    0  501  502 -0.00000000000E+00 -0.00000000000E+00 -0.29655743688E+03  0.29655743688E+03  0.00000000000E+00 0. -1.
         25    1    1    2    0    0  0.13482762324E+03  0.17607338324E+02 -0.20379310323E+03  0.27503660715E+03  0.12500000000E+03 0.  0.
         25    1    1    2    0    0 -0.13482762324E+03 -0.17607338324E+02  0.92104728047E+02  0.20638989142E+03  0.12500000000E+03 0.  0.
</event>
<event>
 4    0  0.2185218E-002  0.1855411E+03  0.7546771E-02  0.1162546E+00
         21   -1    0    0  502  501  0.00000000000E+00  0.00000000000E+00  0.12865286794E+03  0.12865286794E+03  0.00000000000E+00 0.  1.
         21   -1    0    0  501  502 -0.00000000000E+00 -0.00000000000E+00 -0.26758431092E+03  0.26758431092E+03  0.00000000000E+00 0.  1.
         25    1    1    2    0    0 -0.49779879039E+02 -0.12641282929E+03 -0.89219783855E+02  0.20504489654E+03  0.12500000000E+03 0.  0.
         25    1    1    2    0    0  0.49779879039E+02  0.12641282929E+03 -0.49711659129E+02  0.19119228232E+03  0.12500000000E+03 0.  0.
</event>
<event>
 4    0  0.2185218E-002  0.1824391E+03  0.7546771E-02  0.1165463E+00
         21   -1    0    0  502  501  0.00000000000E+00  0.00000000000E+00  0.14350150783E+03  0.14350150783E+03  0.00000000000E+00 0.  1.
         21   -1    0    0  501  502 -0.00000000000E+00 -0.00000000000E+00 -0.23194204172E+03  0.23194204172E+03  0.00000000000E+00 0.  1.
         25    1    1    2    0    0 -0.10868230623E+03  0.50598653673E+02  0.14771885075E+02  0.17382541825E+03  0.12500000000E+03 0.  0.
         25    1    1    2    0    0  0.10868230623E+03 -0.50598653673E+02 -0.10321241897E+03  0.20161813130E+03  0.12500000000E+03 0.  0.
</event>
<event>
 4    0  0.2185218E-002  0.1947747E+03  0.7546771E-02  0.1154224E+00
         21   -1    0    0  502  501  0.00000000000E+00  0.00000000000E+00  0.11533290214E+03  0.11533290214E+03  0.00000000000E+00 0. -1.
         21   -1    0    0  501  502 -0.00000000000E+00 -0.00000000000E+00 -0.32893638585E+03  0.32893638585E+03  0.00000000000E+00 0. -1.
         25    1    1    2    0    0 -0.12303753013E+03  0.80681018750E+02 -0.77402226461E+02  0.20799943574E+03  0.12500000000E+03 0.  0.
         25    1    1    2    0    0  0.12303753013E+03 -0.80681018750E+02 -0.13620125725E+03  0.23626985225E+03  0.12500000000E+03 0.  0.
</event>
<event>
 4    0  0.2185218E-002  0.3357327E+03  0.7546771E-02  0.1068628E+00
         21   -1    0    0  502  501  0.00000000000E+00  0.00000000000E+00  0.13133283334E+04  0.13133283334E+04  0.00000000000E+00 0.  1.
         21   -1    0    0  501  502 -0.00000000000E+00 -0.00000000000E+00 -0.85825013887E+02  0.85825013887E+02  0.00000000000E+00 0.  1.
         25    1    1    2    0    0  0.18921080945E+03 -0.22564794207E+03  0.40152080251E+03  0.51338258543E+03  0.12500000000E+03 0.  0.
         25    1    1    2    0    0 -0.18921080945E+03  0.22564794207E+03  0.82598251703E+03  0.88577076189E+03  0.12500000000E+03 0.  0.
</event>
<event>
 4    0  0.2185218E-002  0.1537772E+03  0.7546771E-02  0.1195907E+00
         21   -1    0    0  502  501  0.00000000000E+00  0.00000000000E+00  0.71201854300E+02  0.71201854300E+02  0.00000000000E+00 0. -1.
         21   -1    0    0  501  502 -0.00000000000E+00 -0.00000000000E+00 -0.33211834636E+03  0.33211834636E+03  0.00000000000E+00 0. -1.
         25    1    1    2    0    0 -0.60506480731E+02  0.51637036887E+01 -0.21679776478E+03  0.25751498764E+03  0.12500000000E+03 0.  0.
         25    1    1    2    0    0  0.60506480731E+02 -0.51637036887E+01 -0.44118727278E+02  0.14580521302E+03  0.12500000000E+03 0.  0.
</event>
<event>
 4    0  0.2185218E-002  0.3018647E+03  0.7546771E-02  0.1084312E+00
         21   -1    0    0  502  501  0.00000000000E+00  0.00000000000E+00  0.83178616447E+03  0.83178616447E+03  0.00000000000E+00 0.  1.
         21   -1    0    0  501  502 -0.00000000000E+00 -0.00000000000E+00 -0.10955012612E+03  0.10955012612E+03  0.00000000000E+00 0.  1.
         25    1    1    2    0    0 -0.26699812061E+03 -0.49897236071E+01  0.46197787945E+03  0.54805241980E+03  0.12500000000E+03 0.  0.
         25    1    1    2    0    0  0.26699812061E+03  0.49897236071E+01  0.26025815890E+03  0.39328387079E+03  0.12500000000E+03 0.  0.
</event>
<event>
 4    0  0.2185218E-002  0.1937205E+03  0.7546771E-02  0.1155148E+00
         21   -1    0    0  502  501  0.00000000000E+00  0.00000000000E+00  0.19103354857E+03  0.19103354857E+03  0.00000000000E+00 0. -1.
         21   -1    0    0  501  502 -0.00000000000E+00 -0.00000000000E+00 -0.19644516466E+03  0.19644516466E+03  0.00000000000E+00 0. -1.
         25    1    1    2    0    0  0.98937216106E+02  0.13241848687E+02 -0.11198081333E+03  0.19526551627E+03  0.12500000000E+03 0.  0.
         25    1    1    2    0    0 -0.98937216106E+02 -0.13241848687E+02  0.10656919724E+03  0.19221319696E+03  0.12500000000E+03 0.  0.
</event>
<event>
 4    0  0.2185218E-002  0.1619306E+03  0.7546771E-02  0.1186534E+00
         21   -1    0    0  502  501  0.00000000000E+00  0.00000000000E+00  0.23279758828E+03  0.23279758828E+03  0.00000000000E+00 0.  1.
         21   -1    0    0  501  502 -0.00000000000E+00 -0.00000000000E+00 -0.11263654805E+03  0.11263654805E+03  0.00000000000E+00 0.  1.
         25    1    1    2    0    0  0.81591619107E+02  0.27529602998E+02  0.12024201087E+03  0.19364455202E+03  0.12500000000E+03 0.  0.
         25    1    1    2    0    0 -0.81591619107E+02 -0.27529602998E+02 -0.80970642476E-01  0.15178958431E+03  0.12500000000E+03 0.  0.
</event>
<event>
 4    0  0.2185218E-002  0.1895299E+03  0.7546771E-02  0.1158886E+00
         21   -1    0    0  502  501  0.00000000000E+00  0.00000000000E+00  0.40992864229E+03  0.40992864229E+03  0.00000000000E+00 0.  1.
         21   -1    0    0  501  502 -0.00000000000E+00 -0.00000000000E+00 -0.87628906606E+02  0.87628906606E+02  0.00000000000E+00 0.  1.
         25    1    1    2    0    0 -0.12783549810E+03 -0.19186444805E+02  0.23975932849E+03  0.29969913220E+03  0.12500000000E+03 0.  0.
         25    1    1    2    0    0  0.12783549810E+03  0.19186444805E+02  0.82540407188E+02  0.19785841670E+03  0.12500000000E+03 0.  0.
</event>
<event>
 4    0  0.2185218E-002  0.3218688E+03  0.7546771E-02  0.1074792E+00
         21   -1    0    0  502  501  0.00000000000E+00  0.00000000000E+00  0.10874448999E+03  0.10874448999E+03  0.00000000000E+00 0. -1.
         21   -1    0    0  501  502 -0.00000000000E+00 -0.00000000000E+00 -0.95268781968E+03  0.95268781968E+03  0.00000000000E+00 0. -1.
         25    1    1    2    0    0  0.18530506568E+02  0.25711837605E+03 -0.66386156969E+03  0.72304247640E+03  0.12500000000E+03 0.  0.
         25    1    1    2    0    0 -0.18530506568E+02 -0.25711837605E+03 -0.18008176000E+03  0.33838983327E+03  0.12500000000E+03 0.  0.
</event>
<event>
 4    0  0.2185218E-002  0.2294572E+03  0.7546771E-02  0.1127022E+00
         21   -1    0    0  502  501  0.00000000000E+00  0.00000000000E+00  0.92796004401E+03  0.92796004401E+03  0.00000000000E+00 0.  1.
         21   -1    0    0  501  502 -0.00000000000E+00 -0.00000000000E+00 -0.56737988871E+02  0.56737988871E+02  0.00000000000E+00 0.  1.
         25    1    1    2    0    0 -0.17860605909E+03  0.49638780015E+02  0.54630677451E+03  0.59028825560E+03  0.12500000000E+03 0.  0.
         25    1    1    2    0    0  0.17860605909E+03 -0.49638780015E+02  0.32491528063E+03  0.39440977728E+03  0.12500000000E+03 0.  0.
</event>
<event>
 4    0  0.2185218E-002  0.1957308E+03  0.7546771E-02  0.1153392E+00
         21   -1    0    0  502  501  0.00000000000E+00  0.00000000000E+00  0.53676405659E+03  0.53676405659E+03  0.00000000000E+00 0.  1.
         21   -1    0    0  501  502 -0.00000000000E+00 -0.00000000000E+00 -0.71373128182E+02  0.71373128182E+02  0.00000000000E+00 0.  1.
         25    1    1    2    0    0 -0.66260087460E+02  0.10971278976E+03  0.10979928052E+03  0.21001946917E+03  0.12500000000E+03 0.  0.
         25    1    1    2    0    0  0.66260087460E+02 -0.10971278976E+03  0.35559164788E+03  0.39811771560E+03  0.12500000000E+03 0.  0.
</event>
<event>
 4    0  0.2185218E-002  0.2311819E+03  0.7546771E-02  0.1125811E+00
         21   -1    0    0  502  501  0.00000000000E+00  0.00000000000E+00  0.69464355375E+03  0.69464355375E+03  0.00000000000E+00 0.  1.
         21   -1    0    0  501  502 -0.00000000000E+00 -0.00000000000E+00 -0.76938852597E+02  0.76938852597E+02  0.00000000000E+00 0.  1.
         25    1    1    2    0    0  0.48549406548E+02  0.11003193282E+03  0.53818539818E+02  0.18161912439E+03  0.12500000000E+03 0.  0.
         25    1    1    2    0    0 -0.48549406548E+02 -0.11003193282E+03  0.56388616133E+03  0.58996328196E+03  0.12500000000E+03 0.  0.
</event>
<event>
 4    0  0.2185218E-002  0.2099999E+03  0.7546771E-02  0.1141566E+00
         21   -1    0    0  502  501  0.00000000000E+00  0.00000000000E+00  0.24497444727E+03  0.24497444727E+03  0.00000000000E+00 0.  1.
         21   -1    0    0  501  502 -0.00000000000E+00 -0.00000000000E+00 -0.18001852911E+03  0.18001852911E+03  0.00000000000E+00 0.  1.
         25    1    1    2    0    0  0.14845318073E+03  0.77822099405E+02  0.12744477668E+02  0.20948042328E+03  0.12500000000E+03 0.  0.
         25    1    1    2    0    0 -0.14845318073E+03 -0.77822099405E+02  0.52211440500E+02  0.21551255310E+03  0.12500000000E+03 0.  0.
</event>
<event>
 4    0  0.2185218E-002  0.1944963E+03  0.7546771E-02  0.1154467E+00
         21   -1    0    0  502  501  0.00000000000E+00  0.00000000000E+00  0.15167558134E+03  0.15167558134E+03  0.00000000000E+00 0. -1.
         21   -1    0    0  501  502 -0.00000000000E+00 -0.00000000000E+00 -0.24940617605E+03  0.24940617605E+03  0.00000000000E+00 0. -1.
         25    1    1    2    0    0 -0.14210881971E+03  0.15368571315E+02 -0.54531571593E+01  0.18996275042E+03  0.12500000000E+03 0.  0.
         25    1    1    2    0    0  0.14210881971E+03 -0.15368571315E+02 -0.92277437557E+02  0.21111900697E+03  0.12500000000E+03 0.  0.
</event>
<event>
 4    0  0.2185218E-002  0.2918912E+03  0.7546771E-02  0.1089366E+00
         21   -1    0    0  502  501  0.00000000000E+00  0.00000000000E+00  0.11907200008E+04  0.11907200008E+04  0.00000000000E+00 0. -1.
         21   -1    0    0  501  502 -0.00000000000E+00 -0.00000000000E+00 -0.71553737628E+02  0.71553737628E+02  0.00000000000E+00 0. -1.
         25    1    1    2    0    0 -0.10434873120E+03  0.21374847480E+03  0.80610047895E+03  0.84970586108E+03  0.12500000000E+03 0.  0.
         25    1    1    2    0    0  0.10434873120E+03 -0.21374847480E+03  0.31306578427E+03  0.41256787740E+03  0.12500000000E+03 0.  0.
</event>
<event>
 4    0  0.2185218E-002  0.2915321E+03  0.7546771E-02  0.1089552E+00
         21   -1    0    0  502  501  0.00000000000E+00  0.00000000000E+00  0.14591645640E+03  0.14591645640E+03  0.00000000000E+00 0.  1.
         21   -1    0    0  501  502 -0.00000000000E+00 -0.00000000000E+00 -0.58246300405E+03  0.58246300405E+03  0.00000000000E+00 0.  1.
         25    1    1    2    0    0  0.31418141203E+02 -0.24499361563E+03 -0.10407337769E+03  0.29574522691E+03  0.12500000000E+03 0.  0.
         25    1    1    2    0    0 -0.31418141203E+02  0.24499361563E+03 -0.33247316995E+03  0.43263423354E+03  0.12500000000E+03 0.  0.
</event>
<event>
 4    0  0.2185218E-002  0.1436035E+03  0.7546771E-02  0.1208561E+00
         21   -1    0    0  502  501  0.00000000000E+00  0.00000000000E+00  0.18132080984E+03  0.18132080984E+03  0.00000000000E+00 0. -1.
         21   -1    0    0  501  502 -0.00000000000E+00 -0.00000000000E+00 -0.11373193728E+03  0.11373193728E+03  0.00000000000E+00 0. -1.
         25    1    1    2    0    0 -0.40112083275E+02 -0.53933070164E+02  0.56283342084E+02  0.15267799409E+03  0.12500000000E+03 0.  0.
         25    1    1    2    0    0  0.40112083275E+02  0.53933070164E+02  0.11305530485E+02  0.14237475303E+03  0.12500000000E+03 0.  0.
</event>
<event>
 4    0  0.2185218E-002  0.2523668E+03  0.7546771E-02  0.1111818E+00
         21   -1    0    0  502  501  0.00000000000E+00  0.00000000000E+00  0.85409922692E+03  0.85409922692E+03  0.00000000000E+00 0.  1.
         21   -1    0    0  501  502 -0.00000000000E+00 -0.00000000000E+00 -0.74568645847E+02  0.74568645847E+02  0.00000000000E+00 0.  1.
         25    1    1    2    0    0  0.20665267536E+02 -0.25849310331E+02  0.78851720868E+03  0.79904920281E+03  0.12500000000E+03 0.  0.
         25    1    1    2    0    0 -0.20665267536E+02  0.25849310331E+02 -0.89866276030E+01  0.12961866996E+03  0.12500000000E+03 0.  0.
</event>
<event>
 4    0  0.2185218E-002  0.2073801E+03  0.7546771E-02  0.1143658E+00
         21   -1    0    0  502  501  0.00000000000E+00  0.00000000000E+00  0.27139157583E+03  0.27139157583E+03  0.00000000000E+00 0. -1.
         21   -1    0    0  501  502 -0.00000000000E+00 -0.00000000000E+00 -0.15846658431E+03  0.15846658431E+03  0.00000000000E+00 0. -1.
         25    1    1    2    0    0 -0.35545608200E+02 -0.55261239787E+02 -0.10093483334E+03  0.17358034297E+03  0.12500000000E+03 0.  0.
         25    1    1    2    0    0  0.35545608200E+02  0.55261239787E+02  0.21385982486E+03  0.25627781717E+03  0.12500000000E+03 0.  0.
</event>
<event>
 4    0  0.2185218E-002  0.1873425E+03  0.7546771E-02  0.1160880E+00
         21   -1    0    0  502  501  0.00000000000E+00  0.00000000000E+00  0.13690407039E+03  0.13690407039E+03  0.00000000000E+00 0.  1.
         21   -1    0    0  501  502 -0.00000000000E+00 -0.00000000000E+00 -0.25636340888E+03  0.25636340888E+03  0.00000000000E+00 0.  1.
         25    1    1    2    0    0  0.12188504143E+03  0.60274715983E+02 -0.26818717093E+02  0.18663667458E+03  0.12500000000E+03 0.  0.
         25    1    1    2    0    0 -0.12188504143E+03 -0.60274715983E+02 -0.92640621399E+02  0.20663080469E+03  0.12500000000E+03 0.  0.
</event>
<event>
 4    0  0.2185218E-002  0.2038828E+03  0.7546771E-02  0.1146504E+00
         21   -1    0    0  502  501  0.00000000000E+00  0.00000000000E+00  0.83096296305E+03  0.83096296305E+03  0.00000000000E+00 0. -1.
         21   -1    0    0  501  502 -0.00000000000E+00 -0.00000000000E+00 -0.50024109924E+02  0.50024109924E+02  0.00000000000E+00 0. -1.
         25    1    1    2    0    0  0.51026349800E+02  0.88761733638E+02  0.65911252582E+03  0.67862851062E+03  0.12500000000E+03 0.  0.
         25    1    1    2    0    0 -0.51026349800E+02 -0.88761733638E+02  0.12182632730E+03  0.20235856235E+03  0.12500000000E+03 0.  0.
</event>
<event>
 4    0  0.2185218E-002  0.2820866E+03  0.7546771E-02  0.1094555E+00
         21   -1    0    0  502  501  0.00000000000E+00  0.00000000000E+00  0.12283054641E+04  0.12283054641E+04  0.00000000000E+00 0.  1.
         21   -1    0    0  501  502 -0.00000000000E+00 -0.00000000000E+00 -0.64782606170E+02  0.64782606170E+02  0.00000000000E+00 0.  1.
         25    1    1    2    0    0 -0.50912257046E+02 -0.33783551994E+02  0.19334578591E+02  0.14047139293E+03  0.12500000000E+03 0.  0.
         25    1    1    2    0    0  0.50912257046E+02  0.33783551994E+02  0.11441882794E+04  0.11526166774E+04  0.12500000000E+03 0.  0.
</event>
<event>
 4    0  0.2185218E-002  0.2105836E+03  0.7546771E-02  0.1141105E+00
         21   -1    0    0  502  501  0.00000000000E+00  0.00000000000E+00  0.23837545804E+03  0.23837545804E+03  0.00000000000E+00 0. -1.
         21   -1    0    0  501  502 -0.00000000000E+00 -0.00000000000E+00 -0.18603201791E+03  0.18603201791E+03  0.00000000000E+00 0. -1.
         25    1    1    2    0    0 -0.12661201842E+03  0.97214019402E+02 -0.31180985410E+02  0.20513025771E+03  0.12500000000E+03 0.  0.
         25    1    1    2    0    0  0.12661201842E+03 -0.97214019402E+02  0.83524425543E+02  0.21927721824E+03  0.12500000000E+03 0.  0.
</event>
<event>
 4    0  0.2185218E-002  0.1761713E+03  0.7546771E-02  0.1171561E+00
         21   -1    0    0  502  501  0.00000000000E+00  0.00000000000E+00  0.75715629083E+02  0.75715629083E+02  0.00000000000E+00 0. -1.
         21   -1    0    0  501  502 -0.00000000000E+00 -0.00000000000E+00 -0.40990655560E+03  0.40990655560E+03  0.00000000000E+00 0. -1.
         25    1    1    2    0    0  0.47729572042E+02 -0.56995551922E+02 -0.30412546999E+03  0.33711111889E+03  0.12500000000E+03 0.  0.
         25    1    1    2    0    0 -0.47729572042E+02  0.56995551922E+02 -0.30065456532E+02  0.14851106579E+03  0.12500000000E+03 0.  0.
</event>
<event>
 4    0  0.2185218E-002  0.2416995E+03  0.7546771E-02  0.1118666E+00
         21   -1    0    0  502  501  0.00000000000E+00  0.00000000000E+00  0.43288673643E+03  0.43288673643E+03  0.00000000000E+00 0. -1.
         21   -1    0    0  501  502 -0.00000000000E+00 -0.00000000000E+00 -0.13495136440E+03  0.13495136440E+03  0.00000000000E+00 0. -1.
         25    1    1    2    0    0 -0.77649389284E+02 -0.18682383418E+03  0.19964360464E+03  0.31050787678E+03  0.12500000000E+03 0.  0.
         25    1    1    2    0    0  0.77649389284E+02  0.18682383418E+03  0.98291767384E+02  0.25733022405E+03  0.12500000000E+03 0.  0.
</event>
<event>
 4    0  0.2185218E-002  0.2885021E+03  0.7546771E-02  0.1091134E+00
         21   -1    0    0  502  501  0.00000000000E+00  0.00000000000E+00  0.19135554801E+03  0.19135554801E+03  0.00000000000E+00 0. -1.
         21   -1    0    0  501  502 -0.00000000000E+00 -0.00000000000E+00 -0.43496769458E+03  0.43496769458E+03  0.00000000000E+00 0. -1.
         25    1    1    2    0    0 -0.13599676546E+03  0.20719314861E+03 -0.36443617341E+02  0.27995938686E+03  0.12500000000E+03 0.  0.
         25    1    1    2    0    0  0.13599676546E+03 -0.20719314861E+03 -0.20716852923E+03  0.34636385572E+03  0.12500000000E+03 0.  0.
</event>
<event>
 4    0  0.2185218E-002  0.2119984E+03  0.7546771E-02  0.1139993E+00
         21   -1    0    0  502  501  0.00000000000E+00  0.00000000000E+00  0.10281109781E+04  0.10281109781E+04  0.00000000000E+00 0. -1.
         21   -1    0    0  501  502 -0.00000000000E+00 -0.00000000000E+00 -0.43714457340E+02  0.43714457340E+02  0.00000000000E+00 0. -1.
         25    1    1    2    0    0  0.16130851046E+03 -0.54700917731E+02  0.44800048695E+03  0.49532016137E+03  0.12500000000E+03 0.  0.
         25    1    1    2    0    0 -0.16130851046E+03  0.54700917731E+02  0.53639603381E+03  0.57650527408E+03  0.12500000000E+03 0.  0.
</event>
<event>
 4    0  0.2185218E-002  0.1509151E+03  0.7546771E-02  0.1199353E+00
         21   -1    0    0  502  501  0.00000000000E+00  0.00000000000E+00  0.34599493014E+03  0.34599493014E+03  0.00000000000E+00 0.  1.
         21   -1    0    0  501  502 -0.00000000000E+00 -0.00000000000E+00 -0.65825725450E+02  0.65825725450E+02  0.00000000000E+00 0.  1.
         25    1    1    2    0    0 -0.65351084657E+02 -0.29038067031E+02  0.78513588459E+02  0.16402242888E+03  0.12500000000E+03 0.  0.
         25    1    1    2    0    0  0.65351084657E+02  0.29038067031E+02  0.20165561623E+03  0.24779822671E+03  0.12500000000E+03 0.  0.
</event>
<event>
 4    0  0.2185218E-002  0.2562236E+03  0.7546771E-02  0.1109434E+00
         21   -1    0    0  502  501  0.00000000000E+00  0.00000000000E+00  0.24820064911E+04  0.24820064911E+04  0.00000000000E+00 0.  1.
         21   -1    0    0  501  502 -0.00000000000E+00 -0.00000000000E+00 -0.26450591803E+02  0.26450591803E+02  0.00000000000E+00 0.  1.
         25    1    1    2    0    0  0.35538031238E+02 -0.19804624374E+03  0.17058990996E+04  0.17222665312E+04  0.12500000000E+03 0.  0.
         25    1    1    2    0    0 -0.35538031238E+02  0.19804624374E+03  0.74965679964E+03  0.78619055169E+03  0.12500000000E+03 0.  0.
</event>
<event>
 4    0  0.2185218E-002  0.3402894E+03  0.7546771E-02  0.1066673E+00
         21   -1    0    0  502  501  0.00000000000E+00  0.00000000000E+00  0.54995061721E+03  0.54995061721E+03  0.00000000000E+00 0. -1.
         21   -1    0    0  501  502 -0.00000000000E+00 -0.00000000000E+00 -0.21055865728E+03  0.21055865728E+03  0.00000000000E+00 0. -1.
         25    1    1    2    0    0  0.15717487861E+02 -0.27351622879E+03  0.34678084439E+03  0.45928218001E+03  0.12500000000E+03 0.  0.
         25    1    1    2    0    0 -0.15717487861E+02  0.27351622879E+03 -0.73888844546E+01  0.30122709448E+03  0.12500000000E+03 0.  0.
</event>
<event>
 4    0  0.2185218E-002  0.2447786E+03  0.7546771E-02  0.1116650E+00
         21   -1    0    0  502  501  0.00000000000E+00  0.00000000000E+00  0.10856274425E+03  0.10856274425E+03  0.00000000000E+00 0. -1.
         21   -1    0    0  501  502 -0.00000000000E+00 -0.00000000000E+00 -0.55190704530E+03  0.55190704530E+03  0.00000000000E+00 0.  1.
         25    1    1    2    0    0  0.99427180354E+01 -0.21012137386E+03 -0.21296078081E+03  0.32438733569E+03  0.12500000000E+03 0.  0.
         25    1    1    2    0    0 -0.99427180354E+01  0.21012137386E+03 -0.23038352024E+03  0.33608245386E+03  0.12500000000E+03 0.  0.
</event>
<event>
 4    0  0.2185218E-002  0.1795477E+03  0.7546771E-02  0.1168242E+00
         21   -1    0    0  502  501  0.00000000000E+00  0.00000000000E+00  0.71981533751E+02  0.71981533751E+02  0.00000000000E+00 0. -1.
         21   -1    0    0  501  502 -0.00000000000E+00 -0.00000000000E+00 -0.44785607505E+03  0.44785607505E+03  0.00000000000E+00 0. -1.
         25    1    1    2    0    0  0.56495891516E+02 -0.11294456515E+03 -0.15063143051E+03  0.23294438910E+03  0.12500000000E+03 0.  0.
         25    1    1    2    0    0 -0.56495891516E+02  0.11294456515E+03 -0.22524311079E+03  0.28689321971E+03  0.12500000000E+03 0.  0.
</event>
<event>
 4    0  0.2185218E-002  0.1697969E+03  0.7546771E-02  0.1178060E+00
         21   -1    0    0  502  501  0.00000000000E+00  0.00000000000E+00  0.11198129274E+04  0.11198129274E+04  0.00000000000E+00 0. -1.
         21   -1    0    0  501  502 -0.00000000000E+00 -0.00000000000E+00 -0.25746257123E+02  0.25746257123E+02  0.00000000000E+00 0. -1.
         25    1    1    2    0    0 -0.12150368947E+02 -0.47851666298E+02  0.19697781700E+03  0.23845895627E+03  0.12500000000E+03 0.  0.
         25    1    1    2    0    0  0.12150368947E+02  0.47851666298E+02  0.89708885324E+03  0.90710022822E+03  0.12500000000E+03 0.  0.
</event>
<event>
 4    0  0.2185218E-002  0.2259582E+03  0.7546771E-02  0.1129517E+00
         21   -1    0    0  502  501  0.00000000000E+00  0.00000000000E+00  0.24619777574E+02  0.24619777574E+02  0.00000000000E+00 0.  1.
         21   -1    0    0  501  502 -0.00000000000E+00 -0.00000000000E+00 -0.20738248418E+04  0.20738248418E+04  0.00000000000E+00 0.  1.
         25    1    1    2    0    0 -0.11581964167E+03 -0.98004275522E+02 -0.50725881885E+03  0.54401795625E+03  0.12500000000E+03 0.  0.
         25    1    1    2    0    0  0.11581964167E+03  0.98004275522E+02 -0.15419462454E+04  0.15544266631E+04  0.12500000000E+03 0.  0.
</event>
<event>
 4    0  0.2185218E-002  0.3985842E+03  0.7546771E-02  0.1044271E+00
         21   -1    0    0  502  501  0.00000000000E+00  0.00000000000E+00  0.27446486560E+03  0.27446486560E+03  0.00000000000E+00 0.  1.
         21   -1    0    0  501  502 -0.00000000000E+00 -0.00000000000E+00 -0.57883328535E+03  0.57883328535E+03  0.00000000000E+00 0.  1.
         25    1    1    2    0    0  0.31600726618E+03 -0.20317380221E+03 -0.20128580506E+03  0.44416344008E+03  0.12500000000E+03 0.  0.
         25    1    1    2    0    0 -0.31600726618E+03  0.20317380221E+03 -0.10308261470E+03  0.40913471087E+03  0.12500000000E+03 0.  0.
</event>
<event>
 4    0  0.2185218E-002  0.1880744E+03  0.7546771E-02  0.1160210E+00
         21   -1    0    0  502  501  0.00000000000E+00  0.00000000000E+00  0.45549304128E+02  0.45549304128E+02  0.00000000000E+00 0. -1.
         21   -1    0    0  501  502 -0.00000000000E+00 -0.00000000000E+00 -0.77656505862E+03  0.77656505862E+03  0.00000000000E+00 0. -1.
         25    1    1    2    0    0  0.12541935665E+03  0.39893733522E+02 -0.47314712876E+03  0.50676891228E+03  0.12500000000E+03 0.  0.
         25    1    1    2    0    0 -0.12541935665E+03 -0.39893733522E+02 -0.25786862573E+03  0.31534545047E+03  0.12500000000E+03 0.  0.
</event>
<event>
 4    0  0.2185218E-002  0.1932371E+03  0.7546771E-02  0.1155574E+00
         21   -1    0    0  502  501  0.00000000000E+00  0.00000000000E+00  0.83053239666E+02  0.83053239666E+02  0.00000000000E+00 0.  1.
         21   -1    0    0  501  502 -0.00000000000E+00 -0.00000000000E+00 -0.44959809092E+03  0.44959809092E+03  0.00000000000E+00 0.  1.
         25    1    1    2    0    0 -0.62874656280E+02 -0.68353029978E+02 -0.25585401639E+02  0.15781309162E+03  0.12500000000E+03 0.  0.
         25    1    1    2    0    0  0.62874656280E+02  0.68353029978E+02 -0.34095944962E+03  0.37483823897E+03  0.12500000000E+03 0.  0.
</event>
<event>
 4    0  0.2185218E-002  0.1675285E+03  0.7546771E-02  0.1180450E+00
         21   -1    0    0  502  501  0.00000000000E+00  0.00000000000E+00  0.16241038899E+03  0.16241038899E+03  0.00000000000E+00 0.  1.
         21   -1    0    0  501  502 -0.00000000000E+00 -0.00000000000E+00 -0.17280789337E+03  0.17280789337E+03  0.00000000000E+00 0.  1.
         25    1    1    2    0    0  0.67644791470E+02  0.89762383030E+01 -0.93470507606E+02  0.17034707646E+03  0.12500000000E+03 0.  0.
         25    1    1    2    0    0 -0.67644791470E+02 -0.89762383030E+01  0.83073003234E+02  0.16487120590E+03  0.12500000000E+03 0.  0.
</event>
<event>
 4    0  0.2185218E-002  0.3052321E+03  0.7546771E-02  0.1082654E+00
         21   -1    0    0  502  501  0.00000000000E+00  0.00000000000E+00  0.35289448458E+03  0.35289448458E+03  0.00000000000E+00 0. -1.
         21   -1    0    0  501  502 -0.00000000000E+00 -0.00000000000E+00 -0.26400698808E+03  0.26400698808E+03  0.00000000000E+00 0.  1.
         25    1    1    2    0    0 -0.22702764500E+03  0.15493033374E+03 -0.71133467179E+00  0.30194447487E+03  0.12500000000E+03 0.  0.
         25    1    1    2    0    0  0.22702764500E+03 -0.15493033374E+03  0.89598831171E+02  0.31495699779E+03  0.12500000000E+03 0.  0.
</event>
<event>
 4    0  0.2185218E-002  0.2081986E+03  0.7546771E-02  0.1143000E+00
         21   -1    0    0  502  501  0.00000000000E+00  0.00000000000E+00  0.26401248193E+03  0.26401248193E+03  0.00000000000E+00 0. -1.
         21   -1    0    0  501  502 -0.00000000000E+00 -0.00000000000E+00 -0.16418410748E+03  0.16418410748E+03  0.00000000000E+00 0. -1.
         25    1    1    2    0    0 -0.75967594416E+02 -0.71444207258E+02 -0.83557063775E+02  0.18298123690E+03  0.12500000000E+03 0.  0.
         25    1    1    2    0    0  0.75967594416E+02  0.71444207258E+02  0.18338543823E+03  0.24521535251E+03  0.12500000000E+03 0.  0.
</event>
<event>
 4    0  0.2185218E-002  0.1991934E+03  0.7546771E-02  0.1150421E+00
         21   -1    0    0  502  501  0.00000000000E+00  0.00000000000E+00  0.35753920145E+02  0.35753920145E+02  0.00000000000E+00 0.  1.
         21   -1    0    0  501  502 -0.00000000000E+00 -0.00000000000E+00 -0.11097528250E+04  0.11097528250E+04  0.00000000000E+00 0.  1.
         25    1    1    2    0    0 -0.10791151712E+03 -0.96423265712E+02 -0.69736822897E+03  0.72311118680E+03  0.12500000000E+03 0.  0.
         25    1    1    2    0    0  0.10791151712E+03  0.96423265712E+02 -0.37663067592E+03  0.42239555838E+03  0.12500000000E+03 0.  0.
</event>
<event>
 4    0  0.2185218E-002  0.5534876E+03  0.7546771E-02  0.1000690E+00
         21   -1    0    0  502  501  0.00000000000E+00  0.00000000000E+00  0.41552747708E+03  0.41552747708E+03  0.00000000000E+00 0.  1.
         21   -1    0    0  501  502 -0.00000000000E+00 -0.00000000000E+00 -0.73725216356E+03  0.73725216356E+03  0.00000000000E+00 0.  1.
         25    1    1    2    0    0 -0.23079911012E+03  0.84826931941E+02 -0.66057156276E+03  0.71585167956E+03  0.12500000000E+03 0.  0.
         25    1    1    2    0    0  0.23079911012E+03 -0.84826931941E+02  0.33884687627E+03  0.43692796108E+03  0.12500000000E+03 0.  0.
</event>
<event>
 4    0  0.2185218E-002  0.2640919E+03  0.7546771E-02  0.1104709E+00
         21   -1    0    0  502  501  0.00000000000E+00  0.00000000000E+00  0.39905103117E+03  0.39905103117E+03  0.00000000000E+00 0.  1.
         21   -1    0    0  501  502 -0.00000000000E+00 -0.00000000000E+00 -0.17477596350E+03  0.17477596350E+03  0.00000000000E+00 0. -1.
         25    1    1    2    0    0  0.21648727679E+03 -0.78201407677E+02  0.14877611421E+03  0.30123335362E+03  0.12500000000E+03 0.  0.
         25    1    1    2    0    0 -0.21648727679E+03  0.78201407677E+02  0.75498953461E+02  0.27259364106E+03  0.12500000000E+03 0.  0.
</event>
<event>
 4    0  0.2185218E-002  0.2024335E+03  0.7546771E-02  0.1147702E+00
         21   -1    0    0  502  501  0.00000000000E+00  0.00000000000E+00  0.32451329797E+03  0.32451329797E+03  0.00000000000E+00 0.  1.
         21   -1    0    0  501  502 -0.00000000000E+00 -0.00000000000E+00 -0.12627929791E+03  0.12627929791E+03  0.00000000000E+00 0.  1.
         25    1    1    2    0    0 -0.79122227080E+02 -0.20963150315E+02 -0.52957576904E+02  0.15852219227E+03  0.12500000000E+03 0.  0.
         25    1    1    2    0    0  0.79122227080E+02  0.20963150315E+02  0.25119157696E+03  0.29227040361E+03  0.12500000000E+03 0.  0.
</event>
<event>
 4    0  0.2185218E-002  0.2818454E+03  0.7546771E-02  0.1094685E+00
         21   -1    0    0  502  501  0.00000000000E+00  0.00000000000E+00  0.16976324111E+03  0.16976324111E+03  0.00000000000E+00 0.  1.
         21   -1    0    0  501  502 -0.00000000000E+00 -0.00000000000E+00 -0.46792713690E+03  0.46792713690E+03  0.00000000000E+00 0.  1.
         25    1    1    2    0    0 -0.22104572008E+03  0.51188739652E+02 -0.23462676006E+02  0.26010958191E+03  0.12500000000E+03 0.  0.
         25    1    1    2    0    0  0.22104572008E+03 -0.51188739652E+02 -0.27470121979E+03  0.37758079610E+03  0.12500000000E+03 0.  0.
</event>
<event>
 4    0  0.2185218E-002  0.2175866E+03  0.7546771E-02  0.1135695E+00
         21   -1    0    0  502  501  0.00000000000E+00  0.00000000000E+00  0.66741117974E+03  0.66741117974E+03  0.00000000000E+00 0. -1.
         21   -1    0    0  501  502 -0.00000000000E+00 -0.00000000000E+00 -0.70936656134E+02  0.70936656134E+02  0.00000000000E+00 0. -1.
         25    1    1    2    0    0  0.16591314509E+03 -0.14651176727E+02  0.40523671354E+03  0.45561345754E+03  0.12500000000E+03 0.  0.
         25    1    1    2    0    0 -0.16591314509E+03  0.14651176727E+02  0.19123781006E+03  0.28273437833E+03  0.12500000000E+03 0.  0.
</event>
<event>
 4    0  0.2185218E-002  0.2046235E+03  0.7546771E-02  0.1145896E+00
         21   -1    0    0  502  501  0.00000000000E+00  0.00000000000E+00  0.48252316322E+02  0.48252316322E+02  0.00000000000E+00 0. -1.
         21   -1    0    0  501  502 -0.00000000000E+00 -0.00000000000E+00 -0.86774653426E+03  0.86774653426E+03  0.00000000000E+00 0. -1.
         25    1    1    2    0    0  0.15849054566E+03 -0.89957840864E+01 -0.48212281768E+03  0.52275002489E+03  0.12500000000E+03 0.  0.
         25    1    1    2    0    0 -0.15849054566E+03  0.89957840864E+01 -0.33737140027E+03  0.39324882570E+03  0.12500000000E+03 0.  0.
</event>
<event>
 4    0  0.2185218E-002  0.5047620E+03  0.7546771E-02  0.1012543E+00
         21   -1    0    0  502  501  0.00000000000E+00  0.00000000000E+00  0.18105298412E+03  0.18105298412E+03  0.00000000000E+00 0. -1.
         21   -1    0    0  501  502 -0.00000000000E+00 -0.00000000000E+00 -0.14072383583E+04  0.14072383583E+04  0.00000000000E+00 0. -1.
         25    1    1    2    0    0 -0.19800227520E+03  0.44615126692E+03 -0.56579262400E+03  0.75762929414E+03  0.12500000000E+03 0.  0.
         25    1    1    2    0    0  0.19800227520E+03 -0.44615126692E+03 -0.66039275013E+03  0.83066204824E+03  0.12500000000E+03 0.  0.
</event>
<event>
 4    0  0.2185218E-002  0.2099532E+03  0.7546771E-02  0.1141603E+00
         21   -1    0    0  502  501  0.00000000000E+00  0.00000000000E+00  0.11053245267E+03  0.11053245267E+03  0.00000000000E+00 0.  1.
         21   -1    0    0  501  502 -0.00000000000E+00 -0.00000000000E+00 -0.39879998420E+03  0.39879998420E+03  0.00000000000E+00 0.  1.
         25    1    1    2    0    0  0.15251385419E+03 -0.57551962387E+02 -0.19676360970E+03  0.28445319861E+03  0.12500000000E+03 0.  0.
         25    1    1    2    0    0 -0.15251385419E+03  0.57551962387E+02 -0.91503921832E+02  0.22487923827E+03  0.12500000000E+03 0.  0.
</event>
<event>
 4    0  0.2185218E-002  0.1999801E+03  0.7546771E-02  0.1149756E+00
         21   -1    0    0  502  501  0.00000000000E+00  0.00000000000E+00  0.27534096058E+03  0.27534096058E+03  0.00000000000E+00 0. -1.
         21   -1    0    0  501  502 -0.00000000000E+00 -0.00000000000E+00 -0.14524544899E+03  0.14524544899E+03  0.00000000000E+00 0. -1.
         25    1    1    2    0    0  0.23981355506E+02 -0.15413652881E+03  0.71165559918E+02  0.21218555993E+03  0.12500000000E+03 0.  0.
         25    1    1    2    0    0 -0.23981355506E+02  0.15413652881E+03  0.58929951681E+02  0.20840084964E+03  0.12500000000E+03 0.  0.
</event>
<event>
 4    0  0.2185218E-002  0.1942969E+03  0.7546771E-02  0.1154642E+00
         21   -1    0    0  502  501  0.00000000000E+00  0.00000000000E+00  0.62568996880E+03  0.62568996880E+03  0.00000000000E+00 0.  1.
         21   -1    0    0  501  502 -0.00000000000E+00 -0.00000000000E+00 -0.60335447988E+02  0.60335447988E+02  0.00000000000E+00 0.  1.
         25    1    1    2    0    0 -0.36419247982E+02  0.13574246669E+03  0.36869263275E+03  0.41389809897E+03  0.12500000000E+03 0.  0.
         25    1    1    2    0    0  0.36419247982E+02 -0.13574246669E+03  0.19666188806E+03  0.27212731782E+03  0.12500000000E+03 0.  0.
</event>
<event>
 4    0  0.2185218E-002  0.1879407E+03  0.7546771E-02  0.1160332E+00
         21   -1    0    0  502  501  0.00000000000E+00  0.00000000000E+00  0.17085286999E+03  0.17085286999E+03  0.00000000000E+00 0.  1.
         21   -1    0    0  501  502 -0.00000000000E+00 -0.00000000000E+00 -0.20673763462E+03  0.20673763462E+03  0.00000000000E+00 0.  1.
         25    1    1    2    0    0  0.11223682331E+03 -0.24891495449E+02  0.62922241585E+02  0.18111018618E+03  0.12500000000E+03 0.  0.
         25    1    1    2    0    0 -0.11223682331E+03  0.24891495449E+02 -0.98807006219E+02  0.19648031843E+03  0.12500000000E+03 0.  0.
</event>
<event>
 4    0  0.2185218E-002  0.2046910E+03  0.7546771E-02  0.1145840E+00
         21   -1    0    0  502  501  0.00000000000E+00  0.00000000000E+00  0.12130170991E+03  0.12130170991E+03  0.00000000000E+00 0.  1.
         21   -1    0    0  501  502 -0.00000000000E+00 -0.00000000000E+00 -0.34540667636E+03  0.34540667636E+03  0.00000000000E+00 0.  1.
         25    1    1    2    0    0 -0.93924154283E+02 -0.99830958179E+02 -0.13418665830E+02  0.18599200940E+03  0.12500000000E+03 0.  0.
         25    1    1    2    0    0  0.93924154283E+02  0.99830958179E+02 -0.21068630063E+03  0.28071637687E+03  0.12500000000E+03 0.  0.
</event>
<event>
 4    0  0.2185218E-002  0.2130965E+03  0.7546771E-02  0.1139137E+00
         21   -1    0    0  502  501  0.00000000000E+00  0.00000000000E+00  0.23759500454E+03  0.23759500454E+03  0.00000000000E+00 0. -1.
         21   -1    0    0  501  502 -0.00000000000E+00 -0.00000000000E+00 -0.19112396168E+03  0.19112396168E+03  0.00000000000E+00 0. -1.
         25    1    1    2    0    0  0.10758749243E+03  0.55361555091E+02  0.14703047930E+03  0.22777825215E+03  0.12500000000E+03 0.  0.
         25    1    1    2    0    0 -0.10758749243E+03 -0.55361555091E+02 -0.10055943645E+03  0.20094071406E+03  0.12500000000E+03 0.  0.
</event>
<event>
 4    0  0.2185218E-002  0.1980384E+03  0.7546771E-02  0.1151405E+00
         21   -1    0    0  502  501  0.00000000000E+00  0.00000000000E+00  0.46443111697E+02  0.46443111697E+02  0.00000000000E+00 0. -1.
         21   -1    0    0  501  502 -0.00000000000E+00 -0.00000000000E+00 -0.84445653228E+03  0.84445653228E+03  0.00000000000E+00 0. -1.
         25    1    1    2    0    0 -0.74240011005E+02 -0.13407866519E+03 -0.37590098134E+03  0.42475312296E+03  0.12500000000E+03 0.  0.
         25    1    1    2    0    0  0.74240011005E+02  0.13407866519E+03 -0.42211243925E+03  0.46614652102E+03  0.12500000000E+03 0.  0.
</event>
<event>
 4    0  0.2185218E-002  0.2610271E+03  0.7546771E-02  0.1106528E+00
         21   -1    0    0  502  501  0.00000000000E+00  0.00000000000E+00  0.57146180761E+02  0.57146180761E+02  0.00000000000E+00 0.  1.
         21   -1    0    0  501  502 -0.00000000000E+00 -0.00000000000E+00 -0.11922956400E+04  0.11922956400E+04  0.00000000000E+00 0.  1.
         25    1    1    2    0    0 -0.50349611262E+01 -0.11630792213E+03 -0.95191301544E+02  0.19554863199E+03  0.12500000000E+03 0.  0.
         25    1    1    2    0    0  0.50349611262E+01  0.11630792213E+03 -0.10399581577E+04  0.10538931888E+04  0.12500000000E+03 0.  0.
</event>
<event>
 4    0  0.2185218E-002  0.1922566E+03  0.7546771E-02  0.1156442E+00
         21   -1    0    0  502  501  0.00000000000E+00  0.00000000000E+00  0.10185877259E+03  0.10185877259E+03  0.00000000000E+00 0. -1.
         21   -1    0    0  501  502 -0.00000000000E+00 -0.00000000000E+00 -0.36288075546E+03  0.36288075546E+03  0.00000000000E+00 0. -1.
         25    1    1    2    0    0  0.43819463880E+02  0.13767733671E+03 -0.10452109962E+03  0.21777248386E+03  0.12500000000E+03 0.  0.
         25    1    1    2    0    0 -0.43819463880E+02 -0.13767733671E+03 -0.15650088325E+03  0.24696704419E+03  0.12500000000E+03 0.  0.
</event>
<event>
 4    0  0.2185218E-002  0.2062322E+03  0.7546771E-02  0.1144585E+00
         21   -1    0    0  502  501  0.00000000000E+00  0.00000000000E+00  0.93562096094E+02  0.93562096094E+02  0.00000000000E+00 0. -1.
         21   -1    0    0  501  502 -0.00000000000E+00 -0.00000000000E+00 -0.45458293942E+03  0.45458293942E+03  0.00000000000E+00 0. -1.
         25    1    1    2    0    0  0.68947219983E+02  0.14281874924E+03 -0.23619677101E+03  0.31074881965E+03  0.12500000000E+03 0.  0.
         25    1    1    2    0    0 -0.68947219983E+02 -0.14281874924E+03 -0.12482407231E+03  0.23739621586E+03  0.12500000000E+03 0.  0.
</event>
<event>
 4    0  0.2185218E-002  0.3194085E+03  0.7546771E-02  0.1075922E+00
         21   -1    0    0  502  501  0.00000000000E+00  0.00000000000E+00  0.11511539824E+03  0.11511539824E+03  0.00000000000E+00 0.  1.
         21   -1    0    0  501  502 -0.00000000000E+00 -0.00000000000E+00 -0.88625687643E+03  0.88625687643E+03  0.00000000000E+00 0.  1.
         25    1    1    2    0    0 -0.65857495008E+02 -0.95753620327E+02  0.37638898225E+02  0.17477886633E+03  0.12500000000E+03 0.  0.
         25    1    1    2    0    0  0.65857495008E+02  0.95753620327E+02 -0.80878037642E+03  0.82659340835E+03  0.12500000000E+03 0.  0.
</event>
<event>
 4    0  0.2185218E-002  0.2093431E+03  0.7546771E-02  0.1142087E+00
         21   -1    0    0  502  501  0.00000000000E+00  0.00000000000E+00  0.35960919007E+03  0.35960919007E+03  0.00000000000E+00 0. -1.
         21   -1    0    0  501  502 -0.00000000000E+00 -0.00000000000E+00 -0.12186711807E+03  0.12186711807E+03  0.00000000000E+00 0. -1.
         25    1    1    2    0    0 -0.57147867713E+02 -0.37690598599E+02 -0.57464963964E+02  0.15366743992E+03  0.12500000000E+03 0.  0.
         25    1    1    2    0    0  0.57147867713E+02  0.37690598599E+02  0.29520703596E+03  0.32780886823E+03  0.12500000000E+03 0.  0.
</event>
<event>
 4    0  0.2185218E-002  0.2298163E+03  0.7546771E-02  0.1126769E+00
         21   -1    0    0  502  501  0.00000000000E+00  0.00000000000E+00  0.68104388236E+03  0.68104388236E+03  0.00000000000E+00 0. -1.
         21   -1    0    0  501  502 -0.00000000000E+00 -0.00000000000E+00 -0.77550832414E+02  0.77550832414E+02  0.00000000000E+00 0. -1.
         25    1    1    2    0    0 -0.26797907098E+02  0.81836028085E+02  0.16955175220E+02  0.15273421779E+03  0.12500000000E+03 0.  0.
         25    1    1    2    0    0  0.26797907098E+02 -0.81836028085E+02  0.58653787472E+03  0.60586049698E+03  0.12500000000E+03 0.  0.
</event>
<event>
 4    0  0.2185218E-002  0.2358950E+03  0.7546771E-02  0.1122558E+00
         21   -1    0    0  502  501  0.00000000000E+00  0.00000000000E+00  0.14714201079E+03  0.14714201079E+03  0.00000000000E+00 0.  1.
         21   -1    0    0  501  502 -0.00000000000E+00 -0.00000000000E+00 -0.37818184516E+03  0.37818184516E+03  0.00000000000E+00 0.  1.
         25    1    1    2    0    0 -0.12380127086E+03 -0.12059277372E+03 -0.22771030509E+03  0.31200377367E+03  0.12500000000E+03 0.  0.
         25    1    1    2    0    0  0.12380127086E+03  0.12059277372E+03 -0.33295292708E+01  0.21332008228E+03  0.12500000000E+03 0.  0.
</event>
<event>
 4    0  0.2185218E-002  0.2713632E+03  0.7546771E-02  0.1100502E+00
         21   -1    0    0  502  501  0.00000000000E+00  0.00000000000E+00  0.16746685531E+04  0.16746685531E+04  0.00000000000E+00 0. -1.
         21   -1    0    0  501  502 -0.00000000000E+00 -0.00000000000E+00 -0.43971682332E+02  0.43971682332E+02  0.00000000000E+00 0. -1.
         25    1    1    2    0    0 -0.47215092854E+01  0.22431607327E+03  0.10927357601E+04  0.11225134452E+04  0.12500000000E+03 0.  0.
         25    1    1    2    0    0  0.47215092854E+01 -0.22431607327E+03  0.53796111066E+03  0.59612679017E+03  0.12500000000E+03 0.  0.
</event>
<event>
 4    0  0.2185218E-002  0.1593714E+03  0.7546771E-02  0.1189408E+00
         21   -1    0    0  502  501  0.00000000000E+00  0.00000000000E+00  0.38008869777E+02  0.38008869777E+02  0.00000000000E+00 0. -1.
         21   -1    0    0  501  502 -0.00000000000E+00 -0.00000000000E+00 -0.66824480047E+03  0.66824480047E+03  0.00000000000E+00 0. -1.
         25    1    1    2    0    0 -0.17984957021E+02  0.48575818421E+02 -0.50170399199E+03  0.51962964157E+03  0.12500000000E+03 0.  0.
         25    1    1    2    0    0  0.17984957021E+02 -0.48575818421E+02 -0.12853193870E+03  0.18662402868E+03  0.12500000000E+03 0.  0.
</event>
<event>
 4    0  0.2185218E-002  0.1966425E+03  0.7546771E-02  0.1152603E+00
         21   -1    0    0  502  501  0.00000000000E+00  0.00000000000E+00  0.10676271288E+04  0.10676271288E+04  0.00000000000E+00 0. -1.
         21   -1    0    0  501  502 -0.00000000000E+00 -0.00000000000E+00 -0.36218900563E+02  0.36218900563E+02  0.00000000000E+00 0. -1.
         25    1    1    2    0    0  0.52257569518E+02  0.94042514764E+02  0.21512894049E+03  0.27107251649E+03  0.12500000000E+03 0.  0.
         25    1    1    2    0    0 -0.52257569518E+02 -0.94042514764E+02  0.81627928774E+03  0.83277351287E+03  0.12500000000E+03 0.  0.
</event>
<event>
 4    0  0.2185218E-002  0.3013743E+03  0.7546771E-02  0.1084556E+00
         21   -1    0    0  502  501  0.00000000000E+00  0.00000000000E+00  0.92193994902E+03  0.92193994902E+03  0.00000000000E+00 0.  1.
         21   -1    0    0  501  502 -0.00000000000E+00 -0.00000000000E+00 -0.98516658709E+02  0.98516658709E+02  0.00000000000E+00 0.  1.
         25    1    1    2    0    0  0.10817416274E+03  0.12589749687E+03  0.42148983348E+02  0.21202208847E+03  0.12500000000E+03 0.  0.
         25    1    1    2    0    0 -0.10817416274E+03 -0.12589749687E+03  0.78127430696E+03  0.80843451926E+03  0.12500000000E+03 0.  0.
</event>
<event>
 4    0  0.2185218E-002  0.3076049E+03  0.7546771E-02  0.1081500E+00
         21   -1    0    0  502  501  0.00000000000E+00  0.00000000000E+00  0.77094418885E+03  0.77094418885E+03  0.00000000000E+00 0. -1.
         21   -1    0    0  501  502 -0.00000000000E+00 -0.00000000000E+00 -0.12273359062E+03  0.12273359062E+03  0.00000000000E+00 0. -1.
         25    1    1    2    0    0  0.10008880929E+03 -0.45751545568E+02 -0.51577584802E+02  0.17434512015E+03  0.12500000000E+03 0.  0.
         25    1    1    2    0    0 -0.10008880929E+03  0.45751545568E+02  0.69978818303E+03  0.71933265933E+03  0.12500000000E+03 0.  0.
</event>
<event>
 4    0  0.2185218E-002  0.2333544E+03  0.7546771E-02  0.1124301E+00
         21   -1    0    0  502  501  0.00000000000E+00  0.00000000000E+00  0.43445010996E+03  0.43445010996E+03  0.00000000000E+00 0. -1.
         21   -1    0    0  501  502 -0.00000000000E+00 -0.00000000000E+00 -0.12534069438E+03  0.12534069438E+03  0.00000000000E+00 0. -1.
         25    1    1    2    0    0  0.12277865421E+03  0.11657277837E+03  0.27548732348E+03  0.34667286595E+03  0.12500000000E+03 0.  0.
         25    1    1    2    0    0 -0.12277865421E+03 -0.11657277837E+03  0.33622092102E+02  0.21311793839E+03  0.12500000000E+03 0.  0.
</event>
<event>
 4    0  0.2185218E-002  0.1791701E+03  0.7546771E-02  0.1168609E+00
         21   -1    0    0  502  501  0.00000000000E+00  0.00000000000E+00  0.43863081868E+02  0.43863081868E+02  0.00000000000E+00 0. -1.
         21   -1    0    0  501  502 -0.00000000000E+00 -0.00000000000E+00 -0.73186679610E+03  0.73186679610E+03  0.00000000000E+00 0. -1.
         25    1    1    2    0    0 -0.43406094382E+01 -0.10095566930E+02 -0.67144695403E+02  0.14231715105E+03  0.12500000000E+03 0.  0.
         25    1    1    2    0    0  0.43406094382E+01  0.10095566930E+02 -0.62085901883E+03  0.63341272692E+03  0.12500000000E+03 0.  0.
</event>
<event>
 4    0  0.2185218E-002  0.1875618E+03  0.7546771E-02  0.1160679E+00
         21   -1    0    0  502  501  0.00000000000E+00  0.00000000000E+00  0.25256923006E+03  0.25256923006E+03  0.00000000000E+00 0.  1.
         21   -1    0    0  501  502 -0.00000000000E+00 -0.00000000000E+00 -0.13928633273E+03  0.13928633273E+03  0.00000000000E+00 0.  1.
         25    1    1    2    0    0 -0.13411259756E+03 -0.67328450946E+01  0.15876176273E+02  0.18414280600E+03  0.12500000000E+03 0.  0.
         25    1    1    2    0    0  0.13411259756E+03  0.67328450946E+01  0.97406721053E+02  0.20771275679E+03  0.12500000000E+03 0.  0.
</event>
<event>
 4    0  0.2185218E-002  0.3293385E+03  0.7546771E-02  0.1071430E+00
         21   -1    0    0  502  501  0.00000000000E+00  0.00000000000E+00  0.28889454801E+03  0.28889454801E+03  0.00000000000E+00 0. -1.
         21   -1    0    0  501  502 -0.00000000000E+00 -0.00000000000E+00 -0.37544448312E+03  0.37544448312E+03  0.00000000000E+00 0. -1.
         25    1    1    2    0    0 -0.19134661251E+02 -0.26088332321E+03 -0.20086343720E+03  0.35270010489E+03  0.12500000000E+03 0.  0.
         25    1    1    2    0    0  0.19134661251E+02  0.26088332321E+03  0.11431350208E+03  0.31163892624E+03  0.12500000000E+03 0.  0.
</event>
<event>
 4    0  0.2185218E-002  0.2025728E+03  0.7546771E-02  0.1147586E+00
         21   -1    0    0  502  501  0.00000000000E+00  0.00000000000E+00  0.69002115897E+03  0.69002115897E+03  0.00000000000E+00 0.  1.
         21   -1    0    0  501  502 -0.00000000000E+00 -0.00000000000E+00 -0.59470256295E+02  0.59470256295E+02  0.00000000000E+00 0.  1.
         25    1    1    2    0    0  0.49337684315E+02  0.61457686101E+02  0.58944941537E+02  0.15909355866E+03  0.12500000000E+03 0.  0.
         25    1    1    2    0    0 -0.49337684315E+02 -0.61457686101E+02  0.57160596114E+03  0.59039785660E+03  0.12500000000E+03 0.  0.
</event>
<event>
 4    0  0.2185218E-002  0.3063393E+03  0.7546771E-02  0.1082114E+00
         21   -1    0    0  502  501  0.00000000000E+00  0.00000000000E+00  0.17399967678E+03  0.17399967678E+03  0.00000000000E+00 0.  1.
         21   -1    0    0  501  502 -0.00000000000E+00 -0.00000000000E+00 -0.53933282142E+03  0.53933282142E+03  0.00000000000E+00 0.  1.
         25    1    1    2    0    0 -0.15967932503E+03 -0.48975367223E+02 -0.44384732970E+03  0.49042993946E+03  0.12500000000E+03 0.  0.
         25    1    1    2    0    0  0.15967932503E+03  0.48975367223E+02  0.78514185057E+02  0.22290255874E+03  0.12500000000E+03 0.  0.
</event>
<event>
 4    0  0.2185218E-002  0.2221851E+03  0.7546771E-02  0.1132264E+00
         21   -1    0    0  502  501  0.00000000000E+00  0.00000000000E+00  0.27861780606E+03  0.27861780606E+03  0.00000000000E+00 0. -1.
         21   -1    0    0  501  502 -0.00000000000E+00 -0.00000000000E+00 -0.17718254054E+03  0.17718254054E+03  0.00000000000E+00 0. -1.
         25    1    1    2    0    0 -0.16434184010E+03 -0.80304761354E+02  0.68006928705E+02  0.23174778846E+03  0.12500000000E+03 0.  0.
         25    1    1    2    0    0  0.16434184010E+03  0.80304761354E+02  0.33428336818E+02  0.22405255813E+03  0.12500000000E+03 0.  0.
</event>
<event>
 4    0  0.2185218E-002  0.3248697E+03  0.7546771E-02  0.1073430E+00
         21   -1    0    0  502  501  0.00000000000E+00  0.00000000000E+00  0.14402608456E+04  0.14402608456E+04  0.00000000000E+00 0. -1.
         21   -1    0    0  501  502 -0.00000000000E+00 -0.00000000000E+00 -0.73278610345E+02  0.73278610345E+02  0.00000000000E+00 0. -1.
         25    1    1    2    0    0  0.54984163163E+02  0.16304212807E+02 -0.21222288177E+01  0.13754486326E+03  0.12500000000E+03 0.  0.
         25    1    1    2    0    0 -0.54984163163E+02 -0.16304212807E+02  0.13691044641E+04  0.13759945927E+04  0.12500000000E+03 0.  0.
</event>
<event>
 4    0  0.2185218E-002  0.3191942E+03  0.7546771E-02  0.1076021E+00
         21   -1    0    0  502  501  0.00000000000E+00  0.00000000000E+00  0.10524727274E+04  0.10524727274E+04  0.00000000000E+00 0. -1.
         21   -1    0    0  501  502 -0.00000000000E+00 -0.00000000000E+00 -0.96805313949E+02  0.96805313949E+02  0.00000000000E+00 0.  1.
         25    1    1    2    0    0  0.23421721827E+03 -0.14835735612E+03  0.65230623168E+03  0.71971941084E+03  0.12500000000E+03 0.  0.
         25    1    1    2    0    0 -0.23421721827E+03  0.14835735612E+03  0.30336118182E+03  0.42955863056E+03  0.12500000000E+03 0.  0.
</event>
<event>
 4    0  0.2185218E-002  0.2902556E+03  0.7546771E-02  0.1090216E+00
         21   -1    0    0  502  501  0.00000000000E+00  0.00000000000E+00  0.51695312472E+03  0.51695312472E+03  0.00000000000E+00 0.  1.
         21   -1    0    0  501  502 -0.00000000000E+00 -0.00000000000E+00 -0.16297094552E+03  0.16297094552E+03  0.00000000000E+00 0.  1.
         25    1    1    2    0    0 -0.21669669655E+03 -0.14710098006E+03  0.18309766327E+03  0.34314124049E+03  0.12500000000E+03 0.  0.
         25    1    1    2    0    0  0.21669669655E+03  0.14710098006E+03  0.17088451593E+03  0.33678282975E+03  0.12500000000E+03 0.  0.
</event>
<event>
 4    0  0.2185218E-002  0.2347243E+03  0.7546771E-02  0.1123358E+00
         21   -1    0    0  502  501  0.00000000000E+00  0.00000000000E+00  0.48687878064E+02  0.48687878064E+02  0.00000000000E+00 0.  1.
         21   -1    0    0  501  502 -0.00000000000E+00 -0.00000000000E+00 -0.11316061870E+04  0.11316061870E+04  0.00000000000E+00 0.  1.
         25    1    1    2    0    0 -0.72404877228E+01 -0.14339046080E+03 -0.88671527477E+03  0.90691908537E+03  0.12500000000E+03 0.  0.
         25    1    1    2    0    0  0.72404877228E+01  0.14339046080E+03 -0.19620303422E+03  0.27337497974E+03  0.12500000000E+03 0.  0.
</event>
<event>
 4    0  0.2185218E-002  0.2372948E+03  0.7546771E-02  0.1121608E+00
         21   -1    0    0  502  501  0.00000000000E+00  0.00000000000E+00  0.55378308084E+03  0.55378308084E+03  0.00000000000E+00 0.  1.
         21   -1    0    0  501  502 -0.00000000000E+00 -0.00000000000E+00 -0.10168029125E+03  0.10168029125E+03  0.00000000000E+00 0.  1.
         25    1    1    2    0    0  0.21787125860E+02  0.14521207682E+03  0.41703832892E+03  0.45946402895E+03  0.12500000000E+03 0.  0.
         25    1    1    2    0    0 -0.21787125860E+02 -0.14521207682E+03  0.35064460662E+02  0.19599934314E+03  0.12500000000E+03 0.  0.
</event>
<event>
 4    0  0.2185218E-002  0.1581785E+03  0.7546771E-02  0.1190769E+00
         21   -1    0    0  502  501  0.00000000000E+00  0.00000000000E+00  0.17407921397E+03  0.17407921397E+03  0.00000000000E+00 0. -1.
         21   -1    0    0  501  502 -0.00000000000E+00 -0.00000000000E+00 -0.14373012436E+03  0.14373012436E+03  0.00000000000E+00 0. -1.
         25    1    1    2    0    0  0.25977692216E+02 -0.57452318621E+02 -0.58782855599E+02  0.15184213355E+03  0.12500000000E+03 0.  0.
         25    1    1    2    0    0 -0.25977692216E+02  0.57452318621E+02  0.89131945201E+02  0.16596720478E+03  0.12500000000E+03 0.  0.
</event>
<event>
 4    0  0.2185218E-002  0.2365311E+03  0.7546771E-02  0.1122126E+00
         21   -1    0    0  502  501  0.00000000000E+00  0.00000000000E+00  0.12246126970E+03  0.12246126970E+03  0.00000000000E+00 0.  1.
         21   -1    0    0  501  502 -0.00000000000E+00 -0.00000000000E+00 -0.45685428673E+03  0.45685428673E+03  0.00000000000E+00 0.  1.
         25    1    1    2    0    0  0.33762324273E+02  0.52299690230E+02  0.66593899536E+02  0.15470908052E+03  0.12500000000E+03 0.  0.
         25    1    1    2    0    0 -0.33762324273E+02 -0.52299690230E+02 -0.40098691656E+03  0.42460647592E+03  0.12500000000E+03 0.  0.
</event>
<event>
 4    0  0.2185218E-002  0.1777062E+03  0.7546771E-02  0.1170042E+00
         21   -1    0    0  502  501  0.00000000000E+00  0.00000000000E+00  0.31591499536E+02  0.31591499536E+02  0.00000000000E+00 0.  1.
         21   -1    0    0  501  502 -0.00000000000E+00 -0.00000000000E+00 -0.99961970144E+03  0.99961970144E+03  0.00000000000E+00 0.  1.
         25    1    1    2    0    0 -0.81402917536E+02  0.63415063375E+02 -0.69537393711E+03  0.71401527831E+03  0.12500000000E+03 0.  0.
         25    1    1    2    0    0  0.81402917536E+02 -0.63415063375E+02 -0.27265426479E+03  0.31719592266E+03  0.12500000000E+03 0.  0.
</event>
<event>
 4    0  0.2185218E-002  0.2547601E+03  0.7546771E-02  0.1110333E+00
         21   -1    0    0  502  501  0.00000000000E+00  0.00000000000E+00  0.17451884404E+04  0.17451884404E+04  0.00000000000E+00 0. -1.
         21   -1    0    0  501  502 -0.00000000000E+00 -0.00000000000E+00 -0.37189509594E+02  0.37189509594E+02  0.00000000000E+00 0. -1.
         25    1    1    2    0    0 -0.10279024467E+03 -0.65085507687E+02  0.20447540619E+03  0.26876969593E+03  0.12500000000E+03 0.  0.
         25    1    1    2    0    0  0.10279024467E+03  0.65085507687E+02  0.15035235247E+04  0.15136082541E+04  0.12500000000E+03 0.  0.
</event>
<event>
 4    0  0.2185218E-002  0.2915405E+03  0.7546771E-02  0.1089548E+00
         21   -1    0    0  502  501  0.00000000000E+00  0.00000000000E+00  0.21206101342E+03  0.21206101342E+03  0.00000000000E+00 0.  1.
         21   -1    0    0  501  502 -0.00000000000E+00 -0.00000000000E+00 -0.40080860814E+03  0.40080860814E+03  0.00000000000E+00 0.  1.
         25    1    1    2    0    0  0.17474362168E+03 -0.15893897614E+03 -0.21683323373E+03  0.34414907047E+03  0.12500000000E+03 0.  0.
         25    1    1    2    0    0 -0.17474362168E+03  0.15893897614E+03  0.28085639008E+02  0.26872055108E+03  0.12500000000E+03 0.  0.
</event>
<event>
 4    0  0.2185218E-002  0.1851128E+03  0.7546771E-02  0.1162945E+00
         21   -1    0    0  502  501  0.00000000000E+00  0.00000000000E+00  0.11374937921E+03  0.11374937921E+03  0.00000000000E+00 0.  1.
         21   -1    0    0  501  502 -0.00000000000E+00 -0.00000000000E+00 -0.30124762942E+03  0.30124762942E+03  0.00000000000E+00 0.  1.
         25    1    1    2    0    0  0.67660074643E+01 -0.13632506930E+03 -0.89959873191E+02  0.20578649654E+03  0.12500000000E+03 0.  0.
         25    1    1    2    0    0 -0.67660074643E+01  0.13632506930E+03 -0.97538377014E+02  0.20921051208E+03  0.12500000000E+03 0.  0.
</event>
<event>
 4    0  0.2185218E-002  0.4106454E+03  0.7546771E-02  0.1040155E+00
         21   -1    0    0  502  501  0.00000000000E+00  0.00000000000E+00  0.27808094156E+03  0.27808094156E+03  0.00000000000E+00 0. -1.
         21   -1    0    0  501  502 -0.00000000000E+00 -0.00000000000E+00 -0.60640475029E+03  0.60640475029E+03  0.00000000000E+00 0. -1.
         25    1    1    2    0    0  0.38957375202E+03  0.26652221222E+02 -0.13944946136E+03  0.43306951109E+03  0.12500000000E+03 0.  0.
         25    1    1    2    0    0 -0.38957375202E+03 -0.26652221222E+02 -0.18887434737E+03  0.45141618076E+03  0.12500000000E+03 0.  0.
</event>
<event>
 4    0  0.2185218E-002  0.1791227E+03  0.7546771E-02  0.1168655E+00
         21   -1    0    0  502  501  0.00000000000E+00  0.00000000000E+00  0.81813845496E+03  0.81813845496E+03  0.00000000000E+00 0.  1.
         21   -1    0    0  501  502 -0.00000000000E+00 -0.00000000000E+00 -0.39216989867E+02  0.39216989867E+02  0.00000000000E+00 0.  1.
         25    1    1    2    0    0 -0.68393996173E+02 -0.50227790915E+02  0.15917299302E+03  0.21945753895E+03  0.12500000000E+03 0.  0.
         25    1    1    2    0    0  0.68393996173E+02  0.50227790915E+02  0.61974847208E+03  0.63789790588E+03  0.12500000000E+03 0.  0.
</event>
<event>
 4    0  0.2185218E-002  0.2391543E+03  0.7546771E-02  0.1120357E+00
         21   -1    0    0  502  501  0.00000000000E+00  0.00000000000E+00  0.12886799997E+03  0.12886799997E+03  0.00000000000E+00 0.  1.
         21   -1    0    0  501  502 -0.00000000000E+00 -0.00000000000E+00 -0.44382445758E+03  0.44382445758E+03  0.00000000000E+00 0.  1.
         25    1    1    2    0    0 -0.14346200033E+03 -0.13362270493E+03 -0.22450079402E+03  0.32320578480E+03  0.12500000000E+03 0.  0.
         25    1    1    2    0    0  0.14346200033E+03  0.13362270493E+03 -0.90455663591E+02  0.24948667276E+03  0.12500000000E+03 0.  0.
</event>
<event>
 4    0  0.2185218E-002  0.2908612E+03  0.7546771E-02  0.1089900E+00
         21   -1    0    0  502  501  0.00000000000E+00  0.00000000000E+00  0.13559163667E+04  0.13559163667E+04  0.00000000000E+00 0. -1.
         21   -1    0    0  501  502 -0.00000000000E+00 -0.00000000000E+00 -0.62393414635E+02  0.62393414635E+02  0.00000000000E+00 0. -1.
         25    1    1    2    0    0  0.36466583774E+02 -0.25179903695E+03  0.80557068603E+03  0.85399162580E+03  0.12500000000E+03 0.  0.
         25    1    1    2    0    0 -0.36466583774E+02  0.25179903695E+03  0.48795226601E+03  0.56431815552E+03  0.12500000000E+03 0.  0.
</event>
<event>
 4    0  0.2185218E-002  0.1889385E+03  0.7546771E-02  0.1159422E+00
         21   -1    0    0  502  501  0.00000000000E+00  0.00000000000E+00  0.81064334559E+03  0.81064334559E+03  0.00000000000E+00 0.  1.
         21   -1    0    0  501  502 -0.00000000000E+00 -0.00000000000E+00 -0.44036332371E+02  0.44036332371E+02  0.00000000000E+00 0.  1.
         25    1    1    2    0    0  0.10753539588E+03  0.64010743769E+02  0.53353022490E+03  0.56208605887E+03  0.12500000000E+03 0.  0.
         25    1    1    2    0    0 -0.10753539588E+03 -0.64010743769E+02  0.23307678832E+03  0.29259361910E+03  0.12500000000E+03 0.  0.
</event>
<event>
 4    0  0.2185218E-002  0.2338929E+03  0.7546771E-02  0.1123929E+00
         21   -1    0    0  502  501  0.00000000000E+00  0.00000000000E+00  0.46631049258E+03  0.46631049258E+03  0.00000000000E+00 0.  1.
         21   -1    0    0  501  502 -0.00000000000E+00 -0.00000000000E+00 -0.11731648942E+03  0.11731648942E+03  0.00000000000E+00 0.  1.
         25    1    1    2    0    0 -0.82461075767E+02 -0.55013523336E+02 -0.38898507122E+02  0.16420843652E+03  0.12500000000E+03 0.  0.
         25    1    1    2    0    0  0.82461075767E+02  0.55013523336E+02  0.38789251028E+03  0.41941854549E+03  0.12500000000E+03 0.  0.
</event>
<event>
 4    0  0.2185218E-002  0.2963497E+03  0.7546771E-02  0.1087080E+00
         21   -1    0    0  502  501  0.00000000000E+00  0.00000000000E+00  0.61082156352E+02  0.61082156352E+02  0.00000000000E+00 0.  1.
         21   -1    0    0  501  502 -0.00000000000E+00 -0.00000000000E+00 -0.14377872046E+04  0.14377872046E+04  0.00000000000E+00 0.  1.
         25    1    1    2    0    0 -0.16471711327E+03  0.19913004781E+03 -0.87442149882E+03  0.92033823182E+03  0.12500000000E+03 0.  0.
         25    1    1    2    0    0  0.16471711327E+03 -0.19913004781E+03 -0.50228354938E+03  0.57853112909E+03  0.12500000000E+03 0.  0.
</event>
<event>
 4    0  0.2185218E-002  0.2079564E+03  0.7546771E-02  0.1143195E+00
         21   -1    0    0  502  501  0.00000000000E+00  0.00000000000E+00  0.42090677942E+03  0.42090677942E+03  0.00000000000E+00 0. -1.
         21   -1    0    0  501  502 -0.00000000000E+00 -0.00000000000E+00 -0.10274452002E+03  0.10274452002E+03  0.00000000000E+00 0. -1.
         25    1    1    2    0    0  0.12105357121E+03  0.94204085324E+02  0.78537051569E+02  0.21288833989E+03  0.12500000000E+03 0.  0.
         25    1    1    2    0    0 -0.12105357121E+03 -0.94204085324E+02  0.23962520783E+03  0.31076295954E+03  0.12500000000E+03 0.  0.
</event>
<event>
 4    0  0.2185218E-002  0.1856173E+03  0.7546771E-02  0.1162475E+00
         21   -1    0    0  502  501  0.00000000000E+00  0.00000000000E+00  0.72508446178E+02  0.72508446178E+02  0.00000000000E+00 0. -1.
         21   -1    0    0  501  502 -0.00000000000E+00 -0.00000000000E+00 -0.47516933413E+03  0.47516933413E+03  0.00000000000E+00 0. -1.
         25    1    1    2    0    0  0.64259127591E+02  0.30661742132E+01 -0.38013961367E+03  0.40530206363E+03  0.12500000000E+03 0.  0.
         25    1    1    2    0    0 -0.64259127591E+02 -0.30661742132E+01 -0.22521274279E+02  0.14237571667E+03  0.12500000000E+03 0.  0.
</event>
<event>
 4    0  0.2185218E-002  0.1469002E+03  0.7546771E-02  0.1204335E+00
         21   -1    0    0  502  501  0.00000000000E+00  0.00000000000E+00  0.14881719290E+03  0.14881719290E+03  0.00000000000E+00 0.  1.
         21   -1    0    0  501  502 -0.00000000000E+00 -0.00000000000E+00 -0.14500798612E+03  0.14500798612E+03  0.00000000000E+00 0.  1.
         25    1    1    2    0    0  0.31284476247E+02 -0.62865505497E+02 -0.30096385998E+02  0.14649772246E+03  0.12500000000E+03 0.  0.
         25    1    1    2    0    0 -0.31284476247E+02  0.62865505497E+02  0.33905592784E+02  0.14732745656E+03  0.12500000000E+03 0.  0.
</event>
<event>
 4    0  0.2185218E-002  0.2006512E+03  0.7546771E-02  0.1149191E+00
         21   -1    0    0  502  501  0.00000000000E+00  0.00000000000E+00  0.16845793594E+04  0.16845793594E+04  0.00000000000E+00 0.  1.
         21   -1    0    0  501  502 -0.00000000000E+00 -0.00000000000E+00 -0.23899671392E+02  0.23899671392E+02  0.00000000000E+00 0. -1.
         25    1    1    2    0    0 -0.26397460102E+00 -0.15085240780E+03  0.64577685297E+03  0.67484017549E+03  0.12500000000E+03 0.  0.
         25    1    1    2    0    0  0.26397460102E+00  0.15085240780E+03  0.10149028350E+04  0.10336388553E+04  0.12500000000E+03 0.  0.
</event>
<event>
 4    0  0.2185218E-002  0.1953564E+03  0.7546771E-02  0.1153717E+00
         21   -1    0    0  502  501  0.00000000000E+00  0.00000000000E+00  0.39455922016E+03  0.39455922016E+03  0.00000000000E+00 0. -1.
         21   -1    0    0  501  502 -0.00000000000E+00 -0.00000000000E+00 -0.96725980740E+02  0.96725980740E+02  0.00000000000E+00 0. -1.
         25    1    1    2    0    0 -0.10955137266E+03  0.98927619258E+02  0.11445928741E+03  0.22475343285E+03  0.12500000000E+03 0.  0.
         25    1    1    2    0    0  0.10955137266E+03 -0.98927619258E+02  0.18337395202E+03  0.26653176805E+03  0.12500000000E+03 0.  0.
</event>
<event>
 4    0  0.2185218E-002  0.1424180E+03  0.7546771E-02  0.1210112E+00
         21   -1    0    0  502  501  0.00000000000E+00  0.00000000000E+00  0.36952749694E+03  0.36952749694E+03  0.00000000000E+00 0. -1.
         21   -1    0    0  501  502 -0.00000000000E+00 -0.00000000000E+00 -0.54888746020E+02  0.54888746020E+02  0.00000000000E+00 0. -1.
         25    1    1    2    0    0 -0.21277088631E+02 -0.33177521768E+02  0.74298273246E+02  0.15066086373E+03  0.12500000000E+03 0.  0.
         25    1    1    2    0    0  0.21277088631E+02  0.33177521768E+02  0.24034047768E+03  0.27375537924E+03  0.12500000000E+03 0.  0.
</event>
<event>
 4    0  0.2185218E-002  0.3896924E+03  0.7546771E-02  0.1047408E+00
         21   -1    0    0  502  501  0.00000000000E+00  0.00000000000E+00  0.25678550516E+03  0.25678550516E+03  0.00000000000E+00 0. -1.
         21   -1    0    0  501  502 -0.00000000000E+00 -0.00000000000E+00 -0.59138911650E+03  0.59138911650E+03  0.00000000000E+00 0. -1.
         25    1    1    2    0    0 -0.22362554375E+03  0.56372855050E+01  0.15220077756E+03  0.29804402275E+03  0.12500000000E+03 0.  0.
         25    1    1    2    0    0  0.22362554375E+03 -0.56372855050E+01 -0.48680438890E+03  0.55013059891E+03  0.12500000000E+03 0.  0.
</event>
<event>
 4    0  0.2185218E-002  0.1790646E+03  0.7546771E-02  0.1168711E+00
         21   -1    0    0  502  501  0.00000000000E+00  0.00000000000E+00  0.15615305448E+03  0.15615305448E+03  0.00000000000E+00 0.  1.
         21   -1    0    0  501  502 -0.00000000000E+00 -0.00000000000E+00 -0.20533777528E+03  0.20533777528E+03  0.00000000000E+00 0.  1.
         25    1    1    2    0    0 -0.46953999150E+02  0.21202257039E+02  0.93918879610E+02  0.16462068426E+03  0.12500000000E+03 0.  0.
         25    1    1    2    0    0  0.46953999150E+02 -0.21202257039E+02 -0.14310360041E+03  0.19687014550E+03  0.12500000000E+03 0.  0.
</event>
<event>
 4    0  0.2185218E-002  0.2636661E+03  0.7546771E-02  0.1104960E+00
         21   -1    0    0  502  501  0.00000000000E+00  0.00000000000E+00  0.44745073306E+02  0.44745073306E+02  0.00000000000E+00 0.  1.
         21   -1    0    0  501  502 -0.00000000000E+00 -0.00000000000E+00 -0.15536858441E+04  0.15536858441E+04  0.00000000000E+00 0.  1.
         25    1    1    2    0    0  0.89204581532E+02  0.93482055810E+02 -0.16985264126E+03  0.24732826743E+03  0.12500000000E+03 0.  0.
         25    1    1    2    0    0 -0.89204581532E+02 -0.93482055810E+02 -0.13390881295E+04  0.13511026500E+04  0.12500000000E+03 0.  0.
</event>
<event>
 4    0  0.2185218E-002  0.2673617E+03  0.7546771E-02  0.1102799E+00
         21   -1    0    0  502  501  0.00000000000E+00  0.00000000000E+00  0.20229907002E+03  0.20229907002E+03  0.00000000000E+00 0. -1.
         21   -1    0    0  501  502 -0.00000000000E+00 -0.00000000000E+00 -0.35334953889E+03  0.35334953889E+03  0.00000000000E+00 0. -1.
         25    1    1    2    0    0 -0.52365121861E+02 -0.71526969322E+02  0.15213513621E+03  0.21593590021E+03  0.12500000000E+03 0.  0.
         25    1    1    2    0    0  0.52365121861E+02  0.71526969322E+02 -0.30318560508E+03  0.33971270870E+03  0.12500000000E+03 0.  0.
</event>
<event>
 4    0  0.2185218E-002  0.2039509E+03  0.7546771E-02  0.1146448E+00
         21   -1    0    0  502  501  0.00000000000E+00  0.00000000000E+00  0.32746130286E+03  0.32746130286E+03  0.00000000000E+00 0. -1.
         21   -1    0    0  501  502 -0.00000000000E+00 -0.00000000000E+00 -0.12702557036E+03  0.12702557036E+03  0.00000000000E+00 0. -1.
         25    1    1    2    0    0 -0.77222558671E+02 -0.26913608892E+02 -0.54505668112E+02  0.15900796762E+03  0.12500000000E+03 0.  0.
         25    1    1    2    0    0  0.77222558671E+02  0.26913608892E+02  0.25494140060E+03  0.29547890560E+03  0.12500000000E+03 0.  0.
</event>
<event>
 4    0  0.2185218E-002  0.3066069E+03  0.7546771E-02  0.1081984E+00
         21   -1    0    0  502  501  0.00000000000E+00  0.00000000000E+00  0.11954265407E+03  0.11954265407E+03  0.00000000000E+00 0. -1.
         21   -1    0    0  501  502 -0.00000000000E+00 -0.00000000000E+00 -0.78639552930E+03  0.78639552930E+03  0.00000000000E+00 0. -1.
         25    1    1    2    0    0  0.15903734015E+03 -0.11923237625E+03 -0.42144310415E+02  0.23855896129E+03  0.12500000000E+03 0.  0.
         25    1    1    2    0    0 -0.15903734015E+03  0.11923237625E+03 -0.62470856481E+03  0.66737922208E+03  0.12500000000E+03 0.  0.
</event>
<event>
 4    0  0.2185218E-002  0.2368593E+03  0.7546771E-02  0.1121903E+00
         21   -1    0    0  502  501  0.00000000000E+00  0.00000000000E+00  0.63725611033E+03  0.63725611033E+03  0.00000000000E+00 0.  1.
         21   -1    0    0  501  502 -0.00000000000E+00 -0.00000000000E+00 -0.88037319031E+02  0.88037319031E+02  0.00000000000E+00 0.  1.
         25    1    1    2    0    0 -0.93985802386E+02 -0.11225789287E+03  0.63332807656E+02  0.20266033180E+03  0.12500000000E+03 0.  0.
         25    1    1    2    0    0  0.93985802386E+02  0.11225789287E+03  0.48588598364E+03  0.52263309756E+03  0.12500000000E+03 0.  0.
</event>
<event>
 4    0  0.2185218E-002  0.1918074E+03  0.7546771E-02  0.1156841E+00
         21   -1    0    0  502  501  0.00000000000E+00  0.00000000000E+00  0.10869309799E+03  0.10869309799E+03  0.00000000000E+00 0. -1.
         21   -1    0    0  501  502 -0.00000000000E+00 -0.00000000000E+00 -0.33847662490E+03  0.33847662490E+03  0.00000000000E+00 0. -1.
         25    1    1    2    0    0  0.14312298911E+03  0.25098288184E+02 -0.10657054365E+03  0.21930890282E+03  0.12500000000E+03 0.  0.
         25    1    1    2    0    0 -0.14312298911E+03 -0.25098288184E+02 -0.12321298325E+03  0.22786082007E+03  0.12500000000E+03 0.  0.
</event>
<event>
 4    0  0.2185218E-002  0.1785919E+03  0.7546771E-02  0.1169173E+00
         21   -1    0    0  502  501  0.00000000000E+00  0.00000000000E+00  0.70774181333E+02  0.70774181333E+02  0.00000000000E+00 0. -1.
         21   -1    0    0  501  502 -0.00000000000E+00 -0.00000000000E+00 -0.45065942729E+03  0.45065942729E+03  0.00000000000E+00 0. -1.
         25    1    1    2    0    0 -0.29202888218E+02 -0.84749231098E+02 -0.57467543315E+02  0.16420340857E+03  0.12500000000E+03 0.  0.
         25    1    1    2    0    0  0.29202888218E+02  0.84749231098E+02 -0.32241770265E+03  0.35723020005E+03  0.12500000000E+03 0.  0.
</event>
<event>
 4    0  0.2185218E-002  0.2337514E+03  0.7546771E-02  0.1124027E+00
         21   -1    0    0  502  501  0.00000000000E+00  0.00000000000E+00  0.76530603274E+02  0.76530603274E+02  0.00000000000E+00 0.  1.
         21   -1    0    0  501  502 -0.00000000000E+00 -0.00000000000E+00 -0.71395893076E+03  0.71395893076E+03  0.00000000000E+00 0.  1.
         25    1    1    2    0    0 -0.16764606975E+03  0.97675000319E+02 -0.38127882554E+03  0.44569513481E+03  0.12500000000E+03 0.  0.
         25    1    1    2    0    0  0.16764606975E+03 -0.97675000319E+02 -0.25614950195E+03  0.34479439922E+03  0.12500000000E+03 0.  0.
</event>
<event>
 4    0  0.2185218E-002  0.1687708E+03  0.7546771E-02  0.1179136E+00
         21   -1    0    0  502  501  0.00000000000E+00  0.00000000000E+00  0.10370595003E+04  0.10370595003E+04  0.00000000000E+00 0. -1.
         21   -1    0    0  501  502 -0.00000000000E+00 -0.00000000000E+00 -0.27465716905E+02  0.27465716905E+02  0.00000000000E+00 0. -1.
         25    1    1    2    0    0  0.15829419190E+02  0.94150007630E+02  0.69776444343E+03  0.71527268434E+03  0.12500000000E+03 0.  0.
         25    1    1    2    0    0 -0.15829419190E+02 -0.94150007630E+02  0.31182933995E+03  0.34925253285E+03  0.12500000000E+03 0.  0.
</event>
<event>
 4    0  0.2185218E-002  0.2364417E+03  0.7546771E-02  0.1122186E+00
         21   -1    0    0  502  501  0.00000000000E+00  0.00000000000E+00  0.22294781563E+03  0.22294781563E+03  0.00000000000E+00 0.  1.
         21   -1    0    0  501  502 -0.00000000000E+00 -0.00000000000E+00 -0.25075232814E+03  0.25075232814E+03  0.00000000000E+00 0.  1.
         25    1    1    2    0    0 -0.15775377023E+03 -0.11762564161E+03  0.25632858334E+02  0.23452950137E+03  0.12500000000E+03 0.  0.
         25    1    1    2    0    0  0.15775377023E+03  0.11762564161E+03 -0.53437370846E+02  0.23917064241E+03  0.12500000000E+03 0.  0.
</event>
<event>
 4    0  0.2185218E-002  0.3309296E+03  0.7546771E-02  0.1070726E+00
         21   -1    0    0  502  501  0.00000000000E+00  0.00000000000E+00  0.69135765684E+03  0.69135765684E+03  0.00000000000E+00 0.  1.
         21   -1    0    0  501  502 -0.00000000000E+00 -0.00000000000E+00 -0.15840486094E+03  0.15840486094E+03  0.00000000000E+00 0.  1.
         25    1    1    2    0    0  0.30000997548E+03 -0.21470153744E+02  0.19136580970E+03  0.37777351152E+03  0.12500000000E+03 0.  0.
         25    1    1    2    0    0 -0.30000997548E+03  0.21470153744E+02  0.34158698620E+03  0.47198900626E+03  0.12500000000E+03 0.  0.
</event>
<event>
 4    0  0.2185218E-002  0.2055298E+03  0.7546771E-02  0.1145156E+00
         21   -1    0    0  502  501  0.00000000000E+00  0.00000000000E+00  0.16471340376E+03  0.16471340376E+03  0.00000000000E+00 0.  1.
         21   -1    0    0  501  502 -0.00000000000E+00 -0.00000000000E+00 -0.25646072021E+03  0.25646072021E+03  0.00000000000E+00 0.  1.
         25    1    1    2    0    0  0.15829149540E+03 -0.12663737936E+01 -0.54086456392E+01  0.20177228419E+03  0.12500000000E+03 0.  0.
         25    1    1    2    0    0 -0.15829149540E+03  0.12663737936E+01 -0.86338670811E+02  0.21940183977E+03  0.12500000000E+03 0.  0.
</event>
<event>
 4    0  0.2185218E-002  0.1982711E+03  0.7546771E-02  0.1151206E+00
         21   -1    0    0  502  501  0.00000000000E+00  0.00000000000E+00  0.74449971880E+03  0.74449971880E+03  0.00000000000E+00 0.  1.
         21   -1    0    0  501  502 -0.00000000000E+00 -0.00000000000E+00 -0.52802479157E+02  0.52802479157E+02  0.00000000000E+00 0.  1.
         25    1    1    2    0    0  0.62879325699E+02  0.12759778409E+03  0.22772605404E+03  0.29617420515E+03  0.12500000000E+03 0.  0.
         25    1    1    2    0    0 -0.62879325699E+02 -0.12759778409E+03  0.46397118560E+03  0.50112799281E+03  0.12500000000E+03 0.  0.
</event>
<event>
 4    0  0.2185218E-002  0.2842878E+03  0.7546771E-02  0.1093370E+00
         21   -1    0    0  502  501  0.00000000000E+00  0.00000000000E+00  0.70540170274E+02  0.70540170274E+02  0.00000000000E+00 0.  1.
         21   -1    0    0  501  502 -0.00000000000E+00 -0.00000000000E+00 -0.11457240095E+04  0.11457240095E+04  0.00000000000E+00 0.  1.
         25    1    1    2    0    0 -0.11812138555E+02 -0.22075925128E+03 -0.26431373173E+03  0.36655275531E+03  0.12500000000E+03 0.  0.
         25    1    1    2    0    0  0.11812138555E+02  0.22075925128E+03 -0.81087010747E+03  0.84971142444E+03  0.12500000000E+03 0.  0.
</event>
<event>
 4    0  0.2185218E-002  0.1561899E+03  0.7546771E-02  0.1193067E+00
         21   -1    0    0  502  501  0.00000000000E+00  0.00000000000E+00  0.43092631447E+03  0.43092631447E+03  0.00000000000E+00 0.  1.
         21   -1    0    0  501  502 -0.00000000000E+00 -0.00000000000E+00 -0.56611234922E+02  0.56611234922E+02  0.00000000000E+00 0.  1.
         25    1    1    2    0    0  0.46621718587E+02 -0.42947816992E+02  0.29474738709E+03  0.32637267322E+03  0.12500000000E+03 0.  0.
         25    1    1    2    0    0 -0.46621718587E+02  0.42947816992E+02  0.79567692457E+02  0.16116487617E+03  0.12500000000E+03 0.  0.
</event>
<event>
 4    0  0.2185218E-002  0.1584667E+03  0.7546771E-02  0.1190439E+00
         21   -1    0    0  502  501  0.00000000000E+00  0.00000000000E+00  0.20659894276E+03  0.20659894276E+03  0.00000000000E+00 0.  1.
         21   -1    0    0  501  502 -0.00000000000E+00 -0.00000000000E+00 -0.12154803691E+03  0.12154803691E+03  0.00000000000E+00 0.  1.
         25    1    1    2    0    0  0.35879567897E+02  0.37089117456E+02  0.12805416731E+03  0.18624128380E+03  0.12500000000E+03 0.  0.
         25    1    1    2    0    0 -0.35879567897E+02 -0.37089117456E+02 -0.43003261458E+02  0.14190569588E+03  0.12500000000E+03 0.  0.
</event>
<event>
 4    0  0.2185218E-002  0.1803748E+03  0.7546771E-02  0.1167441E+00
         21   -1    0    0  502  501  0.00000000000E+00  0.00000000000E+00  0.19726256144E+03  0.19726256144E+03  0.00000000000E+00 0.  1.
         21   -1    0    0  501  502 -0.00000000000E+00 -0.00000000000E+00 -0.16493279234E+03  0.16493279234E+03  0.00000000000E+00 0.  1.
         25    1    1    2    0    0 -0.22531873924E+01 -0.41872473957E+01  0.14663743265E+03  0.19274373283E+03  0.12500000000E+03 0.  0.
         25    1    1    2    0    0  0.22531873924E+01  0.41872473957E+01 -0.11430766354E+03  0.16945162094E+03  0.12500000000E+03 0.  0.
</event>
<event>
 4    0  0.2185218E-002  0.1951381E+03  0.7546771E-02  0.1153907E+00
         21   -1    0    0  502  501  0.00000000000E+00  0.00000000000E+00  0.74432746558E+03  0.74432746558E+03  0.00000000000E+00 0. -1.
         21   -1    0    0  501  502 -0.00000000000E+00 -0.00000000000E+00 -0.51158748702E+02  0.51158748702E+02  0.00000000000E+00 0. -1.
         25    1    1    2    0    0  0.44276794207E+02  0.11421059859E+03  0.17066227824E+03  0.24444858058E+03  0.12500000000E+03 0.  0.
         25    1    1    2    0    0 -0.44276794207E+02 -0.11421059859E+03  0.52250643863E+03  0.55103763369E+03  0.12500000000E+03 0.  0.
</event>
<event>
 4    0  0.2185218E-002  0.2127994E+03  0.7546771E-02  0.1139368E+00
         21   -1    0    0  502  501  0.00000000000E+00  0.00000000000E+00  0.32371602921E+03  0.32371602921E+03  0.00000000000E+00 0. -1.
         21   -1    0    0  501  502 -0.00000000000E+00 -0.00000000000E+00 -0.13988669167E+03  0.13988669167E+03  0.00000000000E+00 0. -1.
         25    1    1    2    0    0  0.15114888234E+03 -0.81703682588E+02  0.10466863833E+03  0.23685860810E+03  0.12500000000E+03 0.  0.
         25    1    1    2    0    0 -0.15114888234E+03  0.81703682588E+02  0.79160699214E+02  0.22674411278E+03  0.12500000000E+03 0.  0.
</event>
<event>
 4    0  0.2185218E-002  0.3350547E+03  0.7546771E-02  0.1068922E+00
         21   -1    0    0  502  501  0.00000000000E+00  0.00000000000E+00  0.98263884454E+03  0.98263884454E+03  0.00000000000E+00 0. -1.
         21   -1    0    0  501  502 -0.00000000000E+00 -0.00000000000E+00 -0.11424507504E+03  0.11424507504E+03  0.00000000000E+00 0. -1.
         25    1    1    2    0    0 -0.29776451168E+03  0.39780683813E+01  0.58021034575E+03  0.66403958825E+03  0.12500000000E+03 0.  0.
         25    1    1    2    0    0  0.29776451168E+03 -0.39780683813E+01  0.28818342375E+03  0.43284433134E+03  0.12500000000E+03 0.  0.
</event>
<event>
 4    0  0.2185218E-002  0.2695919E+03  0.7546771E-02  0.1101513E+00
         21   -1    0    0  502  501  0.00000000000E+00  0.00000000000E+00  0.45170849504E+03  0.45170849504E+03  0.00000000000E+00 0.  1.
         21   -1    0    0  501  502 -0.00000000000E+00 -0.00000000000E+00 -0.16089980404E+03  0.16089980404E+03  0.00000000000E+00 0.  1.
         25    1    1    2    0    0 -0.74173079840E+01  0.23160333442E+03  0.21126035731E+03  0.33756637798E+03  0.12500000000E+03 0.  0.
         25    1    1    2    0    0  0.74173079840E+01 -0.23160333442E+03  0.79548333685E+02  0.27504192110E+03  0.12500000000E+03 0.  0.
</event>
<event>
 4    0  0.2185218E-002  0.2471511E+03  0.7546771E-02  0.1115119E+00
         21   -1    0    0  502  501  0.00000000000E+00  0.00000000000E+00  0.62549391332E+02  0.62549391332E+02  0.00000000000E+00 0.  1.
         21   -1    0    0  501  502 -0.00000000000E+00 -0.00000000000E+00 -0.97656711681E+03  0.97656711681E+03  0.00000000000E+00 0.  1.
         25    1    1    2    0    0  0.57585863758E+02  0.16951020679E+03 -0.70043500111E+03  0.73367842594E+03  0.12500000000E+03 0.  0.
         25    1    1    2    0    0 -0.57585863758E+02 -0.16951020679E+03 -0.21358272438E+03  0.30543808221E+03  0.12500000000E+03 0.  0.
</event>
<event>
 4    0  0.2185218E-002  0.1584405E+03  0.7546771E-02  0.1190469E+00
         21   -1    0    0  502  501  0.00000000000E+00  0.00000000000E+00  0.21995555317E+03  0.21995555317E+03  0.00000000000E+00 0. -1.
         21   -1    0    0  501  502 -0.00000000000E+00 -0.00000000000E+00 -0.11412940187E+03  0.11412940187E+03  0.00000000000E+00 0. -1.
         25    1    1    2    0    0 -0.72295705922E+02 -0.56421740573E+02  0.18453485363E+02  0.15612691320E+03  0.12500000000E+03 0.  0.
         25    1    1    2    0    0  0.72295705922E+02  0.56421740573E+02  0.87372665938E+02  0.17795804184E+03  0.12500000000E+03 0.  0.
</event>
<event>
 4    0  0.2185218E-002  0.3167851E+03  0.7546771E-02  0.1077138E+00
         21   -1    0    0  502  501  0.00000000000E+00  0.00000000000E+00  0.20536685908E+03  0.20536685908E+03  0.00000000000E+00 0.  1.
         21   -1    0    0  501  502 -0.00000000000E+00 -0.00000000000E+00 -0.48865127478E+03  0.48865127478E+03  0.00000000000E+00 0.  1.
         25    1    1    2    0    0 -0.12366064880E+03  0.26001841947E+03 -0.18845401440E+03  0.36611671646E+03  0.12500000000E+03 0.  0.
         25    1    1    2    0    0  0.12366064880E+03 -0.26001841947E+03 -0.94830401293E+02  0.32790141740E+03  0.12500000000E+03 0.  0.
</event>
<event>
 4    0  0.2185218E-002  0.2040411E+03  0.7546771E-02  0.1146374E+00
         21   -1    0    0  502  501  0.00000000000E+00  0.00000000000E+00  0.70620181019E+03  0.70620181019E+03  0.00000000000E+00 0.  1.
         21   -1    0    0  501  502 -0.00000000000E+00 -0.00000000000E+00 -0.58953062412E+02  0.58953062412E+02  0.00000000000E+00 0.  1.
         25    1    1    2    0    0  0.15872635256E+03  0.22718673316E+02  0.29128038266E+03  0.35521747484E+03  0.12500000000E+03 0.  0.
         25    1    1    2    0    0 -0.15872635256E+03 -0.22718673316E+02  0.35596836512E+03  0.40993739776E+03  0.12500000000E+03 0.  0.
</event>
<event>
 4    0  0.2185218E-002  0.1441562E+03  0.7546771E-02  0.1207843E+00
         21   -1    0    0  502  501  0.00000000000E+00  0.00000000000E+00  0.13805642354E+03  0.13805642354E+03  0.00000000000E+00 0. -1.
         21   -1    0    0  501  502 -0.00000000000E+00 -0.00000000000E+00 -0.15052541138E+03  0.15052541138E+03  0.00000000000E+00 0. -1.
         25    1    1    2    0    0 -0.23859109750E+02  0.43971621541E+02  0.45323259749E+02  0.14206322006E+03  0.12500000000E+03 0.  0.
         25    1    1    2    0    0  0.23859109750E+02 -0.43971621541E+02 -0.57792247596E+02  0.14651861486E+03  0.12500000000E+03 0.  0.
</event>
<event>
 4    0  0.2185218E-002  0.1917162E+03  0.7546771E-02  0.1156923E+00
         21   -1    0    0  502  501  0.00000000000E+00  0.00000000000E+00  0.35317614563E+02  0.35317614563E+02  0.00000000000E+00 0.  1.
         21   -1    0    0  501  502 -0.00000000000E+00 -0.00000000000E+00 -0.10407013771E+04  0.10407013771E+04  0.00000000000E+00 0.  1.
         25    1    1    2    0    0  0.11453865158E+03 -0.81309116950E+02 -0.39769739276E+03  0.43990736686E+03  0.12500000000E+03 0.  0.
         25    1    1    2    0    0 -0.11453865158E+03  0.81309116950E+02 -0.60768636981E+03  0.63611162484E+03  0.12500000000E+03 0.  0.
</event>
<event>
 4    0  0.2185218E-002  0.4061888E+03  0.7546771E-02  0.1041658E+00
         21   -1    0    0  502  501  0.00000000000E+00  0.00000000000E+00  0.90524764153E+02  0.90524764153E+02  0.00000000000E+00 0.  1.
         21   -1    0    0  501  502 -0.00000000000E+00 -0.00000000000E+00 -0.18225878303E+04  0.18225878303E+04  0.00000000000E+00 0. -1.
         25    1    1    2    0    0  0.14527071399E+02 -0.35242585790E+03 -0.12380049390E+04  0.12933275881E+04  0.12500000000E+03 0.  0.
         25    1    1    2    0    0 -0.14527071399E+02  0.35242585790E+03 -0.49405812717E+03  0.61978500639E+03  0.12500000000E+03 0.  0.
</event>
<event>
 4    0  0.2185218E-002  0.1882063E+03  0.7546771E-02  0.1160089E+00
         21   -1    0    0  502  501  0.00000000000E+00  0.00000000000E+00  0.99100503172E+02  0.99100503172E+02  0.00000000000E+00 0. -1.
         21   -1    0    0  501  502 -0.00000000000E+00 -0.00000000000E+00 -0.35743115011E+03  0.35743115011E+03  0.00000000000E+00 0. -1.
         25    1    1    2    0    0 -0.48449141312E+02  0.82944715816E+02 -0.44748703032E+01  0.15770912986E+03  0.12500000000E+03 0.  0.
         25    1    1    2    0    0  0.48449141312E+02 -0.82944715816E+02 -0.25385577664E+03  0.29882252343E+03  0.12500000000E+03 0.  0.
</event>
<event>
 4    0  0.2185218E-002  0.2401430E+03  0.7546771E-02  0.1119698E+00
         21   -1    0    0  502  501  0.00000000000E+00  0.00000000000E+00  0.89997977576E+03  0.89997977576E+03  0.00000000000E+00 0. -1.
         21   -1    0    0  501  502 -0.00000000000E+00 -0.00000000000E+00 -0.64077729479E+02  0.64077729479E+02  0.00000000000E+00 0. -1.
         25    1    1    2    0    0  0.20366971544E+03 -0.22158357882E+02  0.40100012013E+03  0.46733119108E+03  0.12500000000E+03 0.  0.
         25    1    1    2    0    0 -0.20366971544E+03  0.22158357882E+02  0.43490192615E+03  0.49672631416E+03  0.12500000000E+03 0.  0.
</event>
<event>
 4    0  0.2185218E-002  0.1742460E+03  0.7546771E-02  0.1173491E+00
         21   -1    0    0  502  501  0.00000000000E+00  0.00000000000E+00  0.56400693282E+03  0.56400693282E+03  0.00000000000E+00 0. -1.
         21   -1    0    0  501  502 -0.00000000000E+00 -0.00000000000E+00 -0.53832106355E+02  0.53832106355E+02  0.00000000000E+00 0. -1.
         25    1    1    2    0    0 -0.11412834501E+03 -0.82353385465E+01  0.32696244222E+03  0.36826965468E+03  0.12500000000E+03 0.  0.
         25    1    1    2    0    0  0.11412834501E+03  0.82353385465E+01  0.18321238424E+03  0.24956938449E+03  0.12500000000E+03 0.  0.
</event>
<event>
 4    0  0.2185218E-002  0.2576545E+03  0.7546771E-02  0.1108561E+00
         21   -1    0    0  502  501  0.00000000000E+00  0.00000000000E+00  0.63751474467E+02  0.63751474467E+02  0.00000000000E+00 0.  1.
         21   -1    0    0  501  502 -0.00000000000E+00 -0.00000000000E+00 -0.10413226710E+04  0.10413226710E+04  0.00000000000E+00 0.  1.
         25    1    1    2    0    0 -0.15488435640E+03 -0.93316823263E+02 -0.20056398368E+03  0.29757033607E+03  0.12500000000E+03 0.  0.
         25    1    1    2    0    0  0.15488435640E+03  0.93316823263E+02 -0.77700721285E+03  0.80750380939E+03  0.12500000000E+03 0.  0.
</event>
<event>
 4    0  0.2185218E-002  0.1962048E+03  0.7546771E-02  0.1152981E+00
         21   -1    0    0  502  501  0.00000000000E+00  0.00000000000E+00  0.87587346657E+02  0.87587346657E+02  0.00000000000E+00 0. -1.
         21   -1    0    0  501  502 -0.00000000000E+00 -0.00000000000E+00 -0.43951918268E+03  0.43951918268E+03  0.00000000000E+00 0. -1.
         25    1    1    2    0    0 -0.43279339260E+02  0.70743083140E+01 -0.37038185519E+03  0.39335844429E+03  0.12500000000E+03 0.  0.
         25    1    1    2    0    0  0.43279339260E+02 -0.70743083140E+01  0.18450019167E+02  0.13374808504E+03  0.12500000000E+03 0.  0.
</event>
<event>
 4    0  0.2185218E-002  0.1659790E+03  0.7546771E-02  0.1182107E+00
         21   -1    0    0  502  501  0.00000000000E+00  0.00000000000E+00  0.94706357940E+02  0.94706357940E+02  0.00000000000E+00 0.  1.
         21   -1    0    0  501  502 -0.00000000000E+00 -0.00000000000E+00 -0.29088906952E+03  0.29088906952E+03  0.00000000000E+00 0.  1.
         25    1    1    2    0    0 -0.19995442127E+01  0.78917772495E+02 -0.18572729635E+03  0.23738500711E+03  0.12500000000E+03 0.  0.
         25    1    1    2    0    0  0.19995442127E+01 -0.78917772495E+02 -0.10455415233E+02  0.14821042035E+03  0.12500000000E+03 0.  0.
</event>
<event>
 4    0  0.2185218E-002  0.2014015E+03  0.7546771E-02  0.1148562E+00
         21   -1    0    0  502  501  0.00000000000E+00  0.00000000000E+00  0.56522019381E+03  0.56522019381E+03  0.00000000000E+00 0.  1.
         21   -1    0    0  501  502 -0.00000000000E+00 -0.00000000000E+00 -0.71764177843E+02  0.71764177843E+02  0.00000000000E+00 0.  1.
         25    1    1    2    0    0 -0.34628021717E+02 -0.10153112473E+03  0.63466029300E+02  0.17652366995E+03  0.12500000000E+03 0.  0.
         25    1    1    2    0    0  0.34628021717E+02  0.10153112473E+03  0.42998998667E+03  0.46046070170E+03  0.12500000000E+03 0.  0.
</event>
<event>
 4    0  0.2185218E-002  0.2678061E+03  0.7546771E-02  0.1102542E+00
         21   -1    0    0  502  501  0.00000000000E+00  0.00000000000E+00  0.21779270528E+03  0.21779270528E+03  0.00000000000E+00 0.  1.
         21   -1    0    0  501  502 -0.00000000000E+00 -0.00000000000E+00 -0.32930439899E+03  0.32930439899E+03  0.00000000000E+00 0.  1.
         25    1    1    2    0    0  0.15873687445E+03 -0.10669694119E+03  0.86930089013E+02  0.24446568869E+03  0.12500000000E+03 0.  0.
         25    1    1    2    0    0 -0.15873687445E+03  0.10669694119E+03 -0.19844178273E+03  0.30263141559E+03  0.12500000000E+03 0.  0.
</event>
<event>
 4    0  0.2185218E-002  0.1742520E+03  0.7546771E-02  0.1173485E+00
         21   -1    0    0  502  501  0.00000000000E+00  0.00000000000E+00  0.32489623629E+04  0.32489623629E+04  0.00000000000E+00 0. -1.
         21   -1    0    0  501  502 -0.00000000000E+00 -0.00000000000E+00 -0.93456815805E+01  0.93456815805E+01  0.00000000000E+00 0. -1.
         25    1    1    2    0    0  0.53699262510E+02  0.10745987402E+03  0.17837652597E+04  0.17921703984E+04  0.12500000000E+03 0.  0.
         25    1    1    2    0    0 -0.53699262510E+02 -0.10745987402E+03  0.14558514217E+04  0.14661376461E+04  0.12500000000E+03 0.  0.
</event>
<event>
 4    0  0.2185218E-002  0.1782166E+03  0.7546771E-02  0.1169540E+00
         21   -1    0    0  502  501  0.00000000000E+00  0.00000000000E+00  0.17334500386E+03  0.17334500386E+03  0.00000000000E+00 0.  1.
         21   -1    0    0  501  502 -0.00000000000E+00 -0.00000000000E+00 -0.18322520758E+03  0.18322520758E+03  0.00000000000E+00 0.  1.
         25    1    1    2    0    0 -0.10178044193E+03 -0.11508562864E+02 -0.80098641140E+02  0.18036767363E+03  0.12500000000E+03 0.  0.
         25    1    1    2    0    0  0.10178044193E+03  0.11508562864E+02  0.70218437420E+02  0.17620253782E+03  0.12500000000E+03 0.  0.
</event>
<event>
 4    0  0.2185218E-002  0.3806414E+03  0.7546771E-02  0.1050697E+00
         21   -1    0    0  502  501  0.00000000000E+00  0.00000000000E+00  0.17287472180E+03  0.17287472180E+03  0.00000000000E+00 0.  1.
         21   -1    0    0  501  502 -0.00000000000E+00 -0.00000000000E+00 -0.83810928446E+03  0.83810928446E+03  0.00000000000E+00 0.  1.
         25    1    1    2    0    0 -0.52776298530E+02  0.16154434405E+03 -0.75336712962E+03  0.78234835257E+03  0.12500000000E+03 0.  0.
         25    1    1    2    0    0  0.52776298530E+02 -0.16154434405E+03  0.88132566957E+02  0.22863565370E+03  0.12500000000E+03 0.  0.
</event>
<event>
 4    0  0.2185218E-002  0.2086849E+03  0.7546771E-02  0.1142612E+00
         21   -1    0    0  502  501  0.00000000000E+00  0.00000000000E+00  0.27596490311E+03  0.27596490311E+03  0.00000000000E+00 0. -1.
         21   -1    0    0  501  502 -0.00000000000E+00 -0.00000000000E+00 -0.15780768191E+03  0.15780768191E+03  0.00000000000E+00 0. -1.
         25    1    1    2    0    0  0.11397983183E+03 -0.85100427324E+02 -0.32065707881E+02  0.19205909095E+03  0.12500000000E+03 0.  0.
         25    1    1    2    0    0 -0.11397983183E+03  0.85100427324E+02  0.15022292909E+03  0.24171349407E+03  0.12500000000E+03 0.  0.
</event>
<event>
 4    0  0.2185218E-002  0.1637258E+03  0.7546771E-02  0.1184553E+00
         21   -1    0    0  502  501  0.00000000000E+00  0.00000000000E+00  0.56079594003E+03  0.56079594003E+03  0.00000000000E+00 0. -1.
         21   -1    0    0  501  502 -0.00000000000E+00 -0.00000000000E+00 -0.47800166617E+02  0.47800166617E+02  0.00000000000E+00 0. -1.
         25    1    1    2    0    0 -0.10189455716E+03  0.21664791389E+02  0.22277213126E+03  0.27587005352E+03  0.12500000000E+03 0.  0.
         25    1    1    2    0    0  0.10189455716E+03 -0.21664791389E+02  0.29022364216E+03  0.33272605313E+03  0.12500000000E+03 0.  0.
</event>
<event>
 4    0  0.2185218E-002  0.3942969E+03  0.7546771E-02  0.1045773E+00
         21   -1    0    0  502  501  0.00000000000E+00  0.00000000000E+00  0.12704989331E+03  0.12704989331E+03  0.00000000000E+00 0. -1.
         21   -1    0    0  501  502 -0.00000000000E+00 -0.00000000000E+00 -0.12236926678E+04  0.12236926678E+04  0.00000000000E+00 0. -1.
         25    1    1    2    0    0  0.32201311927E+02 -0.36006400642E+03 -0.71227259890E+03  0.80848022137E+03  0.12500000000E+03 0.  0.
         25    1    1    2    0    0 -0.32201311927E+02  0.36006400642E+03 -0.38437017554E+03  0.54226233970E+03  0.12500000000E+03 0.  0.
</event>
<event>
 4    0  0.2185218E-002  0.1770089E+03  0.7546771E-02  0.1170730E+00
         21   -1    0    0  502  501  0.00000000000E+00  0.00000000000E+00  0.18432439966E+02  0.18432439966E+02  0.00000000000E+00 0.  1.
         21   -1    0    0  501  502 -0.00000000000E+00 -0.00000000000E+00 -0.16998380358E+04  0.16998380358E+04  0.00000000000E+00 0.  1.
         25    1    1    2    0    0  0.59474031524E+02  0.10958125345E+03 -0.77893555975E+03  0.79869319377E+03  0.12500000000E+03 0.  0.
         25    1    1    2    0    0 -0.59474031524E+02 -0.10958125345E+03 -0.90247003611E+03  0.91957728202E+03  0.12500000000E+03 0.  0.
</event>
<event>
 4    0  0.2185218E-002  0.3361266E+03  0.7546771E-02  0.1068458E+00
         21   -1    0    0  502  501  0.00000000000E+00  0.00000000000E+00  0.10036995543E+04  0.10036995543E+04  0.00000000000E+00 0.  1.
         21   -1    0    0  501  502 -0.00000000000E+00 -0.00000000000E+00 -0.11256468398E+03  0.11256468398E+03  0.00000000000E+00 0.  1.
         25    1    1    2    0    0  0.21943302892E+02 -0.45455527714E+02  0.95684590248E+03  0.96629539720E+03  0.12500000000E+03 0.  0.
         25    1    1    2    0    0 -0.21943302892E+02  0.45455527714E+02 -0.65711032178E+02  0.14996884107E+03  0.12500000000E+03 0.  0.
</event>
<event>
 4    0  0.2185218E-002  0.1936477E+03  0.7546771E-02  0.1155212E+00
         21   -1    0    0  502  501  0.00000000000E+00  0.00000000000E+00  0.10535825721E+04  0.10535825721E+04  0.00000000000E+00 0. -1.
         21   -1    0    0  501  502 -0.00000000000E+00 -0.00000000000E+00 -0.35592293840E+02  0.35592293840E+02  0.00000000000E+00 0. -1.
         25    1    1    2    0    0  0.10760039846E+03 -0.92372802756E+02  0.39088561020E+03  0.43419712194E+03  0.12500000000E+03 0.  0.
         25    1    1    2    0    0 -0.10760039846E+03  0.92372802756E+02  0.62710466806E+03  0.65497774401E+03  0.12500000000E+03 0.  0.
</event>
<event>
 4    0  0.2185218E-002  0.2423470E+03  0.7546771E-02  0.1118239E+00
         21   -1    0    0  502  501  0.00000000000E+00  0.00000000000E+00  0.18491043280E+03  0.18491043280E+03  0.00000000000E+00 0.  1.
         21   -1    0    0  501  502 -0.00000000000E+00 -0.00000000000E+00 -0.31762435047E+03  0.31762435047E+03  0.00000000000E+00 0.  1.
         25    1    1    2    0    0  0.17758690828E+03  0.98671108645E+02 -0.11075801221E+03  0.26299322224E+03  0.12500000000E+03 0.  0.
         25    1    1    2    0    0 -0.17758690828E+03 -0.98671108645E+02 -0.21955905456E+02  0.23954156103E+03  0.12500000000E+03 0.  0.
</event>
<event>
 4    0  0.2185218E-002  0.2471032E+03  0.7546771E-02  0.1115149E+00
         21   -1    0    0  502  501  0.00000000000E+00  0.00000000000E+00  0.28416429172E+03  0.28416429172E+03  0.00000000000E+00 0.  1.
         21   -1    0    0  501  502 -0.00000000000E+00 -0.00000000000E+00 -0.21487574620E+03  0.21487574620E+03  0.00000000000E+00 0.  1.
         25    1    1    2    0    0 -0.54194027344E+01  0.21262120889E+03  0.48848327675E+02  0.25149216193E+03  0.12500000000E+03 0.  0.
         25    1    1    2    0    0  0.54194027344E+01 -0.21262120889E+03  0.20440217852E+02  0.24754787598E+03  0.12500000000E+03 0.  0.
</event>
<event>
 4    0  0.2185218E-002  0.2414802E+03  0.7546771E-02  0.1118811E+00
         21   -1    0    0  502  501  0.00000000000E+00  0.00000000000E+00  0.73857508861E+03  0.73857508861E+03  0.00000000000E+00 0. -1.
         21   -1    0    0  501  502 -0.00000000000E+00 -0.00000000000E+00 -0.78952963942E+02  0.78952963942E+02  0.00000000000E+00 0. -1.
         25    1    1    2    0    0  0.18451268932E+03 -0.58307830962E+02  0.20724245384E+03  0.30986960216E+03  0.12500000000E+03 0.  0.
         25    1    1    2    0    0 -0.18451268932E+03  0.58307830962E+02  0.45237967083E+03  0.50765845039E+03  0.12500000000E+03 0.  0.
</event>
<event>
 4    0  0.2185218E-002  0.2155158E+03  0.7546771E-02  0.1137271E+00
         21   -1    0    0  502  501  0.00000000000E+00  0.00000000000E+00  0.14545129842E+03  0.14545129842E+03  0.00000000000E+00 0. -1.
         21   -1    0    0  501  502 -0.00000000000E+00 -0.00000000000E+00 -0.31933065204E+03  0.31933065204E+03  0.00000000000E+00 0. -1.
         25    1    1    2    0    0  0.11605240725E+03  0.13069034330E+03 -0.10478648968E+03  0.23906763787E+03  0.12500000000E+03 0.  0.
         25    1    1    2    0    0 -0.11605240725E+03 -0.13069034330E+03 -0.69092863944E+02  0.22571431259E+03  0.12500000000E+03 0.  0.
</event>
<event>
 4    0  0.2185218E-002  0.2292695E+03  0.7546771E-02  0.1127155E+00
         21   -1    0    0  502  501  0.00000000000E+00  0.00000000000E+00  0.23442327356E+04  0.23442327356E+04  0.00000000000E+00 0. -1.
         21   -1    0    0  501  502 -0.00000000000E+00 -0.00000000000E+00 -0.22422903155E+02  0.22422903155E+02  0.00000000000E+00 0. -1.
         25    1    1    2    0    0  0.13105489533E+03 -0.94281775219E+02  0.16991433662E+04  0.17113671779E+04  0.12500000000E+03 0.  0.
         25    1    1    2    0    0 -0.13105489533E+03  0.94281775219E+02  0.62266646625E+03  0.65528846085E+03  0.12500000000E+03 0.  0.
</event>
<event>
 4    0  0.2185218E-002  0.2556486E+03  0.7546771E-02  0.1109786E+00
         21   -1    0    0  502  501  0.00000000000E+00  0.00000000000E+00  0.19601344789E+03  0.19601344789E+03  0.00000000000E+00 0. -1.
         21   -1    0    0  501  502 -0.00000000000E+00 -0.00000000000E+00 -0.33342703057E+03  0.33342703057E+03  0.00000000000E+00 0. -1.
         25    1    1    2    0    0  0.97228152795E+02  0.16539378050E+03  0.49005426663E+02  0.23416863190E+03  0.12500000000E+03 0.  0.
         25    1    1    2    0    0 -0.97228152795E+02 -0.16539378050E+03 -0.18641900934E+03  0.29527184655E+03  0.12500000000E+03 0.  0.
</event>
<event>
 4    0  0.2185218E-002  0.2366069E+03  0.7546771E-02  0.1122074E+00
         21   -1    0    0  502  501  0.00000000000E+00  0.00000000000E+00  0.54930548595E+02  0.54930548595E+02  0.00000000000E+00 0. -1.
         21   -1    0    0  501  502 -0.00000000000E+00 -0.00000000000E+00 -0.10191565678E+04  0.10191565678E+04  0.00000000000E+00 0. -1.
         25    1    1    2    0    0 -0.44602379670E+02 -0.24689711185E+02 -0.92316685643E+03  0.93298499394E+03  0.12500000000E+03 0.  0.
         25    1    1    2    0    0  0.44602379670E+02  0.24689711185E+02 -0.41059162764E+02  0.14110212244E+03  0.12500000000E+03 0.  0.
</event>
<event>
 4    0  0.2185218E-002  0.3356496E+03  0.7546771E-02  0.1068664E+00
         21   -1    0    0  502  501  0.00000000000E+00  0.00000000000E+00  0.20872262094E+03  0.20872262094E+03  0.00000000000E+00 0.  1.
         21   -1    0    0  501  502 -0.00000000000E+00 -0.00000000000E+00 -0.53976269851E+03  0.53976269851E+03  0.00000000000E+00 0.  1.
         25    1    1    2    0    0  0.98152477787E+00 -0.64069123420E+01  0.18172719942E+03  0.22066215563E+03  0.12500000000E+03 0.  0.
         25    1    1    2    0    0 -0.98152477787E+00  0.64069123420E+01 -0.51276727699E+03  0.52782316382E+03  0.12500000000E+03 0.  0.
</event>
<event>
 4    0  0.2185218E-002  0.3114794E+03  0.7546771E-02  0.1079639E+00
         21   -1    0    0  502  501  0.00000000000E+00  0.00000000000E+00  0.53893473775E+03  0.53893473775E+03  0.00000000000E+00 0.  1.
         21   -1    0    0  501  502 -0.00000000000E+00 -0.00000000000E+00 -0.18002068154E+03  0.18002068154E+03  0.00000000000E+00 0.  1.
         25    1    1    2    0    0  0.91970636501E+02  0.13071935592E+03 -0.93282110235E+02  0.22332196507E+03  0.12500000000E+03 0.  0.
         25    1    1    2    0    0 -0.91970636501E+02 -0.13071935592E+03  0.45219616644E+03  0.49563345422E+03  0.12500000000E+03 0.  0.
</event>
<event>
 4    0  0.2185218E-002  0.3488921E+03  0.7546771E-02  0.1063071E+00
         21   -1    0    0  502  501  0.00000000000E+00  0.00000000000E+00  0.83435354195E+02  0.83435354195E+02  0.00000000000E+00 0. -1.
         21   -1    0    0  501  502 -0.00000000000E+00 -0.00000000000E+00 -0.14589222200E+04  0.14589222200E+04  0.00000000000E+00 0. -1.
         25    1    1    2    0    0  0.29888972145E+03 -0.10087864291E+03 -0.86716632558E+03  0.93118956309E+03  0.12500000000E+03 0.  0.
         25    1    1    2    0    0 -0.29888972145E+03  0.10087864291E+03 -0.50832054022E+03  0.61116801111E+03  0.12500000000E+03 0.  0.
</event>
<event>
 4    0  0.2185218E-002  0.1981247E+03  0.7546771E-02  0.1151331E+00
         21   -1    0    0  502  501  0.00000000000E+00  0.00000000000E+00  0.15671646211E+03  0.15671646211E+03  0.00000000000E+00 0. -1.
         21   -1    0    0  501  502 -0.00000000000E+00 -0.00000000000E+00 -0.25047398378E+03  0.25047398378E+03  0.00000000000E+00 0. -1.
         25    1    1    2    0    0  0.13127333998E+03 -0.51055310147E+02 -0.11013375564E+03  0.21815998399E+03  0.12500000000E+03 0.  0.
         25    1    1    2    0    0 -0.13127333998E+03  0.51055310147E+02  0.16376233968E+02  0.18903046189E+03  0.12500000000E+03 0.  0.
</event>
<event>
 4    0  0.2185218E-002  0.1902914E+03  0.7546771E-02  0.1158199E+00
         21   -1    0    0  502  501  0.00000000000E+00  0.00000000000E+00  0.55874622135E+02  0.55874622135E+02  0.00000000000E+00 0.  1.
         21   -1    0    0  501  502 -0.00000000000E+00 -0.00000000000E+00 -0.64807275566E+03  0.64807275566E+03  0.00000000000E+00 0.  1.
         25    1    1    2    0    0 -0.68334917953E+02  0.12560539602E+03 -0.27425715481E+03  0.33359910594E+03  0.12500000000E+03 0.  0.
         25    1    1    2    0    0  0.68334917953E+02 -0.12560539602E+03 -0.31794097872E+03  0.37034827186E+03  0.12500000000E+03 0.  0.
</event>
<event>
 4    0  0.2185218E-002  0.3254296E+03  0.7546771E-02  0.1073177E+00
         21   -1    0    0  502  501  0.00000000000E+00  0.00000000000E+00  0.36760636576E+03  0.36760636576E+03  0.00000000000E+00 0.  1.
         21   -1    0    0  501  502 -0.00000000000E+00 -0.00000000000E+00 -0.28809188026E+03  0.28809188026E+03  0.00000000000E+00 0.  1.
         25    1    1    2    0    0  0.15599355888E+03  0.68377908855E+02  0.28912512750E+03  0.35808919026E+03  0.12500000000E+03 0.  0.
         25    1    1    2    0    0 -0.15599355888E+03 -0.68377908855E+02 -0.20961064200E+03  0.29760905576E+03  0.12500000000E+03 0.  0.
</event>
<event>
 4    0  0.2185218E-002  0.3346025E+03  0.7546771E-02  0.1069118E+00
         21   -1    0    0  502  501  0.00000000000E+00  0.00000000000E+00  0.17584140446E+04  0.17584140446E+04  0.00000000000E+00 0.  1.
         21   -1    0    0  501  502 -0.00000000000E+00 -0.00000000000E+00 -0.63670345581E+02  0.63670345581E+02  0.00000000000E+00 0.  1.
         25    1    1    2    0    0 -0.20518605431E+03  0.94399425668E+02  0.26772922920E+03  0.37190927471E+03  0.12500000000E+03 0.  0.
         25    1    1    2    0    0  0.20518605431E+03 -0.94399425668E+02  0.14270144698E+04  0.14501751154E+04  0.12500000000E+03 0.  0.
</event>
<event>
 4    0  0.2185218E-002  0.1933107E+03  0.7546771E-02  0.1155509E+00
         21   -1    0    0  502  501  0.00000000000E+00  0.00000000000E+00  0.18178644782E+04  0.18178644782E+04  0.00000000000E+00 0. -1.
         21   -1    0    0  501  502 -0.00000000000E+00 -0.00000000000E+00 -0.20556559254E+02  0.20556559254E+02  0.00000000000E+00 0. -1.
         25    1    1    2    0    0  0.68837183975E+02  0.12212161933E+03  0.68117453623E+03  0.70659464802E+03  0.12500000000E+03 0.  0.
         25    1    1    2    0    0 -0.68837183975E+02 -0.12212161933E+03  0.11161333828E+04  0.11318263895E+04  0.12500000000E+03 0.  0.
</event>
<event>
 4    0  0.2185218E-002  0.2292020E+03  0.7546771E-02  0.1127203E+00
         21   -1    0    0  502  501  0.00000000000E+00  0.00000000000E+00  0.74749564947E+02  0.74749564947E+02  0.00000000000E+00 0.  1.
         21   -1    0    0  501  502 -0.00000000000E+00 -0.00000000000E+00 -0.70279385974E+03  0.70279385974E+03  0.00000000000E+00 0.  1.
         25    1    1    2    0    0 -0.17328802521E+03  0.47576354594E+02 -0.42926730876E+03  0.48185855971E+03  0.12500000000E+03 0.  0.
         25    1    1    2    0    0  0.17328802521E+03 -0.47576354594E+02 -0.19877698603E+03  0.29568486497E+03  0.12500000000E+03 0.  0.
</event>
<event>
 4    0  0.2185218E-002  0.1938350E+03  0.7546771E-02  0.1155047E+00
         21   -1    0    0  502  501  0.00000000000E+00  0.00000000000E+00  0.17951071106E+04  0.17951071106E+04  0.00000000000E+00 0.  1.
         21   -1    0    0  501  502 -0.00000000000E+00 -0.00000000000E+00 -0.20930237823E+02  0.20930237823E+02  0.00000000000E+00 0.  1.
         25    1    1    2    0    0  0.11809034745E+03  0.44996088807E+02  0.12492527190E+04  0.12618349076E+04  0.12500000000E+03 0.  0.
         25    1    1    2    0    0 -0.11809034745E+03 -0.44996088807E+02  0.52492415380E+03  0.55420244083E+03  0.12500000000E+03 0.  0.
</event>
<event>
 4    0  0.2185218E-002  0.3014231E+03  0.7546771E-02  0.1084531E+00
         21   -1    0    0  502  501  0.00000000000E+00  0.00000000000E+00  0.23611301798E+04  0.23611301798E+04  0.00000000000E+00 0.  1.
         21   -1    0    0  501  502 -0.00000000000E+00 -0.00000000000E+00 -0.38479840647E+02  0.38479840647E+02  0.00000000000E+00 0.  1.
         25    1    1    2    0    0  0.18343688590E+03 -0.17541467754E+03  0.15752079016E+04  0.16004138007E+04  0.12500000000E+03 0.  0.
         25    1    1    2    0    0 -0.18343688590E+03  0.17541467754E+03  0.74744243759E+03  0.79919621978E+03  0.12500000000E+03 0.  0.
</event>
<event>
 4    0  0.2185218E-002  0.1535458E+03  0.7546771E-02  0.1196182E+00
         21   -1    0    0  502  501  0.00000000000E+00  0.00000000000E+00  0.17283142612E+03  0.17283142612E+03  0.00000000000E+00 0. -1.
         21   -1    0    0  501  502 -0.00000000000E+00 -0.00000000000E+00 -0.13641219399E+03  0.13641219399E+03  0.00000000000E+00 0. -1.
         25    1    1    2    0    0  0.25329410694E+02 -0.67269938468E+02  0.71347671634E+02  0.16087981202E+03  0.12500000000E+03 0.  0.
         25    1    1    2    0    0 -0.25329410694E+02  0.67269938468E+02 -0.34928439502E+02  0.14836380810E+03  0.12500000000E+03 0.  0.
</event>
<event>
 4    0  0.2185218E-002  0.2679662E+03  0.7546771E-02  0.1102449E+00
         21   -1    0    0  502  501  0.00000000000E+00  0.00000000000E+00  0.26091659820E+03  0.26091659820E+03  0.00000000000E+00 0. -1.
         21   -1    0    0  501  502 -0.00000000000E+00 -0.00000000000E+00 -0.27520630844E+03  0.27520630844E+03  0.00000000000E+00 0. -1.
         25    1    1    2    0    0  0.23384781727E+03  0.12366506286E+01 -0.45818171301E+02  0.26909224398E+03  0.12500000000E+03 0.  0.
         25    1    1    2    0    0 -0.23384781727E+03 -0.12366506286E+01  0.31528461053E+02  0.26703066266E+03  0.12500000000E+03 0.  0.
</event>
<event>
 4    0  0.2185218E-002  0.1455510E+03  0.7546771E-02  0.1206049E+00
         21   -1    0    0  502  501  0.00000000000E+00  0.00000000000E+00  0.14171391539E+03  0.14171391539E+03  0.00000000000E+00 0. -1.
         21   -1    0    0  501  502 -0.00000000000E+00 -0.00000000000E+00 -0.14949192402E+03  0.14949192402E+03  0.00000000000E+00 0. -1.
         25    1    1    2    0    0 -0.38518704361E+02  0.61215839321E+02 -0.22034284485E+02  0.14608757395E+03  0.12500000000E+03 0.  0.
         25    1    1    2    0    0  0.38518704361E+02 -0.61215839321E+02  0.14256275860E+02  0.14511826546E+03  0.12500000000E+03 0.  0.
</event>
<event>
 4    0  0.2185218E-002  0.1592235E+03  0.7546771E-02  0.1189576E+00
         21   -1    0    0  502  501  0.00000000000E+00  0.00000000000E+00  0.82617818900E+03  0.82617818900E+03  0.00000000000E+00 0. -1.
         21   -1    0    0  501  502 -0.00000000000E+00 -0.00000000000E+00 -0.30686030696E+02  0.30686030696E+02  0.00000000000E+00 0. -1.
         25    1    1    2    0    0  0.95233136119E+02  0.20356843349E+02  0.43972346942E+03  0.46740291061E+03  0.12500000000E+03 0.  0.
         25    1    1    2    0    0 -0.95233136119E+02 -0.20356843349E+02  0.35576868888E+03  0.38946130908E+03  0.12500000000E+03 0.  0.
</event>
<event>
 4    0  0.2185218E-002  0.2245744E+03  0.7546771E-02  0.1130518E+00
         21   -1    0    0  502  501  0.00000000000E+00  0.00000000000E+00  0.96850861887E+03  0.96850861887E+03  0.00000000000E+00 0. -1.
         21   -1    0    0  501  502 -0.00000000000E+00 -0.00000000000E+00 -0.52073513584E+02  0.52073513584E+02  0.00000000000E+00 0. -1.
         25    1    1    2    0    0  0.13203781147E+03 -0.11677714452E+03  0.59713716957E+03  0.63503439625E+03  0.12500000000E+03 0.  0.
         25    1    1    2    0    0 -0.13203781147E+03  0.11677714452E+03  0.31929793572E+03  0.38554773621E+03  0.12500000000E+03 0.  0.
</event>
<event>
 4    0  0.2185218E-002  0.2388216E+03  0.7546771E-02  0.1120580E+00
         21   -1    0    0  502  501  0.00000000000E+00  0.00000000000E+00  0.24449474350E+03  0.24449474350E+03  0.00000000000E+00 0. -1.
         21   -1    0    0  501  502 -0.00000000000E+00 -0.00000000000E+00 -0.23328009285E+03  0.23328009285E+03  0.00000000000E+00 0. -1.
         25    1    1    2    0    0 -0.16308145446E+03  0.12118156617E+03  0.17022030150E+02  0.23915535176E+03  0.12500000000E+03 0.  0.
         25    1    1    2    0    0  0.16308145446E+03 -0.12118156617E+03 -0.58073795039E+01  0.23861948459E+03  0.12500000000E+03 0.  0.
</event>
<event>
 4    0  0.2185218E-002  0.2545808E+03  0.7546771E-02  0.1110444E+00
         21   -1    0    0  502  501  0.00000000000E+00  0.00000000000E+00  0.63232621737E+03  0.63232621737E+03  0.00000000000E+00 0. -1.
         21   -1    0    0  501  502 -0.00000000000E+00 -0.00000000000E+00 -0.10249673546E+03  0.10249673546E+03  0.00000000000E+00 0. -1.
         25    1    1    2    0    0  0.40706638112E+02 -0.19144904972E+03  0.41542765537E+03  0.47593582116E+03  0.12500000000E+03 0.  0.
         25    1    1    2    0    0 -0.40706638112E+02  0.19144904972E+03  0.11440182655E+03  0.25888713166E+03  0.12500000000E+03 0.  0.
</event>
<event>
 4    0  0.2185218E-002  0.2619038E+03  0.7546771E-02  0.1106005E+00
         21   -1    0    0  502  501  0.00000000000E+00  0.00000000000E+00  0.31799509003E+03  0.31799509003E+03  0.00000000000E+00 0.  1.
         21   -1    0    0  501  502 -0.00000000000E+00 -0.00000000000E+00 -0.21570646552E+03  0.21570646552E+03  0.00000000000E+00 0.  1.
         25    1    1    2    0    0  0.15373498358E+03 -0.15188745188E+03  0.13178696773E+03  0.28230665610E+03  0.12500000000E+03 0.  0.
         25    1    1    2    0    0 -0.15373498358E+03  0.15188745188E+03 -0.29498343227E+02  0.25139489945E+03  0.12500000000E+03 0.  0.
</event>
<event>
 4    0  0.2185218E-002  0.2110520E+03  0.7546771E-02  0.1140736E+00
         21   -1    0    0  502  501  0.00000000000E+00  0.00000000000E+00  0.48725571013E+03  0.48725571013E+03  0.00000000000E+00 0. -1.
         21   -1    0    0  501  502 -0.00000000000E+00 -0.00000000000E+00 -0.91415990145E+02  0.91415990145E+02  0.00000000000E+00 0. -1.
         25    1    1    2    0    0 -0.15163171339E+03 -0.74326952399E+02  0.22538250210E+03  0.30812163931E+03  0.12500000000E+03 0.  0.
         25    1    1    2    0    0  0.15163171339E+03  0.74326952399E+02  0.17045721788E+03  0.27055006096E+03  0.12500000000E+03 0.  0.
</event>
<event>
 4    0  0.2185218E-002  0.1872331E+03  0.7546771E-02  0.1160981E+00
         21   -1    0    0  502  501  0.00000000000E+00  0.00000000000E+00  0.10050861157E+03  0.10050861157E+03  0.00000000000E+00 0. -1.
         21   -1    0    0  501  502 -0.00000000000E+00 -0.00000000000E+00 -0.34878849554E+03  0.34878849554E+03  0.00000000000E+00 0. -1.
         25    1    1    2    0    0  0.57134522359E+01  0.13878114432E+03 -0.11002478846E+03  0.21684857304E+03  0.12500000000E+03 0.  0.
         25    1    1    2    0    0 -0.57134522359E+01 -0.13878114432E+03 -0.13825509552E+03  0.23244853407E+03  0.12500000000E+03 0.  0.
</event>
<event>
 4    0  0.2185218E-002  0.2243485E+03  0.7546771E-02  0.1130682E+00
         21   -1    0    0  502  501  0.00000000000E+00  0.00000000000E+00  0.97285113237E+03  0.97285113237E+03  0.00000000000E+00 0.  1.
         21   -1    0    0  501  502 -0.00000000000E+00 -0.00000000000E+00 -0.51736843598E+02  0.51736843598E+02  0.00000000000E+00 0.  1.
         25    1    1    2    0    0 -0.32100552808E+02 -0.74361982683E+02  0.77456480618E+02  0.16788286496E+03  0.12500000000E+03 0.  0.
         25    1    1    2    0    0  0.32100552808E+02  0.74361982683E+02  0.84365780816E+03  0.85670511101E+03  0.12500000000E+03 0.  0.
</event>
<event>
 4    0  0.2185218E-002  0.1831593E+03  0.7546771E-02  0.1164780E+00
         21   -1    0    0  502  501  0.00000000000E+00  0.00000000000E+00  0.19983655837E+04  0.19983655837E+04  0.00000000000E+00 0. -1.
         21   -1    0    0  501  502 -0.00000000000E+00 -0.00000000000E+00 -0.16787381324E+02  0.16787381324E+02  0.00000000000E+00 0. -1.
         25    1    1    2    0    0  0.50031225741E+02  0.67159838769E+02  0.15653508626E+04  0.15725653852E+04  0.12500000000E+03 0.  0.
         25    1    1    2    0    0 -0.50031225741E+02 -0.67159838769E+02  0.41622733979E+03  0.44258757990E+03  0.12500000000E+03 0.  0.
</event>
<event>
 4    0  0.2185218E-002  0.2844661E+03  0.7546771E-02  0.1093274E+00
         21   -1    0    0  502  501  0.00000000000E+00  0.00000000000E+00  0.10372645151E+03  0.10372645151E+03  0.00000000000E+00 0.  1.
         21   -1    0    0  501  502 -0.00000000000E+00 -0.00000000000E+00 -0.78013807170E+03  0.78013807170E+03  0.00000000000E+00 0.  1.
         25    1    1    2    0    0  0.11236352133E+03 -0.80892802241E+02 -0.67186387466E+03  0.69727704139E+03  0.12500000000E+03 0.  0.
         25    1    1    2    0    0 -0.11236352133E+03  0.80892802241E+02 -0.45477455326E+01  0.18658748181E+03  0.12500000000E+03 0.  0.
</event>
<event>
 4    0  0.2185218E-002  0.3466523E+03  0.7546771E-02  0.1063998E+00
         21   -1    0    0  502  501  0.00000000000E+00  0.00000000000E+00  0.48457610551E+02  0.48457610551E+02  0.00000000000E+00 0. -1.
         21   -1    0    0  501  502 -0.00000000000E+00 -0.00000000000E+00 -0.24798541173E+04  0.24798541173E+04  0.00000000000E+00 0. -1.
         25    1    1    2    0    0  0.17838435164E+03  0.15664327138E+03 -0.20161980032E+04  0.20339708649E+04  0.12500000000E+03 0.  0.
         25    1    1    2    0    0 -0.17838435164E+03 -0.15664327138E+03 -0.41519850355E+03  0.49434086289E+03  0.12500000000E+03 0.  0.
</event>
<event>
 4    0  0.2185218E-002  0.2461474E+03  0.7546771E-02  0.1115764E+00
         21   -1    0    0  502  501  0.00000000000E+00  0.00000000000E+00  0.42420710495E+02  0.42420710495E+02  0.00000000000E+00 0. -1.
         21   -1    0    0  501  502 -0.00000000000E+00 -0.00000000000E+00 -0.14282777223E+04  0.14282777223E+04  0.00000000000E+00 0. -1.
         25    1    1    2    0    0  0.14460774149E+03  0.14460131638E+03 -0.52545581290E+03  0.57753766190E+03  0.12500000000E+03 0.  0.
         25    1    1    2    0    0 -0.14460774149E+03 -0.14460131638E+03 -0.86040119892E+03  0.89316077091E+03  0.12500000000E+03 0.  0.
</event>
<event>
 4    0  0.2185218E-002  0.1703310E+03  0.7546771E-02  0.1177503E+00
         21   -1    0    0  502  501  0.00000000000E+00  0.00000000000E+00  0.30305155787E+03  0.30305155787E+03  0.00000000000E+00 0.  1.
         21   -1    0    0  501  502 -0.00000000000E+00 -0.00000000000E+00 -0.95735050051E+02  0.95735050051E+02  0.00000000000E+00 0.  1.
         25    1    1    2    0    0  0.74287601509E+02 -0.26330220957E+02  0.20282128713E+03  0.25094501945E+03  0.12500000000E+03 0.  0.
         25    1    1    2    0    0 -0.74287601509E+02  0.26330220957E+02  0.44952206933E+01  0.14784158847E+03  0.12500000000E+03 0.  0.
</event>
<event>
 4    0  0.2185218E-002  0.2037575E+03  0.7546771E-02  0.1146607E+00
         21   -1    0    0  502  501  0.00000000000E+00  0.00000000000E+00  0.42545033420E+02  0.42545033420E+02  0.00000000000E+00 0. -1.
         21   -1    0    0  501  502 -0.00000000000E+00 -0.00000000000E+00 -0.97583975910E+03  0.97583975910E+03  0.00000000000E+00 0. -1.
         25    1    1    2    0    0  0.11634604601E+03 -0.10928264928E+03 -0.41585928110E+03  0.46264785910E+03  0.12500000000E+03 0.  0.
         25    1    1    2    0    0 -0.11634604601E+03  0.10928264928E+03 -0.51743544457E+03  0.55573693341E+03  0.12500000000E+03 0.  0.
</event>
<event>
 4    0  0.2185218E-002  0.3249780E+03  0.7546771E-02  0.1073381E+00
         21   -1    0    0  502  501  0.00000000000E+00  0.00000000000E+00  0.35099368041E+03  0.35099368041E+03  0.00000000000E+00 0. -1.
         21   -1    0    0  501  502 -0.00000000000E+00 -0.00000000000E+00 -0.30089056886E+03  0.30089056886E+03  0.00000000000E+00 0. -1.
         25    1    1    2    0    0  0.27507021293E+03  0.83956095427E+02 -0.60485932011E+02  0.31936780673E+03  0.12500000000E+03 0.  0.
         25    1    1    2    0    0 -0.27507021293E+03 -0.83956095427E+02  0.11058904356E+03  0.33251644254E+03  0.12500000000E+03 0.  0.
</event>
<event>
 4    0  0.2185218E-002  0.2122721E+03  0.7546771E-02  0.1139779E+00
         21   -1    0    0  502  501  0.00000000000E+00  0.00000000000E+00  0.24431031849E+03  0.24431031849E+03  0.00000000000E+00 0.  1.
         21   -1    0    0  501  502 -0.00000000000E+00 -0.00000000000E+00 -0.18443526904E+03  0.18443526904E+03  0.00000000000E+00 0.  1.
         25    1    1    2    0    0  0.36258906350E+02  0.93758627642E+02  0.17034235199E+03  0.23398056635E+03  0.12500000000E+03 0.  0.
         25    1    1    2    0    0 -0.36258906350E+02 -0.93758627642E+02 -0.11046730253E+03  0.19476502118E+03  0.12500000000E+03 0.  0.
</event>
<event>
 4    0  0.2185218E-002  0.3741440E+03  0.7546771E-02  0.1053120E+00
         21   -1    0    0  502  501  0.00000000000E+00  0.00000000000E+00  0.35589554626E+03  0.35589554626E+03  0.00000000000E+00 0.  1.
         21   -1    0    0  501  502 -0.00000000000E+00 -0.00000000000E+00 -0.39332823108E+03  0.39332823108E+03  0.00000000000E+00 0.  1.
         25    1    1    2    0    0  0.15682583158E+03 -0.27757896190E+03 -0.16961758656E+03  0.38215120987E+03  0.12500000000E+03 0.  0.
         25    1    1    2    0    0 -0.15682583158E+03  0.27757896190E+03  0.13218490174E+03  0.36707256747E+03  0.12500000000E+03 0.  0.
</event>
<event>
 4    0  0.2185218E-002  0.1831538E+03  0.7546771E-02  0.1164785E+00
         21   -1    0    0  502  501  0.00000000000E+00  0.00000000000E+00  0.30656706205E+03  0.30656706205E+03  0.00000000000E+00 0. -1.
         21   -1    0    0  501  502 -0.00000000000E+00 -0.00000000000E+00 -0.10942248462E+03  0.10942248462E+03  0.00000000000E+00 0. -1.
         25    1    1    2    0    0 -0.12132087916E+03  0.91609212132E+01  0.35163396076E+02  0.17794421211E+03  0.12500000000E+03 0.  0.
         25    1    1    2    0    0  0.12132087916E+03 -0.91609212132E+01  0.16198118135E+03  0.23804533457E+03  0.12500000000E+03 0.  0.
</event>
<event>
 4    0  0.2185218E-002  0.2238674E+03  0.7546771E-02  0.1131032E+00
         21   -1    0    0  502  501  0.00000000000E+00  0.00000000000E+00  0.85446582537E+02  0.85446582537E+02  0.00000000000E+00 0.  1.
         21   -1    0    0  501  502 -0.00000000000E+00 -0.00000000000E+00 -0.58652580271E+03  0.58652580271E+03  0.00000000000E+00 0.  1.
         25    1    1    2    0    0 -0.48238155189E+02 -0.17872071177E+03 -0.22809670752E+03  0.31925087379E+03  0.12500000000E+03 0.  0.
         25    1    1    2    0    0  0.48238155189E+02  0.17872071177E+03 -0.27298251266E+03  0.35272151146E+03  0.12500000000E+03 0.  0.
</event>
<event>
 4    0  0.2185218E-002  0.2911715E+03  0.7546771E-02  0.1089739E+00
         21   -1    0    0  502  501  0.00000000000E+00  0.00000000000E+00  0.18977451006E+03  0.18977451006E+03  0.00000000000E+00 0.  1.
         21   -1    0    0  501  502 -0.00000000000E+00 -0.00000000000E+00 -0.44674510306E+03  0.44674510306E+03  0.00000000000E+00 0.  1.
         25    1    1    2    0    0  0.80854499164E+02 -0.33819492568E+02  0.14252194679E+03  0.20885093591E+03  0.12500000000E+03 0.  0.
         25    1    1    2    0    0 -0.80854499164E+02  0.33819492568E+02 -0.39949253980E+03  0.42766867721E+03  0.12500000000E+03 0.  0.
</event>
<event>
 4    0  0.2185218E-002  0.2666725E+03  0.7546771E-02  0.1103199E+00
         21   -1    0    0  502  501  0.00000000000E+00  0.00000000000E+00  0.31631683613E+04  0.31631683613E+04  0.00000000000E+00 0.  1.
         21   -1    0    0  501  502 -0.00000000000E+00 -0.00000000000E+00 -0.22481966244E+02  0.22481966244E+02  0.00000000000E+00 0.  1.
         25    1    1    2    0    0 -0.36049613054E+02  0.12104014274E+02  0.29588889242E+04  0.29617722308E+04  0.12500000000E+03 0.  0.
         25    1    1    2    0    0  0.36049613054E+02 -0.12104014274E+02  0.18179747085E+03  0.22387809668E+03  0.12500000000E+03 0.  0.
</event>
<event>
 4    0  0.2185218E-002  0.1997410E+03  0.7546771E-02  0.1149958E+00
         21   -1    0    0  502  501  0.00000000000E+00  0.00000000000E+00  0.10429542212E+03  0.10429542212E+03  0.00000000000E+00 0.  1.
         21   -1    0    0  501  502 -0.00000000000E+00 -0.00000000000E+00 -0.38253323325E+03  0.38253323325E+03  0.00000000000E+00 0.  1.
         25    1    1    2    0    0  0.36514944841E+02 -0.56059048379E+02  0.32340866887E+02  0.14541970215E+03  0.12500000000E+03 0.  0.
         25    1    1    2    0    0 -0.36514944841E+02  0.56059048379E+02 -0.31057867802E+03  0.34140895322E+03  0.12500000000E+03 0.  0.
</event>
<event>
 4    0  0.2185218E-002  0.3158356E+03  0.7546771E-02  0.1077582E+00
         21   -1    0    0  502  501  0.00000000000E+00  0.00000000000E+00  0.15235480019E+03  0.15235480019E+03  0.00000000000E+00 0. -1.
         21   -1    0    0  501  502 -0.00000000000E+00 -0.00000000000E+00 -0.65473577525E+03  0.65473577525E+03  0.00000000000E+00 0. -1.
         25    1    1    2    0    0  0.17278789869E+03 -0.77173348865E+02  0.29660242091E+02  0.22872715988E+03  0.12500000000E+03 0.  0.
         25    1    1    2    0    0 -0.17278789869E+03  0.77173348865E+02 -0.53204121715E+03  0.57836341555E+03  0.12500000000E+03 0.  0.
</event>
<event>
 4    0  0.2185218E-002  0.3459062E+03  0.7546771E-02  0.1064308E+00
         21   -1    0    0  502  501  0.00000000000E+00  0.00000000000E+00  0.15977794650E+03  0.15977794650E+03  0.00000000000E+00 0.  1.
         21   -1    0    0  501  502 -0.00000000000E+00 -0.00000000000E+00 -0.74885870462E+03  0.74885870462E+03  0.00000000000E+00 0. -1.
         25    1    1    2    0    0 -0.27967147080E+03 -0.42405385264E+01 -0.50547328776E+03  0.59106882711E+03  0.12500000000E+03 0.  0.
         25    1    1    2    0    0  0.27967147080E+03  0.42405385264E+01 -0.83607470366E+02  0.31756782401E+03  0.12500000000E+03 0.  0.
</event>
<event>
 4    0  0.2185218E-002  0.2184417E+03  0.7546771E-02  0.1135050E+00
         21   -1    0    0  502  501  0.00000000000E+00  0.00000000000E+00  0.54721957175E+02  0.54721957175E+02  0.00000000000E+00 0.  1.
         21   -1    0    0  501  502 -0.00000000000E+00 -0.00000000000E+00 -0.87198599032E+03  0.87198599032E+03  0.00000000000E+00 0.  1.
         25    1    1    2    0    0 -0.96884136927E+02 -0.10843394598E+03 -0.18669420414E+03  0.26762694649E+03  0.12500000000E+03 0.  0.
         25    1    1    2    0    0  0.96884136927E+02  0.10843394598E+03 -0.63056982901E+03  0.65908100101E+03  0.12500000000E+03 0.  0.
</event>
<event>
 4    0  0.2185218E-002  0.2477490E+03  0.7546771E-02  0.1114736E+00
         21   -1    0    0  502  501  0.00000000000E+00  0.00000000000E+00  0.17738760733E+03  0.17738760733E+03  0.00000000000E+00 0. -1.
         21   -1    0    0  501  502 -0.00000000000E+00 -0.00000000000E+00 -0.34601934711E+03  0.34601934711E+03  0.00000000000E+00 0. -1.
         25    1    1    2    0    0 -0.75899476290E+02 -0.16696305525E+03 -0.20059397276E+03  0.29916606463E+03  0.12500000000E+03 0.  0.
         25    1    1    2    0    0  0.75899476290E+02  0.16696305525E+03  0.31962232983E+02  0.22424088980E+03  0.12500000000E+03 0.  0.
</event>
<event>
 4    0  0.2185218E-002  0.2645124E+03  0.7546771E-02  0.1104462E+00
         21   -1    0    0  502  501  0.00000000000E+00  0.00000000000E+00  0.61198551860E+02  0.61198551860E+02  0.00000000000E+00 0. -1.
         21   -1    0    0  501  502 -0.00000000000E+00 -0.00000000000E+00 -0.11432752931E+04  0.11432752931E+04  0.00000000000E+00 0. -1.
         25    1    1    2    0    0  0.15996058042E+03 -0.84985060770E+02 -0.20694872040E+03  0.30209703857E+03  0.12500000000E+03 0.  0.
         25    1    1    2    0    0 -0.15996058042E+03  0.84985060770E+02 -0.87512802087E+03  0.90237680641E+03  0.12500000000E+03 0.  0.
</event>
<event>
 4    0  0.2185218E-002  0.1596095E+03  0.7546771E-02  0.1189138E+00
         21   -1    0    0  502  501  0.00000000000E+00  0.00000000000E+00  0.37446240824E+03  0.37446240824E+03  0.00000000000E+00 0. -1.
         21   -1    0    0  501  502 -0.00000000000E+00 -0.00000000000E+00 -0.68031404074E+02  0.68031404074E+02  0.00000000000E+00 0. -1.
         25    1    1    2    0    0  0.57551172897E+02 -0.65433855519E+02  0.87368837735E+02  0.17564749004E+03  0.12500000000E+03 0.  0.
         25    1    1    2    0    0 -0.57551172897E+02  0.65433855519E+02  0.21906216643E+03  0.26684632227E+03  0.12500000000E+03 0.  0.
</event>
<event>
 4    0  0.2185218E-002  0.2114024E+03  0.7546771E-02  0.1140460E+00
         21   -1    0    0  502  501  0.00000000000E+00  0.00000000000E+00  0.28082703338E+04  0.28082703338E+04  0.00000000000E+00 0. -1.
         21   -1    0    0  501  502 -0.00000000000E+00 -0.00000000000E+00 -0.15914057779E+02  0.15914057779E+02  0.00000000000E+00 0. -1.
         25    1    1    2    0    0  0.14660038059E+03 -0.57736989330E+02  0.18311630586E+04  0.18421749045E+04  0.12500000000E+03 0.  0.
         25    1    1    2    0    0 -0.14660038059E+03  0.57736989330E+02  0.96119321736E+03  0.98200948704E+03  0.12500000000E+03 0.  0.
</event>
<event>
 4    0  0.2185218E-002  0.1910476E+03  0.7546771E-02  0.1157520E+00
         21   -1    0    0  502  501  0.00000000000E+00  0.00000000000E+00  0.25906008542E+03  0.25906008542E+03  0.00000000000E+00 0. -1.
         21   -1    0    0  501  502 -0.00000000000E+00 -0.00000000000E+00 -0.14089085882E+03  0.14089085882E+03  0.00000000000E+00 0. -1.
         25    1    1    2    0    0  0.10817052461E+03 -0.91549293068E+02  0.29625831305E+02  0.19127160097E+03  0.12500000000E+03 0.  0.
         25    1    1    2    0    0 -0.10817052461E+03  0.91549293068E+02  0.88543395299E+02  0.20867934327E+03  0.12500000000E+03 0.  0.
</event>
<event>
 4    0  0.2185218E-002  0.1752076E+03  0.7546771E-02  0.1172523E+00
         21   -1    0    0  502  501  0.00000000000E+00  0.00000000000E+00  0.34644373019E+03  0.34644373019E+03  0.00000000000E+00 0. -1.
         21   -1    0    0  501  502 -0.00000000000E+00 -0.00000000000E+00 -0.88608073104E+02  0.88608073104E+02  0.00000000000E+00 0. -1.
         25    1    1    2    0    0 -0.12138167888E+03 -0.17907553191E+02  0.12357506376E+03  0.21435948501E+03  0.12500000000E+03 0.  0.
         25    1    1    2    0    0  0.12138167888E+03  0.17907553191E+02  0.13426059333E+03  0.22069231829E+03  0.12500000000E+03 0.  0.
</event>
<event>
 4    0  0.2185218E-002  0.3042302E+03  0.7546771E-02  0.1083145E+00
         21   -1    0    0  502  501  0.00000000000E+00  0.00000000000E+00  0.33876026412E+03  0.33876026412E+03  0.00000000000E+00 0. -1.
         21   -1    0    0  501  502 -0.00000000000E+00 -0.00000000000E+00 -0.27321978360E+03  0.27321978360E+03  0.00000000000E+00 0. -1.
         25    1    1    2    0    0  0.21896956770E+03 -0.16978914190E+03  0.20249059903E+02  0.30464905828E+03  0.12500000000E+03 0.  0.
         25    1    1    2    0    0 -0.21896956770E+03  0.16978914190E+03  0.45291420620E+02  0.30733098944E+03  0.12500000000E+03 0.  0.
</event>
<event>
 4    0  0.2185218E-002  0.2242883E+03  0.7546771E-02  0.1130726E+00
         21   -1    0    0  502  501  0.00000000000E+00  0.00000000000E+00  0.23429809457E+03  0.23429809457E+03  0.00000000000E+00 0.  1.
         21   -1    0    0  501  502 -0.00000000000E+00 -0.00000000000E+00 -0.21470609498E+03  0.21470609498E+03  0.00000000000E+00 0.  1.
         25    1    1    2    0    0 -0.14723303185E+03 -0.71770259623E+02  0.98490254979E+02  0.22837220969E+03  0.12500000000E+03 0.  0.
         25    1    1    2    0    0  0.14723303185E+03  0.71770259623E+02 -0.78898255388E+02  0.22063197986E+03  0.12500000000E+03 0.  0.
</event>
<event>
 4    0  0.2185218E-002  0.1856297E+03  0.7546771E-02  0.1162463E+00
         21   -1    0    0  502  501  0.00000000000E+00  0.00000000000E+00  0.41122264788E+03  0.41122264788E+03  0.00000000000E+00 0.  1.
         21   -1    0    0  501  502 -0.00000000000E+00 -0.00000000000E+00 -0.83794950536E+02  0.83794950536E+02  0.00000000000E+00 0.  1.
         25    1    1    2    0    0  0.92182433788E+02  0.89259798183E+02  0.22860373856E+03  0.29042999493E+03  0.12500000000E+03 0.  0.
         25    1    1    2    0    0 -0.92182433788E+02 -0.89259798183E+02  0.98823958782E+02  0.20458760349E+03  0.12500000000E+03 0.  0.
</event>
<event>
 4    0  0.2185218E-002  0.1480134E+03  0.7546771E-02  0.1202936E+00
         21   -1    0    0  502  501  0.00000000000E+00  0.00000000000E+00  0.18965482805E+04  0.18965482805E+04  0.00000000000E+00 0. -1.
         21   -1    0    0  501  502 -0.00000000000E+00 -0.00000000000E+00 -0.11551501708E+02  0.11551501708E+02  0.00000000000E+00 0. -1.
         25    1    1    2    0    0 -0.95502578146E+01 -0.78563926048E+02  0.97094926307E+03  0.98215628561E+03  0.12500000000E+03 0.  0.
         25    1    1    2    0    0  0.95502578146E+01  0.78563926048E+02  0.91404751575E+03  0.92594349663E+03  0.12500000000E+03 0.  0.
</event>
<event>
 4    0  0.2185218E-002  0.2748120E+03  0.7546771E-02  0.1098557E+00
         21   -1    0    0  502  501  0.00000000000E+00  0.00000000000E+00  0.62423600858E+03  0.62423600858E+03  0.00000000000E+00 0.  1.
         21   -1    0    0  501  502 -0.00000000000E+00 -0.00000000000E+00 -0.12098246072E+03  0.12098246072E+03  0.00000000000E+00 0.  1.
         25    1    1    2    0    0 -0.13492740707E+03 -0.92050259635E+02  0.49874480294E+03  0.53949053183E+03  0.12500000000E+03 0.  0.
         25    1    1    2    0    0  0.13492740707E+03  0.92050259635E+02  0.45087449189E+01  0.20572793747E+03  0.12500000000E+03 0.  0.
</event>
<event>
 4    0  0.2185218E-002  0.2583973E+03  0.7546771E-02  0.1108110E+00
         21   -1    0    0  502  501  0.00000000000E+00  0.00000000000E+00  0.29863921537E+03  0.29863921537E+03  0.00000000000E+00 0.  1.
         21   -1    0    0  501  502 -0.00000000000E+00 -0.00000000000E+00 -0.22357806862E+03  0.22357806862E+03  0.00000000000E+00 0.  1.
         25    1    1    2    0    0 -0.19154149331E+02  0.19647935501E+02 -0.18930482077E+03  0.22850435001E+03  0.12500000000E+03 0.  0.
         25    1    1    2    0    0  0.19154149331E+02 -0.19647935501E+02  0.26436596752E+03  0.29371293399E+03  0.12500000000E+03 0.  0.
</event>
<event>
 4    0  0.2185218E-002  0.1762368E+03  0.7546771E-02  0.1171496E+00
         21   -1    0    0  502  501  0.00000000000E+00  0.00000000000E+00  0.62076499735E+03  0.62076499735E+03  0.00000000000E+00 0.  1.
         21   -1    0    0  501  502 -0.00000000000E+00 -0.00000000000E+00 -0.50034099934E+02  0.50034099934E+02  0.00000000000E+00 0.  1.
         25    1    1    2    0    0  0.75693534526E+02 -0.77592662803E+01  0.47226583169E+03  0.49441858092E+03  0.12500000000E+03 0.  0.
         25    1    1    2    0    0 -0.75693534526E+02  0.77592662803E+01  0.98465065724E+02  0.17638051636E+03  0.12500000000E+03 0.  0.
</event>
<event>
 4    0  0.2185218E-002  0.2744136E+03  0.7546771E-02  0.1098780E+00
         21   -1    0    0  502  501  0.00000000000E+00  0.00000000000E+00  0.24635565633E+03  0.24635565633E+03  0.00000000000E+00 0.  1.
         21   -1    0    0  501  502 -0.00000000000E+00 -0.00000000000E+00 -0.30566714540E+03  0.30566714540E+03  0.00000000000E+00 0.  1.
         25    1    1    2    0    0  0.20904333401E+03 -0.99928889074E+02 -0.10752052108E+03  0.28437749703E+03  0.12500000000E+03 0.  0.
         25    1    1    2    0    0 -0.20904333401E+03  0.99928889074E+02  0.48209032003E+02  0.26764530471E+03  0.12500000000E+03 0.  0.
</event>
<event>
 4    0  0.2185218E-002  0.1823397E+03  0.7546771E-02  0.1165558E+00
         21   -1    0    0  502  501  0.00000000000E+00  0.00000000000E+00  0.46575352234E+02  0.46575352234E+02  0.00000000000E+00 0.  1.
         21   -1    0    0  501  502 -0.00000000000E+00 -0.00000000000E+00 -0.71384860136E+03  0.71384860136E+03  0.00000000000E+00 0.  1.
         25    1    1    2    0    0  0.65331850415E+02 -0.22412019994E+02 -0.97244277497E+02  0.17277730992E+03  0.12500000000E+03 0.  0.
         25    1    1    2    0    0 -0.65331850415E+02  0.22412019994E+02 -0.57002897163E+03  0.58764664367E+03  0.12500000000E+03 0.  0.
</event>
<event>
 4    0  0.2185218E-002  0.2560622E+03  0.7546771E-02  0.1109532E+00
         21   -1    0    0  502  501  0.00000000000E+00  0.00000000000E+00  0.17434750124E+03  0.17434750124E+03  0.00000000000E+00 0. -1.
         21   -1    0    0  501  502 -0.00000000000E+00 -0.00000000000E+00 -0.37607559606E+03  0.37607559606E+03  0.00000000000E+00 0. -1.
         25    1    1    2    0    0 -0.13367749224E+03  0.14854828267E+03 -0.20837778710E+03  0.31461494938E+03  0.12500000000E+03 0.  0.
         25    1    1    2    0    0  0.13367749224E+03 -0.14854828267E+03  0.66496922773E+01  0.23580814792E+03  0.12500000000E+03 0.  0.
</event>
<event>
 4    0  0.2185218E-002  0.1806548E+03  0.7546771E-02  0.1167171E+00
         21   -1    0    0  502  501  0.00000000000E+00  0.00000000000E+00  0.85446851550E+02  0.85446851550E+02  0.00000000000E+00 0.  1.
         21   -1    0    0  501  502 -0.00000000000E+00 -0.00000000000E+00 -0.38194685465E+03  0.38194685465E+03  0.00000000000E+00 0.  1.
         25    1    1    2    0    0 -0.52171313676E+01 -0.53824532112E+02  0.52860695810E+01  0.13629835380E+03  0.12500000000E+03 0.  0.
         25    1    1    2    0    0  0.52171313676E+01  0.53824532112E+02 -0.30178607268E+03  0.33109535240E+03  0.12500000000E+03 0.  0.
</event>
<event>
 4    0  0.2185218E-002  0.2471949E+03  0.7546771E-02  0.1115091E+00
         21   -1    0    0  502  501  0.00000000000E+00  0.00000000000E+00  0.95850189133E+03  0.95850189133E+03  0.00000000000E+00 0.  1.
         21   -1    0    0  501  502 -0.00000000000E+00 -0.00000000000E+00 -0.63750845560E+02  0.63750845560E+02  0.00000000000E+00 0.  1.
         25    1    1    2    0    0  0.35712855738E+02 -0.20910839818E+03  0.49260943887E+03  0.55071843034E+03  0.12500000000E+03 0.  0.
         25    1    1    2    0    0 -0.35712855738E+02  0.20910839818E+03  0.40214160690E+03  0.47153430655E+03  0.12500000000E+03 0.  0.
</event>
<event>
 4    0  0.2185218E-002  0.1478403E+03  0.7546771E-02  0.1203152E+00
         21   -1    0    0  502  501  0.00000000000E+00  0.00000000000E+00  0.21626157590E+03  0.21626157590E+03  0.00000000000E+00 0. -1.
         21   -1    0    0  501  502 -0.00000000000E+00 -0.00000000000E+00 -0.10106630136E+03  0.10106630136E+03  0.00000000000E+00 0. -1.
         25    1    1    2    0    0  0.16033918659E+02  0.63168747008E+02  0.10540533540E+03  0.17601892477E+03  0.12500000000E+03 0.  0.
         25    1    1    2    0    0 -0.16033918659E+02 -0.63168747008E+02  0.97899391367E+01  0.14130895249E+03  0.12500000000E+03 0.  0.
</event>
<event>
 4    0  0.2185218E-002  0.2237935E+03  0.7546771E-02  0.1131086E+00
         21   -1    0    0  502  501  0.00000000000E+00  0.00000000000E+00  0.52893140616E+03  0.52893140616E+03  0.00000000000E+00 0. -1.
         21   -1    0    0  501  502 -0.00000000000E+00 -0.00000000000E+00 -0.94688159750E+02  0.94688159750E+02  0.00000000000E+00 0. -1.
         25    1    1    2    0    0  0.91339412617E+02  0.15884706591E+03  0.25852990407E+03  0.34064349392E+03  0.12500000000E+03 0.  0.
         25    1    1    2    0    0 -0.91339412617E+02 -0.15884706591E+03  0.17571334234E+03  0.28297607200E+03  0.12500000000E+03 0.  0.
</event>
<event>
 4    0  0.2185218E-002  0.2367679E+03  0.7546771E-02  0.1121965E+00
         21   -1    0    0  502  501  0.00000000000E+00  0.00000000000E+00  0.15921282011E+03  0.15921282011E+03  0.00000000000E+00 0. -1.
         21   -1    0    0  501  502 -0.00000000000E+00 -0.00000000000E+00 -0.35210127673E+03  0.35210127673E+03  0.00000000000E+00 0. -1.
         25    1    1    2    0    0  0.10200280562E+03  0.88809814089E+02  0.64229969406E+02  0.19504421141E+03  0.12500000000E+03 0.  0.
         25    1    1    2    0    0 -0.10200280562E+03 -0.88809814089E+02 -0.25711842602E+03  0.31626988544E+03  0.12500000000E+03 0.  0.
</event>
<event>
 4    0  0.2185218E-002  0.2992225E+03  0.7546771E-02  0.1085630E+00
         21   -1    0    0  502  501  0.00000000000E+00  0.00000000000E+00  0.48736797178E+03  0.48736797178E+03  0.00000000000E+00 0.  1.
         21   -1    0    0  501  502 -0.00000000000E+00 -0.00000000000E+00 -0.18370949930E+03  0.18370949930E+03  0.00000000000E+00 0.  1.
         25    1    1    2    0    0  0.70825670934E+02  0.20951966993E+03  0.32911316193E+03  0.41575863323E+03  0.12500000000E+03 0.  0.
         25    1    1    2    0    0 -0.70825670934E+02 -0.20951966993E+03 -0.25454689455E+02  0.25531883786E+03  0.12500000000E+03 0.  0.
</event>
<event>
 4    0  0.2185218E-002  0.2413938E+03  0.7546771E-02  0.1118868E+00
         21   -1    0    0  502  501  0.00000000000E+00  0.00000000000E+00  0.16033047555E+04  0.16033047555E+04  0.00000000000E+00 0. -1.
         21   -1    0    0  501  502 -0.00000000000E+00 -0.00000000000E+00 -0.36344276682E+02  0.36344276682E+02  0.00000000000E+00 0. -1.
         25    1    1    2    0    0 -0.15096562903E+03  0.11356534610E+03  0.50018150729E+03  0.54908491986E+03  0.12500000000E+03 0.  0.
         25    1    1    2    0    0  0.15096562903E+03 -0.11356534610E+03  0.10667789716E+04  0.10905641124E+04  0.12500000000E+03 0.  0.
</event>
<event>
 4    0  0.2185218E-002  0.2237147E+03  0.7546771E-02  0.1131144E+00
         21   -1    0    0  502  501  0.00000000000E+00  0.00000000000E+00  0.19598402297E+03  0.19598402297E+03  0.00000000000E+00 0.  1.
         21   -1    0    0  501  502 -0.00000000000E+00 -0.00000000000E+00 -0.25536902129E+03  0.25536902129E+03  0.00000000000E+00 0.  1.
         25    1    1    2    0    0 -0.78533618688E+02  0.10061954643E+02  0.13957191568E+03  0.20340622370E+03  0.12500000000E+03 0.  0.
         25    1    1    2    0    0  0.78533618688E+02 -0.10061954643E+02 -0.19895691400E+03  0.24794682055E+03  0.12500000000E+03 0.  0.
</event>
<event>
 4    0  0.2185218E-002  0.1881116E+03  0.7546771E-02  0.1160176E+00
         21   -1    0    0  502  501  0.00000000000E+00  0.00000000000E+00  0.24538181066E+03  0.24538181066E+03  0.00000000000E+00 0.  1.
         21   -1    0    0  501  502 -0.00000000000E+00 -0.00000000000E+00 -0.14420788407E+03  0.14420788407E+03  0.00000000000E+00 0.  1.
         25    1    1    2    0    0 -0.62670175575E+02  0.12394973429E+03  0.28139543541E+02  0.18896539749E+03  0.12500000000E+03 0.  0.
         25    1    1    2    0    0  0.62670175575E+02 -0.12394973429E+03  0.73034383047E+02  0.20062429724E+03  0.12500000000E+03 0.  0.
</event>
<event>
 4    0  0.2185218E-002  0.2250186E+03  0.7546771E-02  0.1130196E+00
         21   -1    0    0  502  501  0.00000000000E+00  0.00000000000E+00  0.29623864771E+03  0.29623864771E+03  0.00000000000E+00 0.  1.
         21   -1    0    0  501  502 -0.00000000000E+00 -0.00000000000E+00 -0.17092088915E+03  0.17092088915E+03  0.00000000000E+00 0.  1.
         25    1    1    2    0    0 -0.50714210211E+02  0.15098862980E+03 -0.39254213554E+02  0.20624109854E+03  0.12500000000E+03 0.  0.
         25    1    1    2    0    0  0.50714210211E+02 -0.15098862980E+03  0.16457197211E+03  0.26091843831E+03  0.12500000000E+03 0.  0.
</event>
<event>
 4    0  0.2185218E-002  0.2440909E+03  0.7546771E-02  0.1117097E+00
         21   -1    0    0  502  501  0.00000000000E+00  0.00000000000E+00  0.64902893877E+03  0.64902893877E+03  0.00000000000E+00 0. -1.
         21   -1    0    0  501  502 -0.00000000000E+00 -0.00000000000E+00 -0.91799249381E+02  0.91799249381E+02  0.00000000000E+00 0.  1.
         25    1    1    2    0    0 -0.19358631332E+03  0.65877123275E+02  0.20841534787E+03  0.31761204843E+03  0.12500000000E+03 0.  0.
         25    1    1    2    0    0  0.19358631332E+03 -0.65877123275E+02  0.34881434151E+03  0.42321613972E+03  0.12500000000E+03 0.  0.
</event>
<event>
 4    0  0.2185218E-002  0.1524412E+03  0.7546771E-02  0.1197505E+00
         21   -1    0    0  502  501  0.00000000000E+00  0.00000000000E+00  0.24176821572E+03  0.24176821572E+03  0.00000000000E+00 0. -1.
         21   -1    0    0  501  502 -0.00000000000E+00 -0.00000000000E+00 -0.96118202569E+02  0.96118202569E+02  0.00000000000E+00 0. -1.
         25    1    1    2    0    0  0.25426895154E+02  0.74698866955E+02  0.31552813955E+02  0.15115233306E+03  0.12500000000E+03 0.  0.
         25    1    1    2    0    0 -0.25426895154E+02 -0.74698866955E+02  0.11409719920E+03  0.18673408523E+03  0.12500000000E+03 0.  0.
</event>
<event>
 4    0  0.2185218E-002  0.1443845E+03  0.7546771E-02  0.1207548E+00
         21   -1    0    0  502  501  0.00000000000E+00  0.00000000000E+00  0.37273211154E+02  0.37273211154E+02  0.00000000000E+00 0. -1.
         21   -1    0    0  501  502 -0.00000000000E+00 -0.00000000000E+00 -0.55929972991E+03  0.55929972991E+03  0.00000000000E+00 0. -1.
         25    1    1    2    0    0 -0.49763454686E+02 -0.27548350298E+02 -0.16893304917E+03  0.21771239774E+03  0.12500000000E+03 0.  0.
         25    1    1    2    0    0  0.49763454686E+02  0.27548350298E+02 -0.35309346959E+03  0.37886054333E+03  0.12500000000E+03 0.  0.
</event>
<event>
 4    0  0.2185218E-002  0.2334898E+03  0.7546771E-02  0.1124207E+00
         21   -1    0    0  502  501  0.00000000000E+00  0.00000000000E+00  0.80767547173E+02  0.80767547173E+02  0.00000000000E+00 0.  1.
         21   -1    0    0  501  502 -0.00000000000E+00 -0.00000000000E+00 -0.67499274341E+03  0.67499274341E+03  0.00000000000E+00 0.  1.
         25    1    1    2    0    0 -0.18381644976E+03  0.71410581212E+02 -0.30056473944E+03  0.38059443100E+03  0.12500000000E+03 0.  0.
         25    1    1    2    0    0  0.18381644976E+03 -0.71410581212E+02 -0.29366045679E+03  0.37516585958E+03  0.12500000000E+03 0.  0.
</event>
<event>
 4    0  0.2185218E-002  0.1430593E+03  0.7546771E-02  0.1209271E+00
         21   -1    0    0  502  501  0.00000000000E+00  0.00000000000E+00  0.71408469206E+03  0.71408469206E+03  0.00000000000E+00 0. -1.
         21   -1    0    0  501  502 -0.00000000000E+00 -0.00000000000E+00 -0.28660414658E+02  0.28660414658E+02  0.00000000000E+00 0. -1.
         25    1    1    2    0    0  0.23251850815E+02  0.55731084375E+02  0.43242640757E+03  0.45416318686E+03  0.12500000000E+03 0.  0.
         25    1    1    2    0    0 -0.23251850815E+02 -0.55731084375E+02  0.25299786983E+03  0.28858191986E+03  0.12500000000E+03 0.  0.
</event>
<event>
 4    0  0.2185218E-002  0.3044101E+03  0.7546771E-02  0.1083057E+00
         21   -1    0    0  502  501  0.00000000000E+00  0.00000000000E+00  0.30952579200E+03  0.30952579200E+03  0.00000000000E+00 0. -1.
         21   -1    0    0  501  502 -0.00000000000E+00 -0.00000000000E+00 -0.29937887115E+03  0.29937887115E+03  0.00000000000E+00 0. -1.
         25    1    1    2    0    0  0.10361764504E+03 -0.25586922626E+03  0.33970463325E+02  0.30493387757E+03  0.12500000000E+03 0.  0.
         25    1    1    2    0    0 -0.10361764504E+03  0.25586922626E+03 -0.23823542479E+02  0.30397078558E+03  0.12500000000E+03 0.  0.
</event>
<event>
 4    0  0.2185218E-002  0.1737641E+03  0.7546771E-02  0.1173978E+00
         21   -1    0    0  502  501  0.00000000000E+00  0.00000000000E+00  0.24977055872E+03  0.24977055872E+03  0.00000000000E+00 0.  1.
         21   -1    0    0  501  502 -0.00000000000E+00 -0.00000000000E+00 -0.12088684685E+03  0.12088684685E+03  0.00000000000E+00 0.  1.
         25    1    1    2    0    0  0.10621684268E+03 -0.56212673971E+02  0.52418016290E+02  0.18114781482E+03  0.12500000000E+03 0.  0.
         25    1    1    2    0    0 -0.10621684268E+03  0.56212673971E+02  0.76465695585E+02  0.18950959075E+03  0.12500000000E+03 0.  0.
</event>
<event>
 4    0  0.2185218E-002  0.1868375E+03  0.7546771E-02  0.1161345E+00
         21   -1    0    0  502  501  0.00000000000E+00  0.00000000000E+00  0.18198967813E+03  0.18198967813E+03  0.00000000000E+00 0.  1.
         21   -1    0    0  501  502 -0.00000000000E+00 -0.00000000000E+00 -0.19181436512E+03  0.19181436512E+03  0.00000000000E+00 0.  1.
         25    1    1    2    0    0  0.73901929407E+02  0.20657210294E+02 -0.12068919211E+03  0.18994498309E+03  0.12500000000E+03 0.  0.
         25    1    1    2    0    0 -0.73901929407E+02 -0.20657210294E+02  0.11086450512E+03  0.18385906016E+03  0.12500000000E+03 0.  0.
</event>
<event>
 4    0  0.2185218E-002  0.3407152E+03  0.7546771E-02  0.1066492E+00
         21   -1    0    0  502  501  0.00000000000E+00  0.00000000000E+00  0.88340130629E+02  0.88340130629E+02  0.00000000000E+00 0. -1.
         21   -1    0    0  501  502 -0.00000000000E+00 -0.00000000000E+00 -0.13140898416E+04  0.13140898416E+04  0.00000000000E+00 0. -1.
         25    1    1    2    0    0  0.38941155918E+02  0.25987612468E+03 -0.24812712060E+03  0.38241872572E+03  0.12500000000E+03 0.  0.
         25    1    1    2    0    0 -0.38941155918E+02 -0.25987612468E+03 -0.97762259035E+03  0.10200112465E+04  0.12500000000E+03 0.  0.
</event>
<event>
 4    0  0.2185218E-002  0.1570409E+03  0.7546771E-02  0.1192079E+00
         21   -1    0    0  502  501  0.00000000000E+00  0.00000000000E+00  0.18808772724E+03  0.18808772724E+03  0.00000000000E+00 0.  1.
         21   -1    0    0  501  502 -0.00000000000E+00 -0.00000000000E+00 -0.13111885896E+03  0.13111885896E+03  0.00000000000E+00 0.  1.
         25    1    1    2    0    0  0.50912172831E+02  0.74605467807E+02  0.58613089399E+02  0.16498036070E+03  0.12500000000E+03 0.  0.
         25    1    1    2    0    0 -0.50912172831E+02 -0.74605467807E+02 -0.16442211195E+01  0.15422622550E+03  0.12500000000E+03 0.  0.
</event>
<event>
 4    0  0.2185218E-002  0.2323496E+03  0.7546771E-02  0.1124997E+00
         21   -1    0    0  502  501  0.00000000000E+00  0.00000000000E+00  0.22382388379E+03  0.22382388379E+03  0.00000000000E+00 0.  1.
         21   -1    0    0  501  502 -0.00000000000E+00 -0.00000000000E+00 -0.24120005315E+03  0.24120005315E+03  0.00000000000E+00 0.  1.
         25    1    1    2    0    0  0.17147448778E+03  0.90950130215E+02 -0.34896204495E+02  0.23349126586E+03  0.12500000000E+03 0.  0.
         25    1    1    2    0    0 -0.17147448778E+03 -0.90950130215E+02  0.17520035138E+02  0.23153267108E+03  0.12500000000E+03 0.  0.
</event>
<event>
 4    0  0.2185218E-002  0.2458897E+03  0.7546771E-02  0.1115930E+00
         21   -1    0    0  502  501  0.00000000000E+00  0.00000000000E+00  0.75304891691E+03  0.75304891691E+03  0.00000000000E+00 0. -1.
         21   -1    0    0  501  502 -0.00000000000E+00 -0.00000000000E+00 -0.80289255374E+02  0.80289255374E+02  0.00000000000E+00 0. -1.
         25    1    1    2    0    0 -0.60459313274E+02 -0.69228986822E+02  0.65962688298E+03  0.67762866374E+03  0.12500000000E+03 0.  0.
         25    1    1    2    0    0  0.60459313274E+02  0.69228986822E+02  0.13132778558E+02  0.15570950854E+03  0.12500000000E+03 0.  0.
</event>
<event>
 4    0  0.2185218E-002  0.1812262E+03  0.7546771E-02  0.1166622E+00
         21   -1    0    0  502  501  0.00000000000E+00  0.00000000000E+00  0.43393935006E+03  0.43393935006E+03  0.00000000000E+00 0.  1.
         21   -1    0    0  501  502 -0.00000000000E+00 -0.00000000000E+00 -0.75685558948E+02  0.75685558948E+02  0.00000000000E+00 0.  1.
         25    1    1    2    0    0 -0.57323034339E+02 -0.94301102751E+02  0.27893948748E+03  0.32497825454E+03  0.12500000000E+03 0.  0.
         25    1    1    2    0    0  0.57323034339E+02  0.94301102751E+02  0.79314303625E+02  0.18464665447E+03  0.12500000000E+03 0.  0.
</event>
<event>
 4    0  0.2185218E-002  0.1977740E+03  0.7546771E-02  0.1151631E+00
         21   -1    0    0  502  501  0.00000000000E+00  0.00000000000E+00  0.27715247345E+02  0.27715247345E+02  0.00000000000E+00 0. -1.
         21   -1    0    0  501  502 -0.00000000000E+00 -0.00000000000E+00 -0.14113002879E+04  0.14113002879E+04  0.00000000000E+00 0. -1.
         25    1    1    2    0    0  0.24103364976E+02 -0.45276168306E+02 -0.12172158027E+04  0.12246918853E+04  0.12500000000E+03 0.  0.
         25    1    1    2    0    0 -0.24103364976E+02  0.45276168306E+02 -0.16636923792E+03  0.21432364999E+03  0.12500000000E+03 0.  0.
</event>
<event>
 4    0  0.2185218E-002  0.1592110E+03  0.7546771E-02  0.1189590E+00
         21   -1    0    0  502  501  0.00000000000E+00  0.00000000000E+00  0.37199400479E+03  0.37199400479E+03  0.00000000000E+00 0. -1.
         21   -1    0    0  501  502 -0.00000000000E+00 -0.00000000000E+00 -0.68141239637E+02  0.68141239637E+02  0.00000000000E+00 0. -1.
         25    1    1    2    0    0 -0.78962841856E+02  0.44659385555E+02  0.20534489806E+03  0.25694574966E+03  0.12500000000E+03 0.  0.
         25    1    1    2    0    0  0.78962841856E+02 -0.44659385555E+02  0.98507867097E+02  0.18318949476E+03  0.12500000000E+03 0.  0.
</event>
<event>
 4    0  0.2185218E-002  0.1655424E+03  0.7546771E-02  0.1182578E+00
         21   -1    0    0  502  501  0.00000000000E+00  0.00000000000E+00  0.10962187723E+04  0.10962187723E+04  0.00000000000E+00 0. -1.
         21   -1    0    0  501  502 -0.00000000000E+00 -0.00000000000E+00 -0.24998935732E+02  0.24998935732E+02  0.00000000000E+00 0. -1.
         25    1    1    2    0    0  0.53957195997E+02 -0.89580444363E+02  0.43726921977E+03  0.46665341054E+03  0.12500000000E+03 0.  0.
         25    1    1    2    0    0 -0.53957195997E+02  0.89580444363E+02  0.63395061682E+03  0.65456429752E+03  0.12500000000E+03 0.  0.
</event>
<event>
 4    0  0.2185218E-002  0.1945807E+03  0.7546771E-02  0.1154393E+00
         21   -1    0    0  502  501  0.00000000000E+00  0.00000000000E+00  0.13232265745E+03  0.13232265745E+03  0.00000000000E+00 0. -1.
         21   -1    0    0  501  502 -0.00000000000E+00 -0.00000000000E+00 -0.28613138344E+03  0.28613138344E+03  0.00000000000E+00 0. -1.
         25    1    1    2    0    0 -0.41142447981E+02 -0.12968891263E+03 -0.14252893400E+03  0.23334826357E+03  0.12500000000E+03 0.  0.
         25    1    1    2    0    0  0.41142447981E+02  0.12968891263E+03 -0.11279791990E+02  0.18510577731E+03  0.12500000000E+03 0.  0.
</event>
<event>
 4    0  0.2185218E-002  0.1524306E+03  0.7546771E-02  0.1197518E+00
         21   -1    0    0  502  501  0.00000000000E+00  0.00000000000E+00  0.13295642789E+04  0.13295642789E+04  0.00000000000E+00 0.  1.
         21   -1    0    0  501  502 -0.00000000000E+00 -0.00000000000E+00 -0.17475709658E+02  0.17475709658E+02  0.00000000000E+00 0.  1.
         25    1    1    2    0    0 -0.75811278394E+02  0.25097585036E+02  0.81118717478E+03  0.82463741804E+03  0.12500000000E+03 0.  0.
         25    1    1    2    0    0  0.75811278394E+02 -0.25097585036E+02  0.50090139442E+03  0.52240257048E+03  0.12500000000E+03 0.  0.
</event>
<event>
 4    0  0.2185218E-002  0.1891315E+03  0.7546771E-02  0.1159247E+00
         21   -1    0    0  502  501  0.00000000000E+00  0.00000000000E+00  0.24100740873E+03  0.24100740873E+03  0.00000000000E+00 0. -1.
         21   -1    0    0  501  502 -0.00000000000E+00 -0.00000000000E+00 -0.14842161790E+03  0.14842161790E+03  0.00000000000E+00 0. -1.
         25    1    1    2    0    0  0.44605303453E+02 -0.13329745215E+03  0.26017224915E+02  0.18989402265E+03  0.12500000000E+03 0.  0.
         25    1    1    2    0    0 -0.44605303453E+02  0.13329745215E+03  0.66568565917E+02  0.19953500398E+03  0.12500000000E+03 0.  0.
</event>
<event>
 4    0  0.2185218E-002  0.2761773E+03  0.7546771E-02  0.1097795E+00
         21   -1    0    0  502  501  0.00000000000E+00  0.00000000000E+00  0.45406202849E+03  0.45406202849E+03  0.00000000000E+00 0. -1.
         21   -1    0    0  501  502 -0.00000000000E+00 -0.00000000000E+00 -0.16798119967E+03  0.16798119967E+03  0.00000000000E+00 0. -1.
         25    1    1    2    0    0  0.96314644940E+02 -0.20369782063E+03  0.31103923196E+02  0.25954145526E+03  0.12500000000E+03 0.  0.
         25    1    1    2    0    0 -0.96314644940E+02  0.20369782063E+03  0.25497690562E+03  0.36250177290E+03  0.12500000000E+03 0.  0.
</event>
<event>
 4    0  0.2185218E-002  0.2523452E+03  0.7546771E-02  0.1111832E+00
         21   -1    0    0  502  501  0.00000000000E+00  0.00000000000E+00  0.27014159977E+02  0.27014159977E+02  0.00000000000E+00 0. -1.
         21   -1    0    0  501  502 -0.00000000000E+00 -0.00000000000E+00 -0.23572111635E+04  0.23572111635E+04  0.00000000000E+00 0. -1.
         25    1    1    2    0    0 -0.87273313148E+02 -0.20108783151E+03 -0.11633801746E+04  0.11904332731E+04  0.12500000000E+03 0.  0.
         25    1    1    2    0    0  0.87273313148E+02  0.20108783151E+03 -0.11668168289E+04  0.11937920503E+04  0.12500000000E+03 0.  0.
</event>
<event>
 4    0  0.2185218E-002  0.2563786E+03  0.7546771E-02  0.1109339E+00
         21   -1    0    0  502  501  0.00000000000E+00  0.00000000000E+00  0.25343920281E+03  0.25343920281E+03  0.00000000000E+00 0.  1.
         21   -1    0    0  501  502 -0.00000000000E+00 -0.00000000000E+00 -0.25935204250E+03  0.25935204250E+03  0.00000000000E+00 0.  1.
         25    1    1    2    0    0 -0.10142664555E+01  0.19095581357E+03 -0.11975383924E+03  0.25774237813E+03  0.12500000000E+03 0.  0.
         25    1    1    2    0    0  0.10142664555E+01 -0.19095581357E+03  0.11384099955E+03  0.25504886718E+03  0.12500000000E+03 0.  0.
</event>
<event>
 4    0  0.2185218E-002  0.2504538E+03  0.7546771E-02  0.1113018E+00
         21   -1    0    0  502  501  0.00000000000E+00  0.00000000000E+00  0.21906459838E+03  0.21906459838E+03  0.00000000000E+00 0.  1.
         21   -1    0    0  501  502 -0.00000000000E+00 -0.00000000000E+00 -0.28634060262E+03  0.28634060262E+03  0.00000000000E+00 0.  1.
         25    1    1    2    0    0  0.72071727273E+02 -0.19813387214E+03  0.18309467200E+02  0.24578771684E+03  0.12500000000E+03 0.  0.
         25    1    1    2    0    0 -0.72071727273E+02  0.19813387214E+03 -0.85585471436E+02  0.25961748416E+03  0.12500000000E+03 0.  0.
</event>
<event>
 4    0  0.2185218E-002  0.1517197E+03  0.7546771E-02  0.1198376E+00
         21   -1    0    0  502  501  0.00000000000E+00  0.00000000000E+00  0.77738074055E+03  0.77738074055E+03  0.00000000000E+00 0. -1.
         21   -1    0    0  501  502 -0.00000000000E+00 -0.00000000000E+00 -0.29610803004E+02  0.29610803004E+02  0.00000000000E+00 0. -1.
         25    1    1    2    0    0  0.23918197743E+02  0.70325334037E+02  0.25869117794E+03  0.29675555317E+03  0.12500000000E+03 0.  0.
         25    1    1    2    0    0 -0.23918197743E+02 -0.70325334037E+02  0.48907875960E+03  0.51023599038E+03  0.12500000000E+03 0.  0.
</event>
<event>
 4    0  0.2185218E-002  0.2387986E+03  0.7546771E-02  0.1120596E+00
         21   -1    0    0  502  501  0.00000000000E+00  0.00000000000E+00  0.27091512163E+03  0.27091512163E+03  0.00000000000E+00 0. -1.
         21   -1    0    0  501  502 -0.00000000000E+00 -0.00000000000E+00 -0.21048951874E+03  0.21048951874E+03  0.00000000000E+00 0. -1.
         25    1    1    2    0    0 -0.58111983060E+02  0.14140736253E+03  0.16554686412E+03  0.25768936527E+03  0.12500000000E+03 0.  0.
         25    1    1    2    0    0  0.58111983060E+02 -0.14140736253E+03 -0.10512126123E+03  0.22371527511E+03  0.12500000000E+03 0.  0.
</event>
<event>
 4    0  0.2185218E-002  0.2871836E+03  0.7546771E-02  0.1091829E+00
         21   -1    0    0  502  501  0.00000000000E+00  0.00000000000E+00  0.21041103231E+03  0.21041103231E+03  0.00000000000E+00 0. -1.
         21   -1    0    0  501  502 -0.00000000000E+00 -0.00000000000E+00 -0.39196818859E+03  0.39196818859E+03  0.00000000000E+00 0. -1.
         25    1    1    2    0    0  0.14334978678E+03 -0.19557143999E+03  0.33311260117E+01  0.27282493638E+03  0.12500000000E+03 0.  0.
         25    1    1    2    0    0 -0.14334978678E+03  0.19557143999E+03 -0.18488828229E+03  0.32955428451E+03  0.12500000000E+03 0.  0.
</event>
<event>
 4    0  0.2185218E-002  0.2451522E+03  0.7546771E-02  0.1116407E+00
         21   -1    0    0  502  501  0.00000000000E+00  0.00000000000E+00  0.45372225810E+03  0.45372225810E+03  0.00000000000E+00 0. -1.
         21   -1    0    0  501  502 -0.00000000000E+00 -0.00000000000E+00 -0.13245901788E+03  0.13245901788E+03  0.00000000000E+00 0. -1.
         25    1    1    2    0    0  0.38189873554E+02 -0.51813284049E+02  0.40072956538E+03  0.42467901693E+03  0.12500000000E+03 0.  0.
         25    1    1    2    0    0 -0.38189873554E+02  0.51813284049E+02 -0.79466325159E+02  0.16150225906E+03  0.12500000000E+03 0.  0.
</event>
<event>
 4    0  0.2185218E-002  0.1996952E+03  0.7546771E-02  0.1149996E+00
         21   -1    0    0  502  501  0.00000000000E+00  0.00000000000E+00  0.33864791987E+02  0.33864791987E+02  0.00000000000E+00 0.  1.
         21   -1    0    0  501  502 -0.00000000000E+00 -0.00000000000E+00 -0.11775705696E+04  0.11775705696E+04  0.00000000000E+00 0.  1.
         25    1    1    2    0    0 -0.35971862023E+02  0.67806241570E+02 -0.98286715994E+03  0.99375274357E+03  0.12500000000E+03 0.  0.
         25    1    1    2    0    0  0.35971862023E+02 -0.67806241570E+02 -0.16083861767E+03  0.21768261801E+03  0.12500000000E+03 0.  0.
</event>
<event>
 4    0  0.2185218E-002  0.1949607E+03  0.7546771E-02  0.1154062E+00
         21   -1    0    0  502  501  0.00000000000E+00  0.00000000000E+00  0.20325244499E+02  0.20325244499E+02  0.00000000000E+00 0. -1.
         21   -1    0    0  501  502 -0.00000000000E+00 -0.00000000000E+00 -0.18700714483E+04  0.18700714483E+04  0.00000000000E+00 0. -1.
         25    1    1    2    0    0 -0.10954126225E+03 -0.30005906203E+02 -0.45270676804E+03  0.48318532715E+03  0.12500000000E+03 0.  0.
         25    1    1    2    0    0  0.10954126225E+03  0.30005906203E+02 -0.13970394358E+04  0.14072113657E+04  0.12500000000E+03 0.  0.
</event>
<event>
 4    0  0.2185218E-002  0.2574855E+03  0.7546771E-02  0.1108663E+00
         21   -1    0    0  502  501  0.00000000000E+00  0.00000000000E+00  0.16918153905E+03  0.16918153905E+03  0.00000000000E+00 0.  1.
         21   -1    0    0  501  502 -0.00000000000E+00 -0.00000000000E+00 -0.39187940634E+03  0.39187940634E+03  0.00000000000E+00 0.  1.
         25    1    1    2    0    0 -0.17334481439E+03  0.10930768112E+03 -0.21283731393E+03  0.32081352221E+03  0.12500000000E+03 0.  0.
         25    1    1    2    0    0  0.17334481439E+03 -0.10930768112E+03 -0.98605533542E+01  0.24024742317E+03  0.12500000000E+03 0.  0.
</event>
<event>
 4    0  0.2185218E-002  0.1579424E+03  0.7546771E-02  0.1191040E+00
         21   -1    0    0  502  501  0.00000000000E+00  0.00000000000E+00  0.22030014607E+03  0.22030014607E+03  0.00000000000E+00 0.  1.
         21   -1    0    0  501  502 -0.00000000000E+00 -0.00000000000E+00 -0.11323551099E+03  0.11323551099E+03  0.00000000000E+00 0.  1.
         25    1    1    2    0    0  0.74319923872E+02  0.54164471175E+02  0.22503911698E+02  0.15680773917E+03  0.12500000000E+03 0.  0.
         25    1    1    2    0    0 -0.74319923872E+02 -0.54164471175E+02  0.84560723388E+02  0.17672791789E+03  0.12500000000E+03 0.  0.
</event>
<event>
 4    0  0.2185218E-002  0.2105283E+03  0.7546771E-02  0.1141148E+00
         21   -1    0    0  502  501  0.00000000000E+00  0.00000000000E+00  0.12615400889E+03  0.12615400889E+03  0.00000000000E+00 0.  1.
         21   -1    0    0  501  502 -0.00000000000E+00 -0.00000000000E+00 -0.35133382364E+03  0.35133382364E+03  0.00000000000E+00 0.  1.
         25    1    1    2    0    0  0.73251876697E+02  0.12401333488E+03 -0.21371540936E+03  0.28643397296E+03  0.12500000000E+03 0.  0.
         25    1    1    2    0    0 -0.73251876697E+02 -0.12401333488E+03 -0.11464405400E+02  0.19105385957E+03  0.12500000000E+03 0.  0.
</event>
<event>
 4    0  0.2185218E-002  0.2854816E+03  0.7546771E-02  0.1092732E+00
         21   -1    0    0  502  501  0.00000000000E+00  0.00000000000E+00  0.14197858675E+03  0.14197858675E+03  0.00000000000E+00 0.  1.
         21   -1    0    0  501  502 -0.00000000000E+00 -0.00000000000E+00 -0.57402831315E+03  0.57402831315E+03  0.00000000000E+00 0.  1.
         25    1    1    2    0    0 -0.17222054420E+03  0.36055486353E+02 -0.45034736807E+03  0.49939730262E+03  0.12500000000E+03 0.  0.
         25    1    1    2    0    0  0.17222054420E+03 -0.36055486353E+02  0.18297641677E+02  0.21660959727E+03  0.12500000000E+03 0.  0.
</event>
<event>
 4    0  0.2185218E-002  0.1709306E+03  0.7546771E-02  0.1176881E+00
         21   -1    0    0  502  501  0.00000000000E+00  0.00000000000E+00  0.19114704891E+02  0.19114704891E+02  0.00000000000E+00 0.  1.
         21   -1    0    0  501  502 -0.00000000000E+00 -0.00000000000E+00 -0.15285228840E+04  0.15285228840E+04  0.00000000000E+00 0.  1.
         25    1    1    2    0    0  0.58969242052E+02  0.64424904411E+02 -0.11043271880E+04  0.11148055785E+04  0.12500000000E+03 0.  0.
         25    1    1    2    0    0 -0.58969242052E+02 -0.64424904411E+02 -0.40508099113E+03  0.43283201036E+03  0.12500000000E+03 0.  0.
</event>
<event>
 4    0  0.2185218E-002  0.2035081E+03  0.7546771E-02  0.1146813E+00
         21   -1    0    0  502  501  0.00000000000E+00  0.00000000000E+00  0.44017651956E+02  0.44017651956E+02  0.00000000000E+00 0. -1.
         21   -1    0    0  501  502 -0.00000000000E+00 -0.00000000000E+00 -0.94088468121E+03  0.94088468121E+03  0.00000000000E+00 0. -1.
         25    1    1    2    0    0 -0.14032289054E+01 -0.56187966119E+02 -0.81246419960E+03  0.82394303943E+03  0.12500000000E+03 0.  0.
         25    1    1    2    0    0  0.14032289054E+01  0.56187966119E+02 -0.84402829655E+02  0.16095929374E+03  0.12500000000E+03 0.  0.
</event>
<event>
 4    0  0.2185218E-002  0.2386935E+03  0.7546771E-02  0.1120666E+00
         21   -1    0    0  502  501  0.00000000000E+00  0.00000000000E+00  0.66942358293E+02  0.66942358293E+02  0.00000000000E+00 0.  1.
         21   -1    0    0  501  502 -0.00000000000E+00 -0.00000000000E+00 -0.85109930064E+03  0.85109930064E+03  0.00000000000E+00 0.  1.
         25    1    1    2    0    0  0.20114633703E+03  0.28283700423E+02 -0.37385730995E+03  0.44345699320E+03  0.12500000000E+03 0.  0.
         25    1    1    2    0    0 -0.20114633703E+03 -0.28283700423E+02 -0.41029963240E+03  0.47458466574E+03  0.12500000000E+03 0.  0.
</event>
<event>
 4    0  0.2185218E-002  0.2242021E+03  0.7546771E-02  0.1130788E+00
         21   -1    0    0  502  501  0.00000000000E+00  0.00000000000E+00  0.24377201959E+02  0.24377201959E+02  0.00000000000E+00 0. -1.
         21   -1    0    0  501  502 -0.00000000000E+00 -0.00000000000E+00 -0.20620317266E+04  0.20620317266E+04  0.00000000000E+00 0. -1.
         25    1    1    2    0    0 -0.24727138673E+02 -0.16367075060E+03 -0.62285967871E+03  0.65648969935E+03  0.12500000000E+03 0.  0.
         25    1    1    2    0    0  0.24727138673E+02  0.16367075060E+03 -0.14147948459E+04  0.14299192292E+04  0.12500000000E+03 0.  0.
</event>
<event>
 4    0  0.2185218E-002  0.3457246E+03  0.7546771E-02  0.1064384E+00
         21   -1    0    0  502  501  0.00000000000E+00  0.00000000000E+00  0.50942182125E+03  0.50942182125E+03  0.00000000000E+00 0.  1.
         21   -1    0    0  501  502 -0.00000000000E+00 -0.00000000000E+00 -0.23462965693E+03  0.23462965693E+03  0.00000000000E+00 0.  1.
         25    1    1    2    0    0  0.12503915375E+03 -0.19833238161E+03  0.37542521848E+03  0.45993436297E+03  0.12500000000E+03 0.  0.
         25    1    1    2    0    0 -0.12503915375E+03  0.19833238161E+03 -0.10063305416E+03  0.28411711521E+03  0.12500000000E+03 0.  0.
</event>
<event>
 4    0  0.2185218E-002  0.1896606E+03  0.7546771E-02  0.1158768E+00
         21   -1    0    0  502  501  0.00000000000E+00  0.00000000000E+00  0.12127537167E+04  0.12127537167E+04  0.00000000000E+00 0. -1.
         21   -1    0    0  501  502 -0.00000000000E+00 -0.00000000000E+00 -0.29660706850E+02  0.29660706850E+02  0.00000000000E+00 0. -1.
         25    1    1    2    0    0 -0.52952219042E+01  0.56080984537E+02  0.16232376334E+03  0.21247851737E+03  0.12500000000E+03 0.  0.
         25    1    1    2    0    0  0.52952219042E+01 -0.56080984537E+02  0.10207692465E+04  0.10299359061E+04  0.12500000000E+03 0.  0.
</event>
<event>
 4    0  0.2185218E-002  0.2533312E+03  0.7546771E-02  0.1111218E+00
         21   -1    0    0  502  501  0.00000000000E+00  0.00000000000E+00  0.12787876502E+03  0.12787876502E+03  0.00000000000E+00 0.  1.
         21   -1    0    0  501  502 -0.00000000000E+00 -0.00000000000E+00 -0.50185562238E+03  0.50185562238E+03  0.00000000000E+00 0.  1.
         25    1    1    2    0    0  0.10551068021E+03  0.19335776028E+03 -0.19401389193E+03  0.31903936648E+03  0.12500000000E+03 0.  0.
         25    1    1    2    0    0 -0.10551068021E+03 -0.19335776028E+03 -0.17996296543E+03  0.31069502092E+03  0.12500000000E+03 0.  0.
</event>
<event>
 4    0  0.2185218E-002  0.1640167E+03  0.7546771E-02  0.1184235E+00
         21   -1    0    0  502  501  0.00000000000E+00  0.00000000000E+00  0.49574042228E+02  0.49574042228E+02  0.00000000000E+00 0.  1.
         21   -1    0    0  501  502 -0.00000000000E+00 -0.00000000000E+00 -0.54265281078E+03  0.54265281078E+03  0.00000000000E+00 0.  1.
         25    1    1    2    0    0  0.16248173938E+01 -0.19450186541E+02 -0.43498860940E+03  0.45301328909E+03  0.12500000000E+03 0.  0.
         25    1    1    2    0    0 -0.16248173938E+01  0.19450186541E+02 -0.58090159158E+02  0.13921356392E+03  0.12500000000E+03 0.  0.
</event>
<event>
 4    0  0.2185218E-002  0.3062903E+03  0.7546771E-02  0.1082138E+00
         21   -1    0    0  502  501  0.00000000000E+00  0.00000000000E+00  0.48499821912E+03  0.48499821912E+03  0.00000000000E+00 0.  1.
         21   -1    0    0  501  502 -0.00000000000E+00 -0.00000000000E+00 -0.19343111675E+03  0.19343111675E+03  0.00000000000E+00 0.  1.
         25    1    1    2    0    0  0.23021266815E+03 -0.87651324065E+01 -0.29725586846E+02  0.26378648683E+03  0.12500000000E+03 0.  0.
         25    1    1    2    0    0 -0.23021266815E+03  0.87651324065E+01  0.32129268921E+03  0.41464284904E+03  0.12500000000E+03 0.  0.
</event>
<event>
 4    0  0.2185218E-002  0.2368915E+03  0.7546771E-02  0.1121881E+00
         21   -1    0    0  502  501  0.00000000000E+00  0.00000000000E+00  0.78323946022E+02  0.78323946022E+02  0.00000000000E+00 0.  1.
         21   -1    0    0  501  502 -0.00000000000E+00 -0.00000000000E+00 -0.71648055342E+03  0.71648055342E+03  0.00000000000E+00 0.  1.
         25    1    1    2    0    0 -0.35389295329E+02 -0.49907875292E+02  0.25141737464E+01  0.13919238237E+03  0.12500000000E+03 0.  0.
         25    1    1    2    0    0  0.35389295329E+02  0.49907875292E+02 -0.64067078115E+03  0.65561211707E+03  0.12500000000E+03 0.  0.
</event>
<event>
 4    0  0.2185218E-002  0.2342669E+03  0.7546771E-02  0.1123672E+00
         21   -1    0    0  502  501  0.00000000000E+00  0.00000000000E+00  0.44681678675E+02  0.44681678675E+02  0.00000000000E+00 0.  1.
         21   -1    0    0  501  502 -0.00000000000E+00 -0.00000000000E+00 -0.12282661739E+04  0.12282661739E+04  0.00000000000E+00 0.  1.
         25    1    1    2    0    0 -0.10387569199E+03 -0.82827418045E+02 -0.19244441796E+03  0.26516107288E+03  0.12500000000E+03 0.  0.
         25    1    1    2    0    0  0.10387569199E+03  0.82827418045E+02 -0.99114007722E+03  0.10077867796E+04  0.12500000000E+03 0.  0.
</event>
<event>
 4    0  0.2185218E-002  0.2043274E+03  0.7546771E-02  0.1146139E+00
         21   -1    0    0  502  501  0.00000000000E+00  0.00000000000E+00  0.85111331613E+02  0.85111331613E+02  0.00000000000E+00 0. -1.
         21   -1    0    0  501  502 -0.00000000000E+00 -0.00000000000E+00 -0.49053006654E+03  0.49053006654E+03  0.00000000000E+00 0. -1.
         25    1    1    2    0    0 -0.92378621687E+02 -0.13106923447E+03 -0.23129138660E+03  0.30795074198E+03  0.12500000000E+03 0.  0.
         25    1    1    2    0    0  0.92378621687E+02  0.13106923447E+03 -0.17412734833E+03  0.26769065618E+03  0.12500000000E+03 0.  0.
</event>
<event>
 4    0  0.2185218E-002  0.1965298E+03  0.7546771E-02  0.1152700E+00
         21   -1    0    0  502  501  0.00000000000E+00  0.00000000000E+00  0.90506104899E+03  0.90506104899E+03  0.00000000000E+00 0. -1.
         21   -1    0    0  501  502 -0.00000000000E+00 -0.00000000000E+00 -0.42675533713E+02  0.42675533713E+02  0.00000000000E+00 0. -1.
         25    1    1    2    0    0 -0.95074160590E+01  0.13293066404E+03  0.60569958801E+03  0.63265942127E+03  0.12500000000E+03 0.  0.
         25    1    1    2    0    0  0.95074160590E+01 -0.13293066404E+03  0.25668592727E+03  0.31507716144E+03  0.12500000000E+03 0.  0.
</event>
<event>
 4    0  0.2185218E-002  0.2826993E+03  0.7546771E-02  0.1094224E+00
         21   -1    0    0  502  501  0.00000000000E+00  0.00000000000E+00  0.15020754520E+04  0.15020754520E+04  0.00000000000E+00 0.  1.
         21   -1    0    0  501  502 -0.00000000000E+00 -0.00000000000E+00 -0.53205650926E+02  0.53205650926E+02  0.00000000000E+00 0. -1.
         25    1    1    2    0    0  0.23722801813E+03 -0.85241911249E+02  0.79979724775E+03  0.84784665685E+03  0.12500000000E+03 0.  0.
         25    1    1    2    0    0 -0.23722801813E+03  0.85241911249E+02  0.64907255334E+03  0.70743444609E+03  0.12500000000E+03 0.  0.
</event>
<event>
 4    0  0.2185218E-002  0.2260622E+03  0.7546771E-02  0.1129442E+00
         21   -1    0    0  502  501  0.00000000000E+00  0.00000000000E+00  0.85879700120E+02  0.85879700120E+02  0.00000000000E+00 0. -1.
         21   -1    0    0  501  502 -0.00000000000E+00 -0.00000000000E+00 -0.59506612165E+03  0.59506612165E+03  0.00000000000E+00 0. -1.
         25    1    1    2    0    0  0.11448923420E+03 -0.11458556295E+03 -0.39937871453E+03  0.44873822392E+03  0.12500000000E+03 0.  0.
         25    1    1    2    0    0 -0.11448923420E+03  0.11458556295E+03 -0.10980770700E+03  0.23220759785E+03  0.12500000000E+03 0.  0.
</event>
<event>
 4    0  0.2185218E-002  0.1669746E+03  0.7546771E-02  0.1181040E+00
         21   -1    0    0  502  501  0.00000000000E+00  0.00000000000E+00  0.90266955464E+03  0.90266955464E+03  0.00000000000E+00 0.  1.
         21   -1    0    0  501  502 -0.00000000000E+00 -0.00000000000E+00 -0.30886726196E+02  0.30886726196E+02  0.00000000000E+00 0.  1.
         25    1    1    2    0    0 -0.38155705637E+02 -0.29624493254E+02  0.15743281387E+03  0.20674515558E+03  0.12500000000E+03 0.  0.
         25    1    1    2    0    0  0.38155705637E+02  0.29624493254E+02  0.71435001457E+03  0.72681112525E+03  0.12500000000E+03 0.  0.
</event>
<event>
 4    0  0.2185218E-002  0.2233807E+03  0.7546771E-02  0.1131387E+00
         21   -1    0    0  502  501  0.00000000000E+00  0.00000000000E+00  0.57994293172E+02  0.57994293172E+02  0.00000000000E+00 0.  1.
         21   -1    0    0  501  502 -0.00000000000E+00 -0.00000000000E+00 -0.86041131331E+03  0.86041131331E+03  0.00000000000E+00 0.  1.
         25    1    1    2    0    0  0.75056902363E+02  0.12420490769E+03 -0.16490587076E+03  0.25274363276E+03  0.12500000000E+03 0.  0.
         25    1    1    2    0    0 -0.75056902363E+02 -0.12420490769E+03 -0.63751114937E+03  0.66566197372E+03  0.12500000000E+03 0.  0.
</event>
<event>
 4    0  0.2185218E-002  0.2299232E+03  0.7546771E-02  0.1126694E+00
         21   -1    0    0  502  501  0.00000000000E+00  0.00000000000E+00  0.49634012887E+03  0.49634012887E+03  0.00000000000E+00 0.  1.
         21   -1    0    0  501  502 -0.00000000000E+00 -0.00000000000E+00 -0.10650898612E+03  0.10650898612E+03  0.00000000000E+00 0.  1.
         25    1    1    2    0    0 -0.94842678008E+02  0.98373863066E+01 -0.25031334318E+02  0.15919634242E+03  0.12500000000E+03 0.  0.
         25    1    1    2    0    0  0.94842678008E+02 -0.98373863066E+01  0.41486247707E+03  0.44365277258E+03  0.12500000000E+03 0.  0.
</event>
<event>
 4    0  0.2185218E-002  0.2312653E+03  0.7546771E-02  0.1125752E+00
         21   -1    0    0  502  501  0.00000000000E+00  0.00000000000E+00  0.15390469846E+03  0.15390469846E+03  0.00000000000E+00 0. -1.
         21   -1    0    0  501  502 -0.00000000000E+00 -0.00000000000E+00 -0.34751129992E+03  0.34751129992E+03  0.00000000000E+00 0.  1.
         25    1    1    2    0    0  0.13604943605E+03  0.12220691581E+03 -0.16883199742E+03  0.27851969889E+03  0.12500000000E+03 0.  0.
         25    1    1    2    0    0 -0.13604943605E+03 -0.12220691581E+03 -0.24774604047E+02  0.22289629949E+03  0.12500000000E+03 0.  0.
</event>
<event>
 4    0  0.2185218E-002  0.1899120E+03  0.7546771E-02  0.1158541E+00
         21   -1    0    0  502  501  0.00000000000E+00  0.00000000000E+00  0.30257025154E+03  0.30257025154E+03  0.00000000000E+00 0.  1.
         21   -1    0    0  501  502 -0.00000000000E+00 -0.00000000000E+00 -0.11920062125E+03  0.11920062125E+03  0.00000000000E+00 0.  1.
         25    1    1    2    0    0 -0.82749659794E+02  0.11633697816E+03  0.10026924377E+03  0.21461761328E+03  0.12500000000E+03 0.  0.
         25    1    1    2    0    0  0.82749659794E+02 -0.11633697816E+03  0.83100386526E+02  0.20715325951E+03  0.12500000000E+03 0.  0.
</event>
<event>
 4    0  0.2185218E-002  0.2843989E+03  0.7546771E-02  0.1093310E+00
         21   -1    0    0  502  501  0.00000000000E+00  0.00000000000E+00  0.14444428666E+03  0.14444428666E+03  0.00000000000E+00 0.  1.
         21   -1    0    0  501  502 -0.00000000000E+00 -0.00000000000E+00 -0.55995814239E+03  0.55995814239E+03  0.00000000000E+00 0.  1.
         25    1    1    2    0    0 -0.24006611321E+03 -0.75456177854E+02 -0.26219581729E+03  0.38431370011E+03  0.12500000000E+03 0.  0.
         25    1    1    2    0    0  0.24006611321E+03  0.75456177854E+02 -0.15331803844E+03  0.32008872895E+03  0.12500000000E+03 0.  0.
</event>
<event>
 4    0  0.2185218E-002  0.2211909E+03  0.7546771E-02  0.1132998E+00
         21   -1    0    0  502  501  0.00000000000E+00  0.00000000000E+00  0.60795882302E+02  0.60795882302E+02  0.00000000000E+00 0. -1.
         21   -1    0    0  501  502 -0.00000000000E+00 -0.00000000000E+00 -0.80474897029E+03  0.80474897029E+03  0.00000000000E+00 0. -1.
         25    1    1    2    0    0 -0.15124579269E+03 -0.96847641687E+02 -0.43524529039E+03  0.48715317747E+03  0.12500000000E+03 0.  0.
         25    1    1    2    0    0  0.15124579269E+03  0.96847641687E+02 -0.30870779760E+03  0.37839167513E+03  0.12500000000E+03 0.  0.
</event>
<event>
 4    0  0.2185218E-002  0.3909379E+03  0.7546771E-02  0.1046964E+00
         21   -1    0    0  502  501  0.00000000000E+00  0.00000000000E+00  0.60516660847E+03  0.60516660847E+03  0.00000000000E+00 0.  1.
         21   -1    0    0  501  502 -0.00000000000E+00 -0.00000000000E+00 -0.25254604836E+03  0.25254604836E+03  0.00000000000E+00 0.  1.
         25    1    1    2    0    0  0.12391516562E+03  0.19434730150E+03 -0.14178302125E+03  0.29808265126E+03  0.12500000000E+03 0.  0.
         25    1    1    2    0    0 -0.12391516562E+03 -0.19434730150E+03  0.49440358136E+03  0.55963000556E+03  0.12500000000E+03 0.  0.
</event>
<event>
 4    0  0.2185218E-002  0.2229131E+03  0.7546771E-02  0.1131730E+00
         21   -1    0    0  502  501  0.00000000000E+00  0.00000000000E+00  0.37028966318E+02  0.37028966318E+02  0.00000000000E+00 0. -1.
         21   -1    0    0  501  502 -0.00000000000E+00 -0.00000000000E+00 -0.13419293636E+04  0.13419293636E+04  0.00000000000E+00 0.  1.
         25    1    1    2    0    0 -0.58201923292E+02 -0.17287392577E+03 -0.56538240942E+03  0.60708741295E+03  0.12500000000E+03 0.  0.
         25    1    1    2    0    0  0.58201923292E+02  0.17287392577E+03 -0.73951798790E+03  0.77187091700E+03  0.12500000000E+03 0.  0.
</event>
<event>
 4    0  0.2185218E-002  0.2404042E+03  0.7546771E-02  0.1119524E+00
         21   -1    0    0  502  501  0.00000000000E+00  0.00000000000E+00  0.38961527381E+03  0.38961527381E+03  0.00000000000E+00 0.  1.
         21   -1    0    0  501  502 -0.00000000000E+00 -0.00000000000E+00 -0.14833653674E+03  0.14833653674E+03  0.00000000000E+00 0.  1.
         25    1    1    2    0    0  0.13460340077E+03 -0.11185496687E+03  0.44997047636E+00  0.21506931810E+03  0.12500000000E+03 0.  0.
         25    1    1    2    0    0 -0.13460340077E+03  0.11185496687E+03  0.24082876660E+03  0.32288249246E+03  0.12500000000E+03 0.  0.
</event>
<event>
 4    0  0.2185218E-002  0.1875334E+03  0.7546771E-02  0.1160705E+00
         21   -1    0    0  502  501  0.00000000000E+00  0.00000000000E+00  0.53807244746E+02  0.53807244746E+02  0.00000000000E+00 0. -1.
         21   -1    0    0  501  502 -0.00000000000E+00 -0.00000000000E+00 -0.65360666796E+03  0.65360666796E+03  0.00000000000E+00 0.  1.
         25    1    1    2    0    0  0.11705453569E+03 -0.42066545150E+02 -0.42026216256E+03  0.45575941442E+03  0.12500000000E+03 0.  0.
         25    1    1    2    0    0 -0.11705453569E+03  0.42066545150E+02 -0.17953726065E+03  0.25165449829E+03  0.12500000000E+03 0.  0.
</event>
<event>
 4    0  0.2185218E-002  0.1700704E+03  0.7546771E-02  0.1177774E+00
         21   -1    0    0  502  501  0.00000000000E+00  0.00000000000E+00  0.34301834326E+02  0.34301834326E+02  0.00000000000E+00 0.  1.
         21   -1    0    0  501  502 -0.00000000000E+00 -0.00000000000E+00 -0.84321885738E+03  0.84321885738E+03  0.00000000000E+00 0.  1.
         25    1    1    2    0    0  0.10963277536E+03  0.31511737373E+02 -0.44813529694E+03  0.47902252493E+03  0.12500000000E+03 0.  0.
         25    1    1    2    0    0 -0.10963277536E+03 -0.31511737373E+02 -0.36078172611E+03  0.39849816677E+03  0.12500000000E+03 0.  0.
</event>
<event>
 4    0  0.2185218E-002  0.2583954E+03  0.7546771E-02  0.1108111E+00
         21   -1    0    0  502  501  0.00000000000E+00  0.00000000000E+00  0.19939536374E+03  0.19939536374E+03  0.00000000000E+00 0.  1.
         21   -1    0    0  501  502 -0.00000000000E+00 -0.00000000000E+00 -0.33485325302E+03  0.33485325302E+03  0.00000000000E+00 0.  1.
         25    1    1    2    0    0 -0.58269779172E+02  0.21540869285E+03 -0.29788836427E+02  0.25750465413E+03  0.12500000000E+03 0.  0.
         25    1    1    2    0    0  0.58269779172E+02 -0.21540869285E+03 -0.10566905286E+03  0.27674396263E+03  0.12500000000E+03 0.  0.
</event>
<event>
 4    0  0.2185218E-002  0.2334263E+03  0.7546771E-02  0.1124251E+00
         21   -1    0    0  502  501  0.00000000000E+00  0.00000000000E+00  0.65696915178E+03  0.65696915178E+03  0.00000000000E+00 0.  1.
         21   -1    0    0  501  502 -0.00000000000E+00 -0.00000000000E+00 -0.82938205601E+02  0.82938205601E+02  0.00000000000E+00 0.  1.
         25    1    1    2    0    0  0.69070317665E+02  0.18025134967E+03  0.35044222996E+03  0.41916108405E+03  0.12500000000E+03 0.  0.
         25    1    1    2    0    0 -0.69070317665E+02 -0.18025134967E+03  0.22358871622E+03  0.32074627334E+03  0.12500000000E+03 0.  0.
</event>
<event>
 4    0  0.2185218E-002  0.1533504E+03  0.7546771E-02  0.1196415E+00
         21   -1    0    0  502  501  0.00000000000E+00  0.00000000000E+00  0.44203907823E+03  0.44203907823E+03  0.00000000000E+00 0.  1.
         21   -1    0    0  501  502 -0.00000000000E+00 -0.00000000000E+00 -0.53199708141E+02  0.53199708141E+02  0.00000000000E+00 0.  1.
         25    1    1    2    0    0  0.46405642586E+02  0.66779744791E+02  0.25215233910E+03  0.29294849392E+03  0.12500000000E+03 0.  0.
         25    1    1    2    0    0 -0.46405642586E+02 -0.66779744791E+02  0.13668703099E+03  0.20229029245E+03  0.12500000000E+03 0.  0.
</event>
<event>
 4    0  0.2185218E-002  0.2524679E+03  0.7546771E-02  0.1111755E+00
         21   -1    0    0  502  501  0.00000000000E+00  0.00000000000E+00  0.12322595297E+03  0.12322595297E+03  0.00000000000E+00 0.  1.
         21   -1    0    0  501  502 -0.00000000000E+00 -0.00000000000E+00 -0.51726137586E+03  0.51726137586E+03  0.00000000000E+00 0.  1.
         25    1    1    2    0    0 -0.18339031602E+03 -0.48154711911E+02 -0.33691688971E+03  0.40631130290E+03  0.12500000000E+03 0.  0.
         25    1    1    2    0    0  0.18339031602E+03  0.48154711911E+02 -0.57118533176E+02  0.23417602593E+03  0.12500000000E+03 0.  0.
</event>
<event>
 4    0  0.2185218E-002  0.2083718E+03  0.7546771E-02  0.1142862E+00
         21   -1    0    0  502  501  0.00000000000E+00  0.00000000000E+00  0.10256575881E+04  0.10256575881E+04  0.00000000000E+00 0. -1.
         21   -1    0    0  501  502 -0.00000000000E+00 -0.00000000000E+00 -0.42332662161E+02  0.42332662161E+02  0.00000000000E+00 0. -1.
         25    1    1    2    0    0  0.74562163346E+02 -0.64935774763E+02  0.14767127476E+03  0.21727396631E+03  0.12500000000E+03 0.  0.
         25    1    1    2    0    0 -0.74562163346E+02  0.64935774763E+02  0.83565365114E+03  0.85071628391E+03  0.12500000000E+03 0.  0.
</event>
<event>
 4    0  0.2185218E-002  0.2005072E+03  0.7546771E-02  0.1149312E+00
         21   -1    0    0  502  501  0.00000000000E+00  0.00000000000E+00  0.82672549529E+03  0.82672549529E+03  0.00000000000E+00 0.  1.
         21   -1    0    0  501  502 -0.00000000000E+00 -0.00000000000E+00 -0.48629351109E+02  0.48629351109E+02  0.00000000000E+00 0.  1.
         25    1    1    2    0    0 -0.87169695155E+02  0.58478839063E+02  0.64323358119E+03  0.66362095382E+03  0.12500000000E+03 0.  0.
         25    1    1    2    0    0  0.87169695155E+02 -0.58478839063E+02  0.13486256298E+03  0.21173389258E+03  0.12500000000E+03 0.  0.
</event>
<event>
 4    0  0.2185218E-002  0.1824987E+03  0.7546771E-02  0.1165407E+00
         21   -1    0    0  502  501  0.00000000000E+00  0.00000000000E+00  0.11794562709E+02  0.11794562709E+02  0.00000000000E+00 0. -1.
         21   -1    0    0  501  502 -0.00000000000E+00 -0.00000000000E+00 -0.28238233449E+04  0.28238233449E+04  0.00000000000E+00 0. -1.
         25    1    1    2    0    0 -0.65112076526E+01  0.74381710823E+02 -0.55123613742E+03  0.57014148588E+03  0.12500000000E+03 0.  0.
         25    1    1    2    0    0  0.65112076526E+01 -0.74381710823E+02 -0.22607926448E+04  0.22654764218E+04  0.12500000000E+03 0.  0.
</event>
<event>
 4    0  0.2185218E-002  0.1906919E+03  0.7546771E-02  0.1157839E+00
         21   -1    0    0  502  501  0.00000000000E+00  0.00000000000E+00  0.97303770028E+02  0.97303770028E+02  0.00000000000E+00 0.  1.
         21   -1    0    0  501  502 -0.00000000000E+00 -0.00000000000E+00 -0.37371018150E+03  0.37371018150E+03  0.00000000000E+00 0.  1.
         25    1    1    2    0    0  0.37264254538E+02  0.35958817753E+02 -0.30415855254E+03  0.33289500796E+03  0.12500000000E+03 0.  0.
         25    1    1    2    0    0 -0.37264254538E+02 -0.35958817753E+02  0.27752141063E+02  0.13811894357E+03  0.12500000000E+03 0.  0.
</event>
<event>
 4    0  0.2185218E-002  0.2125210E+03  0.7546771E-02  0.1139585E+00
         21   -1    0    0  502  501  0.00000000000E+00  0.00000000000E+00  0.26229970832E+04  0.26229970832E+04  0.00000000000E+00 0. -1.
         21   -1    0    0  501  502 -0.00000000000E+00 -0.00000000000E+00 -0.17218917490E+02  0.17218917490E+02  0.00000000000E+00 0. -1.
         25    1    1    2    0    0  0.58114489980E+02  0.13089430508E+03  0.18931457020E+04  0.19026655676E+04  0.12500000000E+03 0.  0.
         25    1    1    2    0    0 -0.58114489980E+02 -0.13089430508E+03  0.71263246364E+03  0.73755043304E+03  0.12500000000E+03 0.  0.
</event>
<event>
 4    0  0.2185218E-002  0.2600669E+03  0.7546771E-02  0.1107103E+00
         21   -1    0    0  502  501  0.00000000000E+00  0.00000000000E+00  0.26115419339E+02  0.26115419339E+02  0.00000000000E+00 0.  1.
         21   -1    0    0  501  502 -0.00000000000E+00 -0.00000000000E+00 -0.25898415466E+04  0.25898415466E+04  0.00000000000E+00 0.  1.
         25    1    1    2    0    0 -0.15845788553E+03 -0.25079502623E+02 -0.20970577998E+04  0.21068968410E+04  0.12500000000E+03 0.  0.
         25    1    1    2    0    0  0.15845788553E+03  0.25079502623E+02 -0.46666832740E+03  0.50906012488E+03  0.12500000000E+03 0.  0.
</event>
<event>
 4    0  0.2185218E-002  0.2658254E+03  0.7546771E-02  0.1103693E+00
         21   -1    0    0  502  501  0.00000000000E+00  0.00000000000E+00  0.83554033375E+02  0.83554033375E+02  0.00000000000E+00 0. -1.
         21   -1    0    0  501  502 -0.00000000000E+00 -0.00000000000E+00 -0.84571804364E+03  0.84571804364E+03  0.00000000000E+00 0. -1.
         25    1    1    2    0    0  0.19171547225E+03 -0.11371462045E+03 -0.50895748456E+03  0.56951607378E+03  0.12500000000E+03 0.  0.
         25    1    1    2    0    0 -0.19171547225E+03  0.11371462045E+03 -0.25320652571E+03  0.35975600324E+03  0.12500000000E+03 0.  0.
</event>
<event>
 4    0  0.2185218E-002  0.1890775E+03  0.7546771E-02  0.1159296E+00
         21   -1    0    0  502  501  0.00000000000E+00  0.00000000000E+00  0.12261262386E+03  0.12261262386E+03  0.00000000000E+00 0.  1.
         21   -1    0    0  501  502 -0.00000000000E+00 -0.00000000000E+00 -0.29157105644E+03  0.29157105644E+03  0.00000000000E+00 0.  1.
         25    1    1    2    0    0  0.95958379693E+02 -0.13609981758E+01 -0.19891019167E+03  0.25377180162E+03  0.12500000000E+03 0.  0.
         25    1    1    2    0    0 -0.95958379693E+02  0.13609981758E+01  0.29951759082E+02  0.16041187868E+03  0.12500000000E+03 0.  0.
</event>
<event>
 4    0  0.2185218E-002  0.1928323E+03  0.7546771E-02  0.1155931E+00
         21   -1    0    0  502  501  0.00000000000E+00  0.00000000000E+00  0.14674402617E+03  0.14674402617E+03  0.00000000000E+00 0. -1.
         21   -1    0    0  501  502 -0.00000000000E+00 -0.00000000000E+00 -0.25339558810E+03  0.25339558810E+03  0.00000000000E+00 0. -1.
         25    1    1    2    0    0  0.71221066324E+02 -0.11727106396E+03 -0.10757938014E+03  0.21453033763E+03  0.12500000000E+03 0.  0.
         25    1    1    2    0    0 -0.71221066324E+02  0.11727106396E+03  0.92781821802E+00  0.18560927665E+03  0.12500000000E+03 0.  0.
</event>
<event>
 4    0  0.2185218E-002  0.1657036E+03  0.7546771E-02  0.1182404E+00
         21   -1    0    0  502  501  0.00000000000E+00  0.00000000000E+00  0.85588959547E+03  0.85588959547E+03  0.00000000000E+00 0.  1.
         21   -1    0    0  501  502 -0.00000000000E+00 -0.00000000000E+00 -0.32080861834E+02  0.32080861834E+02  0.00000000000E+00 0.  1.
         25    1    1    2    0    0  0.94234541727E+02 -0.11868175960E+02  0.26982890681E+03  0.31217565794E+03  0.12500000000E+03 0.  0.
         25    1    1    2    0    0 -0.94234541727E+02  0.11868175960E+02  0.55397982682E+03  0.57579479936E+03  0.12500000000E+03 0.  0.
</event>
<event>
 4    0  0.2185218E-002  0.1931131E+03  0.7546771E-02  0.1155683E+00
         21   -1    0    0  502  501  0.00000000000E+00  0.00000000000E+00  0.17891514640E+03  0.17891514640E+03  0.00000000000E+00 0.  1.
         21   -1    0    0  501  502 -0.00000000000E+00 -0.00000000000E+00 -0.20843763775E+03  0.20843763775E+03  0.00000000000E+00 0.  1.
         25    1    1    2    0    0  0.96194042772E+02 -0.11021229268E+03 -0.31167669163E+02  0.19492682454E+03  0.12500000000E+03 0.  0.
         25    1    1    2    0    0 -0.96194042772E+02  0.11021229268E+03  0.16451778162E+01  0.19242595961E+03  0.12500000000E+03 0.  0.
</event>
<event>
 4    0  0.2185218E-002  0.1792248E+03  0.7546771E-02  0.1168555E+00
         21   -1    0    0  502  501  0.00000000000E+00  0.00000000000E+00  0.69696921973E+03  0.69696921973E+03  0.00000000000E+00 0.  1.
         21   -1    0    0  501  502 -0.00000000000E+00 -0.00000000000E+00 -0.46087442935E+02  0.46087442935E+02  0.00000000000E+00 0.  1.
         25    1    1    2    0    0 -0.10609527788E+02  0.72658739454E+02  0.10699355355E+03  0.18017900821E+03  0.12500000000E+03 0.  0.
         25    1    1    2    0    0  0.10609527788E+02 -0.72658739454E+02  0.54388822325E+03  0.56287765446E+03  0.12500000000E+03 0.  0.
</event>
<event>
 4    0  0.2185218E-002  0.2780299E+03  0.7546771E-02  0.1096770E+00
         21   -1    0    0  502  501  0.00000000000E+00  0.00000000000E+00  0.10609411684E+04  0.10609411684E+04  0.00000000000E+00 0.  1.
         21   -1    0    0  501  502 -0.00000000000E+00 -0.00000000000E+00 -0.72860409246E+02  0.72860409246E+02  0.00000000000E+00 0.  1.
         25    1    1    2    0    0  0.44506997925E+02 -0.22484312815E+02 -0.20225885432E+01  0.13459386335E+03  0.12500000000E+03 0.  0.
         25    1    1    2    0    0 -0.44506997925E+02  0.22484312815E+02  0.99010334769E+03  0.99920771429E+03  0.12500000000E+03 0.  0.
</event>
<event>
 4    0  0.2185218E-002  0.3142634E+03  0.7546771E-02  0.1078320E+00
         21   -1    0    0  502  501  0.00000000000E+00  0.00000000000E+00  0.15319435063E+04  0.15319435063E+04  0.00000000000E+00 0. -1.
         21   -1    0    0  501  502 -0.00000000000E+00 -0.00000000000E+00 -0.64468088530E+02  0.64468088530E+02  0.00000000000E+00 0. -1.
         25    1    1    2    0    0 -0.69080314117E+02  0.14326538285E+03  0.12288988294E+03  0.23669385934E+03  0.12500000000E+03 0.  0.
         25    1    1    2    0    0  0.69080314117E+02 -0.14326538285E+03  0.13445855348E+04  0.13597177355E+04  0.12500000000E+03 0.  0.
</event>
<event>
 4    0  0.2185218E-002  0.1840120E+03  0.7546771E-02  0.1163976E+00
         21   -1    0    0  502  501  0.00000000000E+00  0.00000000000E+00  0.10919016353E+04  0.10919016353E+04  0.00000000000E+00 0.  1.
         21   -1    0    0  501  502 -0.00000000000E+00 -0.00000000000E+00 -0.31010509210E+02  0.31010509210E+02  0.00000000000E+00 0.  1.
         25    1    1    2    0    0  0.79316836580E+02  0.84119038883E+02  0.31755514160E+03  0.36032407806E+03  0.12500000000E+03 0.  0.
         25    1    1    2    0    0 -0.79316836580E+02 -0.84119038883E+02  0.74333598448E+03  0.76258806645E+03  0.12500000000E+03 0.  0.
</event>
<event>
 4    0  0.2185218E-002  0.2475608E+03  0.7546771E-02  0.1114856E+00
         21   -1    0    0  502  501  0.00000000000E+00  0.00000000000E+00  0.20702735576E+04  0.20702735576E+04  0.00000000000E+00 0.  1.
         21   -1    0    0  501  502 -0.00000000000E+00 -0.00000000000E+00 -0.29603019704E+02  0.29603019704E+02  0.00000000000E+00 0.  1.
         25    1    1    2    0    0  0.18669286415E+03  0.74675353393E+02  0.71360090922E+03  0.75185230702E+03  0.12500000000E+03 0.  0.
         25    1    1    2    0    0 -0.18669286415E+03 -0.74675353393E+02  0.13270696287E+04  0.13480242703E+04  0.12500000000E+03 0.  0.
</event>
<event>
 4    0  0.2185218E-002  0.2317597E+03  0.7546771E-02  0.1125407E+00
         21   -1    0    0  502  501  0.00000000000E+00  0.00000000000E+00  0.12169444289E+04  0.12169444289E+04  0.00000000000E+00 0. -1.
         21   -1    0    0  501  502 -0.00000000000E+00 -0.00000000000E+00 -0.44137226029E+02  0.44137226029E+02  0.00000000000E+00 0.  1.
         25    1    1    2    0    0 -0.78690721837E+02  0.17689689188E+03  0.51960521059E+03  0.56841825704E+03  0.12500000000E+03 0.  0.
         25    1    1    2    0    0  0.78690721837E+02 -0.17689689188E+03  0.65320199230E+03  0.69266339791E+03  0.12500000000E+03 0.  0.
</event>
<event>
 4    0  0.2185218E-002  0.1545857E+03  0.7546771E-02  0.1194949E+00
         21   -1    0    0  502  501  0.00000000000E+00  0.00000000000E+00  0.98331967993E+03  0.98331967993E+03  0.00000000000E+00 0. -1.
         21   -1    0    0  501  502 -0.00000000000E+00 -0.00000000000E+00 -0.24302107942E+02  0.24302107942E+02  0.00000000000E+00 0. -1.
         25    1    1    2    0    0 -0.79791121092E+02 -0.37609700979E+02  0.55169837238E+03  0.57251830250E+03  0.12500000000E+03 0.  0.
         25    1    1    2    0    0  0.79791121092E+02  0.37609700979E+02  0.40731919961E+03  0.43510348537E+03  0.12500000000E+03 0.  0.
</event>
<event>
 4    0  0.2185218E-002  0.2603589E+03  0.7546771E-02  0.1106928E+00
         21   -1    0    0  502  501  0.00000000000E+00  0.00000000000E+00  0.19067905609E+03  0.19067905609E+03  0.00000000000E+00 0. -1.
         21   -1    0    0  501  502 -0.00000000000E+00 -0.00000000000E+00 -0.35550197890E+03  0.35550197890E+03  0.00000000000E+00 0. -1.
         25    1    1    2    0    0 -0.18115698439E+02  0.15587172890E+03 -0.25647075403E+03  0.32561698677E+03  0.12500000000E+03 0.  0.
         25    1    1    2    0    0  0.18115698439E+02 -0.15587172890E+03  0.91647831218E+02  0.22056404822E+03  0.12500000000E+03 0.  0.
</event>
<event>
 4    0  0.2185218E-002  0.1829287E+03  0.7546771E-02  0.1164998E+00
         21   -1    0    0  502  501  0.00000000000E+00  0.00000000000E+00  0.26032444149E+03  0.26032444149E+03  0.00000000000E+00 0. -1.
         21   -1    0    0  501  502 -0.00000000000E+00 -0.00000000000E+00 -0.12854306011E+03  0.12854306011E+03  0.00000000000E+00 0. -1.
         25    1    1    2    0    0 -0.15636246258E+02 -0.23985870180E+02 -0.72767402449E+02  0.14744459646E+03  0.12500000000E+03 0.  0.
         25    1    1    2    0    0  0.15636246258E+02  0.23985870180E+02  0.20454878383E+03  0.24142290515E+03  0.12500000000E+03 0.  0.
</event>
<event>
 4    0  0.2185218E-002  0.1813008E+03  0.7546771E-02  0.1166550E+00
         21   -1    0    0  502  501  0.00000000000E+00  0.00000000000E+00  0.17757291742E+02  0.17757291742E+02  0.00000000000E+00 0. -1.
         21   -1    0    0  501  502 -0.00000000000E+00 -0.00000000000E+00 -0.18510688365E+04  0.18510688365E+04  0.00000000000E+00 0. -1.
         25    1    1    2    0    0  0.45067036529E+02 -0.11717574183E+03 -0.71812694135E+03  0.73965701251E+03  0.12500000000E+03 0.  0.
         25    1    1    2    0    0 -0.45067036529E+02  0.11717574183E+03 -0.11151846035E+04  0.11291691158E+04  0.12500000000E+03 0.  0.
</event>
<event>
 4    0  0.2185218E-002  0.2333836E+03  0.7546771E-02  0.1124281E+00
         21   -1    0    0  502  501  0.00000000000E+00  0.00000000000E+00  0.13941112050E+03  0.13941112050E+03  0.00000000000E+00 0. -1.
         21   -1    0    0  501  502 -0.00000000000E+00 -0.00000000000E+00 -0.39069977957E+03  0.39069977957E+03  0.00000000000E+00 0. -1.
         25    1    1    2    0    0  0.68931318041E+02  0.11101794514E+03 -0.29320017476E+03  0.34448200712E+03  0.12500000000E+03 0.  0.
         25    1    1    2    0    0 -0.68931318041E+02 -0.11101794514E+03  0.41911515694E+02  0.18562889295E+03  0.12500000000E+03 0.  0.
</event>
<event>
 4    0  0.2185218E-002  0.1787889E+03  0.7546771E-02  0.1168980E+00
         21   -1    0    0  502  501  0.00000000000E+00  0.00000000000E+00  0.58376511653E+02  0.58376511653E+02  0.00000000000E+00 0. -1.
         21   -1    0    0  501  502 -0.00000000000E+00 -0.00000000000E+00 -0.54757440547E+03  0.54757440547E+03  0.00000000000E+00 0. -1.
         25    1    1    2    0    0 -0.80546964640E+02  0.88320959251E+02 -0.16783385468E+03  0.24100126168E+03  0.12500000000E+03 0.  0.
         25    1    1    2    0    0  0.80546964640E+02 -0.88320959251E+02 -0.32136403913E+03  0.36494965543E+03  0.12500000000E+03 0.  0.
</event>
<event>
 4    0  0.2185218E-002  0.1686789E+03  0.7546771E-02  0.1179233E+00
         21   -1    0    0  502  501  0.00000000000E+00  0.00000000000E+00  0.10758005656E+03  0.10758005656E+03  0.00000000000E+00 0.  1.
         21   -1    0    0  501  502 -0.00000000000E+00 -0.00000000000E+00 -0.26447808626E+03  0.26447808626E+03  0.00000000000E+00 0.  1.
         25    1    1    2    0    0  0.55930405622E+02  0.98443704209E+02 -0.75292002870E+02  0.18469775003E+03  0.12500000000E+03 0.  0.
         25    1    1    2    0    0 -0.55930405622E+02 -0.98443704209E+02 -0.81606026824E+02  0.18736039279E+03  0.12500000000E+03 0.  0.
</event>
<event>
 4    0  0.2185218E-002  0.2737600E+03  0.7546771E-02  0.1099147E+00
         21   -1    0    0  502  501  0.00000000000E+00  0.00000000000E+00  0.39199661236E+03  0.39199661236E+03  0.00000000000E+00 0.  1.
         21   -1    0    0  501  502 -0.00000000000E+00 -0.00000000000E+00 -0.19118665912E+03  0.19118665912E+03  0.00000000000E+00 0.  1.
         25    1    1    2    0    0 -0.79306239252E+02 -0.20167706173E+03 -0.17994885355E+02  0.25082251237E+03  0.12500000000E+03 0.  0.
         25    1    1    2    0    0  0.79306239252E+02  0.20167706173E+03  0.21880483859E+03  0.33236075912E+03  0.12500000000E+03 0.  0.
</event>
<event>
 4    0  0.2185218E-002  0.1883864E+03  0.7546771E-02  0.1159925E+00
         21   -1    0    0  502  501  0.00000000000E+00  0.00000000000E+00  0.54688502717E+03  0.54688502717E+03  0.00000000000E+00 0.  1.
         21   -1    0    0  501  502 -0.00000000000E+00 -0.00000000000E+00 -0.64893773957E+02  0.64893773957E+02  0.00000000000E+00 0.  1.
         25    1    1    2    0    0 -0.48470462060E+02  0.59970889798E+02  0.43255867398E+03  0.45681276225E+03  0.12500000000E+03 0.  0.
         25    1    1    2    0    0  0.48470462060E+02 -0.59970889798E+02  0.49432579226E+02  0.15496603887E+03  0.12500000000E+03 0.  0.
</event>
<event>
 4    0  0.2185218E-002  0.2868334E+03  0.7546771E-02  0.1092014E+00
         21   -1    0    0  502  501  0.00000000000E+00  0.00000000000E+00  0.90281828748E+02  0.90281828748E+02  0.00000000000E+00 0. -1.
         21   -1    0    0  501  502 -0.00000000000E+00 -0.00000000000E+00 -0.91129545204E+03  0.91129545204E+03  0.00000000000E+00 0.  1.
         25    1    1    2    0    0  0.67961922896E+02 -0.17339590807E+03 -0.98365278339E+02  0.24491976621E+03  0.12500000000E+03 0.  0.
         25    1    1    2    0    0 -0.67961922896E+02  0.17339590807E+03 -0.72264834495E+03  0.75665751457E+03  0.12500000000E+03 0.  0.
</event>
<event>
 4    0  0.2185218E-002  0.1841515E+03  0.7546771E-02  0.1163845E+00
         21   -1    0    0  502  501  0.00000000000E+00  0.00000000000E+00  0.17543478025E+03  0.17543478025E+03  0.00000000000E+00 0.  1.
         21   -1    0    0  501  502 -0.00000000000E+00 -0.00000000000E+00 -0.19330138291E+03  0.19330138291E+03  0.00000000000E+00 0.  1.
         25    1    1    2    0    0  0.51121358565E+02 -0.11785724237E+03  0.33342682352E+02  0.18231965705E+03  0.12500000000E+03 0.  0.
         25    1    1    2    0    0 -0.51121358565E+02  0.11785724237E+03 -0.51209285006E+02  0.18641650611E+03  0.12500000000E+03 0.  0.
</event>
<event>
 4    0  0.2185218E-002  0.2093228E+03  0.7546771E-02  0.1142103E+00
         21   -1    0    0  502  501  0.00000000000E+00  0.00000000000E+00  0.25262687171E+03  0.25262687171E+03  0.00000000000E+00 0.  1.
         21   -1    0    0  501  502 -0.00000000000E+00 -0.00000000000E+00 -0.17344174999E+03  0.17344174999E+03  0.00000000000E+00 0.  1.
         25    1    1    2    0    0 -0.98769540545E+01 -0.15310038029E+03  0.10902065343E+03  0.22593756559E+03  0.12500000000E+03 0.  0.
         25    1    1    2    0    0  0.98769540545E+01  0.15310038029E+03 -0.29835531720E+02  0.20013105611E+03  0.12500000000E+03 0.  0.
</event>
<event>
 4    0  0.2185218E-002  0.1604359E+03  0.7546771E-02  0.1188206E+00
         21   -1    0    0  502  501  0.00000000000E+00  0.00000000000E+00  0.24158396778E+02  0.24158396778E+02  0.00000000000E+00 0.  1.
         21   -1    0    0  501  502 -0.00000000000E+00 -0.00000000000E+00 -0.10654545117E+04  0.10654545117E+04  0.00000000000E+00 0.  1.
         25    1    1    2    0    0 -0.42843763644E+02  0.84812034682E+02 -0.63255482507E+03  0.65175093098E+03  0.12500000000E+03 0.  0.
         25    1    1    2    0    0  0.42843763644E+02 -0.84812034682E+02 -0.40874128984E+03  0.43786197749E+03  0.12500000000E+03 0.  0.
</event>
<event>
 4    0  0.2185218E-002  0.2362817E+03  0.7546771E-02  0.1122295E+00
         21   -1    0    0  502  501  0.00000000000E+00  0.00000000000E+00  0.50231421967E+03  0.50231421967E+03  0.00000000000E+00 0.  1.
         21   -1    0    0  501  502 -0.00000000000E+00 -0.00000000000E+00 -0.11114369190E+03  0.11114369190E+03  0.00000000000E+00 0.  1.
         25    1    1    2    0    0  0.14878456378E+03  0.50423482293E+02  0.35733217637E+03  0.40986663471E+03  0.12500000000E+03 0.  0.
         25    1    1    2    0    0 -0.14878456378E+03 -0.50423482293E+02  0.33838351398E+02  0.20359127685E+03  0.12500000000E+03 0.  0.
</event>
<event>
 4    0  0.2185218E-002  0.1856374E+03  0.7546771E-02  0.1162456E+00
         21   -1    0    0  502  501  0.00000000000E+00  0.00000000000E+00  0.33953761122E+02  0.33953761122E+02  0.00000000000E+00 0. -1.
         21   -1    0    0  501  502 -0.00000000000E+00 -0.00000000000E+00 -0.10149462910E+04  0.10149462910E+04  0.00000000000E+00 0. -1.
         25    1    1    2    0    0  0.11608113900E+03  0.67418158200E+02 -0.57120829496E+03  0.59993662592E+03  0.12500000000E+03 0.  0.
         25    1    1    2    0    0 -0.11608113900E+03 -0.67418158200E+02 -0.40978423495E+03  0.44896342624E+03  0.12500000000E+03 0.  0.
</event>
<event>
 4    0  0.2185218E-002  0.3240682E+03  0.7546771E-02  0.1073792E+00
         21   -1    0    0  502  501  0.00000000000E+00  0.00000000000E+00  0.74608933780E+03  0.74608933780E+03  0.00000000000E+00 0.  1.
         21   -1    0    0  501  502 -0.00000000000E+00 -0.00000000000E+00 -0.14076086471E+03  0.14076086471E+03  0.00000000000E+00 0.  1.
         25    1    1    2    0    0 -0.27862875812E+03  0.72145969528E+02  0.41345625793E+03  0.51904730323E+03  0.12500000000E+03 0.  0.
         25    1    1    2    0    0  0.27862875812E+03 -0.72145969528E+02  0.19187221516E+03  0.36780289928E+03  0.12500000000E+03 0.  0.
</event>
<event>
 4    0  0.2185218E-002  0.5100657E+03  0.7546771E-02  0.1011185E+00
         21   -1    0    0  502  501  0.00000000000E+00  0.00000000000E+00  0.41224151798E+03  0.41224151798E+03  0.00000000000E+00 0.  1.
         21   -1    0    0  501  502 -0.00000000000E+00 -0.00000000000E+00 -0.63110328187E+03  0.63110328187E+03  0.00000000000E+00 0. -1.
         25    1    1    2    0    0  0.19493805627E+03 -0.41070721999E+03 -0.30843687045E+03  0.56341775743E+03  0.12500000000E+03 0.  0.
         25    1    1    2    0    0 -0.19493805627E+03  0.41070721999E+03  0.89575106560E+02  0.47992704242E+03  0.12500000000E+03 0.  0.
</event>
<event>
 4    0  0.2185218E-002  0.2373538E+03  0.7546771E-02  0.1121568E+00
         21   -1    0    0  502  501  0.00000000000E+00  0.00000000000E+00  0.96980539698E+03  0.96980539698E+03  0.00000000000E+00 0.  1.
         21   -1    0    0  501  502 -0.00000000000E+00 -0.00000000000E+00 -0.58090860077E+02  0.58090860077E+02  0.00000000000E+00 0.  1.
         25    1    1    2    0    0  0.13023890970E+02 -0.81723507456E+02  0.85432105380E+03  0.86737409251E+03  0.12500000000E+03 0.  0.
         25    1    1    2    0    0 -0.13023890970E+02  0.81723507456E+02  0.57393483111E+02  0.16052216455E+03  0.12500000000E+03 0.  0.
</event>
<event>
 4    0  0.2185218E-002  0.3888739E+03  0.7546771E-02  0.1047702E+00
         21   -1    0    0  502  501  0.00000000000E+00  0.00000000000E+00  0.65766586217E+03  0.65766586217E+03  0.00000000000E+00 0.  1.
         21   -1    0    0  501  502 -0.00000000000E+00 -0.00000000000E+00 -0.22993884753E+03  0.22993884753E+03  0.00000000000E+00 0.  1.
         25    1    1    2    0    0  0.10479412516E+03  0.19200338025E+02  0.61613990497E+03  0.63765495697E+03  0.12500000000E+03 0.  0.
         25    1    1    2    0    0 -0.10479412516E+03 -0.19200338025E+02 -0.18841289033E+03  0.24994975273E+03  0.12500000000E+03 0.  0.
</event>
<event>
 4    0  0.2185218E-002  0.1829252E+03  0.7546771E-02  0.1165002E+00
         21   -1    0    0  502  501  0.00000000000E+00  0.00000000000E+00  0.33256969657E+02  0.33256969657E+02  0.00000000000E+00 0.  1.
         21   -1    0    0  501  502 -0.00000000000E+00 -0.00000000000E+00 -0.10061541937E+04  0.10061541937E+04  0.00000000000E+00 0.  1.
         25    1    1    2    0    0  0.12531372258E+03 -0.41210873593E+02 -0.54568870278E+03  0.57515478396E+03  0.12500000000E+03 0.  0.
         25    1    1    2    0    0 -0.12531372258E+03  0.41210873593E+02 -0.42720852121E+03  0.46425637935E+03  0.12500000000E+03 0.  0.
</event>
<event>
 4    0  0.2185218E-002  0.3144286E+03  0.7546771E-02  0.1078242E+00
         21   -1    0    0  502  501  0.00000000000E+00  0.00000000000E+00  0.22204474538E+03  0.22204474538E+03  0.00000000000E+00 0.  1.
         21   -1    0    0  501  502 -0.00000000000E+00 -0.00000000000E+00 -0.44524959766E+03  0.44524959766E+03  0.00000000000E+00 0.  1.
         25    1    1    2    0    0 -0.28420306828E+03 -0.21914247023E+02 -0.15892318896E+03  0.34947560463E+03  0.12500000000E+03 0.  0.
         25    1    1    2    0    0  0.28420306828E+03  0.21914247023E+02 -0.64281663324E+02  0.31781873841E+03  0.12500000000E+03 0.  0.
</event>
<event>
 4    0  0.2185218E-002  0.2510416E+03  0.7546771E-02  0.1112648E+00
         21   -1    0    0  502  501  0.00000000000E+00  0.00000000000E+00  0.85610964064E+03  0.85610964064E+03  0.00000000000E+00 0.  1.
         21   -1    0    0  501  502 -0.00000000000E+00 -0.00000000000E+00 -0.73614241380E+02  0.73614241380E+02  0.00000000000E+00 0.  1.
         25    1    1    2    0    0  0.21133263941E+02 -0.19140685840E+03  0.20319273093E+03  0.30658683303E+03  0.12500000000E+03 0.  0.
         25    1    1    2    0    0 -0.21133263941E+02  0.19140685840E+03  0.57930266833E+03  0.62313704899E+03  0.12500000000E+03 0.  0.
</event>
<event>
 4    0  0.2185218E-002  0.2237241E+03  0.7546771E-02  0.1131137E+00
         21   -1    0    0  502  501  0.00000000000E+00  0.00000000000E+00  0.31411348463E+03  0.31411348463E+03  0.00000000000E+00 0. -1.
         21   -1    0    0  501  502 -0.00000000000E+00 -0.00000000000E+00 -0.15934514785E+03  0.15934514785E+03  0.00000000000E+00 0. -1.
         25    1    1    2    0    0  0.18317261443E+02 -0.91347561004E+02  0.24717231858E+03  0.29223116542E+03  0.12500000000E+03 0.  0.
         25    1    1    2    0    0 -0.18317261443E+02  0.91347561004E+02 -0.92403981793E+02  0.18122746707E+03  0.12500000000E+03 0.  0.
</event>
<event>
 4    0  0.2185218E-002  0.2884369E+03  0.7546771E-02  0.1091168E+00
         21   -1    0    0  502  501  0.00000000000E+00  0.00000000000E+00  0.17946645977E+03  0.17946645977E+03  0.00000000000E+00 0.  1.
         21   -1    0    0  501  502 -0.00000000000E+00 -0.00000000000E+00 -0.46357323416E+03  0.46357323416E+03  0.00000000000E+00 0.  1.
         25    1    1    2    0    0  0.10453663126E+03 -0.23303903211E+03 -0.19592625402E+03  0.34532187127E+03  0.12500000000E+03 0.  0.
         25    1    1    2    0    0 -0.10453663126E+03  0.23303903211E+03 -0.88180520369E+02  0.29771782266E+03  0.12500000000E+03 0.  0.
</event>
<event>
 4    0  0.2185218E-002  0.2306479E+03  0.7546771E-02  0.1126185E+00
         21   -1    0    0  502  501  0.00000000000E+00  0.00000000000E+00  0.92169143974E+03  0.92169143974E+03  0.00000000000E+00 0.  1.
         21   -1    0    0  501  502 -0.00000000000E+00 -0.00000000000E+00 -0.57718284809E+02  0.57718284809E+02  0.00000000000E+00 0.  1.
         25    1    1    2    0    0 -0.11078369609E+03 -0.56067874862E+01  0.76949050807E+03  0.78742942883E+03  0.12500000000E+03 0.  0.
         25    1    1    2    0    0  0.11078369609E+03  0.56067874862E+01  0.94482646863E+02  0.19198029572E+03  0.12500000000E+03 0.  0.
</event>
<event>
 4    0  0.2185218E-002  0.2006652E+03  0.7546771E-02  0.1149179E+00
         21   -1    0    0  502  501  0.00000000000E+00  0.00000000000E+00  0.11540870817E+04  0.11540870817E+04  0.00000000000E+00 0. -1.
         21   -1    0    0  501  502 -0.00000000000E+00 -0.00000000000E+00 -0.34890351305E+02  0.34890351305E+02  0.00000000000E+00 0. -1.
         25    1    1    2    0    0 -0.66798808812E+01  0.18777910515E+02  0.98306030780E+02  0.16026948062E+03  0.12500000000E+03 0.  0.
         25    1    1    2    0    0  0.66798808812E+01 -0.18777910515E+02  0.10208906996E+04  0.10287079523E+04  0.12500000000E+03 0.  0.
</event>
<event>
 4    0  0.2185218E-002  0.3264943E+03  0.7546771E-02  0.1072699E+00
         21   -1    0    0  502  501  0.00000000000E+00  0.00000000000E+00  0.51534610289E+02  0.51534610289E+02  0.00000000000E+00 0.  1.
         21   -1    0    0  501  502 -0.00000000000E+00 -0.00000000000E+00 -0.20684836270E+04  0.20684836270E+04  0.00000000000E+00 0.  1.
         25    1    1    2    0    0 -0.11249462512E+03  0.24859348508E+03 -0.14257622356E+04  0.14570095106E+04  0.12500000000E+03 0.  0.
         25    1    1    2    0    0  0.11249462512E+03 -0.24859348508E+03 -0.59118678107E+03  0.66300872665E+03  0.12500000000E+03 0.  0.
</event>
<event>
 4    0  0.2185218E-002  0.1281338E+03  0.7546771E-02  0.1230251E+00
         21   -1    0    0  502  501  0.00000000000E+00  0.00000000000E+00  0.13794593718E+03  0.13794593718E+03  0.00000000000E+00 0. -1.
         21   -1    0    0  501  502 -0.00000000000E+00 -0.00000000000E+00 -0.11901957742E+03  0.11901957742E+03  0.00000000000E+00 0. -1.
         25    1    1    2    0    0 -0.22427694916E+02 -0.15455189085E+02  0.22740803150E+01  0.12795325635E+03  0.12500000000E+03 0.  0.
         25    1    1    2    0    0  0.22427694916E+02  0.15455189085E+02  0.16652279436E+02  0.12901225825E+03  0.12500000000E+03 0.  0.
</event>
<event>
 4    0  0.2185218E-002  0.2129947E+03  0.7546771E-02  0.1139216E+00
         21   -1    0    0  502  501  0.00000000000E+00  0.00000000000E+00  0.10536721170E+03  0.10536721170E+03  0.00000000000E+00 0. -1.
         21   -1    0    0  501  502 -0.00000000000E+00 -0.00000000000E+00 -0.43055863742E+03  0.43055863742E+03  0.00000000000E+00 0. -1.
         25    1    1    2    0    0  0.29547365213E+02 -0.92421446801E+02  0.16771217365E+02  0.15912587581E+03  0.12500000000E+03 0.  0.
         25    1    1    2    0    0 -0.29547365213E+02  0.92421446801E+02 -0.34196264309E+03  0.37679997331E+03  0.12500000000E+03 0.  0.
</event>
<event>
 4    0  0.2185218E-002  0.1821033E+03  0.7546771E-02  0.1165783E+00
         21   -1    0    0  502  501  0.00000000000E+00  0.00000000000E+00  0.41241304846E+03  0.41241304846E+03  0.00000000000E+00 0. -1.
         21   -1    0    0  501  502 -0.00000000000E+00 -0.00000000000E+00 -0.80408769170E+02  0.80408769170E+02  0.00000000000E+00 0. -1.
         25    1    1    2    0    0  0.21014915850E+02  0.71097652331E+02  0.31447855778E+03  0.34643652544E+03  0.12500000000E+03 0.  0.
         25    1    1    2    0    0 -0.21014915850E+02 -0.71097652331E+02  0.17525721509E+02  0.14638529219E+03  0.12500000000E+03 0.  0.
</event>
<event>
 4    0  0.2185218E-002  0.1675974E+03  0.7546771E-02  0.1180377E+00
         21   -1    0    0  502  501  0.00000000000E+00  0.00000000000E+00  0.26738080139E+03  0.26738080139E+03  0.00000000000E+00 0.  1.
         21   -1    0    0  501  502 -0.00000000000E+00 -0.00000000000E+00 -0.10505195201E+03  0.10505195201E+03  0.00000000000E+00 0.  1.
         25    1    1    2    0    0 -0.99726802421E+02 -0.46388239582E+02  0.10243748066E+03  0.19548846855E+03  0.12500000000E+03 0.  0.
         25    1    1    2    0    0  0.99726802421E+02  0.46388239582E+02  0.59891368719E+02  0.17694428485E+03  0.12500000000E+03 0.  0.
</event>
<event>
 4    0  0.2185218E-002  0.2241873E+03  0.7546771E-02  0.1130799E+00
         21   -1    0    0  502  501  0.00000000000E+00  0.00000000000E+00  0.31948794081E+03  0.31948794081E+03  0.00000000000E+00 0.  1.
         21   -1    0    0  501  502 -0.00000000000E+00 -0.00000000000E+00 -0.15731411715E+03  0.15731411715E+03  0.00000000000E+00 0.  1.
         25    1    1    2    0    0 -0.11584442918E+02 -0.16288095424E+03  0.17602520645E+03  0.27069221983E+03  0.12500000000E+03 0.  0.
         25    1    1    2    0    0  0.11584442918E+02  0.16288095424E+03 -0.13851382783E+02  0.20610983813E+03  0.12500000000E+03 0.  0.
</event>
<event>
 4    0  0.2185218E-002  0.3256677E+03  0.7546771E-02  0.1073070E+00
         21   -1    0    0  502  501  0.00000000000E+00  0.00000000000E+00  0.65582705675E+03  0.65582705675E+03  0.00000000000E+00 0. -1.
         21   -1    0    0  501  502 -0.00000000000E+00 -0.00000000000E+00 -0.16171863239E+03  0.16171863239E+03  0.00000000000E+00 0. -1.
         25    1    1    2    0    0  0.27716936811E+03 -0.10830217582E+03  0.19259839978E+03  0.37586082997E+03  0.12500000000E+03 0.  0.
         25    1    1    2    0    0 -0.27716936811E+03  0.10830217582E+03  0.30151002458E+03  0.44168485918E+03  0.12500000000E+03 0.  0.
</event>
<event>
 4    0  0.2185218E-002  0.2463862E+03  0.7546771E-02  0.1115610E+00
         21   -1    0    0  502  501  0.00000000000E+00  0.00000000000E+00  0.52628648698E+03  0.52628648698E+03  0.00000000000E+00 0. -1.
         21   -1    0    0  501  502 -0.00000000000E+00 -0.00000000000E+00 -0.11534812930E+03  0.11534812930E+03  0.00000000000E+00 0. -1.
         25    1    1    2    0    0 -0.94659123597E+02  0.59136310693E+02  0.44065333953E+03  0.47144227489E+03  0.12500000000E+03 0.  0.
         25    1    1    2    0    0  0.94659123597E+02 -0.59136310693E+02 -0.29714981843E+02  0.17019234139E+03  0.12500000000E+03 0.  0.
</event>
<event>
 4    0  0.2185218E-002  0.2104765E+03  0.7546771E-02  0.1141189E+00
         21   -1    0    0  502  501  0.00000000000E+00  0.00000000000E+00  0.15047912028E+04  0.15047912028E+04  0.00000000000E+00 0.  1.
         21   -1    0    0  501  502 -0.00000000000E+00 -0.00000000000E+00 -0.29439546458E+02  0.29439546458E+02  0.00000000000E+00 0.  1.
         25    1    1    2    0    0  0.11062541304E+03 -0.11465904654E+03  0.94675010170E+03  0.96816601574E+03  0.12500000000E+03 0.  0.
         25    1    1    2    0    0 -0.11062541304E+03  0.11465904654E+03  0.52860155467E+03  0.56606473355E+03  0.12500000000E+03 0.  0.
</event>
<event>
 4    0  0.2185218E-002  0.1871353E+03  0.7546771E-02  0.1161071E+00
         21   -1    0    0  502  501  0.00000000000E+00  0.00000000000E+00  0.97266382194E+03  0.97266382194E+03  0.00000000000E+00 0.  1.
         21   -1    0    0  501  502 -0.00000000000E+00 -0.00000000000E+00 -0.36003830337E+02  0.36003830337E+02  0.00000000000E+00 0.  1.
         25    1    1    2    0    0 -0.38591458046E+01 -0.66941351977E+02  0.79728377752E+03  0.80980396362E+03  0.12500000000E+03 0.  0.
         25    1    1    2    0    0  0.38591458046E+01  0.66941351977E+02  0.13937621408E+03  0.19886368865E+03  0.12500000000E+03 0.  0.
</event>
<event>
 4    0  0.2185218E-002  0.2303085E+03  0.7546771E-02  0.1126423E+00
         21   -1    0    0  502  501  0.00000000000E+00  0.00000000000E+00  0.31927883848E+03  0.31927883848E+03  0.00000000000E+00 0. -1.
         21   -1    0    0  501  502 -0.00000000000E+00 -0.00000000000E+00 -0.16613061395E+03  0.16613061395E+03  0.00000000000E+00 0. -1.
         25    1    1    2    0    0 -0.14040053759E+03  0.40838145289E+02  0.21002727537E+03  0.28480962319E+03  0.12500000000E+03 0.  0.
         25    1    1    2    0    0  0.14040053759E+03 -0.40838145289E+02 -0.56879050843E+02  0.20059982924E+03  0.12500000000E+03 0.  0.
</event>
<event>
 4    0  0.2185218E-002  0.1796713E+03  0.7546771E-02  0.1168122E+00
         21   -1    0    0  502  501  0.00000000000E+00  0.00000000000E+00  0.43150080199E+03  0.43150080199E+03  0.00000000000E+00 0. -1.
         21   -1    0    0  501  502 -0.00000000000E+00 -0.00000000000E+00 -0.74812795634E+02  0.74812795634E+02  0.00000000000E+00 0. -1.
         25    1    1    2    0    0  0.98851536868E+02 -0.60831095686E+02  0.25785868917E+03  0.30917333669E+03  0.12500000000E+03 0.  0.
         25    1    1    2    0    0 -0.98851536868E+02  0.60831095686E+02  0.98829317191E+02  0.19714026093E+03  0.12500000000E+03 0.  0.
</event>
<event>
 4    0  0.2185218E-002  0.2372342E+03  0.7546771E-02  0.1121649E+00
         21   -1    0    0  502  501  0.00000000000E+00  0.00000000000E+00  0.10771447455E+03  0.10771447455E+03  0.00000000000E+00 0. -1.
         21   -1    0    0  501  502 -0.00000000000E+00 -0.00000000000E+00 -0.52249287687E+03  0.52249287687E+03  0.00000000000E+00 0. -1.
         25    1    1    2    0    0 -0.15764672794E+03  0.78950548698E+02 -0.33732171020E+03  0.40062028923E+03  0.12500000000E+03 0.  0.
         25    1    1    2    0    0  0.15764672794E+03 -0.78950548698E+02 -0.77456692125E+02  0.22958706219E+03  0.12500000000E+03 0.  0.
</event>
<event>
 4    0  0.2185218E-002  0.4314250E+03  0.7546771E-02  0.1033411E+00
         21   -1    0    0  502  501  0.00000000000E+00  0.00000000000E+00  0.38878862640E+03  0.38878862640E+03  0.00000000000E+00 0. -1.
         21   -1    0    0  501  502 -0.00000000000E+00 -0.00000000000E+00 -0.47873715510E+03  0.47873715510E+03  0.00000000000E+00 0.  1.
         25    1    1    2    0    0  0.15882896894E+03 -0.38090274425E+03 -0.58797183474E+02  0.43519610607E+03  0.12500000000E+03 0.  0.
         25    1    1    2    0    0 -0.15882896894E+03  0.38090274425E+03 -0.31151345224E+02  0.43232967543E+03  0.12500000000E+03 0.  0.
</event>
<event>
 4    0  0.2185218E-002  0.1732849E+03  0.7546771E-02  0.1174465E+00
         21   -1    0    0  502  501  0.00000000000E+00  0.00000000000E+00  0.26336857916E+03  0.26336857916E+03  0.00000000000E+00 0.  1.
         21   -1    0    0  501  502 -0.00000000000E+00 -0.00000000000E+00 -0.11401376271E+03  0.11401376271E+03  0.00000000000E+00 0.  1.
         25    1    1    2    0    0  0.73235667291E+02 -0.69150272553E+02  0.14572742487E+03  0.21681029846E+03  0.12500000000E+03 0.  0.
         25    1    1    2    0    0 -0.73235667291E+02  0.69150272553E+02  0.36273915747E+01  0.16057204342E+03  0.12500000000E+03 0.  0.
</event>
<event>
 4    0  0.2185218E-002  0.2361222E+03  0.7546771E-02  0.1122403E+00
         21   -1    0    0  502  501  0.00000000000E+00  0.00000000000E+00  0.10388456162E+04  0.10388456162E+04  0.00000000000E+00 0.  1.
         21   -1    0    0  501  502 -0.00000000000E+00 -0.00000000000E+00 -0.53668905554E+02  0.53668905554E+02  0.00000000000E+00 0.  1.
         25    1    1    2    0    0  0.18307283124E+03 -0.42881136462E+02  0.33273818577E+03  0.40211211580E+03  0.12500000000E+03 0.  0.
         25    1    1    2    0    0 -0.18307283124E+03  0.42881136462E+02  0.65243852485E+03  0.69040240593E+03  0.12500000000E+03 0.  0.
</event>
<event>
 4    0  0.2185218E-002  0.1935909E+03  0.7546771E-02  0.1155262E+00
         21   -1    0    0  502  501  0.00000000000E+00  0.00000000000E+00  0.56546642291E+02  0.56546642291E+02  0.00000000000E+00 0.  1.
         21   -1    0    0  501  502 -0.00000000000E+00 -0.00000000000E+00 -0.66277046292E+03  0.66277046292E+03  0.00000000000E+00 0.  1.
         25    1    1    2    0    0  0.12826812627E+03 -0.45603893444E+02 -0.41015917157E+03  0.44987550871E+03  0.12500000000E+03 0.  0.
         25    1    1    2    0    0 -0.12826812627E+03  0.45603893444E+02 -0.19606464906E+03  0.26944159650E+03  0.12500000000E+03 0.  0.
</event>
<event>
 4    0  0.2185218E-002  0.3531451E+03  0.7546771E-02  0.1061332E+00
         21   -1    0    0  502  501  0.00000000000E+00  0.00000000000E+00  0.67099347743E+02  0.67099347743E+02  0.00000000000E+00 0.  1.
         21   -1    0    0  501  502 -0.00000000000E+00 -0.00000000000E+00 -0.18586092311E+04  0.18586092311E+04  0.00000000000E+00 0.  1.
         25    1    1    2    0    0  0.23162797252E+03 -0.23524805680E+03 -0.86941886529E+03  0.93835352038E+03  0.12500000000E+03 0.  0.
         25    1    1    2    0    0 -0.23162797252E+03  0.23524805680E+03 -0.92209101811E+03  0.98735505850E+03  0.12500000000E+03 0.  0.
</event>
<event>
 4    0  0.2185218E-002  0.2887940E+03  0.7546771E-02  0.1090980E+00
         21   -1    0    0  502  501  0.00000000000E+00  0.00000000000E+00  0.28892874455E+03  0.28892874455E+03  0.00000000000E+00 0.  1.
         21   -1    0    0  501  502 -0.00000000000E+00 -0.00000000000E+00 -0.28865933542E+03  0.28865933542E+03  0.00000000000E+00 0.  1.
         25    1    1    2    0    0 -0.72519751057E+01 -0.21692941616E+03 -0.14362210795E+03  0.28872698632E+03  0.12500000000E+03 0.  0.
         25    1    1    2    0    0  0.72519751057E+01  0.21692941616E+03  0.14389151708E+03  0.28886109365E+03  0.12500000000E+03 0.  0.
</event>
<event>
 4    0  0.2185218E-002  0.3373973E+03  0.7546771E-02  0.1067910E+00
         21   -1    0    0  502  501  0.00000000000E+00  0.00000000000E+00  0.99752540062E+03  0.99752540062E+03  0.00000000000E+00 0. -1.
         21   -1    0    0  501  502 -0.00000000000E+00 -0.00000000000E+00 -0.11411931376E+03  0.11411931376E+03  0.00000000000E+00 0. -1.
         25    1    1    2    0    0  0.12217646137E+03 -0.27229583623E+03  0.28420944844E+03  0.43066474284E+03  0.12500000000E+03 0.  0.
         25    1    1    2    0    0 -0.12217646137E+03  0.27229583623E+03  0.59919663842E+03  0.68097997154E+03  0.12500000000E+03 0.  0.
</event>
<event>
 4    0  0.2185218E-002  0.1937584E+03  0.7546771E-02  0.1155115E+00
         21   -1    0    0  502  501  0.00000000000E+00  0.00000000000E+00  0.27217294381E+03  0.27217294381E+03  0.00000000000E+00 0. -1.
         21   -1    0    0  501  502 -0.00000000000E+00 -0.00000000000E+00 -0.13793554837E+03  0.13793554837E+03  0.00000000000E+00 0. -1.
         25    1    1    2    0    0  0.14228100165E+03  0.39341058425E+02  0.78984954371E+02  0.20893832900E+03  0.12500000000E+03 0.  0.
         25    1    1    2    0    0 -0.14228100165E+03 -0.39341058425E+02  0.55252441072E+02  0.20117016318E+03  0.12500000000E+03 0.  0.
</event>
<event>
 4    0  0.2185218E-002  0.1906783E+03  0.7546771E-02  0.1157851E+00
         21   -1    0    0  502  501  0.00000000000E+00  0.00000000000E+00  0.54630690973E+02  0.54630690973E+02  0.00000000000E+00 0. -1.
         21   -1    0    0  501  502 -0.00000000000E+00 -0.00000000000E+00 -0.66552718139E+03  0.66552718139E+03  0.00000000000E+00 0. -1.
         25    1    1    2    0    0 -0.53999691799E+02 -0.11199483014E+03 -0.44259421426E+03  0.47641730362E+03  0.12500000000E+03 0.  0.
         25    1    1    2    0    0  0.53999691799E+02  0.11199483014E+03 -0.16830227616E+03  0.24374056875E+03  0.12500000000E+03 0.  0.
</event>
<event>
 4    0  0.2185218E-002  0.2227374E+03  0.7546771E-02  0.1131858E+00
         21   -1    0    0  502  501  0.00000000000E+00  0.00000000000E+00  0.22665717599E+03  0.22665717599E+03  0.00000000000E+00 0.  1.
         21   -1    0    0  501  502 -0.00000000000E+00 -0.00000000000E+00 -0.21888546950E+03  0.21888546950E+03  0.00000000000E+00 0.  1.
         25    1    1    2    0    0 -0.76205868359E+02  0.16784999204E+03  0.63373855323E+01  0.22281408541E+03  0.12500000000E+03 0.  0.
         25    1    1    2    0    0  0.76205868359E+02 -0.16784999204E+03  0.14343209559E+01  0.22272856009E+03  0.12500000000E+03 0.  0.
</event>
<event>
 4    0  0.2185218E-002  0.1863557E+03  0.7546771E-02  0.1161790E+00
         21   -1    0    0  502  501  0.00000000000E+00  0.00000000000E+00  0.26434067889E+02  0.26434067889E+02  0.00000000000E+00 0. -1.
         21   -1    0    0  501  502 -0.00000000000E+00 -0.00000000000E+00 -0.13137766180E+04  0.13137766180E+04  0.00000000000E+00 0. -1.
         25    1    1    2    0    0  0.39677388111E+02  0.61616039510E+02 -0.22228813264E+03  0.26534476698E+03  0.12500000000E+03 0.  0.
         25    1    1    2    0    0 -0.39677388111E+02 -0.61616039510E+02 -0.10650544175E+04  0.10748659190E+04  0.12500000000E+03 0.  0.
</event>
<event>
 4    0  0.2185218E-002  0.2684014E+03  0.7546771E-02  0.1102198E+00
         21   -1    0    0  502  501  0.00000000000E+00  0.00000000000E+00  0.10874158558E+04  0.10874158558E+04  0.00000000000E+00 0.  1.
         21   -1    0    0  501  502 -0.00000000000E+00 -0.00000000000E+00 -0.66248186388E+02  0.66248186388E+02  0.00000000000E+00 0. -1.
         25    1    1    2    0    0  0.13721155067E+03  0.19371412068E+03  0.49363993294E+03  0.56183409792E+03  0.12500000000E+03 0.  0.
         25    1    1    2    0    0 -0.13721155067E+03 -0.19371412068E+03  0.52752773646E+03  0.59182994426E+03  0.12500000000E+03 0.  0.
</event>
<event>
 4    0  0.2185218E-002  0.2228344E+03  0.7546771E-02  0.1131787E+00
         21   -1    0    0  502  501  0.00000000000E+00  0.00000000000E+00  0.11071131020E+04  0.11071131020E+04  0.00000000000E+00 0.  1.
         21   -1    0    0  501  502 -0.00000000000E+00 -0.00000000000E+00 -0.44851016204E+02  0.44851016204E+02  0.00000000000E+00 0.  1.
         25    1    1    2    0    0  0.10889595601E+03 -0.81840780176E+02  0.20959713252E+03  0.27948559980E+03  0.12500000000E+03 0.  0.
         25    1    1    2    0    0 -0.10889595601E+03  0.81840780176E+02  0.85266495330E+03  0.87247851843E+03  0.12500000000E+03 0.  0.
</event>
<event>
 4    0  0.2185218E-002  0.2444833E+03  0.7546771E-02  0.1116842E+00
         21   -1    0    0  502  501  0.00000000000E+00  0.00000000000E+00  0.51600098080E+03  0.51600098080E+03  0.00000000000E+00 0. -1.
         21   -1    0    0  501  502 -0.00000000000E+00 -0.00000000000E+00 -0.11583717800E+03  0.11583717800E+03  0.00000000000E+00 0. -1.
         25    1    1    2    0    0  0.18094222673E+03  0.67554714436E+02  0.93185872013E+02  0.24821832245E+03  0.12500000000E+03 0.  0.
         25    1    1    2    0    0 -0.18094222673E+03 -0.67554714436E+02  0.30697793078E+03  0.38361983635E+03  0.12500000000E+03 0.  0.
</event>
<event>
 4    0  0.2185218E-002  0.1888132E+03  0.7546771E-02  0.1159536E+00
         21   -1    0    0  502  501  0.00000000000E+00  0.00000000000E+00  0.19657393128E+03  0.19657393128E+03  0.00000000000E+00 0. -1.
         21   -1    0    0  501  502 -0.00000000000E+00 -0.00000000000E+00 -0.18135884875E+03  0.18135884875E+03  0.00000000000E+00 0. -1.
         25    1    1    2    0    0 -0.41915491209E+02 -0.79910830157E+02 -0.10148903573E+03  0.18457430361E+03  0.12500000000E+03 0.  0.
         25    1    1    2    0    0  0.41915491209E+02  0.79910830157E+02  0.11670411827E+03  0.19335847641E+03  0.12500000000E+03 0.  0.
</event>
<event>
 4    0  0.2185218E-002  0.2282629E+03  0.7546771E-02  0.1127868E+00
         21   -1    0    0  502  501  0.00000000000E+00  0.00000000000E+00  0.56623538679E+03  0.56623538679E+03  0.00000000000E+00 0. -1.
         21   -1    0    0  501  502 -0.00000000000E+00 -0.00000000000E+00 -0.92018189020E+02  0.92018189020E+02  0.00000000000E+00 0. -1.
         25    1    1    2    0    0  0.15421665740E+00  0.18909185720E+03  0.19833311036E+03  0.30119225905E+03  0.12500000000E+03 0.  0.
         25    1    1    2    0    0 -0.15421665740E+00 -0.18909185720E+03  0.27588408741E+03  0.35706131677E+03  0.12500000000E+03 0.  0.
</event>
<event>
 4    0  0.2185218E-002  0.2468114E+03  0.7546771E-02  0.1115337E+00
         21   -1    0    0  502  501  0.00000000000E+00  0.00000000000E+00  0.26124646891E+03  0.26124646891E+03  0.00000000000E+00 0.  1.
         21   -1    0    0  501  502 -0.00000000000E+00 -0.00000000000E+00 -0.23317402227E+03  0.23317402227E+03  0.00000000000E+00 0.  1.
         25    1    1    2    0    0  0.90397973005E+02  0.16952016677E+03 -0.77665024119E+02  0.24200358765E+03  0.12500000000E+03 0.  0.
         25    1    1    2    0    0 -0.90397973005E+02 -0.16952016677E+03  0.10573747075E+03  0.25241690353E+03  0.12500000000E+03 0.  0.
</event>
<event>
 4    0  0.2185218E-002  0.1783282E+03  0.7546771E-02  0.1169431E+00
         21   -1    0    0  502  501  0.00000000000E+00  0.00000000000E+00  0.43065921011E+02  0.43065921011E+02  0.00000000000E+00 0. -1.
         21   -1    0    0  501  502 -0.00000000000E+00 -0.00000000000E+00 -0.73842484723E+03  0.73842484723E+03  0.00000000000E+00 0. -1.
         25    1    1    2    0    0 -0.31184473894E+02  0.11099244082E+03 -0.23000479848E+03  0.28604020811E+03  0.12500000000E+03 0.  0.
         25    1    1    2    0    0  0.31184473894E+02 -0.11099244082E+03 -0.46535412774E+03  0.49545056013E+03  0.12500000000E+03 0.  0.
</event>
<event>
 4    0  0.2185218E-002  0.1791525E+03  0.7546771E-02  0.1168626E+00
         21   -1    0    0  502  501  0.00000000000E+00  0.00000000000E+00  0.26031037649E+03  0.26031037649E+03  0.00000000000E+00 0. -1.
         21   -1    0    0  501  502 -0.00000000000E+00 -0.00000000000E+00 -0.12329754123E+03  0.12329754123E+03  0.00000000000E+00 0. -1.
         25    1    1    2    0    0 -0.24927871105E+02  0.33839112468E+02  0.19833027482E+03  0.23817300897E+03  0.12500000000E+03 0.  0.
         25    1    1    2    0    0  0.24927871105E+02 -0.33839112468E+02 -0.61317439562E+02  0.14543490876E+03  0.12500000000E+03 0.  0.
</event>
<event>
 4    0  0.2185218E-002  0.2445345E+03  0.7546771E-02  0.1116808E+00
         21   -1    0    0  502  501  0.00000000000E+00  0.00000000000E+00  0.15763543231E+03  0.15763543231E+03  0.00000000000E+00 0.  1.
         21   -1    0    0  501  502 -0.00000000000E+00 -0.00000000000E+00 -0.37933794498E+03  0.37933794498E+03  0.00000000000E+00 0.  1.
         25    1    1    2    0    0 -0.44111774895E+02  0.55732643475E+02 -0.32801274458E+03  0.35814708828E+03  0.12500000000E+03 0.  0.
         25    1    1    2    0    0  0.44111774895E+02 -0.55732643475E+02  0.10631023191E+03  0.17882628901E+03  0.12500000000E+03 0.  0.
</event>
<event>
 4    0  0.2185218E-002  0.2696314E+03  0.7546771E-02  0.1101491E+00
         21   -1    0    0  502  501  0.00000000000E+00  0.00000000000E+00  0.19387895780E+03  0.19387895780E+03  0.00000000000E+00 0. -1.
         21   -1    0    0  501  502 -0.00000000000E+00 -0.00000000000E+00 -0.37498189703E+03  0.37498189703E+03  0.00000000000E+00 0. -1.
         25    1    1    2    0    0 -0.19928374302E+03  0.11740556720E+03 -0.27451802971E+02  0.26434197345E+03  0.12500000000E+03 0.  0.
         25    1    1    2    0    0  0.19928374302E+03 -0.11740556720E+03 -0.15365113626E+03  0.30451888138E+03  0.12500000000E+03 0.  0.
</event>
<event>
 4    0  0.2185218E-002  0.1411410E+03  0.7546771E-02  0.1211802E+00
         21   -1    0    0  502  501  0.00000000000E+00  0.00000000000E+00  0.99669857812E+01  0.99669857812E+01  0.00000000000E+00 0. -1.
         21   -1    0    0  501  502 -0.00000000000E+00 -0.00000000000E+00 -0.19986778116E+04  0.19986778116E+04  0.00000000000E+00 0. -1.
         25    1    1    2    0    0 -0.46275766647E+02  0.25022899447E+02 -0.71618552887E+03  0.72891309759E+03  0.12500000000E+03 0.  0.
         25    1    1    2    0    0  0.46275766647E+02 -0.25022899447E+02 -0.12725252970E+04  0.12797316998E+04  0.12500000000E+03 0.  0.
</event>
<event>
 4    0  0.2185218E-002  0.2677931E+03  0.7546771E-02  0.1102549E+00
         21   -1    0    0  502  501  0.00000000000E+00  0.00000000000E+00  0.44444359870E+03  0.44444359870E+03  0.00000000000E+00 0.  1.
         21   -1    0    0  501  502 -0.00000000000E+00 -0.00000000000E+00 -0.16135486453E+03  0.16135486453E+03  0.00000000000E+00 0.  1.
         25    1    1    2    0    0  0.47354901634E+02 -0.23130574589E+03  0.16250174272E+03  0.31269258254E+03  0.12500000000E+03 0.  0.
         25    1    1    2    0    0 -0.47354901634E+02  0.23130574589E+03  0.12058699145E+03  0.29310588069E+03  0.12500000000E+03 0.  0.
</event>
<event>
 4    0  0.2185218E-002  0.1937660E+03  0.7546771E-02  0.1155108E+00
         21   -1    0    0  502  501  0.00000000000E+00  0.00000000000E+00  0.38179032699E+03  0.38179032699E+03  0.00000000000E+00 0. -1.
         21   -1    0    0  501  502 -0.00000000000E+00 -0.00000000000E+00 -0.98340055871E+02  0.98340055871E+02  0.00000000000E+00 0. -1.
         25    1    1    2    0    0  0.22981221206E+02 -0.14139949215E+03  0.18805448671E+03  0.26741623526E+03  0.12500000000E+03 0.  0.
         25    1    1    2    0    0 -0.22981221206E+02  0.14139949215E+03  0.95395784409E+02  0.21271414760E+03  0.12500000000E+03 0.  0.
</event>
<event>
 4    0  0.2185218E-002  0.1759171E+03  0.7546771E-02  0.1171814E+00
         21   -1    0    0  502  501  0.00000000000E+00  0.00000000000E+00  0.33931705358E+02  0.33931705358E+02  0.00000000000E+00 0. -1.
         21   -1    0    0  501  502 -0.00000000000E+00 -0.00000000000E+00 -0.91203238969E+03  0.91203238969E+03  0.00000000000E+00 0. -1.
         25    1    1    2    0    0 -0.27737304583E+01  0.91581193487E+02 -0.66282425518E+03  0.68070243267E+03  0.12500000000E+03 0.  0.
         25    1    1    2    0    0  0.27737304583E+01 -0.91581193487E+02 -0.21527642915E+03  0.26526166238E+03  0.12500000000E+03 0.  0.
</event>
<event>
 4    0  0.2185218E-002  0.2122637E+03  0.7546771E-02  0.1139786E+00
         21   -1    0    0  502  501  0.00000000000E+00  0.00000000000E+00  0.25134216773E+02  0.25134216773E+02  0.00000000000E+00 0.  1.
         21   -1    0    0  501  502 -0.00000000000E+00 -0.00000000000E+00 -0.17926119983E+04  0.17926119983E+04  0.00000000000E+00 0.  1.
         25    1    1    2    0    0  0.24891973363E+02 -0.99391980825E+02 -0.14728967358E+04  0.14817382261E+04  0.12500000000E+03 0.  0.
         25    1    1    2    0    0 -0.24891973363E+02  0.99391980825E+02 -0.29458104573E+03  0.33600798904E+03  0.12500000000E+03 0.  0.
</event>
<event>
 4    0  0.2185218E-002  0.1948301E+03  0.7546771E-02  0.1154176E+00
         21   -1    0    0  502  501  0.00000000000E+00  0.00000000000E+00  0.32708398479E+02  0.32708398479E+02  0.00000000000E+00 0.  1.
         21   -1    0    0  501  502 -0.00000000000E+00 -0.00000000000E+00 -0.11605204958E+04  0.11605204958E+04  0.00000000000E+00 0.  1.
         25    1    1    2    0    0 -0.13784606544E+03  0.22311830358E+02 -0.40087543894E+03  0.44252172046E+03  0.12500000000E+03 0.  0.
         25    1    1    2    0    0  0.13784606544E+03 -0.22311830358E+02 -0.72693665837E+03  0.75070717381E+03  0.12500000000E+03 0.  0.
</event>
<event>
 4    0  0.2185218E-002  0.2147825E+03  0.7546771E-02  0.1137834E+00
         21   -1    0    0  502  501  0.00000000000E+00  0.00000000000E+00  0.28129966799E+03  0.28129966799E+03  0.00000000000E+00 0.  1.
         21   -1    0    0  501  502 -0.00000000000E+00 -0.00000000000E+00 -0.16399418394E+03  0.16399418394E+03  0.00000000000E+00 0.  1.
         25    1    1    2    0    0  0.17989638156E+02  0.90370002649E+02  0.21246413639E+03  0.26316605730E+03  0.12500000000E+03 0.  0.
         25    1    1    2    0    0 -0.17989638156E+02 -0.90370002649E+02 -0.95158652342E+02  0.18212779463E+03  0.12500000000E+03 0.  0.
</event>
<event>
 4    0  0.2185218E-002  0.2404465E+03  0.7546771E-02  0.1119496E+00
         21   -1    0    0  502  501  0.00000000000E+00  0.00000000000E+00  0.78901878371E+03  0.78901878371E+03  0.00000000000E+00 0.  1.
         21   -1    0    0  501  502 -0.00000000000E+00 -0.00000000000E+00 -0.73273968628E+02  0.73273968628E+02  0.00000000000E+00 0.  1.
         25    1    1    2    0    0  0.16940212886E+03 -0.10970325244E+03  0.42633183292E+03  0.48797102027E+03  0.12500000000E+03 0.  0.
         25    1    1    2    0    0 -0.16940212886E+03  0.10970325244E+03  0.28941298216E+03  0.37432173207E+03  0.12500000000E+03 0.  0.
</event>
<event>
 4    0  0.2185218E-002  0.2549178E+03  0.7546771E-02  0.1110236E+00
         21   -1    0    0  502  501  0.00000000000E+00  0.00000000000E+00  0.25507708920E+03  0.25507708920E+03  0.00000000000E+00 0. -1.
         21   -1    0    0  501  502 -0.00000000000E+00 -0.00000000000E+00 -0.25475864340E+03  0.25475864340E+03  0.00000000000E+00 0. -1.
         25    1    1    2    0    0 -0.13042262081E+03  0.76664882203E+02 -0.16253847023E+03  0.25481624455E+03  0.12500000000E+03 0.  0.
         25    1    1    2    0    0  0.13042262081E+03 -0.76664882203E+02  0.16285691603E+03  0.25501948805E+03  0.12500000000E+03 0.  0.
</event>
<event>
 4    0  0.2185218E-002  0.1966505E+03  0.7546771E-02  0.1152596E+00
         21   -1    0    0  502  501  0.00000000000E+00  0.00000000000E+00  0.40451594388E+02  0.40451594388E+02  0.00000000000E+00 0.  1.
         21   -1    0    0  501  502 -0.00000000000E+00 -0.00000000000E+00 -0.95599290940E+03  0.95599290940E+03  0.00000000000E+00 0.  1.
         25    1    1    2    0    0  0.10025350609E+03 -0.18309308793E+02 -0.17270008886E+03  0.23629709470E+03  0.12500000000E+03 0.  0.
         25    1    1    2    0    0 -0.10025350609E+03  0.18309308793E+02 -0.74284122615E+03  0.76014740908E+03  0.12500000000E+03 0.  0.
</event>
<event>
 4    0  0.2185218E-002  0.2894917E+03  0.7546771E-02  0.1090615E+00
         21   -1    0    0  502  501  0.00000000000E+00  0.00000000000E+00  0.17387453799E+03  0.17387453799E+03  0.00000000000E+00 0.  1.
         21   -1    0    0  501  502 -0.00000000000E+00 -0.00000000000E+00 -0.48198807817E+03  0.48198807817E+03  0.00000000000E+00 0.  1.
         25    1    1    2    0    0 -0.15668492787E+03 -0.20648194181E+03 -0.18979774449E+03  0.34472183384E+03  0.12500000000E+03 0.  0.
         25    1    1    2    0    0  0.15668492787E+03  0.20648194181E+03 -0.11831579569E+03  0.31114078232E+03  0.12500000000E+03 0.  0.
</event>
<event>
 4    0  0.2185218E-002  0.4677654E+03  0.7546771E-02  0.1022553E+00
         21   -1    0    0  502  501  0.00000000000E+00  0.00000000000E+00  0.10254110121E+04  0.10254110121E+04  0.00000000000E+00 0.  1.
         21   -1    0    0  501  502 -0.00000000000E+00 -0.00000000000E+00 -0.21338217024E+03  0.21338217024E+03  0.00000000000E+00 0.  1.
         25    1    1    2    0    0 -0.83640182917E+02  0.20213544370E+03 -0.11585452249E+03  0.27731153632E+03  0.12500000000E+03 0.  0.
         25    1    1    2    0    0  0.83640182917E+02 -0.20213544370E+03  0.92788336438E+03  0.96148164605E+03  0.12500000000E+03 0.  0.
</event>
<event>
 4    0  0.2185218E-002  0.2172779E+03  0.7546771E-02  0.1135929E+00
         21   -1    0    0  502  501  0.00000000000E+00  0.00000000000E+00  0.17708104408E+03  0.17708104408E+03  0.00000000000E+00 0. -1.
         21   -1    0    0  501  502 -0.00000000000E+00 -0.00000000000E+00 -0.26659929365E+03  0.26659929365E+03  0.00000000000E+00 0. -1.
         25    1    1    2    0    0 -0.12985534820E+02  0.11452405726E+03 -0.18287822089E+03  0.24970748383E+03  0.12500000000E+03 0.  0.
         25    1    1    2    0    0  0.12985534820E+02 -0.11452405726E+03  0.93359971314E+02  0.19397285390E+03  0.12500000000E+03 0.  0.
</event>
<event>
 4    0  0.2185218E-002  0.3180948E+03  0.7546771E-02  0.1076530E+00
         21   -1    0    0  502  501  0.00000000000E+00  0.00000000000E+00  0.14646738571E+03  0.14646738571E+03  0.00000000000E+00 0.  1.
         21   -1    0    0  501  502 -0.00000000000E+00 -0.00000000000E+00 -0.69083148681E+03  0.69083148681E+03  0.00000000000E+00 0.  1.
         25    1    1    2    0    0 -0.28943717742E+03  0.23313385655E+02 -0.22580157081E+03  0.38849548646E+03  0.12500000000E+03 0.  0.
         25    1    1    2    0    0  0.28943717742E+03 -0.23313385655E+02 -0.31856253030E+03  0.44880338605E+03  0.12500000000E+03 0.  0.
</event>
<event>
 4    0  0.2185218E-002  0.1743753E+03  0.7546771E-02  0.1173360E+00
         21   -1    0    0  502  501  0.00000000000E+00  0.00000000000E+00  0.37612173766E+02  0.37612173766E+02  0.00000000000E+00 0. -1.
         21   -1    0    0  501  502 -0.00000000000E+00 -0.00000000000E+00 -0.80842851230E+03  0.80842851230E+03  0.00000000000E+00 0. -1.
         25    1    1    2    0    0 -0.57617088392E+02  0.75908979324E+02 -0.20225771429E+03  0.25615441633E+03  0.12500000000E+03 0.  0.
         25    1    1    2    0    0  0.57617088392E+02 -0.75908979324E+02 -0.56855862425E+03  0.58988626974E+03  0.12500000000E+03 0.  0.
</event>
<event>
 4    0  0.2185218E-002  0.2098768E+03  0.7546771E-02  0.1141664E+00
         21   -1    0    0  502  501  0.00000000000E+00  0.00000000000E+00  0.27295446953E+03  0.27295446953E+03  0.00000000000E+00 0. -1.
         21   -1    0    0  501  502 -0.00000000000E+00 -0.00000000000E+00 -0.16137584948E+03  0.16137584948E+03  0.00000000000E+00 0. -1.
         25    1    1    2    0    0  0.11286156230E+03  0.11082845003E+03  0.11614664608E+03  0.23267084256E+03  0.12500000000E+03 0.  0.
         25    1    1    2    0    0 -0.11286156230E+03 -0.11082845003E+03 -0.45680260307E+01  0.20165947645E+03  0.12500000000E+03 0.  0.
</event>
<event>
 4    0  0.2185218E-002  0.3113490E+03  0.7546771E-02  0.1079701E+00
         21   -1    0    0  502  501  0.00000000000E+00  0.00000000000E+00  0.27188416040E+03  0.27188416040E+03  0.00000000000E+00 0. -1.
         21   -1    0    0  501  502 -0.00000000000E+00 -0.00000000000E+00 -0.35654222679E+03  0.35654222679E+03  0.00000000000E+00 0. -1.
         25    1    1    2    0    0 -0.17873087841E+03 -0.19068310007E+03 -0.15743269124E+03  0.32971931066E+03  0.12500000000E+03 0.  0.
         25    1    1    2    0    0  0.17873087841E+03  0.19068310007E+03  0.72774624846E+02  0.29870707654E+03  0.12500000000E+03 0.  0.
</event>
<event>
 4    0  0.2185218E-002  0.2934519E+03  0.7546771E-02  0.1088561E+00
         21   -1    0    0  502  501  0.00000000000E+00  0.00000000000E+00  0.18769318333E+04  0.18769318333E+04  0.00000000000E+00 0.  1.
         21   -1    0    0  501  502 -0.00000000000E+00 -0.00000000000E+00 -0.45880215799E+02  0.45880215799E+02  0.00000000000E+00 0.  1.
         25    1    1    2    0    0  0.95471180529E+02 -0.19162917354E+03  0.40112600175E+03  0.47155440380E+03  0.12500000000E+03 0.  0.
         25    1    1    2    0    0 -0.95471180529E+02  0.19162917354E+03  0.14299256158E+04  0.14512576453E+04  0.12500000000E+03 0.  0.
</event>
<event>
 4    0  0.2185218E-002  0.2066182E+03  0.7546771E-02  0.1144272E+00
         21   -1    0    0  502  501  0.00000000000E+00  0.00000000000E+00  0.14833417079E+03  0.14833417079E+03  0.00000000000E+00 0.  1.
         21   -1    0    0  501  502 -0.00000000000E+00 -0.00000000000E+00 -0.28780351867E+03  0.28780351867E+03  0.00000000000E+00 0.  1.
         25    1    1    2    0    0  0.10757647187E+03 -0.12158506990E+03 -0.41602857738E+02  0.20907277272E+03  0.12500000000E+03 0.  0.
         25    1    1    2    0    0 -0.10757647187E+03  0.12158506990E+03 -0.97866490136E+02  0.22706491674E+03  0.12500000000E+03 0.  0.
</event>
<event>
 4    0  0.2185218E-002  0.2017025E+03  0.7546771E-02  0.1148311E+00
         21   -1    0    0  502  501  0.00000000000E+00  0.00000000000E+00  0.22847602043E+02  0.22847602043E+02  0.00000000000E+00 0. -1.
         21   -1    0    0  501  502 -0.00000000000E+00 -0.00000000000E+00 -0.17806630736E+04  0.17806630736E+04  0.00000000000E+00 0. -1.
         25    1    1    2    0    0 -0.48534003284E+02  0.92117424868E+02 -0.34582773889E+03  0.38218188658E+03  0.12500000000E+03 0.  0.
         25    1    1    2    0    0  0.48534003284E+02 -0.92117424868E+02 -0.14119877327E+04  0.14213287891E+04  0.12500000000E+03 0.  0.
</event>
<event>
 4    0  0.2185218E-002  0.2262883E+03  0.7546771E-02  0.1129280E+00
         21   -1    0    0  502  501  0.00000000000E+00  0.00000000000E+00  0.56857608156E+03  0.56857608156E+03  0.00000000000E+00 0.  1.
         21   -1    0    0  501  502 -0.00000000000E+00 -0.00000000000E+00 -0.90060735583E+02  0.90060735583E+02  0.00000000000E+00 0. -1.
         25    1    1    2    0    0 -0.42300634015E+02 -0.17312782957E+03  0.14932511994E+03  0.26398026528E+03  0.12500000000E+03 0.  0.
         25    1    1    2    0    0  0.42300634015E+02  0.17312782957E+03  0.32919022604E+03  0.39465655187E+03  0.12500000000E+03 0.  0.
</event>
<event>
 4    0  0.2185218E-002  0.3078788E+03  0.7546771E-02  0.1081367E+00
         21   -1    0    0  502  501  0.00000000000E+00  0.00000000000E+00  0.60647142851E+03  0.60647142851E+03  0.00000000000E+00 0. -1.
         21   -1    0    0  501  502 -0.00000000000E+00 -0.00000000000E+00 -0.15629651386E+03  0.15629651386E+03  0.00000000000E+00 0. -1.
         25    1    1    2    0    0  0.17054240538E+03  0.69530984662E+02 -0.38405125832E+02  0.22587435346E+03  0.12500000000E+03 0.  0.
         25    1    1    2    0    0 -0.17054240538E+03 -0.69530984662E+02  0.48858004048E+03  0.53689358892E+03  0.12500000000E+03 0.  0.
</event>
<event>
 4    0  0.2185218E-002  0.1937980E+03  0.7546771E-02  0.1155080E+00
         21   -1    0    0  502  501  0.00000000000E+00  0.00000000000E+00  0.13709944676E+03  0.13709944676E+03  0.00000000000E+00 0. -1.
         21   -1    0    0  501  502 -0.00000000000E+00 -0.00000000000E+00 -0.27394473382E+03  0.27394473382E+03  0.00000000000E+00 0. -1.
         25    1    1    2    0    0 -0.93771542167E+02  0.44216327854E+00  0.53138986073E+02  0.16505165697E+03  0.12500000000E+03 0.  0.
         25    1    1    2    0    0  0.93771542167E+02 -0.44216327854E+00 -0.18998427314E+03  0.24599252360E+03  0.12500000000E+03 0.  0.
</event>
<event>
 4    0  0.2185218E-002  0.2835304E+03  0.7546771E-02  0.1093776E+00
         21   -1    0    0  502  501  0.00000000000E+00  0.00000000000E+00  0.46344406746E+03  0.46344406746E+03  0.00000000000E+00 0.  1.
         21   -1    0    0  501  502 -0.00000000000E+00 -0.00000000000E+00 -0.17346097953E+03  0.17346097953E+03  0.00000000000E+00 0.  1.
         25    1    1    2    0    0  0.13353817660E+03  0.18059148245E+03  0.10592109636E+02  0.25726041462E+03  0.12500000000E+03 0.  0.
         25    1    1    2    0    0 -0.13353817660E+03 -0.18059148245E+03  0.27939097829E+03  0.37964463238E+03  0.12500000000E+03 0.  0.
</event>
<event>
 4    0  0.2185218E-002  0.3666134E+03  0.7546771E-02  0.1055996E+00
         21   -1    0    0  502  501  0.00000000000E+00  0.00000000000E+00  0.15511832050E+04  0.15511832050E+04  0.00000000000E+00 0. -1.
         21   -1    0    0  501  502 -0.00000000000E+00 -0.00000000000E+00 -0.86646995294E+02  0.86646995294E+02  0.00000000000E+00 0. -1.
         25    1    1    2    0    0  0.11698350243E+03  0.28513037408E+03  0.10768413792E+04  0.11270300910E+04  0.12500000000E+03 0.  0.
         25    1    1    2    0    0 -0.11698350243E+03 -0.28513037408E+03  0.38769483056E+03  0.51080010934E+03  0.12500000000E+03 0.  0.
</event>
<event>
 4    0  0.2185218E-002  0.1841128E+03  0.7546771E-02  0.1163881E+00
         21   -1    0    0  502  501  0.00000000000E+00  0.00000000000E+00  0.71744399701E+03  0.71744399701E+03  0.00000000000E+00 0.  1.
         21   -1    0    0  501  502 -0.00000000000E+00 -0.00000000000E+00 -0.47247628483E+02  0.47247628483E+02  0.00000000000E+00 0.  1.
         25    1    1    2    0    0  0.39027100141E+02 -0.47350042222E+02  0.84967531203E+02  0.16312456100E+03  0.12500000000E+03 0.  0.
         25    1    1    2    0    0 -0.39027100141E+02  0.47350042222E+02  0.58522883732E+03  0.60156706449E+03  0.12500000000E+03 0.  0.
</event>
<event>
 4    0  0.2185218E-002  0.2357956E+03  0.7546771E-02  0.1122626E+00
         21   -1    0    0  502  501  0.00000000000E+00  0.00000000000E+00  0.34906047920E+03  0.34906047920E+03  0.00000000000E+00 0. -1.
         21   -1    0    0  501  502 -0.00000000000E+00 -0.00000000000E+00 -0.15928350387E+03  0.15928350387E+03  0.00000000000E+00 0. -1.
         25    1    1    2    0    0 -0.13743856591E+03 -0.12859640370E+03  0.22192430491E+02  0.22703281352E+03  0.12500000000E+03 0.  0.
         25    1    1    2    0    0  0.13743856591E+03  0.12859640370E+03  0.16758454485E+03  0.28131116955E+03  0.12500000000E+03 0.  0.
</event>
<event>
 4    0  0.2185218E-002  0.2534411E+03  0.7546771E-02  0.1111149E+00
         21   -1    0    0  502  501  0.00000000000E+00  0.00000000000E+00  0.20692166715E+03  0.20692166715E+03  0.00000000000E+00 0. -1.
         21   -1    0    0  501  502 -0.00000000000E+00 -0.00000000000E+00 -0.31041888346E+03  0.31041888346E+03  0.00000000000E+00 0. -1.
         25    1    1    2    0    0  0.35397588965E+01 -0.12001565729E+03  0.13697491824E+03  0.22091495222E+03  0.12500000000E+03 0.  0.
         25    1    1    2    0    0 -0.35397588965E+01  0.12001565729E+03 -0.24047213455E+03  0.29642559839E+03  0.12500000000E+03 0.  0.
</event>
<event>
 4    0  0.2185218E-002  0.1901994E+03  0.7546771E-02  0.1158282E+00
         21   -1    0    0  502  501  0.00000000000E+00  0.00000000000E+00  0.20829687189E+03  0.20829687189E+03  0.00000000000E+00 0.  1.
         21   -1    0    0  501  502 -0.00000000000E+00 -0.00000000000E+00 -0.17367421483E+03  0.17367421483E+03  0.00000000000E+00 0.  1.
         25    1    1    2    0    0  0.68313137842E+02 -0.30305824008E+02 -0.10552858455E+03  0.17985107708E+03  0.12500000000E+03 0.  0.
         25    1    1    2    0    0 -0.68313137842E+02  0.30305824008E+02  0.14015124160E+03  0.20212000963E+03  0.12500000000E+03 0.  0.
</event>
<event>
 4    0  0.2185218E-002  0.1402704E+03  0.7546771E-02  0.1212966E+00
         21   -1    0    0  502  501  0.00000000000E+00  0.00000000000E+00  0.19926955475E+02  0.19926955475E+02  0.00000000000E+00 0.  1.
         21   -1    0    0  501  502 -0.00000000000E+00 -0.00000000000E+00 -0.98739560558E+03  0.98739560558E+03  0.00000000000E+00 0.  1.
         25    1    1    2    0    0  0.55127509337E+02 -0.26609396888E+02 -0.54630702097E+03  0.56375833781E+03  0.12500000000E+03 0.  0.
         25    1    1    2    0    0 -0.55127509337E+02  0.26609396888E+02 -0.42116162914E+03  0.44356422325E+03  0.12500000000E+03 0.  0.
</event>
<event>
 4    0  0.2185218E-002  0.3085323E+03  0.7546771E-02  0.1081052E+00
         21   -1    0    0  502  501  0.00000000000E+00  0.00000000000E+00  0.40007763117E+03  0.40007763117E+03  0.00000000000E+00 0. -1.
         21   -1    0    0  501  502 -0.00000000000E+00 -0.00000000000E+00 -0.23793427427E+03  0.23793427427E+03  0.00000000000E+00 0. -1.
         25    1    1    2    0    0  0.28852967334E+02 -0.17076703559E+03 -0.14913721276E+03  0.26050102188E+03  0.12500000000E+03 0.  0.
         25    1    1    2    0    0 -0.28852967334E+02  0.17076703559E+03  0.31128056965E+03  0.37751088357E+03  0.12500000000E+03 0.  0.
</event>
<event>
 4    0  0.2185218E-002  0.2351554E+03  0.7546771E-02  0.1123063E+00
         21   -1    0    0  502  501  0.00000000000E+00  0.00000000000E+00  0.38196402095E+03  0.38196402095E+03  0.00000000000E+00 0. -1.
         21   -1    0    0  501  502 -0.00000000000E+00 -0.00000000000E+00 -0.14477295343E+03  0.14477295343E+03  0.00000000000E+00 0. -1.
         25    1    1    2    0    0 -0.74651067683E+02 -0.17930904538E+03  0.69157186313E+02  0.24110626719E+03  0.12500000000E+03 0.  0.
         25    1    1    2    0    0  0.74651067683E+02  0.17930904538E+03  0.16803388121E+03  0.28563070720E+03  0.12500000000E+03 0.  0.
</event>
<event>
 4    0  0.2185218E-002  0.2293870E+03  0.7546771E-02  0.1127072E+00
         21   -1    0    0  502  501  0.00000000000E+00  0.00000000000E+00  0.58342399520E+03  0.58342399520E+03  0.00000000000E+00 0.  1.
         21   -1    0    0  501  502 -0.00000000000E+00 -0.00000000000E+00 -0.90188984955E+02  0.90188984955E+02  0.00000000000E+00 0.  1.
         25    1    1    2    0    0  0.41811295862E+02  0.18311552407E+03  0.30740428695E+03  0.38131597822E+03  0.12500000000E+03 0.  0.
         25    1    1    2    0    0 -0.41811295862E+02 -0.18311552407E+03  0.18583072330E+03  0.29229700193E+03  0.12500000000E+03 0.  0.
</event>
<event>
 4    0  0.2185218E-002  0.2977702E+03  0.7546771E-02  0.1086361E+00
         21   -1    0    0  502  501  0.00000000000E+00  0.00000000000E+00  0.16312282845E+04  0.16312282845E+04  0.00000000000E+00 0. -1.
         21   -1    0    0  501  502 -0.00000000000E+00 -0.00000000000E+00 -0.54356011490E+02  0.54356011490E+02  0.00000000000E+00 0. -1.
         25    1    1    2    0    0 -0.34101427743E+02 -0.24921981359E+03  0.10681773034E+04  0.11044913646E+04  0.12500000000E+03 0.  0.
         25    1    1    2    0    0  0.34101427743E+02  0.24921981359E+03  0.50869496956E+03  0.58109293139E+03  0.12500000000E+03 0.  0.
</event>
<event>
 4    0  0.2185218E-002  0.1761459E+03  0.7546771E-02  0.1171586E+00
         21   -1    0    0  502  501  0.00000000000E+00  0.00000000000E+00  0.10535642282E+03  0.10535642282E+03  0.00000000000E+00 0. -1.
         21   -1    0    0  501  502 -0.00000000000E+00 -0.00000000000E+00 -0.29449909812E+03  0.29449909812E+03  0.00000000000E+00 0. -1.
         25    1    1    2    0    0 -0.36133444285E+02  0.11784181640E+03 -0.78121408514E+02  0.19214649088E+03  0.12500000000E+03 0.  0.
         25    1    1    2    0    0  0.36133444285E+02 -0.11784181640E+03 -0.11102126679E+03  0.20770903006E+03  0.12500000000E+03 0.  0.
</event>
<event>
 4    0  0.2185218E-002  0.2829814E+03  0.7546771E-02  0.1094072E+00
         21   -1    0    0  502  501  0.00000000000E+00  0.00000000000E+00  0.13413283960E+03  0.13413283960E+03  0.00000000000E+00 0.  1.
         21   -1    0    0  501  502 -0.00000000000E+00 -0.00000000000E+00 -0.59700867409E+03  0.59700867409E+03  0.00000000000E+00 0.  1.
         25    1    1    2    0    0 -0.17889759820E+03  0.10231881704E+03 -0.42296367631E+03  0.48682313261E+03  0.12500000000E+03 0.  0.
         25    1    1    2    0    0  0.17889759820E+03 -0.10231881704E+03 -0.39912158177E+02  0.24431838108E+03  0.12500000000E+03 0.  0.
</event>
<event>
 4    0  0.2185218E-002  0.2421238E+03  0.7546771E-02  0.1118386E+00
         21   -1    0    0  502  501  0.00000000000E+00  0.00000000000E+00  0.91507767324E+03  0.91507767324E+03  0.00000000000E+00 0. -1.
         21   -1    0    0  501  502 -0.00000000000E+00 -0.00000000000E+00 -0.64064460490E+02  0.64064460490E+02  0.00000000000E+00 0. -1.
         25    1    1    2    0    0  0.18306218650E+03 -0.97024554589E+02  0.40818004650E+03  0.47451183198E+03  0.12500000000E+03 0.  0.
         25    1    1    2    0    0 -0.18306218650E+03  0.97024554589E+02  0.44283316624E+03  0.50463030175E+03  0.12500000000E+03 0.  0.
</event>
<event>
 4    0  0.2185218E-002  0.1795895E+03  0.7546771E-02  0.1168201E+00
         21   -1    0    0  502  501  0.00000000000E+00  0.00000000000E+00  0.16092664618E+03  0.16092664618E+03  0.00000000000E+00 0. -1.
         21   -1    0    0  501  502 -0.00000000000E+00 -0.00000000000E+00 -0.20041664494E+03  0.20041664494E+03  0.00000000000E+00 0. -1.
         25    1    1    2    0    0 -0.81905896045E+02  0.96729489533E+02  0.41088158762E+01  0.17806474193E+03  0.12500000000E+03 0.  0.
         25    1    1    2    0    0  0.81905896045E+02 -0.96729489533E+02 -0.43598814636E+02  0.18327854918E+03  0.12500000000E+03 0.  0.
</event>
<event>
 4    0  0.2185218E-002  0.1517038E+03  0.7546771E-02  0.1198395E+00
         21   -1    0    0  502  501  0.00000000000E+00  0.00000000000E+00  0.95046501781E+02  0.95046501781E+02  0.00000000000E+00 0. -1.
         21   -1    0    0  501  502 -0.00000000000E+00 -0.00000000000E+00 -0.24213454592E+03  0.24213454592E+03  0.00000000000E+00 0. -1.
         25    1    1    2    0    0  0.64258179565E+02 -0.56162063908E+02 -0.62115820250E+02  0.16360521443E+03  0.12500000000E+03 0.  0.
         25    1    1    2    0    0 -0.64258179565E+02  0.56162063908E+02 -0.84972223893E+02  0.17357583327E+03  0.12500000000E+03 0.  0.
</event>
<event>
 4    0  0.2185218E-002  0.1992317E+03  0.7546771E-02  0.1150389E+00
         21   -1    0    0  502  501  0.00000000000E+00  0.00000000000E+00  0.96536283261E+03  0.96536283261E+03  0.00000000000E+00 0.  1.
         21   -1    0    0  501  502 -0.00000000000E+00 -0.00000000000E+00 -0.41117482199E+02  0.41117482199E+02  0.00000000000E+00 0.  1.
         25    1    1    2    0    0  0.91296990822E+01 -0.40746218445E+02  0.83952919626E+03  0.84981049482E+03  0.12500000000E+03 0.  0.
         25    1    1    2    0    0 -0.91296990822E+01  0.40746218445E+02  0.84716154147E+02  0.15666981999E+03  0.12500000000E+03 0.  0.
</event>
<event>
 4    0  0.2185218E-002  0.1912239E+03  0.7546771E-02  0.1157362E+00
         21   -1    0    0  502  501  0.00000000000E+00  0.00000000000E+00  0.46941175507E+03  0.46941175507E+03  0.00000000000E+00 0. -1.
         21   -1    0    0  501  502 -0.00000000000E+00 -0.00000000000E+00 -0.77898708108E+02  0.77898708108E+02  0.00000000000E+00 0. -1.
         25    1    1    2    0    0 -0.50141752506E+02  0.12951823745E+03  0.13758381896E+03  0.23204197124E+03  0.12500000000E+03 0.  0.
         25    1    1    2    0    0  0.50141752506E+02 -0.12951823745E+03  0.25392922801E+03  0.31526849194E+03  0.12500000000E+03 0.  0.
</event>
<event>
 4    0  0.2185218E-002  0.2712157E+03  0.7546771E-02  0.1100586E+00
         21   -1    0    0  502  501  0.00000000000E+00  0.00000000000E+00  0.39025244237E+02  0.39025244237E+02  0.00000000000E+00 0.  1.
         21   -1    0    0  501  502 -0.00000000000E+00 -0.00000000000E+00 -0.18848819307E+04  0.18848819307E+04  0.00000000000E+00 0.  1.
         25    1    1    2    0    0  0.91344915524E+02  0.18116709614E+03 -0.46365180714E+03  0.52130932140E+03  0.12500000000E+03 0.  0.
         25    1    1    2    0    0 -0.91344915524E+02 -0.18116709614E+03 -0.13822048793E+04  0.14025978535E+04  0.12500000000E+03 0.  0.
</event>
<event>
 4    0  0.2185218E-002  0.3134337E+03  0.7546771E-02  0.1078712E+00
         21   -1    0    0  502  501  0.00000000000E+00  0.00000000000E+00  0.86857607885E+03  0.86857607885E+03  0.00000000000E+00 0. -1.
         21   -1    0    0  501  502 -0.00000000000E+00 -0.00000000000E+00 -0.11310541973E+03  0.11310541973E+03  0.00000000000E+00 0. -1.
         25    1    1    2    0    0  0.12247307437E+03 -0.22738477566E+03  0.18019321418E+03  0.33881866032E+03  0.12500000000E+03 0.  0.
         25    1    1    2    0    0 -0.12247307437E+03  0.22738477566E+03  0.57527744495E+03  0.64286283826E+03  0.12500000000E+03 0.  0.
</event>
<event>
 4    0  0.2185218E-002  0.2247768E+03  0.7546771E-02  0.1130371E+00
         21   -1    0    0  502  501  0.00000000000E+00  0.00000000000E+00  0.18303753787E+04  0.18303753787E+04  0.00000000000E+00 0.  1.
         21   -1    0    0  501  502 -0.00000000000E+00 -0.00000000000E+00 -0.27603404143E+02  0.27603404143E+02  0.00000000000E+00 0.  1.
         25    1    1    2    0    0  0.12831893627E+03  0.12280079311E+03  0.11407332092E+04  0.11612248011E+04  0.12500000000E+03 0.  0.
         25    1    1    2    0    0 -0.12831893627E+03 -0.12280079311E+03  0.66203876536E+03  0.69675398171E+03  0.12500000000E+03 0.  0.
</event>
<event>
 4    0  0.2185218E-002  0.2157196E+03  0.7546771E-02  0.1137115E+00
         21   -1    0    0  502  501  0.00000000000E+00  0.00000000000E+00  0.11015061677E+04  0.11015061677E+04  0.00000000000E+00 0.  1.
         21   -1    0    0  501  502 -0.00000000000E+00 -0.00000000000E+00 -0.42246662577E+02  0.42246662577E+02  0.00000000000E+00 0.  1.
         25    1    1    2    0    0  0.11388778962E+03 -0.13388287393E+03  0.51939434084E+03  0.56239713180E+03  0.12500000000E+03 0.  0.
         25    1    1    2    0    0 -0.11388778962E+03  0.13388287393E+03  0.53986516432E+03  0.58135569852E+03  0.12500000000E+03 0.  0.
</event>
<event>
 4    0  0.2185218E-002  0.2116748E+03  0.7546771E-02  0.1140247E+00
         21   -1    0    0  502  501  0.00000000000E+00  0.00000000000E+00  0.28807823296E+03  0.28807823296E+03  0.00000000000E+00 0. -1.
         21   -1    0    0  501  502 -0.00000000000E+00 -0.00000000000E+00 -0.15553484575E+03  0.15553484575E+03  0.00000000000E+00 0. -1.
         25    1    1    2    0    0 -0.12870436306E+03  0.10955745655E+03  0.92227332753E+02  0.22956160451E+03  0.12500000000E+03 0.  0.
         25    1    1    2    0    0  0.12870436306E+03 -0.10955745655E+03  0.40316054456E+02  0.21405147419E+03  0.12500000000E+03 0.  0.
</event>
<event>
 4    0  0.2185218E-002  0.2463557E+03  0.7546771E-02  0.1115630E+00
         21   -1    0    0  502  501  0.00000000000E+00  0.00000000000E+00  0.80061028359E+03  0.80061028359E+03  0.00000000000E+00 0. -1.
         21   -1    0    0  501  502 -0.00000000000E+00 -0.00000000000E+00 -0.75806066979E+02  0.75806066979E+02  0.00000000000E+00 0. -1.
         25    1    1    2    0    0  0.21917588995E+02 -0.18578005118E+03  0.54091318778E+03  0.58583844603E+03  0.12500000000E+03 0.  0.
         25    1    1    2    0    0 -0.21917588995E+02  0.18578005118E+03  0.18389102883E+03  0.29057790455E+03  0.12500000000E+03 0.  0.
</event>
<event>
 4    0  0.2185218E-002  0.3268554E+03  0.7546771E-02  0.1072537E+00
         21   -1    0    0  502  501  0.00000000000E+00  0.00000000000E+00  0.22932737055E+04  0.22932737055E+04  0.00000000000E+00 0. -1.
         21   -1    0    0  501  502 -0.00000000000E+00 -0.00000000000E+00 -0.46586012316E+02  0.46586012316E+02  0.00000000000E+00 0. -1.
         25    1    1    2    0    0  0.25801242962E+03  0.12150846116E+03  0.14790302975E+04  0.15114530562E+04  0.12500000000E+03 0.  0.
         25    1    1    2    0    0 -0.25801242962E+03 -0.12150846116E+03  0.76765739567E+03  0.82840666167E+03  0.12500000000E+03 0.  0.
</event>
<event>
 4    0  0.2185218E-002  0.2232057E+03  0.7546771E-02  0.1131515E+00
         21   -1    0    0  502  501  0.00000000000E+00  0.00000000000E+00  0.44272939181E+03  0.44272939181E+03  0.00000000000E+00 0.  1.
         21   -1    0    0  501  502 -0.00000000000E+00 -0.00000000000E+00 -0.11253102227E+03  0.11253102227E+03  0.00000000000E+00 0.  1.
         25    1    1    2    0    0 -0.18157808533E+02 -0.11884500758E+03  0.33986497404E+03  0.38155870114E+03  0.12500000000E+03 0.  0.
         25    1    1    2    0    0  0.18157808533E+02  0.11884500758E+03 -0.96666044972E+01  0.17370171294E+03  0.12500000000E+03 0.  0.
</event>
<event>
 4    0  0.2185218E-002  0.1645300E+03  0.7546771E-02  0.1183675E+00
         21   -1    0    0  502  501  0.00000000000E+00  0.00000000000E+00  0.87610876754E+03  0.87610876754E+03  0.00000000000E+00 0. -1.
         21   -1    0    0  501  502 -0.00000000000E+00 -0.00000000000E+00 -0.30898131123E+02  0.30898131123E+02  0.00000000000E+00 0. -1.
         25    1    1    2    0    0 -0.52853511823E+02 -0.20488975286E+02  0.67268805781E+03  0.68654753291E+03  0.12500000000E+03 0.  0.
         25    1    1    2    0    0  0.52853511823E+02  0.20488975286E+02  0.17252257860E+03  0.22045936575E+03  0.12500000000E+03 0.  0.
</event>
<event>
 4    0  0.2185218E-002  0.3262771E+03  0.7546771E-02  0.1072796E+00
         21   -1    0    0  502  501  0.00000000000E+00  0.00000000000E+00  0.43139188969E+02  0.43139188969E+02  0.00000000000E+00 0. -1.
         21   -1    0    0  501  502 -0.00000000000E+00 -0.00000000000E+00 -0.24677510361E+04  0.24677510361E+04  0.00000000000E+00 0. -1.
         25    1    1    2    0    0  0.41143429681E+02  0.29379604202E+03 -0.14167419569E+04  0.14528563826E+04  0.12500000000E+03 0.  0.
         25    1    1    2    0    0 -0.41143429681E+02 -0.29379604202E+03 -0.10078698902E+04  0.10580338424E+04  0.12500000000E+03 0.  0.
</event>
<event>
 4    0  0.2185218E-002  0.2540455E+03  0.7546771E-02  0.1110775E+00
         21   -1    0    0  502  501  0.00000000000E+00  0.00000000000E+00  0.74468924803E+03  0.74468924803E+03  0.00000000000E+00 0.  1.
         21   -1    0    0  501  502 -0.00000000000E+00 -0.00000000000E+00 -0.86665832347E+02  0.86665832347E+02  0.00000000000E+00 0.  1.
         25    1    1    2    0    0  0.16360692314E+03 -0.14701635931E+03  0.29123356794E+03  0.38577587573E+03  0.12500000000E+03 0.  0.
         25    1    1    2    0    0 -0.16360692314E+03  0.14701635931E+03  0.36678984775E+03  0.44557920465E+03  0.12500000000E+03 0.  0.
</event>
<event>
 4    0  0.2185218E-002  0.1953891E+03  0.7546771E-02  0.1153689E+00
         21   -1    0    0  502  501  0.00000000000E+00  0.00000000000E+00  0.24661954645E+03  0.24661954645E+03  0.00000000000E+00 0. -1.
         21   -1    0    0  501  502 -0.00000000000E+00 -0.00000000000E+00 -0.15480073751E+03  0.15480073751E+03  0.00000000000E+00 0. -1.
         25    1    1    2    0    0  0.15438977546E+02  0.82040218917E+02 -0.82321761695E+02  0.17137920526E+03  0.12500000000E+03 0.  0.
         25    1    1    2    0    0 -0.15438977546E+02 -0.82040218917E+02  0.17414057063E+03  0.23004107870E+03  0.12500000000E+03 0.  0.
</event>
<event>
 4    0  0.2185218E-002  0.2060855E+03  0.7546771E-02  0.1144704E+00
         21   -1    0    0  502  501  0.00000000000E+00  0.00000000000E+00  0.20323044105E+03  0.20323044105E+03  0.00000000000E+00 0.  1.
         21   -1    0    0  501  502 -0.00000000000E+00 -0.00000000000E+00 -0.20898076623E+03  0.20898076623E+03  0.00000000000E+00 0.  1.
         25    1    1    2    0    0  0.30575865583E+02  0.15843740485E+03 -0.31320125870E+02  0.20650240942E+03  0.12500000000E+03 0.  0.
         25    1    1    2    0    0 -0.30575865583E+02 -0.15843740485E+03  0.25569800687E+02  0.20570879786E+03  0.12500000000E+03 0.  0.
</event>
<event>
 4    0  0.2185218E-002  0.1977486E+03  0.7546771E-02  0.1151653E+00
         21   -1    0    0  502  501  0.00000000000E+00  0.00000000000E+00  0.64269658298E+03  0.64269658298E+03  0.00000000000E+00 0.  1.
         21   -1    0    0  501  502 -0.00000000000E+00 -0.00000000000E+00 -0.60844455962E+02  0.60844455962E+02  0.00000000000E+00 0.  1.
         25    1    1    2    0    0  0.13475833096E+03  0.53983130095E+02  0.20367875562E+03  0.27961405828E+03  0.12500000000E+03 0.  0.
         25    1    1    2    0    0 -0.13475833096E+03 -0.53983130095E+02  0.37817337140E+03  0.42392698067E+03  0.12500000000E+03 0.  0.
</event>
<event>
 4    0  0.2185218E-002  0.1842977E+03  0.7546771E-02  0.1163707E+00
         21   -1    0    0  502  501  0.00000000000E+00  0.00000000000E+00  0.58882380276E+02  0.58882380276E+02  0.00000000000E+00 0.  1.
         21   -1    0    0  501  502 -0.00000000000E+00 -0.00000000000E+00 -0.57683869959E+03  0.57683869959E+03  0.00000000000E+00 0.  1.
         25    1    1    2    0    0  0.11198849358E+02  0.70584938915E+02 -0.45738000172E+03  0.47950924266E+03  0.12500000000E+03 0.  0.
         25    1    1    2    0    0 -0.11198849358E+02 -0.70584938915E+02 -0.60576317597E+02  0.15621183720E+03  0.12500000000E+03 0.  0.
</event>
<event>
 4    0  0.2185218E-002  0.2113461E+03  0.7546771E-02  0.1140504E+00
         21   -1    0    0  502  501  0.00000000000E+00  0.00000000000E+00  0.34586698993E+02  0.34586698993E+02  0.00000000000E+00 0. -1.
         21   -1    0    0  501  502 -0.00000000000E+00 -0.00000000000E+00 -0.12914553867E+04  0.12914553867E+04  0.00000000000E+00 0. -1.
         25    1    1    2    0    0 -0.12700823305E+03  0.44770424010E+02 -0.30080735753E+03  0.35248482020E+03  0.12500000000E+03 0.  0.
         25    1    1    2    0    0  0.12700823305E+03 -0.44770424010E+02 -0.95606133015E+03  0.97355726546E+03  0.12500000000E+03 0.  0.
</event>
<event>
 4    0  0.2185218E-002  0.1776375E+03  0.7546771E-02  0.1170109E+00
         21   -1    0    0  502  501  0.00000000000E+00  0.00000000000E+00  0.24707248507E+04  0.24707248507E+04  0.00000000000E+00 0.  1.
         21   -1    0    0  501  502 -0.00000000000E+00 -0.00000000000E+00 -0.12771587339E+02  0.12771587339E+02  0.00000000000E+00 0.  1.
         25    1    1    2    0    0 -0.67845054346E+02  0.12301153005E+02  0.19679663400E+04  0.19731372950E+04  0.12500000000E+03 0.  0.
         25    1    1    2    0    0  0.67845054346E+02 -0.12301153005E+02  0.48998692342E+03  0.51035914304E+03  0.12500000000E+03 0.  0.
</event>
<event>
 4    0  0.2185218E-002  0.1841572E+03  0.7546771E-02  0.1163839E+00
         21   -1    0    0  502  501  0.00000000000E+00  0.00000000000E+00  0.39114826441E+03  0.39114826441E+03  0.00000000000E+00 0.  1.
         21   -1    0    0  501  502 -0.00000000000E+00 -0.00000000000E+00 -0.86703371473E+02  0.86703371473E+02  0.00000000000E+00 0.  1.
         25    1    1    2    0    0  0.25062540251E+02 -0.97613150609E+02  0.26922198694E+03  0.31346760015E+03  0.12500000000E+03 0.  0.
         25    1    1    2    0    0 -0.25062540251E+02  0.97613150609E+02  0.35222906001E+02  0.16438403573E+03  0.12500000000E+03 0.  0.
</event>
<event>
 4    0  0.2185218E-002  0.2065368E+03  0.7546771E-02  0.1144338E+00
         21   -1    0    0  502  501  0.00000000000E+00  0.00000000000E+00  0.32476714314E+03  0.32476714314E+03  0.00000000000E+00 0.  1.
         21   -1    0    0  501  502 -0.00000000000E+00 -0.00000000000E+00 -0.13134777631E+03  0.13134777631E+03  0.00000000000E+00 0.  1.
         25    1    1    2    0    0  0.67293719926E+02  0.11292830093E+03  0.20574716812E+03  0.27429572196E+03  0.12500000000E+03 0.  0.
         25    1    1    2    0    0 -0.67293719926E+02 -0.11292830093E+03 -0.12327801296E+02  0.18181919749E+03  0.12500000000E+03 0.  0.
</event>
<event>
 4    0  0.2185218E-002  0.2001334E+03  0.7546771E-02  0.1149627E+00
         21   -1    0    0  502  501  0.00000000000E+00  0.00000000000E+00  0.34917404713E+03  0.34917404713E+03  0.00000000000E+00 0. -1.
         21   -1    0    0  501  502 -0.00000000000E+00 -0.00000000000E+00 -0.11470888240E+03  0.11470888240E+03  0.00000000000E+00 0. -1.
         25    1    1    2    0    0 -0.29548307423E+02 -0.11845049130E+03  0.23033855377E+03  0.28910979006E+03  0.12500000000E+03 0.  0.
         25    1    1    2    0    0  0.29548307423E+02  0.11845049130E+03  0.41266109594E+01  0.17477313946E+03  0.12500000000E+03 0.  0.
</event>
<event>
 4    0  0.2185218E-002  0.3201216E+03  0.7546771E-02  0.1075593E+00
         21   -1    0    0  502  501  0.00000000000E+00  0.00000000000E+00  0.20361855318E+03  0.20361855318E+03  0.00000000000E+00 0. -1.
         21   -1    0    0  501  502 -0.00000000000E+00 -0.00000000000E+00 -0.50328333224E+03  0.50328333224E+03  0.00000000000E+00 0.  1.
         25    1    1    2    0    0 -0.51542080622E+02  0.25954003135E+03 -0.29309190104E+03  0.41418048771E+03  0.12500000000E+03 0.  0.
         25    1    1    2    0    0  0.51542080622E+02 -0.25954003135E+03 -0.65728780172E+01  0.29272139770E+03  0.12500000000E+03 0.  0.
</event>
<event>
 4    0  0.2185218E-002  0.2992088E+03  0.7546771E-02  0.1085637E+00
         21   -1    0    0  502  501  0.00000000000E+00  0.00000000000E+00  0.19839117251E+04  0.19839117251E+04  0.00000000000E+00 0.  1.
         21   -1    0    0  501  502 -0.00000000000E+00 -0.00000000000E+00 -0.45125959683E+02  0.45125959683E+02  0.00000000000E+00 0.  1.
         25    1    1    2    0    0 -0.18121681000E+03 -0.16882071073E+03  0.13494046681E+04  0.13776276431E+04  0.12500000000E+03 0.  0.
         25    1    1    2    0    0  0.18121681000E+03  0.16882071073E+03  0.58938109730E+03  0.65141004172E+03  0.12500000000E+03 0.  0.
</event>
<event>
 4    0  0.2185218E-002  0.1951069E+03  0.7546771E-02  0.1153934E+00
         21   -1    0    0  502  501  0.00000000000E+00  0.00000000000E+00  0.35509683341E+03  0.35509683341E+03  0.00000000000E+00 0. -1.
         21   -1    0    0  501  502 -0.00000000000E+00 -0.00000000000E+00 -0.10720085886E+03  0.10720085886E+03  0.00000000000E+00 0. -1.
         25    1    1    2    0    0  0.85882304608E+02  0.22764340810E+02 -0.18946793626E+02  0.15452497030E+03  0.12500000000E+03 0.  0.
         25    1    1    2    0    0 -0.85882304608E+02 -0.22764340810E+02  0.26684276818E+03  0.30777272197E+03  0.12500000000E+03 0.  0.
</event>
<event>
 4    0  0.2185218E-002  0.2276624E+03  0.7546771E-02  0.1128296E+00
         21   -1    0    0  502  501  0.00000000000E+00  0.00000000000E+00  0.75138357245E+03  0.75138357245E+03  0.00000000000E+00 0. -1.
         21   -1    0    0  501  502 -0.00000000000E+00 -0.00000000000E+00 -0.68979642894E+02  0.68979642894E+02  0.00000000000E+00 0. -1.
         25    1    1    2    0    0  0.15733327271E+03  0.10658045990E+03  0.35848499043E+03  0.42455817210E+03  0.12500000000E+03 0.  0.
         25    1    1    2    0    0 -0.15733327271E+03 -0.10658045990E+03  0.32391893912E+03  0.39580504324E+03  0.12500000000E+03 0.  0.
</event>
<event>
 4    0  0.2185218E-002  0.2374466E+03  0.7546771E-02  0.1121506E+00
         21   -1    0    0  502  501  0.00000000000E+00  0.00000000000E+00  0.58522499284E+03  0.58522499284E+03  0.00000000000E+00 0.  1.
         21   -1    0    0  501  502 -0.00000000000E+00 -0.00000000000E+00 -0.96340552887E+02  0.96340552887E+02  0.00000000000E+00 0.  1.
         25    1    1    2    0    0  0.15756372158E+03  0.28409889612E+02  0.42093328683E+03  0.46737916101E+03  0.12500000000E+03 0.  0.
         25    1    1    2    0    0 -0.15756372158E+03 -0.28409889612E+02  0.67951153124E+02  0.21418638472E+03  0.12500000000E+03 0.  0.
</event>
<event>
 4    0  0.2185218E-002  0.2780463E+03  0.7546771E-02  0.1096761E+00
         21   -1    0    0  502  501  0.00000000000E+00  0.00000000000E+00  0.59751674618E+03  0.59751674618E+03  0.00000000000E+00 0.  1.
         21   -1    0    0  501  502 -0.00000000000E+00 -0.00000000000E+00 -0.12938511084E+03  0.12938511084E+03  0.00000000000E+00 0.  1.
         25    1    1    2    0    0  0.19329281714E+03 -0.13967663608E+03  0.14337970411E+03  0.30504821811E+03  0.12500000000E+03 0.  0.
         25    1    1    2    0    0 -0.19329281714E+03  0.13967663608E+03  0.32475193123E+03  0.42185363891E+03  0.12500000000E+03 0.  0.
</event>
<event>
 4    0  0.2185218E-002  0.2071701E+03  0.7546771E-02  0.1143827E+00
         21   -1    0    0  502  501  0.00000000000E+00  0.00000000000E+00  0.78439769936E+02  0.78439769936E+02  0.00000000000E+00 0. -1.
         21   -1    0    0  501  502 -0.00000000000E+00 -0.00000000000E+00 -0.54716414838E+03  0.54716414838E+03  0.00000000000E+00 0. -1.
         25    1    1    2    0    0  0.10336721392E+03 -0.92501732096E+02 -0.36985724874E+03  0.41431960586E+03  0.12500000000E+03 0.  0.
         25    1    1    2    0    0 -0.10336721392E+03  0.92501732096E+02 -0.98867129709E+02  0.21128431246E+03  0.12500000000E+03 0.  0.
</event>
<event>
 4    0  0.2185218E-002  0.2282702E+03  0.7546771E-02  0.1127863E+00
         21   -1    0    0  502  501  0.00000000000E+00  0.00000000000E+00  0.75256915188E+03  0.75256915188E+03  0.00000000000E+00 0.  1.
         21   -1    0    0  501  502 -0.00000000000E+00 -0.00000000000E+00 -0.69239210343E+02  0.69239210343E+02  0.00000000000E+00 0.  1.
         25    1    1    2    0    0  0.17937959411E+01  0.15694376821E+03  0.53759854914E+03  0.57382206661E+03  0.12500000000E+03 0.  0.
         25    1    1    2    0    0 -0.17937959411E+01 -0.15694376821E+03  0.14573139239E+03  0.24798629561E+03  0.12500000000E+03 0.  0.
</event>
<event>
 4    0  0.2185218E-002  0.2461975E+03  0.7546771E-02  0.1115732E+00
         21   -1    0    0  502  501  0.00000000000E+00  0.00000000000E+00  0.80011259754E+02  0.80011259754E+02  0.00000000000E+00 0. -1.
         21   -1    0    0  501  502 -0.00000000000E+00 -0.00000000000E+00 -0.75755844061E+03  0.75755844061E+03  0.00000000000E+00 0. -1.
         25    1    1    2    0    0 -0.56551719588E+02  0.14533689852E+02  0.80780326447E+01  0.13820122916E+03  0.12500000000E+03 0.  0.
         25    1    1    2    0    0  0.56551719588E+02 -0.14533689852E+02 -0.68562521350E+03  0.69936847120E+03  0.12500000000E+03 0.  0.
</event>
<event>
 4    0  0.2185218E-002  0.1708748E+03  0.7546771E-02  0.1176939E+00
         21   -1    0    0  502  501  0.00000000000E+00  0.00000000000E+00  0.33640705188E+03  0.33640705188E+03  0.00000000000E+00 0. -1.
         21   -1    0    0  501  502 -0.00000000000E+00 -0.00000000000E+00 -0.86794204945E+02  0.86794204945E+02  0.00000000000E+00 0. -1.
         25    1    1    2    0    0 -0.99829897977E+02 -0.41867041204E+01  0.19899974748E+03  0.25536138416E+03  0.12500000000E+03 0.  0.
         25    1    1    2    0    0  0.99829897977E+02  0.41867041204E+01  0.50613099458E+02  0.16783987267E+03  0.12500000000E+03 0.  0.
</event>
<event>
 4    0  0.2185218E-002  0.1778034E+03  0.7546771E-02  0.1169946E+00
         21   -1    0    0  502  501  0.00000000000E+00  0.00000000000E+00  0.21709863905E+02  0.21709863905E+02  0.00000000000E+00 0. -1.
         21   -1    0    0  501  502 -0.00000000000E+00 -0.00000000000E+00 -0.14562065955E+04  0.14562065955E+04  0.00000000000E+00 0. -1.
         25    1    1    2    0    0 -0.27448149826E+01 -0.64967741579E+02 -0.26653905356E+03  0.30149031249E+03  0.12500000000E+03 0.  0.
         25    1    1    2    0    0  0.27448149826E+01  0.64967741579E+02 -0.11679576780E+04  0.11764261469E+04  0.12500000000E+03 0.  0.
</event>
<event>
 4    0  0.2185218E-002  0.1798456E+03  0.7546771E-02  0.1167953E+00
         21   -1    0    0  502  501  0.00000000000E+00  0.00000000000E+00  0.64055248563E+02  0.64055248563E+02  0.00000000000E+00 0.  1.
         21   -1    0    0  501  502 -0.00000000000E+00 -0.00000000000E+00 -0.50494610063E+03  0.50494610063E+03  0.00000000000E+00 0.  1.
         25    1    1    2    0    0  0.10714076045E+03 -0.48532825379E+02 -0.30541170026E+03  0.35033681557E+03  0.12500000000E+03 0.  0.
         25    1    1    2    0    0 -0.10714076045E+03  0.48532825379E+02 -0.13547915180E+03  0.21866453362E+03  0.12500000000E+03 0.  0.
</event>
<event>
 4    0  0.2185218E-002  0.2418991E+03  0.7546771E-02  0.1118534E+00
         21   -1    0    0  502  501  0.00000000000E+00  0.00000000000E+00  0.68077991175E+02  0.68077991175E+02  0.00000000000E+00 0.  1.
         21   -1    0    0  501  502 -0.00000000000E+00 -0.00000000000E+00 -0.85953128107E+03  0.85953128107E+03  0.00000000000E+00 0.  1.
         25    1    1    2    0    0 -0.54931811024E+02  0.13627947873E+03 -0.67555802549E+03  0.70256191612E+03  0.12500000000E+03 0.  0.
         25    1    1    2    0    0  0.54931811024E+02 -0.13627947873E+03 -0.11589526441E+03  0.22504735612E+03  0.12500000000E+03 0.  0.
</event>
<event>
 4    0  0.2185218E-002  0.2919103E+03  0.7546771E-02  0.1089356E+00
         21   -1    0    0  502  501  0.00000000000E+00  0.00000000000E+00  0.11671353538E+03  0.11671353538E+03  0.00000000000E+00 0.  1.
         21   -1    0    0  501  502 -0.00000000000E+00 -0.00000000000E+00 -0.73009213497E+03  0.73009213497E+03  0.00000000000E+00 0.  1.
         25    1    1    2    0    0  0.20457443597E+03  0.21988297675E+02 -0.67243577110E+02  0.24996176458E+03  0.12500000000E+03 0.  0.
         25    1    1    2    0    0 -0.20457443597E+03 -0.21988297675E+02 -0.54613502248E+03  0.59684390578E+03  0.12500000000E+03 0.  0.
</event>
<event>
 4    0  0.2185218E-002  0.1597233E+03  0.7546771E-02  0.1189009E+00
         21   -1    0    0  502  501  0.00000000000E+00  0.00000000000E+00  0.31958037937E+03  0.31958037937E+03  0.00000000000E+00 0.  1.
         21   -1    0    0  501  502 -0.00000000000E+00 -0.00000000000E+00 -0.79828227736E+02  0.79828227736E+02  0.00000000000E+00 0.  1.
         25    1    1    2    0    0 -0.85489590304E+02 -0.49369789911E+02  0.10504579589E+03  0.19080216309E+03  0.12500000000E+03 0.  0.
         25    1    1    2    0    0  0.85489590304E+02  0.49369789911E+02  0.13470635575E+03  0.20860644402E+03  0.12500000000E+03 0.  0.
</event>
<event>
 4    0  0.2185218E-002  0.1943747E+03  0.7546771E-02  0.1154574E+00
         21   -1    0    0  502  501  0.00000000000E+00  0.00000000000E+00  0.52935903282E+03  0.52935903282E+03  0.00000000000E+00 0. -1.
         21   -1    0    0  501  502 -0.00000000000E+00 -0.00000000000E+00 -0.71372203593E+02  0.71372203593E+02  0.00000000000E+00 0. -1.
         25    1    1    2    0    0  0.12057017247E+03 -0.86522227586E+02  0.24683188651E+03  0.31396535247E+03  0.12500000000E+03 0.  0.
         25    1    1    2    0    0 -0.12057017247E+03  0.86522227586E+02  0.21115494272E+03  0.28676588394E+03  0.12500000000E+03 0.  0.
</event>
<event>
 4    0  0.2185218E-002  0.2172938E+03  0.7546771E-02  0.1135917E+00
         21   -1    0    0  502  501  0.00000000000E+00  0.00000000000E+00  0.32766670646E+03  0.32766670646E+03  0.00000000000E+00 0. -1.
         21   -1    0    0  501  502 -0.00000000000E+00 -0.00000000000E+00 -0.14409951794E+03  0.14409951794E+03  0.00000000000E+00 0. -1.
         25    1    1    2    0    0 -0.98096989383E+02  0.14586515226E+03  0.63228239435E+02  0.22477204504E+03  0.12500000000E+03 0.  0.
         25    1    1    2    0    0  0.98096989383E+02 -0.14586515226E+03  0.12033894908E+03  0.24699417936E+03  0.12500000000E+03 0.  0.
</event>
<event>
 4    0  0.2185218E-002  0.2379524E+03  0.7546771E-02  0.1121164E+00
         21   -1    0    0  502  501  0.00000000000E+00  0.00000000000E+00  0.76590166351E+02  0.76590166351E+02  0.00000000000E+00 0.  1.
         21   -1    0    0  501  502 -0.00000000000E+00 -0.00000000000E+00 -0.73927717404E+03  0.73927717404E+03  0.00000000000E+00 0.  1.
         25    1    1    2    0    0  0.15698087797E+03  0.11406776478E+03 -0.23223821761E+03  0.32743555202E+03  0.12500000000E+03 0.  0.
         25    1    1    2    0    0 -0.15698087797E+03 -0.11406776478E+03 -0.43044879008E+03  0.48843178837E+03  0.12500000000E+03 0.  0.
</event>
<event>
 4    0  0.2185218E-002  0.2699608E+03  0.7546771E-02  0.1101302E+00
         21   -1    0    0  502  501  0.00000000000E+00  0.00000000000E+00  0.14251267388E+03  0.14251267388E+03  0.00000000000E+00 0.  1.
         21   -1    0    0  501  502 -0.00000000000E+00 -0.00000000000E+00 -0.51138487791E+03  0.51138487791E+03  0.00000000000E+00 0.  1.
         25    1    1    2    0    0 -0.19096924971E+03 -0.13839021820E+03 -0.23337281794E+03  0.35455462059E+03  0.12500000000E+03 0.  0.
         25    1    1    2    0    0  0.19096924971E+03  0.13839021820E+03 -0.13549938608E+03  0.29934293120E+03  0.12500000000E+03 0.  0.
</event>
<event>
 4    0  0.2185218E-002  0.3581136E+03  0.7546771E-02  0.1059333E+00
         21   -1    0    0  502  501  0.00000000000E+00  0.00000000000E+00  0.10169082870E+04  0.10169082870E+04  0.00000000000E+00 0. -1.
         21   -1    0    0  501  502 -0.00000000000E+00 -0.00000000000E+00 -0.12611299076E+03  0.12611299076E+03  0.00000000000E+00 0. -1.
         25    1    1    2    0    0  0.97422191331E+01 -0.31564050987E+03  0.26416372274E+03  0.43026888653E+03  0.12500000000E+03 0.  0.
         25    1    1    2    0    0 -0.97422191331E+01  0.31564050987E+03  0.62663157353E+03  0.71275239126E+03  0.12500000000E+03 0.  0.
</event>
<event>
 4    0  0.2185218E-002  0.3990785E+03  0.7546771E-02  0.1044099E+00
         21   -1    0    0  502  501  0.00000000000E+00  0.00000000000E+00  0.31933053527E+03  0.31933053527E+03  0.00000000000E+00 0. -1.
         21   -1    0    0  501  502 -0.00000000000E+00 -0.00000000000E+00 -0.49874220874E+03  0.49874220874E+03  0.00000000000E+00 0. -1.
         25    1    1    2    0    0 -0.11798430568E+03 -0.93390172933E+02 -0.44623102409E+03  0.48722597185E+03  0.12500000000E+03 0.  0.
         25    1    1    2    0    0  0.11798430568E+03  0.93390172933E+02  0.26681935062E+03  0.33084677216E+03  0.12500000000E+03 0.  0.
</event>
<event>
 4    0  0.2185218E-002  0.1988251E+03  0.7546771E-02  0.1150734E+00
         21   -1    0    0  502  501  0.00000000000E+00  0.00000000000E+00  0.82497556339E+02  0.82497556339E+02  0.00000000000E+00 0.  1.
         21   -1    0    0  501  502 -0.00000000000E+00 -0.00000000000E+00 -0.47918287877E+03  0.47918287877E+03  0.00000000000E+00 0.  1.
         25    1    1    2    0    0 -0.11387899127E+03 -0.10322241753E+03 -0.22210979252E+03  0.29762569121E+03  0.12500000000E+03 0.  0.
         25    1    1    2    0    0  0.11387899127E+03  0.10322241753E+03 -0.17457552990E+03  0.26405474390E+03  0.12500000000E+03 0.  0.
</event>
<event>
 4    0  0.2185218E-002  0.3292776E+03  0.7546771E-02  0.1071457E+00
         21   -1    0    0  502  501  0.00000000000E+00  0.00000000000E+00  0.39997622169E+03  0.39997622169E+03  0.00000000000E+00 0.  1.
         21   -1    0    0  501  502 -0.00000000000E+00 -0.00000000000E+00 -0.27107553034E+03  0.27107553034E+03  0.00000000000E+00 0. -1.
         25    1    1    2    0    0 -0.26502257010E+03  0.54564967504E+02  0.20705039123E+03  0.36291757033E+03  0.12500000000E+03 0.  0.
         25    1    1    2    0    0  0.26502257010E+03 -0.54564967504E+02 -0.78149699884E+02  0.30813418170E+03  0.12500000000E+03 0.  0.
</event>
<event>
 4    0  0.2185218E-002  0.2529679E+03  0.7546771E-02  0.1111443E+00
         21   -1    0    0  502  501  0.00000000000E+00  0.00000000000E+00  0.26782263620E+03  0.26782263620E+03  0.00000000000E+00 0.  1.
         21   -1    0    0  501  502 -0.00000000000E+00 -0.00000000000E+00 -0.23893715422E+03  0.23893715422E+03  0.00000000000E+00 0.  1.
         25    1    1    2    0    0  0.23524789588E+02 -0.79715725513E+01 -0.20443271862E+03  0.24090391889E+03  0.12500000000E+03 0.  0.
         25    1    1    2    0    0 -0.23524789588E+02  0.79715725513E+01  0.23331820060E+03  0.26585587152E+03  0.12500000000E+03 0.  0.
</event>
<event>
 4    0  0.2185218E-002  0.3064439E+03  0.7546771E-02  0.1082063E+00
         21   -1    0    0  502  501  0.00000000000E+00  0.00000000000E+00  0.16750244950E+04  0.16750244950E+04  0.00000000000E+00 0.  1.
         21   -1    0    0  501  502 -0.00000000000E+00 -0.00000000000E+00 -0.56063584150E+02  0.56063584150E+02  0.00000000000E+00 0.  1.
         25    1    1    2    0    0  0.69725518368E+02 -0.25763748445E+03  0.10465373683E+04  0.10872461471E+04  0.12500000000E+03 0.  0.
         25    1    1    2    0    0 -0.69725518368E+02  0.25763748445E+03  0.57242354260E+03  0.64384193202E+03  0.12500000000E+03 0.  0.
</event>
<event>
 4    0  0.2185218E-002  0.3148979E+03  0.7546771E-02  0.1078022E+00
         21   -1    0    0  502  501  0.00000000000E+00  0.00000000000E+00  0.30396901497E+03  0.30396901497E+03  0.00000000000E+00 0.  1.
         21   -1    0    0  501  502 -0.00000000000E+00 -0.00000000000E+00 -0.32621972126E+03  0.32621972126E+03  0.00000000000E+00 0.  1.
         25    1    1    2    0    0  0.66981833379E+02 -0.10983962507E+03 -0.27010023368E+03  0.32423825418E+03  0.12500000000E+03 0.  0.
         25    1    1    2    0    0 -0.66981833379E+02  0.10983962507E+03  0.24784952739E+03  0.30595048205E+03  0.12500000000E+03 0.  0.
</event>
<event>
 4    0  0.2185218E-002  0.2482715E+03  0.7546771E-02  0.1114402E+00
         21   -1    0    0  502  501  0.00000000000E+00  0.00000000000E+00  0.44577427708E+03  0.44577427708E+03  0.00000000000E+00 0.  1.
         21   -1    0    0  501  502 -0.00000000000E+00 -0.00000000000E+00 -0.13827346996E+03  0.13827346996E+03  0.00000000000E+00 0.  1.
         25    1    1    2    0    0 -0.56048396928E+02 -0.20643279472E+03  0.13486344621E+03  0.28207990120E+03  0.12500000000E+03 0.  0.
         25    1    1    2    0    0  0.56048396928E+02  0.20643279472E+03  0.17263736092E+03  0.30196784584E+03  0.12500000000E+03 0.  0.
</event>
<event>
 4    0  0.2185218E-002  0.1917895E+03  0.7546771E-02  0.1156857E+00
         21   -1    0    0  502  501  0.00000000000E+00  0.00000000000E+00  0.26035817932E+04  0.26035817932E+04  0.00000000000E+00 0.  1.
         21   -1    0    0  501  502 -0.00000000000E+00 -0.00000000000E+00 -0.14127924603E+02  0.14127924603E+02  0.00000000000E+00 0.  1.
         25    1    1    2    0    0  0.53771081406E+02  0.12559764895E+03  0.95404415698E+03  0.97184944929E+03  0.12500000000E+03 0.  0.
         25    1    1    2    0    0 -0.53771081406E+02 -0.12559764895E+03  0.16354097116E+04  0.16458602685E+04  0.12500000000E+03 0.  0.
</event>
<event>
 4    0  0.2185218E-002  0.2731111E+03  0.7546771E-02  0.1099512E+00
         21   -1    0    0  502  501  0.00000000000E+00  0.00000000000E+00  0.32397825073E+02  0.32397825073E+02  0.00000000000E+00 0. -1.
         21   -1    0    0  501  502 -0.00000000000E+00 -0.00000000000E+00 -0.23023044956E+04  0.23023044956E+04  0.00000000000E+00 0. -1.
         25    1    1    2    0    0  0.21526506369E+02 -0.19125447748E+03 -0.50208680253E+03  0.55204875049E+03  0.12500000000E+03 0.  0.
         25    1    1    2    0    0 -0.21526506369E+02  0.19125447748E+03 -0.17678198680E+04  0.17826535702E+04  0.12500000000E+03 0.  0.
</event>
<event>
 4    0  0.2185218E-002  0.1896775E+03  0.7546771E-02  0.1158753E+00
         21   -1    0    0  502  501  0.00000000000E+00  0.00000000000E+00  0.19526431044E+04  0.19526431044E+04  0.00000000000E+00 0. -1.
         21   -1    0    0  501  502 -0.00000000000E+00 -0.00000000000E+00 -0.18425050457E+02  0.18425050457E+02  0.00000000000E+00 0. -1.
         25    1    1    2    0    0 -0.92814758228E+01 -0.12169021346E+03  0.13509650949E+04  0.13622137650E+04  0.12500000000E+03 0.  0.
         25    1    1    2    0    0  0.92814758228E+01  0.12169021346E+03  0.58325295901E+03  0.60885438985E+03  0.12500000000E+03 0.  0.
</event>
<event>
 4    0  0.2185218E-002  0.2339338E+03  0.7546771E-02  0.1123901E+00
         21   -1    0    0  502  501  0.00000000000E+00  0.00000000000E+00  0.34402173515E+04  0.34402173515E+04  0.00000000000E+00 0.  1.
         21   -1    0    0  501  502 -0.00000000000E+00 -0.00000000000E+00 -0.15907430502E+02  0.15907430502E+02  0.00000000000E+00 0.  1.
         25    1    1    2    0    0 -0.14577374051E+02  0.18232367817E+03  0.11571187477E+04  0.11781354844E+04  0.12500000000E+03 0.  0.
         25    1    1    2    0    0  0.14577374051E+02 -0.18232367817E+03  0.22671911734E+04  0.22779892976E+04  0.12500000000E+03 0.  0.
</event>
<event>
 4    0  0.2185218E-002  0.1402751E+03  0.7546771E-02  0.1212959E+00
         21   -1    0    0  502  501  0.00000000000E+00  0.00000000000E+00  0.45744402369E+03  0.45744402369E+03  0.00000000000E+00 0. -1.
         21   -1    0    0  501  502 -0.00000000000E+00 -0.00000000000E+00 -0.43015349107E+02  0.43015349107E+02  0.00000000000E+00 0. -1.
         25    1    1    2    0    0 -0.54675569577E+02 -0.13129018537E+02  0.15398727544E+03  0.20615254069E+03  0.12500000000E+03 0.  0.
         25    1    1    2    0    0  0.54675569577E+02  0.13129018537E+02  0.26044139915E+03  0.29430683211E+03  0.12500000000E+03 0.  0.
</event>
<event>
 4    0  0.2185218E-002  0.3828494E+03  0.7546771E-02  0.1049886E+00
         21   -1    0    0  502  501  0.00000000000E+00  0.00000000000E+00  0.60991238808E+03  0.60991238808E+03  0.00000000000E+00 0.  1.
         21   -1    0    0  501  502 -0.00000000000E+00 -0.00000000000E+00 -0.24031915275E+03  0.24031915275E+03  0.00000000000E+00 0.  1.
         25    1    1    2    0    0 -0.29729716794E+03 -0.19965127036E+03  0.24252023153E+03  0.45020806137E+03  0.12500000000E+03 0.  0.
         25    1    1    2    0    0  0.29729716794E+03  0.19965127036E+03  0.12707300381E+03  0.40002347946E+03  0.12500000000E+03 0.  0.
</event>
<event>
 4    0  0.2185218E-002  0.2915126E+03  0.7546771E-02  0.1089562E+00
         21   -1    0    0  502  501  0.00000000000E+00  0.00000000000E+00  0.39897565717E+02  0.39897565717E+02  0.00000000000E+00 0. -1.
         21   -1    0    0  501  502 -0.00000000000E+00 -0.00000000000E+00 -0.21299440352E+04  0.21299440352E+04  0.00000000000E+00 0. -1.
         25    1    1    2    0    0 -0.71441976659E+02 -0.24675477209E+03 -0.12608400867E+04  0.12928010666E+04  0.12500000000E+03 0.  0.
         25    1    1    2    0    0  0.71441976659E+02  0.24675477209E+03 -0.82920638277E+03  0.87704053430E+03  0.12500000000E+03 0.  0.
</event>
<event>
 4    0  0.2185218E-002  0.2756213E+03  0.7546771E-02  0.1098105E+00
         21   -1    0    0  502  501  0.00000000000E+00  0.00000000000E+00  0.49541852658E+02  0.49541852658E+02  0.00000000000E+00 0.  1.
         21   -1    0    0  501  502 -0.00000000000E+00 -0.00000000000E+00 -0.15333920882E+04  0.15333920882E+04  0.00000000000E+00 0.  1.
         25    1    1    2    0    0 -0.16426579595E+03 -0.14340008281E+03 -0.41710386046E+03  0.48697789054E+03  0.12500000000E+03 0.  0.
         25    1    1    2    0    0  0.16426579595E+03  0.14340008281E+03 -0.10667463751E+04  0.10959560503E+04  0.12500000000E+03 0.  0.
</event>
<event>
 4    0  0.2185218E-002  0.2206952E+03  0.7546771E-02  0.1133366E+00
         21   -1    0    0  502  501  0.00000000000E+00  0.00000000000E+00  0.13252856690E+03  0.13252856690E+03  0.00000000000E+00 0.  1.
         21   -1    0    0  501  502 -0.00000000000E+00 -0.00000000000E+00 -0.36751611271E+03  0.36751611271E+03  0.00000000000E+00 0.  1.
         25    1    1    2    0    0  0.11387191476E+03  0.16260072645E+02  0.42119170159E+02  0.17501493487E+03  0.12500000000E+03 0.  0.
         25    1    1    2    0    0 -0.11387191476E+03 -0.16260072645E+02 -0.27710671596E+03  0.32502974474E+03  0.12500000000E+03 0.  0.
</event>
<event>
 4    0  0.2185218E-002  0.1924327E+03  0.7546771E-02  0.1156285E+00
         21   -1    0    0  502  501  0.00000000000E+00  0.00000000000E+00  0.17579531174E+02  0.17579531174E+02  0.00000000000E+00 0. -1.
         21   -1    0    0  501  502 -0.00000000000E+00 -0.00000000000E+00 -0.21064472220E+04  0.21064472220E+04  0.00000000000E+00 0. -1.
         25    1    1    2    0    0 -0.13330106501E+03  0.59829401696E+02 -0.10859625989E+04  0.11028547037E+04  0.12500000000E+03 0.  0.
         25    1    1    2    0    0  0.13330106501E+03 -0.59829401696E+02 -0.10029050919E+04  0.10211720494E+04  0.12500000000E+03 0.  0.
</event>
<event>
 4    0  0.2185218E-002  0.2302593E+03  0.7546771E-02  0.1126457E+00
         21   -1    0    0  502  501  0.00000000000E+00  0.00000000000E+00  0.10091004604E+03  0.10091004604E+03  0.00000000000E+00 0.  1.
         21   -1    0    0  501  502 -0.00000000000E+00 -0.00000000000E+00 -0.52541200070E+03  0.52541200070E+03  0.00000000000E+00 0.  1.
         25    1    1    2    0    0 -0.13595014382E+03 -0.13382436709E+03 -0.25532241400E+03  0.34235352769E+03  0.12500000000E+03 0.  0.
         25    1    1    2    0    0  0.13595014382E+03  0.13382436709E+03 -0.16917954066E+03  0.28396851905E+03  0.12500000000E+03 0.  0.
</event>
<event>
 4    0  0.2185218E-002  0.1773417E+03  0.7546771E-02  0.1170401E+00
         21   -1    0    0  502  501  0.00000000000E+00  0.00000000000E+00  0.66895574257E+02  0.66895574257E+02  0.00000000000E+00 0.  1.
         21   -1    0    0  501  502 -0.00000000000E+00 -0.00000000000E+00 -0.47013714520E+03  0.47013714520E+03  0.00000000000E+00 0.  1.
         25    1    1    2    0    0 -0.59102977944E+02 -0.11090027935E+03 -0.21032668129E+03  0.27505335268E+03  0.12500000000E+03 0.  0.
         25    1    1    2    0    0  0.59102977944E+02  0.11090027935E+03 -0.19291488965E+03  0.26197936677E+03  0.12500000000E+03 0.  0.
</event>
<event>
 4    0  0.2185218E-002  0.3640027E+03  0.7546771E-02  0.1057010E+00
         21   -1    0    0  502  501  0.00000000000E+00  0.00000000000E+00  0.40162400237E+03  0.40162400237E+03  0.00000000000E+00 0. -1.
         21   -1    0    0  501  502 -0.00000000000E+00 -0.00000000000E+00 -0.32990554732E+03  0.32990554732E+03  0.00000000000E+00 0. -1.
         25    1    1    2    0    0  0.24554473671E+03  0.89106691628E+02 -0.18575489999E+03  0.34403793845E+03  0.12500000000E+03 0.  0.
         25    1    1    2    0    0 -0.24554473671E+03 -0.89106691628E+02  0.25747335504E+03  0.38749161123E+03  0.12500000000E+03 0.  0.
</event>
<event>
 4    0  0.2185218E-002  0.2772664E+03  0.7546771E-02  0.1097191E+00
         21   -1    0    0  502  501  0.00000000000E+00  0.00000000000E+00  0.90996918299E+03  0.90996918299E+03  0.00000000000E+00 0. -1.
         21   -1    0    0  501  502 -0.00000000000E+00 -0.00000000000E+00 -0.84482700683E+02  0.84482700683E+02  0.00000000000E+00 0. -1.
         25    1    1    2    0    0  0.22995247299E+03  0.40569666369E+02  0.55983459811E+03  0.61932529006E+03  0.12500000000E+03 0.  0.
         25    1    1    2    0    0 -0.22995247299E+03 -0.40569666369E+02  0.26565188420E+03  0.37512659362E+03  0.12500000000E+03 0.  0.
</event>
<event>
 4    0  0.2185218E-002  0.3172359E+03  0.7546771E-02  0.1076929E+00
         21   -1    0    0  502  501  0.00000000000E+00  0.00000000000E+00  0.51676133794E+03  0.51676133794E+03  0.00000000000E+00 0.  1.
         21   -1    0    0  501  502 -0.00000000000E+00 -0.00000000000E+00 -0.19474869092E+03  0.19474869092E+03  0.00000000000E+00 0.  1.
         25    1    1    2    0    0  0.19207829531E+03 -0.10887690005E+02 -0.84687254654E+02  0.24455989946E+03  0.12500000000E+03 0.  0.
         25    1    1    2    0    0 -0.19207829531E+03  0.10887690005E+02  0.40669990167E+03  0.46695012939E+03  0.12500000000E+03 0.  0.
</event>
<event>
 4    0  0.2185218E-002  0.2289475E+03  0.7546771E-02  0.1127383E+00
         21   -1    0    0  502  501  0.00000000000E+00  0.00000000000E+00  0.10253543633E+03  0.10253543633E+03  0.00000000000E+00 0. -1.
         21   -1    0    0  501  502 -0.00000000000E+00 -0.00000000000E+00 -0.51120830414E+03  0.51120830414E+03  0.00000000000E+00 0. -1.
         25    1    1    2    0    0  0.10039298021E+03  0.93398139496E+02 -0.24558343463E+02  0.18716323135E+03  0.12500000000E+03 0.  0.
         25    1    1    2    0    0 -0.10039298021E+03 -0.93398139496E+02 -0.38411452435E+03  0.42658050911E+03  0.12500000000E+03 0.  0.
</event>
<event>
 4    0  0.2185218E-002  0.1954434E+03  0.7546771E-02  0.1153641E+00
         21   -1    0    0  502  501  0.00000000000E+00  0.00000000000E+00  0.15244011720E+03  0.15244011720E+03  0.00000000000E+00 0. -1.
         21   -1    0    0  501  502 -0.00000000000E+00 -0.00000000000E+00 -0.25057783299E+03  0.25057783299E+03  0.00000000000E+00 0. -1.
         25    1    1    2    0    0 -0.78517077143E+02  0.74226667728E+02 -0.15670508911E+03  0.22771915720E+03  0.12500000000E+03 0.  0.
         25    1    1    2    0    0  0.78517077143E+02 -0.74226667728E+02  0.58567373317E+02  0.17529879299E+03  0.12500000000E+03 0.  0.
</event>
<event>
 4    0  0.2185218E-002  0.2170284E+03  0.7546771E-02  0.1136118E+00
         21   -1    0    0  502  501  0.00000000000E+00  0.00000000000E+00  0.25188711427E+03  0.25188711427E+03  0.00000000000E+00 0. -1.
         21   -1    0    0  501  502 -0.00000000000E+00 -0.00000000000E+00 -0.18699381707E+03  0.18699381707E+03  0.00000000000E+00 0. -1.
         25    1    1    2    0    0  0.12368710662E+03 -0.10148864338E+03 -0.45072816345E+02  0.20797837352E+03  0.12500000000E+03 0.  0.
         25    1    1    2    0    0 -0.12368710662E+03  0.10148864338E+03  0.10996611355E+03  0.23090255782E+03  0.12500000000E+03 0.  0.
</event>
<event>
 4    0  0.2185218E-002  0.1397510E+03  0.7546771E-02  0.1213664E+00
         21   -1    0    0  502  501  0.00000000000E+00  0.00000000000E+00  0.72881040352E+03  0.72881040352E+03  0.00000000000E+00 0.  1.
         21   -1    0    0  501  502 -0.00000000000E+00 -0.00000000000E+00 -0.26797576860E+02  0.26797576860E+02  0.00000000000E+00 0.  1.
         25    1    1    2    0    0 -0.23591538104E+01  0.51015190472E+02  0.44837553445E+03  0.46826673505E+03  0.12500000000E+03 0.  0.
         25    1    1    2    0    0  0.23591538104E+01 -0.51015190472E+02  0.25363729221E+03  0.28734124533E+03  0.12500000000E+03 0.  0.
</event>
<event>
 4    0  0.2185218E-002  0.5296894E+03  0.7546771E-02  0.1006307E+00
         21   -1    0    0  502  501  0.00000000000E+00  0.00000000000E+00  0.24159092866E+03  0.24159092866E+03  0.00000000000E+00 0. -1.
         21   -1    0    0  501  502 -0.00000000000E+00 -0.00000000000E+00 -0.11613468841E+04  0.11613468841E+04  0.00000000000E+00 0. -1.
         25    1    1    2    0    0 -0.18771570654E+03 -0.26530833834E+03  0.68716371760E+02  0.35492624673E+03  0.12500000000E+03 0.  0.
         25    1    1    2    0    0  0.18771570654E+03  0.26530833834E+03 -0.98847232719E+03  0.10480115660E+04  0.12500000000E+03 0.  0.
</event>
<event>
 4    0  0.2185218E-002  0.2020630E+03  0.7546771E-02  0.1148010E+00
         21   -1    0    0  502  501  0.00000000000E+00  0.00000000000E+00  0.27459098781E+03  0.27459098781E+03  0.00000000000E+00 0.  1.
         21   -1    0    0  501  502 -0.00000000000E+00 -0.00000000000E+00 -0.14869189329E+03  0.14869189329E+03  0.00000000000E+00 0.  1.
         25    1    1    2    0    0  0.11042818419E+03  0.46388058604E+02  0.17209187254E+03  0.24410417538E+03  0.12500000000E+03 0.  0.
         25    1    1    2    0    0 -0.11042818419E+03 -0.46388058604E+02 -0.46192778017E+02  0.17917870572E+03  0.12500000000E+03 0.  0.
</event>
<event>
 4    0  0.2185218E-002  0.2173229E+03  0.7546771E-02  0.1135895E+00
         21   -1    0    0  502  501  0.00000000000E+00  0.00000000000E+00  0.46490171933E+03  0.46490171933E+03  0.00000000000E+00 0.  1.
         21   -1    0    0  501  502 -0.00000000000E+00 -0.00000000000E+00 -0.10158978054E+03  0.10158978054E+03  0.00000000000E+00 0.  1.
         25    1    1    2    0    0 -0.16193370845E+03 -0.66355919306E+02  0.22242843798E+03  0.30939464116E+03  0.12500000000E+03 0.  0.
         25    1    1    2    0    0  0.16193370845E+03  0.66355919306E+02  0.14088350080E+03  0.25709685871E+03  0.12500000000E+03 0.  0.
</event>
<event>
 4    0  0.2185218E-002  0.2141377E+03  0.7546771E-02  0.1138331E+00
         21   -1    0    0  502  501  0.00000000000E+00  0.00000000000E+00  0.32738108509E+02  0.32738108509E+02  0.00000000000E+00 0.  1.
         21   -1    0    0  501  502 -0.00000000000E+00 -0.00000000000E+00 -0.14006600187E+04  0.14006600187E+04  0.00000000000E+00 0.  1.
         25    1    1    2    0    0 -0.19558142576E+02  0.32929416935E+02 -0.11633601891E+03  0.17500267637E+03  0.12500000000E+03 0.  0.
         25    1    1    2    0    0  0.19558142576E+02 -0.32929416935E+02 -0.12515858913E+04  0.12583954509E+04  0.12500000000E+03 0.  0.
</event>
<event>
 4    0  0.2185218E-002  0.2022812E+03  0.7546771E-02  0.1147828E+00
         21   -1    0    0  502  501  0.00000000000E+00  0.00000000000E+00  0.19232480865E+03  0.19232480865E+03  0.00000000000E+00 0. -1.
         21   -1    0    0  501  502 -0.00000000000E+00 -0.00000000000E+00 -0.21275305496E+03  0.21275305496E+03  0.00000000000E+00 0. -1.
         25    1    1    2    0    0  0.56065765472E+02 -0.14872944972E+03 -0.48340744995E+01  0.20226761369E+03  0.12500000000E+03 0.  0.
         25    1    1    2    0    0 -0.56065765472E+02  0.14872944972E+03 -0.15594171811E+02  0.20281024991E+03  0.12500000000E+03 0.  0.
</event>
<event>
 4    0  0.2185218E-002  0.1711331E+03  0.7546771E-02  0.1176671E+00
         21   -1    0    0  502  501  0.00000000000E+00  0.00000000000E+00  0.44062768905E+02  0.44062768905E+02  0.00000000000E+00 0.  1.
         21   -1    0    0  501  502 -0.00000000000E+00 -0.00000000000E+00 -0.66465470470E+03  0.66465470470E+03  0.00000000000E+00 0.  1.
         25    1    1    2    0    0  0.95600167810E+02  0.33816040440E+02 -0.43065487653E+03  0.45975160614E+03  0.12500000000E+03 0.  0.
         25    1    1    2    0    0 -0.95600167810E+02 -0.33816040440E+02 -0.18993705927E+03  0.24896586746E+03  0.12500000000E+03 0.  0.
</event>
<event>
 4    0  0.2185218E-002  0.2412714E+03  0.7546771E-02  0.1118949E+00
         21   -1    0    0  502  501  0.00000000000E+00  0.00000000000E+00  0.15819078237E+03  0.15819078237E+03  0.00000000000E+00 0. -1.
         21   -1    0    0  501  502 -0.00000000000E+00 -0.00000000000E+00 -0.36798545443E+03  0.36798545443E+03  0.00000000000E+00 0. -1.
         25    1    1    2    0    0 -0.10285134648E+02 -0.20109751622E+03 -0.55635856415E+02  0.24344679818E+03  0.12500000000E+03 0.  0.
         25    1    1    2    0    0  0.10285134648E+02  0.20109751622E+03 -0.15415881564E+03  0.28272943862E+03  0.12500000000E+03 0.  0.
</event>
<event>
 4    0  0.2185218E-002  0.3558304E+03  0.7546771E-02  0.1060247E+00
         21   -1    0    0  502  501  0.00000000000E+00  0.00000000000E+00  0.16859525777E+03  0.16859525777E+03  0.00000000000E+00 0.  1.
         21   -1    0    0  501  502 -0.00000000000E+00 -0.00000000000E+00 -0.75100142338E+03  0.75100142338E+03  0.00000000000E+00 0.  1.
         25    1    1    2    0    0 -0.14625661932E+03 -0.15928275046E+03  0.36278971428E+02  0.25239484356E+03  0.12500000000E+03 0.  0.
         25    1    1    2    0    0  0.14625661932E+03  0.15928275046E+03 -0.61868513704E+03  0.66720183759E+03  0.12500000000E+03 0.  0.
</event>
<event>
 4    0  0.2185218E-002  0.1974427E+03  0.7546771E-02  0.1151915E+00
         21   -1    0    0  502  501  0.00000000000E+00  0.00000000000E+00  0.13254832277E+03  0.13254832277E+03  0.00000000000E+00 0.  1.
         21   -1    0    0  501  502 -0.00000000000E+00 -0.00000000000E+00 -0.29410882320E+03  0.29410882320E+03  0.00000000000E+00 0.  1.
         25    1    1    2    0    0  0.13495085357E+03 -0.71697119153E+02 -0.78042306263E+02  0.21229180705E+03  0.12500000000E+03 0.  0.
         25    1    1    2    0    0 -0.13495085357E+03  0.71697119153E+02 -0.83518194160E+02  0.21436533892E+03  0.12500000000E+03 0.  0.
</event>
<event>
 4    0  0.2185218E-002  0.1783762E+03  0.7546771E-02  0.1169384E+00
         21   -1    0    0  502  501  0.00000000000E+00  0.00000000000E+00  0.44586405203E+02  0.44586405203E+02  0.00000000000E+00 0.  1.
         21   -1    0    0  501  502 -0.00000000000E+00 -0.00000000000E+00 -0.71362741423E+03  0.71362741423E+03  0.00000000000E+00 0.  1.
         25    1    1    2    0    0 -0.12169170121E+02 -0.29567791988E+01 -0.60365918240E+03  0.61659244217E+03  0.12500000000E+03 0.  0.
         25    1    1    2    0    0  0.12169170121E+02  0.29567791988E+01 -0.65381826627E+02  0.14162137726E+03  0.12500000000E+03 0.  0.
</event>
<event>
 4    0  0.2185218E-002  0.2582788E+03  0.7546771E-02  0.1108182E+00
         21   -1    0    0  502  501  0.00000000000E+00  0.00000000000E+00  0.62519165840E+03  0.62519165840E+03  0.00000000000E+00 0. -1.
         21   -1    0    0  501  502 -0.00000000000E+00 -0.00000000000E+00 -0.10669995968E+03  0.10669995968E+03  0.00000000000E+00 0. -1.
         25    1    1    2    0    0 -0.37804924830E+02 -0.10425106151E+03 -0.19791514322E+02  0.16826823885E+03  0.12500000000E+03 0.  0.
         25    1    1    2    0    0  0.37804924830E+02  0.10425106151E+03  0.53828321304E+03  0.56362337922E+03  0.12500000000E+03 0.  0.
</event>
<event>
 4    0  0.2185218E-002  0.2618233E+03  0.7546771E-02  0.1106053E+00
         21   -1    0    0  502  501  0.00000000000E+00  0.00000000000E+00  0.11675009150E+03  0.11675009150E+03  0.00000000000E+00 0. -1.
         21   -1    0    0  501  502 -0.00000000000E+00 -0.00000000000E+00 -0.58716385658E+03  0.58716385658E+03  0.00000000000E+00 0. -1.
         25    1    1    2    0    0 -0.18865046286E+03 -0.30418541369E+02 -0.62994636395E+02  0.23687044774E+03  0.12500000000E+03 0.  0.
         25    1    1    2    0    0  0.18865046286E+03  0.30418541369E+02 -0.40741912868E+03  0.46704350034E+03  0.12500000000E+03 0.  0.
</event>
<event>
 4    0  0.2185218E-002  0.1941405E+03  0.7546771E-02  0.1154779E+00
         21   -1    0    0  502  501  0.00000000000E+00  0.00000000000E+00  0.41479584640E+03  0.41479584640E+03  0.00000000000E+00 0.  1.
         21   -1    0    0  501  502 -0.00000000000E+00 -0.00000000000E+00 -0.90865255686E+02  0.90865255686E+02  0.00000000000E+00 0.  1.
         25    1    1    2    0    0 -0.41068066412E+02 -0.12017467711E+03  0.61620086679E+02  0.18854859898E+03  0.12500000000E+03 0.  0.
         25    1    1    2    0    0  0.41068066412E+02  0.12017467711E+03  0.26231050404E+03  0.31711250311E+03  0.12500000000E+03 0.  0.
</event>
<event>
 4    0  0.2185218E-002  0.1995670E+03  0.7546771E-02  0.1150105E+00
         21   -1    0    0  502  501  0.00000000000E+00  0.00000000000E+00  0.39884817023E+03  0.39884817023E+03  0.00000000000E+00 0. -1.
         21   -1    0    0  501  502 -0.00000000000E+00 -0.00000000000E+00 -0.99854962639E+02  0.99854962639E+02  0.00000000000E+00 0. -1.
         25    1    1    2    0    0 -0.12991536605E+01  0.15224202903E+03  0.18945298243E+03  0.27330707227E+03  0.12500000000E+03 0.  0.
         25    1    1    2    0    0  0.12991536605E+01 -0.15224202903E+03  0.10954022517E+03  0.22539606060E+03  0.12500000000E+03 0.  0.
</event>
<event>
 4    0  0.2185218E-002  0.2564015E+03  0.7546771E-02  0.1109325E+00
         21   -1    0    0  502  501  0.00000000000E+00  0.00000000000E+00  0.18233579042E+02  0.18233579042E+02  0.00000000000E+00 0. -1.
         21   -1    0    0  501  502 -0.00000000000E+00 -0.00000000000E+00 -0.36055315392E+04  0.36055315392E+04  0.00000000000E+00 0. -1.
         25    1    1    2    0    0  0.36336266140E+02 -0.12922489410E+03 -0.52761896944E+03  0.55859303111E+03  0.12500000000E+03 0.  0.
         25    1    1    2    0    0 -0.36336266140E+02  0.12922489410E+03 -0.30596789907E+04  0.30651720871E+04  0.12500000000E+03 0.  0.
</event>
<event>
 4    0  0.2185218E-002  0.1527546E+03  0.7546771E-02  0.1197128E+00
         21   -1    0    0  502  501  0.00000000000E+00  0.00000000000E+00  0.11396158369E+03  0.11396158369E+03  0.00000000000E+00 0. -1.
         21   -1    0    0  501  502 -0.00000000000E+00 -0.00000000000E+00 -0.20475296199E+03  0.20475296199E+03  0.00000000000E+00 0. -1.
         25    1    1    2    0    0  0.35090829327E+02 -0.80002416411E+02 -0.54562943931E+02  0.16196872471E+03  0.12500000000E+03 0.  0.
         25    1    1    2    0    0 -0.35090829327E+02  0.80002416411E+02 -0.36228434370E+02  0.15674582097E+03  0.12500000000E+03 0.  0.
</event>
<event>
 4    0  0.2185218E-002  0.6919012E+03  0.7546771E-02  0.9731183E-01
         21   -1    0    0  502  501  0.00000000000E+00  0.00000000000E+00  0.73792392426E+03  0.73792392426E+03  0.00000000000E+00 0. -1.
         21   -1    0    0  501  502 -0.00000000000E+00 -0.00000000000E+00 -0.64874890626E+03  0.64874890626E+03  0.00000000000E+00 0.  1.
         25    1    1    2    0    0  0.46885167156E+03  0.49271162648E+03  0.67343685432E+02  0.69479983359E+03  0.12500000000E+03 0.  0.
         25    1    1    2    0    0 -0.46885167156E+03 -0.49271162648E+03  0.21831332562E+02  0.69187299693E+03  0.12500000000E+03 0.  0.
</event>
<event>
 4    0  0.2185218E-002  0.1974515E+03  0.7546771E-02  0.1151907E+00
         21   -1    0    0  502  501  0.00000000000E+00  0.00000000000E+00  0.24308691862E+03  0.24308691862E+03  0.00000000000E+00 0.  1.
         21   -1    0    0  501  502 -0.00000000000E+00 -0.00000000000E+00 -0.16038329285E+03  0.16038329285E+03  0.00000000000E+00 0.  1.
         25    1    1    2    0    0 -0.80293242657E+02 -0.94235373566E+02  0.13293333303E+03  0.22050755424E+03  0.12500000000E+03 0.  0.
         25    1    1    2    0    0  0.80293242657E+02  0.94235373566E+02 -0.50229707262E+02  0.18296265723E+03  0.12500000000E+03 0.  0.
</event>
<event>
 4    0  0.2185218E-002  0.2414493E+03  0.7546771E-02  0.1118831E+00
         21   -1    0    0  502  501  0.00000000000E+00  0.00000000000E+00  0.67781613238E+02  0.67781613238E+02  0.00000000000E+00 0.  1.
         21   -1    0    0  501  502 -0.00000000000E+00 -0.00000000000E+00 -0.86008195189E+03  0.86008195189E+03  0.00000000000E+00 0.  1.
         25    1    1    2    0    0  0.39270000689E+02 -0.17450941975E+03 -0.19760728027E+03  0.29439651450E+03  0.12500000000E+03 0.  0.
         25    1    1    2    0    0 -0.39270000689E+02  0.17450941975E+03 -0.59469305839E+03  0.63346705063E+03  0.12500000000E+03 0.  0.
</event>
<event>
 4    0  0.2185218E-002  0.2217343E+03  0.7546771E-02  0.1132597E+00
         21   -1    0    0  502  501  0.00000000000E+00  0.00000000000E+00  0.17830690637E+03  0.17830690637E+03  0.00000000000E+00 0.  1.
         21   -1    0    0  501  502 -0.00000000000E+00 -0.00000000000E+00 -0.27573850215E+03  0.27573850215E+03  0.00000000000E+00 0.  1.
         25    1    1    2    0    0 -0.12680541254E+03 -0.10203992337E+03 -0.13467851566E+03  0.24546906362E+03  0.12500000000E+03 0.  0.
         25    1    1    2    0    0  0.12680541254E+03  0.10203992337E+03  0.37246919886E+02  0.20857634490E+03  0.12500000000E+03 0.  0.
</event>
<event>
 4    0  0.2185218E-002  0.2093778E+03  0.7546771E-02  0.1142060E+00
         21   -1    0    0  502  501  0.00000000000E+00  0.00000000000E+00  0.52161531252E+03  0.52161531252E+03  0.00000000000E+00 0.  1.
         21   -1    0    0  501  502 -0.00000000000E+00 -0.00000000000E+00 -0.84044805578E+02  0.84044805578E+02  0.00000000000E+00 0.  1.
         25    1    1    2    0    0  0.11973419924E+02 -0.14060873111E+03  0.35055152880E+03  0.39802707495E+03  0.12500000000E+03 0.  0.
         25    1    1    2    0    0 -0.11973419924E+02  0.14060873111E+03  0.87018978145E+02  0.20763304315E+03  0.12500000000E+03 0.  0.
</event>
<event>
 4    0  0.2185218E-002  0.2121077E+03  0.7546771E-02  0.1139908E+00
         21   -1    0    0  502  501  0.00000000000E+00  0.00000000000E+00  0.40665016902E+03  0.40665016902E+03  0.00000000000E+00 0. -1.
         21   -1    0    0  501  502 -0.00000000000E+00 -0.00000000000E+00 -0.11063483115E+03  0.11063483115E+03  0.00000000000E+00 0. -1.
         25    1    1    2    0    0 -0.15406400489E+03  0.42633390455E+02  0.72727108589E+02  0.21556334546E+03  0.12500000000E+03 0.  0.
         25    1    1    2    0    0  0.15406400489E+03 -0.42633390455E+02  0.22328822928E+03  0.30172165470E+03  0.12500000000E+03 0.  0.
</event>
<event>
 4    0  0.2185218E-002  0.1885058E+03  0.7546771E-02  0.1159816E+00
         21   -1    0    0  502  501  0.00000000000E+00  0.00000000000E+00  0.16150123644E+03  0.16150123644E+03  0.00000000000E+00 0.  1.
         21   -1    0    0  501  502 -0.00000000000E+00 -0.00000000000E+00 -0.22002581149E+03  0.22002581149E+03  0.00000000000E+00 0.  1.
         25    1    1    2    0    0  0.22240374813E+02  0.13891925651E+03 -0.18351388323E+02  0.18908983990E+03  0.12500000000E+03 0.  0.
         25    1    1    2    0    0 -0.22240374813E+02 -0.13891925651E+03 -0.40173186730E+02  0.19243720802E+03  0.12500000000E+03 0.  0.
</event>
<event>
 4    0  0.2185218E-002  0.2774150E+03  0.7546771E-02  0.1097109E+00
         21   -1    0    0  502  501  0.00000000000E+00  0.00000000000E+00  0.15790936795E+03  0.15790936795E+03  0.00000000000E+00 0.  1.
         21   -1    0    0  501  502 -0.00000000000E+00 -0.00000000000E+00 -0.48736233622E+03  0.48736233622E+03  0.00000000000E+00 0.  1.
         25    1    1    2    0    0  0.10524616478E+03 -0.12221575694E+03 -0.38329969360E+03  0.43423162202E+03  0.12500000000E+03 0.  0.
         25    1    1    2    0    0 -0.10524616478E+03  0.12221575694E+03  0.53846725334E+02  0.21104008215E+03  0.12500000000E+03 0.  0.
</event>
<event>
 4    0  0.2185218E-002  0.2361591E+03  0.7546771E-02  0.1122378E+00
         21   -1    0    0  502  501  0.00000000000E+00  0.00000000000E+00  0.69906845927E+03  0.69906845927E+03  0.00000000000E+00 0. -1.
         21   -1    0    0  501  502 -0.00000000000E+00 -0.00000000000E+00 -0.79779219673E+02  0.79779219673E+02  0.00000000000E+00 0. -1.
         25    1    1    2    0    0  0.39030550500E+02  0.16396592882E+03  0.13099031677E+03  0.24736950656E+03  0.12500000000E+03 0.  0.
         25    1    1    2    0    0 -0.39030550500E+02 -0.16396592882E+03  0.48829892283E+03  0.53147817239E+03  0.12500000000E+03 0.  0.
</event>
<event>
 4    0  0.2185218E-002  0.1805571E+03  0.7546771E-02  0.1167265E+00
         21   -1    0    0  502  501  0.00000000000E+00  0.00000000000E+00  0.76452938085E+02  0.76452938085E+02  0.00000000000E+00 0.  1.
         21   -1    0    0  501  502 -0.00000000000E+00 -0.00000000000E+00 -0.42641734483E+03  0.42641734483E+03  0.00000000000E+00 0.  1.
         25    1    1    2    0    0 -0.96477515728E+02  0.44710931426E+02 -0.70134214674E+02  0.17846788646E+03  0.12500000000E+03 0.  0.
         25    1    1    2    0    0  0.96477515728E+02 -0.44710931426E+02 -0.27983019207E+03  0.32440239645E+03  0.12500000000E+03 0.  0.
</event>
<event>
 4    0  0.2185218E-002  0.2053222E+03  0.7546771E-02  0.1145325E+00
         21   -1    0    0  502  501  0.00000000000E+00  0.00000000000E+00  0.73240192015E+02  0.73240192015E+02  0.00000000000E+00 0.  1.
         21   -1    0    0  501  502 -0.00000000000E+00 -0.00000000000E+00 -0.57560204418E+03  0.57560204418E+03  0.00000000000E+00 0.  1.
         25    1    1    2    0    0  0.12486524065E+03 -0.67241914010E+02 -0.37777706663E+03  0.42243735085E+03  0.12500000000E+03 0.  0.
         25    1    1    2    0    0 -0.12486524065E+03  0.67241914010E+02 -0.12458478554E+03  0.22640488535E+03  0.12500000000E+03 0.  0.
</event>
<event>
 4    0  0.2185218E-002  0.2117781E+03  0.7546771E-02  0.1140166E+00
         21   -1    0    0  502  501  0.00000000000E+00  0.00000000000E+00  0.76479630020E+03  0.76479630020E+03  0.00000000000E+00 0. -1.
         21   -1    0    0  501  502 -0.00000000000E+00 -0.00000000000E+00 -0.58642992365E+02  0.58642992365E+02  0.00000000000E+00 0. -1.
         25    1    1    2    0    0  0.64131297528E+02  0.12069022103E+03  0.55272436473E+03  0.58293067867E+03  0.12500000000E+03 0.  0.
         25    1    1    2    0    0 -0.64131297528E+02 -0.12069022103E+03  0.15342894311E+03  0.24050861389E+03  0.12500000000E+03 0.  0.
</event>
<event>
 4    0  0.2185218E-002  0.2159525E+03  0.7546771E-02  0.1136937E+00
         21   -1    0    0  502  501  0.00000000000E+00  0.00000000000E+00  0.58964901008E+03  0.58964901008E+03  0.00000000000E+00 0. -1.
         21   -1    0    0  501  502 -0.00000000000E+00 -0.00000000000E+00 -0.79090258267E+02  0.79090258267E+02  0.00000000000E+00 0. -1.
         25    1    1    2    0    0 -0.68902761276E+02  0.52737544774E+02  0.18014810615E+02  0.15322653994E+03  0.12500000000E+03 0.  0.
         25    1    1    2    0    0  0.68902761276E+02 -0.52737544774E+02  0.49254394120E+03  0.51551272841E+03  0.12500000000E+03 0.  0.
</event>
<event>
 4    0  0.2185218E-002  0.3053215E+03  0.7546771E-02  0.1082610E+00
         21   -1    0    0  502  501  0.00000000000E+00  0.00000000000E+00  0.62934277835E+02  0.62934277835E+02  0.00000000000E+00 0.  1.
         21   -1    0    0  501  502 -0.00000000000E+00 -0.00000000000E+00 -0.14812473641E+04  0.14812473641E+04  0.00000000000E+00 0.  1.
         25    1    1    2    0    0 -0.18114526361E+03  0.14430746191E+03 -0.11005703079E+04  0.11315998643E+04  0.12500000000E+03 0.  0.
         25    1    1    2    0    0  0.18114526361E+03 -0.14430746191E+03 -0.31774277834E+03  0.41258177769E+03  0.12500000000E+03 0.  0.
</event>
<event>
 4    0  0.2185218E-002  0.2582735E+03  0.7546771E-02  0.1108185E+00
         21   -1    0    0  502  501  0.00000000000E+00  0.00000000000E+00  0.11366303318E+03  0.11366303318E+03  0.00000000000E+00 0. -1.
         21   -1    0    0  501  502 -0.00000000000E+00 -0.00000000000E+00 -0.58686791955E+03  0.58686791955E+03  0.00000000000E+00 0. -1.
         25    1    1    2    0    0  0.14745795478E+03 -0.13632197457E+03 -0.37723162730E+03  0.44525973298E+03  0.12500000000E+03 0.  0.
         25    1    1    2    0    0 -0.14745795478E+03  0.13632197457E+03 -0.95973259064E+02  0.25527121975E+03  0.12500000000E+03 0.  0.
</event>
<event>
 4    0  0.2185218E-002  0.2069572E+03  0.7546771E-02  0.1143998E+00
         21   -1    0    0  502  501  0.00000000000E+00  0.00000000000E+00  0.70039390154E+02  0.70039390154E+02  0.00000000000E+00 0.  1.
         21   -1    0    0  501  502 -0.00000000000E+00 -0.00000000000E+00 -0.61153158547E+03  0.61153158547E+03  0.00000000000E+00 0.  1.
         25    1    1    2    0    0  0.11074281034E+03 -0.11938075458E+03 -0.22747452744E+03  0.30640723758E+03  0.12500000000E+03 0.  0.
         25    1    1    2    0    0 -0.11074281034E+03  0.11938075458E+03 -0.31401766787E+03  0.37516373804E+03  0.12500000000E+03 0.  0.
</event>
<event>
 4    0  0.2185218E-002  0.4469901E+03  0.7546771E-02  0.1028623E+00
         21   -1    0    0  502  501  0.00000000000E+00  0.00000000000E+00  0.20883239997E+03  0.20883239997E+03  0.00000000000E+00 0. -1.
         21   -1    0    0  501  502 -0.00000000000E+00 -0.00000000000E+00 -0.95674873193E+03  0.95674873193E+03  0.00000000000E+00 0. -1.
         25    1    1    2    0    0  0.42117955370E+03 -0.79524984545E+02 -0.40188207829E+03  0.60070845214E+03  0.12500000000E+03 0.  0.
         25    1    1    2    0    0 -0.42117955370E+03  0.79524984545E+02 -0.34603425368E+03  0.56487267976E+03  0.12500000000E+03 0.  0.
</event>
<event>
 4    0  0.2185218E-002  0.3099539E+03  0.7546771E-02  0.1080368E+00
         21   -1    0    0  502  501  0.00000000000E+00  0.00000000000E+00  0.75328845559E+03  0.75328845559E+03  0.00000000000E+00 0.  1.
         21   -1    0    0  501  502 -0.00000000000E+00 -0.00000000000E+00 -0.12753607198E+03  0.12753607198E+03  0.00000000000E+00 0. -1.
         25    1    1    2    0    0  0.27037683283E+03  0.79028345142E+02  0.26580743141E+03  0.40697383412E+03  0.12500000000E+03 0.  0.
         25    1    1    2    0    0 -0.27037683283E+03 -0.79028345142E+02  0.35994495219E+03  0.47385069344E+03  0.12500000000E+03 0.  0.
</event>
<event>
 4    0  0.2185218E-002  0.2226291E+03  0.7546771E-02  0.1131938E+00
         21   -1    0    0  502  501  0.00000000000E+00  0.00000000000E+00  0.12611514428E+03  0.12611514428E+03  0.00000000000E+00 0.  1.
         21   -1    0    0  501  502 -0.00000000000E+00 -0.00000000000E+00 -0.39300367709E+03  0.39300367709E+03  0.00000000000E+00 0.  1.
         25    1    1    2    0    0  0.77024314005E+02  0.16208639346E+03 -0.18199276853E+03  0.28451908845E+03  0.12500000000E+03 0.  0.
         25    1    1    2    0    0 -0.77024314005E+02 -0.16208639346E+03 -0.84895764286E+02  0.23459973292E+03  0.12500000000E+03 0.  0.
</event>
<event>
 4    0  0.2185218E-002  0.1773846E+03  0.7546771E-02  0.1170359E+00
         21   -1    0    0  502  501  0.00000000000E+00  0.00000000000E+00  0.33007986092E+03  0.33007986092E+03  0.00000000000E+00 0. -1.
         21   -1    0    0  501  502 -0.00000000000E+00 -0.00000000000E+00 -0.95326284859E+02  0.95326284859E+02  0.00000000000E+00 0. -1.
         25    1    1    2    0    0  0.57484173235E+02 -0.11138606612E+03  0.13099607507E+03  0.22021865857E+03  0.12500000000E+03 0.  0.
         25    1    1    2    0    0 -0.57484173235E+02  0.11138606612E+03  0.10375750100E+03  0.20518748722E+03  0.12500000000E+03 0.  0.
</event>
<event>
 4    0  0.2185218E-002  0.2891613E+03  0.7546771E-02  0.1090788E+00
         21   -1    0    0  502  501  0.00000000000E+00  0.00000000000E+00  0.23539960206E+03  0.23539960206E+03  0.00000000000E+00 0. -1.
         21   -1    0    0  501  502 -0.00000000000E+00 -0.00000000000E+00 -0.35520131888E+03  0.35520131888E+03  0.00000000000E+00 0. -1.
         25    1    1    2    0    0  0.17174129504E+03 -0.19350517424E+03 -0.26810386787E+02  0.28858815243E+03  0.12500000000E+03 0.  0.
         25    1    1    2    0    0 -0.17174129504E+03  0.19350517424E+03 -0.92991330030E+02  0.30201276851E+03  0.12500000000E+03 0.  0.
</event>
<event>
 4    0  0.2185218E-002  0.2956252E+03  0.7546771E-02  0.1087448E+00
         21   -1    0    0  502  501  0.00000000000E+00  0.00000000000E+00  0.13711174805E+03  0.13711174805E+03  0.00000000000E+00 0. -1.
         21   -1    0    0  501  502 -0.00000000000E+00 -0.00000000000E+00 -0.63739450383E+03  0.63739450383E+03  0.00000000000E+00 0. -1.
         25    1    1    2    0    0 -0.10674414327E+02 -0.19570214699E+02 -0.59985612339E+03  0.61314705022E+03  0.12500000000E+03 0.  0.
         25    1    1    2    0    0  0.10674414327E+02  0.19570214699E+02  0.99573367610E+02  0.16135920166E+03  0.12500000000E+03 0.  0.
</event>
<event>
 4    0  0.2185218E-002  0.1870431E+03  0.7546771E-02  0.1161156E+00
         21   -1    0    0  502  501  0.00000000000E+00  0.00000000000E+00  0.32037440294E+03  0.32037440294E+03  0.00000000000E+00 0.  1.
         21   -1    0    0  501  502 -0.00000000000E+00 -0.00000000000E+00 -0.10920069892E+03  0.10920069892E+03  0.00000000000E+00 0.  1.
         25    1    1    2    0    0 -0.11750192562E+03 -0.24760537011E+02  0.24873548964E+02  0.17510990879E+03  0.12500000000E+03 0.  0.
         25    1    1    2    0    0  0.11750192562E+03  0.24760537011E+02  0.18630015505E+03  0.25446519308E+03  0.12500000000E+03 0.  0.
</event>
<event>
 4    0  0.2185218E-002  0.1936839E+03  0.7546771E-02  0.1155180E+00
         21   -1    0    0  502  501  0.00000000000E+00  0.00000000000E+00  0.97708153457E+02  0.97708153457E+02  0.00000000000E+00 0. -1.
         21   -1    0    0  501  502 -0.00000000000E+00 -0.00000000000E+00 -0.38393355428E+03  0.38393355428E+03  0.00000000000E+00 0. -1.
         25    1    1    2    0    0  0.11170977901E+03 -0.92288439667E+02 -0.18025199629E+03  0.26289163736E+03  0.12500000000E+03 0.  0.
         25    1    1    2    0    0 -0.11170977901E+03  0.92288439667E+02 -0.10597340453E+03  0.21875007038E+03  0.12500000000E+03 0.  0.
</event>
<event>
 4    0  0.2185218E-002  0.2656104E+03  0.7546771E-02  0.1103818E+00
         21   -1    0    0  502  501  0.00000000000E+00  0.00000000000E+00  0.11782303492E+04  0.11782303492E+04  0.00000000000E+00 0.  1.
         21   -1    0    0  501  502 -0.00000000000E+00 -0.00000000000E+00 -0.59876984732E+02  0.59876984732E+02  0.00000000000E+00 0.  1.
         25    1    1    2    0    0 -0.65954505056E+02 -0.21819337058E+03  0.68609809710E+03  0.73369880915E+03  0.12500000000E+03 0.  0.
         25    1    1    2    0    0  0.65954505056E+02  0.21819337058E+03  0.43225526734E+03  0.50440852475E+03  0.12500000000E+03 0.  0.
</event>
<event>
 4    0  0.2185218E-002  0.2405399E+03  0.7546771E-02  0.1119434E+00
         21   -1    0    0  502  501  0.00000000000E+00  0.00000000000E+00  0.10953389788E+03  0.10953389788E+03  0.00000000000E+00 0. -1.
         21   -1    0    0  501  502 -0.00000000000E+00 -0.00000000000E+00 -0.52823332879E+03  0.52823332879E+03  0.00000000000E+00 0. -1.
         25    1    1    2    0    0 -0.17223950571E+03  0.29658110185E+02 -0.66024484336E+02  0.22478942003E+03  0.12500000000E+03 0.  0.
         25    1    1    2    0    0  0.17223950571E+03 -0.29658110185E+02 -0.35267494658E+03  0.41297780663E+03  0.12500000000E+03 0.  0.
</event>
<event>
 4    0  0.2185218E-002  0.1995368E+03  0.7546771E-02  0.1150130E+00
         21   -1    0    0  502  501  0.00000000000E+00  0.00000000000E+00  0.18167104611E+03  0.18167104611E+03  0.00000000000E+00 0.  1.
         21   -1    0    0  501  502 -0.00000000000E+00 -0.00000000000E+00 -0.21915940061E+03  0.21915940061E+03  0.00000000000E+00 0.  1.
         25    1    1    2    0    0 -0.41047183497E+02  0.14545564225E+03  0.18128511164E+02  0.19696664198E+03  0.12500000000E+03 0.  0.
         25    1    1    2    0    0  0.41047183497E+02 -0.14545564225E+03 -0.55616865662E+02  0.20386380473E+03  0.12500000000E+03 0.  0.
</event>
<event>
 4    0  0.2185218E-002  0.2308295E+03  0.7546771E-02  0.1126057E+00
         21   -1    0    0  502  501  0.00000000000E+00  0.00000000000E+00  0.43603864459E+03  0.43603864459E+03  0.00000000000E+00 0. -1.
         21   -1    0    0  501  502 -0.00000000000E+00 -0.00000000000E+00 -0.12219620537E+03  0.12219620537E+03  0.00000000000E+00 0. -1.
         25    1    1    2    0    0  0.16021846244E+03 -0.84666713807E+02  0.72981456869E+02  0.23192606835E+03  0.12500000000E+03 0.  0.
         25    1    1    2    0    0 -0.16021846244E+03  0.84666713807E+02  0.24086098235E+03  0.32630878161E+03  0.12500000000E+03 0.  0.
</event>
<event>
 4    0  0.2185218E-002  0.3442786E+03  0.7546771E-02  0.1064988E+00
         21   -1    0    0  502  501  0.00000000000E+00  0.00000000000E+00  0.83998040537E+02  0.83998040537E+02  0.00000000000E+00 0. -1.
         21   -1    0    0  501  502 -0.00000000000E+00 -0.00000000000E+00 -0.14110776863E+04  0.14110776863E+04  0.00000000000E+00 0.  1.
         25    1    1    2    0    0  0.96873974317E+01 -0.28790694073E+03 -0.35709551216E+03  0.47552755651E+03  0.12500000000E+03 0.  0.
         25    1    1    2    0    0 -0.96873974317E+01  0.28790694073E+03 -0.96998413359E+03  0.10195481703E+04  0.12500000000E+03 0.  0.
</event>
<event>
 4    0  0.2185218E-002  0.2136376E+03  0.7546771E-02  0.1138717E+00
         21   -1    0    0  502  501  0.00000000000E+00  0.00000000000E+00  0.50545809077E+02  0.50545809077E+02  0.00000000000E+00 0.  1.
         21   -1    0    0  501  502 -0.00000000000E+00 -0.00000000000E+00 -0.90296379582E+03  0.90296379582E+03  0.00000000000E+00 0.  1.
         25    1    1    2    0    0  0.96527685239E+02 -0.14041393391E+03 -0.35626432652E+03  0.41422570804E+03  0.12500000000E+03 0.  0.
         25    1    1    2    0    0 -0.96527685239E+02  0.14041393391E+03 -0.49615366022E+03  0.53928389685E+03  0.12500000000E+03 0.  0.
</event>
<event>
 4    0  0.2185218E-002  0.2033393E+03  0.7546771E-02  0.1146952E+00
         21   -1    0    0  502  501  0.00000000000E+00  0.00000000000E+00  0.16635481634E+03  0.16635481634E+03  0.00000000000E+00 0. -1.
         21   -1    0    0  501  502 -0.00000000000E+00 -0.00000000000E+00 -0.24854626349E+03  0.24854626349E+03  0.00000000000E+00 0. -1.
         25    1    1    2    0    0 -0.14925237508E+03  0.14177204447E+02 -0.99208827387E+02  0.21896268180E+03  0.12500000000E+03 0.  0.
         25    1    1    2    0    0  0.14925237508E+03 -0.14177204447E+02  0.17017380240E+02  0.19593839803E+03  0.12500000000E+03 0.  0.
</event>
<event>
 4    0  0.2185218E-002  0.2761191E+03  0.7546771E-02  0.1097828E+00
         21   -1    0    0  502  501  0.00000000000E+00  0.00000000000E+00  0.80339683527E+03  0.80339683527E+03  0.00000000000E+00 0.  1.
         21   -1    0    0  501  502 -0.00000000000E+00 -0.00000000000E+00 -0.94899242192E+02  0.94899242192E+02  0.00000000000E+00 0.  1.
         25    1    1    2    0    0  0.72470902557E+02  0.15765908278E+03  0.63836912909E+03  0.67323737499E+03  0.12500000000E+03 0.  0.
         25    1    1    2    0    0 -0.72470902557E+02 -0.15765908278E+03  0.70128463985E+02  0.22505870248E+03  0.12500000000E+03 0.  0.
</event>
<event>
 4    0  0.2185218E-002  0.3665249E+03  0.7546771E-02  0.1056030E+00
         21   -1    0    0  502  501  0.00000000000E+00  0.00000000000E+00  0.18867460842E+04  0.18867460842E+04  0.00000000000E+00 0.  1.
         21   -1    0    0  501  502 -0.00000000000E+00 -0.00000000000E+00 -0.71202212818E+02  0.71202212818E+02  0.00000000000E+00 0.  1.
         25    1    1    2    0    0 -0.22674118303E+03  0.19733402707E+03  0.45794498736E+03  0.56186376798E+03  0.12500000000E+03 0.  0.
         25    1    1    2    0    0  0.22674118303E+03 -0.19733402707E+03  0.13575988840E+04  0.13960845290E+04  0.12500000000E+03 0.  0.
</event>
<event>
 4    0  0.2185218E-002  0.3340274E+03  0.7546771E-02  0.1069369E+00
         21   -1    0    0  502  501  0.00000000000E+00  0.00000000000E+00  0.20459178526E+03  0.20459178526E+03  0.00000000000E+00 0.  1.
         21   -1    0    0  501  502 -0.00000000000E+00 -0.00000000000E+00 -0.54535090348E+03  0.54535090348E+03  0.00000000000E+00 0. -1.
         25    1    1    2    0    0 -0.83275004215E+02 -0.29541490427E+03 -0.12349101420E+03  0.35366611737E+03  0.12500000000E+03 0.  0.
         25    1    1    2    0    0  0.83275004215E+02  0.29541490427E+03 -0.21726810402E+03  0.39627657137E+03  0.12500000000E+03 0.  0.
</event>
<event>
 4    0  0.2185218E-002  0.1913939E+03  0.7546771E-02  0.1157210E+00
         21   -1    0    0  502  501  0.00000000000E+00  0.00000000000E+00  0.28966627961E+03  0.28966627961E+03  0.00000000000E+00 0. -1.
         21   -1    0    0  501  502 -0.00000000000E+00 -0.00000000000E+00 -0.12646144858E+03  0.12646144858E+03  0.00000000000E+00 0. -1.
         25    1    1    2    0    0 -0.14380253424E+03 -0.14573331196E+02  0.93263610178E+02  0.21263737164E+03  0.12500000000E+03 0.  0.
         25    1    1    2    0    0  0.14380253424E+03  0.14573331196E+02  0.69941220851E+02  0.20349035655E+03  0.12500000000E+03 0.  0.
</event>
<event>
 4    0  0.2185218E-002  0.2022745E+03  0.7546771E-02  0.1147834E+00
         21   -1    0    0  502  501  0.00000000000E+00  0.00000000000E+00  0.13586548395E+03  0.13586548395E+03  0.00000000000E+00 0. -1.
         21   -1    0    0  501  502 -0.00000000000E+00 -0.00000000000E+00 -0.30114310097E+03  0.30114310097E+03  0.00000000000E+00 0. -1.
         25    1    1    2    0    0  0.71436609693E+02 -0.13949226967E+03 -0.11179861131E+03  0.22953259462E+03  0.12500000000E+03 0.  0.
         25    1    1    2    0    0 -0.71436609693E+02  0.13949226967E+03 -0.53479005711E+02  0.20747599030E+03  0.12500000000E+03 0.  0.
</event>
<event>
 4    0  0.2185218E-002  0.2677135E+03  0.7546771E-02  0.1102595E+00
         21   -1    0    0  502  501  0.00000000000E+00  0.00000000000E+00  0.39276390859E+03  0.39276390859E+03  0.00000000000E+00 0. -1.
         21   -1    0    0  501  502 -0.00000000000E+00 -0.00000000000E+00 -0.18247735486E+03  0.18247735486E+03  0.00000000000E+00 0.  1.
         25    1    1    2    0    0  0.17453074349E+03  0.14554205109E+03  0.33861708037E+02  0.26156277321E+03  0.12500000000E+03 0.  0.
         25    1    1    2    0    0 -0.17453074349E+03 -0.14554205109E+03  0.17642484570E+03  0.31367849024E+03  0.12500000000E+03 0.  0.
</event>
<event>
 4    0  0.2185218E-002  0.4233184E+03  0.7546771E-02  0.1035992E+00
         21   -1    0    0  502  501  0.00000000000E+00  0.00000000000E+00  0.30029083208E+03  0.30029083208E+03  0.00000000000E+00 0.  1.
         21   -1    0    0  501  502 -0.00000000000E+00 -0.00000000000E+00 -0.59674975248E+03  0.59674975248E+03  0.00000000000E+00 0. -1.
         25    1    1    2    0    0  0.33555330470E+03 -0.13946803535E+03 -0.33635607607E+03  0.51069341399E+03  0.12500000000E+03 0.  0.
         25    1    1    2    0    0 -0.33555330470E+03  0.13946803535E+03  0.39897155666E+02  0.38634717057E+03  0.12500000000E+03 0.  0.
</event>
<event>
 4    0  0.2185218E-002  0.1911161E+03  0.7546771E-02  0.1157459E+00
         21   -1    0    0  502  501  0.00000000000E+00  0.00000000000E+00  0.30283012857E+03  0.30283012857E+03  0.00000000000E+00 0.  1.
         21   -1    0    0  501  502 -0.00000000000E+00 -0.00000000000E+00 -0.12061340121E+03  0.12061340121E+03  0.00000000000E+00 0.  1.
         25    1    1    2    0    0 -0.49375756816E+02 -0.40509089304E+02 -0.52572692466E+02  0.14989276057E+03  0.12500000000E+03 0.  0.
         25    1    1    2    0    0  0.49375756816E+02  0.40509089304E+02  0.23478941982E+03  0.27355076922E+03  0.12500000000E+03 0.  0.
</event>
<event>
 4    0  0.2185218E-002  0.2386473E+03  0.7546771E-02  0.1120697E+00
         21   -1    0    0  502  501  0.00000000000E+00  0.00000000000E+00  0.71758323017E+03  0.71758323017E+03  0.00000000000E+00 0.  1.
         21   -1    0    0  501  502 -0.00000000000E+00 -0.00000000000E+00 -0.79367156721E+02  0.79367156721E+02  0.00000000000E+00 0.  1.
         25    1    1    2    0    0 -0.17825445771E+03  0.62040180309E+02  0.44521262292E+03  0.49946262650E+03  0.12500000000E+03 0.  0.
         25    1    1    2    0    0  0.17825445771E+03 -0.62040180309E+02  0.19300345053E+03  0.29748776039E+03  0.12500000000E+03 0.  0.
</event>
<event>
 4    0  0.2185218E-002  0.1933991E+03  0.7546771E-02  0.1155431E+00
         21   -1    0    0  502  501  0.00000000000E+00  0.00000000000E+00  0.34534979584E+03  0.34534979584E+03  0.00000000000E+00 0. -1.
         21   -1    0    0  501  502 -0.00000000000E+00 -0.00000000000E+00 -0.10830530607E+03  0.10830530607E+03  0.00000000000E+00 0. -1.
         25    1    1    2    0    0  0.42720293625E+01  0.60608440770E+02  0.27625416348E+03  0.30924585068E+03  0.12500000000E+03 0.  0.
         25    1    1    2    0    0 -0.42720293625E+01 -0.60608440770E+02 -0.39209673704E+02  0.14440925123E+03  0.12500000000E+03 0.  0.
</event>
<event>
 4    0  0.2185218E-002  0.1748583E+03  0.7546771E-02  0.1172874E+00
         21   -1    0    0  502  501  0.00000000000E+00  0.00000000000E+00  0.61796894947E+02  0.61796894947E+02  0.00000000000E+00 0. -1.
         21   -1    0    0  501  502 -0.00000000000E+00 -0.00000000000E+00 -0.49477310409E+03  0.49477310409E+03  0.00000000000E+00 0. -1.
         25    1    1    2    0    0 -0.55478733676E+02  0.13713754619E+02 -0.38851969653E+03  0.41211468252E+03  0.12500000000E+03 0.  0.
         25    1    1    2    0    0  0.55478733676E+02 -0.13713754619E+02 -0.44456512612E+02  0.14445531652E+03  0.12500000000E+03 0.  0.
</event>
<event>
 4    0  0.2185218E-002  0.4282459E+03  0.7546771E-02  0.1034415E+00
         21   -1    0    0  502  501  0.00000000000E+00  0.00000000000E+00  0.12522670719E+04  0.12522670719E+04  0.00000000000E+00 0.  1.
         21   -1    0    0  501  502 -0.00000000000E+00 -0.00000000000E+00 -0.14645004840E+03  0.14645004840E+03  0.00000000000E+00 0.  1.
         25    1    1    2    0    0 -0.29746564660E+03 -0.23914786007E+03  0.31017776318E+03  0.50745714564E+03  0.12500000000E+03 0.  0.
         25    1    1    2    0    0  0.29746564660E+03  0.23914786007E+03  0.79563926032E+03  0.89125997467E+03  0.12500000000E+03 0.  0.
</event>
<event>
 4    0  0.2185218E-002  0.1888087E+03  0.7546771E-02  0.1159540E+00
         21   -1    0    0  502  501  0.00000000000E+00  0.00000000000E+00  0.86582363200E+02  0.86582363200E+02  0.00000000000E+00 0. -1.
         21   -1    0    0  501  502 -0.00000000000E+00 -0.00000000000E+00 -0.41173201363E+03  0.41173201363E+03  0.00000000000E+00 0. -1.
         25    1    1    2    0    0  0.26776190625E+01  0.13127623681E+03 -0.23219203771E+03  0.29458235245E+03  0.12500000000E+03 0.  0.
         25    1    1    2    0    0 -0.26776190625E+01 -0.13127623681E+03 -0.92957612713E+02  0.20373202438E+03  0.12500000000E+03 0.  0.
</event>
<event>
 4    0  0.2185218E-002  0.1708892E+03  0.7546771E-02  0.1176924E+00
         21   -1    0    0  502  501  0.00000000000E+00  0.00000000000E+00  0.15055443375E+03  0.15055443375E+03  0.00000000000E+00 0. -1.
         21   -1    0    0  501  502 -0.00000000000E+00 -0.00000000000E+00 -0.19397043561E+03  0.19397043561E+03  0.00000000000E+00 0. -1.
         25    1    1    2    0    0 -0.73311659328E+02  0.48158397321E+02 -0.99033484445E+02  0.18200676270E+03  0.12500000000E+03 0.  0.
         25    1    1    2    0    0  0.73311659328E+02 -0.48158397321E+02  0.55617482584E+02  0.16251810667E+03  0.12500000000E+03 0.  0.
</event>
<event>
 4    0  0.2185218E-002  0.3062302E+03  0.7546771E-02  0.1082167E+00
         21   -1    0    0  502  501  0.00000000000E+00  0.00000000000E+00  0.32188343010E+02  0.32188343010E+02  0.00000000000E+00 0. -1.
         21   -1    0    0  501  502 -0.00000000000E+00 -0.00000000000E+00 -0.29133827262E+04  0.29133827262E+04  0.00000000000E+00 0. -1.
         25    1    1    2    0    0 -0.11444420787E+03  0.15495258293E+02 -0.21618646972E+03  0.27513482047E+03  0.12500000000E+03 0.  0.
         25    1    1    2    0    0  0.11444420787E+03 -0.15495258293E+02 -0.26650079135E+04  0.26704362487E+04  0.12500000000E+03 0.  0.
</event>
<event>
 4    0  0.2185218E-002  0.1928885E+03  0.7546771E-02  0.1155882E+00
         21   -1    0    0  502  501  0.00000000000E+00  0.00000000000E+00  0.61713397307E+02  0.61713397307E+02  0.00000000000E+00 0. -1.
         21   -1    0    0  501  502 -0.00000000000E+00 -0.00000000000E+00 -0.60288294717E+03  0.60288294717E+03  0.00000000000E+00 0. -1.
         25    1    1    2    0    0 -0.83955841040E+02 -0.77205252107E+02 -0.43008295417E+03  0.46217483885E+03  0.12500000000E+03 0.  0.
         25    1    1    2    0    0  0.83955841040E+02  0.77205252107E+02 -0.11108659569E+03  0.20242150563E+03  0.12500000000E+03 0.  0.
</event>
<event>
 4    0  0.2185218E-002  0.1902245E+03  0.7546771E-02  0.1158259E+00
         21   -1    0    0  502  501  0.00000000000E+00  0.00000000000E+00  0.12659322897E+04  0.12659322897E+04  0.00000000000E+00 0.  1.
         21   -1    0    0  501  502 -0.00000000000E+00 -0.00000000000E+00 -0.28583949890E+02  0.28583949890E+02  0.00000000000E+00 0.  1.
         25    1    1    2    0    0 -0.20401773260E+02 -0.65100517205E+02  0.18954096452E+03  0.23707612052E+03  0.12500000000E+03 0.  0.
         25    1    1    2    0    0  0.20401773260E+02  0.65100517205E+02  0.10478073753E+04  0.10574401191E+04  0.12500000000E+03 0.  0.
</event>
<event>
 4    0  0.2185218E-002  0.2015023E+03  0.7546771E-02  0.1148478E+00
         21   -1    0    0  502  501  0.00000000000E+00  0.00000000000E+00  0.36358236349E+03  0.36358236349E+03  0.00000000000E+00 0.  1.
         21   -1    0    0  501  502 -0.00000000000E+00 -0.00000000000E+00 -0.11167532830E+03  0.11167532830E+03  0.00000000000E+00 0.  1.
         25    1    1    2    0    0 -0.54051742562E+02 -0.38749431130E+02  0.29502821590E+03  0.32724571420E+03  0.12500000000E+03 0.  0.
         25    1    1    2    0    0  0.54051742562E+02  0.38749431130E+02 -0.43121180706E+02  0.14801197760E+03  0.12500000000E+03 0.  0.
</event>
<event>
 4    0  0.2185218E-002  0.2464660E+03  0.7546771E-02  0.1115559E+00
         21   -1    0    0  502  501  0.00000000000E+00  0.00000000000E+00  0.44778630834E+03  0.44778630834E+03  0.00000000000E+00 0.  1.
         21   -1    0    0  501  502 -0.00000000000E+00 -0.00000000000E+00 -0.13565727805E+03  0.13565727805E+03  0.00000000000E+00 0.  1.
         25    1    1    2    0    0 -0.75682398788E+02  0.56144332845E+02  0.38138919961E+03  0.41226536742E+03  0.12500000000E+03 0.  0.
         25    1    1    2    0    0  0.75682398788E+02 -0.56144332845E+02 -0.69260169321E+02  0.17117821897E+03  0.12500000000E+03 0.  0.
</event>
<event>
 4    0  0.2185218E-002  0.2919294E+03  0.7546771E-02  0.1089346E+00
         21   -1    0    0  502  501  0.00000000000E+00  0.00000000000E+00  0.61616302070E+03  0.61616302070E+03  0.00000000000E+00 0.  1.
         21   -1    0    0  501  502 -0.00000000000E+00 -0.00000000000E+00 -0.13831205563E+03  0.13831205563E+03  0.00000000000E+00 0.  1.
         25    1    1    2    0    0  0.17455565287E+03 -0.35567504085E+02  0.49037156305E+03  0.53649230483E+03  0.12500000000E+03 0.  0.
         25    1    1    2    0    0 -0.17455565287E+03  0.35567504085E+02 -0.12520597978E+02  0.21798277150E+03  0.12500000000E+03 0.  0.
</event>
<event>
 4    0  0.2185218E-002  0.2933050E+03  0.7546771E-02  0.1088636E+00
         21   -1    0    0  502  501  0.00000000000E+00  0.00000000000E+00  0.54715794045E+03  0.54715794045E+03  0.00000000000E+00 0. -1.
         21   -1    0    0  501  502 -0.00000000000E+00 -0.00000000000E+00 -0.15722663102E+03  0.15722663102E+03  0.00000000000E+00 0. -1.
         25    1    1    2    0    0 -0.24724847127E+03 -0.44596441118E+00  0.79349398727E+02  0.28818975088E+03  0.12500000000E+03 0.  0.
         25    1    1    2    0    0  0.24724847127E+03  0.44596441118E+00  0.31058191070E+03  0.41619482059E+03  0.12500000000E+03 0.  0.
</event>
<event>
 4    0  0.2185218E-002  0.4517274E+03  0.7546771E-02  0.1027208E+00
         21   -1    0    0  502  501  0.00000000000E+00  0.00000000000E+00  0.64506850346E+03  0.64506850346E+03  0.00000000000E+00 0.  1.
         21   -1    0    0  501  502 -0.00000000000E+00 -0.00000000000E+00 -0.31633479226E+03  0.31633479226E+03  0.00000000000E+00 0.  1.
         25    1    1    2    0    0 -0.19299629149E+02 -0.41147109061E+03  0.18646820192E+02  0.43087543211E+03  0.12500000000E+03 0.  0.
         25    1    1    2    0    0  0.19299629149E+02  0.41147109061E+03  0.31008689101E+03  0.53052786361E+03  0.12500000000E+03 0.  0.
</event>
<event>
 4    0  0.2185218E-002  0.1882316E+03  0.7546771E-02  0.1160066E+00
         21   -1    0    0  502  501  0.00000000000E+00  0.00000000000E+00  0.18690255616E+03  0.18690255616E+03  0.00000000000E+00 0.  1.
         21   -1    0    0  501  502 -0.00000000000E+00 -0.00000000000E+00 -0.18957018639E+03  0.18957018639E+03  0.00000000000E+00 0.  1.
         25    1    1    2    0    0 -0.12711837628E+03  0.52992256974E+02 -0.30298166339E+02  0.18844160839E+03  0.12500000000E+03 0.  0.
         25    1    1    2    0    0  0.12711837628E+03 -0.52992256974E+02  0.27630536108E+02  0.18803113416E+03  0.12500000000E+03 0.  0.
</event>
<event>
 4    0  0.2185218E-002  0.2844067E+03  0.7546771E-02  0.1093306E+00
         21   -1    0    0  502  501  0.00000000000E+00  0.00000000000E+00  0.26971150736E+04  0.26971150736E+04  0.00000000000E+00 0. -1.
         21   -1    0    0  501  502 -0.00000000000E+00 -0.00000000000E+00 -0.29990248512E+02  0.29990248512E+02  0.00000000000E+00 0. -1.
         25    1    1    2    0    0 -0.10819124998E+03 -0.25853047568E+02  0.23097644590E+03  0.28521718953E+03  0.12500000000E+03 0.  0.
         25    1    1    2    0    0  0.10819124998E+03  0.25853047568E+02  0.24361483792E+04  0.24418881326E+04  0.12500000000E+03 0.  0.
</event>
<event>
 4    0  0.2185218E-002  0.6059681E+03  0.7546771E-02  0.9893101E-01
         21   -1    0    0  502  501  0.00000000000E+00  0.00000000000E+00  0.87719890483E+03  0.87719890483E+03  0.00000000000E+00 0. -1.
         21   -1    0    0  501  502 -0.00000000000E+00 -0.00000000000E+00 -0.41860218774E+03  0.41860218774E+03  0.00000000000E+00 0. -1.
         25    1    1    2    0    0  0.58540546830E+03  0.39778519354E+02  0.13800549059E+03  0.61559110483E+03  0.12500000000E+03 0.  0.
         25    1    1    2    0    0 -0.58540546830E+03 -0.39778519354E+02  0.32059122651E+03  0.68020998774E+03  0.12500000000E+03 0.  0.
</event>
<event>
 4    0  0.2185218E-002  0.2921151E+03  0.7546771E-02  0.1089250E+00
         21   -1    0    0  502  501  0.00000000000E+00  0.00000000000E+00  0.20678269434E+03  0.20678269434E+03  0.00000000000E+00 0. -1.
         21   -1    0    0  501  502 -0.00000000000E+00 -0.00000000000E+00 -0.41266133356E+03  0.41266133356E+03  0.00000000000E+00 0. -1.
         25    1    1    2    0    0  0.22444624056E+03 -0.13188606643E+03 -0.56285181644E+02  0.29421602793E+03  0.12500000000E+03 0.  0.
         25    1    1    2    0    0 -0.22444624056E+03  0.13188606643E+03 -0.14959345757E+03  0.32522799997E+03  0.12500000000E+03 0.  0.
</event>
<event>
 4    0  0.2185218E-002  0.2155721E+03  0.7546771E-02  0.1137228E+00
         21   -1    0    0  502  501  0.00000000000E+00  0.00000000000E+00  0.16374396512E+03  0.16374396512E+03  0.00000000000E+00 0.  1.
         21   -1    0    0  501  502 -0.00000000000E+00 -0.00000000000E+00 -0.28380476679E+03  0.28380476679E+03  0.00000000000E+00 0.  1.
         25    1    1    2    0    0  0.17494807564E+03  0.11935598640E+02 -0.70255586284E+02  0.22651740571E+03  0.12500000000E+03 0.  0.
         25    1    1    2    0    0 -0.17494807564E+03 -0.11935598640E+02 -0.49805215390E+02  0.22103132620E+03  0.12500000000E+03 0.  0.
</event>
<event>
 4    0  0.2185218E-002  0.1609672E+03  0.7546771E-02  0.1187609E+00
         21   -1    0    0  502  501  0.00000000000E+00  0.00000000000E+00  0.16765050449E+04  0.16765050449E+04  0.00000000000E+00 0.  1.
         21   -1    0    0  501  502 -0.00000000000E+00 -0.00000000000E+00 -0.15455039906E+02  0.15455039906E+02  0.00000000000E+00 0.  1.
         25    1    1    2    0    0  0.62422780274E+02  0.20811335329E+02  0.12361179388E+04  0.12441632826E+04  0.12500000000E+03 0.  0.
         25    1    1    2    0    0 -0.62422780274E+02 -0.20811335329E+02  0.42493206618E+03  0.44779680218E+03  0.12500000000E+03 0.  0.
</event>
<event>
 4    0  0.2185218E-002  0.1841021E+03  0.7546771E-02  0.1163891E+00
         21   -1    0    0  502  501  0.00000000000E+00  0.00000000000E+00  0.16379552726E+03  0.16379552726E+03  0.00000000000E+00 0. -1.
         21   -1    0    0  501  502 -0.00000000000E+00 -0.00000000000E+00 -0.20692607944E+03  0.20692607944E+03  0.00000000000E+00 0. -1.
         25    1    1    2    0    0  0.35629322761E+02 -0.10277903716E+03 -0.10233588513E+03  0.19475783041E+03  0.12500000000E+03 0.  0.
         25    1    1    2    0    0 -0.35629322761E+02  0.10277903716E+03  0.59205332949E+02  0.17596377630E+03  0.12500000000E+03 0.  0.
</event>
<event>
 4    0  0.2185218E-002  0.2149684E+03  0.7546771E-02  0.1137691E+00
         21   -1    0    0  502  501  0.00000000000E+00  0.00000000000E+00  0.53976064434E+02  0.53976064434E+02  0.00000000000E+00 0. -1.
         21   -1    0    0  501  502 -0.00000000000E+00 -0.00000000000E+00 -0.85614662789E+03  0.85614662789E+03  0.00000000000E+00 0. -1.
         25    1    1    2    0    0  0.15429270891E+03  0.77593265439E+02 -0.45942317915E+03  0.50647962684E+03  0.12500000000E+03 0.  0.
         25    1    1    2    0    0 -0.15429270891E+03 -0.77593265439E+02 -0.34274738431E+03  0.40364306549E+03  0.12500000000E+03 0.  0.
</event>
<event>
 4    0  0.2185218E-002  0.1893155E+03  0.7546771E-02  0.1159080E+00
         21   -1    0    0  502  501  0.00000000000E+00  0.00000000000E+00  0.27472316373E+03  0.27472316373E+03  0.00000000000E+00 0. -1.
         21   -1    0    0  501  502 -0.00000000000E+00 -0.00000000000E+00 -0.13045990675E+03  0.13045990675E+03  0.00000000000E+00 0. -1.
         25    1    1    2    0    0 -0.46139567128E+02  0.64298490595E+02 -0.54271118980E+02  0.15758651561E+03  0.12500000000E+03 0.  0.
         25    1    1    2    0    0  0.46139567128E+02 -0.64298490595E+02  0.19853437596E+03  0.24759655487E+03  0.12500000000E+03 0.  0.
</event>
<event>
 4    0  0.2185218E-002  0.1780867E+03  0.7546771E-02  0.1169668E+00
         21   -1    0    0  502  501  0.00000000000E+00  0.00000000000E+00  0.95628930857E+02  0.95628930857E+02  0.00000000000E+00 0. -1.
         21   -1    0    0  501  502 -0.00000000000E+00 -0.00000000000E+00 -0.33164505215E+03  0.33164505215E+03  0.00000000000E+00 0. -1.
         25    1    1    2    0    0  0.77232064613E+02  0.10057483301E+03 -0.11425783621E+03  0.21156545553E+03  0.12500000000E+03 0.  0.
         25    1    1    2    0    0 -0.77232064613E+02 -0.10057483301E+03 -0.12175828509E+03  0.21570852748E+03  0.12500000000E+03 0.  0.
</event>
<event>
 4    0  0.2185218E-002  0.2077007E+03  0.7546771E-02  0.1143400E+00
         21   -1    0    0  502  501  0.00000000000E+00  0.00000000000E+00  0.78031329171E+03  0.78031329171E+03  0.00000000000E+00 0.  1.
         21   -1    0    0  501  502 -0.00000000000E+00 -0.00000000000E+00 -0.55284969104E+02  0.55284969104E+02  0.00000000000E+00 0.  1.
         25    1    1    2    0    0 -0.12229190624E+03 -0.98989794505E+02  0.25683042813E+03  0.32609992113E+03  0.12500000000E+03 0.  0.
         25    1    1    2    0    0  0.12229190624E+03  0.98989794505E+02  0.46819789447E+03  0.50949833968E+03  0.12500000000E+03 0.  0.
</event>
<event>
 4    0  0.2185218E-002  0.2013598E+03  0.7546771E-02  0.1148597E+00
         21   -1    0    0  502  501  0.00000000000E+00  0.00000000000E+00  0.97213799079E+02  0.97213799079E+02  0.00000000000E+00 0.  1.
         21   -1    0    0  501  502 -0.00000000000E+00 -0.00000000000E+00 -0.41707834018E+03  0.41707834018E+03  0.00000000000E+00 0.  1.
         25    1    1    2    0    0 -0.14943184676E+03 -0.69786329672E+01 -0.95543330955E+02  0.21709930040E+03  0.12500000000E+03 0.  0.
         25    1    1    2    0    0  0.14943184676E+03  0.69786329672E+01 -0.22432121015E+03  0.29719283886E+03  0.12500000000E+03 0.  0.
</event>
<event>
 4    0  0.2185218E-002  0.2107413E+03  0.7546771E-02  0.1140980E+00
         21   -1    0    0  502  501  0.00000000000E+00  0.00000000000E+00  0.10518078958E+04  0.10518078958E+04  0.00000000000E+00 0.  1.
         21   -1    0    0  501  502 -0.00000000000E+00 -0.00000000000E+00 -0.42224323188E+02  0.42224323188E+02  0.00000000000E+00 0.  1.
         25    1    1    2    0    0 -0.13168289079E+03 -0.29653436151E+02  0.23796475139E+03  0.30078552643E+03  0.12500000000E+03 0.  0.
         25    1    1    2    0    0  0.13168289079E+03  0.29653436151E+02  0.77161882124E+03  0.79324669258E+03  0.12500000000E+03 0.  0.
</event>
<event>
 4    0  0.2185218E-002  0.1580011E+03  0.7546771E-02  0.1190972E+00
         21   -1    0    0  502  501  0.00000000000E+00  0.00000000000E+00  0.27941027016E+03  0.27941027016E+03  0.00000000000E+00 0. -1.
         21   -1    0    0  501  502 -0.00000000000E+00 -0.00000000000E+00 -0.89346523051E+02  0.89346523051E+02  0.00000000000E+00 0. -1.
         25    1    1    2    0    0  0.54831112827E+02 -0.50074458241E+02  0.16720746823E+03  0.22157896952E+03  0.12500000000E+03 0.  0.
         25    1    1    2    0    0 -0.54831112827E+02  0.50074458241E+02  0.22856278878E+02  0.14717782369E+03  0.12500000000E+03 0.  0.
</event>
<event>
 4    0  0.2185218E-002  0.2578836E+03  0.7546771E-02  0.1108422E+00
         21   -1    0    0  502  501  0.00000000000E+00  0.00000000000E+00  0.64632706786E+02  0.64632706786E+02  0.00000000000E+00 0.  1.
         21   -1    0    0  501  502 -0.00000000000E+00 -0.00000000000E+00 -0.10289519338E+04  0.10289519338E+04  0.00000000000E+00 0.  1.
         25    1    1    2    0    0  0.18859267030E+03 -0.50015185367E+02 -0.72214081951E+03  0.75840693382E+03  0.12500000000E+03 0.  0.
         25    1    1    2    0    0 -0.18859267030E+03  0.50015185367E+02 -0.24217840753E+03  0.33517770679E+03  0.12500000000E+03 0.  0.
</event>
<event>
 4    0  0.2185218E-002  0.1947744E+03  0.7546771E-02  0.1154224E+00
         21   -1    0    0  502  501  0.00000000000E+00  0.00000000000E+00  0.57427805600E+03  0.57427805600E+03  0.00000000000E+00 0. -1.
         21   -1    0    0  501  502 -0.00000000000E+00 -0.00000000000E+00 -0.66060447058E+02  0.66060447058E+02  0.00000000000E+00 0. -1.
         25    1    1    2    0    0 -0.80509875161E+02  0.17426509651E+02  0.45893482399E+03  0.48273356617E+03  0.12500000000E+03 0.  0.
         25    1    1    2    0    0  0.80509875161E+02 -0.17426509651E+02  0.49282784943E+02  0.15760493688E+03  0.12500000000E+03 0.  0.
</event>
<event>
 4    0  0.2185218E-002  0.1692943E+03  0.7546771E-02  0.1178586E+00
         21   -1    0    0  502  501  0.00000000000E+00  0.00000000000E+00  0.23580605385E+03  0.23580605385E+03  0.00000000000E+00 0. -1.
         21   -1    0    0  501  502 -0.00000000000E+00 -0.00000000000E+00 -0.12154288990E+03  0.12154288990E+03  0.00000000000E+00 0. -1.
         25    1    1    2    0    0  0.19012743143E+02  0.33862491739E+02  0.17044618152E+03  0.21490708118E+03  0.12500000000E+03 0.  0.
         25    1    1    2    0    0 -0.19012743143E+02 -0.33862491739E+02 -0.56183017561E+02  0.14244186256E+03  0.12500000000E+03 0.  0.
</event>
<event>
 4    0  0.2185218E-002  0.2259095E+03  0.7546771E-02  0.1129552E+00
         21   -1    0    0  502  501  0.00000000000E+00  0.00000000000E+00  0.96608717166E+03  0.96608717166E+03  0.00000000000E+00 0.  1.
         21   -1    0    0  501  502 -0.00000000000E+00 -0.00000000000E+00 -0.52826602094E+02  0.52826602094E+02  0.00000000000E+00 0.  1.
         25    1    1    2    0    0 -0.13232285784E+03  0.11586832050E+03  0.30576690469E+03  0.37423683197E+03  0.12500000000E+03 0.  0.
         25    1    1    2    0    0  0.13232285784E+03 -0.11586832050E+03  0.60749366488E+03  0.64467694179E+03  0.12500000000E+03 0.  0.
</event>
<event>
 4    0  0.2185218E-002  0.1758043E+03  0.7546771E-02  0.1171927E+00
         21   -1    0    0  502  501  0.00000000000E+00  0.00000000000E+00  0.19109747774E+02  0.19109747774E+02  0.00000000000E+00 0.  1.
         21   -1    0    0  501  502 -0.00000000000E+00 -0.00000000000E+00 -0.16173502613E+04  0.16173502613E+04  0.00000000000E+00 0.  1.
         25    1    1    2    0    0 -0.20567808169E+02 -0.72257903438E+02 -0.34220311089E+03  0.37198415080E+03  0.12500000000E+03 0.  0.
         25    1    1    2    0    0  0.20567808169E+02  0.72257903438E+02 -0.12560374027E+04  0.12644758583E+04  0.12500000000E+03 0.  0.
</event>
<event>
 4    0  0.2185218E-002  0.2801747E+03  0.7546771E-02  0.1095594E+00
         21   -1    0    0  502  501  0.00000000000E+00  0.00000000000E+00  0.30707099460E+03  0.30707099460E+03  0.00000000000E+00 0. -1.
         21   -1    0    0  501  502 -0.00000000000E+00 -0.00000000000E+00 -0.25563425412E+03  0.25563425412E+03  0.00000000000E+00 0. -1.
         25    1    1    2    0    0 -0.17235980951E+02 -0.24319004601E+03  0.84568398293E+02  0.28673209013E+03  0.12500000000E+03 0.  0.
         25    1    1    2    0    0  0.17235980951E+02  0.24319004601E+03 -0.33131657812E+02  0.27597315860E+03  0.12500000000E+03 0.  0.
</event>
<event>
 4    0  0.2185218E-002  0.2191579E+03  0.7546771E-02  0.1134512E+00
         21   -1    0    0  502  501  0.00000000000E+00  0.00000000000E+00  0.64222613016E+02  0.64222613016E+02  0.00000000000E+00 0. -1.
         21   -1    0    0  501  502 -0.00000000000E+00 -0.00000000000E+00 -0.74787031684E+03  0.74787031684E+03  0.00000000000E+00 0. -1.
         25    1    1    2    0    0  0.89764611173E+02 -0.13233881815E+03 -0.49498693809E+03  0.53498440827E+03  0.12500000000E+03 0.  0.
         25    1    1    2    0    0 -0.89764611173E+02  0.13233881815E+03 -0.18866076573E+03  0.27710852158E+03  0.12500000000E+03 0.  0.
</event>
<event>
 4    0  0.2185218E-002  0.1736387E+03  0.7546771E-02  0.1174105E+00
         21   -1    0    0  502  501  0.00000000000E+00  0.00000000000E+00  0.98401132174E+03  0.98401132174E+03  0.00000000000E+00 0. -1.
         21   -1    0    0  501  502 -0.00000000000E+00 -0.00000000000E+00 -0.30640305260E+02  0.30640305260E+02  0.00000000000E+00 0. -1.
         25    1    1    2    0    0  0.11805505917E+03 -0.14480765931E+02  0.41982664538E+03  0.45390098232E+03  0.12500000000E+03 0.  0.
         25    1    1    2    0    0 -0.11805505917E+03  0.14480765931E+02  0.53354437110E+03  0.56075064468E+03  0.12500000000E+03 0.  0.
</event>
<event>
 4    0  0.2185218E-002  0.1908878E+03  0.7546771E-02  0.1157663E+00
         21   -1    0    0  502  501  0.00000000000E+00  0.00000000000E+00  0.19286910851E+03  0.19286910851E+03  0.00000000000E+00 0.  1.
         21   -1    0    0  501  502 -0.00000000000E+00 -0.00000000000E+00 -0.18892675938E+03  0.18892675938E+03  0.00000000000E+00 0.  1.
         25    1    1    2    0    0  0.29080244897E+02 -0.40366817571E+02 -0.13345389880E+03  0.18949956124E+03  0.12500000000E+03 0.  0.
         25    1    1    2    0    0 -0.29080244897E+02  0.40366817571E+02  0.13739624793E+03  0.19229630665E+03  0.12500000000E+03 0.  0.
</event>
<event>
 4    0  0.2185218E-002  0.1859567E+03  0.7546771E-02  0.1162159E+00
         21   -1    0    0  502  501  0.00000000000E+00  0.00000000000E+00  0.16922524423E+03  0.16922524423E+03  0.00000000000E+00 0.  1.
         21   -1    0    0  501  502 -0.00000000000E+00 -0.00000000000E+00 -0.20434250186E+03  0.20434250186E+03  0.00000000000E+00 0.  1.
         25    1    1    2    0    0  0.56270375584E+02 -0.12393955269E+03 -0.38327686292E+02  0.18873626950E+03  0.12500000000E+03 0.  0.
         25    1    1    2    0    0 -0.56270375584E+02  0.12393955269E+03  0.32104286642E+01  0.18483147660E+03  0.12500000000E+03 0.  0.
</event>
<event>
 4    0  0.2185218E-002  0.3676420E+03  0.7546771E-02  0.1055598E+00
         21   -1    0    0  502  501  0.00000000000E+00  0.00000000000E+00  0.53718696293E+03  0.53718696293E+03  0.00000000000E+00 0.  1.
         21   -1    0    0  501  502 -0.00000000000E+00 -0.00000000000E+00 -0.25160820534E+03  0.25160820534E+03  0.00000000000E+00 0.  1.
         25    1    1    2    0    0 -0.10189651723E+03  0.31469653556E+03  0.25070254487E+03  0.43346692575E+03  0.12500000000E+03 0.  0.
         25    1    1    2    0    0  0.10189651723E+03 -0.31469653556E+03  0.34876212727E+02  0.35532824252E+03  0.12500000000E+03 0.  0.
</event>
<event>
 4    0  0.2185218E-002  0.3145236E+03  0.7546771E-02  0.1078198E+00
         21   -1    0    0  502  501  0.00000000000E+00  0.00000000000E+00  0.20710034707E+04  0.20710034707E+04  0.00000000000E+00 0. -1.
         21   -1    0    0  501  502 -0.00000000000E+00 -0.00000000000E+00 -0.47766736015E+02  0.47766736015E+02  0.00000000000E+00 0. -1.
         25    1    1    2    0    0 -0.14486520828E+03  0.16740492513E+03  0.16353284319E+04  0.16549726335E+04  0.12500000000E+03 0.  0.
         25    1    1    2    0    0  0.14486520828E+03 -0.16740492513E+03  0.38790830277E+03  0.46379757318E+03  0.12500000000E+03 0.  0.
</event>
<event>
 4    0  0.2185218E-002  0.2122544E+03  0.7546771E-02  0.1139793E+00
         21   -1    0    0  502  501  0.00000000000E+00  0.00000000000E+00  0.36358931809E+03  0.36358931809E+03  0.00000000000E+00 0.  1.
         21   -1    0    0  501  502 -0.00000000000E+00 -0.00000000000E+00 -0.12390882881E+03  0.12390882881E+03  0.00000000000E+00 0.  1.
         25    1    1    2    0    0 -0.99330445203E+02 -0.65317286616E+02 -0.22179072116E+02  0.17392468633E+03  0.12500000000E+03 0.  0.
         25    1    1    2    0    0  0.99330445203E+02  0.65317286616E+02  0.26185956140E+03  0.31357346057E+03  0.12500000000E+03 0.  0.
</event>
<event>
 4    0  0.2185218E-002  0.2332621E+03  0.7546771E-02  0.1124365E+00
         21   -1    0    0  502  501  0.00000000000E+00  0.00000000000E+00  0.90821427401E+02  0.90821427401E+02  0.00000000000E+00 0.  1.
         21   -1    0    0  501  502 -0.00000000000E+00 -0.00000000000E+00 -0.59910112681E+03  0.59910112681E+03  0.00000000000E+00 0.  1.
         25    1    1    2    0    0 -0.57854405816E+02  0.41318407295E+02 -0.52575023249E+03  0.54506206070E+03  0.12500000000E+03 0.  0.
         25    1    1    2    0    0  0.57854405816E+02 -0.41318407295E+02  0.17470533080E+02  0.14486049351E+03  0.12500000000E+03 0.  0.
</event>
<event>
 4    0  0.2185218E-002  0.3592486E+03  0.7546771E-02  0.1058882E+00
         21   -1    0    0  502  501  0.00000000000E+00  0.00000000000E+00  0.85933282765E+03  0.85933282765E+03  0.00000000000E+00 0.  1.
         21   -1    0    0  501  502 -0.00000000000E+00 -0.00000000000E+00 -0.15018576083E+03  0.15018576083E+03  0.00000000000E+00 0.  1.
         25    1    1    2    0    0 -0.18378527106E+03 -0.59027637506E+02 -0.33211045022E+02  0.23235589375E+03  0.12500000000E+03 0.  0.
         25    1    1    2    0    0  0.18378527106E+03  0.59027637506E+02  0.74235811185E+03  0.77716269472E+03  0.12500000000E+03 0.  0.
</event>
<event>
 4    0  0.2185218E-002  0.2007943E+03  0.7546771E-02  0.1149071E+00
         21   -1    0    0  502  501  0.00000000000E+00  0.00000000000E+00  0.17562489828E+02  0.17562489828E+02  0.00000000000E+00 0. -1.
         21   -1    0    0  501  502 -0.00000000000E+00 -0.00000000000E+00 -0.22957089815E+04  0.22957089815E+04  0.00000000000E+00 0. -1.
         25    1    1    2    0    0 -0.27290274879E+02 -0.15236750458E+03 -0.98314561358E+03  0.10030757265E+04  0.12500000000E+03 0.  0.
         25    1    1    2    0    0  0.27290274879E+02  0.15236750458E+03 -0.12950008781E+04  0.13101957448E+04  0.12500000000E+03 0.  0.
</event>
<event>
 4    0  0.2185218E-002  0.2719761E+03  0.7546771E-02  0.1100154E+00
         21   -1    0    0  502  501  0.00000000000E+00  0.00000000000E+00  0.31027754823E+03  0.31027754823E+03  0.00000000000E+00 0. -1.
         21   -1    0    0  501  502 -0.00000000000E+00 -0.00000000000E+00 -0.23840272873E+03  0.23840272873E+03  0.00000000000E+00 0.  1.
         25    1    1    2    0    0 -0.20134131242E+03 -0.12358064779E+03  0.86728967934E+02  0.28099361999E+03  0.12500000000E+03 0.  0.
         25    1    1    2    0    0  0.20134131242E+03  0.12358064779E+03 -0.14854148427E+02  0.26768665697E+03  0.12500000000E+03 0.  0.
</event>
<event>
 4    0  0.2185218E-002  0.2235826E+03  0.7546771E-02  0.1131240E+00
         21   -1    0    0  502  501  0.00000000000E+00  0.00000000000E+00  0.68826195799E+03  0.68826195799E+03  0.00000000000E+00 0.  1.
         21   -1    0    0  501  502 -0.00000000000E+00 -0.00000000000E+00 -0.72631013818E+02  0.72631013818E+02  0.00000000000E+00 0.  1.
         25    1    1    2    0    0 -0.41975040519E+02 -0.18023437061E+03  0.28934465243E+03  0.36550192923E+03  0.12500000000E+03 0.  0.
         25    1    1    2    0    0  0.41975040519E+02  0.18023437061E+03  0.32628629174E+03  0.39539104258E+03  0.12500000000E+03 0.  0.
</event>
<event>
 4    0  0.2185218E-002  0.3075894E+03  0.7546771E-02  0.1081507E+00
         21   -1    0    0  502  501  0.00000000000E+00  0.00000000000E+00  0.15571228832E+03  0.15571228832E+03  0.00000000000E+00 0. -1.
         21   -1    0    0  501  502 -0.00000000000E+00 -0.00000000000E+00 -0.60760284420E+03  0.60760284420E+03  0.00000000000E+00 0. -1.
         25    1    1    2    0    0  0.17938299014E+03 -0.22846127588E+02  0.41003221581E+02  0.22362125766E+03  0.12500000000E+03 0.  0.
         25    1    1    2    0    0 -0.17938299014E+03  0.22846127588E+02 -0.49289377746E+03  0.53969387486E+03  0.12500000000E+03 0.  0.
</event>
<event>
 4    0  0.2185218E-002  0.1867712E+03  0.7546771E-02  0.1161406E+00
         21   -1    0    0  502  501  0.00000000000E+00  0.00000000000E+00  0.16566998600E+02  0.16566998600E+02  0.00000000000E+00 0.  1.
         21   -1    0    0  501  502 -0.00000000000E+00 -0.00000000000E+00 -0.21056014486E+04  0.21056014486E+04  0.00000000000E+00 0.  1.
         25    1    1    2    0    0  0.81407756417E+02  0.49229929681E+02 -0.16185061814E+04  0.16261113332E+04  0.12500000000E+03 0.  0.
         25    1    1    2    0    0 -0.81407756417E+02 -0.49229929681E+02 -0.47052826857E+03  0.49605711395E+03  0.12500000000E+03 0.  0.
</event>
<event>
 4    0  0.2185218E-002  0.1991544E+03  0.7546771E-02  0.1150454E+00
         21   -1    0    0  502  501  0.00000000000E+00  0.00000000000E+00  0.96332613602E+02  0.96332613602E+02  0.00000000000E+00 0. -1.
         21   -1    0    0  501  502 -0.00000000000E+00 -0.00000000000E+00 -0.41172439840E+03  0.41172439840E+03  0.00000000000E+00 0. -1.
         25    1    1    2    0    0 -0.58893050299E+01  0.15475986470E+03 -0.14848128672E+03  0.24830826031E+03  0.12500000000E+03 0.  0.
         25    1    1    2    0    0  0.58893050299E+01 -0.15475986470E+03 -0.16691049808E+03  0.25974875169E+03  0.12500000000E+03 0.  0.
</event>
<event>
 4    0  0.2185218E-002  0.2490205E+03  0.7546771E-02  0.1113925E+00
         21   -1    0    0  502  501  0.00000000000E+00  0.00000000000E+00  0.78811689108E+02  0.78811689108E+02  0.00000000000E+00 0. -1.
         21   -1    0    0  501  502 -0.00000000000E+00 -0.00000000000E+00 -0.78682770209E+03  0.78682770209E+03  0.00000000000E+00 0. -1.
         25    1    1    2    0    0 -0.75073496797E+01 -0.18052816776E+03 -0.55773867101E+03  0.59945325489E+03  0.12500000000E+03 0.  0.
         25    1    1    2    0    0  0.75073496797E+01  0.18052816776E+03 -0.15027734197E+03  0.26618613631E+03  0.12500000000E+03 0.  0.
</event>
<event>
 4    0  0.2185218E-002  0.3300639E+03  0.7546771E-02  0.1071109E+00
         21   -1    0    0  502  501  0.00000000000E+00  0.00000000000E+00  0.29296346416E+03  0.29296346416E+03  0.00000000000E+00 0.  1.
         21   -1    0    0  501  502 -0.00000000000E+00 -0.00000000000E+00 -0.37186260820E+03  0.37186260820E+03  0.00000000000E+00 0.  1.
         25    1    1    2    0    0  0.13891040492E+03 -0.17008181065E+03  0.17441347823E+03  0.30703254599E+03  0.12500000000E+03 0.  0.
         25    1    1    2    0    0 -0.13891040492E+03  0.17008181065E+03 -0.25331262228E+03  0.35779352637E+03  0.12500000000E+03 0.  0.
</event>
<event>
 4    0  0.2185218E-002  0.1505706E+03  0.7546771E-02  0.1199774E+00
         21   -1    0    0  502  501  0.00000000000E+00  0.00000000000E+00  0.83180687697E+02  0.83180687697E+02  0.00000000000E+00 0.  1.
         21   -1    0    0  501  502 -0.00000000000E+00 -0.00000000000E+00 -0.27255717884E+03  0.27255717884E+03  0.00000000000E+00 0.  1.
         25    1    1    2    0    0 -0.33726711593E+02 -0.62908584068E+02 -0.42503243074E+02  0.15008832965E+03  0.12500000000E+03 0.  0.
         25    1    1    2    0    0  0.33726711593E+02  0.62908584068E+02 -0.14687324806E+03  0.20564953689E+03  0.12500000000E+03 0.  0.
</event>
<event>
 4    0  0.2185218E-002  0.1989244E+03  0.7546771E-02  0.1150650E+00
         21   -1    0    0  502  501  0.00000000000E+00  0.00000000000E+00  0.59700543168E+03  0.59700543168E+03  0.00000000000E+00 0. -1.
         21   -1    0    0  501  502 -0.00000000000E+00 -0.00000000000E+00 -0.66282367290E+02  0.66282367290E+02  0.00000000000E+00 0. -1.
         25    1    1    2    0    0 -0.13990697080E+03  0.44862611414E+02  0.18438164060E+03  0.26684865331E+03  0.12500000000E+03 0.  0.
         25    1    1    2    0    0  0.13990697080E+03 -0.44862611414E+02  0.34634142379E+03  0.39643914566E+03  0.12500000000E+03 0.  0.
</event>
<event>
 4    0  0.2185218E-002  0.2639892E+03  0.7546771E-02  0.1104770E+00
         21   -1    0    0  502  501  0.00000000000E+00  0.00000000000E+00  0.46517622781E+03  0.46517622781E+03  0.00000000000E+00 0. -1.
         21   -1    0    0  501  502 -0.00000000000E+00 -0.00000000000E+00 -0.14981482528E+03  0.14981482528E+03  0.00000000000E+00 0. -1.
         25    1    1    2    0    0 -0.39590157332E+02 -0.22560141929E+03  0.11106069845E+03  0.28358924466E+03  0.12500000000E+03 0.  0.
         25    1    1    2    0    0  0.39590157332E+02  0.22560141929E+03  0.20430070408E+03  0.33140180843E+03  0.12500000000E+03 0.  0.
</event>
<event>
 4    0  0.2185218E-002  0.2080234E+03  0.7546771E-02  0.1143141E+00
         21   -1    0    0  502  501  0.00000000000E+00  0.00000000000E+00  0.13386337614E+04  0.13386337614E+04  0.00000000000E+00 0. -1.
         21   -1    0    0  501  502 -0.00000000000E+00 -0.00000000000E+00 -0.32326781213E+02  0.32326781213E+02  0.00000000000E+00 0. -1.
         25    1    1    2    0    0  0.42995510869E+02 -0.45813381684E+01  0.11822280376E+04  0.11896040247E+04  0.12500000000E+03 0.  0.
         25    1    1    2    0    0 -0.42995510869E+02  0.45813381684E+01  0.12407894264E+03  0.18135651800E+03  0.12500000000E+03 0.  0.
</event>
<event>
 4    0  0.2185218E-002  0.1902799E+03  0.7546771E-02  0.1158209E+00
         21   -1    0    0  502  501  0.00000000000E+00  0.00000000000E+00  0.21923399958E+02  0.21923399958E+02  0.00000000000E+00 0. -1.
         21   -1    0    0  501  502 -0.00000000000E+00 -0.00000000000E+00 -0.16514967334E+04  0.16514967334E+04  0.00000000000E+00 0. -1.
         25    1    1    2    0    0  0.12775441066E+03  0.21957988810E+02 -0.10850690851E+04  0.10999105701E+04  0.12500000000E+03 0.  0.
         25    1    1    2    0    0 -0.12775441066E+03 -0.21957988810E+02 -0.54450424831E+03  0.57350956326E+03  0.12500000000E+03 0.  0.
</event>
<event>
 4    0  0.2185218E-002  0.1991397E+03  0.7546771E-02  0.1150467E+00
         21   -1    0    0  502  501  0.00000000000E+00  0.00000000000E+00  0.11615566283E+03  0.11615566283E+03  0.00000000000E+00 0. -1.
         21   -1    0    0  501  502 -0.00000000000E+00 -0.00000000000E+00 -0.34140933047E+03  0.34140933047E+03  0.00000000000E+00 0. -1.
         25    1    1    2    0    0  0.12413352078E+03 -0.48340470508E+02 -0.21542945826E+02  0.18394300907E+03  0.12500000000E+03 0.  0.
         25    1    1    2    0    0 -0.12413352078E+03  0.48340470508E+02 -0.20371072181E+03  0.27362198423E+03  0.12500000000E+03 0.  0.
</event>
<event>
 4    0  0.2185218E-002  0.1981582E+03  0.7546771E-02  0.1151302E+00
         21   -1    0    0  502  501  0.00000000000E+00  0.00000000000E+00  0.16392481665E+02  0.16392481665E+02  0.00000000000E+00 0. -1.
         21   -1    0    0  501  502 -0.00000000000E+00 -0.00000000000E+00 -0.23954070666E+04  0.23954070666E+04  0.00000000000E+00 0. -1.
         25    1    1    2    0    0 -0.12355492898E+03 -0.85078656883E+02 -0.13947505069E+04  0.14083530008E+04  0.12500000000E+03 0.  0.
         25    1    1    2    0    0  0.12355492898E+03  0.85078656883E+02 -0.98426407799E+03  0.10034465474E+04  0.12500000000E+03 0.  0.
</event>
<event>
 4    0  0.2185218E-002  0.2052175E+03  0.7546771E-02  0.1145410E+00
         21   -1    0    0  502  501  0.00000000000E+00  0.00000000000E+00  0.28295852866E+03  0.28295852866E+03  0.00000000000E+00 0. -1.
         21   -1    0    0  501  502 -0.00000000000E+00 -0.00000000000E+00 -0.14883536001E+03  0.14883536001E+03  0.00000000000E+00 0. -1.
         25    1    1    2    0    0  0.93939029576E+02  0.13279012247E+03  0.61159222890E+02  0.21406356170E+03  0.12500000000E+03 0.  0.
         25    1    1    2    0    0 -0.93939029576E+02 -0.13279012247E+03  0.72963945761E+02  0.21773032697E+03  0.12500000000E+03 0.  0.
</event>
<event>
 4    0  0.2185218E-002  0.2204220E+03  0.7546771E-02  0.1133569E+00
         21   -1    0    0  502  501  0.00000000000E+00  0.00000000000E+00  0.35196342739E+03  0.35196342739E+03  0.00000000000E+00 0.  1.
         21   -1    0    0  501  502 -0.00000000000E+00 -0.00000000000E+00 -0.13804230286E+03  0.13804230286E+03  0.00000000000E+00 0.  1.
         25    1    1    2    0    0  0.15502967073E+03 -0.42650457888E+02  0.13252442126E+02  0.20409284061E+03  0.12500000000E+03 0.  0.
         25    1    1    2    0    0 -0.15502967073E+03  0.42650457888E+02  0.20066868241E+03  0.28591288964E+03  0.12500000000E+03 0.  0.
</event>
<event>
 4    0  0.2185218E-002  0.1843665E+03  0.7546771E-02  0.1163643E+00
         21   -1    0    0  502  501  0.00000000000E+00  0.00000000000E+00  0.27015388405E+03  0.27015388405E+03  0.00000000000E+00 0.  1.
         21   -1    0    0  501  502 -0.00000000000E+00 -0.00000000000E+00 -0.12582087374E+03  0.12582087374E+03  0.00000000000E+00 0.  1.
         25    1    1    2    0    0 -0.47826478041E+02  0.66077839190E+02  0.18838559668E+03  0.24034929971E+03  0.12500000000E+03 0.  0.
         25    1    1    2    0    0  0.47826478041E+02 -0.66077839190E+02 -0.44052586377E+02  0.15562545807E+03  0.12500000000E+03 0.  0.
</event>
<event>
 4    0  0.2185218E-002  0.1776146E+03  0.7546771E-02  0.1170132E+00
         21   -1    0    0  502  501  0.00000000000E+00  0.00000000000E+00  0.17817644406E+03  0.17817644406E+03  0.00000000000E+00 0.  1.
         21   -1    0    0  501  502 -0.00000000000E+00 -0.00000000000E+00 -0.17705444795E+03  0.17705444795E+03  0.00000000000E+00 0.  1.
         25    1    1    2    0    0 -0.23444300583E+01 -0.55551935306E+02 -0.11271100234E+03  0.17725767661E+03  0.12500000000E+03 0.  0.
         25    1    1    2    0    0  0.23444300583E+01  0.55551935306E+02  0.11383299844E+03  0.17797321541E+03  0.12500000000E+03 0.  0.
</event>
<event>
 4    0  0.2185218E-002  0.3162995E+03  0.7546771E-02  0.1077365E+00
         21   -1    0    0  502  501  0.00000000000E+00  0.00000000000E+00  0.18460243769E+03  0.18460243769E+03  0.00000000000E+00 0. -1.
         21   -1    0    0  501  502 -0.00000000000E+00 -0.00000000000E+00 -0.54195055864E+03  0.54195055864E+03  0.00000000000E+00 0. -1.
         25    1    1    2    0    0  0.25462598632E+02  0.54523915246E+02  0.14779517639E+03  0.20270573605E+03  0.12500000000E+03 0.  0.
         25    1    1    2    0    0 -0.25462598632E+02 -0.54523915246E+02 -0.50514329733E+03  0.52384726028E+03  0.12500000000E+03 0.  0.
</event>
<event>
 4    0  0.2185218E-002  0.3329838E+03  0.7546771E-02  0.1069824E+00
         21   -1    0    0  502  501  0.00000000000E+00  0.00000000000E+00  0.81451009060E+03  0.81451009060E+03  0.00000000000E+00 0. -1.
         21   -1    0    0  501  502 -0.00000000000E+00 -0.00000000000E+00 -0.13612870458E+03  0.13612870458E+03  0.00000000000E+00 0. -1.
         25    1    1    2    0    0 -0.28744611177E+03 -0.86227660275E+02  0.23632745526E+03  0.40191559149E+03  0.12500000000E+03 0.  0.
         25    1    1    2    0    0  0.28744611177E+03  0.86227660275E+02  0.44205393076E+03  0.54872320369E+03  0.12500000000E+03 0.  0.
</event>
<event>
 4    0  0.2185218E-002  0.1893893E+03  0.7546771E-02  0.1159013E+00
         21   -1    0    0  502  501  0.00000000000E+00  0.00000000000E+00  0.53099551811E+03  0.53099551811E+03  0.00000000000E+00 0.  1.
         21   -1    0    0  501  502 -0.00000000000E+00 -0.00000000000E+00 -0.67549154388E+02  0.67549154388E+02  0.00000000000E+00 0.  1.
         25    1    1    2    0    0 -0.32285721741E+02 -0.13036042348E+03  0.15748603915E+03  0.24179135710E+03  0.12500000000E+03 0.  0.
         25    1    1    2    0    0  0.32285721741E+02  0.13036042348E+03  0.30596032456E+03  0.35675331540E+03  0.12500000000E+03 0.  0.
</event>
<event>
 4    0  0.2185218E-002  0.1552936E+03  0.7546771E-02  0.1194115E+00
         21   -1    0    0  502  501  0.00000000000E+00  0.00000000000E+00  0.51060068512E+02  0.51060068512E+02  0.00000000000E+00 0. -1.
         21   -1    0    0  501  502 -0.00000000000E+00 -0.00000000000E+00 -0.47230870435E+03  0.47230870435E+03  0.00000000000E+00 0. -1.
         25    1    1    2    0    0  0.36553443902E+02  0.93504107790E+01 -0.68960813496E+02  0.14766237923E+03  0.12500000000E+03 0.  0.
         25    1    1    2    0    0 -0.36553443902E+02 -0.93504107790E+01 -0.35228782234E+03  0.37570639363E+03  0.12500000000E+03 0.  0.
</event>
<event>
 4    0  0.2185218E-002  0.5256355E+03  0.7546771E-02  0.1007296E+00
         21   -1    0    0  502  501  0.00000000000E+00  0.00000000000E+00  0.81361502987E+03  0.81361502987E+03  0.00000000000E+00 0. -1.
         21   -1    0    0  501  502 -0.00000000000E+00 -0.00000000000E+00 -0.33958644155E+03  0.33958644155E+03  0.00000000000E+00 0. -1.
         25    1    1    2    0    0  0.23361975490E+03  0.43876286023E+03  0.36483051642E+03  0.62914016173E+03  0.12500000000E+03 0.  0.
         25    1    1    2    0    0 -0.23361975490E+03 -0.43876286023E+03  0.10919807190E+03  0.52406130968E+03  0.12500000000E+03 0.  0.
</event>
<event>
 4    0  0.2185218E-002  0.2273324E+03  0.7546771E-02  0.1128532E+00
         21   -1    0    0  502  501  0.00000000000E+00  0.00000000000E+00  0.10496954000E+03  0.10496954000E+03  0.00000000000E+00 0. -1.
         21   -1    0    0  501  502 -0.00000000000E+00 -0.00000000000E+00 -0.49233332179E+03  0.49233332179E+03  0.00000000000E+00 0. -1.
         25    1    1    2    0    0  0.80383203935E+02 -0.17202391041E+03 -0.19518957417E+03  0.29962919600E+03  0.12500000000E+03 0.  0.
         25    1    1    2    0    0 -0.80383203935E+02  0.17202391041E+03 -0.19217420762E+03  0.29767366579E+03  0.12500000000E+03 0.  0.
</event>
<event>
 4    0  0.2185218E-002  0.1405722E+03  0.7546771E-02  0.1212561E+00
         21   -1    0    0  502  501  0.00000000000E+00  0.00000000000E+00  0.30791492669E+02  0.30791492669E+02  0.00000000000E+00 0.  1.
         21   -1    0    0  501  502 -0.00000000000E+00 -0.00000000000E+00 -0.64175373841E+03  0.64175373841E+03  0.00000000000E+00 0.  1.
         25    1    1    2    0    0  0.42461300822E+02 -0.45657926681E+02 -0.34314903310E+03  0.37049138621E+03  0.12500000000E+03 0.  0.
         25    1    1    2    0    0 -0.42461300822E+02  0.45657926681E+02 -0.26781321264E+03  0.30205384487E+03  0.12500000000E+03 0.  0.
</event>
<event>
 4    0  0.2185218E-002  0.2559918E+03  0.7546771E-02  0.1109576E+00
         21   -1    0    0  502  501  0.00000000000E+00  0.00000000000E+00  0.14575145158E+03  0.14575145158E+03  0.00000000000E+00 0.  1.
         21   -1    0    0  501  502 -0.00000000000E+00 -0.00000000000E+00 -0.44961354335E+03  0.44961354335E+03  0.00000000000E+00 0. -1.
         25    1    1    2    0    0 -0.10472526898E+03 -0.19713196851E+03 -0.14163257438E+03  0.29242636868E+03  0.12500000000E+03 0.  0.
         25    1    1    2    0    0  0.10472526898E+03  0.19713196851E+03 -0.16222951738E+03  0.30293862626E+03  0.12500000000E+03 0.  0.
</event>
<event>
 4    0  0.2185218E-002  0.2961258E+03  0.7546771E-02  0.1087193E+00
         21   -1    0    0  502  501  0.00000000000E+00  0.00000000000E+00  0.53495779396E+03  0.53495779396E+03  0.00000000000E+00 0. -1.
         21   -1    0    0  501  502 -0.00000000000E+00 -0.00000000000E+00 -0.16392038231E+03  0.16392038231E+03  0.00000000000E+00 0. -1.
         25    1    1    2    0    0 -0.26992930977E+01 -0.17342861055E+03  0.42729859285E+03  0.47780106382E+03  0.12500000000E+03 0.  0.
         25    1    1    2    0    0  0.26992930977E+01  0.17342861055E+03 -0.56261181198E+02  0.22107711245E+03  0.12500000000E+03 0.  0.
</event>
<event>
 4    0  0.2185218E-002  0.1970051E+03  0.7546771E-02  0.1152291E+00
         21   -1    0    0  502  501  0.00000000000E+00  0.00000000000E+00  0.14747062200E+04  0.14747062200E+04  0.00000000000E+00 0. -1.
         21   -1    0    0  501  502 -0.00000000000E+00 -0.00000000000E+00 -0.26317783749E+02  0.26317783749E+02  0.00000000000E+00 0. -1.
         25    1    1    2    0    0 -0.12520356866E+03  0.44444156715E+02  0.44077420303E+03  0.47703051760E+03  0.12500000000E+03 0.  0.
         25    1    1    2    0    0  0.12520356866E+03 -0.44444156715E+02  0.10076142333E+04  0.10239934862E+04  0.12500000000E+03 0.  0.
</event>
<event>
 4    0  0.2185218E-002  0.2408317E+03  0.7546771E-02  0.1119240E+00
         21   -1    0    0  502  501  0.00000000000E+00  0.00000000000E+00  0.53046578759E+03  0.53046578759E+03  0.00000000000E+00 0.  1.
         21   -1    0    0  501  502 -0.00000000000E+00 -0.00000000000E+00 -0.10933771007E+03  0.10933771007E+03  0.00000000000E+00 0.  1.
         25    1    1    2    0    0 -0.17295112517E+03  0.95949062504E+02  0.13476125411E+03  0.27000724046E+03  0.12500000000E+03 0.  0.
         25    1    1    2    0    0  0.17295112517E+03 -0.95949062504E+02  0.28636682341E+03  0.36979625720E+03  0.12500000000E+03 0.  0.
</event>
<event>
 4    0  0.2185218E-002  0.2237761E+03  0.7546771E-02  0.1131099E+00
         21   -1    0    0  502  501  0.00000000000E+00  0.00000000000E+00  0.94381284529E+02  0.94381284529E+02  0.00000000000E+00 0. -1.
         21   -1    0    0  501  502 -0.00000000000E+00 -0.00000000000E+00 -0.53056877099E+03  0.53056877099E+03  0.00000000000E+00 0. -1.
         25    1    1    2    0    0  0.30164152682E+02  0.11166470733E+03 -0.15394015656E+02  0.17099958681E+03  0.12500000000E+03 0.  0.
         25    1    1    2    0    0 -0.30164152682E+02 -0.11166470733E+03 -0.42079347080E+03  0.45395046871E+03  0.12500000000E+03 0.  0.
</event>
<event>
 4    0  0.2185218E-002  0.2214373E+03  0.7546771E-02  0.1132816E+00
         21   -1    0    0  502  501  0.00000000000E+00  0.00000000000E+00  0.66695627246E+02  0.66695627246E+02  0.00000000000E+00 0.  1.
         21   -1    0    0  501  502 -0.00000000000E+00 -0.00000000000E+00 -0.73519765039E+03  0.73519765039E+03  0.00000000000E+00 0.  1.
         25    1    1    2    0    0  0.41734859397E+02  0.11234557451E+03 -0.84366494237E+02  0.19262926037E+03  0.12500000000E+03 0.  0.
         25    1    1    2    0    0 -0.41734859397E+02 -0.11234557451E+03 -0.58413552890E+03  0.60926401726E+03  0.12500000000E+03 0.  0.
</event>
<event>
 4    0  0.2185218E-002  0.2269122E+03  0.7546771E-02  0.1128832E+00
         21   -1    0    0  502  501  0.00000000000E+00  0.00000000000E+00  0.64926820949E+02  0.64926820949E+02  0.00000000000E+00 0. -1.
         21   -1    0    0  501  502 -0.00000000000E+00 -0.00000000000E+00 -0.79303346571E+03  0.79303346571E+03  0.00000000000E+00 0. -1.
         25    1    1    2    0    0 -0.54009038904E+02  0.17241499359E+03 -0.47133441362E+03  0.52002407229E+03  0.12500000000E+03 0.  0.
         25    1    1    2    0    0  0.54009038904E+02 -0.17241499359E+03 -0.25677223114E+03  0.33793621437E+03  0.12500000000E+03 0.  0.
</event>
<event>
 4    0  0.2185218E-002  0.2031162E+03  0.7546771E-02  0.1147136E+00
         21   -1    0    0  502  501  0.00000000000E+00  0.00000000000E+00  0.57593740462E+03  0.57593740462E+03  0.00000000000E+00 0.  1.
         21   -1    0    0  501  502 -0.00000000000E+00 -0.00000000000E+00 -0.71633098390E+02  0.71633098390E+02  0.00000000000E+00 0.  1.
         25    1    1    2    0    0  0.15786325225E+03  0.22285699141E+02  0.22884779530E+03  0.30563666700E+03  0.12500000000E+03 0.  0.
         25    1    1    2    0    0 -0.15786325225E+03 -0.22285699141E+02  0.27545651093E+03  0.34193383602E+03  0.12500000000E+03 0.  0.
</event>
<event>
 4    0  0.2185218E-002  0.2236581E+03  0.7546771E-02  0.1131185E+00
         21   -1    0    0  502  501  0.00000000000E+00  0.00000000000E+00  0.28470545342E+03  0.28470545342E+03  0.00000000000E+00 0.  1.
         21   -1    0    0  501  502 -0.00000000000E+00 -0.00000000000E+00 -0.17570068585E+03  0.17570068585E+03  0.00000000000E+00 0.  1.
         25    1    1    2    0    0 -0.29498434158E+02 -0.17826529823E+03  0.11454201202E+02  0.22001107449E+03  0.12500000000E+03 0.  0.
         25    1    1    2    0    0  0.29498434158E+02  0.17826529823E+03  0.97550566365E+02  0.24039506478E+03  0.12500000000E+03 0.  0.
</event>
<event>
 4    0  0.2185218E-002  0.1508732E+03  0.7546771E-02  0.1199404E+00
         21   -1    0    0  502  501  0.00000000000E+00  0.00000000000E+00  0.10088298925E+03  0.10088298925E+03  0.00000000000E+00 0. -1.
         21   -1    0    0  501  502 -0.00000000000E+00 -0.00000000000E+00 -0.22563498070E+03  0.22563498070E+03  0.00000000000E+00 0. -1.
         25    1    1    2    0    0  0.79538673077E+02  0.14306706494E+02 -0.89028230922E+02  0.17344194495E+03  0.12500000000E+03 0.  0.
         25    1    1    2    0    0 -0.79538673077E+02 -0.14306706494E+02 -0.35723760523E+02  0.15307602501E+03  0.12500000000E+03 0.  0.
</event>
<event>
 4    0  0.2185218E-002  0.1685907E+03  0.7546771E-02  0.1179326E+00
         21   -1    0    0  502  501  0.00000000000E+00  0.00000000000E+00  0.39692728954E+02  0.39692728954E+02  0.00000000000E+00 0. -1.
         21   -1    0    0  501  502 -0.00000000000E+00 -0.00000000000E+00 -0.71607147356E+03  0.71607147356E+03  0.00000000000E+00 0. -1.
         25    1    1    2    0    0  0.65074376893E+02 -0.84212286167E+02 -0.25220985481E+03  0.30093387069E+03  0.12500000000E+03 0.  0.
         25    1    1    2    0    0 -0.65074376893E+02  0.84212286167E+02 -0.42416888980E+03  0.45483033182E+03  0.12500000000E+03 0.  0.
</event>
<event>
 4    0  0.2185218E-002  0.1801402E+03  0.7546771E-02  0.1167667E+00
         21   -1    0    0  502  501  0.00000000000E+00  0.00000000000E+00  0.16881923982E+03  0.16881923982E+03  0.00000000000E+00 0. -1.
         21   -1    0    0  501  502 -0.00000000000E+00 -0.00000000000E+00 -0.19222034767E+03  0.19222034767E+03  0.00000000000E+00 0. -1.
         25    1    1    2    0    0  0.47626312782E+01  0.69474149398E+02  0.97965658640E+02  0.17341167886E+03  0.12500000000E+03 0.  0.
         25    1    1    2    0    0 -0.47626312782E+01 -0.69474149398E+02 -0.12136676649E+03  0.18762790864E+03  0.12500000000E+03 0.  0.
</event>
<event>
 4    0  0.2185218E-002  0.2057556E+03  0.7546771E-02  0.1144972E+00
         21   -1    0    0  502  501  0.00000000000E+00  0.00000000000E+00  0.53804479105E+03  0.53804479105E+03  0.00000000000E+00 0. -1.
         21   -1    0    0  501  502 -0.00000000000E+00 -0.00000000000E+00 -0.78683750780E+02  0.78683750780E+02  0.00000000000E+00 0. -1.
         25    1    1    2    0    0 -0.18484855393E+01  0.11200442435E+03  0.40803097036E+03  0.44120593915E+03  0.12500000000E+03 0.  0.
         25    1    1    2    0    0  0.18484855393E+01 -0.11200442435E+03  0.51330069907E+02  0.17552260267E+03  0.12500000000E+03 0.  0.
</event>
<event>
 4    0  0.2185218E-002  0.1846685E+03  0.7546771E-02  0.1163360E+00
         21   -1    0    0  502  501  0.00000000000E+00  0.00000000000E+00  0.11462637118E+04  0.11462637118E+04  0.00000000000E+00 0.  1.
         21   -1    0    0  501  502 -0.00000000000E+00 -0.00000000000E+00 -0.29750979038E+02  0.29750979038E+02  0.00000000000E+00 0.  1.
         25    1    1    2    0    0 -0.34895968639E+02  0.11113946064E+03  0.33519134371E+03  0.37622858110E+03  0.12500000000E+03 0.  0.
         25    1    1    2    0    0  0.34895968639E+02 -0.11113946064E+03  0.78132138904E+03  0.79978610973E+03  0.12500000000E+03 0.  0.
</event>
<event>
 4    0  0.2185218E-002  0.2372931E+03  0.7546771E-02  0.1121609E+00
         21   -1    0    0  502  501  0.00000000000E+00  0.00000000000E+00  0.94365380875E+02  0.94365380875E+02  0.00000000000E+00 0.  1.
         21   -1    0    0  501  502 -0.00000000000E+00 -0.00000000000E+00 -0.59670216479E+03  0.59670216479E+03  0.00000000000E+00 0.  1.
         25    1    1    2    0    0  0.10565525255E+03  0.80861614760E+02 -0.47191474146E+03  0.50599422560E+03  0.12500000000E+03 0.  0.
         25    1    1    2    0    0 -0.10565525255E+03 -0.80861614760E+02 -0.30422042453E+02  0.18507332006E+03  0.12500000000E+03 0.  0.
</event>
<event>
 4    0  0.2185218E-002  0.2152065E+03  0.7546771E-02  0.1137508E+00
         21   -1    0    0  502  501  0.00000000000E+00  0.00000000000E+00  0.79460007319E+03  0.79460007319E+03  0.00000000000E+00 0.  1.
         21   -1    0    0  501  502 -0.00000000000E+00 -0.00000000000E+00 -0.58285703375E+02  0.58285703375E+02  0.00000000000E+00 0.  1.
         25    1    1    2    0    0 -0.74097665688E+01 -0.17501323514E+03  0.36405434178E+03  0.42290081684E+03  0.12500000000E+03 0.  0.
         25    1    1    2    0    0  0.74097665688E+01  0.17501323514E+03  0.37226002804E+03  0.42998495972E+03  0.12500000000E+03 0.  0.
</event>
<event>
 4    0  0.2185218E-002  0.2147730E+03  0.7546771E-02  0.1137841E+00
         21   -1    0    0  502  501  0.00000000000E+00  0.00000000000E+00  0.71648926658E+03  0.71648926658E+03  0.00000000000E+00 0. -1.
         21   -1    0    0  501  502 -0.00000000000E+00 -0.00000000000E+00 -0.64379811389E+02  0.64379811389E+02  0.00000000000E+00 0. -1.
         25    1    1    2    0    0 -0.14028831623E+03  0.69089374705E+02  0.46743371132E+03  0.50850115816E+03  0.12500000000E+03 0.  0.
         25    1    1    2    0    0  0.14028831623E+03 -0.69089374705E+02  0.18467574387E+03  0.27236791981E+03  0.12500000000E+03 0.  0.
</event>
<event>
 4    0  0.2185218E-002  0.2928926E+03  0.7546771E-02  0.1088848E+00
         21   -1    0    0  502  501  0.00000000000E+00  0.00000000000E+00  0.15324161761E+03  0.15324161761E+03  0.00000000000E+00 0. -1.
         21   -1    0    0  501  502 -0.00000000000E+00 -0.00000000000E+00 -0.55980928332E+03  0.55980928332E+03  0.00000000000E+00 0. -1.
         25    1    1    2    0    0 -0.16920479729E+03 -0.20156958567E+03 -0.23981205432E+03  0.37735312731E+03  0.12500000000E+03 0.  0.
         25    1    1    2    0    0  0.16920479729E+03  0.20156958567E+03 -0.16675561139E+03  0.33569777363E+03  0.12500000000E+03 0.  0.
</event>
<event>
 4    0  0.2185218E-002  0.2644638E+03  0.7546771E-02  0.1104491E+00
         21   -1    0    0  502  501  0.00000000000E+00  0.00000000000E+00  0.61815640725E+03  0.61815640725E+03  0.00000000000E+00 0.  1.
         21   -1    0    0  501  502 -0.00000000000E+00 -0.00000000000E+00 -0.11314465802E+03  0.11314465802E+03  0.00000000000E+00 0.  1.
         25    1    1    2    0    0  0.78740665019E+02  0.14578300843E+03  0.25895484886E+02  0.20916107193E+03  0.12500000000E+03 0.  0.
         25    1    1    2    0    0 -0.78740665019E+02 -0.14578300843E+03  0.47911626435E+03  0.52213999333E+03  0.12500000000E+03 0.  0.
</event>
<event>
 4    0  0.2185218E-002  0.2038145E+03  0.7546771E-02  0.1146560E+00
         21   -1    0    0  502  501  0.00000000000E+00  0.00000000000E+00  0.89019557767E+02  0.89019557767E+02  0.00000000000E+00 0.  1.
         21   -1    0    0  501  502 -0.00000000000E+00 -0.00000000000E+00 -0.46664280852E+03  0.46664280852E+03  0.00000000000E+00 0.  1.
         25    1    1    2    0    0  0.99895223023E+02 -0.20548783953E+02 -0.19023124501E+02  0.16244441317E+03  0.12500000000E+03 0.  0.
         25    1    1    2    0    0 -0.99895223023E+02  0.20548783953E+02 -0.35860012625E+03  0.39321795312E+03  0.12500000000E+03 0.  0.
</event>
<event>
 4    0  0.2185218E-002  0.2304075E+03  0.7546771E-02  0.1126353E+00
         21   -1    0    0  502  501  0.00000000000E+00  0.00000000000E+00  0.99095567507E+02  0.99095567507E+02  0.00000000000E+00 0. -1.
         21   -1    0    0  501  502 -0.00000000000E+00 -0.00000000000E+00 -0.53572135716E+03  0.53572135716E+03  0.00000000000E+00 0. -1.
         25    1    1    2    0    0  0.11543234052E+02  0.14952613828E+03 -0.38687178284E+03  0.43334292268E+03  0.12500000000E+03 0.  0.
         25    1    1    2    0    0 -0.11543234052E+02 -0.14952613828E+03 -0.49754006813E+02  0.20147400198E+03  0.12500000000E+03 0.  0.
</event>
<event>
 4    0  0.2185218E-002  0.2679269E+03  0.7546771E-02  0.1102472E+00
         21   -1    0    0  502  501  0.00000000000E+00  0.00000000000E+00  0.43201149518E+02  0.43201149518E+02  0.00000000000E+00 0. -1.
         21   -1    0    0  501  502 -0.00000000000E+00 -0.00000000000E+00 -0.16616409064E+04  0.16616409064E+04  0.00000000000E+00 0. -1.
         25    1    1    2    0    0 -0.22011054390E+03 -0.60199104237E+02 -0.10126201745E+04  0.10455128892E+04  0.12500000000E+03 0.  0.
         25    1    1    2    0    0  0.22011054390E+03  0.60199104237E+02 -0.60581958246E+03  0.65932916679E+03  0.12500000000E+03 0.  0.
</event>
<event>
 4    0  0.2185218E-002  0.2815866E+03  0.7546771E-02  0.1094826E+00
         21   -1    0    0  502  501  0.00000000000E+00  0.00000000000E+00  0.15329863764E+03  0.15329863764E+03  0.00000000000E+00 0.  1.
         21   -1    0    0  501  502 -0.00000000000E+00 -0.00000000000E+00 -0.51723231521E+03  0.51723231521E+03  0.00000000000E+00 0.  1.
         25    1    1    2    0    0  0.16326498992E+03  0.98222655270E+02  0.14983904638E+02  0.22836957841E+03  0.12500000000E+03 0.  0.
         25    1    1    2    0    0 -0.16326498992E+03 -0.98222655270E+02 -0.37891758221E+03  0.44216137445E+03  0.12500000000E+03 0.  0.
</event>
<event>
 4    0  0.2185218E-002  0.2911009E+03  0.7546771E-02  0.1089776E+00
         21   -1    0    0  502  501  0.00000000000E+00  0.00000000000E+00  0.61251096002E+03  0.61251096002E+03  0.00000000000E+00 0.  1.
         21   -1    0    0  501  502 -0.00000000000E+00 -0.00000000000E+00 -0.13834809916E+03  0.13834809916E+03  0.00000000000E+00 0.  1.
         25    1    1    2    0    0 -0.10884845658E+03  0.19957062529E+03  0.40739021388E+03  0.48297847504E+03  0.12500000000E+03 0.  0.
         25    1    1    2    0    0  0.10884845658E+03 -0.19957062529E+03  0.66772646968E+02  0.26788058415E+03  0.12500000000E+03 0.  0.
</event>
<event>
 4    0  0.2185218E-002  0.2462476E+03  0.7546771E-02  0.1115699E+00
         21   -1    0    0  502  501  0.00000000000E+00  0.00000000000E+00  0.12638631001E+03  0.12638631001E+03  0.00000000000E+00 0. -1.
         21   -1    0    0  501  502 -0.00000000000E+00 -0.00000000000E+00 -0.47978218831E+03  0.47978218831E+03  0.00000000000E+00 0. -1.
         25    1    1    2    0    0 -0.95973062001E+02  0.90932858937E+01  0.55920035148E+02  0.16746810684E+03  0.12500000000E+03 0.  0.
         25    1    1    2    0    0  0.95973062001E+02 -0.90932858937E+01 -0.40931591345E+03  0.43870039148E+03  0.12500000000E+03 0.  0.
</event>
<event>
 4    0  0.2185218E-002  0.2839765E+03  0.7546771E-02  0.1093537E+00
         21   -1    0    0  502  501  0.00000000000E+00  0.00000000000E+00  0.14995520726E+03  0.14995520726E+03  0.00000000000E+00 0. -1.
         21   -1    0    0  501  502 -0.00000000000E+00 -0.00000000000E+00 -0.53777830074E+03  0.53777830074E+03  0.00000000000E+00 0. -1.
         25    1    1    2    0    0 -0.22600874598E+03  0.10333525217E+03 -0.26304451396E+03  0.38285185637E+03  0.12500000000E+03 0.  0.
         25    1    1    2    0    0  0.22600874598E+03 -0.10333525217E+03 -0.12477857952E+03  0.30488165164E+03  0.12500000000E+03 0.  0.
</event>
<event>
 4    0  0.2185218E-002  0.2041640E+03  0.7546771E-02  0.1146273E+00
         21   -1    0    0  502  501  0.00000000000E+00  0.00000000000E+00  0.46627097788E+03  0.46627097788E+03  0.00000000000E+00 0.  1.
         21   -1    0    0  501  502 -0.00000000000E+00 -0.00000000000E+00 -0.89396399703E+02  0.89396399703E+02  0.00000000000E+00 0.  1.
         25    1    1    2    0    0 -0.78375519939E+02  0.89801195110E+02  0.40293773464E+02  0.17735716774E+03  0.12500000000E+03 0.  0.
         25    1    1    2    0    0  0.78375519939E+02 -0.89801195110E+02  0.33658080471E+03  0.37831020984E+03  0.12500000000E+03 0.  0.
</event>
<event>
 4    0  0.2185218E-002  0.2145870E+03  0.7546771E-02  0.1137984E+00
         21   -1    0    0  502  501  0.00000000000E+00  0.00000000000E+00  0.39287610120E+03  0.39287610120E+03  0.00000000000E+00 0.  1.
         21   -1    0    0  501  502 -0.00000000000E+00 -0.00000000000E+00 -0.11720632351E+03  0.11720632351E+03  0.00000000000E+00 0.  1.
         25    1    1    2    0    0 -0.16290961543E+03 -0.10551330709E+02  0.21082685030E+03  0.29448910707E+03  0.12500000000E+03 0.  0.
         25    1    1    2    0    0  0.16290961543E+03  0.10551330709E+02  0.64842927390E+02  0.21559331764E+03  0.12500000000E+03 0.  0.
</event>
<event>
 4    0  0.2185218E-002  0.2241475E+03  0.7546771E-02  0.1130828E+00
         21   -1    0    0  502  501  0.00000000000E+00  0.00000000000E+00  0.13230664609E+04  0.13230664609E+04  0.00000000000E+00 0.  1.
         21   -1    0    0  501  502 -0.00000000000E+00 -0.00000000000E+00 -0.37973992503E+02  0.37973992503E+02  0.00000000000E+00 0.  1.
         25    1    1    2    0    0  0.14779802202E+03 -0.98250372904E+02  0.81212255907E+03  0.84063395246E+03  0.12500000000E+03 0.  0.
         25    1    1    2    0    0 -0.14779802202E+03  0.98250372904E+02  0.47296990931E+03  0.52040650092E+03  0.12500000000E+03 0.  0.
</event>
<event>
 4    0  0.2185218E-002  0.2514266E+03  0.7546771E-02  0.1112407E+00
         21   -1    0    0  502  501  0.00000000000E+00  0.00000000000E+00  0.24843750488E+03  0.24843750488E+03  0.00000000000E+00 0. -1.
         21   -1    0    0  501  502 -0.00000000000E+00 -0.00000000000E+00 -0.25445170494E+03  0.25445170494E+03  0.00000000000E+00 0. -1.
         25    1    1    2    0    0  0.83874053360E+02  0.16554523637E+03 -0.11768990458E+03  0.25281613032E+03  0.12500000000E+03 0.  0.
         25    1    1    2    0    0 -0.83874053360E+02 -0.16554523637E+03  0.11167570452E+03  0.25007307950E+03  0.12500000000E+03 0.  0.
</event>
<event>
 4    0  0.2185218E-002  0.2464521E+03  0.7546771E-02  0.1115568E+00
         21   -1    0    0  502  501  0.00000000000E+00  0.00000000000E+00  0.88946316081E+02  0.88946316081E+02  0.00000000000E+00 0.  1.
         21   -1    0    0  501  502 -0.00000000000E+00 -0.00000000000E+00 -0.68286830195E+03  0.68286830195E+03  0.00000000000E+00 0.  1.
         25    1    1    2    0    0  0.10529601005E+03 -0.63609727584E+02 -0.56808477201E+03  0.59454079369E+03  0.12500000000E+03 0.  0.
         25    1    1    2    0    0 -0.10529601005E+03  0.63609727584E+02 -0.25837213860E+02  0.17727382434E+03  0.12500000000E+03 0.  0.
</event>
<event>
 4    0  0.2185218E-002  0.2333529E+03  0.7546771E-02  0.1124302E+00
         21   -1    0    0  502  501  0.00000000000E+00  0.00000000000E+00  0.11186126512E+04  0.11186126512E+04  0.00000000000E+00 0. -1.
         21   -1    0    0  501  502 -0.00000000000E+00 -0.00000000000E+00 -0.48679566124E+02  0.48679566124E+02  0.00000000000E+00 0. -1.
         25    1    1    2    0    0 -0.57416758097E+02  0.63517882452E+02  0.91078395469E+02  0.17678088025E+03  0.12500000000E+03 0.  0.
         25    1    1    2    0    0  0.57416758097E+02 -0.63517882452E+02  0.97885468958E+03  0.99051133704E+03  0.12500000000E+03 0.  0.
</event>
<event>
 4    0  0.2185218E-002  0.2295455E+03  0.7546771E-02  0.1126960E+00
         21   -1    0    0  502  501  0.00000000000E+00  0.00000000000E+00  0.58128969510E+02  0.58128969510E+02  0.00000000000E+00 0.  1.
         21   -1    0    0  501  502 -0.00000000000E+00 -0.00000000000E+00 -0.90645219248E+03  0.90645219248E+03  0.00000000000E+00 0.  1.
         25    1    1    2    0    0 -0.10693565085E+03  0.15849043831E+03 -0.37663476674E+03  0.44049199763E+03  0.12500000000E+03 0.  0.
         25    1    1    2    0    0  0.10693565085E+03 -0.15849043831E+03 -0.47168845622E+03  0.52408916435E+03  0.12500000000E+03 0.  0.
</event>
<event>
 4    0  0.2185218E-002  0.2863241E+03  0.7546771E-02  0.1092284E+00
         21   -1    0    0  502  501  0.00000000000E+00  0.00000000000E+00  0.15137865591E+04  0.15137865591E+04  0.00000000000E+00 0.  1.
         21   -1    0    0  501  502 -0.00000000000E+00 -0.00000000000E+00 -0.54156567889E+02  0.54156567889E+02  0.00000000000E+00 0.  1.
         25    1    1    2    0    0 -0.57376836852E+02  0.25078469336E+03  0.69396624003E+03  0.75059923136E+03  0.12500000000E+03 0.  0.
         25    1    1    2    0    0  0.57376836852E+02 -0.25078469336E+03  0.76566375114E+03  0.81734389558E+03  0.12500000000E+03 0.  0.
</event>
<event>
 4    0  0.2185218E-002  0.2128470E+03  0.7546771E-02  0.1139331E+00
         21   -1    0    0  502  501  0.00000000000E+00  0.00000000000E+00  0.53097848032E+02  0.53097848032E+02  0.00000000000E+00 0.  1.
         21   -1    0    0  501  502 -0.00000000000E+00 -0.00000000000E+00 -0.85321422388E+03  0.85321422388E+03  0.00000000000E+00 0.  1.
         25    1    1    2    0    0 -0.15449477867E+03 -0.19418819505E+02 -0.55698768930E+03  0.59169756905E+03  0.12500000000E+03 0.  0.
         25    1    1    2    0    0  0.15449477867E+03  0.19418819505E+02 -0.24312868655E+03  0.31461450286E+03  0.12500000000E+03 0.  0.
</event>
<event>
 4    0  0.2185218E-002  0.2553799E+03  0.7546771E-02  0.1109951E+00
         21   -1    0    0  502  501  0.00000000000E+00  0.00000000000E+00  0.14373718732E+04  0.14373718732E+04  0.00000000000E+00 0. -1.
         21   -1    0    0  501  502 -0.00000000000E+00 -0.00000000000E+00 -0.45373718126E+02  0.45373718126E+02  0.00000000000E+00 0. -1.
         25    1    1    2    0    0 -0.21404404495E+03  0.29921309429E+02  0.85189331808E+03  0.88772595057E+03  0.12500000000E+03 0.  0.
         25    1    1    2    0    0  0.21404404495E+03 -0.29921309429E+02  0.54010483699E+03  0.59501964075E+03  0.12500000000E+03 0.  0.
</event>
<event>
 4    0  0.2185218E-002  0.1800073E+03  0.7546771E-02  0.1167796E+00
         21   -1    0    0  502  501  0.00000000000E+00  0.00000000000E+00  0.69828263573E+03  0.69828263573E+03  0.00000000000E+00 0. -1.
         21   -1    0    0  501  502 -0.00000000000E+00 -0.00000000000E+00 -0.46403330145E+02  0.46403330145E+02  0.00000000000E+00 0. -1.
         25    1    1    2    0    0 -0.12462909114E+03  0.23143963317E+02  0.38104015839E+03  0.42057657532E+03  0.12500000000E+03 0.  0.
         25    1    1    2    0    0  0.12462909114E+03 -0.23143963317E+02  0.27083914719E+03  0.32410939055E+03  0.12500000000E+03 0.  0.
</event>
<event>
 4    0  0.2185218E-002  0.2682643E+03  0.7546771E-02  0.1102277E+00
         21   -1    0    0  502  501  0.00000000000E+00  0.00000000000E+00  0.32665148441E+03  0.32665148441E+03  0.00000000000E+00 0. -1.
         21   -1    0    0  501  502 -0.00000000000E+00 -0.00000000000E+00 -0.22031358400E+03  0.22031358400E+03  0.00000000000E+00 0. -1.
         25    1    1    2    0    0  0.44910376345E+02  0.16358725030E+03  0.22241950849E+03  0.30638728453E+03  0.12500000000E+03 0.  0.
         25    1    1    2    0    0 -0.44910376345E+02 -0.16358725030E+03 -0.11608160809E+03  0.24057778388E+03  0.12500000000E+03 0.  0.
</event>
<event>
 4    0  0.2185218E-002  0.1721140E+03  0.7546771E-02  0.1175661E+00
         21   -1    0    0  502  501  0.00000000000E+00  0.00000000000E+00  0.37993425534E+03  0.37993425534E+03  0.00000000000E+00 0. -1.
         21   -1    0    0  501  502 -0.00000000000E+00 -0.00000000000E+00 -0.77969360082E+02  0.77969360082E+02  0.00000000000E+00 0. -1.
         25    1    1    2    0    0 -0.83353730349E+02  0.47294794820E+02  0.58690808510E+02  0.16809001453E+03  0.12500000000E+03 0.  0.
         25    1    1    2    0    0  0.83353730349E+02 -0.47294794820E+02  0.24327408675E+03  0.28981360089E+03  0.12500000000E+03 0.  0.
</event>
<event>
 4    0  0.2185218E-002  0.1832194E+03  0.7546771E-02  0.1164723E+00
         21   -1    0    0  502  501  0.00000000000E+00  0.00000000000E+00  0.36209894801E+02  0.36209894801E+02  0.00000000000E+00 0. -1.
         21   -1    0    0  501  502 -0.00000000000E+00 -0.00000000000E+00 -0.92707686619E+03  0.92707686619E+03  0.00000000000E+00 0. -1.
         25    1    1    2    0    0 -0.70396723246E+01  0.12833326585E+02 -0.95399880976E+02  0.15792526254E+03  0.12500000000E+03 0.  0.
         25    1    1    2    0    0  0.70396723246E+01 -0.12833326585E+02 -0.79546709041E+03  0.80536149845E+03  0.12500000000E+03 0.  0.
</event>
<event>
 4    0  0.2185218E-002  0.2121142E+03  0.7546771E-02  0.1139903E+00
         21   -1    0    0  502  501  0.00000000000E+00  0.00000000000E+00  0.16530800549E+03  0.16530800549E+03  0.00000000000E+00 0. -1.
         21   -1    0    0  501  502 -0.00000000000E+00 -0.00000000000E+00 -0.27217341510E+03  0.27217341510E+03  0.00000000000E+00 0. -1.
         25    1    1    2    0    0 -0.49390861361E+02  0.82605059859E+02  0.92786792993E+02  0.18302306427E+03  0.12500000000E+03 0.  0.
         25    1    1    2    0    0  0.49390861361E+02 -0.82605059859E+02 -0.19965220260E+03  0.25445835632E+03  0.12500000000E+03 0.  0.
</event>
<event>
 4    0  0.2185218E-002  0.3699711E+03  0.7546771E-02  0.1054704E+00
         21   -1    0    0  502  501  0.00000000000E+00  0.00000000000E+00  0.98122220944E+02  0.98122220944E+02  0.00000000000E+00 0. -1.
         21   -1    0    0  501  502 -0.00000000000E+00 -0.00000000000E+00 -0.13949804766E+04  0.13949804766E+04  0.00000000000E+00 0. -1.
         25    1    1    2    0    0 -0.31573340956E+03  0.88498202971E+01 -0.35263695918E+03  0.48963632444E+03  0.12500000000E+03 0.  0.
         25    1    1    2    0    0  0.31573340956E+03 -0.88498202971E+01 -0.94422129647E+03  0.10034663731E+04  0.12500000000E+03 0.  0.
</event>
<event>
 4    0  0.2185218E-002  0.1963832E+03  0.7546771E-02  0.1152827E+00
         21   -1    0    0  502  501  0.00000000000E+00  0.00000000000E+00  0.69037239342E+03  0.69037239342E+03  0.00000000000E+00 0. -1.
         21   -1    0    0  501  502 -0.00000000000E+00 -0.00000000000E+00 -0.55863115354E+02  0.55863115354E+02  0.00000000000E+00 0. -1.
         25    1    1    2    0    0  0.83993130057E+01  0.11045467376E+03  0.12099299842E+03  0.20624036724E+03  0.12500000000E+03 0.  0.
         25    1    1    2    0    0 -0.83993130057E+01 -0.11045467376E+03  0.51351627965E+03  0.53999514153E+03  0.12500000000E+03 0.  0.
</event>
<event>
 4    0  0.2185218E-002  0.3363483E+03  0.7546771E-02  0.1068362E+00
         21   -1    0    0  502  501  0.00000000000E+00  0.00000000000E+00  0.11117986378E+03  0.11117986378E+03  0.00000000000E+00 0. -1.
         21   -1    0    0  501  502 -0.00000000000E+00 -0.00000000000E+00 -0.10175416940E+04  0.10175416940E+04  0.00000000000E+00 0.  1.
         25    1    1    2    0    0  0.70309837568E+02 -0.28138887983E+03 -0.25907994464E+03  0.40849797143E+03  0.12500000000E+03 0.  0.
         25    1    1    2    0    0 -0.70309837568E+02  0.28138887983E+03 -0.64728188563E+03  0.72022358640E+03  0.12500000000E+03 0.  0.
</event>
<event>
 4    0  0.2185218E-002  0.1557280E+03  0.7546771E-02  0.1193606E+00
         21   -1    0    0  502  501  0.00000000000E+00  0.00000000000E+00  0.25292466546E+03  0.25292466546E+03  0.00000000000E+00 0. -1.
         21   -1    0    0  501  502 -0.00000000000E+00 -0.00000000000E+00 -0.95883078967E+02  0.95883078967E+02  0.00000000000E+00 0. -1.
         25    1    1    2    0    0 -0.65284251747E+02  0.64098256656E+02  0.60616826082E+02  0.16634307811E+03  0.12500000000E+03 0.  0.
         25    1    1    2    0    0  0.65284251747E+02 -0.64098256656E+02  0.96424760414E+02  0.18246466631E+03  0.12500000000E+03 0.  0.
</event>
<event>
 4    0  0.2185218E-002  0.3430541E+03  0.7546771E-02  0.1065503E+00
         21   -1    0    0  502  501  0.00000000000E+00  0.00000000000E+00  0.37417859240E+02  0.37417859240E+02  0.00000000000E+00 0.  1.
         21   -1    0    0  501  502 -0.00000000000E+00 -0.00000000000E+00 -0.31451856444E+04  0.31451856444E+04  0.00000000000E+00 0.  1.
         25    1    1    2    0    0  0.13880415529E+03 -0.13135947753E+03 -0.27414027753E+04  0.27508973231E+04  0.12500000000E+03 0.  0.
         25    1    1    2    0    0 -0.13880415529E+03  0.13135947753E+03 -0.36636500988E+03  0.43170618055E+03  0.12500000000E+03 0.  0.
</event>
<event>
 4    0  0.2185218E-002  0.1694730E+03  0.7546771E-02  0.1178399E+00
         21   -1    0    0  502  501  0.00000000000E+00  0.00000000000E+00  0.35654685805E+03  0.35654685805E+03  0.00000000000E+00 0. -1.
         21   -1    0    0  501  502 -0.00000000000E+00 -0.00000000000E+00 -0.80553537707E+02  0.80553537707E+02  0.00000000000E+00 0. -1.
         25    1    1    2    0    0 -0.50752213507E+02  0.28814463241E+02  0.11052243614E+02  0.13839513198E+03  0.12500000000E+03 0.  0.
         25    1    1    2    0    0  0.50752213507E+02 -0.28814463241E+02  0.26494107673E+03  0.29870526378E+03  0.12500000000E+03 0.  0.
</event>
<event>
 4    0  0.2185218E-002  0.1986494E+03  0.7546771E-02  0.1150884E+00
         21   -1    0    0  502  501  0.00000000000E+00  0.00000000000E+00  0.16274730873E+03  0.16274730873E+03  0.00000000000E+00 0. -1.
         21   -1    0    0  501  502 -0.00000000000E+00 -0.00000000000E+00 -0.24247147422E+03  0.24247147422E+03  0.00000000000E+00 0. -1.
         25    1    1    2    0    0  0.36621358686E+01 -0.12034632158E+03  0.58707787269E+02  0.18321640932E+03  0.12500000000E+03 0.  0.
         25    1    1    2    0    0 -0.36621358686E+01  0.12034632158E+03 -0.13843195276E+03  0.22200237364E+03  0.12500000000E+03 0.  0.
</event>
<event>
 4    0  0.2185218E-002  0.2057703E+03  0.7546771E-02  0.1144960E+00
         21   -1    0    0  502  501  0.00000000000E+00  0.00000000000E+00  0.45721245947E+03  0.45721245947E+03  0.00000000000E+00 0.  1.
         21   -1    0    0  501  502 -0.00000000000E+00 -0.00000000000E+00 -0.92607790593E+02  0.92607790593E+02  0.00000000000E+00 0.  1.
         25    1    1    2    0    0 -0.54684014491E+02  0.63402592074E+02  0.36984904442E+03  0.39927878203E+03  0.12500000000E+03 0.  0.
         25    1    1    2    0    0  0.54684014491E+02 -0.63402592074E+02 -0.52443755416E+01  0.15054146803E+03  0.12500000000E+03 0.  0.
</event>
<event>
 4    0  0.2185218E-002  0.2055686E+03  0.7546771E-02  0.1145124E+00
         21   -1    0    0  502  501  0.00000000000E+00  0.00000000000E+00  0.63082083032E+03  0.63082083032E+03  0.00000000000E+00 0. -1.
         21   -1    0    0  501  502 -0.00000000000E+00 -0.00000000000E+00 -0.66989610862E+02  0.66989610862E+02  0.00000000000E+00 0. -1.
         25    1    1    2    0    0  0.10719853830E+03 -0.49253552697E+02  0.47330860370E+03  0.50355086477E+03  0.12500000000E+03 0.  0.
         25    1    1    2    0    0 -0.10719853830E+03  0.49253552697E+02  0.90522615753E+02  0.19425957641E+03  0.12500000000E+03 0.  0.
</event>
<event>
 4    0  0.2185218E-002  0.2131804E+03  0.7546771E-02  0.1139072E+00
         21   -1    0    0  502  501  0.00000000000E+00  0.00000000000E+00  0.32974603066E+03  0.32974603066E+03  0.00000000000E+00 0.  1.
         21   -1    0    0  501  502 -0.00000000000E+00 -0.00000000000E+00 -0.13782080403E+03  0.13782080403E+03  0.00000000000E+00 0.  1.
         25    1    1    2    0    0  0.83065722517E+02  0.11054608307E+03  0.20940329061E+03  0.28034815651E+03  0.12500000000E+03 0.  0.
         25    1    1    2    0    0 -0.83065722517E+02 -0.11054608307E+03 -0.17478063981E+02  0.18721867818E+03  0.12500000000E+03 0.  0.
</event>
<event>
 4    0  0.2185218E-002  0.2448618E+03  0.7546771E-02  0.1116596E+00
         21   -1    0    0  502  501  0.00000000000E+00  0.00000000000E+00  0.74900489141E+03  0.74900489141E+03  0.00000000000E+00 0. -1.
         21   -1    0    0  501  502 -0.00000000000E+00 -0.00000000000E+00 -0.80049263857E+02  0.80049263857E+02  0.00000000000E+00 0. -1.
         25    1    1    2    0    0 -0.15902960779E+03  0.11902559973E+03  0.45267562796E+03  0.50989972906E+03  0.12500000000E+03 0.  0.
         25    1    1    2    0    0  0.15902960779E+03 -0.11902559973E+03  0.21627999960E+03  0.31915442621E+03  0.12500000000E+03 0.  0.
</event>
<event>
 4    0  0.2185218E-002  0.1929194E+03  0.7546771E-02  0.1155854E+00
         21   -1    0    0  502  501  0.00000000000E+00  0.00000000000E+00  0.23192631115E+03  0.23192631115E+03  0.00000000000E+00 0. -1.
         21   -1    0    0  501  502 -0.00000000000E+00 -0.00000000000E+00 -0.16047285620E+03  0.16047285620E+03  0.00000000000E+00 0. -1.
         25    1    1    2    0    0  0.12377705167E+03 -0.45882009054E+02  0.10137630891E+03  0.20815396533E+03  0.12500000000E+03 0.  0.
         25    1    1    2    0    0 -0.12377705167E+03  0.45882009054E+02 -0.29922853961E+02  0.18424520201E+03  0.12500000000E+03 0.  0.
</event>
<event>
 4    0  0.2185218E-002  0.2343711E+03  0.7546771E-02  0.1123600E+00
         21   -1    0    0  502  501  0.00000000000E+00  0.00000000000E+00  0.13203959260E+04  0.13203959260E+04  0.00000000000E+00 0.  1.
         21   -1    0    0  501  502 -0.00000000000E+00 -0.00000000000E+00 -0.41601013566E+02  0.41601013566E+02  0.00000000000E+00 0.  1.
         25    1    1    2    0    0  0.42283163703E+02 -0.99434188912E+02  0.11223793441E+04  0.11344758332E+04  0.12500000000E+03 0.  0.
         25    1    1    2    0    0 -0.42283163703E+02  0.99434188912E+02  0.15641556829E+03  0.22752110641E+03  0.12500000000E+03 0.  0.
</event>
<event>
 4    0  0.2185218E-002  0.2569567E+03  0.7546771E-02  0.1108986E+00
         21   -1    0    0  502  501  0.00000000000E+00  0.00000000000E+00  0.61480884846E+03  0.61480884846E+03  0.00000000000E+00 0. -1.
         21   -1    0    0  501  502 -0.00000000000E+00 -0.00000000000E+00 -0.10739392593E+03  0.10739392593E+03  0.00000000000E+00 0. -1.
         25    1    1    2    0    0 -0.19694759244E+03 -0.78483014607E+02  0.35748868186E+03  0.43401739067E+03  0.12500000000E+03 0.  0.
         25    1    1    2    0    0  0.19694759244E+03  0.78483014607E+02  0.14992624067E+03  0.28818538372E+03  0.12500000000E+03 0.  0.
</event>
<event>
 4    0  0.2185218E-002  0.2518098E+03  0.7546771E-02  0.1112166E+00
         21   -1    0    0  502  501  0.00000000000E+00  0.00000000000E+00  0.92575578541E+02  0.92575578541E+02  0.00000000000E+00 0.  1.
         21   -1    0    0  501  502 -0.00000000000E+00 -0.00000000000E+00 -0.68493412461E+03  0.68493412461E+03  0.00000000000E+00 0.  1.
         25    1    1    2    0    0 -0.36891180793E+02 -0.11784278844E+02  0.35956434903E+02  0.13571180368E+03  0.12500000000E+03 0.  0.
         25    1    1    2    0    0  0.36891180793E+02  0.11784278844E+02 -0.62831498097E+03  0.64179789947E+03  0.12500000000E+03 0.  0.
</event>
<event>
 4    0  0.2185218E-002  0.2424503E+03  0.7546771E-02  0.1118171E+00
         21   -1    0    0  502  501  0.00000000000E+00  0.00000000000E+00  0.93424572229E+02  0.93424572229E+02  0.00000000000E+00 0. -1.
         21   -1    0    0  501  502 -0.00000000000E+00 -0.00000000000E+00 -0.62919358211E+03  0.62919358211E+03  0.00000000000E+00 0. -1.
         25    1    1    2    0    0  0.63652051929E+02 -0.19741354839E+03 -0.25066927029E+03  0.34854522787E+03  0.12500000000E+03 0.  0.
         25    1    1    2    0    0 -0.63652051929E+02  0.19741354839E+03 -0.28509973959E+03  0.37407292647E+03  0.12500000000E+03 0.  0.
</event>
<event>
 4    0  0.2185218E-002  0.2717764E+03  0.7546771E-02  0.1100267E+00
         21   -1    0    0  502  501  0.00000000000E+00  0.00000000000E+00  0.81269779437E+02  0.81269779437E+02  0.00000000000E+00 0.  1.
         21   -1    0    0  501  502 -0.00000000000E+00 -0.00000000000E+00 -0.90885445595E+03  0.90885445595E+03  0.00000000000E+00 0.  1.
         25    1    1    2    0    0  0.32726230138E+02 -0.21266288418E+02 -0.84759644572E+03  0.85765260797E+03  0.12500000000E+03 0.  0.
         25    1    1    2    0    0 -0.32726230138E+02  0.21266288418E+02  0.20011769211E+02  0.13247162741E+03  0.12500000000E+03 0.  0.
</event>
<event>
 4    0  0.2185218E-002  0.1939782E+03  0.7546771E-02  0.1154921E+00
         21   -1    0    0  502  501  0.00000000000E+00  0.00000000000E+00  0.64069846147E+02  0.64069846147E+02  0.00000000000E+00 0. -1.
         21   -1    0    0  501  502 -0.00000000000E+00 -0.00000000000E+00 -0.58728967440E+03  0.58728967440E+03  0.00000000000E+00 0. -1.
         25    1    1    2    0    0 -0.30503444217E+02 -0.37593147465E+02 -0.26204282764E+02  0.13658465976E+03  0.12500000000E+03 0.  0.
         25    1    1    2    0    0  0.30503444217E+02  0.37593147465E+02 -0.49701554549E+03  0.51477486079E+03  0.12500000000E+03 0.  0.
</event>
<event>
 4    0  0.2185218E-002  0.2148769E+03  0.7546771E-02  0.1137761E+00
         21   -1    0    0  502  501  0.00000000000E+00  0.00000000000E+00  0.90827254507E+02  0.90827254507E+02  0.00000000000E+00 0. -1.
         21   -1    0    0  501  502 -0.00000000000E+00 -0.00000000000E+00 -0.50835060947E+03  0.50835060947E+03  0.00000000000E+00 0. -1.
         25    1    1    2    0    0 -0.13674168854E+03 -0.19630776212E+02 -0.59484521037E+02  0.19556856854E+03  0.12500000000E+03 0.  0.
         25    1    1    2    0    0  0.13674168854E+03  0.19630776212E+02 -0.35803883392E+03  0.40360929543E+03  0.12500000000E+03 0.  0.
</event>
<event>
 4    0  0.2185218E-002  0.1860559E+03  0.7546771E-02  0.1162068E+00
         21   -1    0    0  502  501  0.00000000000E+00  0.00000000000E+00  0.67563035801E+02  0.67563035801E+02  0.00000000000E+00 0.  1.
         21   -1    0    0  501  502 -0.00000000000E+00 -0.00000000000E+00 -0.51236284390E+03  0.51236284390E+03  0.00000000000E+00 0.  1.
         25    1    1    2    0    0  0.11556482420E+03 -0.38441877092E+02 -0.12189616598E+03  0.21287715187E+03  0.12500000000E+03 0.  0.
         25    1    1    2    0    0 -0.11556482420E+03  0.38441877092E+02 -0.32290364212E+03  0.36704872783E+03  0.12500000000E+03 0.  0.
</event>
<event>
 4    0  0.2185218E-002  0.6641953E+03  0.7546771E-02  0.9780501E-01
         21   -1    0    0  502  501  0.00000000000E+00  0.00000000000E+00  0.81420759208E+03  0.81420759208E+03  0.00000000000E+00 0. -1.
         21   -1    0    0  501  502 -0.00000000000E+00 -0.00000000000E+00 -0.54182181147E+03  0.54182181147E+03  0.00000000000E+00 0.  1.
         25    1    1    2    0    0 -0.36405382434E+03 -0.53802004416E+03  0.75545682625E+02  0.66583249027E+03  0.12500000000E+03 0.  0.
         25    1    1    2    0    0  0.36405382434E+03  0.53802004416E+03  0.19684009799E+03  0.69019691328E+03  0.12500000000E+03 0.  0.
</event>
<event>
 4    0  0.2185218E-002  0.3736461E+03  0.7546771E-02  0.1053307E+00
         21   -1    0    0  502  501  0.00000000000E+00  0.00000000000E+00  0.23365315898E+03  0.23365315898E+03  0.00000000000E+00 0. -1.
         21   -1    0    0  501  502 -0.00000000000E+00 -0.00000000000E+00 -0.59751557962E+03  0.59751557962E+03  0.00000000000E+00 0. -1.
         25    1    1    2    0    0  0.22074673320E+03  0.13723856344E+03  0.82264830153E+02  0.29992673404E+03  0.12500000000E+03 0.  0.
         25    1    1    2    0    0 -0.22074673320E+03 -0.13723856344E+03 -0.44612725079E+03  0.53124200456E+03  0.12500000000E+03 0.  0.
</event>
<event>
 4    0  0.2185218E-002  0.2247647E+03  0.7546771E-02  0.1130380E+00
         21   -1    0    0  502  501  0.00000000000E+00  0.00000000000E+00  0.21032245367E+03  0.21032245367E+03  0.00000000000E+00 0. -1.
         21   -1    0    0  501  502 -0.00000000000E+00 -0.00000000000E+00 -0.24019863927E+03  0.24019863927E+03  0.00000000000E+00 0. -1.
         25    1    1    2    0    0  0.13729091924E+03  0.12657453473E+03 -0.19874182288E+02  0.22558788192E+03  0.12500000000E+03 0.  0.
         25    1    1    2    0    0 -0.13729091924E+03 -0.12657453473E+03 -0.10002003317E+02  0.22493321102E+03  0.12500000000E+03 0.  0.
</event>
<event>
 4    0  0.2185218E-002  0.2132591E+03  0.7546771E-02  0.1139011E+00
         21   -1    0    0  502  501  0.00000000000E+00  0.00000000000E+00  0.94034201279E+02  0.94034201279E+02  0.00000000000E+00 0.  1.
         21   -1    0    0  501  502 -0.00000000000E+00 -0.00000000000E+00 -0.48364782114E+03  0.48364782114E+03  0.00000000000E+00 0.  1.
         25    1    1    2    0    0 -0.38392623196E+02 -0.14868633235E+03 -0.87535730891E+02  0.21649277846E+03  0.12500000000E+03 0.  0.
         25    1    1    2    0    0  0.38392623196E+02  0.14868633235E+03 -0.30207788897E+03  0.36118924396E+03  0.12500000000E+03 0.  0.
</event>
<event>
 4    0  0.2185218E-002  0.2258082E+03  0.7546771E-02  0.1129625E+00
         21   -1    0    0  502  501  0.00000000000E+00  0.00000000000E+00  0.22631895801E+02  0.22631895801E+02  0.00000000000E+00 0.  1.
         21   -1    0    0  501  502 -0.00000000000E+00 -0.00000000000E+00 -0.22529853773E+04  0.22529853773E+04  0.00000000000E+00 0.  1.
         25    1    1    2    0    0 -0.16931943456E+03 -0.52714705413E+02 -0.14305131792E+04  0.14468727888E+04  0.12500000000E+03 0.  0.
         25    1    1    2    0    0  0.16931943456E+03  0.52714705413E+02 -0.79984030226E+03  0.82874448427E+03  0.12500000000E+03 0.  0.
</event>
<event>
 4    0  0.2185218E-002  0.2082520E+03  0.7546771E-02  0.1142958E+00
         21   -1    0    0  502  501  0.00000000000E+00  0.00000000000E+00  0.11001372813E+03  0.11001372813E+03  0.00000000000E+00 0.  1.
         21   -1    0    0  501  502 -0.00000000000E+00 -0.00000000000E+00 -0.39421361537E+03  0.39421361537E+03  0.00000000000E+00 0.  1.
         25    1    1    2    0    0 -0.16413597653E+03 -0.18294865738E+02 -0.11589380666E+03  0.23734299089E+03  0.12500000000E+03 0.  0.
         25    1    1    2    0    0  0.16413597653E+03  0.18294865738E+02 -0.16830608058E+03  0.26688435260E+03  0.12500000000E+03 0.  0.
</event>
<event>
 4    0  0.2185218E-002  0.1999820E+03  0.7546771E-02  0.1149754E+00
         21   -1    0    0  502  501  0.00000000000E+00  0.00000000000E+00  0.43415633249E+03  0.43415633249E+03  0.00000000000E+00 0.  1.
         21   -1    0    0  501  502 -0.00000000000E+00 -0.00000000000E+00 -0.92116112926E+02  0.92116112926E+02  0.00000000000E+00 0.  1.
         25    1    1    2    0    0 -0.18166845309E+02  0.70381172485E+02  0.35279224697E+03  0.38127537716E+03  0.12500000000E+03 0.  0.
         25    1    1    2    0    0  0.18166845309E+02 -0.70381172485E+02 -0.10752027405E+02  0.14499706825E+03  0.12500000000E+03 0.  0.
</event>
<event>
 4    0  0.2185218E-002  0.2796828E+03  0.7546771E-02  0.1095862E+00
         21   -1    0    0  502  501  0.00000000000E+00  0.00000000000E+00  0.29054700613E+04  0.29054700613E+04  0.00000000000E+00 0. -1.
         21   -1    0    0  501  502 -0.00000000000E+00 -0.00000000000E+00 -0.26922474572E+02  0.26922474572E+02  0.00000000000E+00 0.  1.
         25    1    1    2    0    0 -0.20769917110E+03 -0.12673451501E+03  0.11337357456E+04  0.11662685471E+04  0.12500000000E+03 0.  0.
         25    1    1    2    0    0  0.20769917110E+03  0.12673451501E+03  0.17448118411E+04  0.17661239888E+04  0.12500000000E+03 0.  0.
</event>
<event>
 4    0  0.2185218E-002  0.2752822E+03  0.7546771E-02  0.1098294E+00
         21   -1    0    0  502  501  0.00000000000E+00  0.00000000000E+00  0.13063295351E+04  0.13063295351E+04  0.00000000000E+00 0. -1.
         21   -1    0    0  501  502 -0.00000000000E+00 -0.00000000000E+00 -0.58010100272E+02  0.58010100272E+02  0.00000000000E+00 0. -1.
         25    1    1    2    0    0 -0.97577637016E+02 -0.16125224303E+03  0.23523919380E+03  0.32632217122E+03  0.12500000000E+03 0.  0.
         25    1    1    2    0    0  0.97577637016E+02  0.16125224303E+03  0.10130802410E+04  0.10380174642E+04  0.12500000000E+03 0.  0.
</event>
<event>
 4    0  0.2185218E-002  0.2065080E+03  0.7546771E-02  0.1144362E+00
         21   -1    0    0  502  501  0.00000000000E+00  0.00000000000E+00  0.40776608698E+03  0.40776608698E+03  0.00000000000E+00 0.  1.
         21   -1    0    0  501  502 -0.00000000000E+00 -0.00000000000E+00 -0.10458332819E+03  0.10458332819E+03  0.00000000000E+00 0.  1.
         25    1    1    2    0    0  0.11649231923E+03  0.11583097889E+03  0.14443736082E+03  0.25194131720E+03  0.12500000000E+03 0.  0.
         25    1    1    2    0    0 -0.11649231923E+03 -0.11583097889E+03  0.15874539797E+03  0.26040809797E+03  0.12500000000E+03 0.  0.
</event>
<event>
 4    0  0.2185218E-002  0.1707255E+03  0.7546771E-02  0.1177093E+00
         21   -1    0    0  502  501  0.00000000000E+00  0.00000000000E+00  0.42868290358E+02  0.42868290358E+02  0.00000000000E+00 0. -1.
         21   -1    0    0  501  502 -0.00000000000E+00 -0.00000000000E+00 -0.67992446561E+03  0.67992446561E+03  0.00000000000E+00 0. -1.
         25    1    1    2    0    0  0.41081019435E+02  0.10453415087E+03 -0.38228502674E+03  0.41759056566E+03  0.12500000000E+03 0.  0.
         25    1    1    2    0    0 -0.41081019435E+02 -0.10453415087E+03 -0.25477114852E+03  0.30520219031E+03  0.12500000000E+03 0.  0.
</event>
<event>
 4    0  0.2185218E-002  0.4069959E+03  0.7546771E-02  0.1041384E+00
         21   -1    0    0  502  501  0.00000000000E+00  0.00000000000E+00  0.70719368728E+02  0.70719368728E+02  0.00000000000E+00 0.  1.
         21   -1    0    0  501  502 -0.00000000000E+00 -0.00000000000E+00 -0.23422955687E+04  0.23422955687E+04  0.00000000000E+00 0.  1.
         25    1    1    2    0    0 -0.36170819416E+03 -0.58024326693E+02 -0.15086579519E+04  0.15575215748E+04  0.12500000000E+03 0.  0.
         25    1    1    2    0    0  0.36170819416E+03  0.58024326693E+02 -0.76291824804E+03  0.85549336257E+03  0.12500000000E+03 0.  0.
</event>
<event>
 4    0  0.2185218E-002  0.2188215E+03  0.7546771E-02  0.1134765E+00
         21   -1    0    0  502  501  0.00000000000E+00  0.00000000000E+00  0.11117571609E+04  0.11117571609E+04  0.00000000000E+00 0. -1.
         21   -1    0    0  501  502 -0.00000000000E+00 -0.00000000000E+00 -0.43069502529E+02  0.43069502529E+02  0.00000000000E+00 0. -1.
         25    1    1    2    0    0 -0.13682199810E+03  0.84681150685E+02  0.74489280317E+03  0.77225736944E+03  0.12500000000E+03 0.  0.
         25    1    1    2    0    0  0.13682199810E+03 -0.84681150685E+02  0.32379485520E+03  0.38256929399E+03  0.12500000000E+03 0.  0.
</event>
<event>
 4    0  0.2185218E-002  0.1402400E+03  0.7546771E-02  0.1213006E+00
         21   -1    0    0  502  501  0.00000000000E+00  0.00000000000E+00  0.12875643317E+02  0.12875643317E+02  0.00000000000E+00 0. -1.
         21   -1    0    0  501  502 -0.00000000000E+00 -0.00000000000E+00 -0.15274781512E+04  0.15274781512E+04  0.00000000000E+00 0. -1.
         25    1    1    2    0    0 -0.19458226410E+02  0.37068118382E+02 -0.49451785125E+03  0.51178664810E+03  0.12500000000E+03 0.  0.
         25    1    1    2    0    0  0.19458226410E+02 -0.37068118382E+02 -0.10200846566E+04  0.10285671464E+04  0.12500000000E+03 0.  0.
</event>
<event>
 4    0  0.2185218E-002  0.1844512E+03  0.7546771E-02  0.1163563E+00
         21   -1    0    0  502  501  0.00000000000E+00  0.00000000000E+00  0.13333206918E+03  0.13333206918E+03  0.00000000000E+00 0.  1.
         21   -1    0    0  501  502 -0.00000000000E+00 -0.00000000000E+00 -0.25516935935E+03  0.25516935935E+03  0.00000000000E+00 0.  1.
         25    1    1    2    0    0  0.69718509004E+02  0.48140650973E+02  0.50628742279E+02  0.15926852269E+03  0.12500000000E+03 0.  0.
         25    1    1    2    0    0 -0.69718509004E+02 -0.48140650973E+02 -0.17246603245E+03  0.22923290584E+03  0.12500000000E+03 0.  0.
</event>
<event>
 4    0  0.2185218E-002  0.2196702E+03  0.7546771E-02  0.1134129E+00
         21   -1    0    0  502  501  0.00000000000E+00  0.00000000000E+00  0.18873262132E+03  0.18873262132E+03  0.00000000000E+00 0. -1.
         21   -1    0    0  501  502 -0.00000000000E+00 -0.00000000000E+00 -0.25567922764E+03  0.25567922764E+03  0.00000000000E+00 0. -1.
         25    1    1    2    0    0 -0.16190522730E+03 -0.77374303615E+02 -0.12499317889E+02  0.21904638421E+03  0.12500000000E+03 0.  0.
         25    1    1    2    0    0  0.16190522730E+03  0.77374303615E+02 -0.54447288431E+02  0.22536546476E+03  0.12500000000E+03 0.  0.
</event>
<event>
 4    0  0.2185218E-002  0.1856213E+03  0.7546771E-02  0.1162471E+00
         21   -1    0    0  502  501  0.00000000000E+00  0.00000000000E+00  0.15346533750E+03  0.15346533750E+03  0.00000000000E+00 0. -1.
         21   -1    0    0  501  502 -0.00000000000E+00 -0.00000000000E+00 -0.22451506392E+03  0.22451506392E+03  0.00000000000E+00 0. -1.
         25    1    1    2    0    0 -0.13159037980E+03  0.30304719930E+02 -0.10671262077E+02  0.18431841997E+03  0.12500000000E+03 0.  0.
         25    1    1    2    0    0  0.13159037980E+03 -0.30304719930E+02 -0.60378464348E+02  0.19366198146E+03  0.12500000000E+03 0.  0.
</event>
<event>
 4    0  0.2185218E-002  0.3031007E+03  0.7546771E-02  0.1083701E+00
         21   -1    0    0  502  501  0.00000000000E+00  0.00000000000E+00  0.35699437794E+02  0.35699437794E+02  0.00000000000E+00 0.  1.
         21   -1    0    0  501  502 -0.00000000000E+00 -0.00000000000E+00 -0.25734300471E+04  0.25734300471E+04  0.00000000000E+00 0.  1.
         25    1    1    2    0    0  0.27623499268E+02 -0.27473714103E+03 -0.12636798250E+04  0.12995211635E+04  0.12500000000E+03 0.  0.
         25    1    1    2    0    0 -0.27623499268E+02  0.27473714103E+03 -0.12740507843E+04  0.13096083214E+04  0.12500000000E+03 0.  0.
</event>
<event>
 4    0  0.2185218E-002  0.3542483E+03  0.7546771E-02  0.1060885E+00
         21   -1    0    0  502  501  0.00000000000E+00  0.00000000000E+00  0.80664204671E+02  0.80664204671E+02  0.00000000000E+00 0. -1.
         21   -1    0    0  501  502 -0.00000000000E+00 -0.00000000000E+00 -0.15557316172E+04  0.15557316172E+04  0.00000000000E+00 0.  1.
         25    1    1    2    0    0  0.20041933448E+03  0.17055669256E+03 -0.12029736637E+04  0.12377512393E+04  0.12500000000E+03 0.  0.
         25    1    1    2    0    0 -0.20041933448E+03 -0.17055669256E+03 -0.27209374885E+03  0.39864458252E+03  0.12500000000E+03 0.  0.
</event>
<event>
 4    0  0.2185218E-002  0.3260873E+03  0.7546771E-02  0.1072881E+00
         21   -1    0    0  502  501  0.00000000000E+00  0.00000000000E+00  0.66361458813E+02  0.66361458813E+02  0.00000000000E+00 0.  1.
         21   -1    0    0  501  502 -0.00000000000E+00 -0.00000000000E+00 -0.16023300358E+04  0.16023300358E+04  0.00000000000E+00 0.  1.
         25    1    1    2    0    0  0.24172231351E+03  0.99483260527E+02 -0.11507696933E+04  0.11866855030E+04  0.12500000000E+03 0.  0.
         25    1    1    2    0    0 -0.24172231351E+03 -0.99483260527E+02 -0.38519888369E+03  0.48200599163E+03  0.12500000000E+03 0.  0.
</event>
