<event>
 3    0  0.4607503E-005  0.9118800E+02  0.7546771E-02  0.1235069E+00
         25   -1    0    0    0    0  0.00000000000E+00  0.00000000000E+00  0.99999998245E-14  0.12500000000E+03  0.12500000000E+03 0.  0.
          5    1    1    0  501    0  0.25983609818E+02 -0.21211902656E+02  0.52526823686E+02  0.62500000000E+02  0.47000000000E+01 0.  1.
         -5    1    1    0    0  501 -0.25983609818E+02  0.21211902656E+02 -0.52526823686E+02  0.62500000000E+02  0.47000000000E+01 0.  1.
</event>
<event>
 3    0  0.4607503E-005  0.9118800E+02  0.7546771E-02  0.1235069E+00
         25   -1    0    0    0    0  0.00000000000E+00  0.00000000000E+00  0.99999998245E-14  0.12500000000E+03  0.12500000000E+03 0.  0.
          5    1    1    0  501    0  0.33745461820E+02 -0.34689588721E+02 -0.39268769282E+02  0.62500000000E+02  0.47000000000E+01 0. -1.
         -5    1    1    0    0  501 -0.33745461820E+02  0.34689588721E+02  0.39268769282E+02  0.62500000000E+02  0.47000000000E+01 0. -1.
</event>
<event>
 3    0  0.4607503E-005  0.9118800E+02  0.7546771E-02  0.1235069E+00
         25   -1    0    0    0    0  0.00000000000E+00  0.00000000000E+00  0.99999998245E-14  0.12500000000E+03  0.12500000000E+03 0.  0.
          5    1    1    0  501    0  0.26125815034E+02  0.58764867117E+00  0.56579647028E+02  0.62500000000E+02  0.47000000000E+01 0. -1.
         -5    1    1    0    0  501 -0.26125815034E+02 -0.58764867117E+00 -0.56579647028E+02  0.62500000000E+02  0.47000000000E+01 0. -1.
</event>
<event>
 3    0  0.4607503E-005  0.9118800E+02  0.7546771E-02  0.1235069E+00
         25   -1    0    0    0    0  0.00000000000E+00  0.00000000000E+00  0.99999998245E-14  0.12500000000E+03  0.12500000000E+03 0.  0.
          5    1    1    0  501    0  0.18515025667E+02 -0.54814351847E+02  0.23167664020E+02  0.62500000000E+02  0.47000000000E+01 0.  1.
         -5    1    1    0    0  501 -0.18515025667E+02  0.54814351847E+02 -0.23167664020E+02  0.62500000000E+02  0.47000000000E+01 0.  1.
</event>
<event>
 3    0  0.4607503E-005  0.9118800E+02  0.7546771E-02  0.1235069E+00
         25   -1    0    0    0    0  0.00000000000E+00  0.00000000000E+00  0.99999998245E-14  0.12500000000E+03  0.12500000000E+03 0.  0.
          5    1    1    0  501    0 -0.17961014320E+02  0.33876076351E+02 -0.49132203448E+02  0.62500000000E+02  0.47000000000E+01 0.  1.
         -5    1    1    0    0  501  0.17961014320E+02 -0.33876076351E+02  0.49132203448E+02  0.62500000000E+02  0.47000000000E+01 0.  1.
</event>
<event>
 3    0  0.4607503E-005  0.9118800E+02  0.7546771E-02  0.1235069E+00
         25   -1    0    0    0    0  0.00000000000E+00  0.00000000000E+00  0.99999998245E-14  0.12500000000E+03  0.12500000000E+03 0.  0.
          5    1    1    0  501    0 -0.38101168303E+02 -0.48354496057E+02  0.97110084476E+01  0.62500000000E+02  0.47000000000E+01 0.  1.
         -5    1    1    0    0  501  0.38101168303E+02  0.48354496057E+02 -0.97110084476E+01  0.62500000000E+02  0.47000000000E+01 0.  1.
</event>
<event>
 3    0  0.4607503E-005  0.9118800E+02  0.7546771E-02  0.1235069E+00
         25   -1    0    0    0    0  0.00000000000E+00  0.00000000000E+00  0.99999998245E-14  0.12500000000E+03  0.12500000000E+03 0.  0.
          5    1    1    0  501    0  0.12092102562E+02  0.60938972372E+02  0.49378843543E+01  0.62500000000E+02  0.47000000000E+01 0.  1.
         -5    1    1    0    0  501 -0.12092102562E+02 -0.60938972372E+02 -0.49378843543E+01  0.62500000000E+02  0.47000000000E+01 0.  1.
</event>
<event>
 3    0  0.4607503E-005  0.9118800E+02  0.7546771E-02  0.1235069E+00
         25   -1    0    0    0    0  0.00000000000E+00  0.00000000000E+00  0.99999998245E-14  0.12500000000E+03  0.12500000000E+03 0.  0.
          5    1    1    0  501    0 -0.11901217859E+02  0.38870629561E+02 -0.47239762605E+02  0.62500000000E+02  0.47000000000E+01 0.  1.
         -5    1    1    0    0  501  0.11901217859E+02 -0.38870629561E+02  0.47239762605E+02  0.62500000000E+02  0.47000000000E+01 0.  1.
</event>
<event>
 3    0  0.4607503E-005  0.9118800E+02  0.7546771E-02  0.1235069E+00
         25   -1    0    0    0    0  0.00000000000E+00  0.00000000000E+00  0.99999998245E-14  0.12500000000E+03  0.12500000000E+03 0.  0.
          5    1    1    0  501    0 -0.49645786009E+01 -0.43046675230E+02  0.44793936096E+02  0.62500000000E+02  0.47000000000E+01 0.  1.
         -5    1    1    0    0  501  0.49645786009E+01  0.43046675230E+02 -0.44793936096E+02  0.62500000000E+02  0.47000000000E+01 0.  1.
</event>
<event>
 3    0  0.4607503E-005  0.9118800E+02  0.7546771E-02  0.1235069E+00
         25   -1    0    0    0    0  0.00000000000E+00  0.00000000000E+00  0.99999998245E-14  0.12500000000E+03  0.12500000000E+03 0.  0.
          5    1    1    0  501    0  0.38663949056E+02  0.23798186468E+02 -0.42695495831E+02  0.62500000000E+02  0.47000000000E+01 0.  1.
         -5    1    1    0    0  501 -0.38663949056E+02 -0.23798186468E+02  0.42695495831E+02  0.62500000000E+02  0.47000000000E+01 0.  1.
</event>
<event>
 3    0  0.4607503E-005  0.9118800E+02  0.7546771E-02  0.1235069E+00
         25   -1    0    0    0    0  0.00000000000E+00  0.00000000000E+00  0.99999998245E-14  0.12500000000E+03  0.12500000000E+03 0.  0.
          5    1    1    0  501    0 -0.55046871911E+01  0.51904028458E+02  0.34056280607E+02  0.62500000000E+02  0.47000000000E+01 0.  1.
         -5    1    1    0    0  501  0.55046871911E+01 -0.51904028458E+02 -0.34056280607E+02  0.62500000000E+02  0.47000000000E+01 0.  1.
</event>
<event>
 3    0  0.4607503E-005  0.9118800E+02  0.7546771E-02  0.1235069E+00
         25   -1    0    0    0    0  0.00000000000E+00  0.00000000000E+00  0.99999998245E-14  0.12500000000E+03  0.12500000000E+03 0.  0.
          5    1    1    0  501    0 -0.40104110651E+02  0.23834781616E+02  0.41324611241E+02  0.62500000000E+02  0.47000000000E+01 0.  1.
         -5    1    1    0    0  501  0.40104110651E+02 -0.23834781616E+02 -0.41324611241E+02  0.62500000000E+02  0.47000000000E+01 0.  1.
</event>
<event>
 3    0  0.4607503E-005  0.9118800E+02  0.7546771E-02  0.1235069E+00
         25   -1    0    0    0    0  0.00000000000E+00  0.00000000000E+00  0.99999998245E-14  0.12500000000E+03  0.12500000000E+03 0.  0.
          5    1    1    0  501    0 -0.14760643860E+02 -0.54591371324E+02  0.26192853410E+02  0.62500000000E+02  0.47000000000E+01 0. -1.
         -5    1    1    0    0  501  0.14760643860E+02  0.54591371324E+02 -0.26192853410E+02  0.62500000000E+02  0.47000000000E+01 0. -1.
</event>
<event>
 3    0  0.4607503E-005  0.9118800E+02  0.7546771E-02  0.1235069E+00
         25   -1    0    0    0    0  0.00000000000E+00  0.00000000000E+00  0.99999998245E-14  0.12500000000E+03  0.12500000000E+03 0.  0.
          5    1    1    0  501    0  0.27677182957E+02  0.43187838964E+02  0.35396950564E+02  0.62500000000E+02  0.47000000000E+01 0.  1.
         -5    1    1    0    0  501 -0.27677182957E+02 -0.43187838964E+02 -0.35396950564E+02  0.62500000000E+02  0.47000000000E+01 0.  1.
</event>
<event>
 3    0  0.4607503E-005  0.9118800E+02  0.7546771E-02  0.1235069E+00
         25   -1    0    0    0    0  0.00000000000E+00  0.00000000000E+00  0.99999998245E-14  0.12500000000E+03  0.12500000000E+03 0.  0.
          5    1    1    0  501    0  0.30490722533E+02  0.30739245610E+02 -0.44828279230E+02  0.62500000000E+02  0.47000000000E+01 0. -1.
         -5    1    1    0    0  501 -0.30490722533E+02 -0.30739245610E+02  0.44828279230E+02  0.62500000000E+02  0.47000000000E+01 0. -1.
</event>
<event>
 3    0  0.4607503E-005  0.9118800E+02  0.7546771E-02  0.1235069E+00
         25   -1    0    0    0    0  0.00000000000E+00  0.00000000000E+00  0.99999998245E-14  0.12500000000E+03  0.12500000000E+03 0.  0.
          5    1    1    0  501    0  0.54223128867E+02 -0.73754531574E+01 -0.29826414243E+02  0.62500000000E+02  0.47000000000E+01 0.  1.
         -5    1    1    0    0  501 -0.54223128867E+02  0.73754531574E+01  0.29826414243E+02  0.62500000000E+02  0.47000000000E+01 0.  1.
</event>
<event>
 3    0  0.4607503E-005  0.9118800E+02  0.7546771E-02  0.1235069E+00
         25   -1    0    0    0    0  0.00000000000E+00  0.00000000000E+00  0.99999998245E-14  0.12500000000E+03  0.12500000000E+03 0.  0.
          5    1    1    0  501    0 -0.10691797953E+02  0.11632571866E+02 -0.60287052742E+02  0.62500000000E+02  0.47000000000E+01 0. -1.
         -5    1    1    0    0  501  0.10691797953E+02 -0.11632571866E+02  0.60287052742E+02  0.62500000000E+02  0.47000000000E+01 0. -1.
</event>
<event>
 3    0  0.4607503E-005  0.9118800E+02  0.7546771E-02  0.1235069E+00
         25   -1    0    0    0    0  0.00000000000E+00  0.00000000000E+00  0.99999998245E-14  0.12500000000E+03  0.12500000000E+03 0.  0.
          5    1    1    0  501    0 -0.26873966475E+02  0.17791755857E+02  0.53342322310E+02  0.62500000000E+02  0.47000000000E+01 0. -1.
         -5    1    1    0    0  501  0.26873966475E+02 -0.17791755857E+02 -0.53342322310E+02  0.62500000000E+02  0.47000000000E+01 0. -1.
</event>
<event>
 3    0  0.4607503E-005  0.9118800E+02  0.7546771E-02  0.1235069E+00
         25   -1    0    0    0    0  0.00000000000E+00  0.00000000000E+00  0.99999998245E-14  0.12500000000E+03  0.12500000000E+03 0.  0.
          5    1    1    0  501    0  0.28405131076E+02 -0.31909055747E+02  0.45377535079E+02  0.62500000000E+02  0.47000000000E+01 0.  1.
         -5    1    1    0    0  501 -0.28405131076E+02  0.31909055747E+02 -0.45377535079E+02  0.62500000000E+02  0.47000000000E+01 0.  1.
</event>
<event>
 3    0  0.4607503E-005  0.9118800E+02  0.7546771E-02  0.1235069E+00
         25   -1    0    0    0    0  0.00000000000E+00  0.00000000000E+00  0.99999998245E-14  0.12500000000E+03  0.12500000000E+03 0.  0.
          5    1    1    0  501    0  0.34193733954E+02 -0.90431051613E+01  0.51314430790E+02  0.62500000000E+02  0.47000000000E+01 0. -1.
         -5    1    1    0    0  501 -0.34193733954E+02  0.90431051613E+01 -0.51314430790E+02  0.62500000000E+02  0.47000000000E+01 0. -1.
</event>
<event>
 3    0  0.4607503E-005  0.9118800E+02  0.7546771E-02  0.1235069E+00
         25   -1    0    0    0    0  0.00000000000E+00  0.00000000000E+00  0.99999998245E-14  0.12500000000E+03  0.12500000000E+03 0.  0.
          5    1    1    0  501    0 -0.24572760430E+02 -0.63768000636E+01  0.56918150583E+02  0.62500000000E+02  0.47000000000E+01 0. -1.
         -5    1    1    0    0  501  0.24572760430E+02  0.63768000636E+01 -0.56918150583E+02  0.62500000000E+02  0.47000000000E+01 0. -1.
</event>
<event>
 3    0  0.4607503E-005  0.9118800E+02  0.7546771E-02  0.1235069E+00
         25   -1    0    0    0    0  0.00000000000E+00  0.00000000000E+00  0.99999998245E-14  0.12500000000E+03  0.12500000000E+03 0.  0.
          5    1    1    0  501    0  0.53219181678E+02  0.31573822383E+02  0.74143402742E+01  0.62500000000E+02  0.47000000000E+01 0. -1.
         -5    1    1    0    0  501 -0.53219181678E+02 -0.31573822383E+02 -0.74143402742E+01  0.62500000000E+02  0.47000000000E+01 0. -1.
</event>
<event>
 3    0  0.4607503E-005  0.9118800E+02  0.7546771E-02  0.1235069E+00
         25   -1    0    0    0    0  0.00000000000E+00  0.00000000000E+00  0.99999998245E-14  0.12500000000E+03  0.12500000000E+03 0.  0.
          5    1    1    0  501    0  0.18042979373E+02  0.59091428251E+02  0.81739832721E+01  0.62500000000E+02  0.47000000000E+01 0. -1.
         -5    1    1    0    0  501 -0.18042979373E+02 -0.59091428251E+02 -0.81739832721E+01  0.62500000000E+02  0.47000000000E+01 0. -1.
</event>
<event>
 3    0  0.4607503E-005  0.9118800E+02  0.7546771E-02  0.1235069E+00
         25   -1    0    0    0    0  0.00000000000E+00  0.00000000000E+00  0.99999998245E-14  0.12500000000E+03  0.12500000000E+03 0.  0.
          5    1    1    0  501    0  0.35691371452E+02 -0.45016963636E+02 -0.24161104877E+02  0.62500000000E+02  0.47000000000E+01 0. -1.
         -5    1    1    0    0  501 -0.35691371452E+02  0.45016963636E+02  0.24161104877E+02  0.62500000000E+02  0.47000000000E+01 0. -1.
</event>
<event>
 3    0  0.4607503E-005  0.9118800E+02  0.7546771E-02  0.1235069E+00
         25   -1    0    0    0    0  0.00000000000E+00  0.00000000000E+00  0.99999998245E-14  0.12500000000E+03  0.12500000000E+03 0.  0.
          5    1    1    0  501    0 -0.39329798405E+02 -0.18474559220E+01 -0.48310597844E+02  0.62500000000E+02  0.47000000000E+01 0. -1.
         -5    1    1    0    0  501  0.39329798405E+02  0.18474559220E+01  0.48310597844E+02  0.62500000000E+02  0.47000000000E+01 0. -1.
</event>
<event>
 3    0  0.4607503E-005  0.9118800E+02  0.7546771E-02  0.1235069E+00
         25   -1    0    0    0    0  0.00000000000E+00  0.00000000000E+00  0.99999998245E-14  0.12500000000E+03  0.12500000000E+03 0.  0.
          5    1    1    0  501    0 -0.63439285321E+00  0.60604461973E+02 -0.14520906814E+02  0.62500000000E+02  0.47000000000E+01 0.  1.
         -5    1    1    0    0  501  0.63439285321E+00 -0.60604461973E+02  0.14520906814E+02  0.62500000000E+02  0.47000000000E+01 0.  1.
</event>
<event>
 3    0  0.4607503E-005  0.9118800E+02  0.7546771E-02  0.1235069E+00
         25   -1    0    0    0    0  0.00000000000E+00  0.00000000000E+00  0.99999998245E-14  0.12500000000E+03  0.12500000000E+03 0.  0.
          5    1    1    0  501    0  0.21888619636E+02  0.34156976261E+02  0.47311196382E+02  0.62500000000E+02  0.47000000000E+01 0. -1.
         -5    1    1    0    0  501 -0.21888619636E+02 -0.34156976261E+02 -0.47311196382E+02  0.62500000000E+02  0.47000000000E+01 0. -1.
</event>
<event>
 3    0  0.4607503E-005  0.9118800E+02  0.7546771E-02  0.1235069E+00
         25   -1    0    0    0    0  0.00000000000E+00  0.00000000000E+00  0.99999998245E-14  0.12500000000E+03  0.12500000000E+03 0.  0.
          5    1    1    0  501    0 -0.48257647259E+02  0.22576379559E+02  0.32336768037E+02  0.62500000000E+02  0.47000000000E+01 0.  1.
         -5    1    1    0    0  501  0.48257647259E+02 -0.22576379559E+02 -0.32336768037E+02  0.62500000000E+02  0.47000000000E+01 0.  1.
</event>
<event>
 3    0  0.4607503E-005  0.9118800E+02  0.7546771E-02  0.1235069E+00
         25   -1    0    0    0    0  0.00000000000E+00  0.00000000000E+00  0.99999998245E-14  0.12500000000E+03  0.12500000000E+03 0.  0.
          5    1    1    0  501    0 -0.11871028620E+02  0.11113587186E+01  0.61171918078E+02  0.62500000000E+02  0.47000000000E+01 0. -1.
         -5    1    1    0    0  501  0.11871028620E+02 -0.11113587186E+01 -0.61171918078E+02  0.62500000000E+02  0.47000000000E+01 0. -1.
</event>
<event>
 3    0  0.4607503E-005  0.9118800E+02  0.7546771E-02  0.1235069E+00
         25   -1    0    0    0    0  0.00000000000E+00  0.00000000000E+00  0.99999998245E-14  0.12500000000E+03  0.12500000000E+03 0.  0.
          5    1    1    0  501    0 -0.36813407022E+02 -0.42531402638E+02 -0.26833055233E+02  0.62500000000E+02  0.47000000000E+01 0. -1.
         -5    1    1    0    0  501  0.36813407022E+02  0.42531402638E+02  0.26833055233E+02  0.62500000000E+02  0.47000000000E+01 0. -1.
</event>
<event>
 3    0  0.4607503E-005  0.9118800E+02  0.7546771E-02  0.1235069E+00
         25   -1    0    0    0    0  0.00000000000E+00  0.00000000000E+00  0.99999998245E-14  0.12500000000E+03  0.12500000000E+03 0.  0.
          5    1    1    0  501    0 -0.24405044944E+01  0.32121923704E+02 -0.53351531893E+02  0.62500000000E+02  0.47000000000E+01 0. -1.
         -5    1    1    0    0  501  0.24405044944E+01 -0.32121923704E+02  0.53351531893E+02  0.62500000000E+02  0.47000000000E+01 0. -1.
</event>
<event>
 3    0  0.4607503E-005  0.9118800E+02  0.7546771E-02  0.1235069E+00
         25   -1    0    0    0    0  0.00000000000E+00  0.00000000000E+00  0.99999998245E-14  0.12500000000E+03  0.12500000000E+03 0.  0.
          5    1    1    0  501    0 -0.47636645479E+02  0.62763432657E+01 -0.39692789304E+02  0.62500000000E+02  0.47000000000E+01 0.  1.
         -5    1    1    0    0  501  0.47636645479E+02 -0.62763432657E+01  0.39692789304E+02  0.62500000000E+02  0.47000000000E+01 0.  1.
</event>
<event>
 3    0  0.4607503E-005  0.9118800E+02  0.7546771E-02  0.1235069E+00
         25   -1    0    0    0    0  0.00000000000E+00  0.00000000000E+00  0.99999998245E-14  0.12500000000E+03  0.12500000000E+03 0.  0.
          5    1    1    0  501    0  0.37196210617E+02  0.46563084360E+02 -0.18234064017E+02  0.62500000000E+02  0.47000000000E+01 0.  1.
         -5    1    1    0    0  501 -0.37196210617E+02 -0.46563084360E+02  0.18234064017E+02  0.62500000000E+02  0.47000000000E+01 0.  1.
</event>
<event>
 3    0  0.4607503E-005  0.9118800E+02  0.7546771E-02  0.1235069E+00
         25   -1    0    0    0    0  0.00000000000E+00  0.00000000000E+00  0.99999998245E-14  0.12500000000E+03  0.12500000000E+03 0.  0.
          5    1    1    0  501    0 -0.40185160716E+02  0.31018915769E+02  0.36154387323E+02  0.62500000000E+02  0.47000000000E+01 0.  1.
         -5    1    1    0    0  501  0.40185160716E+02 -0.31018915769E+02 -0.36154387323E+02  0.62500000000E+02  0.47000000000E+01 0.  1.
</event>
<event>
 3    0  0.4607503E-005  0.9118800E+02  0.7546771E-02  0.1235069E+00
         25   -1    0    0    0    0  0.00000000000E+00  0.00000000000E+00  0.99999998245E-14  0.12500000000E+03  0.12500000000E+03 0.  0.
          5    1    1    0  501    0 -0.41567374524E+02  0.39803130486E+02  0.23917026961E+02  0.62500000000E+02  0.47000000000E+01 0.  1.
         -5    1    1    0    0  501  0.41567374524E+02 -0.39803130486E+02 -0.23917026961E+02  0.62500000000E+02  0.47000000000E+01 0.  1.
</event>
<event>
 3    0  0.4607503E-005  0.9118800E+02  0.7546771E-02  0.1235069E+00
         25   -1    0    0    0    0  0.00000000000E+00  0.00000000000E+00  0.99999998245E-14  0.12500000000E+03  0.12500000000E+03 0.  0.
          5    1    1    0  501    0 -0.57613330039E+01  0.43498458097E+02 -0.44258910800E+02  0.62500000000E+02  0.47000000000E+01 0.  1.
         -5    1    1    0    0  501  0.57613330039E+01 -0.43498458097E+02  0.44258910800E+02  0.62500000000E+02  0.47000000000E+01 0.  1.
</event>
<event>
 3    0  0.4607503E-005  0.9118800E+02  0.7546771E-02  0.1235069E+00
         25   -1    0    0    0    0  0.00000000000E+00  0.00000000000E+00  0.99999998245E-14  0.12500000000E+03  0.12500000000E+03 0.  0.
          5    1    1    0  501    0 -0.96209755109E+01  0.60802552304E+02 -0.97286414033E+01  0.62500000000E+02  0.47000000000E+01 0.  1.
         -5    1    1    0    0  501  0.96209755109E+01 -0.60802552304E+02  0.97286414033E+01  0.62500000000E+02  0.47000000000E+01 0.  1.
</event>
<event>
 3    0  0.4607503E-005  0.9118800E+02  0.7546771E-02  0.1235069E+00
         25   -1    0    0    0    0  0.00000000000E+00  0.00000000000E+00  0.99999998245E-14  0.12500000000E+03  0.12500000000E+03 0.  0.
          5    1    1    0  501    0  0.10488251531E+02 -0.36500200436E+02  0.49415503113E+02  0.62500000000E+02  0.47000000000E+01 0.  1.
         -5    1    1    0    0  501 -0.10488251531E+02  0.36500200436E+02 -0.49415503113E+02  0.62500000000E+02  0.47000000000E+01 0.  1.
</event>
<event>
 3    0  0.4607503E-005  0.9118800E+02  0.7546771E-02  0.1235069E+00
         25   -1    0    0    0    0  0.00000000000E+00  0.00000000000E+00  0.99999998245E-14  0.12500000000E+03  0.12500000000E+03 0.  0.
          5    1    1    0  501    0 -0.59885095611E+02 -0.17145739543E+02  0.19897083034E+01  0.62500000000E+02  0.47000000000E+01 0.  1.
         -5    1    1    0    0  501  0.59885095611E+02  0.17145739543E+02 -0.19897083034E+01  0.62500000000E+02  0.47000000000E+01 0.  1.
</event>
<event>
 3    0  0.4607503E-005  0.9118800E+02  0.7546771E-02  0.1235069E+00
         25   -1    0    0    0    0  0.00000000000E+00  0.00000000000E+00  0.99999998245E-14  0.12500000000E+03  0.12500000000E+03 0.  0.
          5    1    1    0  501    0  0.50419134165E+02  0.15790959765E+02  0.33056262641E+02  0.62500000000E+02  0.47000000000E+01 0. -1.
         -5    1    1    0    0  501 -0.50419134165E+02 -0.15790959765E+02 -0.33056262641E+02  0.62500000000E+02  0.47000000000E+01 0. -1.
</event>
<event>
 3    0  0.4607503E-005  0.9118800E+02  0.7546771E-02  0.1235069E+00
         25   -1    0    0    0    0  0.00000000000E+00  0.00000000000E+00  0.99999998245E-14  0.12500000000E+03  0.12500000000E+03 0.  0.
          5    1    1    0  501    0  0.23575985617E+02  0.39210030812E+02  0.42319101904E+02  0.62500000000E+02  0.47000000000E+01 0. -1.
         -5    1    1    0    0  501 -0.23575985617E+02 -0.39210030812E+02 -0.42319101904E+02  0.62500000000E+02  0.47000000000E+01 0. -1.
</event>
<event>
 3    0  0.4607503E-005  0.9118800E+02  0.7546771E-02  0.1235069E+00
         25   -1    0    0    0    0  0.00000000000E+00  0.00000000000E+00  0.99999998245E-14  0.12500000000E+03  0.12500000000E+03 0.  0.
          5    1    1    0  501    0  0.61574520073E+02 -0.92601350885E+01 -0.26435536606E+01  0.62500000000E+02  0.47000000000E+01 0.  1.
         -5    1    1    0    0  501 -0.61574520073E+02  0.92601350885E+01  0.26435536606E+01  0.62500000000E+02  0.47000000000E+01 0.  1.
</event>
<event>
 3    0  0.4607503E-005  0.9118800E+02  0.7546771E-02  0.1235069E+00
         25   -1    0    0    0    0  0.00000000000E+00  0.00000000000E+00  0.99999998245E-14  0.12500000000E+03  0.12500000000E+03 0.  0.
          5    1    1    0  501    0  0.58114017602E+02 -0.16946319723E+01 -0.22451039633E+02  0.62500000000E+02  0.47000000000E+01 0.  1.
         -5    1    1    0    0  501 -0.58114017602E+02  0.16946319723E+01  0.22451039633E+02  0.62500000000E+02  0.47000000000E+01 0.  1.
</event>
<event>
 3    0  0.4607503E-005  0.9118800E+02  0.7546771E-02  0.1235069E+00
         25   -1    0    0    0    0  0.00000000000E+00  0.00000000000E+00  0.99999998245E-14  0.12500000000E+03  0.12500000000E+03 0.  0.
          5    1    1    0  501    0  0.17924081193E+02  0.53992498828E+02  0.25449899483E+02  0.62500000000E+02  0.47000000000E+01 0. -1.
         -5    1    1    0    0  501 -0.17924081193E+02 -0.53992498828E+02 -0.25449899483E+02  0.62500000000E+02  0.47000000000E+01 0. -1.
</event>
<event>
 3    0  0.4607503E-005  0.9118800E+02  0.7546771E-02  0.1235069E+00
         25   -1    0    0    0    0  0.00000000000E+00  0.00000000000E+00  0.99999998245E-14  0.12500000000E+03  0.12500000000E+03 0.  0.
          5    1    1    0  501    0 -0.44594079784E+02 -0.42349225955E+02 -0.10103024753E+02  0.62500000000E+02  0.47000000000E+01 0. -1.
         -5    1    1    0    0  501  0.44594079784E+02  0.42349225955E+02  0.10103024753E+02  0.62500000000E+02  0.47000000000E+01 0. -1.
</event>
<event>
 3    0  0.4607503E-005  0.9118800E+02  0.7546771E-02  0.1235069E+00
         25   -1    0    0    0    0  0.00000000000E+00  0.00000000000E+00  0.99999998245E-14  0.12500000000E+03  0.12500000000E+03 0.  0.
          5    1    1    0  501    0  0.33330808885E+01 -0.56253278113E+02 -0.26619903706E+02  0.62500000000E+02  0.47000000000E+01 0.  1.
         -5    1    1    0    0  501 -0.33330808885E+01  0.56253278113E+02  0.26619903706E+02  0.62500000000E+02  0.47000000000E+01 0.  1.
</event>
<event>
 3    0  0.4607503E-005  0.9118800E+02  0.7546771E-02  0.1235069E+00
         25   -1    0    0    0    0  0.00000000000E+00  0.00000000000E+00  0.99999998245E-14  0.12500000000E+03  0.12500000000E+03 0.  0.
          5    1    1    0  501    0 -0.42091201169E+02 -0.21139177930E+02 -0.40812080817E+02  0.62500000000E+02  0.47000000000E+01 0. -1.
         -5    1    1    0    0  501  0.42091201169E+02  0.21139177930E+02  0.40812080817E+02  0.62500000000E+02  0.47000000000E+01 0. -1.
</event>
<event>
 3    0  0.4607503E-005  0.9118800E+02  0.7546771E-02  0.1235069E+00
         25   -1    0    0    0    0  0.00000000000E+00  0.00000000000E+00  0.99999998245E-14  0.12500000000E+03  0.12500000000E+03 0.  0.
          5    1    1    0  501    0  0.54578867475E+01 -0.27313335779E+02 -0.55752606763E+02  0.62500000000E+02  0.47000000000E+01 0. -1.
         -5    1    1    0    0  501 -0.54578867475E+01  0.27313335779E+02  0.55752606763E+02  0.62500000000E+02  0.47000000000E+01 0. -1.
</event>
<event>
 3    0  0.4607503E-005  0.9118800E+02  0.7546771E-02  0.1235069E+00
         25   -1    0    0    0    0  0.00000000000E+00  0.00000000000E+00  0.99999998245E-14  0.12500000000E+03  0.12500000000E+03 0.  0.
          5    1    1    0  501    0 -0.19876897665E+02  0.87331682960E+01  0.58419181017E+02  0.62500000000E+02  0.47000000000E+01 0.  1.
         -5    1    1    0    0  501  0.19876897665E+02 -0.87331682960E+01 -0.58419181017E+02  0.62500000000E+02  0.47000000000E+01 0.  1.
</event>
<event>
 3    0  0.4607503E-005  0.9118800E+02  0.7546771E-02  0.1235069E+00
         25   -1    0    0    0    0  0.00000000000E+00  0.00000000000E+00  0.99999998245E-14  0.12500000000E+03  0.12500000000E+03 0.  0.
          5    1    1    0  501    0 -0.60841767047E+02  0.11118334259E+02  0.76695518698E+01  0.62500000000E+02  0.47000000000E+01 0. -1.
         -5    1    1    0    0  501  0.60841767047E+02 -0.11118334259E+02 -0.76695518698E+01  0.62500000000E+02  0.47000000000E+01 0. -1.
</event>
<event>
 3    0  0.4607503E-005  0.9118800E+02  0.7546771E-02  0.1235069E+00
         25   -1    0    0    0    0  0.00000000000E+00  0.00000000000E+00  0.99999998245E-14  0.12500000000E+03  0.12500000000E+03 0.  0.
          5    1    1    0  501    0  0.31289095786E+02  0.46171308489E+02  0.27809400521E+02  0.62500000000E+02  0.47000000000E+01 0. -1.
         -5    1    1    0    0  501 -0.31289095786E+02 -0.46171308489E+02 -0.27809400521E+02  0.62500000000E+02  0.47000000000E+01 0. -1.
</event>
<event>
 3    0  0.4607503E-005  0.9118800E+02  0.7546771E-02  0.1235069E+00
         25   -1    0    0    0    0  0.00000000000E+00  0.00000000000E+00  0.99999998245E-14  0.12500000000E+03  0.12500000000E+03 0.  0.
          5    1    1    0  501    0 -0.62127644227E+02 -0.45533868486E+01 -0.18927469549E+01  0.62500000000E+02  0.47000000000E+01 0. -1.
         -5    1    1    0    0  501  0.62127644227E+02  0.45533868486E+01  0.18927469549E+01  0.62500000000E+02  0.47000000000E+01 0. -1.
</event>
<event>
 3    0  0.4607503E-005  0.9118800E+02  0.7546771E-02  0.1235069E+00
         25   -1    0    0    0    0  0.00000000000E+00  0.00000000000E+00  0.99999998245E-14  0.12500000000E+03  0.12500000000E+03 0.  0.
          5    1    1    0  501    0 -0.36873088216E+02 -0.47446900914E+02  0.16532602914E+02  0.62500000000E+02  0.47000000000E+01 0. -1.
         -5    1    1    0    0  501  0.36873088216E+02  0.47446900914E+02 -0.16532602914E+02  0.62500000000E+02  0.47000000000E+01 0. -1.
</event>
<event>
 3    0  0.4607503E-005  0.9118800E+02  0.7546771E-02  0.1235069E+00
         25   -1    0    0    0    0  0.00000000000E+00  0.00000000000E+00  0.99999998245E-14  0.12500000000E+03  0.12500000000E+03 0.  0.
          5    1    1    0  501    0  0.82085888147E+01  0.31897296158E+01 -0.61697687920E+02  0.62500000000E+02  0.47000000000E+01 0.  1.
         -5    1    1    0    0  501 -0.82085888147E+01 -0.31897296158E+01  0.61697687920E+02  0.62500000000E+02  0.47000000000E+01 0.  1.
</event>
<event>
 3    0  0.4607503E-005  0.9118800E+02  0.7546771E-02  0.1235069E+00
         25   -1    0    0    0    0  0.00000000000E+00  0.00000000000E+00  0.99999998245E-14  0.12500000000E+03  0.12500000000E+03 0.  0.
          5    1    1    0  501    0 -0.52424392547E+02 -0.32619895789E+02 -0.84726303339E+01  0.62500000000E+02  0.47000000000E+01 0.  1.
         -5    1    1    0    0  501  0.52424392547E+02  0.32619895789E+02  0.84726303339E+01  0.62500000000E+02  0.47000000000E+01 0.  1.
</event>
<event>
 3    0  0.4607503E-005  0.9118800E+02  0.7546771E-02  0.1235069E+00
         25   -1    0    0    0    0  0.00000000000E+00  0.00000000000E+00  0.99999998245E-14  0.12500000000E+03  0.12500000000E+03 0.  0.
          5    1    1    0  501    0  0.27221500349E+02 -0.55420430234E+02  0.84691104275E+01  0.62500000000E+02  0.47000000000E+01 0.  1.
         -5    1    1    0    0  501 -0.27221500349E+02  0.55420430234E+02 -0.84691104275E+01  0.62500000000E+02  0.47000000000E+01 0.  1.
</event>
<event>
 3    0  0.4607503E-005  0.9118800E+02  0.7546771E-02  0.1235069E+00
         25   -1    0    0    0    0  0.00000000000E+00  0.00000000000E+00  0.99999998245E-14  0.12500000000E+03  0.12500000000E+03 0.  0.
          5    1    1    0  501    0 -0.68616116080E+01 -0.48915330648E+02  0.38004851188E+02  0.62500000000E+02  0.47000000000E+01 0.  1.
         -5    1    1    0    0  501  0.68616116080E+01  0.48915330648E+02 -0.38004851188E+02  0.62500000000E+02  0.47000000000E+01 0.  1.
</event>
<event>
 3    0  0.4607503E-005  0.9118800E+02  0.7546771E-02  0.1235069E+00
         25   -1    0    0    0    0  0.00000000000E+00  0.00000000000E+00  0.99999998245E-14  0.12500000000E+03  0.12500000000E+03 0.  0.
          5    1    1    0  501    0 -0.10619427126E+02  0.60205239897E+02  0.12112673382E+02  0.62500000000E+02  0.47000000000E+01 0.  1.
         -5    1    1    0    0  501  0.10619427126E+02 -0.60205239897E+02 -0.12112673382E+02  0.62500000000E+02  0.47000000000E+01 0.  1.
</event>
<event>
 3    0  0.4607503E-005  0.9118800E+02  0.7546771E-02  0.1235069E+00
         25   -1    0    0    0    0  0.00000000000E+00  0.00000000000E+00  0.99999998245E-14  0.12500000000E+03  0.12500000000E+03 0.  0.
          5    1    1    0  501    0 -0.12989613497E+02  0.18384987608E+02 -0.58115593190E+02  0.62500000000E+02  0.47000000000E+01 0.  1.
         -5    1    1    0    0  501  0.12989613497E+02 -0.18384987608E+02  0.58115593190E+02  0.62500000000E+02  0.47000000000E+01 0.  1.
</event>
<event>
 3    0  0.4607503E-005  0.9118800E+02  0.7546771E-02  0.1235069E+00
         25   -1    0    0    0    0  0.00000000000E+00  0.00000000000E+00  0.99999998245E-14  0.12500000000E+03  0.12500000000E+03 0.  0.
          5    1    1    0  501    0  0.48584101262E+02 -0.13538546899E+02  0.36612195406E+02  0.62500000000E+02  0.47000000000E+01 0. -1.
         -5    1    1    0    0  501 -0.48584101262E+02  0.13538546899E+02 -0.36612195406E+02  0.62500000000E+02  0.47000000000E+01 0. -1.
</event>
<event>
 3    0  0.4607503E-005  0.9118800E+02  0.7546771E-02  0.1235069E+00
         25   -1    0    0    0    0  0.00000000000E+00  0.00000000000E+00  0.99999998245E-14  0.12500000000E+03  0.12500000000E+03 0.  0.
          5    1    1    0  501    0  0.24180262679E+02 -0.25749651901E+02 -0.51346181200E+02  0.62500000000E+02  0.47000000000E+01 0. -1.
         -5    1    1    0    0  501 -0.24180262679E+02  0.25749651901E+02  0.51346181200E+02  0.62500000000E+02  0.47000000000E+01 0. -1.
</event>
<event>
 3    0  0.4607503E-005  0.9118800E+02  0.7546771E-02  0.1235069E+00
         25   -1    0    0    0    0  0.00000000000E+00  0.00000000000E+00  0.99999998245E-14  0.12500000000E+03  0.12500000000E+03 0.  0.
          5    1    1    0  501    0  0.59224080405E+02  0.10380191644E+02  0.16398778051E+02  0.62500000000E+02  0.47000000000E+01 0.  1.
         -5    1    1    0    0  501 -0.59224080405E+02 -0.10380191644E+02 -0.16398778051E+02  0.62500000000E+02  0.47000000000E+01 0.  1.
</event>
<event>
 3    0  0.4607503E-005  0.9118800E+02  0.7546771E-02  0.1235069E+00
         25   -1    0    0    0    0  0.00000000000E+00  0.00000000000E+00  0.99999998245E-14  0.12500000000E+03  0.12500000000E+03 0.  0.
          5    1    1    0  501    0  0.78591870323E+01  0.53634099602E+02  0.30753480113E+02  0.62500000000E+02  0.47000000000E+01 0. -1.
         -5    1    1    0    0  501 -0.78591870323E+01 -0.53634099602E+02 -0.30753480113E+02  0.62500000000E+02  0.47000000000E+01 0. -1.
</event>
<event>
 3    0  0.4607503E-005  0.9118800E+02  0.7546771E-02  0.1235069E+00
         25   -1    0    0    0    0  0.00000000000E+00  0.00000000000E+00  0.99999998245E-14  0.12500000000E+03  0.12500000000E+03 0.  0.
          5    1    1    0  501    0 -0.17926209745E+02  0.42171439933E+02 -0.42241930094E+02  0.62500000000E+02  0.47000000000E+01 0.  1.
         -5    1    1    0    0  501  0.17926209745E+02 -0.42171439933E+02  0.42241930094E+02  0.62500000000E+02  0.47000000000E+01 0.  1.
</event>
<event>
 3    0  0.4607503E-005  0.9118800E+02  0.7546771E-02  0.1235069E+00
         25   -1    0    0    0    0  0.00000000000E+00  0.00000000000E+00  0.99999998245E-14  0.12500000000E+03  0.12500000000E+03 0.  0.
          5    1    1    0  501    0  0.23861101841E+02 -0.56937683643E+02 -0.85386181712E+01  0.62500000000E+02  0.47000000000E+01 0. -1.
         -5    1    1    0    0  501 -0.23861101841E+02  0.56937683643E+02  0.85386181712E+01  0.62500000000E+02  0.47000000000E+01 0. -1.
</event>
<event>
 3    0  0.4607503E-005  0.9118800E+02  0.7546771E-02  0.1235069E+00
         25   -1    0    0    0    0  0.00000000000E+00  0.00000000000E+00  0.99999998245E-14  0.12500000000E+03  0.12500000000E+03 0.  0.
          5    1    1    0  501    0  0.57411789095E+02 -0.19415087507E+02  0.14529310032E+02  0.62500000000E+02  0.47000000000E+01 0.  1.
         -5    1    1    0    0  501 -0.57411789095E+02  0.19415087507E+02 -0.14529310032E+02  0.62500000000E+02  0.47000000000E+01 0.  1.
</event>
<event>
 3    0  0.4607503E-005  0.9118800E+02  0.7546771E-02  0.1235069E+00
         25   -1    0    0    0    0  0.00000000000E+00  0.00000000000E+00  0.99999998245E-14  0.12500000000E+03  0.12500000000E+03 0.  0.
          5    1    1    0  501    0 -0.88676634927E+01  0.62541013427E+01 -0.61371090593E+02  0.62500000000E+02  0.47000000000E+01 0. -1.
         -5    1    1    0    0  501  0.88676634927E+01 -0.62541013427E+01  0.61371090593E+02  0.62500000000E+02  0.47000000000E+01 0. -1.
</event>
<event>
 3    0  0.4607503E-005  0.9118800E+02  0.7546771E-02  0.1235069E+00
         25   -1    0    0    0    0  0.00000000000E+00  0.00000000000E+00  0.99999998245E-14  0.12500000000E+03  0.12500000000E+03 0.  0.
          5    1    1    0  501    0  0.52451348469E+02 -0.31543988816E+02 -0.11747034238E+02  0.62500000000E+02  0.47000000000E+01 0. -1.
         -5    1    1    0    0  501 -0.52451348469E+02  0.31543988816E+02  0.11747034238E+02  0.62500000000E+02  0.47000000000E+01 0. -1.
</event>
<event>
 3    0  0.4607503E-005  0.9118800E+02  0.7546771E-02  0.1235069E+00
         25   -1    0    0    0    0  0.00000000000E+00  0.00000000000E+00  0.99999998245E-14  0.12500000000E+03  0.12500000000E+03 0.  0.
          5    1    1    0  501    0  0.37408636020E+02 -0.45904405659E+02  0.19430375504E+02  0.62500000000E+02  0.47000000000E+01 0.  1.
         -5    1    1    0    0  501 -0.37408636020E+02  0.45904405659E+02 -0.19430375504E+02  0.62500000000E+02  0.47000000000E+01 0.  1.
</event>
<event>
 3    0  0.4607503E-005  0.9118800E+02  0.7546771E-02  0.1235069E+00
         25   -1    0    0    0    0  0.00000000000E+00  0.00000000000E+00  0.99999998245E-14  0.12500000000E+03  0.12500000000E+03 0.  0.
          5    1    1    0  501    0  0.38862170398E+01 -0.16752947042E+02 -0.59903222639E+02  0.62500000000E+02  0.47000000000E+01 0.  1.
         -5    1    1    0    0  501 -0.38862170398E+01  0.16752947042E+02  0.59903222639E+02  0.62500000000E+02  0.47000000000E+01 0.  1.
</event>
<event>
 3    0  0.4607503E-005  0.9118800E+02  0.7546771E-02  0.1235069E+00
         25   -1    0    0    0    0  0.00000000000E+00  0.00000000000E+00  0.99999998245E-14  0.12500000000E+03  0.12500000000E+03 0.  0.
          5    1    1    0  501    0  0.32451925297E+02  0.32355264936E+02  0.42239429156E+02  0.62500000000E+02  0.47000000000E+01 0.  1.
         -5    1    1    0    0  501 -0.32451925297E+02 -0.32355264936E+02 -0.42239429156E+02  0.62500000000E+02  0.47000000000E+01 0.  1.
</event>
<event>
 3    0  0.4607503E-005  0.9118800E+02  0.7546771E-02  0.1235069E+00
         25   -1    0    0    0    0  0.00000000000E+00  0.00000000000E+00  0.99999998245E-14  0.12500000000E+03  0.12500000000E+03 0.  0.
          5    1    1    0  501    0  0.12934515740E+02 -0.10980367364E+02 -0.59969073989E+02  0.62500000000E+02  0.47000000000E+01 0. -1.
         -5    1    1    0    0  501 -0.12934515740E+02  0.10980367364E+02  0.59969073989E+02  0.62500000000E+02  0.47000000000E+01 0. -1.
</event>
<event>
 3    0  0.4607503E-005  0.9118800E+02  0.7546771E-02  0.1235069E+00
         25   -1    0    0    0    0  0.00000000000E+00  0.00000000000E+00  0.99999998245E-14  0.12500000000E+03  0.12500000000E+03 0.  0.
          5    1    1    0  501    0 -0.33610848498E+02 -0.56219474999E+01  0.52181074821E+02  0.62500000000E+02  0.47000000000E+01 0.  1.
         -5    1    1    0    0  501  0.33610848498E+02  0.56219474999E+01 -0.52181074821E+02  0.62500000000E+02  0.47000000000E+01 0.  1.
</event>
<event>
 3    0  0.4607503E-005  0.9118800E+02  0.7546771E-02  0.1235069E+00
         25   -1    0    0    0    0  0.00000000000E+00  0.00000000000E+00  0.99999998245E-14  0.12500000000E+03  0.12500000000E+03 0.  0.
          5    1    1    0  501    0  0.12404990279E+01 -0.27511962070E+02  0.55908077281E+02  0.62500000000E+02  0.47000000000E+01 0.  1.
         -5    1    1    0    0  501 -0.12404990279E+01  0.27511962070E+02 -0.55908077281E+02  0.62500000000E+02  0.47000000000E+01 0.  1.
</event>
<event>
 3    0  0.4607503E-005  0.9118800E+02  0.7546771E-02  0.1235069E+00
         25   -1    0    0    0    0  0.00000000000E+00  0.00000000000E+00  0.99999998245E-14  0.12500000000E+03  0.12500000000E+03 0.  0.
          5    1    1    0  501    0  0.37971926209E+02 -0.46635317410E+02  0.16353592572E+02  0.62500000000E+02  0.47000000000E+01 0.  1.
         -5    1    1    0    0  501 -0.37971926209E+02  0.46635317410E+02 -0.16353592572E+02  0.62500000000E+02  0.47000000000E+01 0.  1.
</event>
<event>
 3    0  0.4607503E-005  0.9118800E+02  0.7546771E-02  0.1235069E+00
         25   -1    0    0    0    0  0.00000000000E+00  0.00000000000E+00  0.99999998245E-14  0.12500000000E+03  0.12500000000E+03 0.  0.
          5    1    1    0  501    0 -0.15378496965E+02  0.33716440719E+02  0.50108516805E+02  0.62500000000E+02  0.47000000000E+01 0.  1.
         -5    1    1    0    0  501  0.15378496965E+02 -0.33716440719E+02 -0.50108516805E+02  0.62500000000E+02  0.47000000000E+01 0.  1.
</event>
<event>
 3    0  0.4607503E-005  0.9118800E+02  0.7546771E-02  0.1235069E+00
         25   -1    0    0    0    0  0.00000000000E+00  0.00000000000E+00  0.99999998245E-14  0.12500000000E+03  0.12500000000E+03 0.  0.
          5    1    1    0  501    0 -0.42953098626E+01 -0.47121021104E+02  0.40562540395E+02  0.62500000000E+02  0.47000000000E+01 0.  1.
         -5    1    1    0    0  501  0.42953098626E+01  0.47121021104E+02 -0.40562540395E+02  0.62500000000E+02  0.47000000000E+01 0.  1.
</event>
<event>
 3    0  0.4607503E-005  0.9118800E+02  0.7546771E-02  0.1235069E+00
         25   -1    0    0    0    0  0.00000000000E+00  0.00000000000E+00  0.99999998245E-14  0.12500000000E+03  0.12500000000E+03 0.  0.
          5    1    1    0  501    0  0.30692641439E+02 -0.26172203961E+02  0.47509341201E+02  0.62500000000E+02  0.47000000000E+01 0.  1.
         -5    1    1    0    0  501 -0.30692641439E+02  0.26172203961E+02 -0.47509341201E+02  0.62500000000E+02  0.47000000000E+01 0.  1.
</event>
<event>
 3    0  0.4607503E-005  0.9118800E+02  0.7546771E-02  0.1235069E+00
         25   -1    0    0    0    0  0.00000000000E+00  0.00000000000E+00  0.99999998245E-14  0.12500000000E+03  0.12500000000E+03 0.  0.
          5    1    1    0  501    0 -0.47546448742E+02 -0.40282028768E+02 -0.92378048252E+00  0.62500000000E+02  0.47000000000E+01 0.  1.
         -5    1    1    0    0  501  0.47546448742E+02  0.40282028768E+02  0.92378048252E+00  0.62500000000E+02  0.47000000000E+01 0.  1.
</event>
<event>
 3    0  0.4607503E-005  0.9118800E+02  0.7546771E-02  0.1235069E+00
         25   -1    0    0    0    0  0.00000000000E+00  0.00000000000E+00  0.99999998245E-14  0.12500000000E+03  0.12500000000E+03 0.  0.
          5    1    1    0  501    0 -0.55662358568E+02 -0.27829829138E+02  0.33708231614E+01  0.62500000000E+02  0.47000000000E+01 0.  1.
         -5    1    1    0    0  501  0.55662358568E+02  0.27829829138E+02 -0.33708231614E+01  0.62500000000E+02  0.47000000000E+01 0.  1.
</event>
<event>
 3    0  0.4607503E-005  0.9118800E+02  0.7546771E-02  0.1235069E+00
         25   -1    0    0    0    0  0.00000000000E+00  0.00000000000E+00  0.99999998245E-14  0.12500000000E+03  0.12500000000E+03 0.  0.
          5    1    1    0  501    0  0.22927435497E+01 -0.21739413208E+01 -0.62242889603E+02  0.62500000000E+02  0.47000000000E+01 0. -1.
         -5    1    1    0    0  501 -0.22927435497E+01  0.21739413208E+01  0.62242889603E+02  0.62500000000E+02  0.47000000000E+01 0. -1.
</event>
<event>
 3    0  0.4607503E-005  0.9118800E+02  0.7546771E-02  0.1235069E+00
         25   -1    0    0    0    0  0.00000000000E+00  0.00000000000E+00  0.99999998245E-14  0.12500000000E+03  0.12500000000E+03 0.  0.
          5    1    1    0  501    0  0.13299182358E+02 -0.53704271068E+02 -0.28690469109E+02  0.62500000000E+02  0.47000000000E+01 0.  1.
         -5    1    1    0    0  501 -0.13299182358E+02  0.53704271068E+02  0.28690469109E+02  0.62500000000E+02  0.47000000000E+01 0.  1.
</event>
<event>
 3    0  0.4607503E-005  0.9118800E+02  0.7546771E-02  0.1235069E+00
         25   -1    0    0    0    0  0.00000000000E+00  0.00000000000E+00  0.99999998245E-14  0.12500000000E+03  0.12500000000E+03 0.  0.
          5    1    1    0  501    0 -0.12818491932E+02  0.28802009660E+02 -0.53761422081E+02  0.62500000000E+02  0.47000000000E+01 0.  1.
         -5    1    1    0    0  501  0.12818491932E+02 -0.28802009660E+02  0.53761422081E+02  0.62500000000E+02  0.47000000000E+01 0.  1.
</event>
<event>
 3    0  0.4607503E-005  0.9118800E+02  0.7546771E-02  0.1235069E+00
         25   -1    0    0    0    0  0.00000000000E+00  0.00000000000E+00  0.99999998245E-14  0.12500000000E+03  0.12500000000E+03 0.  0.
          5    1    1    0  501    0 -0.15856169280E+02 -0.35825404075E+02 -0.48469395691E+02  0.62500000000E+02  0.47000000000E+01 0. -1.
         -5    1    1    0    0  501  0.15856169280E+02  0.35825404075E+02  0.48469395691E+02  0.62500000000E+02  0.47000000000E+01 0. -1.
</event>
<event>
 3    0  0.4607503E-005  0.9118800E+02  0.7546771E-02  0.1235069E+00
         25   -1    0    0    0    0  0.00000000000E+00  0.00000000000E+00  0.99999998245E-14  0.12500000000E+03  0.12500000000E+03 0.  0.
          5    1    1    0  501    0  0.11562685227E+02 -0.16788230058E+02  0.58894988258E+02  0.62500000000E+02  0.47000000000E+01 0. -1.
         -5    1    1    0    0  501 -0.11562685227E+02  0.16788230058E+02 -0.58894988258E+02  0.62500000000E+02  0.47000000000E+01 0. -1.
</event>
<event>
 3    0  0.4607503E-005  0.9118800E+02  0.7546771E-02  0.1235069E+00
         25   -1    0    0    0    0  0.00000000000E+00  0.00000000000E+00  0.99999998245E-14  0.12500000000E+03  0.12500000000E+03 0.  0.
          5    1    1    0  501    0 -0.45029178892E+02  0.31678840449E+02 -0.29205891805E+02  0.62500000000E+02  0.47000000000E+01 0. -1.
         -5    1    1    0    0  501  0.45029178892E+02 -0.31678840449E+02  0.29205891805E+02  0.62500000000E+02  0.47000000000E+01 0. -1.
</event>
<event>
 3    0  0.4607503E-005  0.9118800E+02  0.7546771E-02  0.1235069E+00
         25   -1    0    0    0    0  0.00000000000E+00  0.00000000000E+00  0.99999998245E-14  0.12500000000E+03  0.12500000000E+03 0.  0.
          5    1    1    0  501    0  0.62025654577E+02  0.60635552277E+01  0.45986115808E+00  0.62500000000E+02  0.47000000000E+01 0. -1.
         -5    1    1    0    0  501 -0.62025654577E+02 -0.60635552277E+01 -0.45986115808E+00  0.62500000000E+02  0.47000000000E+01 0. -1.
</event>
<event>
 3    0  0.4607503E-005  0.9118800E+02  0.7546771E-02  0.1235069E+00
         25   -1    0    0    0    0  0.00000000000E+00  0.00000000000E+00  0.99999998245E-14  0.12500000000E+03  0.12500000000E+03 0.  0.
          5    1    1    0  501    0 -0.45171360064E+02  0.21579258704E+01  0.42884164746E+02  0.62500000000E+02  0.47000000000E+01 0.  1.
         -5    1    1    0    0  501  0.45171360064E+02 -0.21579258704E+01 -0.42884164746E+02  0.62500000000E+02  0.47000000000E+01 0.  1.
</event>
<event>
 3    0  0.4607503E-005  0.9118800E+02  0.7546771E-02  0.1235069E+00
         25   -1    0    0    0    0  0.00000000000E+00  0.00000000000E+00  0.99999998245E-14  0.12500000000E+03  0.12500000000E+03 0.  0.
          5    1    1    0  501    0 -0.48580288992E+02 -0.37037854482E+02  0.12341509504E+02  0.62500000000E+02  0.47000000000E+01 0. -1.
         -5    1    1    0    0  501  0.48580288992E+02  0.37037854482E+02 -0.12341509504E+02  0.62500000000E+02  0.47000000000E+01 0. -1.
</event>
<event>
 3    0  0.4607503E-005  0.9118800E+02  0.7546771E-02  0.1235069E+00
         25   -1    0    0    0    0  0.00000000000E+00  0.00000000000E+00  0.99999998245E-14  0.12500000000E+03  0.12500000000E+03 0.  0.
          5    1    1    0  501    0  0.12688622042E+02  0.41995831541E+02  0.44266341658E+02  0.62500000000E+02  0.47000000000E+01 0. -1.
         -5    1    1    0    0  501 -0.12688622042E+02 -0.41995831541E+02 -0.44266341658E+02  0.62500000000E+02  0.47000000000E+01 0. -1.
</event>
<event>
 3    0  0.4607503E-005  0.9118800E+02  0.7546771E-02  0.1235069E+00
         25   -1    0    0    0    0  0.00000000000E+00  0.00000000000E+00  0.99999998245E-14  0.12500000000E+03  0.12500000000E+03 0.  0.
          5    1    1    0  501    0  0.29945275924E+02 -0.16772080191E+02  0.52020551476E+02  0.62500000000E+02  0.47000000000E+01 0. -1.
         -5    1    1    0    0  501 -0.29945275924E+02  0.16772080191E+02 -0.52020551476E+02  0.62500000000E+02  0.47000000000E+01 0. -1.
</event>
<event>
 3    0  0.4607503E-005  0.9118800E+02  0.7546771E-02  0.1235069E+00
         25   -1    0    0    0    0  0.00000000000E+00  0.00000000000E+00  0.99999998245E-14  0.12500000000E+03  0.12500000000E+03 0.  0.
          5    1    1    0  501    0  0.43426691228E+02  0.22928898648E+02  0.38373794388E+02  0.62500000000E+02  0.47000000000E+01 0. -1.
         -5    1    1    0    0  501 -0.43426691228E+02 -0.22928898648E+02 -0.38373794388E+02  0.62500000000E+02  0.47000000000E+01 0. -1.
</event>
<event>
 3    0  0.4607503E-005  0.9118800E+02  0.7546771E-02  0.1235069E+00
         25   -1    0    0    0    0  0.00000000000E+00  0.00000000000E+00  0.99999998245E-14  0.12500000000E+03  0.12500000000E+03 0.  0.
          5    1    1    0  501    0  0.30350950926E+02  0.45067233217E+02 -0.30527434678E+02  0.62500000000E+02  0.47000000000E+01 0.  1.
         -5    1    1    0    0  501 -0.30350950926E+02 -0.45067233217E+02  0.30527434678E+02  0.62500000000E+02  0.47000000000E+01 0.  1.
</event>
<event>
 3    0  0.4607503E-005  0.9118800E+02  0.7546771E-02  0.1235069E+00
         25   -1    0    0    0    0  0.00000000000E+00  0.00000000000E+00  0.99999998245E-14  0.12500000000E+03  0.12500000000E+03 0.  0.
          5    1    1    0  501    0 -0.23348752971E+02  0.56731851150E+02 -0.10976921237E+02  0.62500000000E+02  0.47000000000E+01 0. -1.
         -5    1    1    0    0  501  0.23348752971E+02 -0.56731851150E+02  0.10976921237E+02  0.62500000000E+02  0.47000000000E+01 0. -1.
</event>
<event>
 3    0  0.4607503E-005  0.9118800E+02  0.7546771E-02  0.1235069E+00
         25   -1    0    0    0    0  0.00000000000E+00  0.00000000000E+00  0.99999998245E-14  0.12500000000E+03  0.12500000000E+03 0.  0.
          5    1    1    0  501    0 -0.54391679159E+01  0.59142797824E+02 -0.18886633314E+02  0.62500000000E+02  0.47000000000E+01 0.  1.
         -5    1    1    0    0  501  0.54391679159E+01 -0.59142797824E+02  0.18886633314E+02  0.62500000000E+02  0.47000000000E+01 0.  1.
</event>
<event>
 3    0  0.4607503E-005  0.9118800E+02  0.7546771E-02  0.1235069E+00
         25   -1    0    0    0    0  0.00000000000E+00  0.00000000000E+00  0.99999998245E-14  0.12500000000E+03  0.12500000000E+03 0.  0.
          5    1    1    0  501    0  0.47120493843E+02  0.14855902798E+02  0.37988435241E+02  0.62500000000E+02  0.47000000000E+01 0. -1.
         -5    1    1    0    0  501 -0.47120493843E+02 -0.14855902798E+02 -0.37988435241E+02  0.62500000000E+02  0.47000000000E+01 0. -1.
</event>
<event>
 3    0  0.4607503E-005  0.9118800E+02  0.7546771E-02  0.1235069E+00
         25   -1    0    0    0    0  0.00000000000E+00  0.00000000000E+00  0.99999998245E-14  0.12500000000E+03  0.12500000000E+03 0.  0.
          5    1    1    0  501    0  0.52503396386E+02 -0.25187888783E+02  0.22206387069E+02  0.62500000000E+02  0.47000000000E+01 0.  1.
         -5    1    1    0    0  501 -0.52503396386E+02  0.25187888783E+02 -0.22206387069E+02  0.62500000000E+02  0.47000000000E+01 0.  1.
</event>
<event>
 3    0  0.4607503E-005  0.9118800E+02  0.7546771E-02  0.1235069E+00
         25   -1    0    0    0    0  0.00000000000E+00  0.00000000000E+00  0.99999998245E-14  0.12500000000E+03  0.12500000000E+03 0.  0.
          5    1    1    0  501    0 -0.51132396859E+02  0.35620239636E+02 -0.91461452333E+00  0.62500000000E+02  0.47000000000E+01 0.  1.
         -5    1    1    0    0  501  0.51132396859E+02 -0.35620239636E+02  0.91461452333E+00  0.62500000000E+02  0.47000000000E+01 0.  1.
</event>
<event>
 3    0  0.4607503E-005  0.9118800E+02  0.7546771E-02  0.1235069E+00
         25   -1    0    0    0    0  0.00000000000E+00  0.00000000000E+00  0.99999998245E-14  0.12500000000E+03  0.12500000000E+03 0.  0.
          5    1    1    0  501    0 -0.59310028951E+02 -0.41809197371E+01 -0.18681551756E+02  0.62500000000E+02  0.47000000000E+01 0. -1.
         -5    1    1    0    0  501  0.59310028951E+02  0.41809197371E+01  0.18681551756E+02  0.62500000000E+02  0.47000000000E+01 0. -1.
</event>
<event>
 3    0  0.4607503E-005  0.9118800E+02  0.7546771E-02  0.1235069E+00
         25   -1    0    0    0    0  0.00000000000E+00  0.00000000000E+00  0.99999998245E-14  0.12500000000E+03  0.12500000000E+03 0.  0.
          5    1    1    0  501    0  0.35444169371E+02  0.46556427252E+02  0.21456233108E+02  0.62500000000E+02  0.47000000000E+01 0.  1.
         -5    1    1    0    0  501 -0.35444169371E+02 -0.46556427252E+02 -0.21456233108E+02  0.62500000000E+02  0.47000000000E+01 0.  1.
</event>
<event>
 3    0  0.4607503E-005  0.9118800E+02  0.7546771E-02  0.1235069E+00
         25   -1    0    0    0    0  0.00000000000E+00  0.00000000000E+00  0.99999998245E-14  0.12500000000E+03  0.12500000000E+03 0.  0.
          5    1    1    0  501    0  0.40459009531E+02 -0.40905714707E+02  0.23957275556E+02  0.62500000000E+02  0.47000000000E+01 0. -1.
         -5    1    1    0    0  501 -0.40459009531E+02  0.40905714707E+02 -0.23957275556E+02  0.62500000000E+02  0.47000000000E+01 0. -1.
</event>
<event>
 3    0  0.4607503E-005  0.9118800E+02  0.7546771E-02  0.1235069E+00
         25   -1    0    0    0    0  0.00000000000E+00  0.00000000000E+00  0.99999998245E-14  0.12500000000E+03  0.12500000000E+03 0.  0.
          5    1    1    0  501    0  0.58185283087E+02 -0.22179081306E+02  0.25925247369E+01  0.62500000000E+02  0.47000000000E+01 0. -1.
         -5    1    1    0    0  501 -0.58185283087E+02  0.22179081306E+02 -0.25925247369E+01  0.62500000000E+02  0.47000000000E+01 0. -1.
</event>
<event>
 3    0  0.4607503E-005  0.9118800E+02  0.7546771E-02  0.1235069E+00
         25   -1    0    0    0    0  0.00000000000E+00  0.00000000000E+00  0.99999998245E-14  0.12500000000E+03  0.12500000000E+03 0.  0.
          5    1    1    0  501    0  0.41178830361E+02 -0.11726253903E+02  0.45287513727E+02  0.62500000000E+02  0.47000000000E+01 0. -1.
         -5    1    1    0    0  501 -0.41178830361E+02  0.11726253903E+02 -0.45287513727E+02  0.62500000000E+02  0.47000000000E+01 0. -1.
</event>
<event>
 3    0  0.4607503E-005  0.9118800E+02  0.7546771E-02  0.1235069E+00
         25   -1    0    0    0    0  0.00000000000E+00  0.00000000000E+00  0.99999998245E-14  0.12500000000E+03  0.12500000000E+03 0.  0.
          5    1    1    0  501    0 -0.55548384134E+02  0.26252731620E+02 -0.10456151422E+02  0.62500000000E+02  0.47000000000E+01 0. -1.
         -5    1    1    0    0  501  0.55548384134E+02 -0.26252731620E+02  0.10456151422E+02  0.62500000000E+02  0.47000000000E+01 0. -1.
</event>
<event>
 3    0  0.4607503E-005  0.9118800E+02  0.7546771E-02  0.1235069E+00
         25   -1    0    0    0    0  0.00000000000E+00  0.00000000000E+00  0.99999998245E-14  0.12500000000E+03  0.12500000000E+03 0.  0.
          5    1    1    0  501    0  0.29041795215E+02  0.31506694423E+02 -0.45255522726E+02  0.62500000000E+02  0.47000000000E+01 0.  1.
         -5    1    1    0    0  501 -0.29041795215E+02 -0.31506694423E+02  0.45255522726E+02  0.62500000000E+02  0.47000000000E+01 0.  1.
</event>
<event>
 3    0  0.4607503E-005  0.9118800E+02  0.7546771E-02  0.1235069E+00
         25   -1    0    0    0    0  0.00000000000E+00  0.00000000000E+00  0.99999998245E-14  0.12500000000E+03  0.12500000000E+03 0.  0.
          5    1    1    0  501    0  0.17332401975E+02 -0.56754014957E+02  0.19045462138E+02  0.62500000000E+02  0.47000000000E+01 0. -1.
         -5    1    1    0    0  501 -0.17332401975E+02  0.56754014957E+02 -0.19045462138E+02  0.62500000000E+02  0.47000000000E+01 0. -1.
</event>
<event>
 3    0  0.4607503E-005  0.9118800E+02  0.7546771E-02  0.1235069E+00
         25   -1    0    0    0    0  0.00000000000E+00  0.00000000000E+00  0.99999998245E-14  0.12500000000E+03  0.12500000000E+03 0.  0.
          5    1    1    0  501    0 -0.46332296168E+02  0.40445502015E+02  0.10081651580E+02  0.62500000000E+02  0.47000000000E+01 0. -1.
         -5    1    1    0    0  501  0.46332296168E+02 -0.40445502015E+02 -0.10081651580E+02  0.62500000000E+02  0.47000000000E+01 0. -1.
</event>
<event>
 3    0  0.4607503E-005  0.9118800E+02  0.7546771E-02  0.1235069E+00
         25   -1    0    0    0    0  0.00000000000E+00  0.00000000000E+00  0.99999998245E-14  0.12500000000E+03  0.12500000000E+03 0.  0.
          5    1    1    0  501    0 -0.28880019072E+02 -0.51876669240E+02 -0.18945070254E+02  0.62500000000E+02  0.47000000000E+01 0.  1.
         -5    1    1    0    0  501  0.28880019072E+02  0.51876669240E+02  0.18945070254E+02  0.62500000000E+02  0.47000000000E+01 0.  1.
</event>
<event>
 3    0  0.4607503E-005  0.9118800E+02  0.7546771E-02  0.1235069E+00
         25   -1    0    0    0    0  0.00000000000E+00  0.00000000000E+00  0.99999998245E-14  0.12500000000E+03  0.12500000000E+03 0.  0.
          5    1    1    0  501    0  0.33828666101E+02 -0.17508882476E+02 -0.49327683751E+02  0.62500000000E+02  0.47000000000E+01 0. -1.
         -5    1    1    0    0  501 -0.33828666101E+02  0.17508882476E+02  0.49327683751E+02  0.62500000000E+02  0.47000000000E+01 0. -1.
</event>
<event>
 3    0  0.4607503E-005  0.9118800E+02  0.7546771E-02  0.1235069E+00
         25   -1    0    0    0    0  0.00000000000E+00  0.00000000000E+00  0.99999998245E-14  0.12500000000E+03  0.12500000000E+03 0.  0.
          5    1    1    0  501    0  0.38025452412E+02 -0.38511535962E+02 -0.30904474865E+02  0.62500000000E+02  0.47000000000E+01 0.  1.
         -5    1    1    0    0  501 -0.38025452412E+02  0.38511535962E+02  0.30904474865E+02  0.62500000000E+02  0.47000000000E+01 0.  1.
</event>
<event>
 3    0  0.4607503E-005  0.9118800E+02  0.7546771E-02  0.1235069E+00
         25   -1    0    0    0    0  0.00000000000E+00  0.00000000000E+00  0.99999998245E-14  0.12500000000E+03  0.12500000000E+03 0.  0.
          5    1    1    0  501    0 -0.22021481393E+02 -0.12766500128E+02 -0.56887879480E+02  0.62500000000E+02  0.47000000000E+01 0. -1.
         -5    1    1    0    0  501  0.22021481393E+02  0.12766500128E+02  0.56887879480E+02  0.62500000000E+02  0.47000000000E+01 0. -1.
</event>
<event>
 3    0  0.4607503E-005  0.9118800E+02  0.7546771E-02  0.1235069E+00
         25   -1    0    0    0    0  0.00000000000E+00  0.00000000000E+00  0.99999998245E-14  0.12500000000E+03  0.12500000000E+03 0.  0.
          5    1    1    0  501    0  0.22686095843E+02  0.25132505725E+02 -0.52324546930E+02  0.62500000000E+02  0.47000000000E+01 0. -1.
         -5    1    1    0    0  501 -0.22686095843E+02 -0.25132505725E+02  0.52324546930E+02  0.62500000000E+02  0.47000000000E+01 0. -1.
</event>
<event>
 3    0  0.4607503E-005  0.9118800E+02  0.7546771E-02  0.1235069E+00
         25   -1    0    0    0    0  0.00000000000E+00  0.00000000000E+00  0.99999998245E-14  0.12500000000E+03  0.12500000000E+03 0.  0.
          5    1    1    0  501    0 -0.17470078134E+01 -0.55209821142E+02 -0.28861455492E+02  0.62500000000E+02  0.47000000000E+01 0. -1.
         -5    1    1    0    0  501  0.17470078134E+01  0.55209821142E+02  0.28861455492E+02  0.62500000000E+02  0.47000000000E+01 0. -1.
</event>
<event>
 3    0  0.4607503E-005  0.9118800E+02  0.7546771E-02  0.1235069E+00
         25   -1    0    0    0    0  0.00000000000E+00  0.00000000000E+00  0.99999998245E-14  0.12500000000E+03  0.12500000000E+03 0.  0.
          5    1    1    0  501    0  0.29538599457E+02  0.45385686965E+02 -0.30850778934E+02  0.62500000000E+02  0.47000000000E+01 0. -1.
         -5    1    1    0    0  501 -0.29538599457E+02 -0.45385686965E+02  0.30850778934E+02  0.62500000000E+02  0.47000000000E+01 0. -1.
</event>
<event>
 3    0  0.4607503E-005  0.9118800E+02  0.7546771E-02  0.1235069E+00
         25   -1    0    0    0    0  0.00000000000E+00  0.00000000000E+00  0.99999998245E-14  0.12500000000E+03  0.12500000000E+03 0.  0.
          5    1    1    0  501    0  0.39983011779E+02 -0.24986269495E+02  0.40757883971E+02  0.62500000000E+02  0.47000000000E+01 0.  1.
         -5    1    1    0    0  501 -0.39983011779E+02  0.24986269495E+02 -0.40757883971E+02  0.62500000000E+02  0.47000000000E+01 0.  1.
</event>
<event>
 3    0  0.4607503E-005  0.9118800E+02  0.7546771E-02  0.1235069E+00
         25   -1    0    0    0    0  0.00000000000E+00  0.00000000000E+00  0.99999998245E-14  0.12500000000E+03  0.12500000000E+03 0.  0.
          5    1    1    0  501    0 -0.29623578867E+02  0.32733681157E+02 -0.43989881712E+02  0.62500000000E+02  0.47000000000E+01 0. -1.
         -5    1    1    0    0  501  0.29623578867E+02 -0.32733681157E+02  0.43989881712E+02  0.62500000000E+02  0.47000000000E+01 0. -1.
</event>
<event>
 3    0  0.4607503E-005  0.9118800E+02  0.7546771E-02  0.1235069E+00
         25   -1    0    0    0    0  0.00000000000E+00  0.00000000000E+00  0.99999998245E-14  0.12500000000E+03  0.12500000000E+03 0.  0.
          5    1    1    0  501    0 -0.58546169012E+02 -0.21342514169E+02  0.10015902087E+01  0.62500000000E+02  0.47000000000E+01 0.  1.
         -5    1    1    0    0  501  0.58546169012E+02  0.21342514169E+02 -0.10015902087E+01  0.62500000000E+02  0.47000000000E+01 0.  1.
</event>
<event>
 3    0  0.4607503E-005  0.9118800E+02  0.7546771E-02  0.1235069E+00
         25   -1    0    0    0    0  0.00000000000E+00  0.00000000000E+00  0.99999998245E-14  0.12500000000E+03  0.12500000000E+03 0.  0.
          5    1    1    0  501    0  0.27733470647E+02 -0.24467031108E+02 -0.50163522550E+02  0.62500000000E+02  0.47000000000E+01 0. -1.
         -5    1    1    0    0  501 -0.27733470647E+02  0.24467031108E+02  0.50163522550E+02  0.62500000000E+02  0.47000000000E+01 0. -1.
</event>
<event>
 3    0  0.4607503E-005  0.9118800E+02  0.7546771E-02  0.1235069E+00
         25   -1    0    0    0    0  0.00000000000E+00  0.00000000000E+00  0.99999998245E-14  0.12500000000E+03  0.12500000000E+03 0.  0.
          5    1    1    0  501    0 -0.38806249528E+00 -0.25922811396E+02 -0.56674661506E+02  0.62500000000E+02  0.47000000000E+01 0. -1.
         -5    1    1    0    0  501  0.38806249528E+00  0.25922811396E+02  0.56674661506E+02  0.62500000000E+02  0.47000000000E+01 0. -1.
</event>
<event>
 3    0  0.4607503E-005  0.9118800E+02  0.7546771E-02  0.1235069E+00
         25   -1    0    0    0    0  0.00000000000E+00  0.00000000000E+00  0.99999998245E-14  0.12500000000E+03  0.12500000000E+03 0.  0.
          5    1    1    0  501    0 -0.26828731508E+02  0.15337460730E+02 -0.54121543437E+02  0.62500000000E+02  0.47000000000E+01 0. -1.
         -5    1    1    0    0  501  0.26828731508E+02 -0.15337460730E+02  0.54121543437E+02  0.62500000000E+02  0.47000000000E+01 0. -1.
</event>
<event>
 3    0  0.4607503E-005  0.9118800E+02  0.7546771E-02  0.1235069E+00
         25   -1    0    0    0    0  0.00000000000E+00  0.00000000000E+00  0.99999998245E-14  0.12500000000E+03  0.12500000000E+03 0.  0.
          5    1    1    0  501    0  0.40940228532E+02 -0.46936689796E+02 -0.22371496888E+01  0.62500000000E+02  0.47000000000E+01 0.  1.
         -5    1    1    0    0  501 -0.40940228532E+02  0.46936689796E+02  0.22371496888E+01  0.62500000000E+02  0.47000000000E+01 0.  1.
</event>
<event>
 3    0  0.4607503E-005  0.9118800E+02  0.7546771E-02  0.1235069E+00
         25   -1    0    0    0    0  0.00000000000E+00  0.00000000000E+00  0.99999998245E-14  0.12500000000E+03  0.12500000000E+03 0.  0.
          5    1    1    0  501    0 -0.15556099121E+02  0.24523408641E+02 -0.55143179168E+02  0.62500000000E+02  0.47000000000E+01 0.  1.
         -5    1    1    0    0  501  0.15556099121E+02 -0.24523408641E+02  0.55143179168E+02  0.62500000000E+02  0.47000000000E+01 0.  1.
</event>
<event>
 3    0  0.4607503E-005  0.9118800E+02  0.7546771E-02  0.1235069E+00
         25   -1    0    0    0    0  0.00000000000E+00  0.00000000000E+00  0.99999998245E-14  0.12500000000E+03  0.12500000000E+03 0.  0.
          5    1    1    0  501    0 -0.31857898398E+01 -0.61135996114E+02  0.11679071976E+02  0.62500000000E+02  0.47000000000E+01 0.  1.
         -5    1    1    0    0  501  0.31857898398E+01  0.61135996114E+02 -0.11679071976E+02  0.62500000000E+02  0.47000000000E+01 0.  1.
</event>
<event>
 3    0  0.4607503E-005  0.9118800E+02  0.7546771E-02  0.1235069E+00
         25   -1    0    0    0    0  0.00000000000E+00  0.00000000000E+00  0.99999998245E-14  0.12500000000E+03  0.12500000000E+03 0.  0.
          5    1    1    0  501    0  0.48982297837E+02  0.27381845445E+02 -0.27113263151E+02  0.62500000000E+02  0.47000000000E+01 0. -1.
         -5    1    1    0    0  501 -0.48982297837E+02 -0.27381845445E+02  0.27113263151E+02  0.62500000000E+02  0.47000000000E+01 0. -1.
</event>
<event>
 3    0  0.4607503E-005  0.9118800E+02  0.7546771E-02  0.1235069E+00
         25   -1    0    0    0    0  0.00000000000E+00  0.00000000000E+00  0.99999998245E-14  0.12500000000E+03  0.12500000000E+03 0.  0.
          5    1    1    0  501    0 -0.23351804633E+02 -0.57728645673E+02 -0.25013374835E+01  0.62500000000E+02  0.47000000000E+01 0. -1.
         -5    1    1    0    0  501  0.23351804633E+02  0.57728645673E+02  0.25013374835E+01  0.62500000000E+02  0.47000000000E+01 0. -1.
</event>
<event>
 3    0  0.4607503E-005  0.9118800E+02  0.7546771E-02  0.1235069E+00
         25   -1    0    0    0    0  0.00000000000E+00  0.00000000000E+00  0.99999998245E-14  0.12500000000E+03  0.12500000000E+03 0.  0.
          5    1    1    0  501    0 -0.29410804615E+02  0.43788292471E+02  0.33192619879E+02  0.62500000000E+02  0.47000000000E+01 0. -1.
         -5    1    1    0    0  501  0.29410804615E+02 -0.43788292471E+02 -0.33192619879E+02  0.62500000000E+02  0.47000000000E+01 0. -1.
</event>
<event>
 3    0  0.4607503E-005  0.9118800E+02  0.7546771E-02  0.1235069E+00
         25   -1    0    0    0    0  0.00000000000E+00  0.00000000000E+00  0.99999998245E-14  0.12500000000E+03  0.12500000000E+03 0.  0.
          5    1    1    0  501    0 -0.50841115645E+02  0.93593993632E+01  0.34810093415E+02  0.62500000000E+02  0.47000000000E+01 0. -1.
         -5    1    1    0    0  501  0.50841115645E+02 -0.93593993632E+01 -0.34810093415E+02  0.62500000000E+02  0.47000000000E+01 0. -1.
</event>
<event>
 3    0  0.4607503E-005  0.9118800E+02  0.7546771E-02  0.1235069E+00
         25   -1    0    0    0    0  0.00000000000E+00  0.00000000000E+00  0.99999998245E-14  0.12500000000E+03  0.12500000000E+03 0.  0.
          5    1    1    0  501    0  0.32586006495E+02  0.44532723515E+02  0.28968063744E+02  0.62500000000E+02  0.47000000000E+01 0.  1.
         -5    1    1    0    0  501 -0.32586006495E+02 -0.44532723515E+02 -0.28968063744E+02  0.62500000000E+02  0.47000000000E+01 0.  1.
</event>
<event>
 3    0  0.4607503E-005  0.9118800E+02  0.7546771E-02  0.1235069E+00
         25   -1    0    0    0    0  0.00000000000E+00  0.00000000000E+00  0.99999998245E-14  0.12500000000E+03  0.12500000000E+03 0.  0.
          5    1    1    0  501    0  0.58468167530E+02 -0.19761610470E+02  0.86667258708E+01  0.62500000000E+02  0.47000000000E+01 0. -1.
         -5    1    1    0    0  501 -0.58468167530E+02  0.19761610470E+02 -0.86667258708E+01  0.62500000000E+02  0.47000000000E+01 0. -1.
</event>
<event>
 3    0  0.4607503E-005  0.9118800E+02  0.7546771E-02  0.1235069E+00
         25   -1    0    0    0    0  0.00000000000E+00  0.00000000000E+00  0.99999998245E-14  0.12500000000E+03  0.12500000000E+03 0.  0.
          5    1    1    0  501    0  0.36876784824E+02 -0.44488824549E+02 -0.23345389937E+02  0.62500000000E+02  0.47000000000E+01 0.  1.
         -5    1    1    0    0  501 -0.36876784824E+02  0.44488824549E+02  0.23345389937E+02  0.62500000000E+02  0.47000000000E+01 0.  1.
</event>
<event>
 3    0  0.4607503E-005  0.9118800E+02  0.7546771E-02  0.1235069E+00
         25   -1    0    0    0    0  0.00000000000E+00  0.00000000000E+00  0.99999998245E-14  0.12500000000E+03  0.12500000000E+03 0.  0.
          5    1    1    0  501    0  0.37158784074E+02 -0.41893820538E+02  0.27354936792E+02  0.62500000000E+02  0.47000000000E+01 0.  1.
         -5    1    1    0    0  501 -0.37158784074E+02  0.41893820538E+02 -0.27354936792E+02  0.62500000000E+02  0.47000000000E+01 0.  1.
</event>
<event>
 3    0  0.4607503E-005  0.9118800E+02  0.7546771E-02  0.1235069E+00
         25   -1    0    0    0    0  0.00000000000E+00  0.00000000000E+00  0.99999998245E-14  0.12500000000E+03  0.12500000000E+03 0.  0.
          5    1    1    0  501    0  0.43651635689E+02  0.31786602637E+02 -0.31117625142E+02  0.62500000000E+02  0.47000000000E+01 0.  1.
         -5    1    1    0    0  501 -0.43651635689E+02 -0.31786602637E+02  0.31117625142E+02  0.62500000000E+02  0.47000000000E+01 0.  1.
</event>
<event>
 3    0  0.4607503E-005  0.9118800E+02  0.7546771E-02  0.1235069E+00
         25   -1    0    0    0    0  0.00000000000E+00  0.00000000000E+00  0.99999998245E-14  0.12500000000E+03  0.12500000000E+03 0.  0.
          5    1    1    0  501    0 -0.54689709112E+02 -0.25209703683E+02 -0.16051995435E+02  0.62500000000E+02  0.47000000000E+01 0.  1.
         -5    1    1    0    0  501  0.54689709112E+02  0.25209703683E+02  0.16051995435E+02  0.62500000000E+02  0.47000000000E+01 0.  1.
</event>
<event>
 3    0  0.4607503E-005  0.9118800E+02  0.7546771E-02  0.1235069E+00
         25   -1    0    0    0    0  0.00000000000E+00  0.00000000000E+00  0.99999998245E-14  0.12500000000E+03  0.12500000000E+03 0.  0.
          5    1    1    0  501    0 -0.32281453216E+02 -0.47557597907E+02 -0.24090302188E+02  0.62500000000E+02  0.47000000000E+01 0. -1.
         -5    1    1    0    0  501  0.32281453216E+02  0.47557597907E+02  0.24090302188E+02  0.62500000000E+02  0.47000000000E+01 0. -1.
</event>
<event>
 3    0  0.4607503E-005  0.9118800E+02  0.7546771E-02  0.1235069E+00
         25   -1    0    0    0    0  0.00000000000E+00  0.00000000000E+00  0.99999998245E-14  0.12500000000E+03  0.12500000000E+03 0.  0.
          5    1    1    0  501    0 -0.15892336019E+02 -0.36965230959E+02 -0.47593753329E+02  0.62500000000E+02  0.47000000000E+01 0. -1.
         -5    1    1    0    0  501  0.15892336019E+02  0.36965230959E+02  0.47593753329E+02  0.62500000000E+02  0.47000000000E+01 0. -1.
</event>
<event>
 3    0  0.4607503E-005  0.9118800E+02  0.7546771E-02  0.1235069E+00
         25   -1    0    0    0    0  0.00000000000E+00  0.00000000000E+00  0.99999998245E-14  0.12500000000E+03  0.12500000000E+03 0.  0.
          5    1    1    0  501    0  0.44062138578E+02 -0.44074429497E+02 -0.36415439747E+00  0.62500000000E+02  0.47000000000E+01 0. -1.
         -5    1    1    0    0  501 -0.44062138578E+02  0.44074429497E+02  0.36415439747E+00  0.62500000000E+02  0.47000000000E+01 0. -1.
</event>
<event>
 3    0  0.4607503E-005  0.9118800E+02  0.7546771E-02  0.1235069E+00
         25   -1    0    0    0    0  0.00000000000E+00  0.00000000000E+00  0.99999998245E-14  0.12500000000E+03  0.12500000000E+03 0.  0.
          5    1    1    0  501    0  0.24697424570E+02  0.51072016738E+02 -0.25803998255E+02  0.62500000000E+02  0.47000000000E+01 0. -1.
         -5    1    1    0    0  501 -0.24697424570E+02 -0.51072016738E+02  0.25803998255E+02  0.62500000000E+02  0.47000000000E+01 0. -1.
</event>
<event>
 3    0  0.4607503E-005  0.9118800E+02  0.7546771E-02  0.1235069E+00
         25   -1    0    0    0    0  0.00000000000E+00  0.00000000000E+00  0.99999998245E-14  0.12500000000E+03  0.12500000000E+03 0.  0.
          5    1    1    0  501    0 -0.56914258951E+02 -0.23349910550E+02 -0.99854296536E+01  0.62500000000E+02  0.47000000000E+01 0. -1.
         -5    1    1    0    0  501  0.56914258951E+02  0.23349910550E+02  0.99854296536E+01  0.62500000000E+02  0.47000000000E+01 0. -1.
</event>
<event>
 3    0  0.4607503E-005  0.9118800E+02  0.7546771E-02  0.1235069E+00
         25   -1    0    0    0    0  0.00000000000E+00  0.00000000000E+00  0.99999998245E-14  0.12500000000E+03  0.12500000000E+03 0.  0.
          5    1    1    0  501    0  0.36747842135E+02  0.50240285781E+02  0.31096274878E+01  0.62500000000E+02  0.47000000000E+01 0.  1.
         -5    1    1    0    0  501 -0.36747842135E+02 -0.50240285781E+02 -0.31096274878E+01  0.62500000000E+02  0.47000000000E+01 0.  1.
</event>
<event>
 3    0  0.4607503E-005  0.9118800E+02  0.7546771E-02  0.1235069E+00
         25   -1    0    0    0    0  0.00000000000E+00  0.00000000000E+00  0.99999998245E-14  0.12500000000E+03  0.12500000000E+03 0.  0.
          5    1    1    0  501    0 -0.46432064616E+02  0.11127350403E+02 -0.40055030253E+02  0.62500000000E+02  0.47000000000E+01 0.  1.
         -5    1    1    0    0  501  0.46432064616E+02 -0.11127350403E+02  0.40055030253E+02  0.62500000000E+02  0.47000000000E+01 0.  1.
</event>
<event>
 3    0  0.4607503E-005  0.9118800E+02  0.7546771E-02  0.1235069E+00
         25   -1    0    0    0    0  0.00000000000E+00  0.00000000000E+00  0.99999998245E-14  0.12500000000E+03  0.12500000000E+03 0.  0.
          5    1    1    0  501    0  0.90883469458E+01  0.41749315243E+02 -0.45371319427E+02  0.62500000000E+02  0.47000000000E+01 0.  1.
         -5    1    1    0    0  501 -0.90883469458E+01 -0.41749315243E+02  0.45371319427E+02  0.62500000000E+02  0.47000000000E+01 0.  1.
</event>
<event>
 3    0  0.4607503E-005  0.9118800E+02  0.7546771E-02  0.1235069E+00
         25   -1    0    0    0    0  0.00000000000E+00  0.00000000000E+00  0.99999998245E-14  0.12500000000E+03  0.12500000000E+03 0.  0.
          5    1    1    0  501    0 -0.55561333597E+02  0.21439587667E+02  0.18369602325E+02  0.62500000000E+02  0.47000000000E+01 0.  1.
         -5    1    1    0    0  501  0.55561333597E+02 -0.21439587667E+02 -0.18369602325E+02  0.62500000000E+02  0.47000000000E+01 0.  1.
</event>
<event>
 3    0  0.4607503E-005  0.9118800E+02  0.7546771E-02  0.1235069E+00
         25   -1    0    0    0    0  0.00000000000E+00  0.00000000000E+00  0.99999998245E-14  0.12500000000E+03  0.12500000000E+03 0.  0.
          5    1    1    0  501    0 -0.23764813292E+00  0.20067228160E+02 -0.59003473435E+02  0.62500000000E+02  0.47000000000E+01 0.  1.
         -5    1    1    0    0  501  0.23764813292E+00 -0.20067228160E+02  0.59003473435E+02  0.62500000000E+02  0.47000000000E+01 0.  1.
</event>
<event>
 3    0  0.4607503E-005  0.9118800E+02  0.7546771E-02  0.1235069E+00
         25   -1    0    0    0    0  0.00000000000E+00  0.00000000000E+00  0.99999998245E-14  0.12500000000E+03  0.12500000000E+03 0.  0.
          5    1    1    0  501    0 -0.46963627414E+02  0.35647119387E+02 -0.20195558410E+02  0.62500000000E+02  0.47000000000E+01 0. -1.
         -5    1    1    0    0  501  0.46963627414E+02 -0.35647119387E+02  0.20195558410E+02  0.62500000000E+02  0.47000000000E+01 0. -1.
</event>
<event>
 3    0  0.4607503E-005  0.9118800E+02  0.7546771E-02  0.1235069E+00
         25   -1    0    0    0    0  0.00000000000E+00  0.00000000000E+00  0.99999998245E-14  0.12500000000E+03  0.12500000000E+03 0.  0.
          5    1    1    0  501    0  0.46523462460E+02  0.20138669035E+02 -0.36251364805E+02  0.62500000000E+02  0.47000000000E+01 0. -1.
         -5    1    1    0    0  501 -0.46523462460E+02 -0.20138669035E+02  0.36251364805E+02  0.62500000000E+02  0.47000000000E+01 0. -1.
</event>
<event>
 3    0  0.4607503E-005  0.9118800E+02  0.7546771E-02  0.1235069E+00
         25   -1    0    0    0    0  0.00000000000E+00  0.00000000000E+00  0.99999998245E-14  0.12500000000E+03  0.12500000000E+03 0.  0.
          5    1    1    0  501    0  0.38055558416E+02  0.15539745449E+02  0.46844965418E+02  0.62500000000E+02  0.47000000000E+01 0. -1.
         -5    1    1    0    0  501 -0.38055558416E+02 -0.15539745449E+02 -0.46844965418E+02  0.62500000000E+02  0.47000000000E+01 0. -1.
</event>
<event>
 3    0  0.4607503E-005  0.9118800E+02  0.7546771E-02  0.1235069E+00
         25   -1    0    0    0    0  0.00000000000E+00  0.00000000000E+00  0.99999998245E-14  0.12500000000E+03  0.12500000000E+03 0.  0.
          5    1    1    0  501    0 -0.13988277886E+02 -0.59081384729E+02  0.14066913672E+02  0.62500000000E+02  0.47000000000E+01 0. -1.
         -5    1    1    0    0  501  0.13988277886E+02  0.59081384729E+02 -0.14066913672E+02  0.62500000000E+02  0.47000000000E+01 0. -1.
</event>
<event>
 3    0  0.4607503E-005  0.9118800E+02  0.7546771E-02  0.1235069E+00
         25   -1    0    0    0    0  0.00000000000E+00  0.00000000000E+00  0.99999998245E-14  0.12500000000E+03  0.12500000000E+03 0.  0.
          5    1    1    0  501    0 -0.46417519472E+02  0.10774348134E+02  0.40168237556E+02  0.62500000000E+02  0.47000000000E+01 0.  1.
         -5    1    1    0    0  501  0.46417519472E+02 -0.10774348134E+02 -0.40168237556E+02  0.62500000000E+02  0.47000000000E+01 0.  1.
</event>
<event>
 3    0  0.4607503E-005  0.9118800E+02  0.7546771E-02  0.1235069E+00
         25   -1    0    0    0    0  0.00000000000E+00  0.00000000000E+00  0.99999998245E-14  0.12500000000E+03  0.12500000000E+03 0.  0.
          5    1    1    0  501    0  0.13572545058E+02  0.60112613051E+02 -0.92962235807E+01  0.62500000000E+02  0.47000000000E+01 0. -1.
         -5    1    1    0    0  501 -0.13572545058E+02 -0.60112613051E+02  0.92962235807E+01  0.62500000000E+02  0.47000000000E+01 0. -1.
</event>
<event>
 3    0  0.4607503E-005  0.9118800E+02  0.7546771E-02  0.1235069E+00
         25   -1    0    0    0    0  0.00000000000E+00  0.00000000000E+00  0.99999998245E-14  0.12500000000E+03  0.12500000000E+03 0.  0.
          5    1    1    0  501    0  0.19422001261E+02  0.71443593937E+01  0.58786937290E+02  0.62500000000E+02  0.47000000000E+01 0.  1.
         -5    1    1    0    0  501 -0.19422001261E+02 -0.71443593937E+01 -0.58786937290E+02  0.62500000000E+02  0.47000000000E+01 0.  1.
</event>
<event>
 3    0  0.4607503E-005  0.9118800E+02  0.7546771E-02  0.1235069E+00
         25   -1    0    0    0    0  0.00000000000E+00  0.00000000000E+00  0.99999998245E-14  0.12500000000E+03  0.12500000000E+03 0.  0.
          5    1    1    0  501    0 -0.51681611634E+02  0.15436564133E+02  0.31223124550E+02  0.62500000000E+02  0.47000000000E+01 0.  1.
         -5    1    1    0    0  501  0.51681611634E+02 -0.15436564133E+02 -0.31223124550E+02  0.62500000000E+02  0.47000000000E+01 0.  1.
</event>
<event>
 3    0  0.4607503E-005  0.9118800E+02  0.7546771E-02  0.1235069E+00
         25   -1    0    0    0    0  0.00000000000E+00  0.00000000000E+00  0.99999998245E-14  0.12500000000E+03  0.12500000000E+03 0.  0.
          5    1    1    0  501    0  0.44777005279E+02 -0.18904700260E+02  0.39010153887E+02  0.62500000000E+02  0.47000000000E+01 0.  1.
         -5    1    1    0    0  501 -0.44777005279E+02  0.18904700260E+02 -0.39010153887E+02  0.62500000000E+02  0.47000000000E+01 0.  1.
</event>
<event>
 3    0  0.4607503E-005  0.9118800E+02  0.7546771E-02  0.1235069E+00
         25   -1    0    0    0    0  0.00000000000E+00  0.00000000000E+00  0.99999998245E-14  0.12500000000E+03  0.12500000000E+03 0.  0.
          5    1    1    0  501    0 -0.15906446392E+02 -0.59874633728E+02  0.67950863922E+01  0.62500000000E+02  0.47000000000E+01 0. -1.
         -5    1    1    0    0  501  0.15906446392E+02  0.59874633728E+02 -0.67950863922E+01  0.62500000000E+02  0.47000000000E+01 0. -1.
</event>
<event>
 3    0  0.4607503E-005  0.9118800E+02  0.7546771E-02  0.1235069E+00
         25   -1    0    0    0    0  0.00000000000E+00  0.00000000000E+00  0.99999998245E-14  0.12500000000E+03  0.12500000000E+03 0.  0.
          5    1    1    0  501    0 -0.37880172205E+02 -0.38628349485E+02  0.30937084054E+02  0.62500000000E+02  0.47000000000E+01 0.  1.
         -5    1    1    0    0  501  0.37880172205E+02  0.38628349485E+02 -0.30937084054E+02  0.62500000000E+02  0.47000000000E+01 0.  1.
</event>
<event>
 3    0  0.4607503E-005  0.9118800E+02  0.7546771E-02  0.1235069E+00
         25   -1    0    0    0    0  0.00000000000E+00  0.00000000000E+00  0.99999998245E-14  0.12500000000E+03  0.12500000000E+03 0.  0.
          5    1    1    0  501    0  0.48320809849E+01 -0.41398126944E+02 -0.46335796948E+02  0.62500000000E+02  0.47000000000E+01 0.  1.
         -5    1    1    0    0  501 -0.48320809849E+01  0.41398126944E+02  0.46335796948E+02  0.62500000000E+02  0.47000000000E+01 0.  1.
</event>
<event>
 3    0  0.4607503E-005  0.9118800E+02  0.7546771E-02  0.1235069E+00
         25   -1    0    0    0    0  0.00000000000E+00  0.00000000000E+00  0.99999998245E-14  0.12500000000E+03  0.12500000000E+03 0.  0.
          5    1    1    0  501    0 -0.35397005096E+02  0.49683712699E+02  0.12756987208E+02  0.62500000000E+02  0.47000000000E+01 0. -1.
         -5    1    1    0    0  501  0.35397005096E+02 -0.49683712699E+02 -0.12756987208E+02  0.62500000000E+02  0.47000000000E+01 0. -1.
</event>
<event>
 3    0  0.4607503E-005  0.9118800E+02  0.7546771E-02  0.1235069E+00
         25   -1    0    0    0    0  0.00000000000E+00  0.00000000000E+00  0.99999998245E-14  0.12500000000E+03  0.12500000000E+03 0.  0.
          5    1    1    0  501    0  0.17409613369E+02  0.21452916962E+02 -0.55864458434E+02  0.62500000000E+02  0.47000000000E+01 0. -1.
         -5    1    1    0    0  501 -0.17409613369E+02 -0.21452916962E+02  0.55864458434E+02  0.62500000000E+02  0.47000000000E+01 0. -1.
</event>
<event>
 3    0  0.4607503E-005  0.9118800E+02  0.7546771E-02  0.1235069E+00
         25   -1    0    0    0    0  0.00000000000E+00  0.00000000000E+00  0.99999998245E-14  0.12500000000E+03  0.12500000000E+03 0.  0.
          5    1    1    0  501    0  0.34362185479E+02  0.49651067001E+02 -0.15432814222E+02  0.62500000000E+02  0.47000000000E+01 0. -1.
         -5    1    1    0    0  501 -0.34362185479E+02 -0.49651067001E+02  0.15432814222E+02  0.62500000000E+02  0.47000000000E+01 0. -1.
</event>
<event>
 3    0  0.4607503E-005  0.9118800E+02  0.7546771E-02  0.1235069E+00
         25   -1    0    0    0    0  0.00000000000E+00  0.00000000000E+00  0.99999998245E-14  0.12500000000E+03  0.12500000000E+03 0.  0.
          5    1    1    0  501    0  0.39505896908E+02  0.91304323830E+01  0.47329476164E+02  0.62500000000E+02  0.47000000000E+01 0. -1.
         -5    1    1    0    0  501 -0.39505896908E+02 -0.91304323830E+01 -0.47329476164E+02  0.62500000000E+02  0.47000000000E+01 0. -1.
</event>
<event>
 3    0  0.4607503E-005  0.9118800E+02  0.7546771E-02  0.1235069E+00
         25   -1    0    0    0    0  0.00000000000E+00  0.00000000000E+00  0.99999998245E-14  0.12500000000E+03  0.12500000000E+03 0.  0.
          5    1    1    0  501    0 -0.54758568128E+02 -0.76045316759E+01  0.28772040501E+02  0.62500000000E+02  0.47000000000E+01 0. -1.
         -5    1    1    0    0  501  0.54758568128E+02  0.76045316759E+01 -0.28772040501E+02  0.62500000000E+02  0.47000000000E+01 0. -1.
</event>
<event>
 3    0  0.4607503E-005  0.9118800E+02  0.7546771E-02  0.1235069E+00
         25   -1    0    0    0    0  0.00000000000E+00  0.00000000000E+00  0.99999998245E-14  0.12500000000E+03  0.12500000000E+03 0.  0.
          5    1    1    0  501    0 -0.13041245248E+02  0.48615260108E+02  0.36751087154E+02  0.62500000000E+02  0.47000000000E+01 0. -1.
         -5    1    1    0    0  501  0.13041245248E+02 -0.48615260108E+02 -0.36751087154E+02  0.62500000000E+02  0.47000000000E+01 0. -1.
</event>
<event>
 3    0  0.4607503E-005  0.9118800E+02  0.7546771E-02  0.1235069E+00
         25   -1    0    0    0    0  0.00000000000E+00  0.00000000000E+00  0.99999998245E-14  0.12500000000E+03  0.12500000000E+03 0.  0.
          5    1    1    0  501    0 -0.35666562202E+01 -0.48149607755E+02 -0.39408809123E+02  0.62500000000E+02  0.47000000000E+01 0.  1.
         -5    1    1    0    0  501  0.35666562202E+01  0.48149607755E+02  0.39408809123E+02  0.62500000000E+02  0.47000000000E+01 0.  1.
</event>
<event>
 3    0  0.4607503E-005  0.9118800E+02  0.7546771E-02  0.1235069E+00
         25   -1    0    0    0    0  0.00000000000E+00  0.00000000000E+00  0.99999998245E-14  0.12500000000E+03  0.12500000000E+03 0.  0.
          5    1    1    0  501    0 -0.39816129542E+02  0.21537680874E+02  0.42836481308E+02  0.62500000000E+02  0.47000000000E+01 0.  1.
         -5    1    1    0    0  501  0.39816129542E+02 -0.21537680874E+02 -0.42836481308E+02  0.62500000000E+02  0.47000000000E+01 0.  1.
</event>
<event>
 3    0  0.4607503E-005  0.9118800E+02  0.7546771E-02  0.1235069E+00
         25   -1    0    0    0    0  0.00000000000E+00  0.00000000000E+00  0.99999998245E-14  0.12500000000E+03  0.12500000000E+03 0.  0.
          5    1    1    0  501    0 -0.26317369377E+02 -0.52204440203E+02  0.21592880590E+02  0.62500000000E+02  0.47000000000E+01 0. -1.
         -5    1    1    0    0  501  0.26317369377E+02  0.52204440203E+02 -0.21592880590E+02  0.62500000000E+02  0.47000000000E+01 0. -1.
</event>
<event>
 3    0  0.4607503E-005  0.9118800E+02  0.7546771E-02  0.1235069E+00
         25   -1    0    0    0    0  0.00000000000E+00  0.00000000000E+00  0.99999998245E-14  0.12500000000E+03  0.12500000000E+03 0.  0.
          5    1    1    0  501    0 -0.40436694025E+02  0.23430347737E+02 -0.41231693892E+02  0.62500000000E+02  0.47000000000E+01 0.  1.
         -5    1    1    0    0  501  0.40436694025E+02 -0.23430347737E+02  0.41231693892E+02  0.62500000000E+02  0.47000000000E+01 0.  1.
</event>
<event>
 3    0  0.4607503E-005  0.9118800E+02  0.7546771E-02  0.1235069E+00
         25   -1    0    0    0    0  0.00000000000E+00  0.00000000000E+00  0.99999998245E-14  0.12500000000E+03  0.12500000000E+03 0.  0.
          5    1    1    0  501    0  0.20289391937E+02  0.58348265135E+02 -0.82450306565E+01  0.62500000000E+02  0.47000000000E+01 0. -1.
         -5    1    1    0    0  501 -0.20289391937E+02 -0.58348265135E+02  0.82450306565E+01  0.62500000000E+02  0.47000000000E+01 0. -1.
</event>
<event>
 3    0  0.4607503E-005  0.9118800E+02  0.7546771E-02  0.1235069E+00
         25   -1    0    0    0    0  0.00000000000E+00  0.00000000000E+00  0.99999998245E-14  0.12500000000E+03  0.12500000000E+03 0.  0.
          5    1    1    0  501    0 -0.51372137705E+02  0.25321230381E+02 -0.24574351663E+02  0.62500000000E+02  0.47000000000E+01 0.  1.
         -5    1    1    0    0  501  0.51372137705E+02 -0.25321230381E+02  0.24574351663E+02  0.62500000000E+02  0.47000000000E+01 0.  1.
</event>
<event>
 3    0  0.4607503E-005  0.9118800E+02  0.7546771E-02  0.1235069E+00
         25   -1    0    0    0    0  0.00000000000E+00  0.00000000000E+00  0.99999998245E-14  0.12500000000E+03  0.12500000000E+03 0.  0.
          5    1    1    0  501    0 -0.38395067359E+02 -0.38425593693E+02 -0.30552455742E+02  0.62500000000E+02  0.47000000000E+01 0. -1.
         -5    1    1    0    0  501  0.38395067359E+02  0.38425593693E+02  0.30552455742E+02  0.62500000000E+02  0.47000000000E+01 0. -1.
</event>
<event>
 3    0  0.4607503E-005  0.9118800E+02  0.7546771E-02  0.1235069E+00
         25   -1    0    0    0    0  0.00000000000E+00  0.00000000000E+00  0.99999998245E-14  0.12500000000E+03  0.12500000000E+03 0.  0.
          5    1    1    0  501    0  0.49006707870E+01 -0.61944980559E+02 -0.47919525695E+01  0.62500000000E+02  0.47000000000E+01 0. -1.
         -5    1    1    0    0  501 -0.49006707870E+01  0.61944980559E+02  0.47919525695E+01  0.62500000000E+02  0.47000000000E+01 0. -1.
</event>
<event>
 3    0  0.4607503E-005  0.9118800E+02  0.7546771E-02  0.1235069E+00
         25   -1    0    0    0    0  0.00000000000E+00  0.00000000000E+00  0.99999998245E-14  0.12500000000E+03  0.12500000000E+03 0.  0.
          5    1    1    0  501    0  0.16917403903E+02  0.14989245634E+02 -0.58079978999E+02  0.62500000000E+02  0.47000000000E+01 0.  1.
         -5    1    1    0    0  501 -0.16917403903E+02 -0.14989245634E+02  0.58079978999E+02  0.62500000000E+02  0.47000000000E+01 0.  1.
</event>
<event>
 3    0  0.4607503E-005  0.9118800E+02  0.7546771E-02  0.1235069E+00
         25   -1    0    0    0    0  0.00000000000E+00  0.00000000000E+00  0.99999998245E-14  0.12500000000E+03  0.12500000000E+03 0.  0.
          5    1    1    0  501    0  0.21211261274E+02 -0.28383267212E+02 -0.51270191511E+02  0.62500000000E+02  0.47000000000E+01 0. -1.
         -5    1    1    0    0  501 -0.21211261274E+02  0.28383267212E+02  0.51270191511E+02  0.62500000000E+02  0.47000000000E+01 0. -1.
</event>
<event>
 3    0  0.4607503E-005  0.9118800E+02  0.7546771E-02  0.1235069E+00
         25   -1    0    0    0    0  0.00000000000E+00  0.00000000000E+00  0.99999998245E-14  0.12500000000E+03  0.12500000000E+03 0.  0.
          5    1    1    0  501    0 -0.55976209960E+02  0.28751516812E-01 -0.27401151287E+02  0.62500000000E+02  0.47000000000E+01 0. -1.
         -5    1    1    0    0  501  0.55976209960E+02 -0.28751516812E-01  0.27401151287E+02  0.62500000000E+02  0.47000000000E+01 0. -1.
</event>
<event>
 3    0  0.4607503E-005  0.9118800E+02  0.7546771E-02  0.1235069E+00
         25   -1    0    0    0    0  0.00000000000E+00  0.00000000000E+00  0.99999998245E-14  0.12500000000E+03  0.12500000000E+03 0.  0.
          5    1    1    0  501    0  0.43409559274E+02  0.83664165915E+01 -0.43929184343E+02  0.62500000000E+02  0.47000000000E+01 0. -1.
         -5    1    1    0    0  501 -0.43409559274E+02 -0.83664165915E+01  0.43929184343E+02  0.62500000000E+02  0.47000000000E+01 0. -1.
</event>
<event>
 3    0  0.4607503E-005  0.9118800E+02  0.7546771E-02  0.1235069E+00
         25   -1    0    0    0    0  0.00000000000E+00  0.00000000000E+00  0.99999998245E-14  0.12500000000E+03  0.12500000000E+03 0.  0.
          5    1    1    0  501    0  0.31913886911E+02  0.31234595112E+02  0.43474865042E+02  0.62500000000E+02  0.47000000000E+01 0.  1.
         -5    1    1    0    0  501 -0.31913886911E+02 -0.31234595112E+02 -0.43474865042E+02  0.62500000000E+02  0.47000000000E+01 0.  1.
</event>
<event>
 3    0  0.4607503E-005  0.9118800E+02  0.7546771E-02  0.1235069E+00
         25   -1    0    0    0    0  0.00000000000E+00  0.00000000000E+00  0.99999998245E-14  0.12500000000E+03  0.12500000000E+03 0.  0.
          5    1    1    0  501    0  0.37202128867E+02  0.49948169592E+02 -0.23112685068E+01  0.62500000000E+02  0.47000000000E+01 0.  1.
         -5    1    1    0    0  501 -0.37202128867E+02 -0.49948169592E+02  0.23112685068E+01  0.62500000000E+02  0.47000000000E+01 0.  1.
</event>
<event>
 3    0  0.4607503E-005  0.9118800E+02  0.7546771E-02  0.1235069E+00
         25   -1    0    0    0    0  0.00000000000E+00  0.00000000000E+00  0.99999998245E-14  0.12500000000E+03  0.12500000000E+03 0.  0.
          5    1    1    0  501    0 -0.55295296004E+01 -0.54617334476E+02 -0.29504763634E+02  0.62500000000E+02  0.47000000000E+01 0.  1.
         -5    1    1    0    0  501  0.55295296004E+01  0.54617334476E+02  0.29504763634E+02  0.62500000000E+02  0.47000000000E+01 0.  1.
</event>
<event>
 3    0  0.4607503E-005  0.9118800E+02  0.7546771E-02  0.1235069E+00
         25   -1    0    0    0    0  0.00000000000E+00  0.00000000000E+00  0.99999998245E-14  0.12500000000E+03  0.12500000000E+03 0.  0.
          5    1    1    0  501    0 -0.48482517883E+02 -0.27246375962E+02 -0.28128996723E+02  0.62500000000E+02  0.47000000000E+01 0.  1.
         -5    1    1    0    0  501  0.48482517883E+02  0.27246375962E+02  0.28128996723E+02  0.62500000000E+02  0.47000000000E+01 0.  1.
</event>
<event>
 3    0  0.4607503E-005  0.9118800E+02  0.7546771E-02  0.1235069E+00
         25   -1    0    0    0    0  0.00000000000E+00  0.00000000000E+00  0.99999998245E-14  0.12500000000E+03  0.12500000000E+03 0.  0.
          5    1    1    0  501    0 -0.26916255608E+02 -0.41171464095E+02 -0.38269906302E+02  0.62500000000E+02  0.47000000000E+01 0.  1.
         -5    1    1    0    0  501  0.26916255608E+02  0.41171464095E+02  0.38269906302E+02  0.62500000000E+02  0.47000000000E+01 0.  1.
</event>
<event>
 3    0  0.4607503E-005  0.9118800E+02  0.7546771E-02  0.1235069E+00
         25   -1    0    0    0    0  0.00000000000E+00  0.00000000000E+00  0.99999998245E-14  0.12500000000E+03  0.12500000000E+03 0.  0.
          5    1    1    0  501    0 -0.51330378129E+02  0.31531257351E+02 -0.15972854819E+02  0.62500000000E+02  0.47000000000E+01 0.  1.
         -5    1    1    0    0  501  0.51330378129E+02 -0.31531257351E+02  0.15972854819E+02  0.62500000000E+02  0.47000000000E+01 0.  1.
</event>
<event>
 3    0  0.4607503E-005  0.9118800E+02  0.7546771E-02  0.1235069E+00
         25   -1    0    0    0    0  0.00000000000E+00  0.00000000000E+00  0.99999998245E-14  0.12500000000E+03  0.12500000000E+03 0.  0.
          5    1    1    0  501    0  0.28000139797E+02 -0.16086414391E+01 -0.55655767393E+02  0.62500000000E+02  0.47000000000E+01 0.  1.
         -5    1    1    0    0  501 -0.28000139797E+02  0.16086414391E+01  0.55655767393E+02  0.62500000000E+02  0.47000000000E+01 0.  1.
</event>
<event>
 3    0  0.4607503E-005  0.9118800E+02  0.7546771E-02  0.1235069E+00
         25   -1    0    0    0    0  0.00000000000E+00  0.00000000000E+00  0.99999998245E-14  0.12500000000E+03  0.12500000000E+03 0.  0.
          5    1    1    0  501    0 -0.28980075848E+02  0.64117685848E+01  0.54801500230E+02  0.62500000000E+02  0.47000000000E+01 0.  1.
         -5    1    1    0    0  501  0.28980075848E+02 -0.64117685848E+01 -0.54801500230E+02  0.62500000000E+02  0.47000000000E+01 0.  1.
</event>
<event>
 3    0  0.4607503E-005  0.9118800E+02  0.7546771E-02  0.1235069E+00
         25   -1    0    0    0    0  0.00000000000E+00  0.00000000000E+00  0.99999998245E-14  0.12500000000E+03  0.12500000000E+03 0.  0.
          5    1    1    0  501    0 -0.32548247889E+02  0.17986736655E+01 -0.53118135626E+02  0.62500000000E+02  0.47000000000E+01 0. -1.
         -5    1    1    0    0  501  0.32548247889E+02 -0.17986736655E+01  0.53118135626E+02  0.62500000000E+02  0.47000000000E+01 0. -1.
</event>
<event>
 3    0  0.4607503E-005  0.9118800E+02  0.7546771E-02  0.1235069E+00
         25   -1    0    0    0    0  0.00000000000E+00  0.00000000000E+00  0.99999998245E-14  0.12500000000E+03  0.12500000000E+03 0.  0.
          5    1    1    0  501    0  0.27726804381E+02 -0.52656842970E+02 -0.18510570149E+02  0.62500000000E+02  0.47000000000E+01 0.  1.
         -5    1    1    0    0  501 -0.27726804381E+02  0.52656842970E+02  0.18510570149E+02  0.62500000000E+02  0.47000000000E+01 0.  1.
</event>
<event>
 3    0  0.4607503E-005  0.9118800E+02  0.7546771E-02  0.1235069E+00
         25   -1    0    0    0    0  0.00000000000E+00  0.00000000000E+00  0.99999998245E-14  0.12500000000E+03  0.12500000000E+03 0.  0.
          5    1    1    0  501    0  0.28211198149E+02  0.42582715973E+02  0.35707150535E+02  0.62500000000E+02  0.47000000000E+01 0. -1.
         -5    1    1    0    0  501 -0.28211198149E+02 -0.42582715973E+02 -0.35707150535E+02  0.62500000000E+02  0.47000000000E+01 0. -1.
</event>
<event>
 3    0  0.4607503E-005  0.9118800E+02  0.7546771E-02  0.1235069E+00
         25   -1    0    0    0    0  0.00000000000E+00  0.00000000000E+00  0.99999998245E-14  0.12500000000E+03  0.12500000000E+03 0.  0.
          5    1    1    0  501    0 -0.27744777241E+02 -0.54344089589E+02  0.12692803577E+02  0.62500000000E+02  0.47000000000E+01 0.  1.
         -5    1    1    0    0  501  0.27744777241E+02  0.54344089589E+02 -0.12692803577E+02  0.62500000000E+02  0.47000000000E+01 0.  1.
</event>
<event>
 3    0  0.4607503E-005  0.9118800E+02  0.7546771E-02  0.1235069E+00
         25   -1    0    0    0    0  0.00000000000E+00  0.00000000000E+00  0.99999998245E-14  0.12500000000E+03  0.12500000000E+03 0.  0.
          5    1    1    0  501    0  0.10766748172E+02  0.57321568977E+02  0.21965310466E+02  0.62500000000E+02  0.47000000000E+01 0.  1.
         -5    1    1    0    0  501 -0.10766748172E+02 -0.57321568977E+02 -0.21965310466E+02  0.62500000000E+02  0.47000000000E+01 0.  1.
</event>
<event>
 3    0  0.4607503E-005  0.9118800E+02  0.7546771E-02  0.1235069E+00
         25   -1    0    0    0    0  0.00000000000E+00  0.00000000000E+00  0.99999998245E-14  0.12500000000E+03  0.12500000000E+03 0.  0.
          5    1    1    0  501    0 -0.44581968749E+02  0.19085756431E+02 -0.39145139723E+02  0.62500000000E+02  0.47000000000E+01 0.  1.
         -5    1    1    0    0  501  0.44581968749E+02 -0.19085756431E+02  0.39145139723E+02  0.62500000000E+02  0.47000000000E+01 0.  1.
</event>
<event>
 3    0  0.4607503E-005  0.9118800E+02  0.7546771E-02  0.1235069E+00
         25   -1    0    0    0    0  0.00000000000E+00  0.00000000000E+00  0.99999998245E-14  0.12500000000E+03  0.12500000000E+03 0.  0.
          5    1    1    0  501    0 -0.16149597835E+02 -0.40289265505E+02  0.44722763497E+02  0.62500000000E+02  0.47000000000E+01 0. -1.
         -5    1    1    0    0  501  0.16149597835E+02  0.40289265505E+02 -0.44722763497E+02  0.62500000000E+02  0.47000000000E+01 0. -1.
</event>
<event>
 3    0  0.4607503E-005  0.9118800E+02  0.7546771E-02  0.1235069E+00
         25   -1    0    0    0    0  0.00000000000E+00  0.00000000000E+00  0.99999998245E-14  0.12500000000E+03  0.12500000000E+03 0.  0.
          5    1    1    0  501    0  0.51628236692E+02 -0.53478891417E+01  0.34497612349E+02  0.62500000000E+02  0.47000000000E+01 0. -1.
         -5    1    1    0    0  501 -0.51628236692E+02  0.53478891417E+01 -0.34497612349E+02  0.62500000000E+02  0.47000000000E+01 0. -1.
</event>
<event>
 3    0  0.4607503E-005  0.9118800E+02  0.7546771E-02  0.1235069E+00
         25   -1    0    0    0    0  0.00000000000E+00  0.00000000000E+00  0.99999998245E-14  0.12500000000E+03  0.12500000000E+03 0.  0.
          5    1    1    0  501    0  0.24751826018E+01 -0.15193974445E+02  0.60391858819E+02  0.62500000000E+02  0.47000000000E+01 0. -1.
         -5    1    1    0    0  501 -0.24751826018E+01  0.15193974445E+02 -0.60391858819E+02  0.62500000000E+02  0.47000000000E+01 0. -1.
</event>
<event>
 3    0  0.4607503E-005  0.9118800E+02  0.7546771E-02  0.1235069E+00
         25   -1    0    0    0    0  0.00000000000E+00  0.00000000000E+00  0.99999998245E-14  0.12500000000E+03  0.12500000000E+03 0.  0.
          5    1    1    0  501    0 -0.29831983163E+02  0.51225068648E+02 -0.19240715230E+02  0.62500000000E+02  0.47000000000E+01 0. -1.
         -5    1    1    0    0  501  0.29831983163E+02 -0.51225068648E+02  0.19240715230E+02  0.62500000000E+02  0.47000000000E+01 0. -1.
</event>
<event>
 3    0  0.4607503E-005  0.9118800E+02  0.7546771E-02  0.1235069E+00
         25   -1    0    0    0    0  0.00000000000E+00  0.00000000000E+00  0.99999998245E-14  0.12500000000E+03  0.12500000000E+03 0.  0.
          5    1    1    0  501    0  0.38114762569E+02  0.30701656317E+02 -0.38585401044E+02  0.62500000000E+02  0.47000000000E+01 0. -1.
         -5    1    1    0    0  501 -0.38114762569E+02 -0.30701656317E+02  0.38585401044E+02  0.62500000000E+02  0.47000000000E+01 0. -1.
</event>
<event>
 3    0  0.4607503E-005  0.9118800E+02  0.7546771E-02  0.1235069E+00
         25   -1    0    0    0    0  0.00000000000E+00  0.00000000000E+00  0.99999998245E-14  0.12500000000E+03  0.12500000000E+03 0.  0.
          5    1    1    0  501    0 -0.16907825774E+02  0.56665414390E+02  0.19680351613E+02  0.62500000000E+02  0.47000000000E+01 0.  1.
         -5    1    1    0    0  501  0.16907825774E+02 -0.56665414390E+02 -0.19680351613E+02  0.62500000000E+02  0.47000000000E+01 0.  1.
</event>
<event>
 3    0  0.4607503E-005  0.9118800E+02  0.7546771E-02  0.1235069E+00
         25   -1    0    0    0    0  0.00000000000E+00  0.00000000000E+00  0.99999998245E-14  0.12500000000E+03  0.12500000000E+03 0.  0.
          5    1    1    0  501    0 -0.14780616751E+02  0.26773513255E+02  0.54303520663E+02  0.62500000000E+02  0.47000000000E+01 0.  1.
         -5    1    1    0    0  501  0.14780616751E+02 -0.26773513255E+02 -0.54303520663E+02  0.62500000000E+02  0.47000000000E+01 0.  1.
</event>
<event>
 3    0  0.4607503E-005  0.9118800E+02  0.7546771E-02  0.1235069E+00
         25   -1    0    0    0    0  0.00000000000E+00  0.00000000000E+00  0.99999998245E-14  0.12500000000E+03  0.12500000000E+03 0.  0.
          5    1    1    0  501    0 -0.81814883904E+01  0.35542191190E+02  0.50536876567E+02  0.62500000000E+02  0.47000000000E+01 0. -1.
         -5    1    1    0    0  501  0.81814883904E+01 -0.35542191190E+02 -0.50536876567E+02  0.62500000000E+02  0.47000000000E+01 0. -1.
</event>
<event>
 3    0  0.4607503E-005  0.9118800E+02  0.7546771E-02  0.1235069E+00
         25   -1    0    0    0    0  0.00000000000E+00  0.00000000000E+00  0.99999998245E-14  0.12500000000E+03  0.12500000000E+03 0.  0.
          5    1    1    0  501    0  0.38453838968E+02  0.20434938706E+02  0.44585597997E+02  0.62500000000E+02  0.47000000000E+01 0. -1.
         -5    1    1    0    0  501 -0.38453838968E+02 -0.20434938706E+02 -0.44585597997E+02  0.62500000000E+02  0.47000000000E+01 0. -1.
</event>
<event>
 3    0  0.4607503E-005  0.9118800E+02  0.7546771E-02  0.1235069E+00
         25   -1    0    0    0    0  0.00000000000E+00  0.00000000000E+00  0.99999998245E-14  0.12500000000E+03  0.12500000000E+03 0.  0.
          5    1    1    0  501    0 -0.27803997869E+02 -0.54434648220E+02  0.12164159470E+02  0.62500000000E+02  0.47000000000E+01 0. -1.
         -5    1    1    0    0  501  0.27803997869E+02  0.54434648220E+02 -0.12164159470E+02  0.62500000000E+02  0.47000000000E+01 0. -1.
</event>
<event>
 3    0  0.4607503E-005  0.9118800E+02  0.7546771E-02  0.1235069E+00
         25   -1    0    0    0    0  0.00000000000E+00  0.00000000000E+00  0.99999998245E-14  0.12500000000E+03  0.12500000000E+03 0.  0.
          5    1    1    0  501    0 -0.46935280532E+02  0.33379310608E+02  0.23813044004E+02  0.62500000000E+02  0.47000000000E+01 0.  1.
         -5    1    1    0    0  501  0.46935280532E+02 -0.33379310608E+02 -0.23813044004E+02  0.62500000000E+02  0.47000000000E+01 0.  1.
</event>
<event>
 3    0  0.4607503E-005  0.9118800E+02  0.7546771E-02  0.1235069E+00
         25   -1    0    0    0    0  0.00000000000E+00  0.00000000000E+00  0.99999998245E-14  0.12500000000E+03  0.12500000000E+03 0.  0.
          5    1    1    0  501    0 -0.32290434601E+02  0.42143673044E+01 -0.53138751787E+02  0.62500000000E+02  0.47000000000E+01 0.  1.
         -5    1    1    0    0  501  0.32290434601E+02 -0.42143673044E+01  0.53138751787E+02  0.62500000000E+02  0.47000000000E+01 0.  1.
</event>
<event>
 3    0  0.4607503E-005  0.9118800E+02  0.7546771E-02  0.1235069E+00
         25   -1    0    0    0    0  0.00000000000E+00  0.00000000000E+00  0.99999998245E-14  0.12500000000E+03  0.12500000000E+03 0.  0.
          5    1    1    0  501    0 -0.55069177016E+02 -0.98024031837E+01 -0.27485607773E+02  0.62500000000E+02  0.47000000000E+01 0. -1.
         -5    1    1    0    0  501  0.55069177016E+02  0.98024031837E+01  0.27485607773E+02  0.62500000000E+02  0.47000000000E+01 0. -1.
</event>
<event>
 3    0  0.4607503E-005  0.9118800E+02  0.7546771E-02  0.1235069E+00
         25   -1    0    0    0    0  0.00000000000E+00  0.00000000000E+00  0.99999998245E-14  0.12500000000E+03  0.12500000000E+03 0.  0.
          5    1    1    0  501    0 -0.55359373842E+02 -0.28530488211E+02 -0.23475455710E+01  0.62500000000E+02  0.47000000000E+01 0. -1.
         -5    1    1    0    0  501  0.55359373842E+02  0.28530488211E+02  0.23475455710E+01  0.62500000000E+02  0.47000000000E+01 0. -1.
</event>
<event>
 3    0  0.4607503E-005  0.9118800E+02  0.7546771E-02  0.1235069E+00
         25   -1    0    0    0    0  0.00000000000E+00  0.00000000000E+00  0.99999998245E-14  0.12500000000E+03  0.12500000000E+03 0.  0.
          5    1    1    0  501    0  0.41673929009E+02 -0.46128065916E+02 -0.44322878732E+01  0.62500000000E+02  0.47000000000E+01 0. -1.
         -5    1    1    0    0  501 -0.41673929009E+02  0.46128065916E+02  0.44322878732E+01  0.62500000000E+02  0.47000000000E+01 0. -1.
</event>
<event>
 3    0  0.4607503E-005  0.9118800E+02  0.7546771E-02  0.1235069E+00
         25   -1    0    0    0    0  0.00000000000E+00  0.00000000000E+00  0.99999998245E-14  0.12500000000E+03  0.12500000000E+03 0.  0.
          5    1    1    0  501    0  0.27716650071E+02  0.27570133387E+02 -0.48536945246E+02  0.62500000000E+02  0.47000000000E+01 0.  1.
         -5    1    1    0    0  501 -0.27716650071E+02 -0.27570133387E+02  0.48536945246E+02  0.62500000000E+02  0.47000000000E+01 0.  1.
</event>
<event>
 3    0  0.4607503E-005  0.9118800E+02  0.7546771E-02  0.1235069E+00
         25   -1    0    0    0    0  0.00000000000E+00  0.00000000000E+00  0.99999998245E-14  0.12500000000E+03  0.12500000000E+03 0.  0.
          5    1    1    0  501    0  0.35841900611E+02  0.48579916017E+02 -0.15476108052E+02  0.62500000000E+02  0.47000000000E+01 0.  1.
         -5    1    1    0    0  501 -0.35841900611E+02 -0.48579916017E+02  0.15476108052E+02  0.62500000000E+02  0.47000000000E+01 0.  1.
</event>
<event>
 3    0  0.4607503E-005  0.9118800E+02  0.7546771E-02  0.1235069E+00
         25   -1    0    0    0    0  0.00000000000E+00  0.00000000000E+00  0.99999998245E-14  0.12500000000E+03  0.12500000000E+03 0.  0.
          5    1    1    0  501    0 -0.43313920452E+02 -0.27361556739E+02  0.35488160109E+02  0.62500000000E+02  0.47000000000E+01 0.  1.
         -5    1    1    0    0  501  0.43313920452E+02  0.27361556739E+02 -0.35488160109E+02  0.62500000000E+02  0.47000000000E+01 0.  1.
</event>
<event>
 3    0  0.4607503E-005  0.9118800E+02  0.7546771E-02  0.1235069E+00
         25   -1    0    0    0    0  0.00000000000E+00  0.00000000000E+00  0.99999998245E-14  0.12500000000E+03  0.12500000000E+03 0.  0.
          5    1    1    0  501    0  0.92837251400E+01 -0.17040134052E+01 -0.61604129617E+02  0.62500000000E+02  0.47000000000E+01 0. -1.
         -5    1    1    0    0  501 -0.92837251400E+01  0.17040134052E+01  0.61604129617E+02  0.62500000000E+02  0.47000000000E+01 0. -1.
</event>
<event>
 3    0  0.4607503E-005  0.9118800E+02  0.7546771E-02  0.1235069E+00
         25   -1    0    0    0    0  0.00000000000E+00  0.00000000000E+00  0.99999998245E-14  0.12500000000E+03  0.12500000000E+03 0.  0.
          5    1    1    0  501    0  0.56650930435E+02  0.18247627735E+02  0.18489352690E+02  0.62500000000E+02  0.47000000000E+01 0.  1.
         -5    1    1    0    0  501 -0.56650930435E+02 -0.18247627735E+02 -0.18489352690E+02  0.62500000000E+02  0.47000000000E+01 0.  1.
</event>
<event>
 3    0  0.4607503E-005  0.9118800E+02  0.7546771E-02  0.1235069E+00
         25   -1    0    0    0    0  0.00000000000E+00  0.00000000000E+00  0.99999998245E-14  0.12500000000E+03  0.12500000000E+03 0.  0.
          5    1    1    0  501    0 -0.19866063935E+02 -0.57074291090E+02 -0.15232360300E+02  0.62500000000E+02  0.47000000000E+01 0. -1.
         -5    1    1    0    0  501  0.19866063935E+02  0.57074291090E+02  0.15232360300E+02  0.62500000000E+02  0.47000000000E+01 0. -1.
</event>
<event>
 3    0  0.4607503E-005  0.9118800E+02  0.7546771E-02  0.1235069E+00
         25   -1    0    0    0    0  0.00000000000E+00  0.00000000000E+00  0.99999998245E-14  0.12500000000E+03  0.12500000000E+03 0.  0.
          5    1    1    0  501    0 -0.23664035466E+02 -0.55739409734E+02  0.14740815037E+02  0.62500000000E+02  0.47000000000E+01 0. -1.
         -5    1    1    0    0  501  0.23664035466E+02  0.55739409734E+02 -0.14740815037E+02  0.62500000000E+02  0.47000000000E+01 0. -1.
</event>
<event>
 3    0  0.4607503E-005  0.9118800E+02  0.7546771E-02  0.1235069E+00
         25   -1    0    0    0    0  0.00000000000E+00  0.00000000000E+00  0.99999998245E-14  0.12500000000E+03  0.12500000000E+03 0.  0.
          5    1    1    0  501    0  0.56010418041E+02  0.11782249234E+02 -0.24661136915E+02  0.62500000000E+02  0.47000000000E+01 0.  1.
         -5    1    1    0    0  501 -0.56010418041E+02 -0.11782249234E+02  0.24661136915E+02  0.62500000000E+02  0.47000000000E+01 0.  1.
</event>
<event>
 3    0  0.4607503E-005  0.9118800E+02  0.7546771E-02  0.1235069E+00
         25   -1    0    0    0    0  0.00000000000E+00  0.00000000000E+00  0.99999998245E-14  0.12500000000E+03  0.12500000000E+03 0.  0.
          5    1    1    0  501    0  0.37174242843E+02  0.49804296646E+02  0.46655872842E+01  0.62500000000E+02  0.47000000000E+01 0. -1.
         -5    1    1    0    0  501 -0.37174242843E+02 -0.49804296646E+02 -0.46655872842E+01  0.62500000000E+02  0.47000000000E+01 0. -1.
</event>
<event>
 3    0  0.4607503E-005  0.9118800E+02  0.7546771E-02  0.1235069E+00
         25   -1    0    0    0    0  0.00000000000E+00  0.00000000000E+00  0.99999998245E-14  0.12500000000E+03  0.12500000000E+03 0.  0.
          5    1    1    0  501    0 -0.47732869982E+02 -0.38782519787E+02 -0.10082126873E+02  0.62500000000E+02  0.47000000000E+01 0.  1.
         -5    1    1    0    0  501  0.47732869982E+02  0.38782519787E+02  0.10082126873E+02  0.62500000000E+02  0.47000000000E+01 0.  1.
</event>
<event>
 3    0  0.4607503E-005  0.9118800E+02  0.7546771E-02  0.1235069E+00
         25   -1    0    0    0    0  0.00000000000E+00  0.00000000000E+00  0.99999998245E-14  0.12500000000E+03  0.12500000000E+03 0.  0.
          5    1    1    0  501    0  0.57075690541E+02 -0.24873523880E+02 -0.27988138598E+01  0.62500000000E+02  0.47000000000E+01 0.  1.
         -5    1    1    0    0  501 -0.57075690541E+02  0.24873523880E+02  0.27988138598E+01  0.62500000000E+02  0.47000000000E+01 0.  1.
</event>
<event>
 3    0  0.4607503E-005  0.9118800E+02  0.7546771E-02  0.1235069E+00
         25   -1    0    0    0    0  0.00000000000E+00  0.00000000000E+00  0.99999998245E-14  0.12500000000E+03  0.12500000000E+03 0.  0.
          5    1    1    0  501    0  0.49753917105E+01 -0.61838035334E+02 -0.59550703926E+01  0.62500000000E+02  0.47000000000E+01 0. -1.
         -5    1    1    0    0  501 -0.49753917105E+01  0.61838035334E+02  0.59550703926E+01  0.62500000000E+02  0.47000000000E+01 0. -1.
</event>
<event>
 3    0  0.4607503E-005  0.9118800E+02  0.7546771E-02  0.1235069E+00
         25   -1    0    0    0    0  0.00000000000E+00  0.00000000000E+00  0.99999998245E-14  0.12500000000E+03  0.12500000000E+03 0.  0.
          5    1    1    0  501    0  0.47319007545E+02 -0.24002995157E+02 -0.32694460516E+02  0.62500000000E+02  0.47000000000E+01 0. -1.
         -5    1    1    0    0  501 -0.47319007545E+02  0.24002995157E+02  0.32694460516E+02  0.62500000000E+02  0.47000000000E+01 0. -1.
</event>
<event>
 3    0  0.4607503E-005  0.9118800E+02  0.7546771E-02  0.1235069E+00
         25   -1    0    0    0    0  0.00000000000E+00  0.00000000000E+00  0.99999998245E-14  0.12500000000E+03  0.12500000000E+03 0.  0.
          5    1    1    0  501    0  0.31546989174E+02 -0.51138990870E+02  0.16545424953E+02  0.62500000000E+02  0.47000000000E+01 0.  1.
         -5    1    1    0    0  501 -0.31546989174E+02  0.51138990870E+02 -0.16545424953E+02  0.62500000000E+02  0.47000000000E+01 0.  1.
</event>
<event>
 3    0  0.4607503E-005  0.9118800E+02  0.7546771E-02  0.1235069E+00
         25   -1    0    0    0    0  0.00000000000E+00  0.00000000000E+00  0.99999998245E-14  0.12500000000E+03  0.12500000000E+03 0.  0.
          5    1    1    0  501    0 -0.25768779900E+02 -0.33660435313E+02 -0.45684845157E+02  0.62500000000E+02  0.47000000000E+01 0. -1.
         -5    1    1    0    0  501  0.25768779900E+02  0.33660435313E+02  0.45684845157E+02  0.62500000000E+02  0.47000000000E+01 0. -1.
</event>
<event>
 3    0  0.4607503E-005  0.9118800E+02  0.7546771E-02  0.1235069E+00
         25   -1    0    0    0    0  0.00000000000E+00  0.00000000000E+00  0.99999998245E-14  0.12500000000E+03  0.12500000000E+03 0.  0.
          5    1    1    0  501    0 -0.60061798846E+02 -0.10328434908E+02 -0.13040849349E+02  0.62500000000E+02  0.47000000000E+01 0.  1.
         -5    1    1    0    0  501  0.60061798846E+02  0.10328434908E+02  0.13040849349E+02  0.62500000000E+02  0.47000000000E+01 0.  1.
</event>
<event>
 3    0  0.4607503E-005  0.9118800E+02  0.7546771E-02  0.1235069E+00
         25   -1    0    0    0    0  0.00000000000E+00  0.00000000000E+00  0.99999998245E-14  0.12500000000E+03  0.12500000000E+03 0.  0.
          5    1    1    0  501    0  0.35255281008E+02  0.50973589248E+02 -0.65512105930E+01  0.62500000000E+02  0.47000000000E+01 0. -1.
         -5    1    1    0    0  501 -0.35255281008E+02 -0.50973589248E+02  0.65512105930E+01  0.62500000000E+02  0.47000000000E+01 0. -1.
</event>
<event>
 3    0  0.4607503E-005  0.9118800E+02  0.7546771E-02  0.1235069E+00
         25   -1    0    0    0    0  0.00000000000E+00  0.00000000000E+00  0.99999998245E-14  0.12500000000E+03  0.12500000000E+03 0.  0.
          5    1    1    0  501    0  0.39637970725E+02  0.44151762913E+02  0.19068642021E+02  0.62500000000E+02  0.47000000000E+01 0. -1.
         -5    1    1    0    0  501 -0.39637970725E+02 -0.44151762913E+02 -0.19068642021E+02  0.62500000000E+02  0.47000000000E+01 0. -1.
</event>
<event>
 3    0  0.4607503E-005  0.9118800E+02  0.7546771E-02  0.1235069E+00
         25   -1    0    0    0    0  0.00000000000E+00  0.00000000000E+00  0.99999998245E-14  0.12500000000E+03  0.12500000000E+03 0.  0.
          5    1    1    0  501    0  0.22231914701E+02  0.46259524640E+02  0.35354750018E+02  0.62500000000E+02  0.47000000000E+01 0. -1.
         -5    1    1    0    0  501 -0.22231914701E+02 -0.46259524640E+02 -0.35354750018E+02  0.62500000000E+02  0.47000000000E+01 0. -1.
</event>
<event>
 3    0  0.4607503E-005  0.9118800E+02  0.7546771E-02  0.1235069E+00
         25   -1    0    0    0    0  0.00000000000E+00  0.00000000000E+00  0.99999998245E-14  0.12500000000E+03  0.12500000000E+03 0.  0.
          5    1    1    0  501    0  0.41550059068E+02 -0.71523835335E+01  0.45897668799E+02  0.62500000000E+02  0.47000000000E+01 0. -1.
         -5    1    1    0    0  501 -0.41550059068E+02  0.71523835335E+01 -0.45897668799E+02  0.62500000000E+02  0.47000000000E+01 0. -1.
</event>
<event>
 3    0  0.4607503E-005  0.9118800E+02  0.7546771E-02  0.1235069E+00
         25   -1    0    0    0    0  0.00000000000E+00  0.00000000000E+00  0.99999998245E-14  0.12500000000E+03  0.12500000000E+03 0.  0.
          5    1    1    0  501    0 -0.62252001671E+02  0.27063931081E+01 -0.12343922954E+01  0.62500000000E+02  0.47000000000E+01 0. -1.
         -5    1    1    0    0  501  0.62252001671E+02 -0.27063931081E+01  0.12343922954E+01  0.62500000000E+02  0.47000000000E+01 0. -1.
</event>
<event>
 3    0  0.4607503E-005  0.9118800E+02  0.7546771E-02  0.1235069E+00
         25   -1    0    0    0    0  0.00000000000E+00  0.00000000000E+00  0.99999998245E-14  0.12500000000E+03  0.12500000000E+03 0.  0.
          5    1    1    0  501    0  0.53498562538E+02  0.96622168656E+01 -0.30474667703E+02  0.62500000000E+02  0.47000000000E+01 0.  1.
         -5    1    1    0    0  501 -0.53498562538E+02 -0.96622168656E+01  0.30474667703E+02  0.62500000000E+02  0.47000000000E+01 0.  1.
</event>
<event>
 3    0  0.4607503E-005  0.9118800E+02  0.7546771E-02  0.1235069E+00
         25   -1    0    0    0    0  0.00000000000E+00  0.00000000000E+00  0.99999998245E-14  0.12500000000E+03  0.12500000000E+03 0.  0.
          5    1    1    0  501    0  0.39620373468E+02 -0.10639968762E+02  0.46916703539E+02  0.62500000000E+02  0.47000000000E+01 0.  1.
         -5    1    1    0    0  501 -0.39620373468E+02  0.10639968762E+02 -0.46916703539E+02  0.62500000000E+02  0.47000000000E+01 0.  1.
</event>
<event>
 3    0  0.4607503E-005  0.9118800E+02  0.7546771E-02  0.1235069E+00
         25   -1    0    0    0    0  0.00000000000E+00  0.00000000000E+00  0.99999998245E-14  0.12500000000E+03  0.12500000000E+03 0.  0.
          5    1    1    0  501    0  0.98776397999E+01 -0.25701856119E+02 -0.55910704020E+02  0.62500000000E+02  0.47000000000E+01 0.  1.
         -5    1    1    0    0  501 -0.98776397999E+01  0.25701856119E+02  0.55910704020E+02  0.62500000000E+02  0.47000000000E+01 0.  1.
</event>
<event>
 3    0  0.4607503E-005  0.9118800E+02  0.7546771E-02  0.1235069E+00
         25   -1    0    0    0    0  0.00000000000E+00  0.00000000000E+00  0.99999998245E-14  0.12500000000E+03  0.12500000000E+03 0.  0.
          5    1    1    0  501    0  0.46967581844E+02  0.91324776389E+01 -0.39934998534E+02  0.62500000000E+02  0.47000000000E+01 0.  1.
         -5    1    1    0    0  501 -0.46967581844E+02 -0.91324776389E+01  0.39934998534E+02  0.62500000000E+02  0.47000000000E+01 0.  1.
</event>
<event>
 3    0  0.4607503E-005  0.9118800E+02  0.7546771E-02  0.1235069E+00
         25   -1    0    0    0    0  0.00000000000E+00  0.00000000000E+00  0.99999998245E-14  0.12500000000E+03  0.12500000000E+03 0.  0.
          5    1    1    0  501    0 -0.37926277715E+02 -0.45756273486E+02  0.18764884635E+02  0.62500000000E+02  0.47000000000E+01 0. -1.
         -5    1    1    0    0  501  0.37926277715E+02  0.45756273486E+02 -0.18764884635E+02  0.62500000000E+02  0.47000000000E+01 0. -1.
</event>
<event>
 3    0  0.4607503E-005  0.9118800E+02  0.7546771E-02  0.1235069E+00
         25   -1    0    0    0    0  0.00000000000E+00  0.00000000000E+00  0.99999998245E-14  0.12500000000E+03  0.12500000000E+03 0.  0.
          5    1    1    0  501    0  0.53112803566E+02  0.13653842296E+02 -0.29610178789E+02  0.62500000000E+02  0.47000000000E+01 0.  1.
         -5    1    1    0    0  501 -0.53112803566E+02 -0.13653842296E+02  0.29610178789E+02  0.62500000000E+02  0.47000000000E+01 0.  1.
</event>
<event>
 3    0  0.4607503E-005  0.9118800E+02  0.7546771E-02  0.1235069E+00
         25   -1    0    0    0    0  0.00000000000E+00  0.00000000000E+00  0.99999998245E-14  0.12500000000E+03  0.12500000000E+03 0.  0.
          5    1    1    0  501    0 -0.38735715535E+02 -0.21491584165E+02  0.43838523607E+02  0.62500000000E+02  0.47000000000E+01 0.  1.
         -5    1    1    0    0  501  0.38735715535E+02  0.21491584165E+02 -0.43838523607E+02  0.62500000000E+02  0.47000000000E+01 0.  1.
</event>
<event>
 3    0  0.4607503E-005  0.9118800E+02  0.7546771E-02  0.1235069E+00
         25   -1    0    0    0    0  0.00000000000E+00  0.00000000000E+00  0.99999998245E-14  0.12500000000E+03  0.12500000000E+03 0.  0.
          5    1    1    0  501    0 -0.44825455520E+02  0.38609915071E+02 -0.19598800872E+02  0.62500000000E+02  0.47000000000E+01 0. -1.
         -5    1    1    0    0  501  0.44825455520E+02 -0.38609915071E+02  0.19598800872E+02  0.62500000000E+02  0.47000000000E+01 0. -1.
</event>
<event>
 3    0  0.4607503E-005  0.9118800E+02  0.7546771E-02  0.1235069E+00
         25   -1    0    0    0    0  0.00000000000E+00  0.00000000000E+00  0.99999998245E-14  0.12500000000E+03  0.12500000000E+03 0.  0.
          5    1    1    0  501    0 -0.16215045868E+02 -0.29525928171E+02  0.52435215773E+02  0.62500000000E+02  0.47000000000E+01 0. -1.
         -5    1    1    0    0  501  0.16215045868E+02  0.29525928171E+02 -0.52435215773E+02  0.62500000000E+02  0.47000000000E+01 0. -1.
</event>
<event>
 3    0  0.4607503E-005  0.9118800E+02  0.7546771E-02  0.1235069E+00
         25   -1    0    0    0    0  0.00000000000E+00  0.00000000000E+00  0.99999998245E-14  0.12500000000E+03  0.12500000000E+03 0.  0.
          5    1    1    0  501    0 -0.60335473979E+02 -0.18100399368E+01 -0.15508524595E+02  0.62500000000E+02  0.47000000000E+01 0. -1.
         -5    1    1    0    0  501  0.60335473979E+02  0.18100399368E+01  0.15508524595E+02  0.62500000000E+02  0.47000000000E+01 0. -1.
</event>
<event>
 3    0  0.4607503E-005  0.9118800E+02  0.7546771E-02  0.1235069E+00
         25   -1    0    0    0    0  0.00000000000E+00  0.00000000000E+00  0.99999998245E-14  0.12500000000E+03  0.12500000000E+03 0.  0.
          5    1    1    0  501    0 -0.57776481342E+02 -0.47073989692E+00  0.23362718327E+02  0.62500000000E+02  0.47000000000E+01 0. -1.
         -5    1    1    0    0  501  0.57776481342E+02  0.47073989692E+00 -0.23362718327E+02  0.62500000000E+02  0.47000000000E+01 0. -1.
</event>
<event>
 3    0  0.4607503E-005  0.9118800E+02  0.7546771E-02  0.1235069E+00
         25   -1    0    0    0    0  0.00000000000E+00  0.00000000000E+00  0.99999998245E-14  0.12500000000E+03  0.12500000000E+03 0.  0.
          5    1    1    0  501    0 -0.32966732691E+01 -0.50530927593E+02 -0.36330666138E+02  0.62500000000E+02  0.47000000000E+01 0.  1.
         -5    1    1    0    0  501  0.32966732691E+01  0.50530927593E+02  0.36330666138E+02  0.62500000000E+02  0.47000000000E+01 0.  1.
</event>
<event>
 3    0  0.4607503E-005  0.9118800E+02  0.7546771E-02  0.1235069E+00
         25   -1    0    0    0    0  0.00000000000E+00  0.00000000000E+00  0.99999998245E-14  0.12500000000E+03  0.12500000000E+03 0.  0.
          5    1    1    0  501    0 -0.50644531667E+02  0.17617754124E+02 -0.31763283078E+02  0.62500000000E+02  0.47000000000E+01 0.  1.
         -5    1    1    0    0  501  0.50644531667E+02 -0.17617754124E+02  0.31763283078E+02  0.62500000000E+02  0.47000000000E+01 0.  1.
</event>
<event>
 3    0  0.4607503E-005  0.9118800E+02  0.7546771E-02  0.1235069E+00
         25   -1    0    0    0    0  0.00000000000E+00  0.00000000000E+00  0.99999998245E-14  0.12500000000E+03  0.12500000000E+03 0.  0.
          5    1    1    0  501    0 -0.86215679386E+01 -0.61722836619E+02 -0.34641879133E+00  0.62500000000E+02  0.47000000000E+01 0.  1.
         -5    1    1    0    0  501  0.86215679386E+01  0.61722836619E+02  0.34641879133E+00  0.62500000000E+02  0.47000000000E+01 0.  1.
</event>
<event>
 3    0  0.4607503E-005  0.9118800E+02  0.7546771E-02  0.1235069E+00
         25   -1    0    0    0    0  0.00000000000E+00  0.00000000000E+00  0.99999998245E-14  0.12500000000E+03  0.12500000000E+03 0.  0.
          5    1    1    0  501    0 -0.48384830757E+02 -0.36073190149E+02  0.15549697909E+02  0.62500000000E+02  0.47000000000E+01 0. -1.
         -5    1    1    0    0  501  0.48384830757E+02  0.36073190149E+02 -0.15549697909E+02  0.62500000000E+02  0.47000000000E+01 0. -1.
</event>
<event>
 3    0  0.4607503E-005  0.9118800E+02  0.7546771E-02  0.1235069E+00
         25   -1    0    0    0    0  0.00000000000E+00  0.00000000000E+00  0.99999998245E-14  0.12500000000E+03  0.12500000000E+03 0.  0.
          5    1    1    0  501    0 -0.22256648080E+02 -0.28587802549E+02  0.50710345706E+02  0.62500000000E+02  0.47000000000E+01 0.  1.
         -5    1    1    0    0  501  0.22256648080E+02  0.28587802549E+02 -0.50710345706E+02  0.62500000000E+02  0.47000000000E+01 0.  1.
</event>
<event>
 3    0  0.4607503E-005  0.9118800E+02  0.7546771E-02  0.1235069E+00
         25   -1    0    0    0    0  0.00000000000E+00  0.00000000000E+00  0.99999998245E-14  0.12500000000E+03  0.12500000000E+03 0.  0.
          5    1    1    0  501    0  0.52737543613E+02 -0.59574697500E+01  0.32671394947E+02  0.62500000000E+02  0.47000000000E+01 0. -1.
         -5    1    1    0    0  501 -0.52737543613E+02  0.59574697500E+01 -0.32671394947E+02  0.62500000000E+02  0.47000000000E+01 0. -1.
</event>
<event>
 3    0  0.4607503E-005  0.9118800E+02  0.7546771E-02  0.1235069E+00
         25   -1    0    0    0    0  0.00000000000E+00  0.00000000000E+00  0.99999998245E-14  0.12500000000E+03  0.12500000000E+03 0.  0.
          5    1    1    0  501    0  0.32350759114E+02 -0.67721085428E+00  0.53264714119E+02  0.62500000000E+02  0.47000000000E+01 0. -1.
         -5    1    1    0    0  501 -0.32350759114E+02  0.67721085428E+00 -0.53264714119E+02  0.62500000000E+02  0.47000000000E+01 0. -1.
</event>
<event>
 3    0  0.4607503E-005  0.9118800E+02  0.7546771E-02  0.1235069E+00
         25   -1    0    0    0    0  0.00000000000E+00  0.00000000000E+00  0.99999998245E-14  0.12500000000E+03  0.12500000000E+03 0.  0.
          5    1    1    0  501    0  0.10845889550E+02  0.58039078966E+02 -0.19949736655E+02  0.62500000000E+02  0.47000000000E+01 0.  1.
         -5    1    1    0    0  501 -0.10845889550E+02 -0.58039078966E+02  0.19949736655E+02  0.62500000000E+02  0.47000000000E+01 0.  1.
</event>
<event>
 3    0  0.4607503E-005  0.9118800E+02  0.7546771E-02  0.1235069E+00
         25   -1    0    0    0    0  0.00000000000E+00  0.00000000000E+00  0.99999998245E-14  0.12500000000E+03  0.12500000000E+03 0.  0.
          5    1    1    0  501    0 -0.16338946021E+02 -0.52319171608E+02 -0.29663161079E+02  0.62500000000E+02  0.47000000000E+01 0. -1.
         -5    1    1    0    0  501  0.16338946021E+02  0.52319171608E+02  0.29663161079E+02  0.62500000000E+02  0.47000000000E+01 0. -1.
</event>
<event>
 3    0  0.4607503E-005  0.9118800E+02  0.7546771E-02  0.1235069E+00
         25   -1    0    0    0    0  0.00000000000E+00  0.00000000000E+00  0.99999998245E-14  0.12500000000E+03  0.12500000000E+03 0.  0.
          5    1    1    0  501    0  0.12960167775E+02 -0.60951652674E+02 -0.10440725732E+01  0.62500000000E+02  0.47000000000E+01 0. -1.
         -5    1    1    0    0  501 -0.12960167775E+02  0.60951652674E+02  0.10440725732E+01  0.62500000000E+02  0.47000000000E+01 0. -1.
</event>
<event>
 3    0  0.4607503E-005  0.9118800E+02  0.7546771E-02  0.1235069E+00
         25   -1    0    0    0    0  0.00000000000E+00  0.00000000000E+00  0.99999998245E-14  0.12500000000E+03  0.12500000000E+03 0.  0.
          5    1    1    0  501    0 -0.20763440271E+02 -0.58147810656E+02  0.84777157351E+01  0.62500000000E+02  0.47000000000E+01 0. -1.
         -5    1    1    0    0  501  0.20763440271E+02  0.58147810656E+02 -0.84777157351E+01  0.62500000000E+02  0.47000000000E+01 0. -1.
</event>
<event>
 3    0  0.4607503E-005  0.9118800E+02  0.7546771E-02  0.1235069E+00
         25   -1    0    0    0    0  0.00000000000E+00  0.00000000000E+00  0.99999998245E-14  0.12500000000E+03  0.12500000000E+03 0.  0.
          5    1    1    0  501    0 -0.20688622615E+02 -0.25725270319E+02 -0.52861624656E+02  0.62500000000E+02  0.47000000000E+01 0.  1.
         -5    1    1    0    0  501  0.20688622615E+02  0.25725270319E+02  0.52861624656E+02  0.62500000000E+02  0.47000000000E+01 0.  1.
</event>
<event>
 3    0  0.4607503E-005  0.9118800E+02  0.7546771E-02  0.1235069E+00
         25   -1    0    0    0    0  0.00000000000E+00  0.00000000000E+00  0.99999998245E-14  0.12500000000E+03  0.12500000000E+03 0.  0.
          5    1    1    0  501    0  0.14946319420E+02  0.59089913324E+02 -0.13005755618E+02  0.62500000000E+02  0.47000000000E+01 0. -1.
         -5    1    1    0    0  501 -0.14946319420E+02 -0.59089913324E+02  0.13005755618E+02  0.62500000000E+02  0.47000000000E+01 0. -1.
</event>
<event>
 3    0  0.4607503E-005  0.9118800E+02  0.7546771E-02  0.1235069E+00
         25   -1    0    0    0    0  0.00000000000E+00  0.00000000000E+00  0.99999998245E-14  0.12500000000E+03  0.12500000000E+03 0.  0.
          5    1    1    0  501    0  0.21611627112E+02 -0.35107647099E+02 -0.46739177236E+02  0.62500000000E+02  0.47000000000E+01 0. -1.
         -5    1    1    0    0  501 -0.21611627112E+02  0.35107647099E+02  0.46739177236E+02  0.62500000000E+02  0.47000000000E+01 0. -1.
</event>
<event>
 3    0  0.4607503E-005  0.9118800E+02  0.7546771E-02  0.1235069E+00
         25   -1    0    0    0    0  0.00000000000E+00  0.00000000000E+00  0.99999998245E-14  0.12500000000E+03  0.12500000000E+03 0.  0.
          5    1    1    0  501    0  0.48494442458E+01 -0.36604958534E+02  0.50206771468E+02  0.62500000000E+02  0.47000000000E+01 0. -1.
         -5    1    1    0    0  501 -0.48494442458E+01  0.36604958534E+02 -0.50206771468E+02  0.62500000000E+02  0.47000000000E+01 0. -1.
</event>
<event>
 3    0  0.4607503E-005  0.9118800E+02  0.7546771E-02  0.1235069E+00
         25   -1    0    0    0    0  0.00000000000E+00  0.00000000000E+00  0.99999998245E-14  0.12500000000E+03  0.12500000000E+03 0.  0.
          5    1    1    0  501    0 -0.50109062073E+02  0.36358731067E+02  0.71613248304E+01  0.62500000000E+02  0.47000000000E+01 0.  1.
         -5    1    1    0    0  501  0.50109062073E+02 -0.36358731067E+02 -0.71613248304E+01  0.62500000000E+02  0.47000000000E+01 0.  1.
</event>
<event>
 3    0  0.4607503E-005  0.9118800E+02  0.7546771E-02  0.1235069E+00
         25   -1    0    0    0    0  0.00000000000E+00  0.00000000000E+00  0.99999998245E-14  0.12500000000E+03  0.12500000000E+03 0.  0.
          5    1    1    0  501    0 -0.17216715944E+02  0.13630690271E+02 -0.58326228875E+02  0.62500000000E+02  0.47000000000E+01 0.  1.
         -5    1    1    0    0  501  0.17216715944E+02 -0.13630690271E+02  0.58326228875E+02  0.62500000000E+02  0.47000000000E+01 0.  1.
</event>
<event>
 3    0  0.4607503E-005  0.9118800E+02  0.7546771E-02  0.1235069E+00
         25   -1    0    0    0    0  0.00000000000E+00  0.00000000000E+00  0.99999998245E-14  0.12500000000E+03  0.12500000000E+03 0.  0.
          5    1    1    0  501    0 -0.40300456489E+02 -0.36248364776E+02 -0.30758563976E+02  0.62500000000E+02  0.47000000000E+01 0. -1.
         -5    1    1    0    0  501  0.40300456489E+02  0.36248364776E+02  0.30758563976E+02  0.62500000000E+02  0.47000000000E+01 0. -1.
</event>
<event>
 3    0  0.4607503E-005  0.9118800E+02  0.7546771E-02  0.1235069E+00
         25   -1    0    0    0    0  0.00000000000E+00  0.00000000000E+00  0.99999998245E-14  0.12500000000E+03  0.12500000000E+03 0.  0.
          5    1    1    0  501    0  0.46120164975E+01  0.62138090087E+02 -0.13217655407E+01  0.62500000000E+02  0.47000000000E+01 0. -1.
         -5    1    1    0    0  501 -0.46120164975E+01 -0.62138090087E+02  0.13217655407E+01  0.62500000000E+02  0.47000000000E+01 0. -1.
</event>
<event>
 3    0  0.4607503E-005  0.9118800E+02  0.7546771E-02  0.1235069E+00
         25   -1    0    0    0    0  0.00000000000E+00  0.00000000000E+00  0.99999998245E-14  0.12500000000E+03  0.12500000000E+03 0.  0.
          5    1    1    0  501    0 -0.59487062024E+01 -0.16331657137E+02 -0.59850228652E+02  0.62500000000E+02  0.47000000000E+01 0. -1.
         -5    1    1    0    0  501  0.59487062024E+01  0.16331657137E+02  0.59850228652E+02  0.62500000000E+02  0.47000000000E+01 0. -1.
</event>
<event>
 3    0  0.4607503E-005  0.9118800E+02  0.7546771E-02  0.1235069E+00
         25   -1    0    0    0    0  0.00000000000E+00  0.00000000000E+00  0.99999998245E-14  0.12500000000E+03  0.12500000000E+03 0.  0.
          5    1    1    0  501    0  0.14969750514E+02 -0.20036923218E+02  0.57084045735E+02  0.62500000000E+02  0.47000000000E+01 0. -1.
         -5    1    1    0    0  501 -0.14969750514E+02  0.20036923218E+02 -0.57084045735E+02  0.62500000000E+02  0.47000000000E+01 0. -1.
</event>
<event>
 3    0  0.4607503E-005  0.9118800E+02  0.7546771E-02  0.1235069E+00
         25   -1    0    0    0    0  0.00000000000E+00  0.00000000000E+00  0.99999998245E-14  0.12500000000E+03  0.12500000000E+03 0.  0.
          5    1    1    0  501    0  0.12042385779E+02  0.40297456878E+02  0.45991911397E+02  0.62500000000E+02  0.47000000000E+01 0.  1.
         -5    1    1    0    0  501 -0.12042385779E+02 -0.40297456878E+02 -0.45991911397E+02  0.62500000000E+02  0.47000000000E+01 0.  1.
</event>
<event>
 3    0  0.4607503E-005  0.9118800E+02  0.7546771E-02  0.1235069E+00
         25   -1    0    0    0    0  0.00000000000E+00  0.00000000000E+00  0.99999998245E-14  0.12500000000E+03  0.12500000000E+03 0.  0.
          5    1    1    0  501    0 -0.33108241038E+02  0.44924026521E+02 -0.27745922521E+02  0.62500000000E+02  0.47000000000E+01 0.  1.
         -5    1    1    0    0  501  0.33108241038E+02 -0.44924026521E+02  0.27745922521E+02  0.62500000000E+02  0.47000000000E+01 0.  1.
</event>
<event>
 3    0  0.4607503E-005  0.9118800E+02  0.7546771E-02  0.1235069E+00
         25   -1    0    0    0    0  0.00000000000E+00  0.00000000000E+00  0.99999998245E-14  0.12500000000E+03  0.12500000000E+03 0.  0.
          5    1    1    0  501    0 -0.56180462408E+02  0.87268279083E+01  0.25529553821E+02  0.62500000000E+02  0.47000000000E+01 0.  1.
         -5    1    1    0    0  501  0.56180462408E+02 -0.87268279083E+01 -0.25529553821E+02  0.62500000000E+02  0.47000000000E+01 0.  1.
</event>
<event>
 3    0  0.4607503E-005  0.9118800E+02  0.7546771E-02  0.1235069E+00
         25   -1    0    0    0    0  0.00000000000E+00  0.00000000000E+00  0.99999998245E-14  0.12500000000E+03  0.12500000000E+03 0.  0.
          5    1    1    0  501    0  0.35317720396E+02 -0.11835793043E+02  0.49967315608E+02  0.62500000000E+02  0.47000000000E+01 0.  1.
         -5    1    1    0    0  501 -0.35317720396E+02  0.11835793043E+02 -0.49967315608E+02  0.62500000000E+02  0.47000000000E+01 0.  1.
</event>
<event>
 3    0  0.4607503E-005  0.9118800E+02  0.7546771E-02  0.1235069E+00
         25   -1    0    0    0    0  0.00000000000E+00  0.00000000000E+00  0.99999998245E-14  0.12500000000E+03  0.12500000000E+03 0.  0.
          5    1    1    0  501    0  0.49043719608E+02  0.32153052616E+01  0.38321474125E+02  0.62500000000E+02  0.47000000000E+01 0. -1.
         -5    1    1    0    0  501 -0.49043719608E+02 -0.32153052616E+01 -0.38321474125E+02  0.62500000000E+02  0.47000000000E+01 0. -1.
</event>
<event>
 3    0  0.4607503E-005  0.9118800E+02  0.7546771E-02  0.1235069E+00
         25   -1    0    0    0    0  0.00000000000E+00  0.00000000000E+00  0.99999998245E-14  0.12500000000E+03  0.12500000000E+03 0.  0.
          5    1    1    0  501    0 -0.44969315573E+02 -0.34602903435E+02  0.25779056049E+02  0.62500000000E+02  0.47000000000E+01 0. -1.
         -5    1    1    0    0  501  0.44969315573E+02  0.34602903435E+02 -0.25779056049E+02  0.62500000000E+02  0.47000000000E+01 0. -1.
</event>
<event>
 3    0  0.4607503E-005  0.9118800E+02  0.7546771E-02  0.1235069E+00
         25   -1    0    0    0    0  0.00000000000E+00  0.00000000000E+00  0.99999998245E-14  0.12500000000E+03  0.12500000000E+03 0.  0.
          5    1    1    0  501    0  0.89882093722E+01  0.48036106584E+02  0.38676925376E+02  0.62500000000E+02  0.47000000000E+01 0. -1.
         -5    1    1    0    0  501 -0.89882093722E+01 -0.48036106584E+02 -0.38676925376E+02  0.62500000000E+02  0.47000000000E+01 0. -1.
</event>
<event>
 3    0  0.4607503E-005  0.9118800E+02  0.7546771E-02  0.1235069E+00
         25   -1    0    0    0    0  0.00000000000E+00  0.00000000000E+00  0.99999998245E-14  0.12500000000E+03  0.12500000000E+03 0.  0.
          5    1    1    0  501    0  0.30117959490E+02 -0.13752470548E+02 -0.52800928685E+02  0.62500000000E+02  0.47000000000E+01 0. -1.
         -5    1    1    0    0  501 -0.30117959490E+02  0.13752470548E+02  0.52800928685E+02  0.62500000000E+02  0.47000000000E+01 0. -1.
</event>
<event>
 3    0  0.4607503E-005  0.9118800E+02  0.7546771E-02  0.1235069E+00
         25   -1    0    0    0    0  0.00000000000E+00  0.00000000000E+00  0.99999998245E-14  0.12500000000E+03  0.12500000000E+03 0.  0.
          5    1    1    0  501    0  0.65537564562E+01 -0.34074903542E+02  0.51769771343E+02  0.62500000000E+02  0.47000000000E+01 0.  1.
         -5    1    1    0    0  501 -0.65537564562E+01  0.34074903542E+02 -0.51769771343E+02  0.62500000000E+02  0.47000000000E+01 0.  1.
</event>
<event>
 3    0  0.4607503E-005  0.9118800E+02  0.7546771E-02  0.1235069E+00
         25   -1    0    0    0    0  0.00000000000E+00  0.00000000000E+00  0.99999998245E-14  0.12500000000E+03  0.12500000000E+03 0.  0.
          5    1    1    0  501    0  0.15901511371E+02 -0.59229331162E+02 -0.11099020958E+02  0.62500000000E+02  0.47000000000E+01 0. -1.
         -5    1    1    0    0  501 -0.15901511371E+02  0.59229331162E+02  0.11099020958E+02  0.62500000000E+02  0.47000000000E+01 0. -1.
</event>
<event>
 3    0  0.4607503E-005  0.9118800E+02  0.7546771E-02  0.1235069E+00
         25   -1    0    0    0    0  0.00000000000E+00  0.00000000000E+00  0.99999998245E-14  0.12500000000E+03  0.12500000000E+03 0.  0.
          5    1    1    0  501    0 -0.22251036949E+02 -0.49963398791E+02  0.29878255236E+02  0.62500000000E+02  0.47000000000E+01 0.  1.
         -5    1    1    0    0  501  0.22251036949E+02  0.49963398791E+02 -0.29878255236E+02  0.62500000000E+02  0.47000000000E+01 0.  1.
</event>
<event>
 3    0  0.4607503E-005  0.9118800E+02  0.7546771E-02  0.1235069E+00
         25   -1    0    0    0    0  0.00000000000E+00  0.00000000000E+00  0.99999998245E-14  0.12500000000E+03  0.12500000000E+03 0.  0.
          5    1    1    0  501    0 -0.45412333111E+02  0.16701830010E+02  0.39280133347E+02  0.62500000000E+02  0.47000000000E+01 0.  1.
         -5    1    1    0    0  501  0.45412333111E+02 -0.16701830010E+02 -0.39280133347E+02  0.62500000000E+02  0.47000000000E+01 0.  1.
</event>
<event>
 3    0  0.4607503E-005  0.9118800E+02  0.7546771E-02  0.1235069E+00
         25   -1    0    0    0    0  0.00000000000E+00  0.00000000000E+00  0.99999998245E-14  0.12500000000E+03  0.12500000000E+03 0.  0.
          5    1    1    0  501    0 -0.79758754919E+00 -0.12397126145E+02 -0.61072376059E+02  0.62500000000E+02  0.47000000000E+01 0. -1.
         -5    1    1    0    0  501  0.79758754919E+00  0.12397126145E+02  0.61072376059E+02  0.62500000000E+02  0.47000000000E+01 0. -1.
</event>
<event>
 3    0  0.4607503E-005  0.9118800E+02  0.7546771E-02  0.1235069E+00
         25   -1    0    0    0    0  0.00000000000E+00  0.00000000000E+00  0.99999998245E-14  0.12500000000E+03  0.12500000000E+03 0.  0.
          5    1    1    0  501    0  0.27221323189E+01  0.30004593524E+02  0.54557074364E+02  0.62500000000E+02  0.47000000000E+01 0.  1.
         -5    1    1    0    0  501 -0.27221323189E+01 -0.30004593524E+02 -0.54557074364E+02  0.62500000000E+02  0.47000000000E+01 0.  1.
</event>
<event>
 3    0  0.4607503E-005  0.9118800E+02  0.7546771E-02  0.1235069E+00
         25   -1    0    0    0    0  0.00000000000E+00  0.00000000000E+00  0.99999998245E-14  0.12500000000E+03  0.12500000000E+03 0.  0.
          5    1    1    0  501    0  0.43164057711E+02  0.42531332679E+02  0.14563991985E+02  0.62500000000E+02  0.47000000000E+01 0. -1.
         -5    1    1    0    0  501 -0.43164057711E+02 -0.42531332679E+02 -0.14563991985E+02  0.62500000000E+02  0.47000000000E+01 0. -1.
</event>
<event>
 3    0  0.4607503E-005  0.9118800E+02  0.7546771E-02  0.1235069E+00
         25   -1    0    0    0    0  0.00000000000E+00  0.00000000000E+00  0.99999998245E-14  0.12500000000E+03  0.12500000000E+03 0.  0.
          5    1    1    0  501    0 -0.35336181021E+02  0.40682486546E+02 -0.31312131822E+02  0.62500000000E+02  0.47000000000E+01 0. -1.
         -5    1    1    0    0  501  0.35336181021E+02 -0.40682486546E+02  0.31312131822E+02  0.62500000000E+02  0.47000000000E+01 0. -1.
</event>
<event>
 3    0  0.4607503E-005  0.9118800E+02  0.7546771E-02  0.1235069E+00
         25   -1    0    0    0    0  0.00000000000E+00  0.00000000000E+00  0.99999998245E-14  0.12500000000E+03  0.12500000000E+03 0.  0.
          5    1    1    0  501    0  0.34256964253E+02  0.40179856834E+02 -0.33108903711E+02  0.62500000000E+02  0.47000000000E+01 0.  1.
         -5    1    1    0    0  501 -0.34256964253E+02 -0.40179856834E+02  0.33108903711E+02  0.62500000000E+02  0.47000000000E+01 0.  1.
</event>
<event>
 3    0  0.4607503E-005  0.9118800E+02  0.7546771E-02  0.1235069E+00
         25   -1    0    0    0    0  0.00000000000E+00  0.00000000000E+00  0.99999998245E-14  0.12500000000E+03  0.12500000000E+03 0.  0.
          5    1    1    0  501    0  0.38892247608E+02  0.48695485136E+02  0.55027564565E+00  0.62500000000E+02  0.47000000000E+01 0. -1.
         -5    1    1    0    0  501 -0.38892247608E+02 -0.48695485136E+02 -0.55027564565E+00  0.62500000000E+02  0.47000000000E+01 0. -1.
</event>
<event>
 3    0  0.4607503E-005  0.9118800E+02  0.7546771E-02  0.1235069E+00
         25   -1    0    0    0    0  0.00000000000E+00  0.00000000000E+00  0.99999998245E-14  0.12500000000E+03  0.12500000000E+03 0.  0.
          5    1    1    0  501    0 -0.29147545123E+02  0.41979443940E+02 -0.35669411262E+02  0.62500000000E+02  0.47000000000E+01 0.  1.
         -5    1    1    0    0  501  0.29147545123E+02 -0.41979443940E+02  0.35669411262E+02  0.62500000000E+02  0.47000000000E+01 0.  1.
</event>
<event>
 3    0  0.4607503E-005  0.9118800E+02  0.7546771E-02  0.1235069E+00
         25   -1    0    0    0    0  0.00000000000E+00  0.00000000000E+00  0.99999998245E-14  0.12500000000E+03  0.12500000000E+03 0.  0.
          5    1    1    0  501    0  0.27455535182E+02 -0.23665594985E+02 -0.50698059153E+02  0.62500000000E+02  0.47000000000E+01 0.  1.
         -5    1    1    0    0  501 -0.27455535182E+02  0.23665594985E+02  0.50698059153E+02  0.62500000000E+02  0.47000000000E+01 0.  1.
</event>
<event>
 3    0  0.4607503E-005  0.9118800E+02  0.7546771E-02  0.1235069E+00
         25   -1    0    0    0    0  0.00000000000E+00  0.00000000000E+00  0.99999998245E-14  0.12500000000E+03  0.12500000000E+03 0.  0.
          5    1    1    0  501    0  0.15575020845E+02  0.30351077567E+02 -0.52157365886E+02  0.62500000000E+02  0.47000000000E+01 0.  1.
         -5    1    1    0    0  501 -0.15575020845E+02 -0.30351077567E+02  0.52157365886E+02  0.62500000000E+02  0.47000000000E+01 0.  1.
</event>
<event>
 3    0  0.4607503E-005  0.9118800E+02  0.7546771E-02  0.1235069E+00
         25   -1    0    0    0    0  0.00000000000E+00  0.00000000000E+00  0.99999998245E-14  0.12500000000E+03  0.12500000000E+03 0.  0.
          5    1    1    0  501    0  0.40462190870E+02 -0.47400581773E+02  0.39491470411E+00  0.62500000000E+02  0.47000000000E+01 0.  1.
         -5    1    1    0    0  501 -0.40462190870E+02  0.47400581773E+02 -0.39491470411E+00  0.62500000000E+02  0.47000000000E+01 0.  1.
</event>
<event>
 3    0  0.4607503E-005  0.9118800E+02  0.7546771E-02  0.1235069E+00
         25   -1    0    0    0    0  0.00000000000E+00  0.00000000000E+00  0.99999998245E-14  0.12500000000E+03  0.12500000000E+03 0.  0.
          5    1    1    0  501    0  0.59485017067E+02  0.12111831447E+02  0.14106604251E+02  0.62500000000E+02  0.47000000000E+01 0. -1.
         -5    1    1    0    0  501 -0.59485017067E+02 -0.12111831447E+02 -0.14106604251E+02  0.62500000000E+02  0.47000000000E+01 0. -1.
</event>
<event>
 3    0  0.4607503E-005  0.9118800E+02  0.7546771E-02  0.1235069E+00
         25   -1    0    0    0    0  0.00000000000E+00  0.00000000000E+00  0.99999998245E-14  0.12500000000E+03  0.12500000000E+03 0.  0.
          5    1    1    0  501    0  0.46634482431E+02 -0.13118185553E+02  0.39208395226E+02  0.62500000000E+02  0.47000000000E+01 0. -1.
         -5    1    1    0    0  501 -0.46634482431E+02  0.13118185553E+02 -0.39208395226E+02  0.62500000000E+02  0.47000000000E+01 0. -1.
</event>
<event>
 3    0  0.4607503E-005  0.9118800E+02  0.7546771E-02  0.1235069E+00
         25   -1    0    0    0    0  0.00000000000E+00  0.00000000000E+00  0.99999998245E-14  0.12500000000E+03  0.12500000000E+03 0.  0.
          5    1    1    0  501    0  0.91592618101E+01  0.24211397505E+02  0.56692822773E+02  0.62500000000E+02  0.47000000000E+01 0. -1.
         -5    1    1    0    0  501 -0.91592618101E+01 -0.24211397505E+02 -0.56692822773E+02  0.62500000000E+02  0.47000000000E+01 0. -1.
</event>
<event>
 3    0  0.4607503E-005  0.9118800E+02  0.7546771E-02  0.1235069E+00
         25   -1    0    0    0    0  0.00000000000E+00  0.00000000000E+00  0.99999998245E-14  0.12500000000E+03  0.12500000000E+03 0.  0.
          5    1    1    0  501    0 -0.37769644759E+02 -0.81497848162E+01 -0.48899846035E+02  0.62500000000E+02  0.47000000000E+01 0. -1.
         -5    1    1    0    0  501  0.37769644759E+02  0.81497848162E+01  0.48899846035E+02  0.62500000000E+02  0.47000000000E+01 0. -1.
</event>
<event>
 3    0  0.4607503E-005  0.9118800E+02  0.7546771E-02  0.1235069E+00
         25   -1    0    0    0    0  0.00000000000E+00  0.00000000000E+00  0.99999998245E-14  0.12500000000E+03  0.12500000000E+03 0.  0.
          5    1    1    0  501    0  0.23234718099E+02 -0.16401499168E+02  0.55455375753E+02  0.62500000000E+02  0.47000000000E+01 0. -1.
         -5    1    1    0    0  501 -0.23234718099E+02  0.16401499168E+02 -0.55455375753E+02  0.62500000000E+02  0.47000000000E+01 0. -1.
</event>
<event>
 3    0  0.4607503E-005  0.9118800E+02  0.7546771E-02  0.1235069E+00
         25   -1    0    0    0    0  0.00000000000E+00  0.00000000000E+00  0.99999998245E-14  0.12500000000E+03  0.12500000000E+03 0.  0.
          5    1    1    0  501    0  0.64272802266E+01  0.23020790667E+02  0.57557738541E+02  0.62500000000E+02  0.47000000000E+01 0. -1.
         -5    1    1    0    0  501 -0.64272802266E+01 -0.23020790667E+02 -0.57557738541E+02  0.62500000000E+02  0.47000000000E+01 0. -1.
</event>
<event>
 3    0  0.4607503E-005  0.9118800E+02  0.7546771E-02  0.1235069E+00
         25   -1    0    0    0    0  0.00000000000E+00  0.00000000000E+00  0.99999998245E-14  0.12500000000E+03  0.12500000000E+03 0.  0.
          5    1    1    0  501    0  0.64903070889E+01  0.20914147716E+02 -0.58349244547E+02  0.62500000000E+02  0.47000000000E+01 0. -1.
         -5    1    1    0    0  501 -0.64903070889E+01 -0.20914147716E+02  0.58349244547E+02  0.62500000000E+02  0.47000000000E+01 0. -1.
</event>
<event>
 3    0  0.4607503E-005  0.9118800E+02  0.7546771E-02  0.1235069E+00
         25   -1    0    0    0    0  0.00000000000E+00  0.00000000000E+00  0.99999998245E-14  0.12500000000E+03  0.12500000000E+03 0.  0.
          5    1    1    0  501    0  0.35770967169E+02  0.39128143321E+02 -0.32765626929E+02  0.62500000000E+02  0.47000000000E+01 0. -1.
         -5    1    1    0    0  501 -0.35770967169E+02 -0.39128143321E+02  0.32765626929E+02  0.62500000000E+02  0.47000000000E+01 0. -1.
</event>
<event>
 3    0  0.4607503E-005  0.9118800E+02  0.7546771E-02  0.1235069E+00
         25   -1    0    0    0    0  0.00000000000E+00  0.00000000000E+00  0.99999998245E-14  0.12500000000E+03  0.12500000000E+03 0.  0.
          5    1    1    0  501    0  0.54273478448E+02 -0.27030203007E+02  0.14419350284E+02  0.62500000000E+02  0.47000000000E+01 0.  1.
         -5    1    1    0    0  501 -0.54273478448E+02  0.27030203007E+02 -0.14419350284E+02  0.62500000000E+02  0.47000000000E+01 0.  1.
</event>
<event>
 3    0  0.4607503E-005  0.9118800E+02  0.7546771E-02  0.1235069E+00
         25   -1    0    0    0    0  0.00000000000E+00  0.00000000000E+00  0.99999998245E-14  0.12500000000E+03  0.12500000000E+03 0.  0.
          5    1    1    0  501    0 -0.17701286313E+02 -0.57794771152E+02 -0.15185153617E+02  0.62500000000E+02  0.47000000000E+01 0.  1.
         -5    1    1    0    0  501  0.17701286313E+02  0.57794771152E+02  0.15185153617E+02  0.62500000000E+02  0.47000000000E+01 0.  1.
</event>
<event>
 3    0  0.4607503E-005  0.9118800E+02  0.7546771E-02  0.1235069E+00
         25   -1    0    0    0    0  0.00000000000E+00  0.00000000000E+00  0.99999998245E-14  0.12500000000E+03  0.12500000000E+03 0.  0.
          5    1    1    0  501    0  0.22648342374E+01  0.47921627810E+02  0.39781253298E+02  0.62500000000E+02  0.47000000000E+01 0. -1.
         -5    1    1    0    0  501 -0.22648342374E+01 -0.47921627810E+02 -0.39781253298E+02  0.62500000000E+02  0.47000000000E+01 0. -1.
</event>
<event>
 3    0  0.4607503E-005  0.9118800E+02  0.7546771E-02  0.1235069E+00
         25   -1    0    0    0    0  0.00000000000E+00  0.00000000000E+00  0.99999998245E-14  0.12500000000E+03  0.12500000000E+03 0.  0.
          5    1    1    0  501    0 -0.44931313456E+02  0.43013826767E+02 -0.38920146418E+01  0.62500000000E+02  0.47000000000E+01 0.  1.
         -5    1    1    0    0  501  0.44931313456E+02 -0.43013826767E+02  0.38920146418E+01  0.62500000000E+02  0.47000000000E+01 0.  1.
</event>
<event>
 3    0  0.4607503E-005  0.9118800E+02  0.7546771E-02  0.1235069E+00
         25   -1    0    0    0    0  0.00000000000E+00  0.00000000000E+00  0.99999998245E-14  0.12500000000E+03  0.12500000000E+03 0.  0.
          5    1    1    0  501    0 -0.20870816217E+02 -0.40256740963E+02  0.42754693748E+02  0.62500000000E+02  0.47000000000E+01 0. -1.
         -5    1    1    0    0  501  0.20870816217E+02  0.40256740963E+02 -0.42754693748E+02  0.62500000000E+02  0.47000000000E+01 0. -1.
</event>
<event>
 3    0  0.4607503E-005  0.9118800E+02  0.7546771E-02  0.1235069E+00
         25   -1    0    0    0    0  0.00000000000E+00  0.00000000000E+00  0.99999998245E-14  0.12500000000E+03  0.12500000000E+03 0.  0.
          5    1    1    0  501    0 -0.47067626215E+02 -0.38690254230E+02  0.13109644927E+02  0.62500000000E+02  0.47000000000E+01 0. -1.
         -5    1    1    0    0  501  0.47067626215E+02  0.38690254230E+02 -0.13109644927E+02  0.62500000000E+02  0.47000000000E+01 0. -1.
</event>
<event>
 3    0  0.4607503E-005  0.9118800E+02  0.7546771E-02  0.1235069E+00
         25   -1    0    0    0    0  0.00000000000E+00  0.00000000000E+00  0.99999998245E-14  0.12500000000E+03  0.12500000000E+03 0.  0.
          5    1    1    0  501    0 -0.21119733215E+02  0.54744993801E+02  0.21002440874E+02  0.62500000000E+02  0.47000000000E+01 0. -1.
         -5    1    1    0    0  501  0.21119733215E+02 -0.54744993801E+02 -0.21002440874E+02  0.62500000000E+02  0.47000000000E+01 0. -1.
</event>
<event>
 3    0  0.4607503E-005  0.9118800E+02  0.7546771E-02  0.1235069E+00
         25   -1    0    0    0    0  0.00000000000E+00  0.00000000000E+00  0.99999998245E-14  0.12500000000E+03  0.12500000000E+03 0.  0.
          5    1    1    0  501    0 -0.26270326169E+02 -0.49868000798E+02 -0.26593466480E+02  0.62500000000E+02  0.47000000000E+01 0.  1.
         -5    1    1    0    0  501  0.26270326169E+02  0.49868000798E+02  0.26593466480E+02  0.62500000000E+02  0.47000000000E+01 0.  1.
</event>
<event>
 3    0  0.4607503E-005  0.9118800E+02  0.7546771E-02  0.1235069E+00
         25   -1    0    0    0    0  0.00000000000E+00  0.00000000000E+00  0.99999998245E-14  0.12500000000E+03  0.12500000000E+03 0.  0.
          5    1    1    0  501    0  0.32591901657E+02 -0.26789863222E+01 -0.53054226775E+02  0.62500000000E+02  0.47000000000E+01 0.  1.
         -5    1    1    0    0  501 -0.32591901657E+02  0.26789863222E+01  0.53054226775E+02  0.62500000000E+02  0.47000000000E+01 0.  1.
</event>
<event>
 3    0  0.4607503E-005  0.9118800E+02  0.7546771E-02  0.1235069E+00
         25   -1    0    0    0    0  0.00000000000E+00  0.00000000000E+00  0.99999998245E-14  0.12500000000E+03  0.12500000000E+03 0.  0.
          5    1    1    0  501    0  0.54366475200E+02  0.20705349699E+02  0.22354750459E+02  0.62500000000E+02  0.47000000000E+01 0.  1.
         -5    1    1    0    0  501 -0.54366475200E+02 -0.20705349699E+02 -0.22354750459E+02  0.62500000000E+02  0.47000000000E+01 0.  1.
</event>
<event>
 3    0  0.4607503E-005  0.9118800E+02  0.7546771E-02  0.1235069E+00
         25   -1    0    0    0    0  0.00000000000E+00  0.00000000000E+00  0.99999998245E-14  0.12500000000E+03  0.12500000000E+03 0.  0.
          5    1    1    0  501    0 -0.26799069366E+02 -0.50618702934E+02 -0.24570649043E+02  0.62500000000E+02  0.47000000000E+01 0.  1.
         -5    1    1    0    0  501  0.26799069366E+02  0.50618702934E+02  0.24570649043E+02  0.62500000000E+02  0.47000000000E+01 0.  1.
</event>
<event>
 3    0  0.4607503E-005  0.9118800E+02  0.7546771E-02  0.1235069E+00
         25   -1    0    0    0    0  0.00000000000E+00  0.00000000000E+00  0.99999998245E-14  0.12500000000E+03  0.12500000000E+03 0.  0.
          5    1    1    0  501    0  0.52088407416E+01  0.26372310591E+02 -0.56227477377E+02  0.62500000000E+02  0.47000000000E+01 0.  1.
         -5    1    1    0    0  501 -0.52088407416E+01 -0.26372310591E+02  0.56227477377E+02  0.62500000000E+02  0.47000000000E+01 0.  1.
</event>
<event>
 3    0  0.4607503E-005  0.9118800E+02  0.7546771E-02  0.1235069E+00
         25   -1    0    0    0    0  0.00000000000E+00  0.00000000000E+00  0.99999998245E-14  0.12500000000E+03  0.12500000000E+03 0.  0.
          5    1    1    0  501    0 -0.43082094911E+02 -0.18952243214E+02  0.40852240761E+02  0.62500000000E+02  0.47000000000E+01 0.  1.
         -5    1    1    0    0  501  0.43082094911E+02  0.18952243214E+02 -0.40852240761E+02  0.62500000000E+02  0.47000000000E+01 0.  1.
</event>
<event>
 3    0  0.4607503E-005  0.9118800E+02  0.7546771E-02  0.1235069E+00
         25   -1    0    0    0    0  0.00000000000E+00  0.00000000000E+00  0.99999998245E-14  0.12500000000E+03  0.12500000000E+03 0.  0.
          5    1    1    0  501    0 -0.41929232802E+02 -0.15144451198E+02  0.43551636416E+02  0.62500000000E+02  0.47000000000E+01 0. -1.
         -5    1    1    0    0  501  0.41929232802E+02  0.15144451198E+02 -0.43551636416E+02  0.62500000000E+02  0.47000000000E+01 0. -1.
</event>
<event>
 3    0  0.4607503E-005  0.9118800E+02  0.7546771E-02  0.1235069E+00
         25   -1    0    0    0    0  0.00000000000E+00  0.00000000000E+00  0.99999998245E-14  0.12500000000E+03  0.12500000000E+03 0.  0.
          5    1    1    0  501    0  0.49810035803E+01  0.54327127230E+02  0.30131592230E+02  0.62500000000E+02  0.47000000000E+01 0.  1.
         -5    1    1    0    0  501 -0.49810035803E+01 -0.54327127230E+02 -0.30131592230E+02  0.62500000000E+02  0.47000000000E+01 0.  1.
</event>
<event>
 3    0  0.4607503E-005  0.9118800E+02  0.7546771E-02  0.1235069E+00
         25   -1    0    0    0    0  0.00000000000E+00  0.00000000000E+00  0.99999998245E-14  0.12500000000E+03  0.12500000000E+03 0.  0.
          5    1    1    0  501    0 -0.35474604001E+02 -0.41031887612E+01  0.51077160385E+02  0.62500000000E+02  0.47000000000E+01 0. -1.
         -5    1    1    0    0  501  0.35474604001E+02  0.41031887612E+01 -0.51077160385E+02  0.62500000000E+02  0.47000000000E+01 0. -1.
</event>
<event>
 3    0  0.4607503E-005  0.9118800E+02  0.7546771E-02  0.1235069E+00
         25   -1    0    0    0    0  0.00000000000E+00  0.00000000000E+00  0.99999998245E-14  0.12500000000E+03  0.12500000000E+03 0.  0.
          5    1    1    0  501    0  0.16531308069E+02  0.53217568440E+02 -0.27906383909E+02  0.62500000000E+02  0.47000000000E+01 0. -1.
         -5    1    1    0    0  501 -0.16531308069E+02 -0.53217568440E+02  0.27906383909E+02  0.62500000000E+02  0.47000000000E+01 0. -1.
</event>
<event>
 3    0  0.4607503E-005  0.9118800E+02  0.7546771E-02  0.1235069E+00
         25   -1    0    0    0    0  0.00000000000E+00  0.00000000000E+00  0.99999998245E-14  0.12500000000E+03  0.12500000000E+03 0.  0.
          5    1    1    0  501    0 -0.58174951831E+02  0.15173964662E+02 -0.16419067448E+02  0.62500000000E+02  0.47000000000E+01 0. -1.
         -5    1    1    0    0  501  0.58174951831E+02 -0.15173964662E+02  0.16419067448E+02  0.62500000000E+02  0.47000000000E+01 0. -1.
</event>
<event>
 3    0  0.4607503E-005  0.9118800E+02  0.7546771E-02  0.1235069E+00
         25   -1    0    0    0    0  0.00000000000E+00  0.00000000000E+00  0.99999998245E-14  0.12500000000E+03  0.12500000000E+03 0.  0.
          5    1    1    0  501    0 -0.34126704086E+02  0.42084620753E+02 -0.30796310888E+02  0.62500000000E+02  0.47000000000E+01 0.  1.
         -5    1    1    0    0  501  0.34126704086E+02 -0.42084620753E+02  0.30796310888E+02  0.62500000000E+02  0.47000000000E+01 0.  1.
</event>
<event>
 3    0  0.4607503E-005  0.9118800E+02  0.7546771E-02  0.1235069E+00
         25   -1    0    0    0    0  0.00000000000E+00  0.00000000000E+00  0.99999998245E-14  0.12500000000E+03  0.12500000000E+03 0.  0.
          5    1    1    0  501    0 -0.48545041420E+02 -0.23413955904E+02 -0.31294178730E+02  0.62500000000E+02  0.47000000000E+01 0.  1.
         -5    1    1    0    0  501  0.48545041420E+02  0.23413955904E+02  0.31294178730E+02  0.62500000000E+02  0.47000000000E+01 0.  1.
</event>
<event>
 3    0  0.4607503E-005  0.9118800E+02  0.7546771E-02  0.1235069E+00
         25   -1    0    0    0    0  0.00000000000E+00  0.00000000000E+00  0.99999998245E-14  0.12500000000E+03  0.12500000000E+03 0.  0.
          5    1    1    0  501    0  0.43657714356E+02  0.49734499003E+01  0.44197610493E+02  0.62500000000E+02  0.47000000000E+01 0.  1.
         -5    1    1    0    0  501 -0.43657714356E+02 -0.49734499003E+01 -0.44197610493E+02  0.62500000000E+02  0.47000000000E+01 0.  1.
</event>
<event>
 3    0  0.4607503E-005  0.9118800E+02  0.7546771E-02  0.1235069E+00
         25   -1    0    0    0    0  0.00000000000E+00  0.00000000000E+00  0.99999998245E-14  0.12500000000E+03  0.12500000000E+03 0.  0.
          5    1    1    0  501    0  0.40114847216E+02  0.47684054731E+02 -0.10908515947E+01  0.62500000000E+02  0.47000000000E+01 0. -1.
         -5    1    1    0    0  501 -0.40114847216E+02 -0.47684054731E+02  0.10908515947E+01  0.62500000000E+02  0.47000000000E+01 0. -1.
</event>
<event>
 3    0  0.4607503E-005  0.9118800E+02  0.7546771E-02  0.1235069E+00
         25   -1    0    0    0    0  0.00000000000E+00  0.00000000000E+00  0.99999998245E-14  0.12500000000E+03  0.12500000000E+03 0.  0.
          5    1    1    0  501    0 -0.50763978800E+02 -0.30380333734E+02 -0.19601371857E+02  0.62500000000E+02  0.47000000000E+01 0.  1.
         -5    1    1    0    0  501  0.50763978800E+02  0.30380333734E+02  0.19601371857E+02  0.62500000000E+02  0.47000000000E+01 0.  1.
</event>
<event>
 3    0  0.4607503E-005  0.9118800E+02  0.7546771E-02  0.1235069E+00
         25   -1    0    0    0    0  0.00000000000E+00  0.00000000000E+00  0.99999998245E-14  0.12500000000E+03  0.12500000000E+03 0.  0.
          5    1    1    0  501    0 -0.10430255952E+02  0.79883692798E+01  0.60922538662E+02  0.62500000000E+02  0.47000000000E+01 0.  1.
         -5    1    1    0    0  501  0.10430255952E+02 -0.79883692798E+01 -0.60922538662E+02  0.62500000000E+02  0.47000000000E+01 0.  1.
</event>
<event>
 3    0  0.4607503E-005  0.9118800E+02  0.7546771E-02  0.1235069E+00
         25   -1    0    0    0    0  0.00000000000E+00  0.00000000000E+00  0.99999998245E-14  0.12500000000E+03  0.12500000000E+03 0.  0.
          5    1    1    0  501    0 -0.43031351612E+02 -0.44883661654E+02 -0.42331660756E+01  0.62500000000E+02  0.47000000000E+01 0.  1.
         -5    1    1    0    0  501  0.43031351612E+02  0.44883661654E+02  0.42331660756E+01  0.62500000000E+02  0.47000000000E+01 0.  1.
</event>
<event>
 3    0  0.4607503E-005  0.9118800E+02  0.7546771E-02  0.1235069E+00
         25   -1    0    0    0    0  0.00000000000E+00  0.00000000000E+00  0.99999998245E-14  0.12500000000E+03  0.12500000000E+03 0.  0.
          5    1    1    0  501    0  0.86792372849E+01  0.64944583363E+01  0.61373062911E+02  0.62500000000E+02  0.47000000000E+01 0. -1.
         -5    1    1    0    0  501 -0.86792372849E+01 -0.64944583363E+01 -0.61373062911E+02  0.62500000000E+02  0.47000000000E+01 0. -1.
</event>
<event>
 3    0  0.4607503E-005  0.9118800E+02  0.7546771E-02  0.1235069E+00
         25   -1    0    0    0    0  0.00000000000E+00  0.00000000000E+00  0.99999998245E-14  0.12500000000E+03  0.12500000000E+03 0.  0.
          5    1    1    0  501    0 -0.13643667686E+02 -0.36373635624E+02  0.48733653296E+02  0.62500000000E+02  0.47000000000E+01 0.  1.
         -5    1    1    0    0  501  0.13643667686E+02  0.36373635624E+02 -0.48733653296E+02  0.62500000000E+02  0.47000000000E+01 0.  1.
</event>
<event>
 3    0  0.4607503E-005  0.9118800E+02  0.7546771E-02  0.1235069E+00
         25   -1    0    0    0    0  0.00000000000E+00  0.00000000000E+00  0.99999998245E-14  0.12500000000E+03  0.12500000000E+03 0.  0.
          5    1    1    0  501    0  0.10345934029E+02 -0.57653054272E+02  0.21289597982E+02  0.62500000000E+02  0.47000000000E+01 0.  1.
         -5    1    1    0    0  501 -0.10345934029E+02  0.57653054272E+02 -0.21289597982E+02  0.62500000000E+02  0.47000000000E+01 0.  1.
</event>
<event>
 3    0  0.4607503E-005  0.9118800E+02  0.7546771E-02  0.1235069E+00
         25   -1    0    0    0    0  0.00000000000E+00  0.00000000000E+00  0.99999998245E-14  0.12500000000E+03  0.12500000000E+03 0.  0.
          5    1    1    0  501    0 -0.18574676656E+02  0.43698116690E+01  0.59329976682E+02  0.62500000000E+02  0.47000000000E+01 0. -1.
         -5    1    1    0    0  501  0.18574676656E+02 -0.43698116690E+01 -0.59329976682E+02  0.62500000000E+02  0.47000000000E+01 0. -1.
</event>
<event>
 3    0  0.4607503E-005  0.9118800E+02  0.7546771E-02  0.1235069E+00
         25   -1    0    0    0    0  0.00000000000E+00  0.00000000000E+00  0.99999998245E-14  0.12500000000E+03  0.12500000000E+03 0.  0.
          5    1    1    0  501    0 -0.53850257225E+02  0.26290532035E+02 -0.17120681123E+02  0.62500000000E+02  0.47000000000E+01 0. -1.
         -5    1    1    0    0  501  0.53850257225E+02 -0.26290532035E+02  0.17120681123E+02  0.62500000000E+02  0.47000000000E+01 0. -1.
</event>
<event>
 3    0  0.4607503E-005  0.9118800E+02  0.7546771E-02  0.1235069E+00
         25   -1    0    0    0    0  0.00000000000E+00  0.00000000000E+00  0.99999998245E-14  0.12500000000E+03  0.12500000000E+03 0.  0.
          5    1    1    0  501    0  0.43762958608E+02 -0.35954524466E+02  0.26004530841E+02  0.62500000000E+02  0.47000000000E+01 0. -1.
         -5    1    1    0    0  501 -0.43762958608E+02  0.35954524466E+02 -0.26004530841E+02  0.62500000000E+02  0.47000000000E+01 0. -1.
</event>
<event>
 3    0  0.4607503E-005  0.9118800E+02  0.7546771E-02  0.1235069E+00
         25   -1    0    0    0    0  0.00000000000E+00  0.00000000000E+00  0.99999998245E-14  0.12500000000E+03  0.12500000000E+03 0.  0.
          5    1    1    0  501    0  0.52508307566E+02 -0.22885422191E+02  0.24562066030E+02  0.62500000000E+02  0.47000000000E+01 0. -1.
         -5    1    1    0    0  501 -0.52508307566E+02  0.22885422191E+02 -0.24562066030E+02  0.62500000000E+02  0.47000000000E+01 0. -1.
</event>
<event>
 3    0  0.4607503E-005  0.9118800E+02  0.7546771E-02  0.1235069E+00
         25   -1    0    0    0    0  0.00000000000E+00  0.00000000000E+00  0.99999998245E-14  0.12500000000E+03  0.12500000000E+03 0.  0.
          5    1    1    0  501    0  0.20358787926E+02  0.13403153457E+02 -0.57358828715E+02  0.62500000000E+02  0.47000000000E+01 0. -1.
         -5    1    1    0    0  501 -0.20358787926E+02 -0.13403153457E+02  0.57358828715E+02  0.62500000000E+02  0.47000000000E+01 0. -1.
</event>
<event>
 3    0  0.4607503E-005  0.9118800E+02  0.7546771E-02  0.1235069E+00
         25   -1    0    0    0    0  0.00000000000E+00  0.00000000000E+00  0.99999998245E-14  0.12500000000E+03  0.12500000000E+03 0.  0.
          5    1    1    0  501    0 -0.33486725426E+02 -0.28195517024E+00 -0.52561580280E+02  0.62500000000E+02  0.47000000000E+01 0.  1.
         -5    1    1    0    0  501  0.33486725426E+02  0.28195517024E+00  0.52561580280E+02  0.62500000000E+02  0.47000000000E+01 0.  1.
</event>
<event>
 3    0  0.4607503E-005  0.9118800E+02  0.7546771E-02  0.1235069E+00
         25   -1    0    0    0    0  0.00000000000E+00  0.00000000000E+00  0.99999998245E-14  0.12500000000E+03  0.12500000000E+03 0.  0.
          5    1    1    0  501    0 -0.44329473741E+02 -0.43654484520E+02 -0.36529083092E+01  0.62500000000E+02  0.47000000000E+01 0. -1.
         -5    1    1    0    0  501  0.44329473741E+02  0.43654484520E+02  0.36529083092E+01  0.62500000000E+02  0.47000000000E+01 0. -1.
</event>
<event>
 3    0  0.4607503E-005  0.9118800E+02  0.7546771E-02  0.1235069E+00
         25   -1    0    0    0    0  0.00000000000E+00  0.00000000000E+00  0.99999998245E-14  0.12500000000E+03  0.12500000000E+03 0.  0.
          5    1    1    0  501    0 -0.37397892056E+02  0.48618714765E+02 -0.11035318046E+02  0.62500000000E+02  0.47000000000E+01 0.  1.
         -5    1    1    0    0  501  0.37397892056E+02 -0.48618714765E+02  0.11035318046E+02  0.62500000000E+02  0.47000000000E+01 0.  1.
</event>
<event>
 3    0  0.4607503E-005  0.9118800E+02  0.7546771E-02  0.1235069E+00
         25   -1    0    0    0    0  0.00000000000E+00  0.00000000000E+00  0.99999998245E-14  0.12500000000E+03  0.12500000000E+03 0.  0.
          5    1    1    0  501    0  0.34340987602E+02  0.47066515146E+02 -0.22126900428E+02  0.62500000000E+02  0.47000000000E+01 0.  1.
         -5    1    1    0    0  501 -0.34340987602E+02 -0.47066515146E+02  0.22126900428E+02  0.62500000000E+02  0.47000000000E+01 0.  1.
</event>
<event>
 3    0  0.4607503E-005  0.9118800E+02  0.7546771E-02  0.1235069E+00
         25   -1    0    0    0    0  0.00000000000E+00  0.00000000000E+00  0.99999998245E-14  0.12500000000E+03  0.12500000000E+03 0.  0.
          5    1    1    0  501    0  0.57800503009E+02 -0.18347480291E+02 -0.14374693696E+02  0.62500000000E+02  0.47000000000E+01 0. -1.
         -5    1    1    0    0  501 -0.57800503009E+02  0.18347480291E+02  0.14374693696E+02  0.62500000000E+02  0.47000000000E+01 0. -1.
</event>
<event>
 3    0  0.4607503E-005  0.9118800E+02  0.7546771E-02  0.1235069E+00
         25   -1    0    0    0    0  0.00000000000E+00  0.00000000000E+00  0.99999998245E-14  0.12500000000E+03  0.12500000000E+03 0.  0.
          5    1    1    0  501    0 -0.28476740273E+02  0.71668616055E+01  0.54971550443E+02  0.62500000000E+02  0.47000000000E+01 0. -1.
         -5    1    1    0    0  501  0.28476740273E+02 -0.71668616055E+01 -0.54971550443E+02  0.62500000000E+02  0.47000000000E+01 0. -1.
</event>
<event>
 3    0  0.4607503E-005  0.9118800E+02  0.7546771E-02  0.1235069E+00
         25   -1    0    0    0    0  0.00000000000E+00  0.00000000000E+00  0.99999998245E-14  0.12500000000E+03  0.12500000000E+03 0.  0.
          5    1    1    0  501    0 -0.51862871590E+02 -0.32389931963E+02 -0.12053831665E+02  0.62500000000E+02  0.47000000000E+01 0.  1.
         -5    1    1    0    0  501  0.51862871590E+02  0.32389931963E+02  0.12053831665E+02  0.62500000000E+02  0.47000000000E+01 0.  1.
</event>
<event>
 3    0  0.4607503E-005  0.9118800E+02  0.7546771E-02  0.1235069E+00
         25   -1    0    0    0    0  0.00000000000E+00  0.00000000000E+00  0.99999998245E-14  0.12500000000E+03  0.12500000000E+03 0.  0.
          5    1    1    0  501    0  0.26745790424E+02  0.54937759854E+02  0.12274576848E+02  0.62500000000E+02  0.47000000000E+01 0. -1.
         -5    1    1    0    0  501 -0.26745790424E+02 -0.54937759854E+02 -0.12274576848E+02  0.62500000000E+02  0.47000000000E+01 0. -1.
</event>
<event>
 3    0  0.4607503E-005  0.9118800E+02  0.7546771E-02  0.1235069E+00
         25   -1    0    0    0    0  0.00000000000E+00  0.00000000000E+00  0.99999998245E-14  0.12500000000E+03  0.12500000000E+03 0.  0.
          5    1    1    0  501    0 -0.31162020888E+02  0.30751526329E+02 -0.44355744641E+02  0.62500000000E+02  0.47000000000E+01 0. -1.
         -5    1    1    0    0  501  0.31162020888E+02 -0.30751526329E+02  0.44355744641E+02  0.62500000000E+02  0.47000000000E+01 0. -1.
</event>
<event>
 3    0  0.4607503E-005  0.9118800E+02  0.7546771E-02  0.1235069E+00
         25   -1    0    0    0    0  0.00000000000E+00  0.00000000000E+00  0.99999998245E-14  0.12500000000E+03  0.12500000000E+03 0.  0.
          5    1    1    0  501    0  0.10367629362E+02  0.21338291802E+02  0.57631150990E+02  0.62500000000E+02  0.47000000000E+01 0. -1.
         -5    1    1    0    0  501 -0.10367629362E+02 -0.21338291802E+02 -0.57631150990E+02  0.62500000000E+02  0.47000000000E+01 0. -1.
</event>
<event>
 3    0  0.4607503E-005  0.9118800E+02  0.7546771E-02  0.1235069E+00
         25   -1    0    0    0    0  0.00000000000E+00  0.00000000000E+00  0.99999998245E-14  0.12500000000E+03  0.12500000000E+03 0.  0.
          5    1    1    0  501    0 -0.44621452913E+02 -0.43490679312E+02  0.12832587092E+01  0.62500000000E+02  0.47000000000E+01 0. -1.
         -5    1    1    0    0  501  0.44621452913E+02  0.43490679312E+02 -0.12832587092E+01  0.62500000000E+02  0.47000000000E+01 0. -1.
</event>
<event>
 3    0  0.4607503E-005  0.9118800E+02  0.7546771E-02  0.1235069E+00
         25   -1    0    0    0    0  0.00000000000E+00  0.00000000000E+00  0.99999998245E-14  0.12500000000E+03  0.12500000000E+03 0.  0.
          5    1    1    0  501    0 -0.61587864769E+02  0.58408503710E+01  0.75484687318E+01  0.62500000000E+02  0.47000000000E+01 0.  1.
         -5    1    1    0    0  501  0.61587864769E+02 -0.58408503710E+01 -0.75484687318E+01  0.62500000000E+02  0.47000000000E+01 0.  1.
</event>
<event>
 3    0  0.4607503E-005  0.9118800E+02  0.7546771E-02  0.1235069E+00
         25   -1    0    0    0    0  0.00000000000E+00  0.00000000000E+00  0.99999998245E-14  0.12500000000E+03  0.12500000000E+03 0.  0.
          5    1    1    0  501    0 -0.17512274301E+02  0.51982681680E+02  0.29585149217E+02  0.62500000000E+02  0.47000000000E+01 0.  1.
         -5    1    1    0    0  501  0.17512274301E+02 -0.51982681680E+02 -0.29585149217E+02  0.62500000000E+02  0.47000000000E+01 0.  1.
</event>
<event>
 3    0  0.4607503E-005  0.9118800E+02  0.7546771E-02  0.1235069E+00
         25   -1    0    0    0    0  0.00000000000E+00  0.00000000000E+00  0.99999998245E-14  0.12500000000E+03  0.12500000000E+03 0.  0.
          5    1    1    0  501    0 -0.31009413427E+02 -0.41318916867E+02 -0.34861488607E+02  0.62500000000E+02  0.47000000000E+01 0.  1.
         -5    1    1    0    0  501  0.31009413427E+02  0.41318916867E+02  0.34861488607E+02  0.62500000000E+02  0.47000000000E+01 0.  1.
</event>
<event>
 3    0  0.4607503E-005  0.9118800E+02  0.7546771E-02  0.1235069E+00
         25   -1    0    0    0    0  0.00000000000E+00  0.00000000000E+00  0.99999998245E-14  0.12500000000E+03  0.12500000000E+03 0.  0.
          5    1    1    0  501    0 -0.37624796939E+02  0.41649810434E+02 -0.27089258869E+02  0.62500000000E+02  0.47000000000E+01 0. -1.
         -5    1    1    0    0  501  0.37624796939E+02 -0.41649810434E+02  0.27089258869E+02  0.62500000000E+02  0.47000000000E+01 0. -1.
</event>
<event>
 3    0  0.4607503E-005  0.9118800E+02  0.7546771E-02  0.1235069E+00
         25   -1    0    0    0    0  0.00000000000E+00  0.00000000000E+00  0.99999998245E-14  0.12500000000E+03  0.12500000000E+03 0.  0.
          5    1    1    0  501    0 -0.41358759934E+02 -0.45982897413E+02  0.76932517334E+01  0.62500000000E+02  0.47000000000E+01 0.  1.
         -5    1    1    0    0  501  0.41358759934E+02  0.45982897413E+02 -0.76932517334E+01  0.62500000000E+02  0.47000000000E+01 0.  1.
</event>
<event>
 3    0  0.4607503E-005  0.9118800E+02  0.7546771E-02  0.1235069E+00
         25   -1    0    0    0    0  0.00000000000E+00  0.00000000000E+00  0.99999998245E-14  0.12500000000E+03  0.12500000000E+03 0.  0.
          5    1    1    0  501    0 -0.28655281755E+02 -0.52474248777E+02 -0.17592272247E+02  0.62500000000E+02  0.47000000000E+01 0. -1.
         -5    1    1    0    0  501  0.28655281755E+02  0.52474248777E+02  0.17592272247E+02  0.62500000000E+02  0.47000000000E+01 0. -1.
</event>
<event>
 3    0  0.4607503E-005  0.9118800E+02  0.7546771E-02  0.1235069E+00
         25   -1    0    0    0    0  0.00000000000E+00  0.00000000000E+00  0.99999998245E-14  0.12500000000E+03  0.12500000000E+03 0.  0.
          5    1    1    0  501    0  0.15191666676E+02 -0.22197452123E+02 -0.56219626314E+02  0.62500000000E+02  0.47000000000E+01 0.  1.
         -5    1    1    0    0  501 -0.15191666676E+02  0.22197452123E+02  0.56219626314E+02  0.62500000000E+02  0.47000000000E+01 0.  1.
</event>
<event>
 3    0  0.4607503E-005  0.9118800E+02  0.7546771E-02  0.1235069E+00
         25   -1    0    0    0    0  0.00000000000E+00  0.00000000000E+00  0.99999998245E-14  0.12500000000E+03  0.12500000000E+03 0.  0.
          5    1    1    0  501    0  0.40528696905E+02  0.75776388213E+01 -0.46735041640E+02  0.62500000000E+02  0.47000000000E+01 0.  1.
         -5    1    1    0    0  501 -0.40528696905E+02 -0.75776388213E+01  0.46735041640E+02  0.62500000000E+02  0.47000000000E+01 0.  1.
</event>
<event>
 3    0  0.4607503E-005  0.9118800E+02  0.7546771E-02  0.1235069E+00
         25   -1    0    0    0    0  0.00000000000E+00  0.00000000000E+00  0.99999998245E-14  0.12500000000E+03  0.12500000000E+03 0.  0.
          5    1    1    0  501    0  0.39997384616E+01  0.25841563527E+02 -0.56571863030E+02  0.62500000000E+02  0.47000000000E+01 0.  1.
         -5    1    1    0    0  501 -0.39997384616E+01 -0.25841563527E+02  0.56571863030E+02  0.62500000000E+02  0.47000000000E+01 0.  1.
</event>
<event>
 3    0  0.4607503E-005  0.9118800E+02  0.7546771E-02  0.1235069E+00
         25   -1    0    0    0    0  0.00000000000E+00  0.00000000000E+00  0.99999998245E-14  0.12500000000E+03  0.12500000000E+03 0.  0.
          5    1    1    0  501    0  0.24361543926E+02  0.12798757938E+02  0.55918395657E+02  0.62500000000E+02  0.47000000000E+01 0. -1.
         -5    1    1    0    0  501 -0.24361543926E+02 -0.12798757938E+02 -0.55918395657E+02  0.62500000000E+02  0.47000000000E+01 0. -1.
</event>
<event>
 3    0  0.4607503E-005  0.9118800E+02  0.7546771E-02  0.1235069E+00
         25   -1    0    0    0    0  0.00000000000E+00  0.00000000000E+00  0.99999998245E-14  0.12500000000E+03  0.12500000000E+03 0.  0.
          5    1    1    0  501    0 -0.12843136543E+02  0.59242540309E+01  0.60696927912E+02  0.62500000000E+02  0.47000000000E+01 0. -1.
         -5    1    1    0    0  501  0.12843136543E+02 -0.59242540309E+01 -0.60696927912E+02  0.62500000000E+02  0.47000000000E+01 0. -1.
</event>
<event>
 3    0  0.4607503E-005  0.9118800E+02  0.7546771E-02  0.1235069E+00
         25   -1    0    0    0    0  0.00000000000E+00  0.00000000000E+00  0.99999998245E-14  0.12500000000E+03  0.12500000000E+03 0.  0.
          5    1    1    0  501    0 -0.20381199010E+02  0.26613174078E+02 -0.52540514771E+02  0.62500000000E+02  0.47000000000E+01 0. -1.
         -5    1    1    0    0  501  0.20381199010E+02 -0.26613174078E+02  0.52540514771E+02  0.62500000000E+02  0.47000000000E+01 0. -1.
</event>
<event>
 3    0  0.4607503E-005  0.9118800E+02  0.7546771E-02  0.1235069E+00
         25   -1    0    0    0    0  0.00000000000E+00  0.00000000000E+00  0.99999998245E-14  0.12500000000E+03  0.12500000000E+03 0.  0.
          5    1    1    0  501    0 -0.40472952265E+02  0.32443066325E+02 -0.34547757994E+02  0.62500000000E+02  0.47000000000E+01 0. -1.
         -5    1    1    0    0  501  0.40472952265E+02 -0.32443066325E+02  0.34547757994E+02  0.62500000000E+02  0.47000000000E+01 0. -1.
</event>
<event>
 3    0  0.4607503E-005  0.9118800E+02  0.7546771E-02  0.1235069E+00
         25   -1    0    0    0    0  0.00000000000E+00  0.00000000000E+00  0.99999998245E-14  0.12500000000E+03  0.12500000000E+03 0.  0.
          5    1    1    0  501    0 -0.29667787319E+02 -0.33663627320E+02 -0.43252081929E+02  0.62500000000E+02  0.47000000000E+01 0.  1.
         -5    1    1    0    0  501  0.29667787319E+02  0.33663627320E+02  0.43252081929E+02  0.62500000000E+02  0.47000000000E+01 0.  1.
</event>
<event>
 3    0  0.4607503E-005  0.9118800E+02  0.7546771E-02  0.1235069E+00
         25   -1    0    0    0    0  0.00000000000E+00  0.00000000000E+00  0.99999998245E-14  0.12500000000E+03  0.12500000000E+03 0.  0.
          5    1    1    0  501    0  0.10246417792E+02 -0.59398309068E+02 -0.15843351992E+02  0.62500000000E+02  0.47000000000E+01 0. -1.
         -5    1    1    0    0  501 -0.10246417792E+02  0.59398309068E+02  0.15843351992E+02  0.62500000000E+02  0.47000000000E+01 0. -1.
</event>
<event>
 3    0  0.4607503E-005  0.9118800E+02  0.7546771E-02  0.1235069E+00
         25   -1    0    0    0    0  0.00000000000E+00  0.00000000000E+00  0.99999998245E-14  0.12500000000E+03  0.12500000000E+03 0.  0.
          5    1    1    0  501    0  0.53194620077E+01 -0.58872118888E+02  0.19746821050E+02  0.62500000000E+02  0.47000000000E+01 0.  1.
         -5    1    1    0    0  501 -0.53194620077E+01  0.58872118888E+02 -0.19746821050E+02  0.62500000000E+02  0.47000000000E+01 0.  1.
</event>
<event>
 3    0  0.4607503E-005  0.9118800E+02  0.7546771E-02  0.1235069E+00
         25   -1    0    0    0    0  0.00000000000E+00  0.00000000000E+00  0.99999998245E-14  0.12500000000E+03  0.12500000000E+03 0.  0.
          5    1    1    0  501    0  0.42564719184E+02  0.32401155139E+02  0.31977645730E+02  0.62500000000E+02  0.47000000000E+01 0.  1.
         -5    1    1    0    0  501 -0.42564719184E+02 -0.32401155139E+02 -0.31977645730E+02  0.62500000000E+02  0.47000000000E+01 0.  1.
</event>
<event>
 3    0  0.4607503E-005  0.9118800E+02  0.7546771E-02  0.1235069E+00
         25   -1    0    0    0    0  0.00000000000E+00  0.00000000000E+00  0.99999998245E-14  0.12500000000E+03  0.12500000000E+03 0.  0.
          5    1    1    0  501    0 -0.21346809898E+02 -0.47481492967E+02 -0.34263413910E+02  0.62500000000E+02  0.47000000000E+01 0. -1.
         -5    1    1    0    0  501  0.21346809898E+02  0.47481492967E+02  0.34263413910E+02  0.62500000000E+02  0.47000000000E+01 0. -1.
</event>
<event>
 3    0  0.4607503E-005  0.9118800E+02  0.7546771E-02  0.1235069E+00
         25   -1    0    0    0    0  0.00000000000E+00  0.00000000000E+00  0.99999998245E-14  0.12500000000E+03  0.12500000000E+03 0.  0.
          5    1    1    0  501    0 -0.52178183654E+01 -0.18116526149E+01  0.62077792215E+02  0.62500000000E+02  0.47000000000E+01 0.  1.
         -5    1    1    0    0  501  0.52178183654E+01  0.18116526149E+01 -0.62077792215E+02  0.62500000000E+02  0.47000000000E+01 0.  1.
</event>
<event>
 3    0  0.4607503E-005  0.9118800E+02  0.7546771E-02  0.1235069E+00
         25   -1    0    0    0    0  0.00000000000E+00  0.00000000000E+00  0.99999998245E-14  0.12500000000E+03  0.12500000000E+03 0.  0.
          5    1    1    0  501    0  0.33363786201E+02 -0.52491412720E+02  0.39584543714E+01  0.62500000000E+02  0.47000000000E+01 0. -1.
         -5    1    1    0    0  501 -0.33363786201E+02  0.52491412720E+02 -0.39584543714E+01  0.62500000000E+02  0.47000000000E+01 0. -1.
</event>
<event>
 3    0  0.4607503E-005  0.9118800E+02  0.7546771E-02  0.1235069E+00
         25   -1    0    0    0    0  0.00000000000E+00  0.00000000000E+00  0.99999998245E-14  0.12500000000E+03  0.12500000000E+03 0.  0.
          5    1    1    0  501    0 -0.37396908158E+02 -0.19870346424E+02 -0.45725273025E+02  0.62500000000E+02  0.47000000000E+01 0. -1.
         -5    1    1    0    0  501  0.37396908158E+02  0.19870346424E+02  0.45725273025E+02  0.62500000000E+02  0.47000000000E+01 0. -1.
</event>
<event>
 3    0  0.4607503E-005  0.9118800E+02  0.7546771E-02  0.1235069E+00
         25   -1    0    0    0    0  0.00000000000E+00  0.00000000000E+00  0.99999998245E-14  0.12500000000E+03  0.12500000000E+03 0.  0.
          5    1    1    0  501    0  0.16846502095E+02 -0.57303543259E+02 -0.17794923354E+02  0.62500000000E+02  0.47000000000E+01 0. -1.
         -5    1    1    0    0  501 -0.16846502095E+02  0.57303543259E+02  0.17794923354E+02  0.62500000000E+02  0.47000000000E+01 0. -1.
</event>
<event>
 3    0  0.4607503E-005  0.9118800E+02  0.7546771E-02  0.1235069E+00
         25   -1    0    0    0    0  0.00000000000E+00  0.00000000000E+00  0.99999998245E-14  0.12500000000E+03  0.12500000000E+03 0.  0.
          5    1    1    0  501    0 -0.35745717435E+02 -0.19651298934E+02  0.47119318069E+02  0.62500000000E+02  0.47000000000E+01 0.  1.
         -5    1    1    0    0  501  0.35745717435E+02  0.19651298934E+02 -0.47119318069E+02  0.62500000000E+02  0.47000000000E+01 0.  1.
</event>
<event>
 3    0  0.4607503E-005  0.9118800E+02  0.7546771E-02  0.1235069E+00
         25   -1    0    0    0    0  0.00000000000E+00  0.00000000000E+00  0.99999998245E-14  0.12500000000E+03  0.12500000000E+03 0.  0.
          5    1    1    0  501    0  0.53516701136E+02 -0.25710881376E+02 -0.18949228965E+02  0.62500000000E+02  0.47000000000E+01 0. -1.
         -5    1    1    0    0  501 -0.53516701136E+02  0.25710881376E+02  0.18949228965E+02  0.62500000000E+02  0.47000000000E+01 0. -1.
</event>
<event>
 3    0  0.4607503E-005  0.9118800E+02  0.7546771E-02  0.1235069E+00
         25   -1    0    0    0    0  0.00000000000E+00  0.00000000000E+00  0.99999998245E-14  0.12500000000E+03  0.12500000000E+03 0.  0.
          5    1    1    0  501    0  0.14297773302E+01 -0.57678698424E+02 -0.23564453841E+02  0.62500000000E+02  0.47000000000E+01 0. -1.
         -5    1    1    0    0  501 -0.14297773302E+01  0.57678698424E+02  0.23564453841E+02  0.62500000000E+02  0.47000000000E+01 0. -1.
</event>
<event>
 3    0  0.4607503E-005  0.9118800E+02  0.7546771E-02  0.1235069E+00
         25   -1    0    0    0    0  0.00000000000E+00  0.00000000000E+00  0.99999998245E-14  0.12500000000E+03  0.12500000000E+03 0.  0.
          5    1    1    0  501    0  0.41603638387E+02 -0.23002791024E+02 -0.40300978625E+02  0.62500000000E+02  0.47000000000E+01 0.  1.
         -5    1    1    0    0  501 -0.41603638387E+02  0.23002791024E+02  0.40300978625E+02  0.62500000000E+02  0.47000000000E+01 0.  1.
</event>
<event>
 3    0  0.4607503E-005  0.9118800E+02  0.7546771E-02  0.1235069E+00
         25   -1    0    0    0    0  0.00000000000E+00  0.00000000000E+00  0.99999998245E-14  0.12500000000E+03  0.12500000000E+03 0.  0.
          5    1    1    0  501    0 -0.40789605853E+02  0.17124099865E+01 -0.47089656045E+02  0.62500000000E+02  0.47000000000E+01 0.  1.
         -5    1    1    0    0  501  0.40789605853E+02 -0.17124099865E+01  0.47089656045E+02  0.62500000000E+02  0.47000000000E+01 0.  1.
</event>
<event>
 3    0  0.4607503E-005  0.9118800E+02  0.7546771E-02  0.1235069E+00
         25   -1    0    0    0    0  0.00000000000E+00  0.00000000000E+00  0.99999998245E-14  0.12500000000E+03  0.12500000000E+03 0.  0.
          5    1    1    0  501    0 -0.45355096871E+02  0.25228332082E+01 -0.42669784397E+02  0.62500000000E+02  0.47000000000E+01 0. -1.
         -5    1    1    0    0  501  0.45355096871E+02 -0.25228332082E+01  0.42669784397E+02  0.62500000000E+02  0.47000000000E+01 0. -1.
</event>
<event>
 3    0  0.4607503E-005  0.9118800E+02  0.7546771E-02  0.1235069E+00
         25   -1    0    0    0    0  0.00000000000E+00  0.00000000000E+00  0.99999998245E-14  0.12500000000E+03  0.12500000000E+03 0.  0.
          5    1    1    0  501    0  0.35602684632E+02 -0.29055021241E+02 -0.42100054485E+02  0.62500000000E+02  0.47000000000E+01 0.  1.
         -5    1    1    0    0  501 -0.35602684632E+02  0.29055021241E+02  0.42100054485E+02  0.62500000000E+02  0.47000000000E+01 0.  1.
</event>
<event>
 3    0  0.4607503E-005  0.9118800E+02  0.7546771E-02  0.1235069E+00
         25   -1    0    0    0    0  0.00000000000E+00  0.00000000000E+00  0.99999998245E-14  0.12500000000E+03  0.12500000000E+03 0.  0.
          5    1    1    0  501    0  0.36397123044E+02  0.50035627183E+02  0.74729811022E+01  0.62500000000E+02  0.47000000000E+01 0.  1.
         -5    1    1    0    0  501 -0.36397123044E+02 -0.50035627183E+02 -0.74729811022E+01  0.62500000000E+02  0.47000000000E+01 0.  1.
</event>
<event>
 3    0  0.4607503E-005  0.9118800E+02  0.7546771E-02  0.1235069E+00
         25   -1    0    0    0    0  0.00000000000E+00  0.00000000000E+00  0.99999998245E-14  0.12500000000E+03  0.12500000000E+03 0.  0.
          5    1    1    0  501    0 -0.61898909972E+01 -0.59868450083E+02  0.16174484045E+02  0.62500000000E+02  0.47000000000E+01 0.  1.
         -5    1    1    0    0  501  0.61898909972E+01  0.59868450083E+02 -0.16174484045E+02  0.62500000000E+02  0.47000000000E+01 0.  1.
</event>
<event>
 3    0  0.4607503E-005  0.9118800E+02  0.7546771E-02  0.1235069E+00
         25   -1    0    0    0    0  0.00000000000E+00  0.00000000000E+00  0.99999998245E-14  0.12500000000E+03  0.12500000000E+03 0.  0.
          5    1    1    0  501    0 -0.30274213474E+02  0.54472128448E+02  0.64747270394E+00  0.62500000000E+02  0.47000000000E+01 0. -1.
         -5    1    1    0    0  501  0.30274213474E+02 -0.54472128448E+02 -0.64747270394E+00  0.62500000000E+02  0.47000000000E+01 0. -1.
</event>
<event>
 3    0  0.4607503E-005  0.9118800E+02  0.7546771E-02  0.1235069E+00
         25   -1    0    0    0    0  0.00000000000E+00  0.00000000000E+00  0.99999998245E-14  0.12500000000E+03  0.12500000000E+03 0.  0.
          5    1    1    0  501    0  0.86869244573E+01 -0.31350139462E+02  0.53158876015E+02  0.62500000000E+02  0.47000000000E+01 0.  1.
         -5    1    1    0    0  501 -0.86869244573E+01  0.31350139462E+02 -0.53158876015E+02  0.62500000000E+02  0.47000000000E+01 0.  1.
</event>
<event>
 3    0  0.4607503E-005  0.9118800E+02  0.7546771E-02  0.1235069E+00
         25   -1    0    0    0    0  0.00000000000E+00  0.00000000000E+00  0.99999998245E-14  0.12500000000E+03  0.12500000000E+03 0.  0.
          5    1    1    0  501    0 -0.50100230769E+02 -0.30254726069E+01 -0.36945546313E+02  0.62500000000E+02  0.47000000000E+01 0. -1.
         -5    1    1    0    0  501  0.50100230769E+02  0.30254726069E+01  0.36945546313E+02  0.62500000000E+02  0.47000000000E+01 0. -1.
</event>
<event>
 3    0  0.4607503E-005  0.9118800E+02  0.7546771E-02  0.1235069E+00
         25   -1    0    0    0    0  0.00000000000E+00  0.00000000000E+00  0.99999998245E-14  0.12500000000E+03  0.12500000000E+03 0.  0.
          5    1    1    0  501    0 -0.50768514584E+02  0.26364275828E+02  0.24731414981E+02  0.62500000000E+02  0.47000000000E+01 0.  1.
         -5    1    1    0    0  501  0.50768514584E+02 -0.26364275828E+02 -0.24731414981E+02  0.62500000000E+02  0.47000000000E+01 0.  1.
</event>
<event>
 3    0  0.4607503E-005  0.9118800E+02  0.7546771E-02  0.1235069E+00
         25   -1    0    0    0    0  0.00000000000E+00  0.00000000000E+00  0.99999998245E-14  0.12500000000E+03  0.12500000000E+03 0.  0.
          5    1    1    0  501    0  0.29814418277E+02 -0.49163439924E+02  0.24046135608E+02  0.62500000000E+02  0.47000000000E+01 0.  1.
         -5    1    1    0    0  501 -0.29814418277E+02  0.49163439924E+02 -0.24046135608E+02  0.62500000000E+02  0.47000000000E+01 0.  1.
</event>
<event>
 3    0  0.4607503E-005  0.9118800E+02  0.7546771E-02  0.1235069E+00
         25   -1    0    0    0    0  0.00000000000E+00  0.00000000000E+00  0.99999998245E-14  0.12500000000E+03  0.12500000000E+03 0.  0.
          5    1    1    0  501    0 -0.33730838062E+02 -0.44690039855E+02  0.27371351837E+02  0.62500000000E+02  0.47000000000E+01 0.  1.
         -5    1    1    0    0  501  0.33730838062E+02  0.44690039855E+02 -0.27371351837E+02  0.62500000000E+02  0.47000000000E+01 0.  1.
</event>
<event>
 3    0  0.4607503E-005  0.9118800E+02  0.7546771E-02  0.1235069E+00
         25   -1    0    0    0    0  0.00000000000E+00  0.00000000000E+00  0.99999998245E-14  0.12500000000E+03  0.12500000000E+03 0.  0.
          5    1    1    0  501    0 -0.46974696087E+01  0.19417698138E+01 -0.62115403156E+02  0.62500000000E+02  0.47000000000E+01 0. -1.
         -5    1    1    0    0  501  0.46974696087E+01 -0.19417698138E+01  0.62115403156E+02  0.62500000000E+02  0.47000000000E+01 0. -1.
</event>
<event>
 3    0  0.4607503E-005  0.9118800E+02  0.7546771E-02  0.1235069E+00
         25   -1    0    0    0    0  0.00000000000E+00  0.00000000000E+00  0.99999998245E-14  0.12500000000E+03  0.12500000000E+03 0.  0.
          5    1    1    0  501    0  0.24175256212E+02  0.17296966266E+02 -0.54777111508E+02  0.62500000000E+02  0.47000000000E+01 0. -1.
         -5    1    1    0    0  501 -0.24175256212E+02 -0.17296966266E+02  0.54777111508E+02  0.62500000000E+02  0.47000000000E+01 0. -1.
</event>
<event>
 3    0  0.4607503E-005  0.9118800E+02  0.7546771E-02  0.1235069E+00
         25   -1    0    0    0    0  0.00000000000E+00  0.00000000000E+00  0.99999998245E-14  0.12500000000E+03  0.12500000000E+03 0.  0.
          5    1    1    0  501    0 -0.20209438808E+02 -0.30790465574E+02  0.50276095839E+02  0.62500000000E+02  0.47000000000E+01 0. -1.
         -5    1    1    0    0  501  0.20209438808E+02  0.30790465574E+02 -0.50276095839E+02  0.62500000000E+02  0.47000000000E+01 0. -1.
</event>
<event>
 3    0  0.4607503E-005  0.9118800E+02  0.7546771E-02  0.1235069E+00
         25   -1    0    0    0    0  0.00000000000E+00  0.00000000000E+00  0.99999998245E-14  0.12500000000E+03  0.12500000000E+03 0.  0.
          5    1    1    0  501    0 -0.25861509486E+02  0.54098160651E+02  0.16992096437E+02  0.62500000000E+02  0.47000000000E+01 0. -1.
         -5    1    1    0    0  501  0.25861509486E+02 -0.54098160651E+02 -0.16992096437E+02  0.62500000000E+02  0.47000000000E+01 0. -1.
</event>
<event>
 3    0  0.4607503E-005  0.9118800E+02  0.7546771E-02  0.1235069E+00
         25   -1    0    0    0    0  0.00000000000E+00  0.00000000000E+00  0.99999998245E-14  0.12500000000E+03  0.12500000000E+03 0.  0.
          5    1    1    0  501    0 -0.60277593030E+02 -0.13990056800E+02  0.74195747365E+01  0.62500000000E+02  0.47000000000E+01 0. -1.
         -5    1    1    0    0  501  0.60277593030E+02  0.13990056800E+02 -0.74195747365E+01  0.62500000000E+02  0.47000000000E+01 0. -1.
</event>
<event>
 3    0  0.4607503E-005  0.9118800E+02  0.7546771E-02  0.1235069E+00
         25   -1    0    0    0    0  0.00000000000E+00  0.00000000000E+00  0.99999998245E-14  0.12500000000E+03  0.12500000000E+03 0.  0.
          5    1    1    0  501    0 -0.47052347247E+00 -0.58109890943E+02 -0.22520639029E+02  0.62500000000E+02  0.47000000000E+01 0. -1.
         -5    1    1    0    0  501  0.47052347247E+00  0.58109890943E+02  0.22520639029E+02  0.62500000000E+02  0.47000000000E+01 0. -1.
</event>
<event>
 3    0  0.4607503E-005  0.9118800E+02  0.7546771E-02  0.1235069E+00
         25   -1    0    0    0    0  0.00000000000E+00  0.00000000000E+00  0.99999998245E-14  0.12500000000E+03  0.12500000000E+03 0.  0.
          5    1    1    0  501    0  0.57659149597E+02  0.19450073745E+02 -0.13463918416E+02  0.62500000000E+02  0.47000000000E+01 0.  1.
         -5    1    1    0    0  501 -0.57659149597E+02 -0.19450073745E+02  0.13463918416E+02  0.62500000000E+02  0.47000000000E+01 0.  1.
</event>
<event>
 3    0  0.4607503E-005  0.9118800E+02  0.7546771E-02  0.1235069E+00
         25   -1    0    0    0    0  0.00000000000E+00  0.00000000000E+00  0.99999998245E-14  0.12500000000E+03  0.12500000000E+03 0.  0.
          5    1    1    0  501    0  0.78588678293E+01  0.55252450674E+02 -0.27741032622E+02  0.62500000000E+02  0.47000000000E+01 0.  1.
         -5    1    1    0    0  501 -0.78588678293E+01 -0.55252450674E+02  0.27741032622E+02  0.62500000000E+02  0.47000000000E+01 0.  1.
</event>
<event>
 3    0  0.4607503E-005  0.9118800E+02  0.7546771E-02  0.1235069E+00
         25   -1    0    0    0    0  0.00000000000E+00  0.00000000000E+00  0.99999998245E-14  0.12500000000E+03  0.12500000000E+03 0.  0.
          5    1    1    0  501    0  0.52050086545E+02  0.23647656530E+02  0.24814045040E+02  0.62500000000E+02  0.47000000000E+01 0. -1.
         -5    1    1    0    0  501 -0.52050086545E+02 -0.23647656530E+02 -0.24814045040E+02  0.62500000000E+02  0.47000000000E+01 0. -1.
</event>
<event>
 3    0  0.4607503E-005  0.9118800E+02  0.7546771E-02  0.1235069E+00
         25   -1    0    0    0    0  0.00000000000E+00  0.00000000000E+00  0.99999998245E-14  0.12500000000E+03  0.12500000000E+03 0.  0.
          5    1    1    0  501    0  0.48231012158E+01  0.58523544260E+02  0.20878037790E+02  0.62500000000E+02  0.47000000000E+01 0.  1.
         -5    1    1    0    0  501 -0.48231012158E+01 -0.58523544260E+02 -0.20878037790E+02  0.62500000000E+02  0.47000000000E+01 0.  1.
</event>
<event>
 3    0  0.4607503E-005  0.9118800E+02  0.7546771E-02  0.1235069E+00
         25   -1    0    0    0    0  0.00000000000E+00  0.00000000000E+00  0.99999998245E-14  0.12500000000E+03  0.12500000000E+03 0.  0.
          5    1    1    0  501    0 -0.26809959170E+02  0.31072593602E+02 -0.46902878549E+02  0.62500000000E+02  0.47000000000E+01 0.  1.
         -5    1    1    0    0  501  0.26809959170E+02 -0.31072593602E+02  0.46902878549E+02  0.62500000000E+02  0.47000000000E+01 0.  1.
</event>
<event>
 3    0  0.4607503E-005  0.9118800E+02  0.7546771E-02  0.1235069E+00
         25   -1    0    0    0    0  0.00000000000E+00  0.00000000000E+00  0.99999998245E-14  0.12500000000E+03  0.12500000000E+03 0.  0.
          5    1    1    0  501    0  0.20684099528E+02  0.34745015688E+02 -0.47424802705E+02  0.62500000000E+02  0.47000000000E+01 0. -1.
         -5    1    1    0    0  501 -0.20684099528E+02 -0.34745015688E+02  0.47424802705E+02  0.62500000000E+02  0.47000000000E+01 0. -1.
</event>
<event>
 3    0  0.4607503E-005  0.9118800E+02  0.7546771E-02  0.1235069E+00
         25   -1    0    0    0    0  0.00000000000E+00  0.00000000000E+00  0.99999998245E-14  0.12500000000E+03  0.12500000000E+03 0.  0.
          5    1    1    0  501    0  0.53388146724E+02 -0.17484785528E+02 -0.26984218804E+02  0.62500000000E+02  0.47000000000E+01 0. -1.
         -5    1    1    0    0  501 -0.53388146724E+02  0.17484785528E+02  0.26984218804E+02  0.62500000000E+02  0.47000000000E+01 0. -1.
</event>
<event>
 3    0  0.4607503E-005  0.9118800E+02  0.7546771E-02  0.1235069E+00
         25   -1    0    0    0    0  0.00000000000E+00  0.00000000000E+00  0.99999998245E-14  0.12500000000E+03  0.12500000000E+03 0.  0.
          5    1    1    0  501    0  0.50115777676E+02  0.36638284472E+02  0.54959020072E+01  0.62500000000E+02  0.47000000000E+01 0.  1.
         -5    1    1    0    0  501 -0.50115777676E+02 -0.36638284472E+02 -0.54959020072E+01  0.62500000000E+02  0.47000000000E+01 0.  1.
</event>
<event>
 3    0  0.4607503E-005  0.9118800E+02  0.7546771E-02  0.1235069E+00
         25   -1    0    0    0    0  0.00000000000E+00  0.00000000000E+00  0.99999998245E-14  0.12500000000E+03  0.12500000000E+03 0.  0.
          5    1    1    0  501    0  0.33245126488E+02  0.17466266655E+02 -0.49737823575E+02  0.62500000000E+02  0.47000000000E+01 0. -1.
         -5    1    1    0    0  501 -0.33245126488E+02 -0.17466266655E+02  0.49737823575E+02  0.62500000000E+02  0.47000000000E+01 0. -1.
</event>
<event>
 3    0  0.4607503E-005  0.9118800E+02  0.7546771E-02  0.1235069E+00
         25   -1    0    0    0    0  0.00000000000E+00  0.00000000000E+00  0.99999998245E-14  0.12500000000E+03  0.12500000000E+03 0.  0.
          5    1    1    0  501    0 -0.40106032081E+02  0.39801648685E+02  0.26296291614E+02  0.62500000000E+02  0.47000000000E+01 0.  1.
         -5    1    1    0    0  501  0.40106032081E+02 -0.39801648685E+02 -0.26296291614E+02  0.62500000000E+02  0.47000000000E+01 0.  1.
</event>
<event>
 3    0  0.4607503E-005  0.9118800E+02  0.7546771E-02  0.1235069E+00
         25   -1    0    0    0    0  0.00000000000E+00  0.00000000000E+00  0.99999998245E-14  0.12500000000E+03  0.12500000000E+03 0.  0.
          5    1    1    0  501    0 -0.61165589536E+02 -0.10493638917E+02 -0.57283679166E+01  0.62500000000E+02  0.47000000000E+01 0.  1.
         -5    1    1    0    0  501  0.61165589536E+02  0.10493638917E+02  0.57283679166E+01  0.62500000000E+02  0.47000000000E+01 0.  1.
</event>
<event>
 3    0  0.4607503E-005  0.9118800E+02  0.7546771E-02  0.1235069E+00
         25   -1    0    0    0    0  0.00000000000E+00  0.00000000000E+00  0.99999998245E-14  0.12500000000E+03  0.12500000000E+03 0.  0.
          5    1    1    0  501    0  0.36711433247E+02 -0.23895217759E+01 -0.50306270530E+02  0.62500000000E+02  0.47000000000E+01 0.  1.
         -5    1    1    0    0  501 -0.36711433247E+02  0.23895217759E+01  0.50306270530E+02  0.62500000000E+02  0.47000000000E+01 0.  1.
</event>
<event>
 3    0  0.4607503E-005  0.9118800E+02  0.7546771E-02  0.1235069E+00
         25   -1    0    0    0    0  0.00000000000E+00  0.00000000000E+00  0.99999998245E-14  0.12500000000E+03  0.12500000000E+03 0.  0.
          5    1    1    0  501    0  0.98740093058E+01  0.29636874363E+02 -0.53928838465E+02  0.62500000000E+02  0.47000000000E+01 0. -1.
         -5    1    1    0    0  501 -0.98740093058E+01 -0.29636874363E+02  0.53928838465E+02  0.62500000000E+02  0.47000000000E+01 0. -1.
</event>
<event>
 3    0  0.4607503E-005  0.9118800E+02  0.7546771E-02  0.1235069E+00
         25   -1    0    0    0    0  0.00000000000E+00  0.00000000000E+00  0.99999998245E-14  0.12500000000E+03  0.12500000000E+03 0.  0.
          5    1    1    0  501    0 -0.31210353367E+02  0.41883186027E+02 -0.33998125991E+02  0.62500000000E+02  0.47000000000E+01 0.  1.
         -5    1    1    0    0  501  0.31210353367E+02 -0.41883186027E+02  0.33998125991E+02  0.62500000000E+02  0.47000000000E+01 0.  1.
</event>
<event>
 3    0  0.4607503E-005  0.9118800E+02  0.7546771E-02  0.1235069E+00
         25   -1    0    0    0    0  0.00000000000E+00  0.00000000000E+00  0.99999998245E-14  0.12500000000E+03  0.12500000000E+03 0.  0.
          5    1    1    0  501    0  0.29268013292E+02 -0.51542328650E+02  0.19259588657E+02  0.62500000000E+02  0.47000000000E+01 0. -1.
         -5    1    1    0    0  501 -0.29268013292E+02  0.51542328650E+02 -0.19259588657E+02  0.62500000000E+02  0.47000000000E+01 0. -1.
</event>
<event>
 3    0  0.4607503E-005  0.9118800E+02  0.7546771E-02  0.1235069E+00
         25   -1    0    0    0    0  0.00000000000E+00  0.00000000000E+00  0.99999998245E-14  0.12500000000E+03  0.12500000000E+03 0.  0.
          5    1    1    0  501    0 -0.16064924482E+02 -0.37945305211E+02 -0.46757160028E+02  0.62500000000E+02  0.47000000000E+01 0. -1.
         -5    1    1    0    0  501  0.16064924482E+02  0.37945305211E+02  0.46757160028E+02  0.62500000000E+02  0.47000000000E+01 0. -1.
</event>
<event>
 3    0  0.4607503E-005  0.9118800E+02  0.7546771E-02  0.1235069E+00
         25   -1    0    0    0    0  0.00000000000E+00  0.00000000000E+00  0.99999998245E-14  0.12500000000E+03  0.12500000000E+03 0.  0.
          5    1    1    0  501    0 -0.59276188761E+02 -0.16319462035E+02  0.10206302213E+02  0.62500000000E+02  0.47000000000E+01 0. -1.
         -5    1    1    0    0  501  0.59276188761E+02  0.16319462035E+02 -0.10206302213E+02  0.62500000000E+02  0.47000000000E+01 0. -1.
</event>
<event>
 3    0  0.4607503E-005  0.9118800E+02  0.7546771E-02  0.1235069E+00
         25   -1    0    0    0    0  0.00000000000E+00  0.00000000000E+00  0.99999998245E-14  0.12500000000E+03  0.12500000000E+03 0.  0.
          5    1    1    0  501    0  0.46086646786E+01 -0.48228559733E+02  0.39203650799E+02  0.62500000000E+02  0.47000000000E+01 0. -1.
         -5    1    1    0    0  501 -0.46086646786E+01  0.48228559733E+02 -0.39203650799E+02  0.62500000000E+02  0.47000000000E+01 0. -1.
</event>
<event>
 3    0  0.4607503E-005  0.9118800E+02  0.7546771E-02  0.1235069E+00
         25   -1    0    0    0    0  0.00000000000E+00  0.00000000000E+00  0.99999998245E-14  0.12500000000E+03  0.12500000000E+03 0.  0.
          5    1    1    0  501    0 -0.38600128322E+02  0.33075433106E+02 -0.36058366828E+02  0.62500000000E+02  0.47000000000E+01 0.  1.
         -5    1    1    0    0  501  0.38600128322E+02 -0.33075433106E+02  0.36058366828E+02  0.62500000000E+02  0.47000000000E+01 0.  1.
</event>
<event>
 3    0  0.4607503E-005  0.9118800E+02  0.7546771E-02  0.1235069E+00
         25   -1    0    0    0    0  0.00000000000E+00  0.00000000000E+00  0.99999998245E-14  0.12500000000E+03  0.12500000000E+03 0.  0.
          5    1    1    0  501    0 -0.60658813036E+02  0.17755523273E+01 -0.14195626617E+02  0.62500000000E+02  0.47000000000E+01 0.  1.
         -5    1    1    0    0  501  0.60658813036E+02 -0.17755523273E+01  0.14195626617E+02  0.62500000000E+02  0.47000000000E+01 0.  1.
</event>
<event>
 3    0  0.4607503E-005  0.9118800E+02  0.7546771E-02  0.1235069E+00
         25   -1    0    0    0    0  0.00000000000E+00  0.00000000000E+00  0.99999998245E-14  0.12500000000E+03  0.12500000000E+03 0.  0.
          5    1    1    0  501    0  0.46341983946E+02 -0.31491810383E+02 -0.27291874299E+02  0.62500000000E+02  0.47000000000E+01 0. -1.
         -5    1    1    0    0  501 -0.46341983946E+02  0.31491810383E+02  0.27291874299E+02  0.62500000000E+02  0.47000000000E+01 0. -1.
</event>
<event>
 3    0  0.4607503E-005  0.9118800E+02  0.7546771E-02  0.1235069E+00
         25   -1    0    0    0    0  0.00000000000E+00  0.00000000000E+00  0.99999998245E-14  0.12500000000E+03  0.12500000000E+03 0.  0.
          5    1    1    0  501    0 -0.12958193268E+02  0.60927699860E+02 -0.20150972742E+01  0.62500000000E+02  0.47000000000E+01 0. -1.
         -5    1    1    0    0  501  0.12958193268E+02 -0.60927699860E+02  0.20150972742E+01  0.62500000000E+02  0.47000000000E+01 0. -1.
</event>
<event>
 3    0  0.4607503E-005  0.9118800E+02  0.7546771E-02  0.1235069E+00
         25   -1    0    0    0    0  0.00000000000E+00  0.00000000000E+00  0.99999998245E-14  0.12500000000E+03  0.12500000000E+03 0.  0.
          5    1    1    0  501    0 -0.27061257368E+02 -0.18098610176E+02  0.53144036913E+02  0.62500000000E+02  0.47000000000E+01 0. -1.
         -5    1    1    0    0  501  0.27061257368E+02  0.18098610176E+02 -0.53144036913E+02  0.62500000000E+02  0.47000000000E+01 0. -1.
</event>
<event>
 3    0  0.4607503E-005  0.9118800E+02  0.7546771E-02  0.1235069E+00
         25   -1    0    0    0    0  0.00000000000E+00  0.00000000000E+00  0.99999998245E-14  0.12500000000E+03  0.12500000000E+03 0.  0.
          5    1    1    0  501    0  0.45466973732E+02 -0.12392019896E+02 -0.40784214380E+02  0.62500000000E+02  0.47000000000E+01 0. -1.
         -5    1    1    0    0  501 -0.45466973732E+02  0.12392019896E+02  0.40784214380E+02  0.62500000000E+02  0.47000000000E+01 0. -1.
</event>
<event>
 3    0  0.4607503E-005  0.9118800E+02  0.7546771E-02  0.1235069E+00
         25   -1    0    0    0    0  0.00000000000E+00  0.00000000000E+00  0.99999998245E-14  0.12500000000E+03  0.12500000000E+03 0.  0.
          5    1    1    0  501    0 -0.40942513149E+02  0.46263199550E+02 -0.82211303636E+01  0.62500000000E+02  0.47000000000E+01 0.  1.
         -5    1    1    0    0  501  0.40942513149E+02 -0.46263199550E+02  0.82211303636E+01  0.62500000000E+02  0.47000000000E+01 0.  1.
</event>
<event>
 3    0  0.4607503E-005  0.9118800E+02  0.7546771E-02  0.1235069E+00
         25   -1    0    0    0    0  0.00000000000E+00  0.00000000000E+00  0.99999998245E-14  0.12500000000E+03  0.12500000000E+03 0.  0.
          5    1    1    0  501    0 -0.49024661096E+02 -0.31886483759E+02 -0.21540537548E+02  0.62500000000E+02  0.47000000000E+01 0.  1.
         -5    1    1    0    0  501  0.49024661096E+02  0.31886483759E+02  0.21540537548E+02  0.62500000000E+02  0.47000000000E+01 0.  1.
</event>
<event>
 3    0  0.4607503E-005  0.9118800E+02  0.7546771E-02  0.1235069E+00
         25   -1    0    0    0    0  0.00000000000E+00  0.00000000000E+00  0.99999998245E-14  0.12500000000E+03  0.12500000000E+03 0.  0.
          5    1    1    0  501    0  0.23541431262E+02 -0.17031696912E+02 -0.55135127772E+02  0.62500000000E+02  0.47000000000E+01 0. -1.
         -5    1    1    0    0  501 -0.23541431262E+02  0.17031696912E+02  0.55135127772E+02  0.62500000000E+02  0.47000000000E+01 0. -1.
</event>
<event>
 3    0  0.4607503E-005  0.9118800E+02  0.7546771E-02  0.1235069E+00
         25   -1    0    0    0    0  0.00000000000E+00  0.00000000000E+00  0.99999998245E-14  0.12500000000E+03  0.12500000000E+03 0.  0.
          5    1    1    0  501    0  0.32857842047E+02  0.37700151488E+02 -0.37191676405E+02  0.62500000000E+02  0.47000000000E+01 0.  1.
         -5    1    1    0    0  501 -0.32857842047E+02 -0.37700151488E+02  0.37191676405E+02  0.62500000000E+02  0.47000000000E+01 0.  1.
</event>
<event>
 3    0  0.4607503E-005  0.9118800E+02  0.7546771E-02  0.1235069E+00
         25   -1    0    0    0    0  0.00000000000E+00  0.00000000000E+00  0.99999998245E-14  0.12500000000E+03  0.12500000000E+03 0.  0.
          5    1    1    0  501    0  0.42567922084E+01 -0.31129793149E+02 -0.53823560813E+02  0.62500000000E+02  0.47000000000E+01 0. -1.
         -5    1    1    0    0  501 -0.42567922084E+01  0.31129793149E+02  0.53823560813E+02  0.62500000000E+02  0.47000000000E+01 0. -1.
</event>
<event>
 3    0  0.4607503E-005  0.9118800E+02  0.7546771E-02  0.1235069E+00
         25   -1    0    0    0    0  0.00000000000E+00  0.00000000000E+00  0.99999998245E-14  0.12500000000E+03  0.12500000000E+03 0.  0.
          5    1    1    0  501    0 -0.12214567007E+02  0.60719574190E+02  0.69352478747E+01  0.62500000000E+02  0.47000000000E+01 0.  1.
         -5    1    1    0    0  501  0.12214567007E+02 -0.60719574190E+02 -0.69352478747E+01  0.62500000000E+02  0.47000000000E+01 0.  1.
</event>
<event>
 3    0  0.4607503E-005  0.9118800E+02  0.7546771E-02  0.1235069E+00
         25   -1    0    0    0    0  0.00000000000E+00  0.00000000000E+00  0.99999998245E-14  0.12500000000E+03  0.12500000000E+03 0.  0.
          5    1    1    0  501    0 -0.33782045837E+02 -0.31294279574E+02 -0.41995255029E+02  0.62500000000E+02  0.47000000000E+01 0.  1.
         -5    1    1    0    0  501  0.33782045837E+02  0.31294279574E+02  0.41995255029E+02  0.62500000000E+02  0.47000000000E+01 0.  1.
</event>
<event>
 3    0  0.4607503E-005  0.9118800E+02  0.7546771E-02  0.1235069E+00
         25   -1    0    0    0    0  0.00000000000E+00  0.00000000000E+00  0.99999998245E-14  0.12500000000E+03  0.12500000000E+03 0.  0.
          5    1    1    0  501    0  0.38621038336E+02 -0.21004735800E+01 -0.48868838830E+02  0.62500000000E+02  0.47000000000E+01 0. -1.
         -5    1    1    0    0  501 -0.38621038336E+02  0.21004735800E+01  0.48868838830E+02  0.62500000000E+02  0.47000000000E+01 0. -1.
</event>
<event>
 3    0  0.4607503E-005  0.9118800E+02  0.7546771E-02  0.1235069E+00
         25   -1    0    0    0    0  0.00000000000E+00  0.00000000000E+00  0.99999998245E-14  0.12500000000E+03  0.12500000000E+03 0.  0.
          5    1    1    0  501    0  0.76398311093E+01  0.47916446305E+02 -0.39112749253E+02  0.62500000000E+02  0.47000000000E+01 0. -1.
         -5    1    1    0    0  501 -0.76398311093E+01 -0.47916446305E+02  0.39112749253E+02  0.62500000000E+02  0.47000000000E+01 0. -1.
</event>
<event>
 3    0  0.4607503E-005  0.9118800E+02  0.7546771E-02  0.1235069E+00
         25   -1    0    0    0    0  0.00000000000E+00  0.00000000000E+00  0.99999998245E-14  0.12500000000E+03  0.12500000000E+03 0.  0.
          5    1    1    0  501    0  0.39364991341E+02  0.35315435612E+02  0.32975406961E+02  0.62500000000E+02  0.47000000000E+01 0.  1.
         -5    1    1    0    0  501 -0.39364991341E+02 -0.35315435612E+02 -0.32975406961E+02  0.62500000000E+02  0.47000000000E+01 0.  1.
</event>
<event>
 3    0  0.4607503E-005  0.9118800E+02  0.7546771E-02  0.1235069E+00
         25   -1    0    0    0    0  0.00000000000E+00  0.00000000000E+00  0.99999998245E-14  0.12500000000E+03  0.12500000000E+03 0.  0.
          5    1    1    0  501    0  0.61168856808E+02 -0.68878106257E+01 -0.97513599881E+01  0.62500000000E+02  0.47000000000E+01 0. -1.
         -5    1    1    0    0  501 -0.61168856808E+02  0.68878106257E+01  0.97513599881E+01  0.62500000000E+02  0.47000000000E+01 0. -1.
</event>
<event>
 3    0  0.4607503E-005  0.9118800E+02  0.7546771E-02  0.1235069E+00
         25   -1    0    0    0    0  0.00000000000E+00  0.00000000000E+00  0.99999998245E-14  0.12500000000E+03  0.12500000000E+03 0.  0.
          5    1    1    0  501    0  0.38323505414E+02  0.41994629392E+01 -0.48967677542E+02  0.62500000000E+02  0.47000000000E+01 0.  1.
         -5    1    1    0    0  501 -0.38323505414E+02 -0.41994629392E+01  0.48967677542E+02  0.62500000000E+02  0.47000000000E+01 0.  1.
</event>
<event>
 3    0  0.4607503E-005  0.9118800E+02  0.7546771E-02  0.1235069E+00
         25   -1    0    0    0    0  0.00000000000E+00  0.00000000000E+00  0.99999998245E-14  0.12500000000E+03  0.12500000000E+03 0.  0.
          5    1    1    0  501    0 -0.11615924789E+02  0.43119384573E+02 -0.43473543280E+02  0.62500000000E+02  0.47000000000E+01 0.  1.
         -5    1    1    0    0  501  0.11615924789E+02 -0.43119384573E+02  0.43473543280E+02  0.62500000000E+02  0.47000000000E+01 0.  1.
</event>
<event>
 3    0  0.4607503E-005  0.9118800E+02  0.7546771E-02  0.1235069E+00
         25   -1    0    0    0    0  0.00000000000E+00  0.00000000000E+00  0.99999998245E-14  0.12500000000E+03  0.12500000000E+03 0.  0.
          5    1    1    0  501    0 -0.58096255683E+02 -0.11505513135E+02  0.19406396962E+02  0.62500000000E+02  0.47000000000E+01 0.  1.
         -5    1    1    0    0  501  0.58096255683E+02  0.11505513135E+02 -0.19406396962E+02  0.62500000000E+02  0.47000000000E+01 0.  1.
</event>
<event>
 3    0  0.4607503E-005  0.9118800E+02  0.7546771E-02  0.1235069E+00
         25   -1    0    0    0    0  0.00000000000E+00  0.00000000000E+00  0.99999998245E-14  0.12500000000E+03  0.12500000000E+03 0.  0.
          5    1    1    0  501    0 -0.26136663284E+02  0.46609804375E+02  0.32071185954E+02  0.62500000000E+02  0.47000000000E+01 0.  1.
         -5    1    1    0    0  501  0.26136663284E+02 -0.46609804375E+02 -0.32071185954E+02  0.62500000000E+02  0.47000000000E+01 0.  1.
</event>
<event>
 3    0  0.4607503E-005  0.9118800E+02  0.7546771E-02  0.1235069E+00
         25   -1    0    0    0    0  0.00000000000E+00  0.00000000000E+00  0.99999998245E-14  0.12500000000E+03  0.12500000000E+03 0.  0.
          5    1    1    0  501    0  0.47485959076E+02  0.68460255662E+01  0.39779085265E+02  0.62500000000E+02  0.47000000000E+01 0. -1.
         -5    1    1    0    0  501 -0.47485959076E+02 -0.68460255662E+01 -0.39779085265E+02  0.62500000000E+02  0.47000000000E+01 0. -1.
</event>
<event>
 3    0  0.4607503E-005  0.9118800E+02  0.7546771E-02  0.1235069E+00
         25   -1    0    0    0    0  0.00000000000E+00  0.00000000000E+00  0.99999998245E-14  0.12500000000E+03  0.12500000000E+03 0.  0.
          5    1    1    0  501    0  0.36869414072E+02 -0.32096291934E+02 -0.38660501161E+02  0.62500000000E+02  0.47000000000E+01 0.  1.
         -5    1    1    0    0  501 -0.36869414072E+02  0.32096291934E+02  0.38660501161E+02  0.62500000000E+02  0.47000000000E+01 0.  1.
</event>
<event>
 3    0  0.4607503E-005  0.9118800E+02  0.7546771E-02  0.1235069E+00
         25   -1    0    0    0    0  0.00000000000E+00  0.00000000000E+00  0.99999998245E-14  0.12500000000E+03  0.12500000000E+03 0.  0.
          5    1    1    0  501    0  0.24009404882E+01  0.22488314324E+02 -0.58074703647E+02  0.62500000000E+02  0.47000000000E+01 0.  1.
         -5    1    1    0    0  501 -0.24009404882E+01 -0.22488314324E+02  0.58074703647E+02  0.62500000000E+02  0.47000000000E+01 0.  1.
</event>
<event>
 3    0  0.4607503E-005  0.9118800E+02  0.7546771E-02  0.1235069E+00
         25   -1    0    0    0    0  0.00000000000E+00  0.00000000000E+00  0.99999998245E-14  0.12500000000E+03  0.12500000000E+03 0.  0.
          5    1    1    0  501    0 -0.11133280134E+02  0.29571165962E+02  0.53719235075E+02  0.62500000000E+02  0.47000000000E+01 0. -1.
         -5    1    1    0    0  501  0.11133280134E+02 -0.29571165962E+02 -0.53719235075E+02  0.62500000000E+02  0.47000000000E+01 0. -1.
</event>
<event>
 3    0  0.4607503E-005  0.9118800E+02  0.7546771E-02  0.1235069E+00
         25   -1    0    0    0    0  0.00000000000E+00  0.00000000000E+00  0.99999998245E-14  0.12500000000E+03  0.12500000000E+03 0.  0.
          5    1    1    0  501    0  0.48162103256E+02 -0.35302409467E+02 -0.17841291875E+02  0.62500000000E+02  0.47000000000E+01 0.  1.
         -5    1    1    0    0  501 -0.48162103256E+02  0.35302409467E+02  0.17841291875E+02  0.62500000000E+02  0.47000000000E+01 0.  1.
</event>
<event>
 3    0  0.4607503E-005  0.9118800E+02  0.7546771E-02  0.1235069E+00
         25   -1    0    0    0    0  0.00000000000E+00  0.00000000000E+00  0.99999998245E-14  0.12500000000E+03  0.12500000000E+03 0.  0.
          5    1    1    0  501    0  0.52630307149E+02  0.33378736301E+02 -0.26595553716E+00  0.62500000000E+02  0.47000000000E+01 0. -1.
         -5    1    1    0    0  501 -0.52630307149E+02 -0.33378736301E+02  0.26595553716E+00  0.62500000000E+02  0.47000000000E+01 0. -1.
</event>
<event>
 3    0  0.4607503E-005  0.9118800E+02  0.7546771E-02  0.1235069E+00
         25   -1    0    0    0    0  0.00000000000E+00  0.00000000000E+00  0.99999998245E-14  0.12500000000E+03  0.12500000000E+03 0.  0.
          5    1    1    0  501    0  0.27453612903E+02 -0.54146158265E+02  0.14094420304E+02  0.62500000000E+02  0.47000000000E+01 0.  1.
         -5    1    1    0    0  501 -0.27453612903E+02  0.54146158265E+02 -0.14094420304E+02  0.62500000000E+02  0.47000000000E+01 0.  1.
</event>
<event>
 3    0  0.4607503E-005  0.9118800E+02  0.7546771E-02  0.1235069E+00
         25   -1    0    0    0    0  0.00000000000E+00  0.00000000000E+00  0.99999998245E-14  0.12500000000E+03  0.12500000000E+03 0.  0.
          5    1    1    0  501    0 -0.17827562480E+02  0.10567532764E+02 -0.58776400598E+02  0.62500000000E+02  0.47000000000E+01 0.  1.
         -5    1    1    0    0  501  0.17827562480E+02 -0.10567532764E+02  0.58776400598E+02  0.62500000000E+02  0.47000000000E+01 0.  1.
</event>
<event>
 3    0  0.4607503E-005  0.9118800E+02  0.7546771E-02  0.1235069E+00
         25   -1    0    0    0    0  0.00000000000E+00  0.00000000000E+00  0.99999998245E-14  0.12500000000E+03  0.12500000000E+03 0.  0.
          5    1    1    0  501    0 -0.24182282801E+02 -0.14361389383E+02  0.55615894253E+02  0.62500000000E+02  0.47000000000E+01 0.  1.
         -5    1    1    0    0  501  0.24182282801E+02  0.14361389383E+02 -0.55615894253E+02  0.62500000000E+02  0.47000000000E+01 0.  1.
</event>
<event>
 3    0  0.4607503E-005  0.9118800E+02  0.7546771E-02  0.1235069E+00
         25   -1    0    0    0    0  0.00000000000E+00  0.00000000000E+00  0.99999998245E-14  0.12500000000E+03  0.12500000000E+03 0.  0.
          5    1    1    0  501    0  0.32610816408E+02  0.53041626474E+02  0.26982427959E+01  0.62500000000E+02  0.47000000000E+01 0.  1.
         -5    1    1    0    0  501 -0.32610816408E+02 -0.53041626474E+02 -0.26982427959E+01  0.62500000000E+02  0.47000000000E+01 0.  1.
</event>
<event>
 3    0  0.4607503E-005  0.9118800E+02  0.7546771E-02  0.1235069E+00
         25   -1    0    0    0    0  0.00000000000E+00  0.00000000000E+00  0.99999998245E-14  0.12500000000E+03  0.12500000000E+03 0.  0.
          5    1    1    0  501    0  0.35308129776E+02  0.22360328709E+02  0.46233231249E+02  0.62500000000E+02  0.47000000000E+01 0.  1.
         -5    1    1    0    0  501 -0.35308129776E+02 -0.22360328709E+02 -0.46233231249E+02  0.62500000000E+02  0.47000000000E+01 0.  1.
</event>
<event>
 3    0  0.4607503E-005  0.9118800E+02  0.7546771E-02  0.1235069E+00
         25   -1    0    0    0    0  0.00000000000E+00  0.00000000000E+00  0.99999998245E-14  0.12500000000E+03  0.12500000000E+03 0.  0.
          5    1    1    0  501    0 -0.29469871741E+02 -0.38497814627E+02 -0.39161268220E+02  0.62500000000E+02  0.47000000000E+01 0. -1.
         -5    1    1    0    0  501  0.29469871741E+02  0.38497814627E+02  0.39161268220E+02  0.62500000000E+02  0.47000000000E+01 0. -1.
</event>
<event>
 3    0  0.4607503E-005  0.9118800E+02  0.7546771E-02  0.1235069E+00
         25   -1    0    0    0    0  0.00000000000E+00  0.00000000000E+00  0.99999998245E-14  0.12500000000E+03  0.12500000000E+03 0.  0.
          5    1    1    0  501    0 -0.73604571208E+01  0.59460556246E+02 -0.17158843838E+02  0.62500000000E+02  0.47000000000E+01 0. -1.
         -5    1    1    0    0  501  0.73604571208E+01 -0.59460556246E+02  0.17158843838E+02  0.62500000000E+02  0.47000000000E+01 0. -1.
</event>
<event>
 3    0  0.4607503E-005  0.9118800E+02  0.7546771E-02  0.1235069E+00
         25   -1    0    0    0    0  0.00000000000E+00  0.00000000000E+00  0.99999998245E-14  0.12500000000E+03  0.12500000000E+03 0.  0.
          5    1    1    0  501    0 -0.49105146727E+01 -0.29728090225E+02  0.54555361764E+02  0.62500000000E+02  0.47000000000E+01 0. -1.
         -5    1    1    0    0  501  0.49105146727E+01  0.29728090225E+02 -0.54555361764E+02  0.62500000000E+02  0.47000000000E+01 0. -1.
</event>
<event>
 3    0  0.4607503E-005  0.9118800E+02  0.7546771E-02  0.1235069E+00
         25   -1    0    0    0    0  0.00000000000E+00  0.00000000000E+00  0.99999998245E-14  0.12500000000E+03  0.12500000000E+03 0.  0.
          5    1    1    0  501    0 -0.32833897219E+02  0.20336087034E+01 -0.52933539736E+02  0.62500000000E+02  0.47000000000E+01 0. -1.
         -5    1    1    0    0  501  0.32833897219E+02 -0.20336087034E+01  0.52933539736E+02  0.62500000000E+02  0.47000000000E+01 0. -1.
</event>
<event>
 3    0  0.4607503E-005  0.9118800E+02  0.7546771E-02  0.1235069E+00
         25   -1    0    0    0    0  0.00000000000E+00  0.00000000000E+00  0.99999998245E-14  0.12500000000E+03  0.12500000000E+03 0.  0.
          5    1    1    0  501    0 -0.60346189270E+02 -0.45673074579E+01 -0.14887482769E+02  0.62500000000E+02  0.47000000000E+01 0. -1.
         -5    1    1    0    0  501  0.60346189270E+02  0.45673074579E+01  0.14887482769E+02  0.62500000000E+02  0.47000000000E+01 0. -1.
</event>
<event>
 3    0  0.4607503E-005  0.9118800E+02  0.7546771E-02  0.1235069E+00
         25   -1    0    0    0    0  0.00000000000E+00  0.00000000000E+00  0.99999998245E-14  0.12500000000E+03  0.12500000000E+03 0.  0.
          5    1    1    0  501    0  0.23493891494E+02 -0.18905050474E+02 -0.54541691659E+02  0.62500000000E+02  0.47000000000E+01 0.  1.
         -5    1    1    0    0  501 -0.23493891494E+02  0.18905050474E+02  0.54541691659E+02  0.62500000000E+02  0.47000000000E+01 0.  1.
</event>
<event>
 3    0  0.4607503E-005  0.9118800E+02  0.7546771E-02  0.1235069E+00
         25   -1    0    0    0    0  0.00000000000E+00  0.00000000000E+00  0.99999998245E-14  0.12500000000E+03  0.12500000000E+03 0.  0.
          5    1    1    0  501    0 -0.61487541194E+02  0.21650224449E+01  0.99375528058E+01  0.62500000000E+02  0.47000000000E+01 0. -1.
         -5    1    1    0    0  501  0.61487541194E+02 -0.21650224449E+01 -0.99375528058E+01  0.62500000000E+02  0.47000000000E+01 0. -1.
</event>
<event>
 3    0  0.4607503E-005  0.9118800E+02  0.7546771E-02  0.1235069E+00
         25   -1    0    0    0    0  0.00000000000E+00  0.00000000000E+00  0.99999998245E-14  0.12500000000E+03  0.12500000000E+03 0.  0.
          5    1    1    0  501    0 -0.44939361792E+02  0.97068098634E+01 -0.42076021722E+02  0.62500000000E+02  0.47000000000E+01 0.  1.
         -5    1    1    0    0  501  0.44939361792E+02 -0.97068098634E+01  0.42076021722E+02  0.62500000000E+02  0.47000000000E+01 0.  1.
</event>
<event>
 3    0  0.4607503E-005  0.9118800E+02  0.7546771E-02  0.1235069E+00
         25   -1    0    0    0    0  0.00000000000E+00  0.00000000000E+00  0.99999998245E-14  0.12500000000E+03  0.12500000000E+03 0.  0.
          5    1    1    0  501    0  0.44059405066E+02  0.25733508573E+02 -0.35787083728E+02  0.62500000000E+02  0.47000000000E+01 0.  1.
         -5    1    1    0    0  501 -0.44059405066E+02 -0.25733508573E+02  0.35787083728E+02  0.62500000000E+02  0.47000000000E+01 0.  1.
</event>
<event>
 3    0  0.4607503E-005  0.9118800E+02  0.7546771E-02  0.1235069E+00
         25   -1    0    0    0    0  0.00000000000E+00  0.00000000000E+00  0.99999998245E-14  0.12500000000E+03  0.12500000000E+03 0.  0.
          5    1    1    0  501    0 -0.31570073887E+02 -0.47970164037E+02  0.24214743383E+02  0.62500000000E+02  0.47000000000E+01 0.  1.
         -5    1    1    0    0  501  0.31570073887E+02  0.47970164037E+02 -0.24214743383E+02  0.62500000000E+02  0.47000000000E+01 0.  1.
</event>
<event>
 3    0  0.4607503E-005  0.9118800E+02  0.7546771E-02  0.1235069E+00
         25   -1    0    0    0    0  0.00000000000E+00  0.00000000000E+00  0.99999998245E-14  0.12500000000E+03  0.12500000000E+03 0.  0.
          5    1    1    0  501    0 -0.56153907703E+02 -0.21729259611E+02 -0.16085332649E+02  0.62500000000E+02  0.47000000000E+01 0.  1.
         -5    1    1    0    0  501  0.56153907703E+02  0.21729259611E+02  0.16085332649E+02  0.62500000000E+02  0.47000000000E+01 0.  1.
</event>
<event>
 3    0  0.4607503E-005  0.9118800E+02  0.7546771E-02  0.1235069E+00
         25   -1    0    0    0    0  0.00000000000E+00  0.00000000000E+00  0.99999998245E-14  0.12500000000E+03  0.12500000000E+03 0.  0.
          5    1    1    0  501    0  0.60524194651E+02  0.13586311399E+02 -0.60327443486E+01  0.62500000000E+02  0.47000000000E+01 0. -1.
         -5    1    1    0    0  501 -0.60524194651E+02 -0.13586311399E+02  0.60327443486E+01  0.62500000000E+02  0.47000000000E+01 0. -1.
</event>
<event>
 3    0  0.4607503E-005  0.9118800E+02  0.7546771E-02  0.1235069E+00
         25   -1    0    0    0    0  0.00000000000E+00  0.00000000000E+00  0.99999998245E-14  0.12500000000E+03  0.12500000000E+03 0.  0.
          5    1    1    0  501    0  0.55076210844E+01 -0.50916327128E+02  0.35515542256E+02  0.62500000000E+02  0.47000000000E+01 0.  1.
         -5    1    1    0    0  501 -0.55076210844E+01  0.50916327128E+02 -0.35515542256E+02  0.62500000000E+02  0.47000000000E+01 0.  1.
</event>
<event>
 3    0  0.4607503E-005  0.9118800E+02  0.7546771E-02  0.1235069E+00
         25   -1    0    0    0    0  0.00000000000E+00  0.00000000000E+00  0.99999998245E-14  0.12500000000E+03  0.12500000000E+03 0.  0.
          5    1    1    0  501    0 -0.55829324038E+02 -0.11097306749E+02  0.25379053576E+02  0.62500000000E+02  0.47000000000E+01 0. -1.
         -5    1    1    0    0  501  0.55829324038E+02  0.11097306749E+02 -0.25379053576E+02  0.62500000000E+02  0.47000000000E+01 0. -1.
</event>
<event>
 3    0  0.4607503E-005  0.9118800E+02  0.7546771E-02  0.1235069E+00
         25   -1    0    0    0    0  0.00000000000E+00  0.00000000000E+00  0.99999998245E-14  0.12500000000E+03  0.12500000000E+03 0.  0.
          5    1    1    0  501    0 -0.60781815235E+02  0.13567947287E+02 -0.23752353825E+01  0.62500000000E+02  0.47000000000E+01 0. -1.
         -5    1    1    0    0  501  0.60781815235E+02 -0.13567947287E+02  0.23752353825E+01  0.62500000000E+02  0.47000000000E+01 0. -1.
</event>
<event>
 3    0  0.4607503E-005  0.9118800E+02  0.7546771E-02  0.1235069E+00
         25   -1    0    0    0    0  0.00000000000E+00  0.00000000000E+00  0.99999998245E-14  0.12500000000E+03  0.12500000000E+03 0.  0.
          5    1    1    0  501    0 -0.28030440165E+02  0.40393567210E+02  0.38299009808E+02  0.62500000000E+02  0.47000000000E+01 0.  1.
         -5    1    1    0    0  501  0.28030440165E+02 -0.40393567210E+02 -0.38299009808E+02  0.62500000000E+02  0.47000000000E+01 0.  1.
</event>
<event>
 3    0  0.4607503E-005  0.9118800E+02  0.7546771E-02  0.1235069E+00
         25   -1    0    0    0    0  0.00000000000E+00  0.00000000000E+00  0.99999998245E-14  0.12500000000E+03  0.12500000000E+03 0.  0.
          5    1    1    0  501    0  0.15930103950E+02  0.55847089810E+02 -0.22616240800E+02  0.62500000000E+02  0.47000000000E+01 0.  1.
         -5    1    1    0    0  501 -0.15930103950E+02 -0.55847089810E+02  0.22616240800E+02  0.62500000000E+02  0.47000000000E+01 0.  1.
</event>
<event>
 3    0  0.4607503E-005  0.9118800E+02  0.7546771E-02  0.1235069E+00
         25   -1    0    0    0    0  0.00000000000E+00  0.00000000000E+00  0.99999998245E-14  0.12500000000E+03  0.12500000000E+03 0.  0.
          5    1    1    0  501    0 -0.83642492687E+01 -0.60569594287E+02  0.12063315553E+02  0.62500000000E+02  0.47000000000E+01 0.  1.
         -5    1    1    0    0  501  0.83642492687E+01  0.60569594287E+02 -0.12063315553E+02  0.62500000000E+02  0.47000000000E+01 0.  1.
</event>
<event>
 3    0  0.4607503E-005  0.9118800E+02  0.7546771E-02  0.1235069E+00
         25   -1    0    0    0    0  0.00000000000E+00  0.00000000000E+00  0.99999998245E-14  0.12500000000E+03  0.12500000000E+03 0.  0.
          5    1    1    0  501    0  0.61830242420E+02 -0.45888514305E+01 -0.63343164472E+01  0.62500000000E+02  0.47000000000E+01 0.  1.
         -5    1    1    0    0  501 -0.61830242420E+02  0.45888514305E+01  0.63343164472E+01  0.62500000000E+02  0.47000000000E+01 0.  1.
</event>
<event>
 3    0  0.4607503E-005  0.9118800E+02  0.7546771E-02  0.1235069E+00
         25   -1    0    0    0    0  0.00000000000E+00  0.00000000000E+00  0.99999998245E-14  0.12500000000E+03  0.12500000000E+03 0.  0.
          5    1    1    0  501    0  0.34037735815E+02  0.48269686523E+02  0.19890447544E+02  0.62500000000E+02  0.47000000000E+01 0.  1.
         -5    1    1    0    0  501 -0.34037735815E+02 -0.48269686523E+02 -0.19890447544E+02  0.62500000000E+02  0.47000000000E+01 0.  1.
</event>
<event>
 3    0  0.4607503E-005  0.9118800E+02  0.7546771E-02  0.1235069E+00
         25   -1    0    0    0    0  0.00000000000E+00  0.00000000000E+00  0.99999998245E-14  0.12500000000E+03  0.12500000000E+03 0.  0.
          5    1    1    0  501    0  0.72869625131E+01 -0.60500549475E+02  0.13066892919E+02  0.62500000000E+02  0.47000000000E+01 0. -1.
         -5    1    1    0    0  501 -0.72869625131E+01  0.60500549475E+02 -0.13066892919E+02  0.62500000000E+02  0.47000000000E+01 0. -1.
</event>
<event>
 3    0  0.4607503E-005  0.9118800E+02  0.7546771E-02  0.1235069E+00
         25   -1    0    0    0    0  0.00000000000E+00  0.00000000000E+00  0.99999998245E-14  0.12500000000E+03  0.12500000000E+03 0.  0.
          5    1    1    0  501    0 -0.18450888605E+02  0.40712125845E+02  0.43430951163E+02  0.62500000000E+02  0.47000000000E+01 0.  1.
         -5    1    1    0    0  501  0.18450888605E+02 -0.40712125845E+02 -0.43430951163E+02  0.62500000000E+02  0.47000000000E+01 0.  1.
</event>
<event>
 3    0  0.4607503E-005  0.9118800E+02  0.7546771E-02  0.1235069E+00
         25   -1    0    0    0    0  0.00000000000E+00  0.00000000000E+00  0.99999998245E-14  0.12500000000E+03  0.12500000000E+03 0.  0.
          5    1    1    0  501    0 -0.61410906291E+02 -0.97547694796E+01 -0.42077382250E+01  0.62500000000E+02  0.47000000000E+01 0. -1.
         -5    1    1    0    0  501  0.61410906291E+02  0.97547694796E+01  0.42077382250E+01  0.62500000000E+02  0.47000000000E+01 0. -1.
</event>
<event>
 3    0  0.4607503E-005  0.9118800E+02  0.7546771E-02  0.1235069E+00
         25   -1    0    0    0    0  0.00000000000E+00  0.00000000000E+00  0.99999998245E-14  0.12500000000E+03  0.12500000000E+03 0.  0.
          5    1    1    0  501    0  0.10612154741E+02  0.42131012568E+02 -0.44682434488E+02  0.62500000000E+02  0.47000000000E+01 0. -1.
         -5    1    1    0    0  501 -0.10612154741E+02 -0.42131012568E+02  0.44682434488E+02  0.62500000000E+02  0.47000000000E+01 0. -1.
</event>
<event>
 3    0  0.4607503E-005  0.9118800E+02  0.7546771E-02  0.1235069E+00
         25   -1    0    0    0    0  0.00000000000E+00  0.00000000000E+00  0.99999998245E-14  0.12500000000E+03  0.12500000000E+03 0.  0.
          5    1    1    0  501    0  0.33100739430E+02 -0.16111362306E+02 -0.50288418685E+02  0.62500000000E+02  0.47000000000E+01 0.  1.
         -5    1    1    0    0  501 -0.33100739430E+02  0.16111362306E+02  0.50288418685E+02  0.62500000000E+02  0.47000000000E+01 0.  1.
</event>
<event>
 3    0  0.4607503E-005  0.9118800E+02  0.7546771E-02  0.1235069E+00
         25   -1    0    0    0    0  0.00000000000E+00  0.00000000000E+00  0.99999998245E-14  0.12500000000E+03  0.12500000000E+03 0.  0.
          5    1    1    0  501    0 -0.19412227765E+01 -0.43804771091E+02  0.44289205049E+02  0.62500000000E+02  0.47000000000E+01 0. -1.
         -5    1    1    0    0  501  0.19412227765E+01  0.43804771091E+02 -0.44289205049E+02  0.62500000000E+02  0.47000000000E+01 0. -1.
</event>
<event>
 3    0  0.4607503E-005  0.9118800E+02  0.7546771E-02  0.1235069E+00
         25   -1    0    0    0    0  0.00000000000E+00  0.00000000000E+00  0.99999998245E-14  0.12500000000E+03  0.12500000000E+03 0.  0.
          5    1    1    0  501    0 -0.21292152221E+02 -0.56710381753E+02  0.14653902389E+02  0.62500000000E+02  0.47000000000E+01 0. -1.
         -5    1    1    0    0  501  0.21292152221E+02  0.56710381753E+02 -0.14653902389E+02  0.62500000000E+02  0.47000000000E+01 0. -1.
</event>
<event>
 3    0  0.4607503E-005  0.9118800E+02  0.7546771E-02  0.1235069E+00
         25   -1    0    0    0    0  0.00000000000E+00  0.00000000000E+00  0.99999998245E-14  0.12500000000E+03  0.12500000000E+03 0.  0.
          5    1    1    0  501    0 -0.54881651292E+02  0.10987107272E+02 -0.27412548683E+02  0.62500000000E+02  0.47000000000E+01 0.  1.
         -5    1    1    0    0  501  0.54881651292E+02 -0.10987107272E+02  0.27412548683E+02  0.62500000000E+02  0.47000000000E+01 0.  1.
</event>
<event>
 3    0  0.4607503E-005  0.9118800E+02  0.7546771E-02  0.1235069E+00
         25   -1    0    0    0    0  0.00000000000E+00  0.00000000000E+00  0.99999998245E-14  0.12500000000E+03  0.12500000000E+03 0.  0.
          5    1    1    0  501    0  0.44681031071E+02  0.43440894812E+02  0.80877708458E+00  0.62500000000E+02  0.47000000000E+01 0. -1.
         -5    1    1    0    0  501 -0.44681031071E+02 -0.43440894812E+02 -0.80877708458E+00  0.62500000000E+02  0.47000000000E+01 0. -1.
</event>
<event>
 3    0  0.4607503E-005  0.9118800E+02  0.7546771E-02  0.1235069E+00
         25   -1    0    0    0    0  0.00000000000E+00  0.00000000000E+00  0.99999998245E-14  0.12500000000E+03  0.12500000000E+03 0.  0.
          5    1    1    0  501    0 -0.55342876164E+02 -0.22015279142E+02 -0.18348120943E+02  0.62500000000E+02  0.47000000000E+01 0. -1.
         -5    1    1    0    0  501  0.55342876164E+02  0.22015279142E+02  0.18348120943E+02  0.62500000000E+02  0.47000000000E+01 0. -1.
</event>
<event>
 3    0  0.4607503E-005  0.9118800E+02  0.7546771E-02  0.1235069E+00
         25   -1    0    0    0    0  0.00000000000E+00  0.00000000000E+00  0.99999998245E-14  0.12500000000E+03  0.12500000000E+03 0.  0.
          5    1    1    0  501    0 -0.57369905277E+02 -0.20842053186E+02 -0.12588200326E+02  0.62500000000E+02  0.47000000000E+01 0. -1.
         -5    1    1    0    0  501  0.57369905277E+02  0.20842053186E+02  0.12588200326E+02  0.62500000000E+02  0.47000000000E+01 0. -1.
</event>
<event>
 3    0  0.4607503E-005  0.9118800E+02  0.7546771E-02  0.1235069E+00
         25   -1    0    0    0    0  0.00000000000E+00  0.00000000000E+00  0.99999998245E-14  0.12500000000E+03  0.12500000000E+03 0.  0.
          5    1    1    0  501    0  0.12698387351E+02 -0.60571072425E+02 -0.73522883477E+01  0.62500000000E+02  0.47000000000E+01 0.  1.
         -5    1    1    0    0  501 -0.12698387351E+02  0.60571072425E+02  0.73522883477E+01  0.62500000000E+02  0.47000000000E+01 0.  1.
</event>
<event>
 3    0  0.4607503E-005  0.9118800E+02  0.7546771E-02  0.1235069E+00
         25   -1    0    0    0    0  0.00000000000E+00  0.00000000000E+00  0.99999998245E-14  0.12500000000E+03  0.12500000000E+03 0.  0.
          5    1    1    0  501    0  0.25912005508E+02  0.56609408538E+02 -0.28465480099E+01  0.62500000000E+02  0.47000000000E+01 0.  1.
         -5    1    1    0    0  501 -0.25912005508E+02 -0.56609408538E+02  0.28465480099E+01  0.62500000000E+02  0.47000000000E+01 0.  1.
</event>
<event>
 3    0  0.4607503E-005  0.9118800E+02  0.7546771E-02  0.1235069E+00
         25   -1    0    0    0    0  0.00000000000E+00  0.00000000000E+00  0.99999998245E-14  0.12500000000E+03  0.12500000000E+03 0.  0.
          5    1    1    0  501    0 -0.38034827972E+02 -0.39807337752E+02  0.29204241512E+02  0.62500000000E+02  0.47000000000E+01 0. -1.
         -5    1    1    0    0  501  0.38034827972E+02  0.39807337752E+02 -0.29204241512E+02  0.62500000000E+02  0.47000000000E+01 0. -1.
</event>
<event>
 3    0  0.4607503E-005  0.9118800E+02  0.7546771E-02  0.1235069E+00
         25   -1    0    0    0    0  0.00000000000E+00  0.00000000000E+00  0.99999998245E-14  0.12500000000E+03  0.12500000000E+03 0.  0.
          5    1    1    0  501    0  0.60880405580E+02 -0.13318571658E+02  0.59318245517E+00  0.62500000000E+02  0.47000000000E+01 0.  1.
         -5    1    1    0    0  501 -0.60880405580E+02  0.13318571658E+02 -0.59318245517E+00  0.62500000000E+02  0.47000000000E+01 0.  1.
</event>
<event>
 3    0  0.4607503E-005  0.9118800E+02  0.7546771E-02  0.1235069E+00
         25   -1    0    0    0    0  0.00000000000E+00  0.00000000000E+00  0.99999998245E-14  0.12500000000E+03  0.12500000000E+03 0.  0.
          5    1    1    0  501    0  0.59621356179E+02  0.82597876312E+01  0.16162604853E+02  0.62500000000E+02  0.47000000000E+01 0.  1.
         -5    1    1    0    0  501 -0.59621356179E+02 -0.82597876312E+01 -0.16162604853E+02  0.62500000000E+02  0.47000000000E+01 0.  1.
</event>
<event>
 3    0  0.4607503E-005  0.9118800E+02  0.7546771E-02  0.1235069E+00
         25   -1    0    0    0    0  0.00000000000E+00  0.00000000000E+00  0.99999998245E-14  0.12500000000E+03  0.12500000000E+03 0.  0.
          5    1    1    0  501    0 -0.54947208668E+02  0.22723302894E+02 -0.18671255053E+02  0.62500000000E+02  0.47000000000E+01 0. -1.
         -5    1    1    0    0  501  0.54947208668E+02 -0.22723302894E+02  0.18671255053E+02  0.62500000000E+02  0.47000000000E+01 0. -1.
</event>
<event>
 3    0  0.4607503E-005  0.9118800E+02  0.7546771E-02  0.1235069E+00
         25   -1    0    0    0    0  0.00000000000E+00  0.00000000000E+00  0.99999998245E-14  0.12500000000E+03  0.12500000000E+03 0.  0.
          5    1    1    0  501    0  0.49709198410E+01 -0.14292182030E+02 -0.60458113506E+02  0.62500000000E+02  0.47000000000E+01 0.  1.
         -5    1    1    0    0  501 -0.49709198410E+01  0.14292182030E+02  0.60458113506E+02  0.62500000000E+02  0.47000000000E+01 0.  1.
</event>
<event>
 3    0  0.4607503E-005  0.9118800E+02  0.7546771E-02  0.1235069E+00
         25   -1    0    0    0    0  0.00000000000E+00  0.00000000000E+00  0.99999998245E-14  0.12500000000E+03  0.12500000000E+03 0.  0.
          5    1    1    0  501    0  0.22756845800E+02 -0.19919254074E+02  0.54493204038E+02  0.62500000000E+02  0.47000000000E+01 0. -1.
         -5    1    1    0    0  501 -0.22756845800E+02  0.19919254074E+02 -0.54493204038E+02  0.62500000000E+02  0.47000000000E+01 0. -1.
</event>
<event>
 3    0  0.4607503E-005  0.9118800E+02  0.7546771E-02  0.1235069E+00
         25   -1    0    0    0    0  0.00000000000E+00  0.00000000000E+00  0.99999998245E-14  0.12500000000E+03  0.12500000000E+03 0.  0.
          5    1    1    0  501    0  0.41901939904E+02 -0.45111161023E+02  0.96628455142E+01  0.62500000000E+02  0.47000000000E+01 0.  1.
         -5    1    1    0    0  501 -0.41901939904E+02  0.45111161023E+02 -0.96628455142E+01  0.62500000000E+02  0.47000000000E+01 0.  1.
</event>
<event>
 3    0  0.4607503E-005  0.9118800E+02  0.7546771E-02  0.1235069E+00
         25   -1    0    0    0    0  0.00000000000E+00  0.00000000000E+00  0.99999998245E-14  0.12500000000E+03  0.12500000000E+03 0.  0.
          5    1    1    0  501    0 -0.59840417694E+02  0.16966860916E+02 -0.39255624971E+01  0.62500000000E+02  0.47000000000E+01 0. -1.
         -5    1    1    0    0  501  0.59840417694E+02 -0.16966860916E+02  0.39255624971E+01  0.62500000000E+02  0.47000000000E+01 0. -1.
</event>
<event>
 3    0  0.4607503E-005  0.9118800E+02  0.7546771E-02  0.1235069E+00
         25   -1    0    0    0    0  0.00000000000E+00  0.00000000000E+00  0.99999998245E-14  0.12500000000E+03  0.12500000000E+03 0.  0.
          5    1    1    0  501    0 -0.64477140722E+01 -0.25460017134E+02 -0.56518797853E+02  0.62500000000E+02  0.47000000000E+01 0. -1.
         -5    1    1    0    0  501  0.64477140722E+01  0.25460017134E+02  0.56518797853E+02  0.62500000000E+02  0.47000000000E+01 0. -1.
</event>
<event>
 3    0  0.4607503E-005  0.9118800E+02  0.7546771E-02  0.1235069E+00
         25   -1    0    0    0    0  0.00000000000E+00  0.00000000000E+00  0.99999998245E-14  0.12500000000E+03  0.12500000000E+03 0.  0.
          5    1    1    0  501    0 -0.61856703050E+02 -0.66595811541E+01 -0.36821551575E+01  0.62500000000E+02  0.47000000000E+01 0.  1.
         -5    1    1    0    0  501  0.61856703050E+02  0.66595811541E+01  0.36821551575E+01  0.62500000000E+02  0.47000000000E+01 0.  1.
</event>
<event>
 3    0  0.4607503E-005  0.9118800E+02  0.7546771E-02  0.1235069E+00
         25   -1    0    0    0    0  0.00000000000E+00  0.00000000000E+00  0.99999998245E-14  0.12500000000E+03  0.12500000000E+03 0.  0.
          5    1    1    0  501    0  0.53058607283E+02  0.32679862161E+02  0.98529300608E+00  0.62500000000E+02  0.47000000000E+01 0. -1.
         -5    1    1    0    0  501 -0.53058607283E+02 -0.32679862161E+02 -0.98529300608E+00  0.62500000000E+02  0.47000000000E+01 0. -1.
</event>
<event>
 3    0  0.4607503E-005  0.9118800E+02  0.7546771E-02  0.1235069E+00
         25   -1    0    0    0    0  0.00000000000E+00  0.00000000000E+00  0.99999998245E-14  0.12500000000E+03  0.12500000000E+03 0.  0.
          5    1    1    0  501    0 -0.56714030652E+02  0.18851378662E+02  0.17672132011E+02  0.62500000000E+02  0.47000000000E+01 0.  1.
         -5    1    1    0    0  501  0.56714030652E+02 -0.18851378662E+02 -0.17672132011E+02  0.62500000000E+02  0.47000000000E+01 0.  1.
</event>
<event>
 3    0  0.4607503E-005  0.9118800E+02  0.7546771E-02  0.1235069E+00
         25   -1    0    0    0    0  0.00000000000E+00  0.00000000000E+00  0.99999998245E-14  0.12500000000E+03  0.12500000000E+03 0.  0.
          5    1    1    0  501    0  0.12364330914E+02  0.41484255978E+02  0.44836813301E+02  0.62500000000E+02  0.47000000000E+01 0.  1.
         -5    1    1    0    0  501 -0.12364330914E+02 -0.41484255978E+02 -0.44836813301E+02  0.62500000000E+02  0.47000000000E+01 0.  1.
</event>
<event>
 3    0  0.4607503E-005  0.9118800E+02  0.7546771E-02  0.1235069E+00
         25   -1    0    0    0    0  0.00000000000E+00  0.00000000000E+00  0.99999998245E-14  0.12500000000E+03  0.12500000000E+03 0.  0.
          5    1    1    0  501    0 -0.32538441606E+02  0.31428346192E+02  0.42868040234E+02  0.62500000000E+02  0.47000000000E+01 0.  1.
         -5    1    1    0    0  501  0.32538441606E+02 -0.31428346192E+02 -0.42868040234E+02  0.62500000000E+02  0.47000000000E+01 0.  1.
</event>
<event>
 3    0  0.4607503E-005  0.9118800E+02  0.7546771E-02  0.1235069E+00
         25   -1    0    0    0    0  0.00000000000E+00  0.00000000000E+00  0.99999998245E-14  0.12500000000E+03  0.12500000000E+03 0.  0.
          5    1    1    0  501    0  0.32844147693E+02  0.33848027978E+01  0.52857970755E+02  0.62500000000E+02  0.47000000000E+01 0. -1.
         -5    1    1    0    0  501 -0.32844147693E+02 -0.33848027978E+01 -0.52857970755E+02  0.62500000000E+02  0.47000000000E+01 0. -1.
</event>
<event>
 3    0  0.4607503E-005  0.9118800E+02  0.7546771E-02  0.1235069E+00
         25   -1    0    0    0    0  0.00000000000E+00  0.00000000000E+00  0.99999998245E-14  0.12500000000E+03  0.12500000000E+03 0.  0.
          5    1    1    0  501    0 -0.53645900704E+02 -0.44249032845E+01 -0.31411742527E+02  0.62500000000E+02  0.47000000000E+01 0. -1.
         -5    1    1    0    0  501  0.53645900704E+02  0.44249032845E+01  0.31411742527E+02  0.62500000000E+02  0.47000000000E+01 0. -1.
</event>
<event>
 3    0  0.4607503E-005  0.9118800E+02  0.7546771E-02  0.1235069E+00
         25   -1    0    0    0    0  0.00000000000E+00  0.00000000000E+00  0.99999998245E-14  0.12500000000E+03  0.12500000000E+03 0.  0.
          5    1    1    0  501    0 -0.79594128336E+01  0.54125052913E+02 -0.29854420016E+02  0.62500000000E+02  0.47000000000E+01 0. -1.
         -5    1    1    0    0  501  0.79594128336E+01 -0.54125052913E+02  0.29854420016E+02  0.62500000000E+02  0.47000000000E+01 0. -1.
</event>
<event>
 3    0  0.4607503E-005  0.9118800E+02  0.7546771E-02  0.1235069E+00
         25   -1    0    0    0    0  0.00000000000E+00  0.00000000000E+00  0.99999998245E-14  0.12500000000E+03  0.12500000000E+03 0.  0.
          5    1    1    0  501    0  0.38528941691E+02 -0.19195976380E+02 -0.45068782355E+02  0.62500000000E+02  0.47000000000E+01 0.  1.
         -5    1    1    0    0  501 -0.38528941691E+02  0.19195976380E+02  0.45068782355E+02  0.62500000000E+02  0.47000000000E+01 0.  1.
</event>
<event>
 3    0  0.4607503E-005  0.9118800E+02  0.7546771E-02  0.1235069E+00
         25   -1    0    0    0    0  0.00000000000E+00  0.00000000000E+00  0.99999998245E-14  0.12500000000E+03  0.12500000000E+03 0.  0.
          5    1    1    0  501    0  0.39170109117E+02 -0.46347609210E+02  0.14204283590E+02  0.62500000000E+02  0.47000000000E+01 0.  1.
         -5    1    1    0    0  501 -0.39170109117E+02  0.46347609210E+02 -0.14204283590E+02  0.62500000000E+02  0.47000000000E+01 0.  1.
</event>
<event>
 3    0  0.4607503E-005  0.9118800E+02  0.7546771E-02  0.1235069E+00
         25   -1    0    0    0    0  0.00000000000E+00  0.00000000000E+00  0.99999998245E-14  0.12500000000E+03  0.12500000000E+03 0.  0.
          5    1    1    0  501    0  0.13192025853E+02 -0.42138506141E+02  0.43982686981E+02  0.62500000000E+02  0.47000000000E+01 0. -1.
         -5    1    1    0    0  501 -0.13192025853E+02  0.42138506141E+02 -0.43982686981E+02  0.62500000000E+02  0.47000000000E+01 0. -1.
</event>
<event>
 3    0  0.4607503E-005  0.9118800E+02  0.7546771E-02  0.1235069E+00
         25   -1    0    0    0    0  0.00000000000E+00  0.00000000000E+00  0.99999998245E-14  0.12500000000E+03  0.12500000000E+03 0.  0.
          5    1    1    0  501    0  0.88034894584E+01 -0.21585692908E+02 -0.57798931089E+02  0.62500000000E+02  0.47000000000E+01 0. -1.
         -5    1    1    0    0  501 -0.88034894584E+01  0.21585692908E+02  0.57798931089E+02  0.62500000000E+02  0.47000000000E+01 0. -1.
</event>
<event>
 3    0  0.4607503E-005  0.9118800E+02  0.7546771E-02  0.1235069E+00
         25   -1    0    0    0    0  0.00000000000E+00  0.00000000000E+00  0.99999998245E-14  0.12500000000E+03  0.12500000000E+03 0.  0.
          5    1    1    0  501    0  0.45410709989E+02  0.37245188651E+02 -0.20852418101E+02  0.62500000000E+02  0.47000000000E+01 0. -1.
         -5    1    1    0    0  501 -0.45410709989E+02 -0.37245188651E+02  0.20852418101E+02  0.62500000000E+02  0.47000000000E+01 0. -1.
</event>
<event>
 3    0  0.4607503E-005  0.9118800E+02  0.7546771E-02  0.1235069E+00
         25   -1    0    0    0    0  0.00000000000E+00  0.00000000000E+00  0.99999998245E-14  0.12500000000E+03  0.12500000000E+03 0.  0.
          5    1    1    0  501    0 -0.16319015859E+02 -0.95284251193E+01 -0.59389046432E+02  0.62500000000E+02  0.47000000000E+01 0.  1.
         -5    1    1    0    0  501  0.16319015859E+02  0.95284251193E+01  0.59389046432E+02  0.62500000000E+02  0.47000000000E+01 0.  1.
</event>
<event>
 3    0  0.4607503E-005  0.9118800E+02  0.7546771E-02  0.1235069E+00
         25   -1    0    0    0    0  0.00000000000E+00  0.00000000000E+00  0.99999998245E-14  0.12500000000E+03  0.12500000000E+03 0.  0.
          5    1    1    0  501    0  0.56361233864E+02  0.19123578808E+02 -0.18489457831E+02  0.62500000000E+02  0.47000000000E+01 0. -1.
         -5    1    1    0    0  501 -0.56361233864E+02 -0.19123578808E+02  0.18489457831E+02  0.62500000000E+02  0.47000000000E+01 0. -1.
</event>
<event>
 3    0  0.4607503E-005  0.9118800E+02  0.7546771E-02  0.1235069E+00
         25   -1    0    0    0    0  0.00000000000E+00  0.00000000000E+00  0.99999998245E-14  0.12500000000E+03  0.12500000000E+03 0.  0.
          5    1    1    0  501    0  0.33943067557E+02 -0.30926914548E+02  0.42137324564E+02  0.62500000000E+02  0.47000000000E+01 0. -1.
         -5    1    1    0    0  501 -0.33943067557E+02  0.30926914548E+02 -0.42137324564E+02  0.62500000000E+02  0.47000000000E+01 0. -1.
</event>
<event>
 3    0  0.4607503E-005  0.9118800E+02  0.7546771E-02  0.1235069E+00
         25   -1    0    0    0    0  0.00000000000E+00  0.00000000000E+00  0.99999998245E-14  0.12500000000E+03  0.12500000000E+03 0.  0.
          5    1    1    0  501    0  0.31646237012E+02 -0.46083111266E+02 -0.27550363682E+02  0.62500000000E+02  0.47000000000E+01 0.  1.
         -5    1    1    0    0  501 -0.31646237012E+02  0.46083111266E+02  0.27550363682E+02  0.62500000000E+02  0.47000000000E+01 0.  1.
</event>
<event>
 3    0  0.4607503E-005  0.9118800E+02  0.7546771E-02  0.1235069E+00
         25   -1    0    0    0    0  0.00000000000E+00  0.00000000000E+00  0.99999998245E-14  0.12500000000E+03  0.12500000000E+03 0.  0.
          5    1    1    0  501    0  0.25542256563E+02  0.17279623453E+02 -0.54158727302E+02  0.62500000000E+02  0.47000000000E+01 0.  1.
         -5    1    1    0    0  501 -0.25542256563E+02 -0.17279623453E+02  0.54158727302E+02  0.62500000000E+02  0.47000000000E+01 0.  1.
</event>
<event>
 3    0  0.4607503E-005  0.9118800E+02  0.7546771E-02  0.1235069E+00
         25   -1    0    0    0    0  0.00000000000E+00  0.00000000000E+00  0.99999998245E-14  0.12500000000E+03  0.12500000000E+03 0.  0.
          5    1    1    0  501    0 -0.53060672218E+02 -0.89510027674E+00  0.32679104322E+02  0.62500000000E+02  0.47000000000E+01 0. -1.
         -5    1    1    0    0  501  0.53060672218E+02  0.89510027674E+00 -0.32679104322E+02  0.62500000000E+02  0.47000000000E+01 0. -1.
</event>
<event>
 3    0  0.4607503E-005  0.9118800E+02  0.7546771E-02  0.1235069E+00
         25   -1    0    0    0    0  0.00000000000E+00  0.00000000000E+00  0.99999998245E-14  0.12500000000E+03  0.12500000000E+03 0.  0.
          5    1    1    0  501    0 -0.43797078142E+01 -0.61413033232E+02  0.96652733359E+01  0.62500000000E+02  0.47000000000E+01 0.  1.
         -5    1    1    0    0  501  0.43797078142E+01  0.61413033232E+02 -0.96652733359E+01  0.62500000000E+02  0.47000000000E+01 0.  1.
</event>
<event>
 3    0  0.4607503E-005  0.9118800E+02  0.7546771E-02  0.1235069E+00
         25   -1    0    0    0    0  0.00000000000E+00  0.00000000000E+00  0.99999998245E-14  0.12500000000E+03  0.12500000000E+03 0.  0.
          5    1    1    0  501    0 -0.58670033273E+02  0.14910382554E+02  0.14821190500E+02  0.62500000000E+02  0.47000000000E+01 0.  1.
         -5    1    1    0    0  501  0.58670033273E+02 -0.14910382554E+02 -0.14821190500E+02  0.62500000000E+02  0.47000000000E+01 0.  1.
</event>
<event>
 3    0  0.4607503E-005  0.9118800E+02  0.7546771E-02  0.1235069E+00
         25   -1    0    0    0    0  0.00000000000E+00  0.00000000000E+00  0.99999998245E-14  0.12500000000E+03  0.12500000000E+03 0.  0.
          5    1    1    0  501    0  0.33221672016E+01  0.41696642929E+01 -0.62094581928E+02  0.62500000000E+02  0.47000000000E+01 0.  1.
         -5    1    1    0    0  501 -0.33221672016E+01 -0.41696642929E+01  0.62094581928E+02  0.62500000000E+02  0.47000000000E+01 0.  1.
</event>
<event>
 3    0  0.4607503E-005  0.9118800E+02  0.7546771E-02  0.1235069E+00
         25   -1    0    0    0    0  0.00000000000E+00  0.00000000000E+00  0.99999998245E-14  0.12500000000E+03  0.12500000000E+03 0.  0.
          5    1    1    0  501    0  0.58852265300E+02  0.14107442504E+02 -0.14884587166E+02  0.62500000000E+02  0.47000000000E+01 0.  1.
         -5    1    1    0    0  501 -0.58852265300E+02 -0.14107442504E+02  0.14884587166E+02  0.62500000000E+02  0.47000000000E+01 0.  1.
</event>
<event>
 3    0  0.4607503E-005  0.9118800E+02  0.7546771E-02  0.1235069E+00
         25   -1    0    0    0    0  0.00000000000E+00  0.00000000000E+00  0.99999998245E-14  0.12500000000E+03  0.12500000000E+03 0.  0.
          5    1    1    0  501    0  0.39473737503E+02 -0.43643049838E+02  0.20524820300E+02  0.62500000000E+02  0.47000000000E+01 0.  1.
         -5    1    1    0    0  501 -0.39473737503E+02  0.43643049838E+02 -0.20524820300E+02  0.62500000000E+02  0.47000000000E+01 0.  1.
</event>
<event>
 3    0  0.4607503E-005  0.9118800E+02  0.7546771E-02  0.1235069E+00
         25   -1    0    0    0    0  0.00000000000E+00  0.00000000000E+00  0.99999998245E-14  0.12500000000E+03  0.12500000000E+03 0.  0.
          5    1    1    0  501    0  0.26863279358E+01  0.31552110097E+02  0.53678748036E+02  0.62500000000E+02  0.47000000000E+01 0. -1.
         -5    1    1    0    0  501 -0.26863279358E+01 -0.31552110097E+02 -0.53678748036E+02  0.62500000000E+02  0.47000000000E+01 0. -1.
</event>
<event>
 3    0  0.4607503E-005  0.9118800E+02  0.7546771E-02  0.1235069E+00
         25   -1    0    0    0    0  0.00000000000E+00  0.00000000000E+00  0.99999998245E-14  0.12500000000E+03  0.12500000000E+03 0.  0.
          5    1    1    0  501    0  0.25305329114E+02 -0.54006122949E+02  0.18086984339E+02  0.62500000000E+02  0.47000000000E+01 0.  1.
         -5    1    1    0    0  501 -0.25305329114E+02  0.54006122949E+02 -0.18086984339E+02  0.62500000000E+02  0.47000000000E+01 0.  1.
</event>
<event>
 3    0  0.4607503E-005  0.9118800E+02  0.7546771E-02  0.1235069E+00
         25   -1    0    0    0    0  0.00000000000E+00  0.00000000000E+00  0.99999998245E-14  0.12500000000E+03  0.12500000000E+03 0.  0.
          5    1    1    0  501    0 -0.16620423351E+02 -0.59794168861E+02 -0.57077927351E+01  0.62500000000E+02  0.47000000000E+01 0. -1.
         -5    1    1    0    0  501  0.16620423351E+02  0.59794168861E+02  0.57077927351E+01  0.62500000000E+02  0.47000000000E+01 0. -1.
</event>
<event>
 3    0  0.4607503E-005  0.9118800E+02  0.7546771E-02  0.1235069E+00
         25   -1    0    0    0    0  0.00000000000E+00  0.00000000000E+00  0.99999998245E-14  0.12500000000E+03  0.12500000000E+03 0.  0.
          5    1    1    0  501    0 -0.56587682923E+02 -0.13578223274E+01 -0.26079694400E+02  0.62500000000E+02  0.47000000000E+01 0. -1.
         -5    1    1    0    0  501  0.56587682923E+02  0.13578223274E+01  0.26079694400E+02  0.62500000000E+02  0.47000000000E+01 0. -1.
</event>
<event>
 3    0  0.4607503E-005  0.9118800E+02  0.7546771E-02  0.1235069E+00
         25   -1    0    0    0    0  0.00000000000E+00  0.00000000000E+00  0.99999998245E-14  0.12500000000E+03  0.12500000000E+03 0.  0.
          5    1    1    0  501    0 -0.23176062287E+02 -0.73350570979E+00  0.57848872990E+02  0.62500000000E+02  0.47000000000E+01 0.  1.
         -5    1    1    0    0  501  0.23176062287E+02  0.73350570979E+00 -0.57848872990E+02  0.62500000000E+02  0.47000000000E+01 0.  1.
</event>
<event>
 3    0  0.4607503E-005  0.9118800E+02  0.7546771E-02  0.1235069E+00
         25   -1    0    0    0    0  0.00000000000E+00  0.00000000000E+00  0.99999998245E-14  0.12500000000E+03  0.12500000000E+03 0.  0.
          5    1    1    0  501    0  0.30449650146E+02  0.43616419526E+02  0.32474401514E+02  0.62500000000E+02  0.47000000000E+01 0. -1.
         -5    1    1    0    0  501 -0.30449650146E+02 -0.43616419526E+02 -0.32474401514E+02  0.62500000000E+02  0.47000000000E+01 0. -1.
</event>
<event>
 3    0  0.4607503E-005  0.9118800E+02  0.7546771E-02  0.1235069E+00
         25   -1    0    0    0    0  0.00000000000E+00  0.00000000000E+00  0.99999998245E-14  0.12500000000E+03  0.12500000000E+03 0.  0.
          5    1    1    0  501    0 -0.37207079780E+01 -0.56752889860E+02  0.25483834576E+02  0.62500000000E+02  0.47000000000E+01 0. -1.
         -5    1    1    0    0  501  0.37207079780E+01  0.56752889860E+02 -0.25483834576E+02  0.62500000000E+02  0.47000000000E+01 0. -1.
</event>
<event>
 3    0  0.4607503E-005  0.9118800E+02  0.7546771E-02  0.1235069E+00
         25   -1    0    0    0    0  0.00000000000E+00  0.00000000000E+00  0.99999998245E-14  0.12500000000E+03  0.12500000000E+03 0.  0.
          5    1    1    0  501    0 -0.53218344351E+02  0.30032212775E+02  0.12248837512E+02  0.62500000000E+02  0.47000000000E+01 0.  1.
         -5    1    1    0    0  501  0.53218344351E+02 -0.30032212775E+02 -0.12248837512E+02  0.62500000000E+02  0.47000000000E+01 0.  1.
</event>
<event>
 3    0  0.4607503E-005  0.9118800E+02  0.7546771E-02  0.1235069E+00
         25   -1    0    0    0    0  0.00000000000E+00  0.00000000000E+00  0.99999998245E-14  0.12500000000E+03  0.12500000000E+03 0.  0.
          5    1    1    0  501    0  0.44844099309E+02  0.40766899125E+02 -0.14533640044E+02  0.62500000000E+02  0.47000000000E+01 0.  1.
         -5    1    1    0    0  501 -0.44844099309E+02 -0.40766899125E+02  0.14533640044E+02  0.62500000000E+02  0.47000000000E+01 0.  1.
</event>
<event>
 3    0  0.4607503E-005  0.9118800E+02  0.7546771E-02  0.1235069E+00
         25   -1    0    0    0    0  0.00000000000E+00  0.00000000000E+00  0.99999998245E-14  0.12500000000E+03  0.12500000000E+03 0.  0.
          5    1    1    0  501    0  0.61707502699E+02 -0.26881157316E+01  0.83137322801E+01  0.62500000000E+02  0.47000000000E+01 0.  1.
         -5    1    1    0    0  501 -0.61707502699E+02  0.26881157316E+01 -0.83137322801E+01  0.62500000000E+02  0.47000000000E+01 0.  1.
</event>
<event>
 3    0  0.4607503E-005  0.9118800E+02  0.7546771E-02  0.1235069E+00
         25   -1    0    0    0    0  0.00000000000E+00  0.00000000000E+00  0.99999998245E-14  0.12500000000E+03  0.12500000000E+03 0.  0.
          5    1    1    0  501    0  0.97532712790E+00 -0.57601223805E+02  0.23776201402E+02  0.62500000000E+02  0.47000000000E+01 0. -1.
         -5    1    1    0    0  501 -0.97532712790E+00  0.57601223805E+02 -0.23776201402E+02  0.62500000000E+02  0.47000000000E+01 0. -1.
</event>
<event>
 3    0  0.4607503E-005  0.9118800E+02  0.7546771E-02  0.1235069E+00
         25   -1    0    0    0    0  0.00000000000E+00  0.00000000000E+00  0.99999998245E-14  0.12500000000E+03  0.12500000000E+03 0.  0.
          5    1    1    0  501    0 -0.46609460047E+02 -0.21574608252E+02 -0.35302330135E+02  0.62500000000E+02  0.47000000000E+01 0.  1.
         -5    1    1    0    0  501  0.46609460047E+02  0.21574608252E+02  0.35302330135E+02  0.62500000000E+02  0.47000000000E+01 0.  1.
</event>
<event>
 3    0  0.4607503E-005  0.9118800E+02  0.7546771E-02  0.1235069E+00
         25   -1    0    0    0    0  0.00000000000E+00  0.00000000000E+00  0.99999998245E-14  0.12500000000E+03  0.12500000000E+03 0.  0.
          5    1    1    0  501    0  0.38082280242E+02 -0.41593727204E+02  0.26530393681E+02  0.62500000000E+02  0.47000000000E+01 0. -1.
         -5    1    1    0    0  501 -0.38082280242E+02  0.41593727204E+02 -0.26530393681E+02  0.62500000000E+02  0.47000000000E+01 0. -1.
</event>
<event>
 3    0  0.4607503E-005  0.9118800E+02  0.7546771E-02  0.1235069E+00
         25   -1    0    0    0    0  0.00000000000E+00  0.00000000000E+00  0.99999998245E-14  0.12500000000E+03  0.12500000000E+03 0.  0.
          5    1    1    0  501    0  0.12878707585E+02  0.55207081430E+02  0.25893571614E+02  0.62500000000E+02  0.47000000000E+01 0.  1.
         -5    1    1    0    0  501 -0.12878707585E+02 -0.55207081430E+02 -0.25893571614E+02  0.62500000000E+02  0.47000000000E+01 0.  1.
</event>
<event>
 3    0  0.4607503E-005  0.9118800E+02  0.7546771E-02  0.1235069E+00
         25   -1    0    0    0    0  0.00000000000E+00  0.00000000000E+00  0.99999998245E-14  0.12500000000E+03  0.12500000000E+03 0.  0.
          5    1    1    0  501    0 -0.29755143680E+02 -0.38208454585E+01 -0.54627763679E+02  0.62500000000E+02  0.47000000000E+01 0.  1.
         -5    1    1    0    0  501  0.29755143680E+02  0.38208454585E+01  0.54627763679E+02  0.62500000000E+02  0.47000000000E+01 0.  1.
</event>
<event>
 3    0  0.4607503E-005  0.9118800E+02  0.7546771E-02  0.1235069E+00
         25   -1    0    0    0    0  0.00000000000E+00  0.00000000000E+00  0.99999998245E-14  0.12500000000E+03  0.12500000000E+03 0.  0.
          5    1    1    0  501    0  0.43988999022E+02 -0.68840207274E+01 -0.43608923670E+02  0.62500000000E+02  0.47000000000E+01 0.  1.
         -5    1    1    0    0  501 -0.43988999022E+02  0.68840207274E+01  0.43608923670E+02  0.62500000000E+02  0.47000000000E+01 0.  1.
</event>
<event>
 3    0  0.4607503E-005  0.9118800E+02  0.7546771E-02  0.1235069E+00
         25   -1    0    0    0    0  0.00000000000E+00  0.00000000000E+00  0.99999998245E-14  0.12500000000E+03  0.12500000000E+03 0.  0.
          5    1    1    0  501    0 -0.39002979073E+02  0.48032579337E+02 -0.74698691867E+01  0.62500000000E+02  0.47000000000E+01 0.  1.
         -5    1    1    0    0  501  0.39002979073E+02 -0.48032579337E+02  0.74698691867E+01  0.62500000000E+02  0.47000000000E+01 0.  1.
</event>
<event>
 3    0  0.4607503E-005  0.9118800E+02  0.7546771E-02  0.1235069E+00
         25   -1    0    0    0    0  0.00000000000E+00  0.00000000000E+00  0.99999998245E-14  0.12500000000E+03  0.12500000000E+03 0.  0.
          5    1    1    0  501    0 -0.14261470125E+01  0.41293008968E+02 -0.46658477419E+02  0.62500000000E+02  0.47000000000E+01 0. -1.
         -5    1    1    0    0  501  0.14261470125E+01 -0.41293008968E+02  0.46658477419E+02  0.62500000000E+02  0.47000000000E+01 0. -1.
</event>
<event>
 3    0  0.4607503E-005  0.9118800E+02  0.7546771E-02  0.1235069E+00
         25   -1    0    0    0    0  0.00000000000E+00  0.00000000000E+00  0.99999998245E-14  0.12500000000E+03  0.12500000000E+03 0.  0.
          5    1    1    0  501    0 -0.45140421389E+02 -0.87809967430E+01 -0.42064194429E+02  0.62500000000E+02  0.47000000000E+01 0. -1.
         -5    1    1    0    0  501  0.45140421389E+02  0.87809967430E+01  0.42064194429E+02  0.62500000000E+02  0.47000000000E+01 0. -1.
</event>
<event>
 3    0  0.4607503E-005  0.9118800E+02  0.7546771E-02  0.1235069E+00
         25   -1    0    0    0    0  0.00000000000E+00  0.00000000000E+00  0.99999998245E-14  0.12500000000E+03  0.12500000000E+03 0.  0.
          5    1    1    0  501    0  0.13214975862E+02  0.82855842753E+01  0.60339651194E+02  0.62500000000E+02  0.47000000000E+01 0. -1.
         -5    1    1    0    0  501 -0.13214975862E+02 -0.82855842753E+01 -0.60339651194E+02  0.62500000000E+02  0.47000000000E+01 0. -1.
</event>
<event>
 3    0  0.4607503E-005  0.9118800E+02  0.7546771E-02  0.1235069E+00
         25   -1    0    0    0    0  0.00000000000E+00  0.00000000000E+00  0.99999998245E-14  0.12500000000E+03  0.12500000000E+03 0.  0.
          5    1    1    0  501    0 -0.41085661017E+02  0.13640849232E+02  0.44833644632E+02  0.62500000000E+02  0.47000000000E+01 0. -1.
         -5    1    1    0    0  501  0.41085661017E+02 -0.13640849232E+02 -0.44833644632E+02  0.62500000000E+02  0.47000000000E+01 0. -1.
</event>
<event>
 3    0  0.4607503E-005  0.9118800E+02  0.7546771E-02  0.1235069E+00
         25   -1    0    0    0    0  0.00000000000E+00  0.00000000000E+00  0.99999998245E-14  0.12500000000E+03  0.12500000000E+03 0.  0.
          5    1    1    0  501    0  0.37860945829E+02 -0.32096536240E+02  0.37689801569E+02  0.62500000000E+02  0.47000000000E+01 0.  1.
         -5    1    1    0    0  501 -0.37860945829E+02  0.32096536240E+02 -0.37689801569E+02  0.62500000000E+02  0.47000000000E+01 0.  1.
</event>
<event>
 3    0  0.4607503E-005  0.9118800E+02  0.7546771E-02  0.1235069E+00
         25   -1    0    0    0    0  0.00000000000E+00  0.00000000000E+00  0.99999998245E-14  0.12500000000E+03  0.12500000000E+03 0.  0.
          5    1    1    0  501    0 -0.30032582421E+02  0.48719626516E+02  0.24669859855E+02  0.62500000000E+02  0.47000000000E+01 0.  1.
         -5    1    1    0    0  501  0.30032582421E+02 -0.48719626516E+02 -0.24669859855E+02  0.62500000000E+02  0.47000000000E+01 0.  1.
</event>
<event>
 3    0  0.4607503E-005  0.9118800E+02  0.7546771E-02  0.1235069E+00
         25   -1    0    0    0    0  0.00000000000E+00  0.00000000000E+00  0.99999998245E-14  0.12500000000E+03  0.12500000000E+03 0.  0.
          5    1    1    0  501    0  0.22110472476E+02 -0.55056643561E+02 -0.19080173130E+02  0.62500000000E+02  0.47000000000E+01 0. -1.
         -5    1    1    0    0  501 -0.22110472476E+02  0.55056643561E+02  0.19080173130E+02  0.62500000000E+02  0.47000000000E+01 0. -1.
</event>
<event>
 3    0  0.4607503E-005  0.9118800E+02  0.7546771E-02  0.1235069E+00
         25   -1    0    0    0    0  0.00000000000E+00  0.00000000000E+00  0.99999998245E-14  0.12500000000E+03  0.12500000000E+03 0.  0.
          5    1    1    0  501    0  0.60194512804E+02  0.89613925147E+01 -0.13434063884E+02  0.62500000000E+02  0.47000000000E+01 0. -1.
         -5    1    1    0    0  501 -0.60194512804E+02 -0.89613925147E+01  0.13434063884E+02  0.62500000000E+02  0.47000000000E+01 0. -1.
</event>
<event>
 3    0  0.4607503E-005  0.9118800E+02  0.7546771E-02  0.1235069E+00
         25   -1    0    0    0    0  0.00000000000E+00  0.00000000000E+00  0.99999998245E-14  0.12500000000E+03  0.12500000000E+03 0.  0.
          5    1    1    0  501    0 -0.20751701048E+01 -0.42499427800E+01  0.62143315452E+02  0.62500000000E+02  0.47000000000E+01 0. -1.
         -5    1    1    0    0  501  0.20751701048E+01  0.42499427800E+01 -0.62143315452E+02  0.62500000000E+02  0.47000000000E+01 0. -1.
</event>
<event>
 3    0  0.4607503E-005  0.9118800E+02  0.7546771E-02  0.1235069E+00
         25   -1    0    0    0    0  0.00000000000E+00  0.00000000000E+00  0.99999998245E-14  0.12500000000E+03  0.12500000000E+03 0.  0.
          5    1    1    0  501    0  0.12431714936E+02 -0.10542756662E+02 -0.60153659454E+02  0.62500000000E+02  0.47000000000E+01 0.  1.
         -5    1    1    0    0  501 -0.12431714936E+02  0.10542756662E+02  0.60153659454E+02  0.62500000000E+02  0.47000000000E+01 0.  1.
</event>
<event>
 3    0  0.4607503E-005  0.9118800E+02  0.7546771E-02  0.1235069E+00
         25   -1    0    0    0    0  0.00000000000E+00  0.00000000000E+00  0.99999998245E-14  0.12500000000E+03  0.12500000000E+03 0.  0.
          5    1    1    0  501    0  0.17654758668E+02 -0.50484608540E+02 -0.31996465382E+02  0.62500000000E+02  0.47000000000E+01 0. -1.
         -5    1    1    0    0  501 -0.17654758668E+02  0.50484608540E+02  0.31996465382E+02  0.62500000000E+02  0.47000000000E+01 0. -1.
</event>
<event>
 3    0  0.4607503E-005  0.9118800E+02  0.7546771E-02  0.1235069E+00
         25   -1    0    0    0    0  0.00000000000E+00  0.00000000000E+00  0.99999998245E-14  0.12500000000E+03  0.12500000000E+03 0.  0.
          5    1    1    0  501    0  0.46696656275E+02  0.33384121655E+02 -0.24271026227E+02  0.62500000000E+02  0.47000000000E+01 0.  1.
         -5    1    1    0    0  501 -0.46696656275E+02 -0.33384121655E+02  0.24271026227E+02  0.62500000000E+02  0.47000000000E+01 0.  1.
</event>
<event>
 3    0  0.4607503E-005  0.9118800E+02  0.7546771E-02  0.1235069E+00
         25   -1    0    0    0    0  0.00000000000E+00  0.00000000000E+00  0.99999998245E-14  0.12500000000E+03  0.12500000000E+03 0.  0.
          5    1    1    0  501    0 -0.90566168994E+01 -0.47056039769E+02  0.39848046522E+02  0.62500000000E+02  0.47000000000E+01 0.  1.
         -5    1    1    0    0  501  0.90566168994E+01  0.47056039769E+02 -0.39848046522E+02  0.62500000000E+02  0.47000000000E+01 0.  1.
</event>
<event>
 3    0  0.4607503E-005  0.9118800E+02  0.7546771E-02  0.1235069E+00
         25   -1    0    0    0    0  0.00000000000E+00  0.00000000000E+00  0.99999998245E-14  0.12500000000E+03  0.12500000000E+03 0.  0.
          5    1    1    0  501    0  0.47630107996E+02  0.34578529478E+02  0.20490439514E+02  0.62500000000E+02  0.47000000000E+01 0. -1.
         -5    1    1    0    0  501 -0.47630107996E+02 -0.34578529478E+02 -0.20490439514E+02  0.62500000000E+02  0.47000000000E+01 0. -1.
</event>
<event>
 3    0  0.4607503E-005  0.9118800E+02  0.7546771E-02  0.1235069E+00
         25   -1    0    0    0    0  0.00000000000E+00  0.00000000000E+00  0.99999998245E-14  0.12500000000E+03  0.12500000000E+03 0.  0.
          5    1    1    0  501    0  0.13093443005E+02 -0.24470850665E+02  0.55802322694E+02  0.62500000000E+02  0.47000000000E+01 0.  1.
         -5    1    1    0    0  501 -0.13093443005E+02  0.24470850665E+02 -0.55802322694E+02  0.62500000000E+02  0.47000000000E+01 0.  1.
</event>
<event>
 3    0  0.4607503E-005  0.9118800E+02  0.7546771E-02  0.1235069E+00
         25   -1    0    0    0    0  0.00000000000E+00  0.00000000000E+00  0.99999998245E-14  0.12500000000E+03  0.12500000000E+03 0.  0.
          5    1    1    0  501    0  0.12377019435E+02  0.10281832850E+02  0.60210076425E+02  0.62500000000E+02  0.47000000000E+01 0.  1.
         -5    1    1    0    0  501 -0.12377019435E+02 -0.10281832850E+02 -0.60210076425E+02  0.62500000000E+02  0.47000000000E+01 0.  1.
</event>
<event>
 3    0  0.4607503E-005  0.9118800E+02  0.7546771E-02  0.1235069E+00
         25   -1    0    0    0    0  0.00000000000E+00  0.00000000000E+00  0.99999998245E-14  0.12500000000E+03  0.12500000000E+03 0.  0.
          5    1    1    0  501    0  0.13838185261E+02 -0.41980664630E+01 -0.60622115327E+02  0.62500000000E+02  0.47000000000E+01 0. -1.
         -5    1    1    0    0  501 -0.13838185261E+02  0.41980664630E+01  0.60622115327E+02  0.62500000000E+02  0.47000000000E+01 0. -1.
</event>
<event>
 3    0  0.4607503E-005  0.9118800E+02  0.7546771E-02  0.1235069E+00
         25   -1    0    0    0    0  0.00000000000E+00  0.00000000000E+00  0.99999998245E-14  0.12500000000E+03  0.12500000000E+03 0.  0.
          5    1    1    0  501    0 -0.50676892691E+02 -0.42029693702E+01 -0.36032590743E+02  0.62500000000E+02  0.47000000000E+01 0. -1.
         -5    1    1    0    0  501  0.50676892691E+02  0.42029693702E+01  0.36032590743E+02  0.62500000000E+02  0.47000000000E+01 0. -1.
</event>
<event>
 3    0  0.4607503E-005  0.9118800E+02  0.7546771E-02  0.1235069E+00
         25   -1    0    0    0    0  0.00000000000E+00  0.00000000000E+00  0.99999998245E-14  0.12500000000E+03  0.12500000000E+03 0.  0.
          5    1    1    0  501    0  0.51350236705E+02  0.32987257137E+02  0.12615627489E+02  0.62500000000E+02  0.47000000000E+01 0.  1.
         -5    1    1    0    0  501 -0.51350236705E+02 -0.32987257137E+02 -0.12615627489E+02  0.62500000000E+02  0.47000000000E+01 0.  1.
</event>
<event>
 3    0  0.4607503E-005  0.9118800E+02  0.7546771E-02  0.1235069E+00
         25   -1    0    0    0    0  0.00000000000E+00  0.00000000000E+00  0.99999998245E-14  0.12500000000E+03  0.12500000000E+03 0.  0.
          5    1    1    0  501    0 -0.34416106400E+01 -0.58159042220E+02 -0.22132354694E+02  0.62500000000E+02  0.47000000000E+01 0. -1.
         -5    1    1    0    0  501  0.34416106400E+01  0.58159042220E+02  0.22132354694E+02  0.62500000000E+02  0.47000000000E+01 0. -1.
</event>
<event>
 3    0  0.4607503E-005  0.9118800E+02  0.7546771E-02  0.1235069E+00
         25   -1    0    0    0    0  0.00000000000E+00  0.00000000000E+00  0.99999998245E-14  0.12500000000E+03  0.12500000000E+03 0.  0.
          5    1    1    0  501    0 -0.30802178664E+02  0.34791117011E+02 -0.41532685522E+02  0.62500000000E+02  0.47000000000E+01 0.  1.
         -5    1    1    0    0  501  0.30802178664E+02 -0.34791117011E+02  0.41532685522E+02  0.62500000000E+02  0.47000000000E+01 0.  1.
</event>
<event>
 3    0  0.4607503E-005  0.9118800E+02  0.7546771E-02  0.1235069E+00
         25   -1    0    0    0    0  0.00000000000E+00  0.00000000000E+00  0.99999998245E-14  0.12500000000E+03  0.12500000000E+03 0.  0.
          5    1    1    0  501    0  0.42293635105E+02  0.11332137731E+01 -0.45761602421E+02  0.62500000000E+02  0.47000000000E+01 0. -1.
         -5    1    1    0    0  501 -0.42293635105E+02 -0.11332137731E+01  0.45761602421E+02  0.62500000000E+02  0.47000000000E+01 0. -1.
</event>
<event>
 3    0  0.4607503E-005  0.9118800E+02  0.7546771E-02  0.1235069E+00
         25   -1    0    0    0    0  0.00000000000E+00  0.00000000000E+00  0.99999998245E-14  0.12500000000E+03  0.12500000000E+03 0.  0.
          5    1    1    0  501    0 -0.14816277195E+01 -0.23365070592E+01 -0.62261589396E+02  0.62500000000E+02  0.47000000000E+01 0.  1.
         -5    1    1    0    0  501  0.14816277195E+01  0.23365070592E+01  0.62261589396E+02  0.62500000000E+02  0.47000000000E+01 0.  1.
</event>
<event>
 3    0  0.4607503E-005  0.9118800E+02  0.7546771E-02  0.1235069E+00
         25   -1    0    0    0    0  0.00000000000E+00  0.00000000000E+00  0.99999998245E-14  0.12500000000E+03  0.12500000000E+03 0.  0.
          5    1    1    0  501    0  0.15632748222E+02 -0.59932583853E+02  0.69182783820E+01  0.62500000000E+02  0.47000000000E+01 0.  1.
         -5    1    1    0    0  501 -0.15632748222E+02  0.59932583853E+02 -0.69182783820E+01  0.62500000000E+02  0.47000000000E+01 0.  1.
</event>
<event>
 3    0  0.4607503E-005  0.9118800E+02  0.7546771E-02  0.1235069E+00
         25   -1    0    0    0    0  0.00000000000E+00  0.00000000000E+00  0.99999998245E-14  0.12500000000E+03  0.12500000000E+03 0.  0.
          5    1    1    0  501    0  0.21086346055E+02  0.12317381698E+02 -0.57339411561E+02  0.62500000000E+02  0.47000000000E+01 0. -1.
         -5    1    1    0    0  501 -0.21086346055E+02 -0.12317381698E+02  0.57339411561E+02  0.62500000000E+02  0.47000000000E+01 0. -1.
</event>
<event>
 3    0  0.4607503E-005  0.9118800E+02  0.7546771E-02  0.1235069E+00
         25   -1    0    0    0    0  0.00000000000E+00  0.00000000000E+00  0.99999998245E-14  0.12500000000E+03  0.12500000000E+03 0.  0.
          5    1    1    0  501    0 -0.30808344308E+02  0.53692002730E+02  0.72232100780E+01  0.62500000000E+02  0.47000000000E+01 0.  1.
         -5    1    1    0    0  501  0.30808344308E+02 -0.53692002730E+02 -0.72232100780E+01  0.62500000000E+02  0.47000000000E+01 0.  1.
</event>
<event>
 3    0  0.4607503E-005  0.9118800E+02  0.7546771E-02  0.1235069E+00
         25   -1    0    0    0    0  0.00000000000E+00  0.00000000000E+00  0.99999998245E-14  0.12500000000E+03  0.12500000000E+03 0.  0.
          5    1    1    0  501    0  0.32236556461E+02 -0.42198442411E+02  0.32622934964E+02  0.62500000000E+02  0.47000000000E+01 0. -1.
         -5    1    1    0    0  501 -0.32236556461E+02  0.42198442411E+02 -0.32622934964E+02  0.62500000000E+02  0.47000000000E+01 0. -1.
</event>
<event>
 3    0  0.4607503E-005  0.9118800E+02  0.7546771E-02  0.1235069E+00
         25   -1    0    0    0    0  0.00000000000E+00  0.00000000000E+00  0.99999998245E-14  0.12500000000E+03  0.12500000000E+03 0.  0.
          5    1    1    0  501    0  0.26085168129E+02 -0.43899396011E+02 -0.35729078264E+02  0.62500000000E+02  0.47000000000E+01 0.  1.
         -5    1    1    0    0  501 -0.26085168129E+02  0.43899396011E+02  0.35729078264E+02  0.62500000000E+02  0.47000000000E+01 0.  1.
</event>
<event>
 3    0  0.4607503E-005  0.9118800E+02  0.7546771E-02  0.1235069E+00
         25   -1    0    0    0    0  0.00000000000E+00  0.00000000000E+00  0.99999998245E-14  0.12500000000E+03  0.12500000000E+03 0.  0.
          5    1    1    0  501    0 -0.57379545891E+02 -0.28284621608E+01 -0.24160867433E+02  0.62500000000E+02  0.47000000000E+01 0. -1.
         -5    1    1    0    0  501  0.57379545891E+02  0.28284621608E+01  0.24160867433E+02  0.62500000000E+02  0.47000000000E+01 0. -1.
</event>
<event>
 3    0  0.4607503E-005  0.9118800E+02  0.7546771E-02  0.1235069E+00
         25   -1    0    0    0    0  0.00000000000E+00  0.00000000000E+00  0.99999998245E-14  0.12500000000E+03  0.12500000000E+03 0.  0.
          5    1    1    0  501    0  0.35910851451E+02  0.34903633543E+02  0.37098613365E+02  0.62500000000E+02  0.47000000000E+01 0. -1.
         -5    1    1    0    0  501 -0.35910851451E+02 -0.34903633543E+02 -0.37098613365E+02  0.62500000000E+02  0.47000000000E+01 0. -1.
</event>
<event>
 3    0  0.4607503E-005  0.9118800E+02  0.7546771E-02  0.1235069E+00
         25   -1    0    0    0    0  0.00000000000E+00  0.00000000000E+00  0.99999998245E-14  0.12500000000E+03  0.12500000000E+03 0.  0.
          5    1    1    0  501    0 -0.54022821561E+01  0.18541751205E+02 -0.59255200698E+02  0.62500000000E+02  0.47000000000E+01 0.  1.
         -5    1    1    0    0  501  0.54022821561E+01 -0.18541751205E+02  0.59255200698E+02  0.62500000000E+02  0.47000000000E+01 0.  1.
</event>
<event>
 3    0  0.4607503E-005  0.9118800E+02  0.7546771E-02  0.1235069E+00
         25   -1    0    0    0    0  0.00000000000E+00  0.00000000000E+00  0.99999998245E-14  0.12500000000E+03  0.12500000000E+03 0.  0.
          5    1    1    0  501    0  0.25941942936E+02 -0.55841073517E+02 -0.96410634860E+01  0.62500000000E+02  0.47000000000E+01 0. -1.
         -5    1    1    0    0  501 -0.25941942936E+02  0.55841073517E+02  0.96410634860E+01  0.62500000000E+02  0.47000000000E+01 0. -1.
</event>
<event>
 3    0  0.4607503E-005  0.9118800E+02  0.7546771E-02  0.1235069E+00
         25   -1    0    0    0    0  0.00000000000E+00  0.00000000000E+00  0.99999998245E-14  0.12500000000E+03  0.12500000000E+03 0.  0.
          5    1    1    0  501    0  0.32787211590E+02 -0.10039651066E+02  0.52041946184E+02  0.62500000000E+02  0.47000000000E+01 0.  1.
         -5    1    1    0    0  501 -0.32787211590E+02  0.10039651066E+02 -0.52041946184E+02  0.62500000000E+02  0.47000000000E+01 0.  1.
</event>
<event>
 3    0  0.4607503E-005  0.9118800E+02  0.7546771E-02  0.1235069E+00
         25   -1    0    0    0    0  0.00000000000E+00  0.00000000000E+00  0.99999998245E-14  0.12500000000E+03  0.12500000000E+03 0.  0.
          5    1    1    0  501    0 -0.15245685011E+02 -0.48932237129E+02  0.35459346555E+02  0.62500000000E+02  0.47000000000E+01 0.  1.
         -5    1    1    0    0  501  0.15245685011E+02  0.48932237129E+02 -0.35459346555E+02  0.62500000000E+02  0.47000000000E+01 0.  1.
</event>
<event>
 3    0  0.4607503E-005  0.9118800E+02  0.7546771E-02  0.1235069E+00
         25   -1    0    0    0    0  0.00000000000E+00  0.00000000000E+00  0.99999998245E-14  0.12500000000E+03  0.12500000000E+03 0.  0.
          5    1    1    0  501    0 -0.54042889124E+02  0.29765841977E+02 -0.88045889501E+01  0.62500000000E+02  0.47000000000E+01 0. -1.
         -5    1    1    0    0  501  0.54042889124E+02 -0.29765841977E+02  0.88045889501E+01  0.62500000000E+02  0.47000000000E+01 0. -1.
</event>
<event>
 3    0  0.4607503E-005  0.9118800E+02  0.7546771E-02  0.1235069E+00
         25   -1    0    0    0    0  0.00000000000E+00  0.00000000000E+00  0.99999998245E-14  0.12500000000E+03  0.12500000000E+03 0.  0.
          5    1    1    0  501    0 -0.28120647539E+02  0.52652653502E+02  0.17918907924E+02  0.62500000000E+02  0.47000000000E+01 0. -1.
         -5    1    1    0    0  501  0.28120647539E+02 -0.52652653502E+02 -0.17918907924E+02  0.62500000000E+02  0.47000000000E+01 0. -1.
</event>
<event>
 3    0  0.4607503E-005  0.9118800E+02  0.7546771E-02  0.1235069E+00
         25   -1    0    0    0    0  0.00000000000E+00  0.00000000000E+00  0.99999998245E-14  0.12500000000E+03  0.12500000000E+03 0.  0.
          5    1    1    0  501    0  0.35712938464E+02 -0.50867715972E+02  0.46066797218E+01  0.62500000000E+02  0.47000000000E+01 0.  1.
         -5    1    1    0    0  501 -0.35712938464E+02  0.50867715972E+02 -0.46066797218E+01  0.62500000000E+02  0.47000000000E+01 0.  1.
</event>
<event>
 3    0  0.4607503E-005  0.9118800E+02  0.7546771E-02  0.1235069E+00
         25   -1    0    0    0    0  0.00000000000E+00  0.00000000000E+00  0.99999998245E-14  0.12500000000E+03  0.12500000000E+03 0.  0.
          5    1    1    0  501    0 -0.44074408212E+02 -0.28527802182E+02 -0.33582302533E+02  0.62500000000E+02  0.47000000000E+01 0.  1.
         -5    1    1    0    0  501  0.44074408212E+02  0.28527802182E+02  0.33582302533E+02  0.62500000000E+02  0.47000000000E+01 0.  1.
</event>
<event>
 3    0  0.4607503E-005  0.9118800E+02  0.7546771E-02  0.1235069E+00
         25   -1    0    0    0    0  0.00000000000E+00  0.00000000000E+00  0.99999998245E-14  0.12500000000E+03  0.12500000000E+03 0.  0.
          5    1    1    0  501    0  0.19859301397E+02  0.34506491620E+02  0.47948620252E+02  0.62500000000E+02  0.47000000000E+01 0.  1.
         -5    1    1    0    0  501 -0.19859301397E+02 -0.34506491620E+02 -0.47948620252E+02  0.62500000000E+02  0.47000000000E+01 0.  1.
</event>
<event>
 3    0  0.4607503E-005  0.9118800E+02  0.7546771E-02  0.1235069E+00
         25   -1    0    0    0    0  0.00000000000E+00  0.00000000000E+00  0.99999998245E-14  0.12500000000E+03  0.12500000000E+03 0.  0.
          5    1    1    0  501    0  0.35789820873E+02  0.49142371794E+01 -0.50784830361E+02  0.62500000000E+02  0.47000000000E+01 0. -1.
         -5    1    1    0    0  501 -0.35789820873E+02 -0.49142371794E+01  0.50784830361E+02  0.62500000000E+02  0.47000000000E+01 0. -1.
</event>
<event>
 3    0  0.4607503E-005  0.9118800E+02  0.7546771E-02  0.1235069E+00
         25   -1    0    0    0    0  0.00000000000E+00  0.00000000000E+00  0.99999998245E-14  0.12500000000E+03  0.12500000000E+03 0.  0.
          5    1    1    0  501    0  0.17479684770E+02  0.24371964821E+02 -0.54631748563E+02  0.62500000000E+02  0.47000000000E+01 0.  1.
         -5    1    1    0    0  501 -0.17479684770E+02 -0.24371964821E+02  0.54631748563E+02  0.62500000000E+02  0.47000000000E+01 0.  1.
</event>
<event>
 3    0  0.4607503E-005  0.9118800E+02  0.7546771E-02  0.1235069E+00
         25   -1    0    0    0    0  0.00000000000E+00  0.00000000000E+00  0.99999998245E-14  0.12500000000E+03  0.12500000000E+03 0.  0.
          5    1    1    0  501    0 -0.41127127316E+02 -0.18908990516E+02  0.42838878094E+02  0.62500000000E+02  0.47000000000E+01 0. -1.
         -5    1    1    0    0  501  0.41127127316E+02  0.18908990516E+02 -0.42838878094E+02  0.62500000000E+02  0.47000000000E+01 0. -1.
</event>
<event>
 3    0  0.4607503E-005  0.9118800E+02  0.7546771E-02  0.1235069E+00
         25   -1    0    0    0    0  0.00000000000E+00  0.00000000000E+00  0.99999998245E-14  0.12500000000E+03  0.12500000000E+03 0.  0.
          5    1    1    0  501    0  0.23808764338E+02 -0.58014333913E+01 -0.57303107344E+02  0.62500000000E+02  0.47000000000E+01 0.  1.
         -5    1    1    0    0  501 -0.23808764338E+02  0.58014333913E+01  0.57303107344E+02  0.62500000000E+02  0.47000000000E+01 0.  1.
</event>
<event>
 3    0  0.4607503E-005  0.9118800E+02  0.7546771E-02  0.1235069E+00
         25   -1    0    0    0    0  0.00000000000E+00  0.00000000000E+00  0.99999998245E-14  0.12500000000E+03  0.12500000000E+03 0.  0.
          5    1    1    0  501    0 -0.39501725473E+02 -0.41193991403E+02 -0.25036548425E+02  0.62500000000E+02  0.47000000000E+01 0. -1.
         -5    1    1    0    0  501  0.39501725473E+02  0.41193991403E+02  0.25036548425E+02  0.62500000000E+02  0.47000000000E+01 0. -1.
</event>
<event>
 3    0  0.4607503E-005  0.9118800E+02  0.7546771E-02  0.1235069E+00
         25   -1    0    0    0    0  0.00000000000E+00  0.00000000000E+00  0.99999998245E-14  0.12500000000E+03  0.12500000000E+03 0.  0.
          5    1    1    0  501    0  0.82959950639E+01  0.48715322591E+02  0.37975700266E+02  0.62500000000E+02  0.47000000000E+01 0. -1.
         -5    1    1    0    0  501 -0.82959950639E+01 -0.48715322591E+02 -0.37975700266E+02  0.62500000000E+02  0.47000000000E+01 0. -1.
</event>
<event>
 3    0  0.4607503E-005  0.9118800E+02  0.7546771E-02  0.1235069E+00
         25   -1    0    0    0    0  0.00000000000E+00  0.00000000000E+00  0.99999998245E-14  0.12500000000E+03  0.12500000000E+03 0.  0.
          5    1    1    0  501    0  0.58511525488E+02  0.20387807308E+02  0.67006490890E+01  0.62500000000E+02  0.47000000000E+01 0. -1.
         -5    1    1    0    0  501 -0.58511525488E+02 -0.20387807308E+02 -0.67006490890E+01  0.62500000000E+02  0.47000000000E+01 0. -1.
</event>
<event>
 3    0  0.4607503E-005  0.9118800E+02  0.7546771E-02  0.1235069E+00
         25   -1    0    0    0    0  0.00000000000E+00  0.00000000000E+00  0.99999998245E-14  0.12500000000E+03  0.12500000000E+03 0.  0.
          5    1    1    0  501    0 -0.20130506049E+02 -0.57326514947E+02  0.13877802791E+02  0.62500000000E+02  0.47000000000E+01 0.  1.
         -5    1    1    0    0  501  0.20130506049E+02  0.57326514947E+02 -0.13877802791E+02  0.62500000000E+02  0.47000000000E+01 0.  1.
</event>
<event>
 3    0  0.4607503E-005  0.9118800E+02  0.7546771E-02  0.1235069E+00
         25   -1    0    0    0    0  0.00000000000E+00  0.00000000000E+00  0.99999998245E-14  0.12500000000E+03  0.12500000000E+03 0.  0.
          5    1    1    0  501    0 -0.27696221756E+02  0.52792890152E+02  0.18165628253E+02  0.62500000000E+02  0.47000000000E+01 0. -1.
         -5    1    1    0    0  501  0.27696221756E+02 -0.52792890152E+02 -0.18165628253E+02  0.62500000000E+02  0.47000000000E+01 0. -1.
</event>
<event>
 3    0  0.4607503E-005  0.9118800E+02  0.7546771E-02  0.1235069E+00
         25   -1    0    0    0    0  0.00000000000E+00  0.00000000000E+00  0.99999998245E-14  0.12500000000E+03  0.12500000000E+03 0.  0.
          5    1    1    0  501    0  0.90689166504E+01  0.61625100368E+02  0.20644019581E+01  0.62500000000E+02  0.47000000000E+01 0. -1.
         -5    1    1    0    0  501 -0.90689166504E+01 -0.61625100368E+02 -0.20644019581E+01  0.62500000000E+02  0.47000000000E+01 0. -1.
</event>
<event>
 3    0  0.4607503E-005  0.9118800E+02  0.7546771E-02  0.1235069E+00
         25   -1    0    0    0    0  0.00000000000E+00  0.00000000000E+00  0.99999998245E-14  0.12500000000E+03  0.12500000000E+03 0.  0.
          5    1    1    0  501    0  0.37226778170E+02  0.48771486680E+02  0.10939336088E+02  0.62500000000E+02  0.47000000000E+01 0.  1.
         -5    1    1    0    0  501 -0.37226778170E+02 -0.48771486680E+02 -0.10939336088E+02  0.62500000000E+02  0.47000000000E+01 0.  1.
</event>
<event>
 3    0  0.4607503E-005  0.9118800E+02  0.7546771E-02  0.1235069E+00
         25   -1    0    0    0    0  0.00000000000E+00  0.00000000000E+00  0.99999998245E-14  0.12500000000E+03  0.12500000000E+03 0.  0.
          5    1    1    0  501    0 -0.10682922113E+02 -0.54998637467E+02  0.27298077807E+02  0.62500000000E+02  0.47000000000E+01 0.  1.
         -5    1    1    0    0  501  0.10682922113E+02  0.54998637467E+02 -0.27298077807E+02  0.62500000000E+02  0.47000000000E+01 0.  1.
</event>
<event>
 3    0  0.4607503E-005  0.9118800E+02  0.7546771E-02  0.1235069E+00
         25   -1    0    0    0    0  0.00000000000E+00  0.00000000000E+00  0.99999998245E-14  0.12500000000E+03  0.12500000000E+03 0.  0.
          5    1    1    0  501    0 -0.24331114513E+02  0.14528029181E+02  0.55507596189E+02  0.62500000000E+02  0.47000000000E+01 0.  1.
         -5    1    1    0    0  501  0.24331114513E+02 -0.14528029181E+02 -0.55507596189E+02  0.62500000000E+02  0.47000000000E+01 0.  1.
</event>
<event>
 3    0  0.4607503E-005  0.9118800E+02  0.7546771E-02  0.1235069E+00
         25   -1    0    0    0    0  0.00000000000E+00  0.00000000000E+00  0.99999998245E-14  0.12500000000E+03  0.12500000000E+03 0.  0.
          5    1    1    0  501    0  0.17049833516E+02  0.38339558055E+02 -0.46081899540E+02  0.62500000000E+02  0.47000000000E+01 0. -1.
         -5    1    1    0    0  501 -0.17049833516E+02 -0.38339558055E+02  0.46081899540E+02  0.62500000000E+02  0.47000000000E+01 0. -1.
</event>
<event>
 3    0  0.4607503E-005  0.9118800E+02  0.7546771E-02  0.1235069E+00
         25   -1    0    0    0    0  0.00000000000E+00  0.00000000000E+00  0.99999998245E-14  0.12500000000E+03  0.12500000000E+03 0.  0.
          5    1    1    0  501    0  0.41121672765E+02 -0.46396033607E+02 -0.63699367748E+01  0.62500000000E+02  0.47000000000E+01 0.  1.
         -5    1    1    0    0  501 -0.41121672765E+02  0.46396033607E+02  0.63699367748E+01  0.62500000000E+02  0.47000000000E+01 0.  1.
</event>
<event>
 3    0  0.4607503E-005  0.9118800E+02  0.7546771E-02  0.1235069E+00
         25   -1    0    0    0    0  0.00000000000E+00  0.00000000000E+00  0.99999998245E-14  0.12500000000E+03  0.12500000000E+03 0.  0.
          5    1    1    0  501    0  0.53796361912E+02 -0.25991735308E+02 -0.17735307742E+02  0.62500000000E+02  0.47000000000E+01 0. -1.
         -5    1    1    0    0  501 -0.53796361912E+02  0.25991735308E+02  0.17735307742E+02  0.62500000000E+02  0.47000000000E+01 0. -1.
</event>
<event>
 3    0  0.4607503E-005  0.9118800E+02  0.7546771E-02  0.1235069E+00
         25   -1    0    0    0    0  0.00000000000E+00  0.00000000000E+00  0.99999998245E-14  0.12500000000E+03  0.12500000000E+03 0.  0.
          5    1    1    0  501    0  0.22518653949E+02  0.13936328694E+00  0.58112398008E+02  0.62500000000E+02  0.47000000000E+01 0. -1.
         -5    1    1    0    0  501 -0.22518653949E+02 -0.13936328694E+00 -0.58112398008E+02  0.62500000000E+02  0.47000000000E+01 0. -1.
</event>
<event>
 3    0  0.4607503E-005  0.9118800E+02  0.7546771E-02  0.1235069E+00
         25   -1    0    0    0    0  0.00000000000E+00  0.00000000000E+00  0.99999998245E-14  0.12500000000E+03  0.12500000000E+03 0.  0.
          5    1    1    0  501    0 -0.35324753355E+02 -0.48474537384E+02 -0.16927522730E+02  0.62500000000E+02  0.47000000000E+01 0.  1.
         -5    1    1    0    0  501  0.35324753355E+02  0.48474537384E+02  0.16927522730E+02  0.62500000000E+02  0.47000000000E+01 0.  1.
</event>
<event>
 3    0  0.4607503E-005  0.9118800E+02  0.7546771E-02  0.1235069E+00
         25   -1    0    0    0    0  0.00000000000E+00  0.00000000000E+00  0.99999998245E-14  0.12500000000E+03  0.12500000000E+03 0.  0.
          5    1    1    0  501    0 -0.58868634180E+02  0.17517317826E+02  0.10572960133E+02  0.62500000000E+02  0.47000000000E+01 0. -1.
         -5    1    1    0    0  501  0.58868634180E+02 -0.17517317826E+02 -0.10572960133E+02  0.62500000000E+02  0.47000000000E+01 0. -1.
</event>
<event>
 3    0  0.4607503E-005  0.9118800E+02  0.7546771E-02  0.1235069E+00
         25   -1    0    0    0    0  0.00000000000E+00  0.00000000000E+00  0.99999998245E-14  0.12500000000E+03  0.12500000000E+03 0.  0.
          5    1    1    0  501    0 -0.55439917662E+02 -0.28001205502E+02 -0.51485939897E+01  0.62500000000E+02  0.47000000000E+01 0.  1.
         -5    1    1    0    0  501  0.55439917662E+02  0.28001205502E+02  0.51485939897E+01  0.62500000000E+02  0.47000000000E+01 0.  1.
</event>
<event>
 3    0  0.4607503E-005  0.9118800E+02  0.7546771E-02  0.1235069E+00
         25   -1    0    0    0    0  0.00000000000E+00  0.00000000000E+00  0.99999998245E-14  0.12500000000E+03  0.12500000000E+03 0.  0.
          5    1    1    0  501    0  0.43191908728E+02  0.21471925622E+02 -0.39466130169E+02  0.62500000000E+02  0.47000000000E+01 0.  1.
         -5    1    1    0    0  501 -0.43191908728E+02 -0.21471925622E+02  0.39466130169E+02  0.62500000000E+02  0.47000000000E+01 0.  1.
</event>
<event>
 3    0  0.4607503E-005  0.9118800E+02  0.7546771E-02  0.1235069E+00
         25   -1    0    0    0    0  0.00000000000E+00  0.00000000000E+00  0.99999998245E-14  0.12500000000E+03  0.12500000000E+03 0.  0.
          5    1    1    0  501    0  0.33092581541E+02  0.51555031357E+02  0.11450754941E+02  0.62500000000E+02  0.47000000000E+01 0.  1.
         -5    1    1    0    0  501 -0.33092581541E+02 -0.51555031357E+02 -0.11450754941E+02  0.62500000000E+02  0.47000000000E+01 0.  1.
</event>
<event>
 3    0  0.4607503E-005  0.9118800E+02  0.7546771E-02  0.1235069E+00
         25   -1    0    0    0    0  0.00000000000E+00  0.00000000000E+00  0.99999998245E-14  0.12500000000E+03  0.12500000000E+03 0.  0.
          5    1    1    0  501    0 -0.22980357939E+02  0.28356361874E+02  0.50517124723E+02  0.62500000000E+02  0.47000000000E+01 0.  1.
         -5    1    1    0    0  501  0.22980357939E+02 -0.28356361874E+02 -0.50517124723E+02  0.62500000000E+02  0.47000000000E+01 0.  1.
</event>
<event>
 3    0  0.4607503E-005  0.9118800E+02  0.7546771E-02  0.1235069E+00
         25   -1    0    0    0    0  0.00000000000E+00  0.00000000000E+00  0.99999998245E-14  0.12500000000E+03  0.12500000000E+03 0.  0.
          5    1    1    0  501    0 -0.32455615315E+02  0.22597942110E+02  0.48167686751E+02  0.62500000000E+02  0.47000000000E+01 0. -1.
         -5    1    1    0    0  501  0.32455615315E+02 -0.22597942110E+02 -0.48167686751E+02  0.62500000000E+02  0.47000000000E+01 0. -1.
</event>
<event>
 3    0  0.4607503E-005  0.9118800E+02  0.7546771E-02  0.1235069E+00
         25   -1    0    0    0    0  0.00000000000E+00  0.00000000000E+00  0.99999998245E-14  0.12500000000E+03  0.12500000000E+03 0.  0.
          5    1    1    0  501    0 -0.61428355297E+02 -0.16486466135E+01 -0.10392262983E+02  0.62500000000E+02  0.47000000000E+01 0.  1.
         -5    1    1    0    0  501  0.61428355297E+02  0.16486466135E+01  0.10392262983E+02  0.62500000000E+02  0.47000000000E+01 0.  1.
</event>
<event>
 3    0  0.4607503E-005  0.9118800E+02  0.7546771E-02  0.1235069E+00
         25   -1    0    0    0    0  0.00000000000E+00  0.00000000000E+00  0.99999998245E-14  0.12500000000E+03  0.12500000000E+03 0.  0.
          5    1    1    0  501    0 -0.53820669474E+02 -0.16490069760E+02 -0.26750198815E+02  0.62500000000E+02  0.47000000000E+01 0. -1.
         -5    1    1    0    0  501  0.53820669474E+02  0.16490069760E+02  0.26750198815E+02  0.62500000000E+02  0.47000000000E+01 0. -1.
</event>
<event>
 3    0  0.4607503E-005  0.9118800E+02  0.7546771E-02  0.1235069E+00
         25   -1    0    0    0    0  0.00000000000E+00  0.00000000000E+00  0.99999998245E-14  0.12500000000E+03  0.12500000000E+03 0.  0.
          5    1    1    0  501    0 -0.78696539266E+01  0.35847108096E+02  0.50370759258E+02  0.62500000000E+02  0.47000000000E+01 0.  1.
         -5    1    1    0    0  501  0.78696539266E+01 -0.35847108096E+02 -0.50370759258E+02  0.62500000000E+02  0.47000000000E+01 0.  1.
</event>
<event>
 3    0  0.4607503E-005  0.9118800E+02  0.7546771E-02  0.1235069E+00
         25   -1    0    0    0    0  0.00000000000E+00  0.00000000000E+00  0.99999998245E-14  0.12500000000E+03  0.12500000000E+03 0.  0.
          5    1    1    0  501    0 -0.18950975689E+02  0.59184486579E+02 -0.47134985724E+01  0.62500000000E+02  0.47000000000E+01 0. -1.
         -5    1    1    0    0  501  0.18950975689E+02 -0.59184486579E+02  0.47134985724E+01  0.62500000000E+02  0.47000000000E+01 0. -1.
</event>
<event>
 3    0  0.4607503E-005  0.9118800E+02  0.7546771E-02  0.1235069E+00
         25   -1    0    0    0    0  0.00000000000E+00  0.00000000000E+00  0.99999998245E-14  0.12500000000E+03  0.12500000000E+03 0.  0.
          5    1    1    0  501    0  0.58344332049E+02  0.14153456781E+01 -0.21865399937E+02  0.62500000000E+02  0.47000000000E+01 0. -1.
         -5    1    1    0    0  501 -0.58344332049E+02 -0.14153456781E+01  0.21865399937E+02  0.62500000000E+02  0.47000000000E+01 0. -1.
</event>
<event>
 3    0  0.4607503E-005  0.9118800E+02  0.7546771E-02  0.1235069E+00
         25   -1    0    0    0    0  0.00000000000E+00  0.00000000000E+00  0.99999998245E-14  0.12500000000E+03  0.12500000000E+03 0.  0.
          5    1    1    0  501    0 -0.40848372779E+02 -0.46547138480E+02 -0.69953084715E+01  0.62500000000E+02  0.47000000000E+01 0.  1.
         -5    1    1    0    0  501  0.40848372779E+02  0.46547138480E+02  0.69953084715E+01  0.62500000000E+02  0.47000000000E+01 0.  1.
</event>
<event>
 3    0  0.4607503E-005  0.9118800E+02  0.7546771E-02  0.1235069E+00
         25   -1    0    0    0    0  0.00000000000E+00  0.00000000000E+00  0.99999998245E-14  0.12500000000E+03  0.12500000000E+03 0.  0.
          5    1    1    0  501    0 -0.17851036301E+02  0.20294457691E+02  0.56157238982E+02  0.62500000000E+02  0.47000000000E+01 0.  1.
         -5    1    1    0    0  501  0.17851036301E+02 -0.20294457691E+02 -0.56157238982E+02  0.62500000000E+02  0.47000000000E+01 0.  1.
</event>
<event>
 3    0  0.4607503E-005  0.9118800E+02  0.7546771E-02  0.1235069E+00
         25   -1    0    0    0    0  0.00000000000E+00  0.00000000000E+00  0.99999998245E-14  0.12500000000E+03  0.12500000000E+03 0.  0.
          5    1    1    0  501    0  0.37700735295E+02 -0.13934691422E+02  0.47630231295E+02  0.62500000000E+02  0.47000000000E+01 0.  1.
         -5    1    1    0    0  501 -0.37700735295E+02  0.13934691422E+02 -0.47630231295E+02  0.62500000000E+02  0.47000000000E+01 0.  1.
</event>
<event>
 3    0  0.4607503E-005  0.9118800E+02  0.7546771E-02  0.1235069E+00
         25   -1    0    0    0    0  0.00000000000E+00  0.00000000000E+00  0.99999998245E-14  0.12500000000E+03  0.12500000000E+03 0.  0.
          5    1    1    0  501    0 -0.51174071447E+02 -0.20482262605E+02 -0.29083523344E+02  0.62500000000E+02  0.47000000000E+01 0.  1.
         -5    1    1    0    0  501  0.51174071447E+02  0.20482262605E+02  0.29083523344E+02  0.62500000000E+02  0.47000000000E+01 0.  1.
</event>
<event>
 3    0  0.4607503E-005  0.9118800E+02  0.7546771E-02  0.1235069E+00
         25   -1    0    0    0    0  0.00000000000E+00  0.00000000000E+00  0.99999998245E-14  0.12500000000E+03  0.12500000000E+03 0.  0.
          5    1    1    0  501    0  0.71183405430E+01 -0.56262829948E+02 -0.25845370845E+02  0.62500000000E+02  0.47000000000E+01 0. -1.
         -5    1    1    0    0  501 -0.71183405430E+01  0.56262829948E+02  0.25845370845E+02  0.62500000000E+02  0.47000000000E+01 0. -1.
</event>
<event>
 3    0  0.4607503E-005  0.9118800E+02  0.7546771E-02  0.1235069E+00
         25   -1    0    0    0    0  0.00000000000E+00  0.00000000000E+00  0.99999998245E-14  0.12500000000E+03  0.12500000000E+03 0.  0.
          5    1    1    0  501    0 -0.39369501502E+02 -0.47704772260E+02 -0.76457213573E+01  0.62500000000E+02  0.47000000000E+01 0.  1.
         -5    1    1    0    0  501  0.39369501502E+02  0.47704772260E+02  0.76457213573E+01  0.62500000000E+02  0.47000000000E+01 0.  1.
</event>
<event>
 3    0  0.4607503E-005  0.9118800E+02  0.7546771E-02  0.1235069E+00
         25   -1    0    0    0    0  0.00000000000E+00  0.00000000000E+00  0.99999998245E-14  0.12500000000E+03  0.12500000000E+03 0.  0.
          5    1    1    0  501    0  0.35166349337E+01 -0.57564848738E+02  0.23623747977E+02  0.62500000000E+02  0.47000000000E+01 0. -1.
         -5    1    1    0    0  501 -0.35166349337E+01  0.57564848738E+02 -0.23623747977E+02  0.62500000000E+02  0.47000000000E+01 0. -1.
</event>
<event>
 3    0  0.4607503E-005  0.9118800E+02  0.7546771E-02  0.1235069E+00
         25   -1    0    0    0    0  0.00000000000E+00  0.00000000000E+00  0.99999998245E-14  0.12500000000E+03  0.12500000000E+03 0.  0.
          5    1    1    0  501    0 -0.39721682311E+02 -0.38074173119E+02 -0.29269528451E+02  0.62500000000E+02  0.47000000000E+01 0.  1.
         -5    1    1    0    0  501  0.39721682311E+02  0.38074173119E+02  0.29269528451E+02  0.62500000000E+02  0.47000000000E+01 0.  1.
</event>
<event>
 3    0  0.4607503E-005  0.9118800E+02  0.7546771E-02  0.1235069E+00
         25   -1    0    0    0    0  0.00000000000E+00  0.00000000000E+00  0.99999998245E-14  0.12500000000E+03  0.12500000000E+03 0.  0.
          5    1    1    0  501    0  0.34006491156E+02  0.52204749091E+02 -0.15436099333E+01  0.62500000000E+02  0.47000000000E+01 0.  1.
         -5    1    1    0    0  501 -0.34006491156E+02 -0.52204749091E+02  0.15436099333E+01  0.62500000000E+02  0.47000000000E+01 0.  1.
</event>
<event>
 3    0  0.4607503E-005  0.9118800E+02  0.7546771E-02  0.1235069E+00
         25   -1    0    0    0    0  0.00000000000E+00  0.00000000000E+00  0.99999998245E-14  0.12500000000E+03  0.12500000000E+03 0.  0.
          5    1    1    0  501    0 -0.60532179321E+02  0.11015083511E+02 -0.99339419092E+01  0.62500000000E+02  0.47000000000E+01 0.  1.
         -5    1    1    0    0  501  0.60532179321E+02 -0.11015083511E+02  0.99339419092E+01  0.62500000000E+02  0.47000000000E+01 0.  1.
</event>
<event>
 3    0  0.4607503E-005  0.9118800E+02  0.7546771E-02  0.1235069E+00
         25   -1    0    0    0    0  0.00000000000E+00  0.00000000000E+00  0.99999998245E-14  0.12500000000E+03  0.12500000000E+03 0.  0.
          5    1    1    0  501    0  0.27365762432E+01  0.62160178272E+02 -0.35753863640E+01  0.62500000000E+02  0.47000000000E+01 0.  1.
         -5    1    1    0    0  501 -0.27365762432E+01 -0.62160178272E+02  0.35753863640E+01  0.62500000000E+02  0.47000000000E+01 0.  1.
</event>
<event>
 3    0  0.4607503E-005  0.9118800E+02  0.7546771E-02  0.1235069E+00
         25   -1    0    0    0    0  0.00000000000E+00  0.00000000000E+00  0.99999998245E-14  0.12500000000E+03  0.12500000000E+03 0.  0.
          5    1    1    0  501    0  0.47951206875E+02 -0.37772087356E+02 -0.12574226654E+02  0.62500000000E+02  0.47000000000E+01 0. -1.
         -5    1    1    0    0  501 -0.47951206875E+02  0.37772087356E+02  0.12574226654E+02  0.62500000000E+02  0.47000000000E+01 0. -1.
</event>
<event>
 3    0  0.4607503E-005  0.9118800E+02  0.7546771E-02  0.1235069E+00
         25   -1    0    0    0    0  0.00000000000E+00  0.00000000000E+00  0.99999998245E-14  0.12500000000E+03  0.12500000000E+03 0.  0.
          5    1    1    0  501    0  0.80310216159E+01 -0.30476436636E+02 -0.53766620702E+02  0.62500000000E+02  0.47000000000E+01 0. -1.
         -5    1    1    0    0  501 -0.80310216159E+01  0.30476436636E+02  0.53766620702E+02  0.62500000000E+02  0.47000000000E+01 0. -1.
</event>
<event>
 3    0  0.4607503E-005  0.9118800E+02  0.7546771E-02  0.1235069E+00
         25   -1    0    0    0    0  0.00000000000E+00  0.00000000000E+00  0.99999998245E-14  0.12500000000E+03  0.12500000000E+03 0.  0.
          5    1    1    0  501    0 -0.37642733671E+02  0.41324895836E+02 -0.27557895165E+02  0.62500000000E+02  0.47000000000E+01 0. -1.
         -5    1    1    0    0  501  0.37642733671E+02 -0.41324895836E+02  0.27557895165E+02  0.62500000000E+02  0.47000000000E+01 0. -1.
</event>
<event>
 3    0  0.4607503E-005  0.9118800E+02  0.7546771E-02  0.1235069E+00
         25   -1    0    0    0    0  0.00000000000E+00  0.00000000000E+00  0.99999998245E-14  0.12500000000E+03  0.12500000000E+03 0.  0.
          5    1    1    0  501    0  0.64029347128E+01 -0.18631676200E+02  0.59127177077E+02  0.62500000000E+02  0.47000000000E+01 0. -1.
         -5    1    1    0    0  501 -0.64029347128E+01  0.18631676200E+02 -0.59127177077E+02  0.62500000000E+02  0.47000000000E+01 0. -1.
</event>
<event>
 3    0  0.4607503E-005  0.9118800E+02  0.7546771E-02  0.1235069E+00
         25   -1    0    0    0    0  0.00000000000E+00  0.00000000000E+00  0.99999998245E-14  0.12500000000E+03  0.12500000000E+03 0.  0.
          5    1    1    0  501    0 -0.64718022639E+01  0.56022407188E+02  0.26528582102E+02  0.62500000000E+02  0.47000000000E+01 0. -1.
         -5    1    1    0    0  501  0.64718022639E+01 -0.56022407188E+02 -0.26528582102E+02  0.62500000000E+02  0.47000000000E+01 0. -1.
</event>
<event>
 3    0  0.4607503E-005  0.9118800E+02  0.7546771E-02  0.1235069E+00
         25   -1    0    0    0    0  0.00000000000E+00  0.00000000000E+00  0.99999998245E-14  0.12500000000E+03  0.12500000000E+03 0.  0.
          5    1    1    0  501    0  0.71011737551E+01  0.60940238801E+02 -0.10955392562E+02  0.62500000000E+02  0.47000000000E+01 0. -1.
         -5    1    1    0    0  501 -0.71011737551E+01 -0.60940238801E+02  0.10955392562E+02  0.62500000000E+02  0.47000000000E+01 0. -1.
</event>
<event>
 3    0  0.4607503E-005  0.9118800E+02  0.7546771E-02  0.1235069E+00
         25   -1    0    0    0    0  0.00000000000E+00  0.00000000000E+00  0.99999998245E-14  0.12500000000E+03  0.12500000000E+03 0.  0.
          5    1    1    0  501    0  0.25176092442E+02 -0.53773410888E+02 -0.18940555717E+02  0.62500000000E+02  0.47000000000E+01 0.  1.
         -5    1    1    0    0  501 -0.25176092442E+02  0.53773410888E+02  0.18940555717E+02  0.62500000000E+02  0.47000000000E+01 0.  1.
</event>
<event>
 3    0  0.4607503E-005  0.9118800E+02  0.7546771E-02  0.1235069E+00
         25   -1    0    0    0    0  0.00000000000E+00  0.00000000000E+00  0.99999998245E-14  0.12500000000E+03  0.12500000000E+03 0.  0.
          5    1    1    0  501    0  0.98241315938E+00  0.18846385104E+02  0.59397042291E+02  0.62500000000E+02  0.47000000000E+01 0. -1.
         -5    1    1    0    0  501 -0.98241315938E+00 -0.18846385104E+02 -0.59397042291E+02  0.62500000000E+02  0.47000000000E+01 0. -1.
</event>
<event>
 3    0  0.4607503E-005  0.9118800E+02  0.7546771E-02  0.1235069E+00
         25   -1    0    0    0    0  0.00000000000E+00  0.00000000000E+00  0.99999998245E-14  0.12500000000E+03  0.12500000000E+03 0.  0.
          5    1    1    0  501    0  0.19377693792E+02 -0.82342464727E+01  0.58658862658E+02  0.62500000000E+02  0.47000000000E+01 0. -1.
         -5    1    1    0    0  501 -0.19377693792E+02  0.82342464727E+01 -0.58658862658E+02  0.62500000000E+02  0.47000000000E+01 0. -1.
</event>
<event>
 3    0  0.4607503E-005  0.9118800E+02  0.7546771E-02  0.1235069E+00
         25   -1    0    0    0    0  0.00000000000E+00  0.00000000000E+00  0.99999998245E-14  0.12500000000E+03  0.12500000000E+03 0.  0.
          5    1    1    0  501    0  0.19071435752E+02 -0.14424493908E+02 -0.57553230264E+02  0.62500000000E+02  0.47000000000E+01 0. -1.
         -5    1    1    0    0  501 -0.19071435752E+02  0.14424493908E+02  0.57553230264E+02  0.62500000000E+02  0.47000000000E+01 0. -1.
</event>
<event>
 3    0  0.4607503E-005  0.9118800E+02  0.7546771E-02  0.1235069E+00
         25   -1    0    0    0    0  0.00000000000E+00  0.00000000000E+00  0.99999998245E-14  0.12500000000E+03  0.12500000000E+03 0.  0.
          5    1    1    0  501    0 -0.24735505941E+01  0.97788062458E+01  0.61501353610E+02  0.62500000000E+02  0.47000000000E+01 0.  1.
         -5    1    1    0    0  501  0.24735505941E+01 -0.97788062458E+01 -0.61501353610E+02  0.62500000000E+02  0.47000000000E+01 0.  1.
</event>
<event>
 3    0  0.4607503E-005  0.9118800E+02  0.7546771E-02  0.1235069E+00
         25   -1    0    0    0    0  0.00000000000E+00  0.00000000000E+00  0.99999998245E-14  0.12500000000E+03  0.12500000000E+03 0.  0.
          5    1    1    0  501    0  0.35976579576E+02 -0.17589616852E+02 -0.47754068947E+02  0.62500000000E+02  0.47000000000E+01 0. -1.
         -5    1    1    0    0  501 -0.35976579576E+02  0.17589616852E+02  0.47754068947E+02  0.62500000000E+02  0.47000000000E+01 0. -1.
</event>
<event>
 3    0  0.4607503E-005  0.9118800E+02  0.7546771E-02  0.1235069E+00
         25   -1    0    0    0    0  0.00000000000E+00  0.00000000000E+00  0.99999998245E-14  0.12500000000E+03  0.12500000000E+03 0.  0.
          5    1    1    0  501    0  0.42357954745E+02 -0.34687998251E+02  0.29777616546E+02  0.62500000000E+02  0.47000000000E+01 0. -1.
         -5    1    1    0    0  501 -0.42357954745E+02  0.34687998251E+02 -0.29777616546E+02  0.62500000000E+02  0.47000000000E+01 0. -1.
</event>
<event>
 3    0  0.4607503E-005  0.9118800E+02  0.7546771E-02  0.1235069E+00
         25   -1    0    0    0    0  0.00000000000E+00  0.00000000000E+00  0.99999998245E-14  0.12500000000E+03  0.12500000000E+03 0.  0.
          5    1    1    0  501    0 -0.44942673619E+02  0.39650150282E+02 -0.17093322397E+02  0.62500000000E+02  0.47000000000E+01 0.  1.
         -5    1    1    0    0  501  0.44942673619E+02 -0.39650150282E+02  0.17093322397E+02  0.62500000000E+02  0.47000000000E+01 0.  1.
</event>
<event>
 3    0  0.4607503E-005  0.9118800E+02  0.7546771E-02  0.1235069E+00
         25   -1    0    0    0    0  0.00000000000E+00  0.00000000000E+00  0.99999998245E-14  0.12500000000E+03  0.12500000000E+03 0.  0.
          5    1    1    0  501    0  0.33084993387E+02 -0.26695614796E+02  0.45572879690E+02  0.62500000000E+02  0.47000000000E+01 0.  1.
         -5    1    1    0    0  501 -0.33084993387E+02  0.26695614796E+02 -0.45572879690E+02  0.62500000000E+02  0.47000000000E+01 0.  1.
</event>
<event>
 3    0  0.4607503E-005  0.9118800E+02  0.7546771E-02  0.1235069E+00
         25   -1    0    0    0    0  0.00000000000E+00  0.00000000000E+00  0.99999998245E-14  0.12500000000E+03  0.12500000000E+03 0.  0.
          5    1    1    0  501    0  0.15432163576E+02 -0.36870696710E+02 -0.47817988786E+02  0.62500000000E+02  0.47000000000E+01 0.  1.
         -5    1    1    0    0  501 -0.15432163576E+02  0.36870696710E+02  0.47817988786E+02  0.62500000000E+02  0.47000000000E+01 0.  1.
</event>
<event>
 3    0  0.4607503E-005  0.9118800E+02  0.7546771E-02  0.1235069E+00
         25   -1    0    0    0    0  0.00000000000E+00  0.00000000000E+00  0.99999998245E-14  0.12500000000E+03  0.12500000000E+03 0.  0.
          5    1    1    0  501    0 -0.66889057272E+01 -0.44665727532E+02  0.42946377311E+02  0.62500000000E+02  0.47000000000E+01 0.  1.
         -5    1    1    0    0  501  0.66889057272E+01  0.44665727532E+02 -0.42946377311E+02  0.62500000000E+02  0.47000000000E+01 0.  1.
</event>
<event>
 3    0  0.4607503E-005  0.9118800E+02  0.7546771E-02  0.1235069E+00
         25   -1    0    0    0    0  0.00000000000E+00  0.00000000000E+00  0.99999998245E-14  0.12500000000E+03  0.12500000000E+03 0.  0.
          5    1    1    0  501    0 -0.21087036793E+02 -0.48337935226E+02  0.33210554006E+02  0.62500000000E+02  0.47000000000E+01 0. -1.
         -5    1    1    0    0  501  0.21087036793E+02  0.48337935226E+02 -0.33210554006E+02  0.62500000000E+02  0.47000000000E+01 0. -1.
</event>
<event>
 3    0  0.4607503E-005  0.9118800E+02  0.7546771E-02  0.1235069E+00
         25   -1    0    0    0    0  0.00000000000E+00  0.00000000000E+00  0.99999998245E-14  0.12500000000E+03  0.12500000000E+03 0.  0.
          5    1    1    0  501    0 -0.11787847859E+02 -0.21052535959E+02  0.57463008732E+02  0.62500000000E+02  0.47000000000E+01 0. -1.
         -5    1    1    0    0  501  0.11787847859E+02  0.21052535959E+02 -0.57463008732E+02  0.62500000000E+02  0.47000000000E+01 0. -1.
</event>
<event>
 3    0  0.4607503E-005  0.9118800E+02  0.7546771E-02  0.1235069E+00
         25   -1    0    0    0    0  0.00000000000E+00  0.00000000000E+00  0.99999998245E-14  0.12500000000E+03  0.12500000000E+03 0.  0.
          5    1    1    0  501    0 -0.58287571806E+02 -0.20793179737E+02  0.73731031054E+01  0.62500000000E+02  0.47000000000E+01 0.  1.
         -5    1    1    0    0  501  0.58287571806E+02  0.20793179737E+02 -0.73731031054E+01  0.62500000000E+02  0.47000000000E+01 0.  1.
</event>
<event>
 3    0  0.4607503E-005  0.9118800E+02  0.7546771E-02  0.1235069E+00
         25   -1    0    0    0    0  0.00000000000E+00  0.00000000000E+00  0.99999998245E-14  0.12500000000E+03  0.12500000000E+03 0.  0.
          5    1    1    0  501    0 -0.54984466201E+02 -0.15323636411E+02  0.25021083984E+02  0.62500000000E+02  0.47000000000E+01 0.  1.
         -5    1    1    0    0  501  0.54984466201E+02  0.15323636411E+02 -0.25021083984E+02  0.62500000000E+02  0.47000000000E+01 0.  1.
</event>
<event>
 3    0  0.4607503E-005  0.9118800E+02  0.7546771E-02  0.1235069E+00
         25   -1    0    0    0    0  0.00000000000E+00  0.00000000000E+00  0.99999998245E-14  0.12500000000E+03  0.12500000000E+03 0.  0.
          5    1    1    0  501    0  0.37501958850E+02 -0.18901688763E+02  0.46048770280E+02  0.62500000000E+02  0.47000000000E+01 0. -1.
         -5    1    1    0    0  501 -0.37501958850E+02  0.18901688763E+02 -0.46048770280E+02  0.62500000000E+02  0.47000000000E+01 0. -1.
</event>
<event>
 3    0  0.4607503E-005  0.9118800E+02  0.7546771E-02  0.1235069E+00
         25   -1    0    0    0    0  0.00000000000E+00  0.00000000000E+00  0.99999998245E-14  0.12500000000E+03  0.12500000000E+03 0.  0.
          5    1    1    0  501    0  0.30448181515E+02 -0.45075890818E+02 -0.30417631555E+02  0.62500000000E+02  0.47000000000E+01 0.  1.
         -5    1    1    0    0  501 -0.30448181515E+02  0.45075890818E+02  0.30417631555E+02  0.62500000000E+02  0.47000000000E+01 0.  1.
</event>
<event>
 3    0  0.4607503E-005  0.9118800E+02  0.7546771E-02  0.1235069E+00
         25   -1    0    0    0    0  0.00000000000E+00  0.00000000000E+00  0.99999998245E-14  0.12500000000E+03  0.12500000000E+03 0.  0.
          5    1    1    0  501    0  0.16931854723E+02 -0.55252375217E+02 -0.23337680443E+02  0.62500000000E+02  0.47000000000E+01 0.  1.
         -5    1    1    0    0  501 -0.16931854723E+02  0.55252375217E+02  0.23337680443E+02  0.62500000000E+02  0.47000000000E+01 0.  1.
</event>
<event>
 3    0  0.4607503E-005  0.9118800E+02  0.7546771E-02  0.1235069E+00
         25   -1    0    0    0    0  0.00000000000E+00  0.00000000000E+00  0.99999998245E-14  0.12500000000E+03  0.12500000000E+03 0.  0.
          5    1    1    0  501    0 -0.27535564421E+02  0.55876353214E+02 -0.19457244336E+01  0.62500000000E+02  0.47000000000E+01 0.  1.
         -5    1    1    0    0  501  0.27535564421E+02 -0.55876353214E+02  0.19457244336E+01  0.62500000000E+02  0.47000000000E+01 0.  1.
</event>
<event>
 3    0  0.4607503E-005  0.9118800E+02  0.7546771E-02  0.1235069E+00
         25   -1    0    0    0    0  0.00000000000E+00  0.00000000000E+00  0.99999998245E-14  0.12500000000E+03  0.12500000000E+03 0.  0.
          5    1    1    0  501    0  0.57304415993E+02  0.10751485012E+02 -0.22017481184E+02  0.62500000000E+02  0.47000000000E+01 0.  1.
         -5    1    1    0    0  501 -0.57304415993E+02 -0.10751485012E+02  0.22017481184E+02  0.62500000000E+02  0.47000000000E+01 0.  1.
</event>
<event>
 3    0  0.4607503E-005  0.9118800E+02  0.7546771E-02  0.1235069E+00
         25   -1    0    0    0    0  0.00000000000E+00  0.00000000000E+00  0.99999998245E-14  0.12500000000E+03  0.12500000000E+03 0.  0.
          5    1    1    0  501    0  0.56164072770E+02 -0.25861134368E+02 -0.78076026462E+01  0.62500000000E+02  0.47000000000E+01 0.  1.
         -5    1    1    0    0  501 -0.56164072770E+02  0.25861134368E+02  0.78076026462E+01  0.62500000000E+02  0.47000000000E+01 0.  1.
</event>
<event>
 3    0  0.4607503E-005  0.9118800E+02  0.7546771E-02  0.1235069E+00
         25   -1    0    0    0    0  0.00000000000E+00  0.00000000000E+00  0.99999998245E-14  0.12500000000E+03  0.12500000000E+03 0.  0.
          5    1    1    0  501    0  0.91369226855E+01 -0.50250965972E+02  0.35714381736E+02  0.62500000000E+02  0.47000000000E+01 0.  1.
         -5    1    1    0    0  501 -0.91369226855E+01  0.50250965972E+02 -0.35714381736E+02  0.62500000000E+02  0.47000000000E+01 0.  1.
</event>
<event>
 3    0  0.4607503E-005  0.9118800E+02  0.7546771E-02  0.1235069E+00
         25   -1    0    0    0    0  0.00000000000E+00  0.00000000000E+00  0.99999998245E-14  0.12500000000E+03  0.12500000000E+03 0.  0.
          5    1    1    0  501    0 -0.61287691422E+02 -0.22483405800E+01 -0.11087102636E+02  0.62500000000E+02  0.47000000000E+01 0. -1.
         -5    1    1    0    0  501  0.61287691422E+02  0.22483405800E+01  0.11087102636E+02  0.62500000000E+02  0.47000000000E+01 0. -1.
</event>
<event>
 3    0  0.4607503E-005  0.9118800E+02  0.7546771E-02  0.1235069E+00
         25   -1    0    0    0    0  0.00000000000E+00  0.00000000000E+00  0.99999998245E-14  0.12500000000E+03  0.12500000000E+03 0.  0.
          5    1    1    0  501    0 -0.19395676064E+02 -0.55197560543E+02 -0.21475499066E+02  0.62500000000E+02  0.47000000000E+01 0. -1.
         -5    1    1    0    0  501  0.19395676064E+02  0.55197560543E+02  0.21475499066E+02  0.62500000000E+02  0.47000000000E+01 0. -1.
</event>
<event>
 3    0  0.4607503E-005  0.9118800E+02  0.7546771E-02  0.1235069E+00
         25   -1    0    0    0    0  0.00000000000E+00  0.00000000000E+00  0.99999998245E-14  0.12500000000E+03  0.12500000000E+03 0.  0.
          5    1    1    0  501    0  0.39434842904E+02  0.18989601518E+02  0.44367197334E+02  0.62500000000E+02  0.47000000000E+01 0.  1.
         -5    1    1    0    0  501 -0.39434842904E+02 -0.18989601518E+02 -0.44367197334E+02  0.62500000000E+02  0.47000000000E+01 0.  1.
</event>
<event>
 3    0  0.4607503E-005  0.9118800E+02  0.7546771E-02  0.1235069E+00
         25   -1    0    0    0    0  0.00000000000E+00  0.00000000000E+00  0.99999998245E-14  0.12500000000E+03  0.12500000000E+03 0.  0.
          5    1    1    0  501    0 -0.39033245148E+02 -0.46714329201E+02 -0.13354295959E+02  0.62500000000E+02  0.47000000000E+01 0. -1.
         -5    1    1    0    0  501  0.39033245148E+02  0.46714329201E+02  0.13354295959E+02  0.62500000000E+02  0.47000000000E+01 0. -1.
</event>
<event>
 3    0  0.4607503E-005  0.9118800E+02  0.7546771E-02  0.1235069E+00
         25   -1    0    0    0    0  0.00000000000E+00  0.00000000000E+00  0.99999998245E-14  0.12500000000E+03  0.12500000000E+03 0.  0.
          5    1    1    0  501    0  0.16689242363E+02  0.35986090791E+02 -0.48069017661E+02  0.62500000000E+02  0.47000000000E+01 0.  1.
         -5    1    1    0    0  501 -0.16689242363E+02 -0.35986090791E+02  0.48069017661E+02  0.62500000000E+02  0.47000000000E+01 0.  1.
</event>
<event>
 3    0  0.4607503E-005  0.9118800E+02  0.7546771E-02  0.1235069E+00
         25   -1    0    0    0    0  0.00000000000E+00  0.00000000000E+00  0.99999998245E-14  0.12500000000E+03  0.12500000000E+03 0.  0.
          5    1    1    0  501    0 -0.37345558091E+02 -0.48946819068E+02 -0.96787496091E+01  0.62500000000E+02  0.47000000000E+01 0.  1.
         -5    1    1    0    0  501  0.37345558091E+02  0.48946819068E+02  0.96787496091E+01  0.62500000000E+02  0.47000000000E+01 0.  1.
</event>
<event>
 3    0  0.4607503E-005  0.9118800E+02  0.7546771E-02  0.1235069E+00
         25   -1    0    0    0    0  0.00000000000E+00  0.00000000000E+00  0.99999998245E-14  0.12500000000E+03  0.12500000000E+03 0.  0.
          5    1    1    0  501    0  0.28789302256E+02  0.33762791167E+02 -0.43765397385E+02  0.62500000000E+02  0.47000000000E+01 0.  1.
         -5    1    1    0    0  501 -0.28789302256E+02 -0.33762791167E+02  0.43765397385E+02  0.62500000000E+02  0.47000000000E+01 0.  1.
</event>
<event>
 3    0  0.4607503E-005  0.9118800E+02  0.7546771E-02  0.1235069E+00
         25   -1    0    0    0    0  0.00000000000E+00  0.00000000000E+00  0.99999998245E-14  0.12500000000E+03  0.12500000000E+03 0.  0.
          5    1    1    0  501    0  0.60417969273E+02 -0.65909542080E+01 -0.13798127103E+02  0.62500000000E+02  0.47000000000E+01 0. -1.
         -5    1    1    0    0  501 -0.60417969273E+02  0.65909542080E+01  0.13798127103E+02  0.62500000000E+02  0.47000000000E+01 0. -1.
</event>
<event>
 3    0  0.4607503E-005  0.9118800E+02  0.7546771E-02  0.1235069E+00
         25   -1    0    0    0    0  0.00000000000E+00  0.00000000000E+00  0.99999998245E-14  0.12500000000E+03  0.12500000000E+03 0.  0.
          5    1    1    0  501    0 -0.26930723269E+02  0.34162655203E+02 -0.44629688927E+02  0.62500000000E+02  0.47000000000E+01 0. -1.
         -5    1    1    0    0  501  0.26930723269E+02 -0.34162655203E+02  0.44629688927E+02  0.62500000000E+02  0.47000000000E+01 0. -1.
</event>
<event>
 3    0  0.4607503E-005  0.9118800E+02  0.7546771E-02  0.1235069E+00
         25   -1    0    0    0    0  0.00000000000E+00  0.00000000000E+00  0.99999998245E-14  0.12500000000E+03  0.12500000000E+03 0.  0.
          5    1    1    0  501    0 -0.23858314687E+02 -0.26110230473E+02  0.51314682937E+02  0.62500000000E+02  0.47000000000E+01 0. -1.
         -5    1    1    0    0  501  0.23858314687E+02  0.26110230473E+02 -0.51314682937E+02  0.62500000000E+02  0.47000000000E+01 0. -1.
</event>
<event>
 3    0  0.4607503E-005  0.9118800E+02  0.7546771E-02  0.1235069E+00
         25   -1    0    0    0    0  0.00000000000E+00  0.00000000000E+00  0.99999998245E-14  0.12500000000E+03  0.12500000000E+03 0.  0.
          5    1    1    0  501    0  0.58935807852E+02 -0.69460277682E+01 -0.19038992911E+02  0.62500000000E+02  0.47000000000E+01 0. -1.
         -5    1    1    0    0  501 -0.58935807852E+02  0.69460277682E+01  0.19038992911E+02  0.62500000000E+02  0.47000000000E+01 0. -1.
</event>
<event>
 3    0  0.4607503E-005  0.9118800E+02  0.7546771E-02  0.1235069E+00
         25   -1    0    0    0    0  0.00000000000E+00  0.00000000000E+00  0.99999998245E-14  0.12500000000E+03  0.12500000000E+03 0.  0.
          5    1    1    0  501    0  0.32220730807E+02  0.45155670209E+02 -0.28406864562E+02  0.62500000000E+02  0.47000000000E+01 0.  1.
         -5    1    1    0    0  501 -0.32220730807E+02 -0.45155670209E+02  0.28406864562E+02  0.62500000000E+02  0.47000000000E+01 0.  1.
</event>
<event>
 3    0  0.4607503E-005  0.9118800E+02  0.7546771E-02  0.1235069E+00
         25   -1    0    0    0    0  0.00000000000E+00  0.00000000000E+00  0.99999998245E-14  0.12500000000E+03  0.12500000000E+03 0.  0.
          5    1    1    0  501    0  0.30178963644E+01 -0.62185610539E+02  0.28288060088E+01  0.62500000000E+02  0.47000000000E+01 0. -1.
         -5    1    1    0    0  501 -0.30178963644E+01  0.62185610539E+02 -0.28288060088E+01  0.62500000000E+02  0.47000000000E+01 0. -1.
</event>
<event>
 3    0  0.4607503E-005  0.9118800E+02  0.7546771E-02  0.1235069E+00
         25   -1    0    0    0    0  0.00000000000E+00  0.00000000000E+00  0.99999998245E-14  0.12500000000E+03  0.12500000000E+03 0.  0.
          5    1    1    0  501    0 -0.17684321800E+02 -0.58446044930E+02 -0.12469346192E+02  0.62500000000E+02  0.47000000000E+01 0.  1.
         -5    1    1    0    0  501  0.17684321800E+02  0.58446044930E+02  0.12469346192E+02  0.62500000000E+02  0.47000000000E+01 0.  1.
</event>
<event>
 3    0  0.4607503E-005  0.9118800E+02  0.7546771E-02  0.1235069E+00
         25   -1    0    0    0    0  0.00000000000E+00  0.00000000000E+00  0.99999998245E-14  0.12500000000E+03  0.12500000000E+03 0.  0.
          5    1    1    0  501    0  0.32254097622E+02  0.40218279882E+02 -0.35018897041E+02  0.62500000000E+02  0.47000000000E+01 0.  1.
         -5    1    1    0    0  501 -0.32254097622E+02 -0.40218279882E+02  0.35018897041E+02  0.62500000000E+02  0.47000000000E+01 0.  1.
</event>
<event>
 3    0  0.4607503E-005  0.9118800E+02  0.7546771E-02  0.1235069E+00
         25   -1    0    0    0    0  0.00000000000E+00  0.00000000000E+00  0.99999998245E-14  0.12500000000E+03  0.12500000000E+03 0.  0.
          5    1    1    0  501    0 -0.38872745597E+02  0.46389190671E+02 -0.14869856712E+02  0.62500000000E+02  0.47000000000E+01 0.  1.
         -5    1    1    0    0  501  0.38872745597E+02 -0.46389190671E+02  0.14869856712E+02  0.62500000000E+02  0.47000000000E+01 0.  1.
</event>
<event>
 3    0  0.4607503E-005  0.9118800E+02  0.7546771E-02  0.1235069E+00
         25   -1    0    0    0    0  0.00000000000E+00  0.00000000000E+00  0.99999998245E-14  0.12500000000E+03  0.12500000000E+03 0.  0.
          5    1    1    0  501    0  0.40021810592E+02  0.22549885740E+02  0.42117897978E+02  0.62500000000E+02  0.47000000000E+01 0.  1.
         -5    1    1    0    0  501 -0.40021810592E+02 -0.22549885740E+02 -0.42117897978E+02  0.62500000000E+02  0.47000000000E+01 0.  1.
</event>
<event>
 3    0  0.4607503E-005  0.9118800E+02  0.7546771E-02  0.1235069E+00
         25   -1    0    0    0    0  0.00000000000E+00  0.00000000000E+00  0.99999998245E-14  0.12500000000E+03  0.12500000000E+03 0.  0.
          5    1    1    0  501    0  0.57310141922E+02 -0.17047510377E+02 -0.17580956256E+02  0.62500000000E+02  0.47000000000E+01 0.  1.
         -5    1    1    0    0  501 -0.57310141922E+02  0.17047510377E+02  0.17580956256E+02  0.62500000000E+02  0.47000000000E+01 0.  1.
</event>
<event>
 3    0  0.4607503E-005  0.9118800E+02  0.7546771E-02  0.1235069E+00
         25   -1    0    0    0    0  0.00000000000E+00  0.00000000000E+00  0.99999998245E-14  0.12500000000E+03  0.12500000000E+03 0.  0.
          5    1    1    0  501    0 -0.15528519559E+02  0.28907961030E+02  0.52984477627E+02  0.62500000000E+02  0.47000000000E+01 0. -1.
         -5    1    1    0    0  501  0.15528519559E+02 -0.28907961030E+02 -0.52984477627E+02  0.62500000000E+02  0.47000000000E+01 0. -1.
</event>
<event>
 3    0  0.4607503E-005  0.9118800E+02  0.7546771E-02  0.1235069E+00
         25   -1    0    0    0    0  0.00000000000E+00  0.00000000000E+00  0.99999998245E-14  0.12500000000E+03  0.12500000000E+03 0.  0.
          5    1    1    0  501    0 -0.57336007528E+02 -0.21447379336E+02 -0.11694107934E+02  0.62500000000E+02  0.47000000000E+01 0. -1.
         -5    1    1    0    0  501  0.57336007528E+02  0.21447379336E+02  0.11694107934E+02  0.62500000000E+02  0.47000000000E+01 0. -1.
</event>
<event>
 3    0  0.4607503E-005  0.9118800E+02  0.7546771E-02  0.1235069E+00
         25   -1    0    0    0    0  0.00000000000E+00  0.00000000000E+00  0.99999998245E-14  0.12500000000E+03  0.12500000000E+03 0.  0.
          5    1    1    0  501    0 -0.16088352713E+02 -0.50492671184E+02  0.32799619872E+02  0.62500000000E+02  0.47000000000E+01 0.  1.
         -5    1    1    0    0  501  0.16088352713E+02  0.50492671184E+02 -0.32799619872E+02  0.62500000000E+02  0.47000000000E+01 0.  1.
</event>
<event>
 3    0  0.4607503E-005  0.9118800E+02  0.7546771E-02  0.1235069E+00
         25   -1    0    0    0    0  0.00000000000E+00  0.00000000000E+00  0.99999998245E-14  0.12500000000E+03  0.12500000000E+03 0.  0.
          5    1    1    0  501    0  0.50050275743E+02  0.33795701517E+02  0.15394169579E+02  0.62500000000E+02  0.47000000000E+01 0.  1.
         -5    1    1    0    0  501 -0.50050275743E+02 -0.33795701517E+02 -0.15394169579E+02  0.62500000000E+02  0.47000000000E+01 0.  1.
</event>
<event>
 3    0  0.4607503E-005  0.9118800E+02  0.7546771E-02  0.1235069E+00
         25   -1    0    0    0    0  0.00000000000E+00  0.00000000000E+00  0.99999998245E-14  0.12500000000E+03  0.12500000000E+03 0.  0.
          5    1    1    0  501    0  0.29743254782E+02 -0.54658598754E+02 -0.34549062565E+01  0.62500000000E+02  0.47000000000E+01 0.  1.
         -5    1    1    0    0  501 -0.29743254782E+02  0.54658598754E+02  0.34549062565E+01  0.62500000000E+02  0.47000000000E+01 0.  1.
</event>
<event>
 3    0  0.4607503E-005  0.9118800E+02  0.7546771E-02  0.1235069E+00
         25   -1    0    0    0    0  0.00000000000E+00  0.00000000000E+00  0.99999998245E-14  0.12500000000E+03  0.12500000000E+03 0.  0.
          5    1    1    0  501    0 -0.42869225174E+01  0.32215284128E+02 -0.53178546087E+02  0.62500000000E+02  0.47000000000E+01 0. -1.
         -5    1    1    0    0  501  0.42869225174E+01 -0.32215284128E+02  0.53178546087E+02  0.62500000000E+02  0.47000000000E+01 0. -1.
</event>
<event>
 3    0  0.4607503E-005  0.9118800E+02  0.7546771E-02  0.1235069E+00
         25   -1    0    0    0    0  0.00000000000E+00  0.00000000000E+00  0.99999998245E-14  0.12500000000E+03  0.12500000000E+03 0.  0.
          5    1    1    0  501    0 -0.42297864010E+02 -0.45910449313E+01  0.45540893784E+02  0.62500000000E+02  0.47000000000E+01 0.  1.
         -5    1    1    0    0  501  0.42297864010E+02  0.45910449313E+01 -0.45540893784E+02  0.62500000000E+02  0.47000000000E+01 0.  1.
</event>
<event>
 3    0  0.4607503E-005  0.9118800E+02  0.7546771E-02  0.1235069E+00
         25   -1    0    0    0    0  0.00000000000E+00  0.00000000000E+00  0.99999998245E-14  0.12500000000E+03  0.12500000000E+03 0.  0.
          5    1    1    0  501    0  0.48238972242E+02  0.15510625960E+02  0.36284735624E+02  0.62500000000E+02  0.47000000000E+01 0.  1.
         -5    1    1    0    0  501 -0.48238972242E+02 -0.15510625960E+02 -0.36284735624E+02  0.62500000000E+02  0.47000000000E+01 0.  1.
</event>
<event>
 3    0  0.4607503E-005  0.9118800E+02  0.7546771E-02  0.1235069E+00
         25   -1    0    0    0    0  0.00000000000E+00  0.00000000000E+00  0.99999998245E-14  0.12500000000E+03  0.12500000000E+03 0.  0.
          5    1    1    0  501    0 -0.20381024670E+02 -0.45890592468E+02 -0.36916491658E+02  0.62500000000E+02  0.47000000000E+01 0. -1.
         -5    1    1    0    0  501  0.20381024670E+02  0.45890592468E+02  0.36916491658E+02  0.62500000000E+02  0.47000000000E+01 0. -1.
</event>
<event>
 3    0  0.4607503E-005  0.9118800E+02  0.7546771E-02  0.1235069E+00
         25   -1    0    0    0    0  0.00000000000E+00  0.00000000000E+00  0.99999998245E-14  0.12500000000E+03  0.12500000000E+03 0.  0.
          5    1    1    0  501    0 -0.48588879846E+01 -0.61602563911E+02 -0.81040315349E+01  0.62500000000E+02  0.47000000000E+01 0.  1.
         -5    1    1    0    0  501  0.48588879846E+01  0.61602563911E+02  0.81040315349E+01  0.62500000000E+02  0.47000000000E+01 0.  1.
</event>
<event>
 3    0  0.4607503E-005  0.9118800E+02  0.7546771E-02  0.1235069E+00
         25   -1    0    0    0    0  0.00000000000E+00  0.00000000000E+00  0.99999998245E-14  0.12500000000E+03  0.12500000000E+03 0.  0.
          5    1    1    0  501    0  0.61846666186E+02 -0.35736421262E+01 -0.68102102486E+01  0.62500000000E+02  0.47000000000E+01 0.  1.
         -5    1    1    0    0  501 -0.61846666186E+02  0.35736421262E+01  0.68102102486E+01  0.62500000000E+02  0.47000000000E+01 0.  1.
</event>
<event>
 3    0  0.4607503E-005  0.9118800E+02  0.7546771E-02  0.1235069E+00
         25   -1    0    0    0    0  0.00000000000E+00  0.00000000000E+00  0.99999998245E-14  0.12500000000E+03  0.12500000000E+03 0.  0.
          5    1    1    0  501    0 -0.87127740850E+01 -0.63115984680E+01 -0.61387387080E+02  0.62500000000E+02  0.47000000000E+01 0.  1.
         -5    1    1    0    0  501  0.87127740850E+01  0.63115984680E+01  0.61387387080E+02  0.62500000000E+02  0.47000000000E+01 0.  1.
</event>
<event>
 3    0  0.4607503E-005  0.9118800E+02  0.7546771E-02  0.1235069E+00
         25   -1    0    0    0    0  0.00000000000E+00  0.00000000000E+00  0.99999998245E-14  0.12500000000E+03  0.12500000000E+03 0.  0.
          5    1    1    0  501    0 -0.58618588387E+01 -0.61666055517E+02  0.68626676933E+01  0.62500000000E+02  0.47000000000E+01 0.  1.
         -5    1    1    0    0  501  0.58618588387E+01  0.61666055517E+02 -0.68626676933E+01  0.62500000000E+02  0.47000000000E+01 0.  1.
</event>
<event>
 3    0  0.4607503E-005  0.9118800E+02  0.7546771E-02  0.1235069E+00
         25   -1    0    0    0    0  0.00000000000E+00  0.00000000000E+00  0.99999998245E-14  0.12500000000E+03  0.12500000000E+03 0.  0.
          5    1    1    0  501    0  0.75069921516E+01 -0.34748852434E+02  0.51189084025E+02  0.62500000000E+02  0.47000000000E+01 0. -1.
         -5    1    1    0    0  501 -0.75069921516E+01  0.34748852434E+02 -0.51189084025E+02  0.62500000000E+02  0.47000000000E+01 0. -1.
</event>
<event>
 3    0  0.4607503E-005  0.9118800E+02  0.7546771E-02  0.1235069E+00
         25   -1    0    0    0    0  0.00000000000E+00  0.00000000000E+00  0.99999998245E-14  0.12500000000E+03  0.12500000000E+03 0.  0.
          5    1    1    0  501    0 -0.28384542477E+02 -0.28086432942E+02  0.47850078714E+02  0.62500000000E+02  0.47000000000E+01 0. -1.
         -5    1    1    0    0  501  0.28384542477E+02  0.28086432942E+02 -0.47850078714E+02  0.62500000000E+02  0.47000000000E+01 0. -1.
</event>
<event>
 3    0  0.4607503E-005  0.9118800E+02  0.7546771E-02  0.1235069E+00
         25   -1    0    0    0    0  0.00000000000E+00  0.00000000000E+00  0.99999998245E-14  0.12500000000E+03  0.12500000000E+03 0.  0.
          5    1    1    0  501    0 -0.42030577327E+02  0.45618358317E+02 -0.60461519999E+01  0.62500000000E+02  0.47000000000E+01 0.  1.
         -5    1    1    0    0  501  0.42030577327E+02 -0.45618358317E+02  0.60461519999E+01  0.62500000000E+02  0.47000000000E+01 0.  1.
</event>
<event>
 3    0  0.4607503E-005  0.9118800E+02  0.7546771E-02  0.1235069E+00
         25   -1    0    0    0    0  0.00000000000E+00  0.00000000000E+00  0.99999998245E-14  0.12500000000E+03  0.12500000000E+03 0.  0.
          5    1    1    0  501    0 -0.48892970440E+02 -0.38008191247E+02 -0.70010599019E+01  0.62500000000E+02  0.47000000000E+01 0.  1.
         -5    1    1    0    0  501  0.48892970440E+02  0.38008191247E+02  0.70010599019E+01  0.62500000000E+02  0.47000000000E+01 0.  1.
</event>
<event>
 3    0  0.4607503E-005  0.9118800E+02  0.7546771E-02  0.1235069E+00
         25   -1    0    0    0    0  0.00000000000E+00  0.00000000000E+00  0.99999998245E-14  0.12500000000E+03  0.12500000000E+03 0.  0.
          5    1    1    0  501    0  0.30263774519E+02 -0.53956821192E+02 -0.75448922284E+01  0.62500000000E+02  0.47000000000E+01 0.  1.
         -5    1    1    0    0  501 -0.30263774519E+02  0.53956821192E+02  0.75448922284E+01  0.62500000000E+02  0.47000000000E+01 0.  1.
</event>
<event>
 3    0  0.4607503E-005  0.9118800E+02  0.7546771E-02  0.1235069E+00
         25   -1    0    0    0    0  0.00000000000E+00  0.00000000000E+00  0.99999998245E-14  0.12500000000E+03  0.12500000000E+03 0.  0.
          5    1    1    0  501    0 -0.83639702696E+01  0.22998066718E+02  0.57317474897E+02  0.62500000000E+02  0.47000000000E+01 0.  1.
         -5    1    1    0    0  501  0.83639702696E+01 -0.22998066718E+02 -0.57317474897E+02  0.62500000000E+02  0.47000000000E+01 0.  1.
</event>
<event>
 3    0  0.4607503E-005  0.9118800E+02  0.7546771E-02  0.1235069E+00
         25   -1    0    0    0    0  0.00000000000E+00  0.00000000000E+00  0.99999998245E-14  0.12500000000E+03  0.12500000000E+03 0.  0.
          5    1    1    0  501    0 -0.23488756122E+02 -0.18608050589E+00 -0.57726975583E+02  0.62500000000E+02  0.47000000000E+01 0.  1.
         -5    1    1    0    0  501  0.23488756122E+02  0.18608050589E+00  0.57726975583E+02  0.62500000000E+02  0.47000000000E+01 0.  1.
</event>
<event>
 3    0  0.4607503E-005  0.9118800E+02  0.7546771E-02  0.1235069E+00
         25   -1    0    0    0    0  0.00000000000E+00  0.00000000000E+00  0.99999998245E-14  0.12500000000E+03  0.12500000000E+03 0.  0.
          5    1    1    0  501    0 -0.54260569947E+02 -0.20805213981E+02 -0.22518739312E+02  0.62500000000E+02  0.47000000000E+01 0. -1.
         -5    1    1    0    0  501  0.54260569947E+02  0.20805213981E+02  0.22518739312E+02  0.62500000000E+02  0.47000000000E+01 0. -1.
</event>
<event>
 3    0  0.4607503E-005  0.9118800E+02  0.7546771E-02  0.1235069E+00
         25   -1    0    0    0    0  0.00000000000E+00  0.00000000000E+00  0.99999998245E-14  0.12500000000E+03  0.12500000000E+03 0.  0.
          5    1    1    0  501    0  0.51658326783E+02 -0.30729619463E+02 -0.16470208305E+02  0.62500000000E+02  0.47000000000E+01 0.  1.
         -5    1    1    0    0  501 -0.51658326783E+02  0.30729619463E+02  0.16470208305E+02  0.62500000000E+02  0.47000000000E+01 0.  1.
</event>
<event>
 3    0  0.4607503E-005  0.9118800E+02  0.7546771E-02  0.1235069E+00
         25   -1    0    0    0    0  0.00000000000E+00  0.00000000000E+00  0.99999998245E-14  0.12500000000E+03  0.12500000000E+03 0.  0.
          5    1    1    0  501    0  0.61681876559E+02 -0.88756179271E+01  0.85411388359E+00  0.62500000000E+02  0.47000000000E+01 0.  1.
         -5    1    1    0    0  501 -0.61681876559E+02  0.88756179271E+01 -0.85411388359E+00  0.62500000000E+02  0.47000000000E+01 0.  1.
</event>
<event>
 3    0  0.4607503E-005  0.9118800E+02  0.7546771E-02  0.1235069E+00
         25   -1    0    0    0    0  0.00000000000E+00  0.00000000000E+00  0.99999998245E-14  0.12500000000E+03  0.12500000000E+03 0.  0.
          5    1    1    0  501    0 -0.39613021915E+02  0.41269644422E+02  0.24734286812E+02  0.62500000000E+02  0.47000000000E+01 0. -1.
         -5    1    1    0    0  501  0.39613021915E+02 -0.41269644422E+02 -0.24734286812E+02  0.62500000000E+02  0.47000000000E+01 0. -1.
</event>
<event>
 3    0  0.4607503E-005  0.9118800E+02  0.7546771E-02  0.1235069E+00
         25   -1    0    0    0    0  0.00000000000E+00  0.00000000000E+00  0.99999998245E-14  0.12500000000E+03  0.12500000000E+03 0.  0.
          5    1    1    0  501    0  0.59657127779E+02 -0.18030694413E+02 -0.28489330573E+00  0.62500000000E+02  0.47000000000E+01 0. -1.
         -5    1    1    0    0  501 -0.59657127779E+02  0.18030694413E+02  0.28489330573E+00  0.62500000000E+02  0.47000000000E+01 0. -1.
</event>
<event>
 3    0  0.4607503E-005  0.9118800E+02  0.7546771E-02  0.1235069E+00
         25   -1    0    0    0    0  0.00000000000E+00  0.00000000000E+00  0.99999998245E-14  0.12500000000E+03  0.12500000000E+03 0.  0.
          5    1    1    0  501    0 -0.42050082088E+02  0.44455715729E+02  0.11816934265E+02  0.62500000000E+02  0.47000000000E+01 0. -1.
         -5    1    1    0    0  501  0.42050082088E+02 -0.44455715729E+02 -0.11816934265E+02  0.62500000000E+02  0.47000000000E+01 0. -1.
</event>
<event>
 3    0  0.4607503E-005  0.9118800E+02  0.7546771E-02  0.1235069E+00
         25   -1    0    0    0    0  0.00000000000E+00  0.00000000000E+00  0.99999998245E-14  0.12500000000E+03  0.12500000000E+03 0.  0.
          5    1    1    0  501    0 -0.58720707311E+02 -0.18262721369E+02 -0.10124798325E+02  0.62500000000E+02  0.47000000000E+01 0.  1.
         -5    1    1    0    0  501  0.58720707311E+02  0.18262721369E+02  0.10124798325E+02  0.62500000000E+02  0.47000000000E+01 0.  1.
</event>
<event>
 3    0  0.4607503E-005  0.9118800E+02  0.7546771E-02  0.1235069E+00
         25   -1    0    0    0    0  0.00000000000E+00  0.00000000000E+00  0.99999998245E-14  0.12500000000E+03  0.12500000000E+03 0.  0.
          5    1    1    0  501    0 -0.61336965620E+02  0.93978946898E+01 -0.57979499784E+01  0.62500000000E+02  0.47000000000E+01 0.  1.
         -5    1    1    0    0  501  0.61336965620E+02 -0.93978946898E+01  0.57979499784E+01  0.62500000000E+02  0.47000000000E+01 0.  1.
</event>
<event>
 3    0  0.4607503E-005  0.9118800E+02  0.7546771E-02  0.1235069E+00
         25   -1    0    0    0    0  0.00000000000E+00  0.00000000000E+00  0.99999998245E-14  0.12500000000E+03  0.12500000000E+03 0.  0.
          5    1    1    0  501    0 -0.84321755367E+01  0.21209445731E+02  0.57993256742E+02  0.62500000000E+02  0.47000000000E+01 0. -1.
         -5    1    1    0    0  501  0.84321755367E+01 -0.21209445731E+02 -0.57993256742E+02  0.62500000000E+02  0.47000000000E+01 0. -1.
</event>
<event>
 3    0  0.4607503E-005  0.9118800E+02  0.7546771E-02  0.1235069E+00
         25   -1    0    0    0    0  0.00000000000E+00  0.00000000000E+00  0.99999998245E-14  0.12500000000E+03  0.12500000000E+03 0.  0.
          5    1    1    0  501    0 -0.44111939088E+02 -0.38359601348E+02 -0.21606429929E+02  0.62500000000E+02  0.47000000000E+01 0.  1.
         -5    1    1    0    0  501  0.44111939088E+02  0.38359601348E+02  0.21606429929E+02  0.62500000000E+02  0.47000000000E+01 0.  1.
</event>
<event>
 3    0  0.4607503E-005  0.9118800E+02  0.7546771E-02  0.1235069E+00
         25   -1    0    0    0    0  0.00000000000E+00  0.00000000000E+00  0.99999998245E-14  0.12500000000E+03  0.12500000000E+03 0.  0.
          5    1    1    0  501    0 -0.25118966763E+02  0.54109070813E+02 -0.18039012292E+02  0.62500000000E+02  0.47000000000E+01 0. -1.
         -5    1    1    0    0  501  0.25118966763E+02 -0.54109070813E+02  0.18039012292E+02  0.62500000000E+02  0.47000000000E+01 0. -1.
</event>
<event>
 3    0  0.4607503E-005  0.9118800E+02  0.7546771E-02  0.1235069E+00
         25   -1    0    0    0    0  0.00000000000E+00  0.00000000000E+00  0.99999998245E-14  0.12500000000E+03  0.12500000000E+03 0.  0.
          5    1    1    0  501    0  0.30015621478E+02 -0.54544403522E+02 -0.28514052211E+01  0.62500000000E+02  0.47000000000E+01 0. -1.
         -5    1    1    0    0  501 -0.30015621478E+02  0.54544403522E+02  0.28514052211E+01  0.62500000000E+02  0.47000000000E+01 0. -1.
</event>
<event>
 3    0  0.4607503E-005  0.9118800E+02  0.7546771E-02  0.1235069E+00
         25   -1    0    0    0    0  0.00000000000E+00  0.00000000000E+00  0.99999998245E-14  0.12500000000E+03  0.12500000000E+03 0.  0.
          5    1    1    0  501    0  0.55663231787E+02 -0.22145942130E+02  0.17184931603E+02  0.62500000000E+02  0.47000000000E+01 0. -1.
         -5    1    1    0    0  501 -0.55663231787E+02  0.22145942130E+02 -0.17184931603E+02  0.62500000000E+02  0.47000000000E+01 0. -1.
</event>
<event>
 3    0  0.4607503E-005  0.9118800E+02  0.7546771E-02  0.1235069E+00
         25   -1    0    0    0    0  0.00000000000E+00  0.00000000000E+00  0.99999998245E-14  0.12500000000E+03  0.12500000000E+03 0.  0.
          5    1    1    0  501    0  0.11461072584E+02  0.12454611643E+02  0.59980717435E+02  0.62500000000E+02  0.47000000000E+01 0. -1.
         -5    1    1    0    0  501 -0.11461072584E+02 -0.12454611643E+02 -0.59980717435E+02  0.62500000000E+02  0.47000000000E+01 0. -1.
</event>
<event>
 3    0  0.4607503E-005  0.9118800E+02  0.7546771E-02  0.1235069E+00
         25   -1    0    0    0    0  0.00000000000E+00  0.00000000000E+00  0.99999998245E-14  0.12500000000E+03  0.12500000000E+03 0.  0.
          5    1    1    0  501    0  0.20738057178E+02  0.38433385458E+02 -0.44463106804E+02  0.62500000000E+02  0.47000000000E+01 0.  1.
         -5    1    1    0    0  501 -0.20738057178E+02 -0.38433385458E+02  0.44463106804E+02  0.62500000000E+02  0.47000000000E+01 0.  1.
</event>
<event>
 3    0  0.4607503E-005  0.9118800E+02  0.7546771E-02  0.1235069E+00
         25   -1    0    0    0    0  0.00000000000E+00  0.00000000000E+00  0.99999998245E-14  0.12500000000E+03  0.12500000000E+03 0.  0.
          5    1    1    0  501    0  0.35440851022E+02 -0.46097113148E+02 -0.22431278124E+02  0.62500000000E+02  0.47000000000E+01 0.  1.
         -5    1    1    0    0  501 -0.35440851022E+02  0.46097113148E+02  0.22431278124E+02  0.62500000000E+02  0.47000000000E+01 0.  1.
</event>
<event>
 3    0  0.4607503E-005  0.9118800E+02  0.7546771E-02  0.1235069E+00
         25   -1    0    0    0    0  0.00000000000E+00  0.00000000000E+00  0.99999998245E-14  0.12500000000E+03  0.12500000000E+03 0.  0.
          5    1    1    0  501    0  0.41765427325E+02 -0.49758908956E+00 -0.46255394123E+02  0.62500000000E+02  0.47000000000E+01 0.  1.
         -5    1    1    0    0  501 -0.41765427325E+02  0.49758908956E+00  0.46255394123E+02  0.62500000000E+02  0.47000000000E+01 0.  1.
</event>
<event>
 3    0  0.4607503E-005  0.9118800E+02  0.7546771E-02  0.1235069E+00
         25   -1    0    0    0    0  0.00000000000E+00  0.00000000000E+00  0.99999998245E-14  0.12500000000E+03  0.12500000000E+03 0.  0.
          5    1    1    0  501    0  0.33857527550E+02 -0.16971819837E+02  0.49495304420E+02  0.62500000000E+02  0.47000000000E+01 0. -1.
         -5    1    1    0    0  501 -0.33857527550E+02  0.16971819837E+02 -0.49495304420E+02  0.62500000000E+02  0.47000000000E+01 0. -1.
</event>
<event>
 3    0  0.4607503E-005  0.9118800E+02  0.7546771E-02  0.1235069E+00
         25   -1    0    0    0    0  0.00000000000E+00  0.00000000000E+00  0.99999998245E-14  0.12500000000E+03  0.12500000000E+03 0.  0.
          5    1    1    0  501    0 -0.41460679246E+02  0.22361219466E+02  0.40806224286E+02  0.62500000000E+02  0.47000000000E+01 0. -1.
         -5    1    1    0    0  501  0.41460679246E+02 -0.22361219466E+02 -0.40806224286E+02  0.62500000000E+02  0.47000000000E+01 0. -1.
</event>
<event>
 3    0  0.4607503E-005  0.9118800E+02  0.7546771E-02  0.1235069E+00
         25   -1    0    0    0    0  0.00000000000E+00  0.00000000000E+00  0.99999998245E-14  0.12500000000E+03  0.12500000000E+03 0.  0.
          5    1    1    0  501    0 -0.43918519351E+02 -0.26461153619E+02 -0.35427828146E+02  0.62500000000E+02  0.47000000000E+01 0. -1.
         -5    1    1    0    0  501  0.43918519351E+02  0.26461153619E+02  0.35427828146E+02  0.62500000000E+02  0.47000000000E+01 0. -1.
</event>
<event>
 3    0  0.4607503E-005  0.9118800E+02  0.7546771E-02  0.1235069E+00
         25   -1    0    0    0    0  0.00000000000E+00  0.00000000000E+00  0.99999998245E-14  0.12500000000E+03  0.12500000000E+03 0.  0.
          5    1    1    0  501    0 -0.74737316020E+01  0.60264074123E+02 -0.14019440292E+02  0.62500000000E+02  0.47000000000E+01 0. -1.
         -5    1    1    0    0  501  0.74737316020E+01 -0.60264074123E+02  0.14019440292E+02  0.62500000000E+02  0.47000000000E+01 0. -1.
</event>
<event>
 3    0  0.4607503E-005  0.9118800E+02  0.7546771E-02  0.1235069E+00
         25   -1    0    0    0    0  0.00000000000E+00  0.00000000000E+00  0.99999998245E-14  0.12500000000E+03  0.12500000000E+03 0.  0.
          5    1    1    0  501    0 -0.31285386844E+02  0.20611945250E+02 -0.49804942356E+02  0.62500000000E+02  0.47000000000E+01 0.  1.
         -5    1    1    0    0  501  0.31285386844E+02 -0.20611945250E+02  0.49804942356E+02  0.62500000000E+02  0.47000000000E+01 0.  1.
</event>
<event>
 3    0  0.4607503E-005  0.9118800E+02  0.7546771E-02  0.1235069E+00
         25   -1    0    0    0    0  0.00000000000E+00  0.00000000000E+00  0.99999998245E-14  0.12500000000E+03  0.12500000000E+03 0.  0.
          5    1    1    0  501    0  0.26503778541E+02 -0.14253076850E+02  0.54576180916E+02  0.62500000000E+02  0.47000000000E+01 0.  1.
         -5    1    1    0    0  501 -0.26503778541E+02  0.14253076850E+02 -0.54576180916E+02  0.62500000000E+02  0.47000000000E+01 0.  1.
</event>
<event>
 3    0  0.4607503E-005  0.9118800E+02  0.7546771E-02  0.1235069E+00
         25   -1    0    0    0    0  0.00000000000E+00  0.00000000000E+00  0.99999998245E-14  0.12500000000E+03  0.12500000000E+03 0.  0.
          5    1    1    0  501    0 -0.39573354227E+02 -0.39753894558E+02 -0.27161323655E+02  0.62500000000E+02  0.47000000000E+01 0. -1.
         -5    1    1    0    0  501  0.39573354227E+02  0.39753894558E+02  0.27161323655E+02  0.62500000000E+02  0.47000000000E+01 0. -1.
</event>
<event>
 3    0  0.4607503E-005  0.9118800E+02  0.7546771E-02  0.1235069E+00
         25   -1    0    0    0    0  0.00000000000E+00  0.00000000000E+00  0.99999998245E-14  0.12500000000E+03  0.12500000000E+03 0.  0.
          5    1    1    0  501    0  0.44946578054E+02 -0.76332008625E+01 -0.42493521457E+02  0.62500000000E+02  0.47000000000E+01 0. -1.
         -5    1    1    0    0  501 -0.44946578054E+02  0.76332008625E+01  0.42493521457E+02  0.62500000000E+02  0.47000000000E+01 0. -1.
</event>
<event>
 3    0  0.4607503E-005  0.9118800E+02  0.7546771E-02  0.1235069E+00
         25   -1    0    0    0    0  0.00000000000E+00  0.00000000000E+00  0.99999998245E-14  0.12500000000E+03  0.12500000000E+03 0.  0.
          5    1    1    0  501    0  0.58967379541E+02 -0.17416671295E+02  0.10181734188E+02  0.62500000000E+02  0.47000000000E+01 0.  1.
         -5    1    1    0    0  501 -0.58967379541E+02  0.17416671295E+02 -0.10181734188E+02  0.62500000000E+02  0.47000000000E+01 0.  1.
</event>
<event>
 3    0  0.4607503E-005  0.9118800E+02  0.7546771E-02  0.1235069E+00
         25   -1    0    0    0    0  0.00000000000E+00  0.00000000000E+00  0.99999998245E-14  0.12500000000E+03  0.12500000000E+03 0.  0.
          5    1    1    0  501    0  0.21791622241E+02  0.29853392989E+02 -0.50180276276E+02  0.62500000000E+02  0.47000000000E+01 0. -1.
         -5    1    1    0    0  501 -0.21791622241E+02 -0.29853392989E+02  0.50180276276E+02  0.62500000000E+02  0.47000000000E+01 0. -1.
</event>
<event>
 3    0  0.4607503E-005  0.9118800E+02  0.7546771E-02  0.1235069E+00
         25   -1    0    0    0    0  0.00000000000E+00  0.00000000000E+00  0.99999998245E-14  0.12500000000E+03  0.12500000000E+03 0.  0.
          5    1    1    0  501    0  0.44315581763E+02  0.36448878997E+02 -0.24326290980E+02  0.62500000000E+02  0.47000000000E+01 0. -1.
         -5    1    1    0    0  501 -0.44315581763E+02 -0.36448878997E+02  0.24326290980E+02  0.62500000000E+02  0.47000000000E+01 0. -1.
</event>
<event>
 3    0  0.4607503E-005  0.9118800E+02  0.7546771E-02  0.1235069E+00
         25   -1    0    0    0    0  0.00000000000E+00  0.00000000000E+00  0.99999998245E-14  0.12500000000E+03  0.12500000000E+03 0.  0.
          5    1    1    0  501    0  0.74377218964E+01 -0.47280636173E+02  0.39917185973E+02  0.62500000000E+02  0.47000000000E+01 0. -1.
         -5    1    1    0    0  501 -0.74377218964E+01  0.47280636173E+02 -0.39917185973E+02  0.62500000000E+02  0.47000000000E+01 0. -1.
</event>
<event>
 3    0  0.4607503E-005  0.9118800E+02  0.7546771E-02  0.1235069E+00
         25   -1    0    0    0    0  0.00000000000E+00  0.00000000000E+00  0.99999998245E-14  0.12500000000E+03  0.12500000000E+03 0.  0.
          5    1    1    0  501    0  0.40662447968E+02  0.17625770699E+02 -0.43818461092E+02  0.62500000000E+02  0.47000000000E+01 0.  1.
         -5    1    1    0    0  501 -0.40662447968E+02 -0.17625770699E+02  0.43818461092E+02  0.62500000000E+02  0.47000000000E+01 0.  1.
</event>
<event>
 3    0  0.4607503E-005  0.9118800E+02  0.7546771E-02  0.1235069E+00
         25   -1    0    0    0    0  0.00000000000E+00  0.00000000000E+00  0.99999998245E-14  0.12500000000E+03  0.12500000000E+03 0.  0.
          5    1    1    0  501    0  0.42348280766E+02 -0.33858083512E+02 -0.30731308093E+02  0.62500000000E+02  0.47000000000E+01 0.  1.
         -5    1    1    0    0  501 -0.42348280766E+02  0.33858083512E+02  0.30731308093E+02  0.62500000000E+02  0.47000000000E+01 0.  1.
</event>
<event>
 3    0  0.4607503E-005  0.9118800E+02  0.7546771E-02  0.1235069E+00
         25   -1    0    0    0    0  0.00000000000E+00  0.00000000000E+00  0.99999998245E-14  0.12500000000E+03  0.12500000000E+03 0.  0.
          5    1    1    0  501    0 -0.35289113187E+01  0.58708608313E+02 -0.20615675950E+02  0.62500000000E+02  0.47000000000E+01 0. -1.
         -5    1    1    0    0  501  0.35289113187E+01 -0.58708608313E+02  0.20615675950E+02  0.62500000000E+02  0.47000000000E+01 0. -1.
</event>
<event>
 3    0  0.4607503E-005  0.9118800E+02  0.7546771E-02  0.1235069E+00
         25   -1    0    0    0    0  0.00000000000E+00  0.00000000000E+00  0.99999998245E-14  0.12500000000E+03  0.12500000000E+03 0.  0.
          5    1    1    0  501    0  0.47794563400E+02 -0.22051458258E+02  0.33370239707E+02  0.62500000000E+02  0.47000000000E+01 0. -1.
         -5    1    1    0    0  501 -0.47794563400E+02  0.22051458258E+02 -0.33370239707E+02  0.62500000000E+02  0.47000000000E+01 0. -1.
</event>
<event>
 3    0  0.4607503E-005  0.9118800E+02  0.7546771E-02  0.1235069E+00
         25   -1    0    0    0    0  0.00000000000E+00  0.00000000000E+00  0.99999998245E-14  0.12500000000E+03  0.12500000000E+03 0.  0.
          5    1    1    0  501    0 -0.37764097908E+02 -0.32059354890E+02  0.37818390675E+02  0.62500000000E+02  0.47000000000E+01 0. -1.
         -5    1    1    0    0  501  0.37764097908E+02  0.32059354890E+02 -0.37818390675E+02  0.62500000000E+02  0.47000000000E+01 0. -1.
</event>
<event>
 3    0  0.4607503E-005  0.9118800E+02  0.7546771E-02  0.1235069E+00
         25   -1    0    0    0    0  0.00000000000E+00  0.00000000000E+00  0.99999998245E-14  0.12500000000E+03  0.12500000000E+03 0.  0.
          5    1    1    0  501    0  0.11968026702E+02 -0.11681717745E+02 -0.60037186871E+02  0.62500000000E+02  0.47000000000E+01 0. -1.
         -5    1    1    0    0  501 -0.11968026702E+02  0.11681717745E+02  0.60037186871E+02  0.62500000000E+02  0.47000000000E+01 0. -1.
</event>
<event>
 3    0  0.4607503E-005  0.9118800E+02  0.7546771E-02  0.1235069E+00
         25   -1    0    0    0    0  0.00000000000E+00  0.00000000000E+00  0.99999998245E-14  0.12500000000E+03  0.12500000000E+03 0.  0.
          5    1    1    0  501    0 -0.59817155891E+02 -0.10649509022E+02  0.13880051108E+02  0.62500000000E+02  0.47000000000E+01 0. -1.
         -5    1    1    0    0  501  0.59817155891E+02  0.10649509022E+02 -0.13880051108E+02  0.62500000000E+02  0.47000000000E+01 0. -1.
</event>
<event>
 3    0  0.4607503E-005  0.9118800E+02  0.7546771E-02  0.1235069E+00
         25   -1    0    0    0    0  0.00000000000E+00  0.00000000000E+00  0.99999998245E-14  0.12500000000E+03  0.12500000000E+03 0.  0.
          5    1    1    0  501    0  0.48307160310E+02  0.31286966582E+01  0.39252891868E+02  0.62500000000E+02  0.47000000000E+01 0. -1.
         -5    1    1    0    0  501 -0.48307160310E+02 -0.31286966582E+01 -0.39252891868E+02  0.62500000000E+02  0.47000000000E+01 0. -1.
</event>
<event>
 3    0  0.4607503E-005  0.9118800E+02  0.7546771E-02  0.1235069E+00
         25   -1    0    0    0    0  0.00000000000E+00  0.00000000000E+00  0.99999998245E-14  0.12500000000E+03  0.12500000000E+03 0.  0.
          5    1    1    0  501    0 -0.47031879556E+02  0.40381004229E+02  0.64449051881E+01  0.62500000000E+02  0.47000000000E+01 0.  1.
         -5    1    1    0    0  501  0.47031879556E+02 -0.40381004229E+02 -0.64449051881E+01  0.62500000000E+02  0.47000000000E+01 0.  1.
</event>
<event>
 3    0  0.4607503E-005  0.9118800E+02  0.7546771E-02  0.1235069E+00
         25   -1    0    0    0    0  0.00000000000E+00  0.00000000000E+00  0.99999998245E-14  0.12500000000E+03  0.12500000000E+03 0.  0.
          5    1    1    0  501    0  0.30245001599E+02  0.40537841194E+02 -0.36415426808E+02  0.62500000000E+02  0.47000000000E+01 0. -1.
         -5    1    1    0    0  501 -0.30245001599E+02 -0.40537841194E+02  0.36415426808E+02  0.62500000000E+02  0.47000000000E+01 0. -1.
</event>
<event>
 3    0  0.4607503E-005  0.9118800E+02  0.7546771E-02  0.1235069E+00
         25   -1    0    0    0    0  0.00000000000E+00  0.00000000000E+00  0.99999998245E-14  0.12500000000E+03  0.12500000000E+03 0.  0.
          5    1    1    0  501    0 -0.52295284547E+02  0.21853070583E+02  0.25919230704E+02  0.62500000000E+02  0.47000000000E+01 0.  1.
         -5    1    1    0    0  501  0.52295284547E+02 -0.21853070583E+02 -0.25919230704E+02  0.62500000000E+02  0.47000000000E+01 0.  1.
</event>
<event>
 3    0  0.4607503E-005  0.9118800E+02  0.7546771E-02  0.1235069E+00
         25   -1    0    0    0    0  0.00000000000E+00  0.00000000000E+00  0.99999998245E-14  0.12500000000E+03  0.12500000000E+03 0.  0.
          5    1    1    0  501    0 -0.93895415315E+01  0.59192113122E+02 -0.17096498295E+02  0.62500000000E+02  0.47000000000E+01 0.  1.
         -5    1    1    0    0  501  0.93895415315E+01 -0.59192113122E+02  0.17096498295E+02  0.62500000000E+02  0.47000000000E+01 0.  1.
</event>
<event>
 3    0  0.4607503E-005  0.9118800E+02  0.7546771E-02  0.1235069E+00
         25   -1    0    0    0    0  0.00000000000E+00  0.00000000000E+00  0.99999998245E-14  0.12500000000E+03  0.12500000000E+03 0.  0.
          5    1    1    0  501    0 -0.54344514834E+02  0.26675930422E+02  0.14806364967E+02  0.62500000000E+02  0.47000000000E+01 0. -1.
         -5    1    1    0    0  501  0.54344514834E+02 -0.26675930422E+02 -0.14806364967E+02  0.62500000000E+02  0.47000000000E+01 0. -1.
</event>
<event>
 3    0  0.4607503E-005  0.9118800E+02  0.7546771E-02  0.1235069E+00
         25   -1    0    0    0    0  0.00000000000E+00  0.00000000000E+00  0.99999998245E-14  0.12500000000E+03  0.12500000000E+03 0.  0.
          5    1    1    0  501    0  0.36482934612E+01  0.30678067845E+02  0.54126759631E+02  0.62500000000E+02  0.47000000000E+01 0. -1.
         -5    1    1    0    0  501 -0.36482934612E+01 -0.30678067845E+02 -0.54126759631E+02  0.62500000000E+02  0.47000000000E+01 0. -1.
</event>
<event>
 3    0  0.4607503E-005  0.9118800E+02  0.7546771E-02  0.1235069E+00
         25   -1    0    0    0    0  0.00000000000E+00  0.00000000000E+00  0.99999998245E-14  0.12500000000E+03  0.12500000000E+03 0.  0.
          5    1    1    0  501    0  0.37172970171E+02 -0.42827515166E+02 -0.25848292659E+02  0.62500000000E+02  0.47000000000E+01 0.  1.
         -5    1    1    0    0  501 -0.37172970171E+02  0.42827515166E+02  0.25848292659E+02  0.62500000000E+02  0.47000000000E+01 0.  1.
</event>
<event>
 3    0  0.4607503E-005  0.9118800E+02  0.7546771E-02  0.1235069E+00
         25   -1    0    0    0    0  0.00000000000E+00  0.00000000000E+00  0.99999998245E-14  0.12500000000E+03  0.12500000000E+03 0.  0.
          5    1    1    0  501    0 -0.19317762108E+02  0.47586842667E+01 -0.59062162094E+02  0.62500000000E+02  0.47000000000E+01 0.  1.
         -5    1    1    0    0  501  0.19317762108E+02 -0.47586842667E+01  0.59062162094E+02  0.62500000000E+02  0.47000000000E+01 0.  1.
</event>
<event>
 3    0  0.4607503E-005  0.9118800E+02  0.7546771E-02  0.1235069E+00
         25   -1    0    0    0    0  0.00000000000E+00  0.00000000000E+00  0.99999998245E-14  0.12500000000E+03  0.12500000000E+03 0.  0.
          5    1    1    0  501    0 -0.32748281159E+02 -0.49259652235E+02 -0.19626429702E+02  0.62500000000E+02  0.47000000000E+01 0.  1.
         -5    1    1    0    0  501  0.32748281159E+02  0.49259652235E+02  0.19626429702E+02  0.62500000000E+02  0.47000000000E+01 0.  1.
</event>
<event>
 3    0  0.4607503E-005  0.9118800E+02  0.7546771E-02  0.1235069E+00
         25   -1    0    0    0    0  0.00000000000E+00  0.00000000000E+00  0.99999998245E-14  0.12500000000E+03  0.12500000000E+03 0.  0.
          5    1    1    0  501    0  0.54432930259E+02 -0.30216651083E+02 -0.28583387974E+01  0.62500000000E+02  0.47000000000E+01 0. -1.
         -5    1    1    0    0  501 -0.54432930259E+02  0.30216651083E+02  0.28583387974E+01  0.62500000000E+02  0.47000000000E+01 0. -1.
</event>
<event>
 3    0  0.4607503E-005  0.9118800E+02  0.7546771E-02  0.1235069E+00
         25   -1    0    0    0    0  0.00000000000E+00  0.00000000000E+00  0.99999998245E-14  0.12500000000E+03  0.12500000000E+03 0.  0.
          5    1    1    0  501    0 -0.20729844784E+02  0.49491212078E+02 -0.31702578164E+02  0.62500000000E+02  0.47000000000E+01 0. -1.
         -5    1    1    0    0  501  0.20729844784E+02 -0.49491212078E+02  0.31702578164E+02  0.62500000000E+02  0.47000000000E+01 0. -1.
</event>
<event>
 3    0  0.4607503E-005  0.9118800E+02  0.7546771E-02  0.1235069E+00
         25   -1    0    0    0    0  0.00000000000E+00  0.00000000000E+00  0.99999998245E-14  0.12500000000E+03  0.12500000000E+03 0.  0.
          5    1    1    0  501    0  0.35567909488E+02  0.29997431168E+02 -0.41463694216E+02  0.62500000000E+02  0.47000000000E+01 0.  1.
         -5    1    1    0    0  501 -0.35567909488E+02 -0.29997431168E+02  0.41463694216E+02  0.62500000000E+02  0.47000000000E+01 0.  1.
</event>
<event>
 3    0  0.4607503E-005  0.9118800E+02  0.7546771E-02  0.1235069E+00
         25   -1    0    0    0    0  0.00000000000E+00  0.00000000000E+00  0.99999998245E-14  0.12500000000E+03  0.12500000000E+03 0.  0.
          5    1    1    0  501    0  0.43748198058E+02 -0.41052669436E+02 -0.16879973309E+02  0.62500000000E+02  0.47000000000E+01 0.  1.
         -5    1    1    0    0  501 -0.43748198058E+02  0.41052669436E+02  0.16879973309E+02  0.62500000000E+02  0.47000000000E+01 0.  1.
</event>
<event>
 3    0  0.4607503E-005  0.9118800E+02  0.7546771E-02  0.1235069E+00
         25   -1    0    0    0    0  0.00000000000E+00  0.00000000000E+00  0.99999998245E-14  0.12500000000E+03  0.12500000000E+03 0.  0.
          5    1    1    0  501    0 -0.71144011507E+01 -0.59181212204E+02 -0.18196961787E+02  0.62500000000E+02  0.47000000000E+01 0.  1.
         -5    1    1    0    0  501  0.71144011507E+01  0.59181212204E+02  0.18196961787E+02  0.62500000000E+02  0.47000000000E+01 0.  1.
</event>
<event>
 3    0  0.4607503E-005  0.9118800E+02  0.7546771E-02  0.1235069E+00
         25   -1    0    0    0    0  0.00000000000E+00  0.00000000000E+00  0.99999998245E-14  0.12500000000E+03  0.12500000000E+03 0.  0.
          5    1    1    0  501    0  0.22503534079E+02 -0.24689502373E+02 -0.52613490918E+02  0.62500000000E+02  0.47000000000E+01 0.  1.
         -5    1    1    0    0  501 -0.22503534079E+02  0.24689502373E+02  0.52613490918E+02  0.62500000000E+02  0.47000000000E+01 0.  1.
</event>
<event>
 3    0  0.4607503E-005  0.9118800E+02  0.7546771E-02  0.1235069E+00
         25   -1    0    0    0    0  0.00000000000E+00  0.00000000000E+00  0.99999998245E-14  0.12500000000E+03  0.12500000000E+03 0.  0.
          5    1    1    0  501    0  0.54325286989E+02  0.91576404892E+01  0.29138648120E+02  0.62500000000E+02  0.47000000000E+01 0.  1.
         -5    1    1    0    0  501 -0.54325286989E+02 -0.91576404892E+01 -0.29138648120E+02  0.62500000000E+02  0.47000000000E+01 0.  1.
</event>
<event>
 3    0  0.4607503E-005  0.9118800E+02  0.7546771E-02  0.1235069E+00
         25   -1    0    0    0    0  0.00000000000E+00  0.00000000000E+00  0.99999998245E-14  0.12500000000E+03  0.12500000000E+03 0.  0.
          5    1    1    0  501    0 -0.19583991918E+02  0.11937812911E+02 -0.57949252656E+02  0.62500000000E+02  0.47000000000E+01 0. -1.
         -5    1    1    0    0  501  0.19583991918E+02 -0.11937812911E+02  0.57949252656E+02  0.62500000000E+02  0.47000000000E+01 0. -1.
</event>
<event>
 3    0  0.4607503E-005  0.9118800E+02  0.7546771E-02  0.1235069E+00
         25   -1    0    0    0    0  0.00000000000E+00  0.00000000000E+00  0.99999998245E-14  0.12500000000E+03  0.12500000000E+03 0.  0.
          5    1    1    0  501    0 -0.56318259097E+02  0.18315431569E+02  0.19415423218E+02  0.62500000000E+02  0.47000000000E+01 0. -1.
         -5    1    1    0    0  501  0.56318259097E+02 -0.18315431569E+02 -0.19415423218E+02  0.62500000000E+02  0.47000000000E+01 0. -1.
</event>
<event>
 3    0  0.4607503E-005  0.9118800E+02  0.7546771E-02  0.1235069E+00
         25   -1    0    0    0    0  0.00000000000E+00  0.00000000000E+00  0.99999998245E-14  0.12500000000E+03  0.12500000000E+03 0.  0.
          5    1    1    0  501    0 -0.16987192896E+02  0.39634758407E+02 -0.44996457678E+02  0.62500000000E+02  0.47000000000E+01 0.  1.
         -5    1    1    0    0  501  0.16987192896E+02 -0.39634758407E+02  0.44996457678E+02  0.62500000000E+02  0.47000000000E+01 0.  1.
</event>
<event>
 3    0  0.4607503E-005  0.9118800E+02  0.7546771E-02  0.1235069E+00
         25   -1    0    0    0    0  0.00000000000E+00  0.00000000000E+00  0.99999998245E-14  0.12500000000E+03  0.12500000000E+03 0.  0.
          5    1    1    0  501    0  0.38537605969E+02 -0.27834537401E+02  0.40302003100E+02  0.62500000000E+02  0.47000000000E+01 0.  1.
         -5    1    1    0    0  501 -0.38537605969E+02  0.27834537401E+02 -0.40302003100E+02  0.62500000000E+02  0.47000000000E+01 0.  1.
</event>
<event>
 3    0  0.4607503E-005  0.9118800E+02  0.7546771E-02  0.1235069E+00
         25   -1    0    0    0    0  0.00000000000E+00  0.00000000000E+00  0.99999998245E-14  0.12500000000E+03  0.12500000000E+03 0.  0.
          5    1    1    0  501    0  0.57796777317E+02  0.85957974739E+00  0.23301365934E+02  0.62500000000E+02  0.47000000000E+01 0. -1.
         -5    1    1    0    0  501 -0.57796777317E+02 -0.85957974739E+00 -0.23301365934E+02  0.62500000000E+02  0.47000000000E+01 0. -1.
</event>
<event>
 3    0  0.4607503E-005  0.9118800E+02  0.7546771E-02  0.1235069E+00
         25   -1    0    0    0    0  0.00000000000E+00  0.00000000000E+00  0.99999998245E-14  0.12500000000E+03  0.12500000000E+03 0.  0.
          5    1    1    0  501    0 -0.60458898255E+02 -0.48305941298E+01 -0.14336909785E+02  0.62500000000E+02  0.47000000000E+01 0.  1.
         -5    1    1    0    0  501  0.60458898255E+02  0.48305941298E+01  0.14336909785E+02  0.62500000000E+02  0.47000000000E+01 0.  1.
</event>
<event>
 3    0  0.4607503E-005  0.9118800E+02  0.7546771E-02  0.1235069E+00
         25   -1    0    0    0    0  0.00000000000E+00  0.00000000000E+00  0.99999998245E-14  0.12500000000E+03  0.12500000000E+03 0.  0.
          5    1    1    0  501    0  0.36715555318E+02  0.47880188885E+02 -0.15608187273E+02  0.62500000000E+02  0.47000000000E+01 0. -1.
         -5    1    1    0    0  501 -0.36715555318E+02 -0.47880188885E+02  0.15608187273E+02  0.62500000000E+02  0.47000000000E+01 0. -1.
</event>
<event>
 3    0  0.4607503E-005  0.9118800E+02  0.7546771E-02  0.1235069E+00
         25   -1    0    0    0    0  0.00000000000E+00  0.00000000000E+00  0.99999998245E-14  0.12500000000E+03  0.12500000000E+03 0.  0.
          5    1    1    0  501    0 -0.67131179999E+01 -0.11353637249E+01 -0.61950020145E+02  0.62500000000E+02  0.47000000000E+01 0. -1.
         -5    1    1    0    0  501  0.67131179999E+01  0.11353637249E+01  0.61950020145E+02  0.62500000000E+02  0.47000000000E+01 0. -1.
</event>
<event>
 3    0  0.4607503E-005  0.9118800E+02  0.7546771E-02  0.1235069E+00
         25   -1    0    0    0    0  0.00000000000E+00  0.00000000000E+00  0.99999998245E-14  0.12500000000E+03  0.12500000000E+03 0.  0.
          5    1    1    0  501    0  0.20855789286E+02  0.53278660691E+02  0.24709924487E+02  0.62500000000E+02  0.47000000000E+01 0. -1.
         -5    1    1    0    0  501 -0.20855789286E+02 -0.53278660691E+02 -0.24709924487E+02  0.62500000000E+02  0.47000000000E+01 0. -1.
</event>
<event>
 3    0  0.4607503E-005  0.9118800E+02  0.7546771E-02  0.1235069E+00
         25   -1    0    0    0    0  0.00000000000E+00  0.00000000000E+00  0.99999998245E-14  0.12500000000E+03  0.12500000000E+03 0.  0.
          5    1    1    0  501    0 -0.28349652350E+02 -0.37441060677E+02  0.40971016427E+02  0.62500000000E+02  0.47000000000E+01 0. -1.
         -5    1    1    0    0  501  0.28349652350E+02  0.37441060677E+02 -0.40971016427E+02  0.62500000000E+02  0.47000000000E+01 0. -1.
</event>
<event>
 3    0  0.4607503E-005  0.9118800E+02  0.7546771E-02  0.1235069E+00
         25   -1    0    0    0    0  0.00000000000E+00  0.00000000000E+00  0.99999998245E-14  0.12500000000E+03  0.12500000000E+03 0.  0.
          5    1    1    0  501    0  0.73912715912E+00  0.46192136641E+02 -0.41831808514E+02  0.62500000000E+02  0.47000000000E+01 0. -1.
         -5    1    1    0    0  501 -0.73912715912E+00 -0.46192136641E+02  0.41831808514E+02  0.62500000000E+02  0.47000000000E+01 0. -1.
</event>
<event>
 3    0  0.4607503E-005  0.9118800E+02  0.7546771E-02  0.1235069E+00
         25   -1    0    0    0    0  0.00000000000E+00  0.00000000000E+00  0.99999998245E-14  0.12500000000E+03  0.12500000000E+03 0.  0.
          5    1    1    0  501    0 -0.16249167180E+02 -0.52449773754E+02  0.29481278790E+02  0.62500000000E+02  0.47000000000E+01 0.  1.
         -5    1    1    0    0  501  0.16249167180E+02  0.52449773754E+02 -0.29481278790E+02  0.62500000000E+02  0.47000000000E+01 0.  1.
</event>
<event>
 3    0  0.4607503E-005  0.9118800E+02  0.7546771E-02  0.1235069E+00
         25   -1    0    0    0    0  0.00000000000E+00  0.00000000000E+00  0.99999998245E-14  0.12500000000E+03  0.12500000000E+03 0.  0.
          5    1    1    0  501    0 -0.49714677272E+02  0.28387733545E+02  0.24632244069E+02  0.62500000000E+02  0.47000000000E+01 0.  1.
         -5    1    1    0    0  501  0.49714677272E+02 -0.28387733545E+02 -0.24632244069E+02  0.62500000000E+02  0.47000000000E+01 0.  1.
</event>
<event>
 3    0  0.4607503E-005  0.9118800E+02  0.7546771E-02  0.1235069E+00
         25   -1    0    0    0    0  0.00000000000E+00  0.00000000000E+00  0.99999998245E-14  0.12500000000E+03  0.12500000000E+03 0.  0.
          5    1    1    0  501    0 -0.16954599975E+02 -0.59329820204E+02 -0.87563676401E+01  0.62500000000E+02  0.47000000000E+01 0. -1.
         -5    1    1    0    0  501  0.16954599975E+02  0.59329820204E+02  0.87563676401E+01  0.62500000000E+02  0.47000000000E+01 0. -1.
</event>
<event>
 3    0  0.4607503E-005  0.9118800E+02  0.7546771E-02  0.1235069E+00
         25   -1    0    0    0    0  0.00000000000E+00  0.00000000000E+00  0.99999998245E-14  0.12500000000E+03  0.12500000000E+03 0.  0.
          5    1    1    0  501    0 -0.13666524012E+01  0.19853456230E+02  0.59060414297E+02  0.62500000000E+02  0.47000000000E+01 0.  1.
         -5    1    1    0    0  501  0.13666524012E+01 -0.19853456230E+02 -0.59060414297E+02  0.62500000000E+02  0.47000000000E+01 0.  1.
</event>
<event>
 3    0  0.4607503E-005  0.9118800E+02  0.7546771E-02  0.1235069E+00
         25   -1    0    0    0    0  0.00000000000E+00  0.00000000000E+00  0.99999998245E-14  0.12500000000E+03  0.12500000000E+03 0.  0.
          5    1    1    0  501    0  0.59987671801E+02  0.36095877234E+01 -0.16510908770E+02  0.62500000000E+02  0.47000000000E+01 0. -1.
         -5    1    1    0    0  501 -0.59987671801E+02 -0.36095877234E+01  0.16510908770E+02  0.62500000000E+02  0.47000000000E+01 0. -1.
</event>
<event>
 3    0  0.4607503E-005  0.9118800E+02  0.7546771E-02  0.1235069E+00
         25   -1    0    0    0    0  0.00000000000E+00  0.00000000000E+00  0.99999998245E-14  0.12500000000E+03  0.12500000000E+03 0.  0.
          5    1    1    0  501    0 -0.37608555791E+02 -0.47336082789E+02 -0.15134457292E+02  0.62500000000E+02  0.47000000000E+01 0.  1.
         -5    1    1    0    0  501  0.37608555791E+02  0.47336082789E+02  0.15134457292E+02  0.62500000000E+02  0.47000000000E+01 0.  1.
</event>
<event>
 3    0  0.4607503E-005  0.9118800E+02  0.7546771E-02  0.1235069E+00
         25   -1    0    0    0    0  0.00000000000E+00  0.00000000000E+00  0.99999998245E-14  0.12500000000E+03  0.12500000000E+03 0.  0.
          5    1    1    0  501    0 -0.62194647151E+02 -0.33965295660E+01  0.21093725770E+01  0.62500000000E+02  0.47000000000E+01 0.  1.
         -5    1    1    0    0  501  0.62194647151E+02  0.33965295660E+01 -0.21093725770E+01  0.62500000000E+02  0.47000000000E+01 0.  1.
</event>
<event>
 3    0  0.4607503E-005  0.9118800E+02  0.7546771E-02  0.1235069E+00
         25   -1    0    0    0    0  0.00000000000E+00  0.00000000000E+00  0.99999998245E-14  0.12500000000E+03  0.12500000000E+03 0.  0.
          5    1    1    0  501    0 -0.52815940009E+02  0.25353463577E+02 -0.21256489965E+02  0.62500000000E+02  0.47000000000E+01 0. -1.
         -5    1    1    0    0  501  0.52815940009E+02 -0.25353463577E+02  0.21256489965E+02  0.62500000000E+02  0.47000000000E+01 0. -1.
</event>
<event>
 3    0  0.4607503E-005  0.9118800E+02  0.7546771E-02  0.1235069E+00
         25   -1    0    0    0    0  0.00000000000E+00  0.00000000000E+00  0.99999998245E-14  0.12500000000E+03  0.12500000000E+03 0.  0.
          5    1    1    0  501    0  0.23473533468E+02 -0.38838613787E+02  0.42716686501E+02  0.62500000000E+02  0.47000000000E+01 0. -1.
         -5    1    1    0    0  501 -0.23473533468E+02  0.38838613787E+02 -0.42716686501E+02  0.62500000000E+02  0.47000000000E+01 0. -1.
</event>
<event>
 3    0  0.4607503E-005  0.9118800E+02  0.7546771E-02  0.1235069E+00
         25   -1    0    0    0    0  0.00000000000E+00  0.00000000000E+00  0.99999998245E-14  0.12500000000E+03  0.12500000000E+03 0.  0.
          5    1    1    0  501    0  0.61604670498E+02  0.94203642541E+01 -0.53038674613E+00  0.62500000000E+02  0.47000000000E+01 0. -1.
         -5    1    1    0    0  501 -0.61604670498E+02 -0.94203642541E+01  0.53038674613E+00  0.62500000000E+02  0.47000000000E+01 0. -1.
</event>
<event>
 3    0  0.4607503E-005  0.9118800E+02  0.7546771E-02  0.1235069E+00
         25   -1    0    0    0    0  0.00000000000E+00  0.00000000000E+00  0.99999998245E-14  0.12500000000E+03  0.12500000000E+03 0.  0.
          5    1    1    0  501    0  0.59313958733E+02 -0.18010753986E+02 -0.64519020686E+01  0.62500000000E+02  0.47000000000E+01 0. -1.
         -5    1    1    0    0  501 -0.59313958733E+02  0.18010753986E+02  0.64519020686E+01  0.62500000000E+02  0.47000000000E+01 0. -1.
</event>
<event>
 3    0  0.4607503E-005  0.9118800E+02  0.7546771E-02  0.1235069E+00
         25   -1    0    0    0    0  0.00000000000E+00  0.00000000000E+00  0.99999998245E-14  0.12500000000E+03  0.12500000000E+03 0.  0.
          5    1    1    0  501    0 -0.13323395398E+02  0.53706605557E+01 -0.60644893769E+02  0.62500000000E+02  0.47000000000E+01 0.  1.
         -5    1    1    0    0  501  0.13323395398E+02 -0.53706605557E+01  0.60644893769E+02  0.62500000000E+02  0.47000000000E+01 0.  1.
</event>
<event>
 3    0  0.4607503E-005  0.9118800E+02  0.7546771E-02  0.1235069E+00
         25   -1    0    0    0    0  0.00000000000E+00  0.00000000000E+00  0.99999998245E-14  0.12500000000E+03  0.12500000000E+03 0.  0.
          5    1    1    0  501    0  0.26489301318E+02  0.50437973714E+02 -0.25268314613E+02  0.62500000000E+02  0.47000000000E+01 0.  1.
         -5    1    1    0    0  501 -0.26489301318E+02 -0.50437973714E+02  0.25268314613E+02  0.62500000000E+02  0.47000000000E+01 0.  1.
</event>
<event>
 3    0  0.4607503E-005  0.9118800E+02  0.7546771E-02  0.1235069E+00
         25   -1    0    0    0    0  0.00000000000E+00  0.00000000000E+00  0.99999998245E-14  0.12500000000E+03  0.12500000000E+03 0.  0.
          5    1    1    0  501    0  0.49366663356E+02  0.41970315532E+01  0.37808431272E+02  0.62500000000E+02  0.47000000000E+01 0.  1.
         -5    1    1    0    0  501 -0.49366663356E+02 -0.41970315532E+01 -0.37808431272E+02  0.62500000000E+02  0.47000000000E+01 0.  1.
</event>
<event>
 3    0  0.4607503E-005  0.9118800E+02  0.7546771E-02  0.1235069E+00
         25   -1    0    0    0    0  0.00000000000E+00  0.00000000000E+00  0.99999998245E-14  0.12500000000E+03  0.12500000000E+03 0.  0.
          5    1    1    0  501    0 -0.10115134704E+02  0.40259802109E+02  0.46486475281E+02  0.62500000000E+02  0.47000000000E+01 0.  1.
         -5    1    1    0    0  501  0.10115134704E+02 -0.40259802109E+02 -0.46486475281E+02  0.62500000000E+02  0.47000000000E+01 0.  1.
</event>
<event>
 3    0  0.4607503E-005  0.9118800E+02  0.7546771E-02  0.1235069E+00
         25   -1    0    0    0    0  0.00000000000E+00  0.00000000000E+00  0.99999998245E-14  0.12500000000E+03  0.12500000000E+03 0.  0.
          5    1    1    0  501    0  0.11868775195E+02  0.57257139487E+02 -0.21561821656E+02  0.62500000000E+02  0.47000000000E+01 0.  1.
         -5    1    1    0    0  501 -0.11868775195E+02 -0.57257139487E+02  0.21561821656E+02  0.62500000000E+02  0.47000000000E+01 0.  1.
</event>
<event>
 3    0  0.4607503E-005  0.9118800E+02  0.7546771E-02  0.1235069E+00
         25   -1    0    0    0    0  0.00000000000E+00  0.00000000000E+00  0.99999998245E-14  0.12500000000E+03  0.12500000000E+03 0.  0.
          5    1    1    0  501    0  0.36377747375E+02 -0.43006929772E+02 -0.26668773642E+02  0.62500000000E+02  0.47000000000E+01 0. -1.
         -5    1    1    0    0  501 -0.36377747375E+02  0.43006929772E+02  0.26668773642E+02  0.62500000000E+02  0.47000000000E+01 0. -1.
</event>
<event>
 3    0  0.4607503E-005  0.9118800E+02  0.7546771E-02  0.1235069E+00
         25   -1    0    0    0    0  0.00000000000E+00  0.00000000000E+00  0.99999998245E-14  0.12500000000E+03  0.12500000000E+03 0.  0.
          5    1    1    0  501    0 -0.13151062051E+02  0.28278245404E+02 -0.53958784306E+02  0.62500000000E+02  0.47000000000E+01 0. -1.
         -5    1    1    0    0  501  0.13151062051E+02 -0.28278245404E+02  0.53958784306E+02  0.62500000000E+02  0.47000000000E+01 0. -1.
</event>
<event>
 3    0  0.4607503E-005  0.9118800E+02  0.7546771E-02  0.1235069E+00
         25   -1    0    0    0    0  0.00000000000E+00  0.00000000000E+00  0.99999998245E-14  0.12500000000E+03  0.12500000000E+03 0.  0.
          5    1    1    0  501    0 -0.85526922172E+01  0.14978662276E+01 -0.61715215730E+02  0.62500000000E+02  0.47000000000E+01 0. -1.
         -5    1    1    0    0  501  0.85526922172E+01 -0.14978662276E+01  0.61715215730E+02  0.62500000000E+02  0.47000000000E+01 0. -1.
</event>
<event>
 3    0  0.4607503E-005  0.9118800E+02  0.7546771E-02  0.1235069E+00
         25   -1    0    0    0    0  0.00000000000E+00  0.00000000000E+00  0.99999998245E-14  0.12500000000E+03  0.12500000000E+03 0.  0.
          5    1    1    0  501    0 -0.61650369911E+02 -0.83630284354E+01  0.36676484582E+01  0.62500000000E+02  0.47000000000E+01 0. -1.
         -5    1    1    0    0  501  0.61650369911E+02  0.83630284354E+01 -0.36676484582E+01  0.62500000000E+02  0.47000000000E+01 0. -1.
</event>
<event>
 3    0  0.4607503E-005  0.9118800E+02  0.7546771E-02  0.1235069E+00
         25   -1    0    0    0    0  0.00000000000E+00  0.00000000000E+00  0.99999998245E-14  0.12500000000E+03  0.12500000000E+03 0.  0.
          5    1    1    0  501    0 -0.15287740261E+02  0.33583422921E+01  0.60325504845E+02  0.62500000000E+02  0.47000000000E+01 0.  1.
         -5    1    1    0    0  501  0.15287740261E+02 -0.33583422921E+01 -0.60325504845E+02  0.62500000000E+02  0.47000000000E+01 0.  1.
</event>
<event>
 3    0  0.4607503E-005  0.9118800E+02  0.7546771E-02  0.1235069E+00
         25   -1    0    0    0    0  0.00000000000E+00  0.00000000000E+00  0.99999998245E-14  0.12500000000E+03  0.12500000000E+03 0.  0.
          5    1    1    0  501    0  0.45979335508E+02 -0.41309656712E+02 -0.79732658616E+01  0.62500000000E+02  0.47000000000E+01 0.  1.
         -5    1    1    0    0  501 -0.45979335508E+02  0.41309656712E+02  0.79732658616E+01  0.62500000000E+02  0.47000000000E+01 0.  1.
</event>
<event>
 3    0  0.4607503E-005  0.9118800E+02  0.7546771E-02  0.1235069E+00
         25   -1    0    0    0    0  0.00000000000E+00  0.00000000000E+00  0.99999998245E-14  0.12500000000E+03  0.12500000000E+03 0.  0.
          5    1    1    0  501    0  0.11183223931E+02 -0.41293299990E+02 -0.45320623103E+02  0.62500000000E+02  0.47000000000E+01 0.  1.
         -5    1    1    0    0  501 -0.11183223931E+02  0.41293299990E+02  0.45320623103E+02  0.62500000000E+02  0.47000000000E+01 0.  1.
</event>
<event>
 3    0  0.4607503E-005  0.9118800E+02  0.7546771E-02  0.1235069E+00
         25   -1    0    0    0    0  0.00000000000E+00  0.00000000000E+00  0.99999998245E-14  0.12500000000E+03  0.12500000000E+03 0.  0.
          5    1    1    0  501    0 -0.25391693904E+02  0.56346953930E+02  0.80276187946E+01  0.62500000000E+02  0.47000000000E+01 0.  1.
         -5    1    1    0    0  501  0.25391693904E+02 -0.56346953930E+02 -0.80276187946E+01  0.62500000000E+02  0.47000000000E+01 0.  1.
</event>
<event>
 3    0  0.4607503E-005  0.9118800E+02  0.7546771E-02  0.1235069E+00
         25   -1    0    0    0    0  0.00000000000E+00  0.00000000000E+00  0.99999998245E-14  0.12500000000E+03  0.12500000000E+03 0.  0.
          5    1    1    0  501    0 -0.45928087405E+01  0.59344040924E+02 -0.18475684416E+02  0.62500000000E+02  0.47000000000E+01 0.  1.
         -5    1    1    0    0  501  0.45928087405E+01 -0.59344040924E+02  0.18475684416E+02  0.62500000000E+02  0.47000000000E+01 0.  1.
</event>
<event>
 3    0  0.4607503E-005  0.9118800E+02  0.7546771E-02  0.1235069E+00
         25   -1    0    0    0    0  0.00000000000E+00  0.00000000000E+00  0.99999998245E-14  0.12500000000E+03  0.12500000000E+03 0.  0.
          5    1    1    0  501    0 -0.52978568136E+02 -0.88655712423E+01 -0.31604318768E+02  0.62500000000E+02  0.47000000000E+01 0. -1.
         -5    1    1    0    0  501  0.52978568136E+02  0.88655712423E+01  0.31604318768E+02  0.62500000000E+02  0.47000000000E+01 0. -1.
</event>
<event>
 3    0  0.4607503E-005  0.9118800E+02  0.7546771E-02  0.1235069E+00
         25   -1    0    0    0    0  0.00000000000E+00  0.00000000000E+00  0.99999998245E-14  0.12500000000E+03  0.12500000000E+03 0.  0.
          5    1    1    0  501    0 -0.42652845369E+02 -0.20170243091E+02 -0.40719234713E+02  0.62500000000E+02  0.47000000000E+01 0. -1.
         -5    1    1    0    0  501  0.42652845369E+02  0.20170243091E+02  0.40719234713E+02  0.62500000000E+02  0.47000000000E+01 0. -1.
</event>
<event>
 3    0  0.4607503E-005  0.9118800E+02  0.7546771E-02  0.1235069E+00
         25   -1    0    0    0    0  0.00000000000E+00  0.00000000000E+00  0.99999998245E-14  0.12500000000E+03  0.12500000000E+03 0.  0.
          5    1    1    0  501    0  0.25368353583E+02 -0.54754023565E+02  0.15575735614E+02  0.62500000000E+02  0.47000000000E+01 0. -1.
         -5    1    1    0    0  501 -0.25368353583E+02  0.54754023565E+02 -0.15575735614E+02  0.62500000000E+02  0.47000000000E+01 0. -1.
</event>
<event>
 3    0  0.4607503E-005  0.9118800E+02  0.7546771E-02  0.1235069E+00
         25   -1    0    0    0    0  0.00000000000E+00  0.00000000000E+00  0.99999998245E-14  0.12500000000E+03  0.12500000000E+03 0.  0.
          5    1    1    0  501    0 -0.79209800696E+00 -0.58706949283E+02  0.20905183249E+02  0.62500000000E+02  0.47000000000E+01 0. -1.
         -5    1    1    0    0  501  0.79209800696E+00  0.58706949283E+02 -0.20905183249E+02  0.62500000000E+02  0.47000000000E+01 0. -1.
</event>
<event>
 3    0  0.4607503E-005  0.9118800E+02  0.7546771E-02  0.1235069E+00
         25   -1    0    0    0    0  0.00000000000E+00  0.00000000000E+00  0.99999998245E-14  0.12500000000E+03  0.12500000000E+03 0.  0.
          5    1    1    0  501    0 -0.29406357209E+01  0.48137531042E+02 -0.39475191789E+02  0.62500000000E+02  0.47000000000E+01 0.  1.
         -5    1    1    0    0  501  0.29406357209E+01 -0.48137531042E+02  0.39475191789E+02  0.62500000000E+02  0.47000000000E+01 0.  1.
</event>
<event>
 3    0  0.4607503E-005  0.9118800E+02  0.7546771E-02  0.1235069E+00
         25   -1    0    0    0    0  0.00000000000E+00  0.00000000000E+00  0.99999998245E-14  0.12500000000E+03  0.12500000000E+03 0.  0.
          5    1    1    0  501    0 -0.20196236216E+02 -0.62739567764E+00  0.58956580781E+02  0.62500000000E+02  0.47000000000E+01 0. -1.
         -5    1    1    0    0  501  0.20196236216E+02  0.62739567764E+00 -0.58956580781E+02  0.62500000000E+02  0.47000000000E+01 0. -1.
</event>
<event>
 3    0  0.4607503E-005  0.9118800E+02  0.7546771E-02  0.1235069E+00
         25   -1    0    0    0    0  0.00000000000E+00  0.00000000000E+00  0.99999998245E-14  0.12500000000E+03  0.12500000000E+03 0.  0.
          5    1    1    0  501    0  0.38632516943E+02  0.43739202406E+02  0.21876261280E+02  0.62500000000E+02  0.47000000000E+01 0.  1.
         -5    1    1    0    0  501 -0.38632516943E+02 -0.43739202406E+02 -0.21876261280E+02  0.62500000000E+02  0.47000000000E+01 0.  1.
</event>
<event>
 3    0  0.4607503E-005  0.9118800E+02  0.7546771E-02  0.1235069E+00
         25   -1    0    0    0    0  0.00000000000E+00  0.00000000000E+00  0.99999998245E-14  0.12500000000E+03  0.12500000000E+03 0.  0.
          5    1    1    0  501    0 -0.62150950709E+02 -0.26888247380E+01  0.37669015713E+01  0.62500000000E+02  0.47000000000E+01 0. -1.
         -5    1    1    0    0  501  0.62150950709E+02  0.26888247380E+01 -0.37669015713E+01  0.62500000000E+02  0.47000000000E+01 0. -1.
</event>
<event>
 3    0  0.4607503E-005  0.9118800E+02  0.7546771E-02  0.1235069E+00
         25   -1    0    0    0    0  0.00000000000E+00  0.00000000000E+00  0.99999998245E-14  0.12500000000E+03  0.12500000000E+03 0.  0.
          5    1    1    0  501    0  0.54407581404E+02  0.30080955707E+02  0.43716346509E+01  0.62500000000E+02  0.47000000000E+01 0. -1.
         -5    1    1    0    0  501 -0.54407581404E+02 -0.30080955707E+02 -0.43716346509E+01  0.62500000000E+02  0.47000000000E+01 0. -1.
</event>
<event>
 3    0  0.4607503E-005  0.9118800E+02  0.7546771E-02  0.1235069E+00
         25   -1    0    0    0    0  0.00000000000E+00  0.00000000000E+00  0.99999998245E-14  0.12500000000E+03  0.12500000000E+03 0.  0.
          5    1    1    0  501    0 -0.36234195959E+02  0.37232941843E+02  0.34423118465E+02  0.62500000000E+02  0.47000000000E+01 0.  1.
         -5    1    1    0    0  501  0.36234195959E+02 -0.37232941843E+02 -0.34423118465E+02  0.62500000000E+02  0.47000000000E+01 0.  1.
</event>
<event>
 3    0  0.4607503E-005  0.9118800E+02  0.7546771E-02  0.1235069E+00
         25   -1    0    0    0    0  0.00000000000E+00  0.00000000000E+00  0.99999998245E-14  0.12500000000E+03  0.12500000000E+03 0.  0.
          5    1    1    0  501    0  0.56033927469E+02 -0.76229738823E+01 -0.26196359320E+02  0.62500000000E+02  0.47000000000E+01 0.  1.
         -5    1    1    0    0  501 -0.56033927469E+02  0.76229738823E+01  0.26196359320E+02  0.62500000000E+02  0.47000000000E+01 0.  1.
</event>
<event>
 3    0  0.4607503E-005  0.9118800E+02  0.7546771E-02  0.1235069E+00
         25   -1    0    0    0    0  0.00000000000E+00  0.00000000000E+00  0.99999998245E-14  0.12500000000E+03  0.12500000000E+03 0.  0.
          5    1    1    0  501    0 -0.18705487266E+02 -0.33419893179E+02  0.49166812852E+02  0.62500000000E+02  0.47000000000E+01 0. -1.
         -5    1    1    0    0  501  0.18705487266E+02  0.33419893179E+02 -0.49166812852E+02  0.62500000000E+02  0.47000000000E+01 0. -1.
</event>
<event>
 3    0  0.4607503E-005  0.9118800E+02  0.7546771E-02  0.1235069E+00
         25   -1    0    0    0    0  0.00000000000E+00  0.00000000000E+00  0.99999998245E-14  0.12500000000E+03  0.12500000000E+03 0.  0.
          5    1    1    0  501    0  0.23591237527E+02  0.56663138316E+02 -0.10812135223E+02  0.62500000000E+02  0.47000000000E+01 0.  1.
         -5    1    1    0    0  501 -0.23591237527E+02 -0.56663138316E+02  0.10812135223E+02  0.62500000000E+02  0.47000000000E+01 0.  1.
</event>
<event>
 3    0  0.4607503E-005  0.9118800E+02  0.7546771E-02  0.1235069E+00
         25   -1    0    0    0    0  0.00000000000E+00  0.00000000000E+00  0.99999998245E-14  0.12500000000E+03  0.12500000000E+03 0.  0.
          5    1    1    0  501    0  0.32159151881E+02  0.53379401439E+02  0.76710641402E+00  0.62500000000E+02  0.47000000000E+01 0. -1.
         -5    1    1    0    0  501 -0.32159151881E+02 -0.53379401439E+02 -0.76710641402E+00  0.62500000000E+02  0.47000000000E+01 0. -1.
</event>
<event>
 3    0  0.4607503E-005  0.9118800E+02  0.7546771E-02  0.1235069E+00
         25   -1    0    0    0    0  0.00000000000E+00  0.00000000000E+00  0.99999998245E-14  0.12500000000E+03  0.12500000000E+03 0.  0.
          5    1    1    0  501    0 -0.55401375126E+02 -0.20123804674E+02 -0.20245496280E+02  0.62500000000E+02  0.47000000000E+01 0. -1.
         -5    1    1    0    0  501  0.55401375126E+02  0.20123804674E+02  0.20245496280E+02  0.62500000000E+02  0.47000000000E+01 0. -1.
</event>
<event>
 3    0  0.4607503E-005  0.9118800E+02  0.7546771E-02  0.1235069E+00
         25   -1    0    0    0    0  0.00000000000E+00  0.00000000000E+00  0.99999998245E-14  0.12500000000E+03  0.12500000000E+03 0.  0.
          5    1    1    0  501    0  0.24153675318E+02  0.24302472649E+02  0.52059099030E+02  0.62500000000E+02  0.47000000000E+01 0.  1.
         -5    1    1    0    0  501 -0.24153675318E+02 -0.24302472649E+02 -0.52059099030E+02  0.62500000000E+02  0.47000000000E+01 0.  1.
</event>
<event>
 3    0  0.4607503E-005  0.9118800E+02  0.7546771E-02  0.1235069E+00
         25   -1    0    0    0    0  0.00000000000E+00  0.00000000000E+00  0.99999998245E-14  0.12500000000E+03  0.12500000000E+03 0.  0.
          5    1    1    0  501    0 -0.92869797791E+01  0.34794137543E+02  0.50865312338E+02  0.62500000000E+02  0.47000000000E+01 0. -1.
         -5    1    1    0    0  501  0.92869797791E+01 -0.34794137543E+02 -0.50865312338E+02  0.62500000000E+02  0.47000000000E+01 0. -1.
</event>
<event>
 3    0  0.4607503E-005  0.9118800E+02  0.7546771E-02  0.1235069E+00
         25   -1    0    0    0    0  0.00000000000E+00  0.00000000000E+00  0.99999998245E-14  0.12500000000E+03  0.12500000000E+03 0.  0.
          5    1    1    0  501    0 -0.30138293190E+01 -0.25322519507E+02  0.56866922184E+02  0.62500000000E+02  0.47000000000E+01 0.  1.
         -5    1    1    0    0  501  0.30138293190E+01  0.25322519507E+02 -0.56866922184E+02  0.62500000000E+02  0.47000000000E+01 0.  1.
</event>
<event>
 3    0  0.4607503E-005  0.9118800E+02  0.7546771E-02  0.1235069E+00
         25   -1    0    0    0    0  0.00000000000E+00  0.00000000000E+00  0.99999998245E-14  0.12500000000E+03  0.12500000000E+03 0.  0.
          5    1    1    0  501    0 -0.46561848360E+02  0.10178890889E+02  0.40156499569E+02  0.62500000000E+02  0.47000000000E+01 0. -1.
         -5    1    1    0    0  501  0.46561848360E+02 -0.10178890889E+02 -0.40156499569E+02  0.62500000000E+02  0.47000000000E+01 0. -1.
</event>
<event>
 3    0  0.4607503E-005  0.9118800E+02  0.7546771E-02  0.1235069E+00
         25   -1    0    0    0    0  0.00000000000E+00  0.00000000000E+00  0.99999998245E-14  0.12500000000E+03  0.12500000000E+03 0.  0.
          5    1    1    0  501    0  0.34931659850E+02  0.24494398292E+02 -0.45430866076E+02  0.62500000000E+02  0.47000000000E+01 0.  1.
         -5    1    1    0    0  501 -0.34931659850E+02 -0.24494398292E+02  0.45430866076E+02  0.62500000000E+02  0.47000000000E+01 0.  1.
</event>
<event>
 3    0  0.4607503E-005  0.9118800E+02  0.7546771E-02  0.1235069E+00
         25   -1    0    0    0    0  0.00000000000E+00  0.00000000000E+00  0.99999998245E-14  0.12500000000E+03  0.12500000000E+03 0.  0.
          5    1    1    0  501    0  0.44202157899E+02 -0.28971657587E+02  0.33029869720E+02  0.62500000000E+02  0.47000000000E+01 0.  1.
         -5    1    1    0    0  501 -0.44202157899E+02  0.28971657587E+02 -0.33029869720E+02  0.62500000000E+02  0.47000000000E+01 0.  1.
</event>
<event>
 3    0  0.4607503E-005  0.9118800E+02  0.7546771E-02  0.1235069E+00
         25   -1    0    0    0    0  0.00000000000E+00  0.00000000000E+00  0.99999998245E-14  0.12500000000E+03  0.12500000000E+03 0.  0.
          5    1    1    0  501    0 -0.27203800623E+00  0.58518695236E+02  0.21439410047E+02  0.62500000000E+02  0.47000000000E+01 0. -1.
         -5    1    1    0    0  501  0.27203800623E+00 -0.58518695236E+02 -0.21439410047E+02  0.62500000000E+02  0.47000000000E+01 0. -1.
</event>
<event>
 3    0  0.4607503E-005  0.9118800E+02  0.7546771E-02  0.1235069E+00
         25   -1    0    0    0    0  0.00000000000E+00  0.00000000000E+00  0.99999998245E-14  0.12500000000E+03  0.12500000000E+03 0.  0.
          5    1    1    0  501    0  0.59605621199E+02 -0.28551206154E+01 -0.17977157945E+02  0.62500000000E+02  0.47000000000E+01 0.  1.
         -5    1    1    0    0  501 -0.59605621199E+02  0.28551206154E+01  0.17977157945E+02  0.62500000000E+02  0.47000000000E+01 0.  1.
</event>
<event>
 3    0  0.4607503E-005  0.9118800E+02  0.7546771E-02  0.1235069E+00
         25   -1    0    0    0    0  0.00000000000E+00  0.00000000000E+00  0.99999998245E-14  0.12500000000E+03  0.12500000000E+03 0.  0.
          5    1    1    0  501    0  0.45125601028E+02 -0.37312753458E+02 -0.21344754888E+02  0.62500000000E+02  0.47000000000E+01 0.  1.
         -5    1    1    0    0  501 -0.45125601028E+02  0.37312753458E+02  0.21344754888E+02  0.62500000000E+02  0.47000000000E+01 0.  1.
</event>
<event>
 3    0  0.4607503E-005  0.9118800E+02  0.7546771E-02  0.1235069E+00
         25   -1    0    0    0    0  0.00000000000E+00  0.00000000000E+00  0.99999998245E-14  0.12500000000E+03  0.12500000000E+03 0.  0.
          5    1    1    0  501    0 -0.70246680492E+01 -0.51997053204E+02 -0.33632134885E+02  0.62500000000E+02  0.47000000000E+01 0.  1.
         -5    1    1    0    0  501  0.70246680492E+01  0.51997053204E+02  0.33632134885E+02  0.62500000000E+02  0.47000000000E+01 0.  1.
</event>
<event>
 3    0  0.4607503E-005  0.9118800E+02  0.7546771E-02  0.1235069E+00
         25   -1    0    0    0    0  0.00000000000E+00  0.00000000000E+00  0.99999998245E-14  0.12500000000E+03  0.12500000000E+03 0.  0.
          5    1    1    0  501    0 -0.30257284444E+02 -0.84675498573E+01 -0.53823390245E+02  0.62500000000E+02  0.47000000000E+01 0.  1.
         -5    1    1    0    0  501  0.30257284444E+02  0.84675498573E+01  0.53823390245E+02  0.62500000000E+02  0.47000000000E+01 0.  1.
</event>
<event>
 3    0  0.4607503E-005  0.9118800E+02  0.7546771E-02  0.1235069E+00
         25   -1    0    0    0    0  0.00000000000E+00  0.00000000000E+00  0.99999998245E-14  0.12500000000E+03  0.12500000000E+03 0.  0.
          5    1    1    0  501    0 -0.22333244754E+02  0.47581368048E+02  0.33487304960E+02  0.62500000000E+02  0.47000000000E+01 0.  1.
         -5    1    1    0    0  501  0.22333244754E+02 -0.47581368048E+02 -0.33487304960E+02  0.62500000000E+02  0.47000000000E+01 0.  1.
</event>
<event>
 3    0  0.4607503E-005  0.9118800E+02  0.7546771E-02  0.1235069E+00
         25   -1    0    0    0    0  0.00000000000E+00  0.00000000000E+00  0.99999998245E-14  0.12500000000E+03  0.12500000000E+03 0.  0.
          5    1    1    0  501    0 -0.20305532645E+02 -0.57939648554E+02  0.10716457877E+02  0.62500000000E+02  0.47000000000E+01 0.  1.
         -5    1    1    0    0  501  0.20305532645E+02  0.57939648554E+02 -0.10716457877E+02  0.62500000000E+02  0.47000000000E+01 0.  1.
</event>
<event>
 3    0  0.4607503E-005  0.9118800E+02  0.7546771E-02  0.1235069E+00
         25   -1    0    0    0    0  0.00000000000E+00  0.00000000000E+00  0.99999998245E-14  0.12500000000E+03  0.12500000000E+03 0.  0.
          5    1    1    0  501    0  0.57902727236E+02 -0.22245985643E+02  0.60456845235E+01  0.62500000000E+02  0.47000000000E+01 0.  1.
         -5    1    1    0    0  501 -0.57902727236E+02  0.22245985643E+02 -0.60456845235E+01  0.62500000000E+02  0.47000000000E+01 0.  1.
</event>
<event>
 3    0  0.4607503E-005  0.9118800E+02  0.7546771E-02  0.1235069E+00
         25   -1    0    0    0    0  0.00000000000E+00  0.00000000000E+00  0.99999998245E-14  0.12500000000E+03  0.12500000000E+03 0.  0.
          5    1    1    0  501    0 -0.21166282562E+02 -0.26500756951E+02 -0.52286311436E+02  0.62500000000E+02  0.47000000000E+01 0.  1.
         -5    1    1    0    0  501  0.21166282562E+02  0.26500756951E+02  0.52286311436E+02  0.62500000000E+02  0.47000000000E+01 0.  1.
</event>
<event>
 3    0  0.4607503E-005  0.9118800E+02  0.7546771E-02  0.1235069E+00
         25   -1    0    0    0    0  0.00000000000E+00  0.00000000000E+00  0.99999998245E-14  0.12500000000E+03  0.12500000000E+03 0.  0.
          5    1    1    0  501    0 -0.53022698493E+02 -0.23346402696E+02 -0.22971698364E+02  0.62500000000E+02  0.47000000000E+01 0. -1.
         -5    1    1    0    0  501  0.53022698493E+02  0.23346402696E+02  0.22971698364E+02  0.62500000000E+02  0.47000000000E+01 0. -1.
</event>
<event>
 3    0  0.4607503E-005  0.9118800E+02  0.7546771E-02  0.1235069E+00
         25   -1    0    0    0    0  0.00000000000E+00  0.00000000000E+00  0.99999998245E-14  0.12500000000E+03  0.12500000000E+03 0.  0.
          5    1    1    0  501    0  0.57545714486E+02  0.64954844844E+01 -0.23031704792E+02  0.62500000000E+02  0.47000000000E+01 0. -1.
         -5    1    1    0    0  501 -0.57545714486E+02 -0.64954844844E+01  0.23031704792E+02  0.62500000000E+02  0.47000000000E+01 0. -1.
</event>
<event>
 3    0  0.4607503E-005  0.9118800E+02  0.7546771E-02  0.1235069E+00
         25   -1    0    0    0    0  0.00000000000E+00  0.00000000000E+00  0.99999998245E-14  0.12500000000E+03  0.12500000000E+03 0.  0.
          5    1    1    0  501    0  0.29709589834E+02  0.54470310658E+02 -0.58724380515E+01  0.62500000000E+02  0.47000000000E+01 0.  1.
         -5    1    1    0    0  501 -0.29709589834E+02 -0.54470310658E+02  0.58724380515E+01  0.62500000000E+02  0.47000000000E+01 0.  1.
</event>
<event>
 3    0  0.4607503E-005  0.9118800E+02  0.7546771E-02  0.1235069E+00
         25   -1    0    0    0    0  0.00000000000E+00  0.00000000000E+00  0.99999998245E-14  0.12500000000E+03  0.12500000000E+03 0.  0.
          5    1    1    0  501    0 -0.58430233048E+01 -0.51180010172E+01  0.61837085509E+02  0.62500000000E+02  0.47000000000E+01 0.  1.
         -5    1    1    0    0  501  0.58430233048E+01  0.51180010172E+01 -0.61837085509E+02  0.62500000000E+02  0.47000000000E+01 0.  1.
</event>
<event>
 3    0  0.4607503E-005  0.9118800E+02  0.7546771E-02  0.1235069E+00
         25   -1    0    0    0    0  0.00000000000E+00  0.00000000000E+00  0.99999998245E-14  0.12500000000E+03  0.12500000000E+03 0.  0.
          5    1    1    0  501    0  0.54187177028E+00 -0.49566794353E+02  0.37775643907E+02  0.62500000000E+02  0.47000000000E+01 0.  1.
         -5    1    1    0    0  501 -0.54187177028E+00  0.49566794353E+02 -0.37775643907E+02  0.62500000000E+02  0.47000000000E+01 0.  1.
</event>
<event>
 3    0  0.4607503E-005  0.9118800E+02  0.7546771E-02  0.1235069E+00
         25   -1    0    0    0    0  0.00000000000E+00  0.00000000000E+00  0.99999998245E-14  0.12500000000E+03  0.12500000000E+03 0.  0.
          5    1    1    0  501    0 -0.32182367162E+02  0.44342044651E+02 -0.29702496865E+02  0.62500000000E+02  0.47000000000E+01 0. -1.
         -5    1    1    0    0  501  0.32182367162E+02 -0.44342044651E+02  0.29702496865E+02  0.62500000000E+02  0.47000000000E+01 0. -1.
</event>
<event>
 3    0  0.4607503E-005  0.9118800E+02  0.7546771E-02  0.1235069E+00
         25   -1    0    0    0    0  0.00000000000E+00  0.00000000000E+00  0.99999998245E-14  0.12500000000E+03  0.12500000000E+03 0.  0.
          5    1    1    0  501    0 -0.54915128822E+02  0.63587146679E+01  0.28775951319E+02  0.62500000000E+02  0.47000000000E+01 0.  1.
         -5    1    1    0    0  501  0.54915128822E+02 -0.63587146679E+01 -0.28775951319E+02  0.62500000000E+02  0.47000000000E+01 0.  1.
</event>
<event>
 3    0  0.4607503E-005  0.9118800E+02  0.7546771E-02  0.1235069E+00
         25   -1    0    0    0    0  0.00000000000E+00  0.00000000000E+00  0.99999998245E-14  0.12500000000E+03  0.12500000000E+03 0.  0.
          5    1    1    0  501    0  0.11262571656E+02 -0.53992179875E+02 -0.29019975742E+02  0.62500000000E+02  0.47000000000E+01 0.  1.
         -5    1    1    0    0  501 -0.11262571656E+02  0.53992179875E+02  0.29019975742E+02  0.62500000000E+02  0.47000000000E+01 0.  1.
</event>
<event>
 3    0  0.4607503E-005  0.9118800E+02  0.7546771E-02  0.1235069E+00
         25   -1    0    0    0    0  0.00000000000E+00  0.00000000000E+00  0.99999998245E-14  0.12500000000E+03  0.12500000000E+03 0.  0.
          5    1    1    0  501    0  0.14850375769E+02  0.35072593217E+02 -0.49330918749E+02  0.62500000000E+02  0.47000000000E+01 0. -1.
         -5    1    1    0    0  501 -0.14850375769E+02 -0.35072593217E+02  0.49330918749E+02  0.62500000000E+02  0.47000000000E+01 0. -1.
</event>
<event>
 3    0  0.4607503E-005  0.9118800E+02  0.7546771E-02  0.1235069E+00
         25   -1    0    0    0    0  0.00000000000E+00  0.00000000000E+00  0.99999998245E-14  0.12500000000E+03  0.12500000000E+03 0.  0.
          5    1    1    0  501    0  0.45788750741E+02  0.26226483494E+01 -0.42198009683E+02  0.62500000000E+02  0.47000000000E+01 0. -1.
         -5    1    1    0    0  501 -0.45788750741E+02 -0.26226483494E+01  0.42198009683E+02  0.62500000000E+02  0.47000000000E+01 0. -1.
</event>
<event>
 3    0  0.4607503E-005  0.9118800E+02  0.7546771E-02  0.1235069E+00
         25   -1    0    0    0    0  0.00000000000E+00  0.00000000000E+00  0.99999998245E-14  0.12500000000E+03  0.12500000000E+03 0.  0.
          5    1    1    0  501    0  0.11124486799E+02 -0.44546192199E+02  0.42143119890E+02  0.62500000000E+02  0.47000000000E+01 0.  1.
         -5    1    1    0    0  501 -0.11124486799E+02  0.44546192199E+02 -0.42143119890E+02  0.62500000000E+02  0.47000000000E+01 0.  1.
</event>
<event>
 3    0  0.4607503E-005  0.9118800E+02  0.7546771E-02  0.1235069E+00
         25   -1    0    0    0    0  0.00000000000E+00  0.00000000000E+00  0.99999998245E-14  0.12500000000E+03  0.12500000000E+03 0.  0.
          5    1    1    0  501    0 -0.62272398066E+02 -0.25035050747E+01 -0.20224092864E+00  0.62500000000E+02  0.47000000000E+01 0. -1.
         -5    1    1    0    0  501  0.62272398066E+02  0.25035050747E+01  0.20224092864E+00  0.62500000000E+02  0.47000000000E+01 0. -1.
</event>
<event>
 3    0  0.4607503E-005  0.9118800E+02  0.7546771E-02  0.1235069E+00
         25   -1    0    0    0    0  0.00000000000E+00  0.00000000000E+00  0.99999998245E-14  0.12500000000E+03  0.12500000000E+03 0.  0.
          5    1    1    0  501    0 -0.48452240810E+02 -0.34059381953E+02  0.19403578575E+02  0.62500000000E+02  0.47000000000E+01 0. -1.
         -5    1    1    0    0  501  0.48452240810E+02  0.34059381953E+02 -0.19403578575E+02  0.62500000000E+02  0.47000000000E+01 0. -1.
</event>
<event>
 3    0  0.4607503E-005  0.9118800E+02  0.7546771E-02  0.1235069E+00
         25   -1    0    0    0    0  0.00000000000E+00  0.00000000000E+00  0.99999998245E-14  0.12500000000E+03  0.12500000000E+03 0.  0.
          5    1    1    0  501    0 -0.61909730837E+01 -0.30980938670E+02 -0.53721627781E+02  0.62500000000E+02  0.47000000000E+01 0. -1.
         -5    1    1    0    0  501  0.61909730837E+01  0.30980938670E+02  0.53721627781E+02  0.62500000000E+02  0.47000000000E+01 0. -1.
</event>
<event>
 3    0  0.4607503E-005  0.9118800E+02  0.7546771E-02  0.1235069E+00
         25   -1    0    0    0    0  0.00000000000E+00  0.00000000000E+00  0.99999998245E-14  0.12500000000E+03  0.12500000000E+03 0.  0.
          5    1    1    0  501    0  0.32389268012E+01 -0.72142514013E+01  0.61819284450E+02  0.62500000000E+02  0.47000000000E+01 0. -1.
         -5    1    1    0    0  501 -0.32389268012E+01  0.72142514013E+01 -0.61819284450E+02  0.62500000000E+02  0.47000000000E+01 0. -1.
</event>
<event>
 3    0  0.4607503E-005  0.9118800E+02  0.7546771E-02  0.1235069E+00
         25   -1    0    0    0    0  0.00000000000E+00  0.00000000000E+00  0.99999998245E-14  0.12500000000E+03  0.12500000000E+03 0.  0.
          5    1    1    0  501    0 -0.10009443630E+02  0.50470254796E+02 -0.35167092843E+02  0.62500000000E+02  0.47000000000E+01 0. -1.
         -5    1    1    0    0  501  0.10009443630E+02 -0.50470254796E+02  0.35167092843E+02  0.62500000000E+02  0.47000000000E+01 0. -1.
</event>
<event>
 3    0  0.4607503E-005  0.9118800E+02  0.7546771E-02  0.1235069E+00
         25   -1    0    0    0    0  0.00000000000E+00  0.00000000000E+00  0.99999998245E-14  0.12500000000E+03  0.12500000000E+03 0.  0.
          5    1    1    0  501    0 -0.41117623963E+02 -0.38685109088E+02 -0.26400063154E+02  0.62500000000E+02  0.47000000000E+01 0. -1.
         -5    1    1    0    0  501  0.41117623963E+02  0.38685109088E+02  0.26400063154E+02  0.62500000000E+02  0.47000000000E+01 0. -1.
</event>
<event>
 3    0  0.4607503E-005  0.9118800E+02  0.7546771E-02  0.1235069E+00
         25   -1    0    0    0    0  0.00000000000E+00  0.00000000000E+00  0.99999998245E-14  0.12500000000E+03  0.12500000000E+03 0.  0.
          5    1    1    0  501    0  0.31642211067E+02 -0.29914228081E+02  0.44587772282E+02  0.62500000000E+02  0.47000000000E+01 0. -1.
         -5    1    1    0    0  501 -0.31642211067E+02  0.29914228081E+02 -0.44587772282E+02  0.62500000000E+02  0.47000000000E+01 0. -1.
</event>
<event>
 3    0  0.4607503E-005  0.9118800E+02  0.7546771E-02  0.1235069E+00
         25   -1    0    0    0    0  0.00000000000E+00  0.00000000000E+00  0.99999998245E-14  0.12500000000E+03  0.12500000000E+03 0.  0.
          5    1    1    0  501    0  0.55391351748E+02 -0.28564904543E+02 -0.66181372692E-01  0.62500000000E+02  0.47000000000E+01 0. -1.
         -5    1    1    0    0  501 -0.55391351748E+02  0.28564904543E+02  0.66181372692E-01  0.62500000000E+02  0.47000000000E+01 0. -1.
</event>
<event>
 3    0  0.4607503E-005  0.9118800E+02  0.7546771E-02  0.1235069E+00
         25   -1    0    0    0    0  0.00000000000E+00  0.00000000000E+00  0.99999998245E-14  0.12500000000E+03  0.12500000000E+03 0.  0.
          5    1    1    0  501    0  0.36108431384E+02 -0.63800732125E+01  0.50394799819E+02  0.62500000000E+02  0.47000000000E+01 0. -1.
         -5    1    1    0    0  501 -0.36108431384E+02  0.63800732125E+01 -0.50394799819E+02  0.62500000000E+02  0.47000000000E+01 0. -1.
</event>
<event>
 3    0  0.4607503E-005  0.9118800E+02  0.7546771E-02  0.1235069E+00
         25   -1    0    0    0    0  0.00000000000E+00  0.00000000000E+00  0.99999998245E-14  0.12500000000E+03  0.12500000000E+03 0.  0.
          5    1    1    0  501    0 -0.12216878174E+02 -0.58142234255E+02  0.18825208724E+02  0.62500000000E+02  0.47000000000E+01 0.  1.
         -5    1    1    0    0  501  0.12216878174E+02  0.58142234255E+02 -0.18825208724E+02  0.62500000000E+02  0.47000000000E+01 0.  1.
</event>
<event>
 3    0  0.4607503E-005  0.9118800E+02  0.7546771E-02  0.1235069E+00
         25   -1    0    0    0    0  0.00000000000E+00  0.00000000000E+00  0.99999998245E-14  0.12500000000E+03  0.12500000000E+03 0.  0.
          5    1    1    0  501    0 -0.46939314826E+02 -0.22313410050E+02 -0.34394366626E+02  0.62500000000E+02  0.47000000000E+01 0.  1.
         -5    1    1    0    0  501  0.46939314826E+02  0.22313410050E+02  0.34394366626E+02  0.62500000000E+02  0.47000000000E+01 0.  1.
</event>
<event>
 3    0  0.4607503E-005  0.9118800E+02  0.7546771E-02  0.1235069E+00
         25   -1    0    0    0    0  0.00000000000E+00  0.00000000000E+00  0.99999998245E-14  0.12500000000E+03  0.12500000000E+03 0.  0.
          5    1    1    0  501    0  0.19613472183E+02  0.15007224096E+02 -0.57221105668E+02  0.62500000000E+02  0.47000000000E+01 0.  1.
         -5    1    1    0    0  501 -0.19613472183E+02 -0.15007224096E+02  0.57221105668E+02  0.62500000000E+02  0.47000000000E+01 0.  1.
</event>
<event>
 3    0  0.4607503E-005  0.9118800E+02  0.7546771E-02  0.1235069E+00
         25   -1    0    0    0    0  0.00000000000E+00  0.00000000000E+00  0.99999998245E-14  0.12500000000E+03  0.12500000000E+03 0.  0.
          5    1    1    0  501    0 -0.44878032638E+02  0.37629851848E+02 -0.21310007895E+02  0.62500000000E+02  0.47000000000E+01 0.  1.
         -5    1    1    0    0  501  0.44878032638E+02 -0.37629851848E+02  0.21310007895E+02  0.62500000000E+02  0.47000000000E+01 0.  1.
</event>
<event>
 3    0  0.4607503E-005  0.9118800E+02  0.7546771E-02  0.1235069E+00
         25   -1    0    0    0    0  0.00000000000E+00  0.00000000000E+00  0.99999998245E-14  0.12500000000E+03  0.12500000000E+03 0.  0.
          5    1    1    0  501    0 -0.44214466881E+02 -0.33947986868E+02 -0.27870685424E+02  0.62500000000E+02  0.47000000000E+01 0.  1.
         -5    1    1    0    0  501  0.44214466881E+02  0.33947986868E+02  0.27870685424E+02  0.62500000000E+02  0.47000000000E+01 0.  1.
</event>
<event>
 3    0  0.4607503E-005  0.9118800E+02  0.7546771E-02  0.1235069E+00
         25   -1    0    0    0    0  0.00000000000E+00  0.00000000000E+00  0.99999998245E-14  0.12500000000E+03  0.12500000000E+03 0.  0.
          5    1    1    0  501    0 -0.35996690629E+02  0.29874833767E+02  0.41181216242E+02  0.62500000000E+02  0.47000000000E+01 0.  1.
         -5    1    1    0    0  501  0.35996690629E+02 -0.29874833767E+02 -0.41181216242E+02  0.62500000000E+02  0.47000000000E+01 0.  1.
</event>
<event>
 3    0  0.4607503E-005  0.9118800E+02  0.7546771E-02  0.1235069E+00
         25   -1    0    0    0    0  0.00000000000E+00  0.00000000000E+00  0.99999998245E-14  0.12500000000E+03  0.12500000000E+03 0.  0.
          5    1    1    0  501    0 -0.56581041134E+02 -0.25567284759E+02 -0.53907081389E+01  0.62500000000E+02  0.47000000000E+01 0. -1.
         -5    1    1    0    0  501  0.56581041134E+02  0.25567284759E+02  0.53907081389E+01  0.62500000000E+02  0.47000000000E+01 0. -1.
</event>
<event>
 3    0  0.4607503E-005  0.9118800E+02  0.7546771E-02  0.1235069E+00
         25   -1    0    0    0    0  0.00000000000E+00  0.00000000000E+00  0.99999998245E-14  0.12500000000E+03  0.12500000000E+03 0.  0.
          5    1    1    0  501    0  0.43399629404E+01 -0.49477097684E+02  0.37647596557E+02  0.62500000000E+02  0.47000000000E+01 0.  1.
         -5    1    1    0    0  501 -0.43399629404E+01  0.49477097684E+02 -0.37647596557E+02  0.62500000000E+02  0.47000000000E+01 0.  1.
</event>
<event>
 3    0  0.4607503E-005  0.9118800E+02  0.7546771E-02  0.1235069E+00
         25   -1    0    0    0    0  0.00000000000E+00  0.00000000000E+00  0.99999998245E-14  0.12500000000E+03  0.12500000000E+03 0.  0.
          5    1    1    0  501    0  0.35833399523E+02 -0.34344184109E+02  0.37690907345E+02  0.62500000000E+02  0.47000000000E+01 0.  1.
         -5    1    1    0    0  501 -0.35833399523E+02  0.34344184109E+02 -0.37690907345E+02  0.62500000000E+02  0.47000000000E+01 0.  1.
</event>
<event>
 3    0  0.4607503E-005  0.9118800E+02  0.7546771E-02  0.1235069E+00
         25   -1    0    0    0    0  0.00000000000E+00  0.00000000000E+00  0.99999998245E-14  0.12500000000E+03  0.12500000000E+03 0.  0.
          5    1    1    0  501    0  0.30090880553E+02 -0.51513490758E+02 -0.18029397588E+02  0.62500000000E+02  0.47000000000E+01 0. -1.
         -5    1    1    0    0  501 -0.30090880553E+02  0.51513490758E+02  0.18029397588E+02  0.62500000000E+02  0.47000000000E+01 0. -1.
</event>
<event>
 3    0  0.4607503E-005  0.9118800E+02  0.7546771E-02  0.1235069E+00
         25   -1    0    0    0    0  0.00000000000E+00  0.00000000000E+00  0.99999998245E-14  0.12500000000E+03  0.12500000000E+03 0.  0.
          5    1    1    0  501    0 -0.35079406281E+02 -0.47425809479E+02 -0.20109397063E+02  0.62500000000E+02  0.47000000000E+01 0. -1.
         -5    1    1    0    0  501  0.35079406281E+02  0.47425809479E+02  0.20109397063E+02  0.62500000000E+02  0.47000000000E+01 0. -1.
</event>
<event>
 3    0  0.4607503E-005  0.9118800E+02  0.7546771E-02  0.1235069E+00
         25   -1    0    0    0    0  0.00000000000E+00  0.00000000000E+00  0.99999998245E-14  0.12500000000E+03  0.12500000000E+03 0.  0.
          5    1    1    0  501    0  0.54616505789E+02 -0.11921778874E+02  0.27551197504E+02  0.62500000000E+02  0.47000000000E+01 0.  1.
         -5    1    1    0    0  501 -0.54616505789E+02  0.11921778874E+02 -0.27551197504E+02  0.62500000000E+02  0.47000000000E+01 0.  1.
</event>
<event>
 3    0  0.4607503E-005  0.9118800E+02  0.7546771E-02  0.1235069E+00
         25   -1    0    0    0    0  0.00000000000E+00  0.00000000000E+00  0.99999998245E-14  0.12500000000E+03  0.12500000000E+03 0.  0.
          5    1    1    0  501    0 -0.17166285764E+02 -0.26009299046E+01 -0.59855774965E+02  0.62500000000E+02  0.47000000000E+01 0. -1.
         -5    1    1    0    0  501  0.17166285764E+02  0.26009299046E+01  0.59855774965E+02  0.62500000000E+02  0.47000000000E+01 0. -1.
</event>
<event>
 3    0  0.4607503E-005  0.9118800E+02  0.7546771E-02  0.1235069E+00
         25   -1    0    0    0    0  0.00000000000E+00  0.00000000000E+00  0.99999998245E-14  0.12500000000E+03  0.12500000000E+03 0.  0.
          5    1    1    0  501    0 -0.20157641730E+02  0.59179870024E+01  0.58675437022E+02  0.62500000000E+02  0.47000000000E+01 0.  1.
         -5    1    1    0    0  501  0.20157641730E+02 -0.59179870024E+01 -0.58675437022E+02  0.62500000000E+02  0.47000000000E+01 0.  1.
</event>
<event>
 3    0  0.4607503E-005  0.9118800E+02  0.7546771E-02  0.1235069E+00
         25   -1    0    0    0    0  0.00000000000E+00  0.00000000000E+00  0.99999998245E-14  0.12500000000E+03  0.12500000000E+03 0.  0.
          5    1    1    0  501    0  0.29231173328E+02 -0.22946906738E+02 -0.50031369930E+02  0.62500000000E+02  0.47000000000E+01 0.  1.
         -5    1    1    0    0  501 -0.29231173328E+02  0.22946906738E+02  0.50031369930E+02  0.62500000000E+02  0.47000000000E+01 0.  1.
</event>
<event>
 3    0  0.4607503E-005  0.9118800E+02  0.7546771E-02  0.1235069E+00
         25   -1    0    0    0    0  0.00000000000E+00  0.00000000000E+00  0.99999998245E-14  0.12500000000E+03  0.12500000000E+03 0.  0.
          5    1    1    0  501    0  0.46269537489E+02 -0.27134921161E+02 -0.31733041993E+02  0.62500000000E+02  0.47000000000E+01 0.  1.
         -5    1    1    0    0  501 -0.46269537489E+02  0.27134921161E+02  0.31733041993E+02  0.62500000000E+02  0.47000000000E+01 0.  1.
</event>
<event>
 3    0  0.4607503E-005  0.9118800E+02  0.7546771E-02  0.1235069E+00
         25   -1    0    0    0    0  0.00000000000E+00  0.00000000000E+00  0.99999998245E-14  0.12500000000E+03  0.12500000000E+03 0.  0.
          5    1    1    0  501    0 -0.29371844659E+02 -0.54328144322E+02 -0.83610690628E+01  0.62500000000E+02  0.47000000000E+01 0.  1.
         -5    1    1    0    0  501  0.29371844659E+02  0.54328144322E+02  0.83610690628E+01  0.62500000000E+02  0.47000000000E+01 0.  1.
</event>
<event>
 3    0  0.4607503E-005  0.9118800E+02  0.7546771E-02  0.1235069E+00
         25   -1    0    0    0    0  0.00000000000E+00  0.00000000000E+00  0.99999998245E-14  0.12500000000E+03  0.12500000000E+03 0.  0.
          5    1    1    0  501    0  0.45752726962E+02 -0.16543745863E+02 -0.38950641181E+02  0.62500000000E+02  0.47000000000E+01 0. -1.
         -5    1    1    0    0  501 -0.45752726962E+02  0.16543745863E+02  0.38950641181E+02  0.62500000000E+02  0.47000000000E+01 0. -1.
</event>
<event>
 3    0  0.4607503E-005  0.9118800E+02  0.7546771E-02  0.1235069E+00
         25   -1    0    0    0    0  0.00000000000E+00  0.00000000000E+00  0.99999998245E-14  0.12500000000E+03  0.12500000000E+03 0.  0.
          5    1    1    0  501    0 -0.46681347563E+02  0.90843573450E+01 -0.40280097335E+02  0.62500000000E+02  0.47000000000E+01 0.  1.
         -5    1    1    0    0  501  0.46681347563E+02 -0.90843573450E+01  0.40280097335E+02  0.62500000000E+02  0.47000000000E+01 0.  1.
</event>
<event>
 3    0  0.4607503E-005  0.9118800E+02  0.7546771E-02  0.1235069E+00
         25   -1    0    0    0    0  0.00000000000E+00  0.00000000000E+00  0.99999998245E-14  0.12500000000E+03  0.12500000000E+03 0.  0.
          5    1    1    0  501    0 -0.22961640124E+02 -0.52113816258E+02 -0.25319424121E+02  0.62500000000E+02  0.47000000000E+01 0. -1.
         -5    1    1    0    0  501  0.22961640124E+02  0.52113816258E+02  0.25319424121E+02  0.62500000000E+02  0.47000000000E+01 0. -1.
</event>
<event>
 3    0  0.4607503E-005  0.9118800E+02  0.7546771E-02  0.1235069E+00
         25   -1    0    0    0    0  0.00000000000E+00  0.00000000000E+00  0.99999998245E-14  0.12500000000E+03  0.12500000000E+03 0.  0.
          5    1    1    0  501    0  0.37227343220E+02 -0.17716050795E+02  0.46737848271E+02  0.62500000000E+02  0.47000000000E+01 0. -1.
         -5    1    1    0    0  501 -0.37227343220E+02  0.17716050795E+02 -0.46737848271E+02  0.62500000000E+02  0.47000000000E+01 0. -1.
</event>
<event>
 3    0  0.4607503E-005  0.9118800E+02  0.7546771E-02  0.1235069E+00
         25   -1    0    0    0    0  0.00000000000E+00  0.00000000000E+00  0.99999998245E-14  0.12500000000E+03  0.12500000000E+03 0.  0.
          5    1    1    0  501    0 -0.62139437669E+02 -0.45552805489E+01  0.14490359913E+01  0.62500000000E+02  0.47000000000E+01 0. -1.
         -5    1    1    0    0  501  0.62139437669E+02  0.45552805489E+01 -0.14490359913E+01  0.62500000000E+02  0.47000000000E+01 0. -1.
</event>
<event>
 3    0  0.4607503E-005  0.9118800E+02  0.7546771E-02  0.1235069E+00
         25   -1    0    0    0    0  0.00000000000E+00  0.00000000000E+00  0.99999998245E-14  0.12500000000E+03  0.12500000000E+03 0.  0.
          5    1    1    0  501    0 -0.28691479244E+02 -0.53695202328E+02 -0.13333576632E+02  0.62500000000E+02  0.47000000000E+01 0.  1.
         -5    1    1    0    0  501  0.28691479244E+02  0.53695202328E+02  0.13333576632E+02  0.62500000000E+02  0.47000000000E+01 0.  1.
</event>
<event>
 3    0  0.4607503E-005  0.9118800E+02  0.7546771E-02  0.1235069E+00
         25   -1    0    0    0    0  0.00000000000E+00  0.00000000000E+00  0.99999998245E-14  0.12500000000E+03  0.12500000000E+03 0.  0.
          5    1    1    0  501    0  0.52351582311E+02  0.33710574089E+02  0.26587636387E+01  0.62500000000E+02  0.47000000000E+01 0. -1.
         -5    1    1    0    0  501 -0.52351582311E+02 -0.33710574089E+02 -0.26587636387E+01  0.62500000000E+02  0.47000000000E+01 0. -1.
</event>
<event>
 3    0  0.4607503E-005  0.9118800E+02  0.7546771E-02  0.1235069E+00
         25   -1    0    0    0    0  0.00000000000E+00  0.00000000000E+00  0.99999998245E-14  0.12500000000E+03  0.12500000000E+03 0.  0.
          5    1    1    0  501    0  0.22725561357E+02  0.55638935684E+02 -0.16492959012E+02  0.62500000000E+02  0.47000000000E+01 0. -1.
         -5    1    1    0    0  501 -0.22725561357E+02 -0.55638935684E+02  0.16492959012E+02  0.62500000000E+02  0.47000000000E+01 0. -1.
</event>
<event>
 3    0  0.4607503E-005  0.9118800E+02  0.7546771E-02  0.1235069E+00
         25   -1    0    0    0    0  0.00000000000E+00  0.00000000000E+00  0.99999998245E-14  0.12500000000E+03  0.12500000000E+03 0.  0.
          5    1    1    0  501    0  0.14621855063E+02 -0.30554960049E+02  0.52314011229E+02  0.62500000000E+02  0.47000000000E+01 0.  1.
         -5    1    1    0    0  501 -0.14621855063E+02  0.30554960049E+02 -0.52314011229E+02  0.62500000000E+02  0.47000000000E+01 0.  1.
</event>
<event>
 3    0  0.4607503E-005  0.9118800E+02  0.7546771E-02  0.1235069E+00
         25   -1    0    0    0    0  0.00000000000E+00  0.00000000000E+00  0.99999998245E-14  0.12500000000E+03  0.12500000000E+03 0.  0.
          5    1    1    0  501    0 -0.26522365930E+01  0.65543706524E+01  0.61920641683E+02  0.62500000000E+02  0.47000000000E+01 0. -1.
         -5    1    1    0    0  501  0.26522365930E+01 -0.65543706524E+01 -0.61920641683E+02  0.62500000000E+02  0.47000000000E+01 0. -1.
</event>
<event>
 3    0  0.4607503E-005  0.9118800E+02  0.7546771E-02  0.1235069E+00
         25   -1    0    0    0    0  0.00000000000E+00  0.00000000000E+00  0.99999998245E-14  0.12500000000E+03  0.12500000000E+03 0.  0.
          5    1    1    0  501    0  0.28962188421E+02 -0.52142125607E+02  0.18070704997E+02  0.62500000000E+02  0.47000000000E+01 0.  1.
         -5    1    1    0    0  501 -0.28962188421E+02  0.52142125607E+02 -0.18070704997E+02  0.62500000000E+02  0.47000000000E+01 0.  1.
</event>
<event>
 3    0  0.4607503E-005  0.9118800E+02  0.7546771E-02  0.1235069E+00
         25   -1    0    0    0    0  0.00000000000E+00  0.00000000000E+00  0.99999998245E-14  0.12500000000E+03  0.12500000000E+03 0.  0.
          5    1    1    0  501    0  0.11662715356E+02 -0.49597059190E+02 -0.35892517190E+02  0.62500000000E+02  0.47000000000E+01 0. -1.
         -5    1    1    0    0  501 -0.11662715356E+02  0.49597059190E+02  0.35892517190E+02  0.62500000000E+02  0.47000000000E+01 0. -1.
</event>
<event>
 3    0  0.4607503E-005  0.9118800E+02  0.7546771E-02  0.1235069E+00
         25   -1    0    0    0    0  0.00000000000E+00  0.00000000000E+00  0.99999998245E-14  0.12500000000E+03  0.12500000000E+03 0.  0.
          5    1    1    0  501    0  0.38430931347E+02  0.13098867024E+02  0.47282588746E+02  0.62500000000E+02  0.47000000000E+01 0.  1.
         -5    1    1    0    0  501 -0.38430931347E+02 -0.13098867024E+02 -0.47282588746E+02  0.62500000000E+02  0.47000000000E+01 0.  1.
</event>
<event>
 3    0  0.4607503E-005  0.9118800E+02  0.7546771E-02  0.1235069E+00
         25   -1    0    0    0    0  0.00000000000E+00  0.00000000000E+00  0.99999998245E-14  0.12500000000E+03  0.12500000000E+03 0.  0.
          5    1    1    0  501    0 -0.52469983694E+02  0.16710257478E+02 -0.29186094397E+02  0.62500000000E+02  0.47000000000E+01 0.  1.
         -5    1    1    0    0  501  0.52469983694E+02 -0.16710257478E+02  0.29186094397E+02  0.62500000000E+02  0.47000000000E+01 0.  1.
</event>
<event>
 3    0  0.4607503E-005  0.9118800E+02  0.7546771E-02  0.1235069E+00
         25   -1    0    0    0    0  0.00000000000E+00  0.00000000000E+00  0.99999998245E-14  0.12500000000E+03  0.12500000000E+03 0.  0.
          5    1    1    0  501    0  0.16108988614E+02  0.17753282791E+02 -0.57528092581E+02  0.62500000000E+02  0.47000000000E+01 0.  1.
         -5    1    1    0    0  501 -0.16108988614E+02 -0.17753282791E+02  0.57528092581E+02  0.62500000000E+02  0.47000000000E+01 0.  1.
</event>
<event>
 3    0  0.4607503E-005  0.9118800E+02  0.7546771E-02  0.1235069E+00
         25   -1    0    0    0    0  0.00000000000E+00  0.00000000000E+00  0.99999998245E-14  0.12500000000E+03  0.12500000000E+03 0.  0.
          5    1    1    0  501    0  0.20550480152E+02  0.55436370955E+02  0.19714120342E+02  0.62500000000E+02  0.47000000000E+01 0.  1.
         -5    1    1    0    0  501 -0.20550480152E+02 -0.55436370955E+02 -0.19714120342E+02  0.62500000000E+02  0.47000000000E+01 0.  1.
</event>
<event>
 3    0  0.4607503E-005  0.9118800E+02  0.7546771E-02  0.1235069E+00
         25   -1    0    0    0    0  0.00000000000E+00  0.00000000000E+00  0.99999998245E-14  0.12500000000E+03  0.12500000000E+03 0.  0.
          5    1    1    0  501    0 -0.19422480701E+02  0.13258272760E+02 -0.57716076156E+02  0.62500000000E+02  0.47000000000E+01 0. -1.
         -5    1    1    0    0  501  0.19422480701E+02 -0.13258272760E+02  0.57716076156E+02  0.62500000000E+02  0.47000000000E+01 0. -1.
</event>
<event>
 3    0  0.4607503E-005  0.9118800E+02  0.7546771E-02  0.1235069E+00
         25   -1    0    0    0    0  0.00000000000E+00  0.00000000000E+00  0.99999998245E-14  0.12500000000E+03  0.12500000000E+03 0.  0.
          5    1    1    0  501    0 -0.61401018222E+02 -0.10671786953E+02  0.43350263380E+00  0.62500000000E+02  0.47000000000E+01 0.  1.
         -5    1    1    0    0  501  0.61401018222E+02  0.10671786953E+02 -0.43350263380E+00  0.62500000000E+02  0.47000000000E+01 0.  1.
</event>
<event>
 3    0  0.4607503E-005  0.9118800E+02  0.7546771E-02  0.1235069E+00
         25   -1    0    0    0    0  0.00000000000E+00  0.00000000000E+00  0.99999998245E-14  0.12500000000E+03  0.12500000000E+03 0.  0.
          5    1    1    0  501    0  0.61329662767E+02 -0.26780402669E+01  0.10754560204E+02  0.62500000000E+02  0.47000000000E+01 0. -1.
         -5    1    1    0    0  501 -0.61329662767E+02  0.26780402669E+01 -0.10754560204E+02  0.62500000000E+02  0.47000000000E+01 0. -1.
</event>
<event>
 3    0  0.4607503E-005  0.9118800E+02  0.7546771E-02  0.1235069E+00
         25   -1    0    0    0    0  0.00000000000E+00  0.00000000000E+00  0.99999998245E-14  0.12500000000E+03  0.12500000000E+03 0.  0.
          5    1    1    0  501    0  0.99666977765E+01 -0.60580712870E+02 -0.10714577153E+02  0.62500000000E+02  0.47000000000E+01 0. -1.
         -5    1    1    0    0  501 -0.99666977765E+01  0.60580712870E+02  0.10714577153E+02  0.62500000000E+02  0.47000000000E+01 0. -1.
</event>
<event>
 3    0  0.4607503E-005  0.9118800E+02  0.7546771E-02  0.1235069E+00
         25   -1    0    0    0    0  0.00000000000E+00  0.00000000000E+00  0.99999998245E-14  0.12500000000E+03  0.12500000000E+03 0.  0.
          5    1    1    0  501    0 -0.43878263431E+02  0.45482186013E+01  0.44024671558E+02  0.62500000000E+02  0.47000000000E+01 0. -1.
         -5    1    1    0    0  501  0.43878263431E+02 -0.45482186013E+01 -0.44024671558E+02  0.62500000000E+02  0.47000000000E+01 0. -1.
</event>
<event>
 3    0  0.4607503E-005  0.9118800E+02  0.7546771E-02  0.1235069E+00
         25   -1    0    0    0    0  0.00000000000E+00  0.00000000000E+00  0.99999998245E-14  0.12500000000E+03  0.12500000000E+03 0.  0.
          5    1    1    0  501    0  0.52123626640E+02 -0.21193906304E+02  0.26797497672E+02  0.62500000000E+02  0.47000000000E+01 0.  1.
         -5    1    1    0    0  501 -0.52123626640E+02  0.21193906304E+02 -0.26797497672E+02  0.62500000000E+02  0.47000000000E+01 0.  1.
</event>
<event>
 3    0  0.4607503E-005  0.9118800E+02  0.7546771E-02  0.1235069E+00
         25   -1    0    0    0    0  0.00000000000E+00  0.00000000000E+00  0.99999998245E-14  0.12500000000E+03  0.12500000000E+03 0.  0.
          5    1    1    0  501    0  0.32649289745E+02  0.37412363359E+02 -0.37662965192E+02  0.62500000000E+02  0.47000000000E+01 0.  1.
         -5    1    1    0    0  501 -0.32649289745E+02 -0.37412363359E+02  0.37662965192E+02  0.62500000000E+02  0.47000000000E+01 0.  1.
</event>
<event>
 3    0  0.4607503E-005  0.9118800E+02  0.7546771E-02  0.1235069E+00
         25   -1    0    0    0    0  0.00000000000E+00  0.00000000000E+00  0.99999998245E-14  0.12500000000E+03  0.12500000000E+03 0.  0.
          5    1    1    0  501    0 -0.58258448104E+02 -0.21801921479E+02 -0.38457046602E+01  0.62500000000E+02  0.47000000000E+01 0. -1.
         -5    1    1    0    0  501  0.58258448104E+02  0.21801921479E+02  0.38457046602E+01  0.62500000000E+02  0.47000000000E+01 0. -1.
</event>
<event>
 3    0  0.4607503E-005  0.9118800E+02  0.7546771E-02  0.1235069E+00
         25   -1    0    0    0    0  0.00000000000E+00  0.00000000000E+00  0.99999998245E-14  0.12500000000E+03  0.12500000000E+03 0.  0.
          5    1    1    0  501    0 -0.21104962516E+01  0.62175648031E+02  0.37275457734E+01  0.62500000000E+02  0.47000000000E+01 0.  1.
         -5    1    1    0    0  501  0.21104962516E+01 -0.62175648031E+02 -0.37275457734E+01  0.62500000000E+02  0.47000000000E+01 0.  1.
</event>
<event>
 3    0  0.4607503E-005  0.9118800E+02  0.7546771E-02  0.1235069E+00
         25   -1    0    0    0    0  0.00000000000E+00  0.00000000000E+00  0.99999998245E-14  0.12500000000E+03  0.12500000000E+03 0.  0.
          5    1    1    0  501    0 -0.15075664995E+02 -0.41293273663E+02  0.44178613323E+02  0.62500000000E+02  0.47000000000E+01 0. -1.
         -5    1    1    0    0  501  0.15075664995E+02  0.41293273663E+02 -0.44178613323E+02  0.62500000000E+02  0.47000000000E+01 0. -1.
</event>
<event>
 3    0  0.4607503E-005  0.9118800E+02  0.7546771E-02  0.1235069E+00
         25   -1    0    0    0    0  0.00000000000E+00  0.00000000000E+00  0.99999998245E-14  0.12500000000E+03  0.12500000000E+03 0.  0.
          5    1    1    0  501    0 -0.21333609114E+02 -0.50521910998E+02 -0.29606986190E+02  0.62500000000E+02  0.47000000000E+01 0.  1.
         -5    1    1    0    0  501  0.21333609114E+02  0.50521910998E+02  0.29606986190E+02  0.62500000000E+02  0.47000000000E+01 0.  1.
</event>
<event>
 3    0  0.4607503E-005  0.9118800E+02  0.7546771E-02  0.1235069E+00
         25   -1    0    0    0    0  0.00000000000E+00  0.00000000000E+00  0.99999998245E-14  0.12500000000E+03  0.12500000000E+03 0.  0.
          5    1    1    0  501    0  0.18098259692E+02 -0.47818948309E+02  0.35636514682E+02  0.62500000000E+02  0.47000000000E+01 0.  1.
         -5    1    1    0    0  501 -0.18098259692E+02  0.47818948309E+02 -0.35636514682E+02  0.62500000000E+02  0.47000000000E+01 0.  1.
</event>
<event>
 3    0  0.4607503E-005  0.9118800E+02  0.7546771E-02  0.1235069E+00
         25   -1    0    0    0    0  0.00000000000E+00  0.00000000000E+00  0.99999998245E-14  0.12500000000E+03  0.12500000000E+03 0.  0.
          5    1    1    0  501    0 -0.33150845094E+02  0.52006605952E+02 -0.89718675237E+01  0.62500000000E+02  0.47000000000E+01 0. -1.
         -5    1    1    0    0  501  0.33150845094E+02 -0.52006605952E+02  0.89718675237E+01  0.62500000000E+02  0.47000000000E+01 0. -1.
</event>
<event>
 3    0  0.4607503E-005  0.9118800E+02  0.7546771E-02  0.1235069E+00
         25   -1    0    0    0    0  0.00000000000E+00  0.00000000000E+00  0.99999998245E-14  0.12500000000E+03  0.12500000000E+03 0.  0.
          5    1    1    0  501    0 -0.59400899510E+02  0.30203690725E+01  0.18616404273E+02  0.62500000000E+02  0.47000000000E+01 0. -1.
         -5    1    1    0    0  501  0.59400899510E+02 -0.30203690725E+01 -0.18616404273E+02  0.62500000000E+02  0.47000000000E+01 0. -1.
</event>
<event>
 3    0  0.4607503E-005  0.9118800E+02  0.7546771E-02  0.1235069E+00
         25   -1    0    0    0    0  0.00000000000E+00  0.00000000000E+00  0.99999998245E-14  0.12500000000E+03  0.12500000000E+03 0.  0.
          5    1    1    0  501    0  0.38736076673E+02  0.42624051024E+02 -0.23808961302E+02  0.62500000000E+02  0.47000000000E+01 0. -1.
         -5    1    1    0    0  501 -0.38736076673E+02 -0.42624051024E+02  0.23808961302E+02  0.62500000000E+02  0.47000000000E+01 0. -1.
</event>
<event>
 3    0  0.4607503E-005  0.9118800E+02  0.7546771E-02  0.1235069E+00
         25   -1    0    0    0    0  0.00000000000E+00  0.00000000000E+00  0.99999998245E-14  0.12500000000E+03  0.12500000000E+03 0.  0.
          5    1    1    0  501    0  0.38044024496E+02  0.13305226125E+02 -0.47537176587E+02  0.62500000000E+02  0.47000000000E+01 0. -1.
         -5    1    1    0    0  501 -0.38044024496E+02 -0.13305226125E+02  0.47537176587E+02  0.62500000000E+02  0.47000000000E+01 0. -1.
</event>
<event>
 3    0  0.4607503E-005  0.9118800E+02  0.7546771E-02  0.1235069E+00
         25   -1    0    0    0    0  0.00000000000E+00  0.00000000000E+00  0.99999998245E-14  0.12500000000E+03  0.12500000000E+03 0.  0.
          5    1    1    0  501    0  0.45694365727E+02  0.39571839735E+02  0.15174137233E+02  0.62500000000E+02  0.47000000000E+01 0. -1.
         -5    1    1    0    0  501 -0.45694365727E+02 -0.39571839735E+02 -0.15174137233E+02  0.62500000000E+02  0.47000000000E+01 0. -1.
</event>
<event>
 3    0  0.4607503E-005  0.9118800E+02  0.7546771E-02  0.1235069E+00
         25   -1    0    0    0    0  0.00000000000E+00  0.00000000000E+00  0.99999998245E-14  0.12500000000E+03  0.12500000000E+03 0.  0.
          5    1    1    0  501    0 -0.51133994964E+02  0.11858493791E+02  0.33598373234E+02  0.62500000000E+02  0.47000000000E+01 0.  1.
         -5    1    1    0    0  501  0.51133994964E+02 -0.11858493791E+02 -0.33598373234E+02  0.62500000000E+02  0.47000000000E+01 0.  1.
</event>
<event>
 3    0  0.4607503E-005  0.9118800E+02  0.7546771E-02  0.1235069E+00
         25   -1    0    0    0    0  0.00000000000E+00  0.00000000000E+00  0.99999998245E-14  0.12500000000E+03  0.12500000000E+03 0.  0.
          5    1    1    0  501    0 -0.24859811748E+02 -0.26337438343E+02 -0.50719711172E+02  0.62500000000E+02  0.47000000000E+01 0. -1.
         -5    1    1    0    0  501  0.24859811748E+02  0.26337438343E+02  0.50719711172E+02  0.62500000000E+02  0.47000000000E+01 0. -1.
</event>
<event>
 3    0  0.4607503E-005  0.9118800E+02  0.7546771E-02  0.1235069E+00
         25   -1    0    0    0    0  0.00000000000E+00  0.00000000000E+00  0.99999998245E-14  0.12500000000E+03  0.12500000000E+03 0.  0.
          5    1    1    0  501    0  0.97697269804E+01  0.47783533411E+02  0.38800082081E+02  0.62500000000E+02  0.47000000000E+01 0.  1.
         -5    1    1    0    0  501 -0.97697269804E+01 -0.47783533411E+02 -0.38800082081E+02  0.62500000000E+02  0.47000000000E+01 0.  1.
</event>
<event>
 3    0  0.4607503E-005  0.9118800E+02  0.7546771E-02  0.1235069E+00
         25   -1    0    0    0    0  0.00000000000E+00  0.00000000000E+00  0.99999998245E-14  0.12500000000E+03  0.12500000000E+03 0.  0.
          5    1    1    0  501    0 -0.10525904804E+02  0.61369556286E+02  0.26726184482E+01  0.62500000000E+02  0.47000000000E+01 0.  1.
         -5    1    1    0    0  501  0.10525904804E+02 -0.61369556286E+02 -0.26726184482E+01  0.62500000000E+02  0.47000000000E+01 0.  1.
</event>
<event>
 3    0  0.4607503E-005  0.9118800E+02  0.7546771E-02  0.1235069E+00
         25   -1    0    0    0    0  0.00000000000E+00  0.00000000000E+00  0.99999998245E-14  0.12500000000E+03  0.12500000000E+03 0.  0.
          5    1    1    0  501    0  0.44742842858E+02  0.24668754270E+02  0.35688801826E+02  0.62500000000E+02  0.47000000000E+01 0. -1.
         -5    1    1    0    0  501 -0.44742842858E+02 -0.24668754270E+02 -0.35688801826E+02  0.62500000000E+02  0.47000000000E+01 0. -1.
</event>
<event>
 3    0  0.4607503E-005  0.9118800E+02  0.7546771E-02  0.1235069E+00
         25   -1    0    0    0    0  0.00000000000E+00  0.00000000000E+00  0.99999998245E-14  0.12500000000E+03  0.12500000000E+03 0.  0.
          5    1    1    0  501    0 -0.40429449176E+02 -0.46719411594E+00  0.47427854358E+02  0.62500000000E+02  0.47000000000E+01 0.  1.
         -5    1    1    0    0  501  0.40429449176E+02  0.46719411594E+00 -0.47427854358E+02  0.62500000000E+02  0.47000000000E+01 0.  1.
</event>
<event>
 3    0  0.4607503E-005  0.9118800E+02  0.7546771E-02  0.1235069E+00
         25   -1    0    0    0    0  0.00000000000E+00  0.00000000000E+00  0.99999998245E-14  0.12500000000E+03  0.12500000000E+03 0.  0.
          5    1    1    0  501    0 -0.50772076061E+02  0.36039036743E+02  0.27466567098E+01  0.62500000000E+02  0.47000000000E+01 0.  1.
         -5    1    1    0    0  501  0.50772076061E+02 -0.36039036743E+02 -0.27466567098E+01  0.62500000000E+02  0.47000000000E+01 0.  1.
</event>
<event>
 3    0  0.4607503E-005  0.9118800E+02  0.7546771E-02  0.1235069E+00
         25   -1    0    0    0    0  0.00000000000E+00  0.00000000000E+00  0.99999998245E-14  0.12500000000E+03  0.12500000000E+03 0.  0.
          5    1    1    0  501    0 -0.48582420513E+02 -0.19876473184E+02  0.33598128384E+02  0.62500000000E+02  0.47000000000E+01 0. -1.
         -5    1    1    0    0  501  0.48582420513E+02  0.19876473184E+02 -0.33598128384E+02  0.62500000000E+02  0.47000000000E+01 0. -1.
</event>
<event>
 3    0  0.4607503E-005  0.9118800E+02  0.7546771E-02  0.1235069E+00
         25   -1    0    0    0    0  0.00000000000E+00  0.00000000000E+00  0.99999998245E-14  0.12500000000E+03  0.12500000000E+03 0.  0.
          5    1    1    0  501    0 -0.42065893165E+02 -0.21317072896E+02  0.40745589153E+02  0.62500000000E+02  0.47000000000E+01 0. -1.
         -5    1    1    0    0  501  0.42065893165E+02  0.21317072896E+02 -0.40745589153E+02  0.62500000000E+02  0.47000000000E+01 0. -1.
</event>
<event>
 3    0  0.4607503E-005  0.9118800E+02  0.7546771E-02  0.1235069E+00
         25   -1    0    0    0    0  0.00000000000E+00  0.00000000000E+00  0.99999998245E-14  0.12500000000E+03  0.12500000000E+03 0.  0.
          5    1    1    0  501    0 -0.48983286308E+02  0.35696658871E+02  0.14510210471E+02  0.62500000000E+02  0.47000000000E+01 0.  1.
         -5    1    1    0    0  501  0.48983286308E+02 -0.35696658871E+02 -0.14510210471E+02  0.62500000000E+02  0.47000000000E+01 0.  1.
</event>
<event>
 3    0  0.4607503E-005  0.9118800E+02  0.7546771E-02  0.1235069E+00
         25   -1    0    0    0    0  0.00000000000E+00  0.00000000000E+00  0.99999998245E-14  0.12500000000E+03  0.12500000000E+03 0.  0.
          5    1    1    0  501    0  0.27533912114E+02  0.54968764809E+02  0.10221476363E+02  0.62500000000E+02  0.47000000000E+01 0. -1.
         -5    1    1    0    0  501 -0.27533912114E+02 -0.54968764809E+02 -0.10221476363E+02  0.62500000000E+02  0.47000000000E+01 0. -1.
</event>
<event>
 3    0  0.4607503E-005  0.9118800E+02  0.7546771E-02  0.1235069E+00
         25   -1    0    0    0    0  0.00000000000E+00  0.00000000000E+00  0.99999998245E-14  0.12500000000E+03  0.12500000000E+03 0.  0.
          5    1    1    0  501    0  0.37898886360E+02 -0.46770872301E+02 -0.16134432649E+02  0.62500000000E+02  0.47000000000E+01 0.  1.
         -5    1    1    0    0  501 -0.37898886360E+02  0.46770872301E+02  0.16134432649E+02  0.62500000000E+02  0.47000000000E+01 0.  1.
</event>
<event>
 3    0  0.4607503E-005  0.9118800E+02  0.7546771E-02  0.1235069E+00
         25   -1    0    0    0    0  0.00000000000E+00  0.00000000000E+00  0.99999998245E-14  0.12500000000E+03  0.12500000000E+03 0.  0.
          5    1    1    0  501    0  0.39191551582E+01 -0.57734982767E+02  0.23140267668E+02  0.62500000000E+02  0.47000000000E+01 0.  1.
         -5    1    1    0    0  501 -0.39191551582E+01  0.57734982767E+02 -0.23140267668E+02  0.62500000000E+02  0.47000000000E+01 0.  1.
</event>
<event>
 3    0  0.4607503E-005  0.9118800E+02  0.7546771E-02  0.1235069E+00
         25   -1    0    0    0    0  0.00000000000E+00  0.00000000000E+00  0.99999998245E-14  0.12500000000E+03  0.12500000000E+03 0.  0.
          5    1    1    0  501    0  0.30849513425E+02  0.42330453472E+02  0.33772773507E+02  0.62500000000E+02  0.47000000000E+01 0. -1.
         -5    1    1    0    0  501 -0.30849513425E+02 -0.42330453472E+02 -0.33772773507E+02  0.62500000000E+02  0.47000000000E+01 0. -1.
</event>
<event>
 3    0  0.4607503E-005  0.9118800E+02  0.7546771E-02  0.1235069E+00
         25   -1    0    0    0    0  0.00000000000E+00  0.00000000000E+00  0.99999998245E-14  0.12500000000E+03  0.12500000000E+03 0.  0.
          5    1    1    0  501    0 -0.50145626159E+02  0.31586460399E+02  0.19283975123E+02  0.62500000000E+02  0.47000000000E+01 0.  1.
         -5    1    1    0    0  501  0.50145626159E+02 -0.31586460399E+02 -0.19283975123E+02  0.62500000000E+02  0.47000000000E+01 0.  1.
</event>
<event>
 3    0  0.4607503E-005  0.9118800E+02  0.7546771E-02  0.1235069E+00
         25   -1    0    0    0    0  0.00000000000E+00  0.00000000000E+00  0.99999998245E-14  0.12500000000E+03  0.12500000000E+03 0.  0.
          5    1    1    0  501    0  0.44169051396E+02 -0.14631785144E+01  0.43944442281E+02  0.62500000000E+02  0.47000000000E+01 0. -1.
         -5    1    1    0    0  501 -0.44169051396E+02  0.14631785144E+01 -0.43944442281E+02  0.62500000000E+02  0.47000000000E+01 0. -1.
</event>
<event>
 3    0  0.4607503E-005  0.9118800E+02  0.7546771E-02  0.1235069E+00
         25   -1    0    0    0    0  0.00000000000E+00  0.00000000000E+00  0.99999998245E-14  0.12500000000E+03  0.12500000000E+03 0.  0.
          5    1    1    0  501    0 -0.12820658859E+02 -0.98790888947E+01 -0.60184668388E+02  0.62500000000E+02  0.47000000000E+01 0.  1.
         -5    1    1    0    0  501  0.12820658859E+02  0.98790888947E+01  0.60184668388E+02  0.62500000000E+02  0.47000000000E+01 0.  1.
</event>
<event>
 3    0  0.4607503E-005  0.9118800E+02  0.7546771E-02  0.1235069E+00
         25   -1    0    0    0    0  0.00000000000E+00  0.00000000000E+00  0.99999998245E-14  0.12500000000E+03  0.12500000000E+03 0.  0.
          5    1    1    0  501    0 -0.11013356448E+01  0.11703420078E+02 -0.61204387247E+02  0.62500000000E+02  0.47000000000E+01 0.  1.
         -5    1    1    0    0  501  0.11013356448E+01 -0.11703420078E+02  0.61204387247E+02  0.62500000000E+02  0.47000000000E+01 0.  1.
</event>
<event>
 3    0  0.4607503E-005  0.9118800E+02  0.7546771E-02  0.1235069E+00
         25   -1    0    0    0    0  0.00000000000E+00  0.00000000000E+00  0.99999998245E-14  0.12500000000E+03  0.12500000000E+03 0.  0.
          5    1    1    0  501    0  0.26089155896E+02 -0.46667224006E+02 -0.32026335229E+02  0.62500000000E+02  0.47000000000E+01 0.  1.
         -5    1    1    0    0  501 -0.26089155896E+02  0.46667224006E+02  0.32026335229E+02  0.62500000000E+02  0.47000000000E+01 0.  1.
</event>
<event>
 3    0  0.4607503E-005  0.9118800E+02  0.7546771E-02  0.1235069E+00
         25   -1    0    0    0    0  0.00000000000E+00  0.00000000000E+00  0.99999998245E-14  0.12500000000E+03  0.12500000000E+03 0.  0.
          5    1    1    0  501    0 -0.44739483915E+02  0.39611576008E+02  0.17704847504E+02  0.62500000000E+02  0.47000000000E+01 0. -1.
         -5    1    1    0    0  501  0.44739483915E+02 -0.39611576008E+02 -0.17704847504E+02  0.62500000000E+02  0.47000000000E+01 0. -1.
</event>
<event>
 3    0  0.4607503E-005  0.9118800E+02  0.7546771E-02  0.1235069E+00
         25   -1    0    0    0    0  0.00000000000E+00  0.00000000000E+00  0.99999998245E-14  0.12500000000E+03  0.12500000000E+03 0.  0.
          5    1    1    0  501    0  0.38213275339E+02  0.33894804106E+02 -0.35707812066E+02  0.62500000000E+02  0.47000000000E+01 0. -1.
         -5    1    1    0    0  501 -0.38213275339E+02 -0.33894804106E+02  0.35707812066E+02  0.62500000000E+02  0.47000000000E+01 0. -1.
</event>
<event>
 3    0  0.4607503E-005  0.9118800E+02  0.7546771E-02  0.1235069E+00
         25   -1    0    0    0    0  0.00000000000E+00  0.00000000000E+00  0.99999998245E-14  0.12500000000E+03  0.12500000000E+03 0.  0.
          5    1    1    0  501    0 -0.12760331731E+02 -0.60834206797E+02 -0.45313593471E+01  0.62500000000E+02  0.47000000000E+01 0.  1.
         -5    1    1    0    0  501  0.12760331731E+02  0.60834206797E+02  0.45313593471E+01  0.62500000000E+02  0.47000000000E+01 0.  1.
</event>
<event>
 3    0  0.4607503E-005  0.9118800E+02  0.7546771E-02  0.1235069E+00
         25   -1    0    0    0    0  0.00000000000E+00  0.00000000000E+00  0.99999998245E-14  0.12500000000E+03  0.12500000000E+03 0.  0.
          5    1    1    0  501    0 -0.36762896516E+01  0.50168134411E+02 -0.36794064523E+02  0.62500000000E+02  0.47000000000E+01 0.  1.
         -5    1    1    0    0  501  0.36762896516E+01 -0.50168134411E+02  0.36794064523E+02  0.62500000000E+02  0.47000000000E+01 0.  1.
</event>
<event>
 3    0  0.4607503E-005  0.9118800E+02  0.7546771E-02  0.1235069E+00
         25   -1    0    0    0    0  0.00000000000E+00  0.00000000000E+00  0.99999998245E-14  0.12500000000E+03  0.12500000000E+03 0.  0.
          5    1    1    0  501    0 -0.34156376507E+02  0.46184418455E+02 -0.24176464504E+02  0.62500000000E+02  0.47000000000E+01 0.  1.
         -5    1    1    0    0  501  0.34156376507E+02 -0.46184418455E+02  0.24176464504E+02  0.62500000000E+02  0.47000000000E+01 0.  1.
</event>
<event>
 3    0  0.4607503E-005  0.9118800E+02  0.7546771E-02  0.1235069E+00
         25   -1    0    0    0    0  0.00000000000E+00  0.00000000000E+00  0.99999998245E-14  0.12500000000E+03  0.12500000000E+03 0.  0.
          5    1    1    0  501    0  0.22526217375E+02  0.50712239727E+02  0.28372491478E+02  0.62500000000E+02  0.47000000000E+01 0. -1.
         -5    1    1    0    0  501 -0.22526217375E+02 -0.50712239727E+02 -0.28372491478E+02  0.62500000000E+02  0.47000000000E+01 0. -1.
</event>
<event>
 3    0  0.4607503E-005  0.9118800E+02  0.7546771E-02  0.1235069E+00
         25   -1    0    0    0    0  0.00000000000E+00  0.00000000000E+00  0.99999998245E-14  0.12500000000E+03  0.12500000000E+03 0.  0.
          5    1    1    0  501    0  0.39079956968E+02 -0.20482194511E+02 -0.44015868404E+02  0.62500000000E+02  0.47000000000E+01 0.  1.
         -5    1    1    0    0  501 -0.39079956968E+02  0.20482194511E+02  0.44015868404E+02  0.62500000000E+02  0.47000000000E+01 0.  1.
</event>
<event>
 3    0  0.4607503E-005  0.9118800E+02  0.7546771E-02  0.1235069E+00
         25   -1    0    0    0    0  0.00000000000E+00  0.00000000000E+00  0.99999998245E-14  0.12500000000E+03  0.12500000000E+03 0.  0.
          5    1    1    0  501    0 -0.42425703769E+02 -0.75312291306E+01  0.45027771958E+02  0.62500000000E+02  0.47000000000E+01 0. -1.
         -5    1    1    0    0  501  0.42425703769E+02  0.75312291306E+01 -0.45027771958E+02  0.62500000000E+02  0.47000000000E+01 0. -1.
</event>
<event>
 3    0  0.4607503E-005  0.9118800E+02  0.7546771E-02  0.1235069E+00
         25   -1    0    0    0    0  0.00000000000E+00  0.00000000000E+00  0.99999998245E-14  0.12500000000E+03  0.12500000000E+03 0.  0.
          5    1    1    0  501    0 -0.26542006189E+02 -0.12950055424E+02 -0.54881490249E+02  0.62500000000E+02  0.47000000000E+01 0.  1.
         -5    1    1    0    0  501  0.26542006189E+02  0.12950055424E+02  0.54881490249E+02  0.62500000000E+02  0.47000000000E+01 0.  1.
</event>
<event>
 3    0  0.4607503E-005  0.9118800E+02  0.7546771E-02  0.1235069E+00
         25   -1    0    0    0    0  0.00000000000E+00  0.00000000000E+00  0.99999998245E-14  0.12500000000E+03  0.12500000000E+03 0.  0.
          5    1    1    0  501    0 -0.20153340373E+02 -0.14159923287E+02  0.57249449293E+02  0.62500000000E+02  0.47000000000E+01 0.  1.
         -5    1    1    0    0  501  0.20153340373E+02  0.14159923287E+02 -0.57249449293E+02  0.62500000000E+02  0.47000000000E+01 0.  1.
</event>
<event>
 3    0  0.4607503E-005  0.9118800E+02  0.7546771E-02  0.1235069E+00
         25   -1    0    0    0    0  0.00000000000E+00  0.00000000000E+00  0.99999998245E-14  0.12500000000E+03  0.12500000000E+03 0.  0.
          5    1    1    0  501    0 -0.65955548362E+01 -0.80959582949E+01  0.61441957291E+02  0.62500000000E+02  0.47000000000E+01 0.  1.
         -5    1    1    0    0  501  0.65955548362E+01  0.80959582949E+01 -0.61441957291E+02  0.62500000000E+02  0.47000000000E+01 0.  1.
</event>
<event>
 3    0  0.4607503E-005  0.9118800E+02  0.7546771E-02  0.1235069E+00
         25   -1    0    0    0    0  0.00000000000E+00  0.00000000000E+00  0.99999998245E-14  0.12500000000E+03  0.12500000000E+03 0.  0.
          5    1    1    0  501    0 -0.39893573116E+02  0.46342813812E+02 -0.12041861653E+02  0.62500000000E+02  0.47000000000E+01 0.  1.
         -5    1    1    0    0  501  0.39893573116E+02 -0.46342813812E+02  0.12041861653E+02  0.62500000000E+02  0.47000000000E+01 0.  1.
</event>
<event>
 3    0  0.4607503E-005  0.9118800E+02  0.7546771E-02  0.1235069E+00
         25   -1    0    0    0    0  0.00000000000E+00  0.00000000000E+00  0.99999998245E-14  0.12500000000E+03  0.12500000000E+03 0.  0.
          5    1    1    0  501    0  0.44931562946E+02 -0.37947417604E+02 -0.20623000471E+02  0.62500000000E+02  0.47000000000E+01 0. -1.
         -5    1    1    0    0  501 -0.44931562946E+02  0.37947417604E+02  0.20623000471E+02  0.62500000000E+02  0.47000000000E+01 0. -1.
</event>
<event>
 3    0  0.4607503E-005  0.9118800E+02  0.7546771E-02  0.1235069E+00
         25   -1    0    0    0    0  0.00000000000E+00  0.00000000000E+00  0.99999998245E-14  0.12500000000E+03  0.12500000000E+03 0.  0.
          5    1    1    0  501    0  0.98520872053E+01 -0.51929882440E+02  0.33020958307E+02  0.62500000000E+02  0.47000000000E+01 0.  1.
         -5    1    1    0    0  501 -0.98520872053E+01  0.51929882440E+02 -0.33020958307E+02  0.62500000000E+02  0.47000000000E+01 0.  1.
</event>
<event>
 3    0  0.4607503E-005  0.9118800E+02  0.7546771E-02  0.1235069E+00
         25   -1    0    0    0    0  0.00000000000E+00  0.00000000000E+00  0.99999998245E-14  0.12500000000E+03  0.12500000000E+03 0.  0.
          5    1    1    0  501    0  0.50420568554E+02 -0.23197062195E+02  0.28351764887E+02  0.62500000000E+02  0.47000000000E+01 0.  1.
         -5    1    1    0    0  501 -0.50420568554E+02  0.23197062195E+02 -0.28351764887E+02  0.62500000000E+02  0.47000000000E+01 0.  1.
</event>
<event>
 3    0  0.4607503E-005  0.9118800E+02  0.7546771E-02  0.1235069E+00
         25   -1    0    0    0    0  0.00000000000E+00  0.00000000000E+00  0.99999998245E-14  0.12500000000E+03  0.12500000000E+03 0.  0.
          5    1    1    0  501    0 -0.10699174180E+02 -0.44641735014E+02  0.42152143086E+02  0.62500000000E+02  0.47000000000E+01 0. -1.
         -5    1    1    0    0  501  0.10699174180E+02  0.44641735014E+02 -0.42152143086E+02  0.62500000000E+02  0.47000000000E+01 0. -1.
</event>
<event>
 3    0  0.4607503E-005  0.9118800E+02  0.7546771E-02  0.1235069E+00
         25   -1    0    0    0    0  0.00000000000E+00  0.00000000000E+00  0.99999998245E-14  0.12500000000E+03  0.12500000000E+03 0.  0.
          5    1    1    0  501    0  0.51491289053E+02  0.30867977321E+02 -0.16732457314E+02  0.62500000000E+02  0.47000000000E+01 0. -1.
         -5    1    1    0    0  501 -0.51491289053E+02 -0.30867977321E+02  0.16732457314E+02  0.62500000000E+02  0.47000000000E+01 0. -1.
</event>
<event>
 3    0  0.4607503E-005  0.9118800E+02  0.7546771E-02  0.1235069E+00
         25   -1    0    0    0    0  0.00000000000E+00  0.00000000000E+00  0.99999998245E-14  0.12500000000E+03  0.12500000000E+03 0.  0.
          5    1    1    0  501    0 -0.40663603274E+02  0.19380121798E+02  0.43070201391E+02  0.62500000000E+02  0.47000000000E+01 0.  1.
         -5    1    1    0    0  501  0.40663603274E+02 -0.19380121798E+02 -0.43070201391E+02  0.62500000000E+02  0.47000000000E+01 0.  1.
</event>
<event>
 3    0  0.4607503E-005  0.9118800E+02  0.7546771E-02  0.1235069E+00
         25   -1    0    0    0    0  0.00000000000E+00  0.00000000000E+00  0.99999998245E-14  0.12500000000E+03  0.12500000000E+03 0.  0.
          5    1    1    0  501    0 -0.84002796456E+01  0.60601263951E+02 -0.11877799016E+02  0.62500000000E+02  0.47000000000E+01 0.  1.
         -5    1    1    0    0  501  0.84002796456E+01 -0.60601263951E+02  0.11877799016E+02  0.62500000000E+02  0.47000000000E+01 0.  1.
</event>
<event>
 3    0  0.4607503E-005  0.9118800E+02  0.7546771E-02  0.1235069E+00
         25   -1    0    0    0    0  0.00000000000E+00  0.00000000000E+00  0.99999998245E-14  0.12500000000E+03  0.12500000000E+03 0.  0.
          5    1    1    0  501    0  0.12190280909E+01  0.30732490487E+02 -0.54205055105E+02  0.62500000000E+02  0.47000000000E+01 0. -1.
         -5    1    1    0    0  501 -0.12190280909E+01 -0.30732490487E+02  0.54205055105E+02  0.62500000000E+02  0.47000000000E+01 0. -1.
</event>
<event>
 3    0  0.4607503E-005  0.9118800E+02  0.7546771E-02  0.1235069E+00
         25   -1    0    0    0    0  0.00000000000E+00  0.00000000000E+00  0.99999998245E-14  0.12500000000E+03  0.12500000000E+03 0.  0.
          5    1    1    0  501    0  0.87433817088E+01 -0.30355955726E+02 -0.53723637519E+02  0.62500000000E+02  0.47000000000E+01 0. -1.
         -5    1    1    0    0  501 -0.87433817088E+01  0.30355955726E+02  0.53723637519E+02  0.62500000000E+02  0.47000000000E+01 0. -1.
</event>
<event>
 3    0  0.4607503E-005  0.9118800E+02  0.7546771E-02  0.1235069E+00
         25   -1    0    0    0    0  0.00000000000E+00  0.00000000000E+00  0.99999998245E-14  0.12500000000E+03  0.12500000000E+03 0.  0.
          5    1    1    0  501    0  0.16938686964E+02  0.51994537688E+02  0.29896637512E+02  0.62500000000E+02  0.47000000000E+01 0.  1.
         -5    1    1    0    0  501 -0.16938686964E+02 -0.51994537688E+02 -0.29896637512E+02  0.62500000000E+02  0.47000000000E+01 0.  1.
</event>
<event>
 3    0  0.4607503E-005  0.9118800E+02  0.7546771E-02  0.1235069E+00
         25   -1    0    0    0    0  0.00000000000E+00  0.00000000000E+00  0.99999998245E-14  0.12500000000E+03  0.12500000000E+03 0.  0.
          5    1    1    0  501    0  0.42984072010E+02  0.44393162376E+02 -0.81102828370E+01  0.62500000000E+02  0.47000000000E+01 0.  1.
         -5    1    1    0    0  501 -0.42984072010E+02 -0.44393162376E+02  0.81102828370E+01  0.62500000000E+02  0.47000000000E+01 0.  1.
</event>
<event>
 3    0  0.4607503E-005  0.9118800E+02  0.7546771E-02  0.1235069E+00
         25   -1    0    0    0    0  0.00000000000E+00  0.00000000000E+00  0.99999998245E-14  0.12500000000E+03  0.12500000000E+03 0.  0.
          5    1    1    0  501    0 -0.17020648247E+02 -0.33841678540E+02  0.49489375899E+02  0.62500000000E+02  0.47000000000E+01 0.  1.
         -5    1    1    0    0  501  0.17020648247E+02  0.33841678540E+02 -0.49489375899E+02  0.62500000000E+02  0.47000000000E+01 0.  1.
</event>
<event>
 3    0  0.4607503E-005  0.9118800E+02  0.7546771E-02  0.1235069E+00
         25   -1    0    0    0    0  0.00000000000E+00  0.00000000000E+00  0.99999998245E-14  0.12500000000E+03  0.12500000000E+03 0.  0.
          5    1    1    0  501    0 -0.21665942725E+02  0.58412144852E+02  0.16638087795E+01  0.62500000000E+02  0.47000000000E+01 0. -1.
         -5    1    1    0    0  501  0.21665942725E+02 -0.58412144852E+02 -0.16638087795E+01  0.62500000000E+02  0.47000000000E+01 0. -1.
</event>
<event>
 3    0  0.4607503E-005  0.9118800E+02  0.7546771E-02  0.1235069E+00
         25   -1    0    0    0    0  0.00000000000E+00  0.00000000000E+00  0.99999998245E-14  0.12500000000E+03  0.12500000000E+03 0.  0.
          5    1    1    0  501    0  0.16492947426E+02 -0.56429408065E+02  0.20684887976E+02  0.62500000000E+02  0.47000000000E+01 0. -1.
         -5    1    1    0    0  501 -0.16492947426E+02  0.56429408065E+02 -0.20684887976E+02  0.62500000000E+02  0.47000000000E+01 0. -1.
</event>
<event>
 3    0  0.4607503E-005  0.9118800E+02  0.7546771E-02  0.1235069E+00
         25   -1    0    0    0    0  0.00000000000E+00  0.00000000000E+00  0.99999998245E-14  0.12500000000E+03  0.12500000000E+03 0.  0.
          5    1    1    0  501    0 -0.53597142021E+02  0.28721125774E+02  0.13660281893E+02  0.62500000000E+02  0.47000000000E+01 0. -1.
         -5    1    1    0    0  501  0.53597142021E+02 -0.28721125774E+02 -0.13660281893E+02  0.62500000000E+02  0.47000000000E+01 0. -1.
</event>
<event>
 3    0  0.4607503E-005  0.9118800E+02  0.7546771E-02  0.1235069E+00
         25   -1    0    0    0    0  0.00000000000E+00  0.00000000000E+00  0.99999998245E-14  0.12500000000E+03  0.12500000000E+03 0.  0.
          5    1    1    0  501    0  0.47576416496E+02 -0.35911341257E+02 -0.18193959509E+02  0.62500000000E+02  0.47000000000E+01 0.  1.
         -5    1    1    0    0  501 -0.47576416496E+02  0.35911341257E+02  0.18193959509E+02  0.62500000000E+02  0.47000000000E+01 0.  1.
</event>
<event>
 3    0  0.4607503E-005  0.9118800E+02  0.7546771E-02  0.1235069E+00
         25   -1    0    0    0    0  0.00000000000E+00  0.00000000000E+00  0.99999998245E-14  0.12500000000E+03  0.12500000000E+03 0.  0.
          5    1    1    0  501    0 -0.50919994141E+02 -0.21344334841E+02 -0.28909056831E+02  0.62500000000E+02  0.47000000000E+01 0.  1.
         -5    1    1    0    0  501  0.50919994141E+02  0.21344334841E+02  0.28909056831E+02  0.62500000000E+02  0.47000000000E+01 0.  1.
</event>
<event>
 3    0  0.4607503E-005  0.9118800E+02  0.7546771E-02  0.1235069E+00
         25   -1    0    0    0    0  0.00000000000E+00  0.00000000000E+00  0.99999998245E-14  0.12500000000E+03  0.12500000000E+03 0.  0.
          5    1    1    0  501    0 -0.22570427980E+02 -0.50322436886E+02 -0.29023923351E+02  0.62500000000E+02  0.47000000000E+01 0. -1.
         -5    1    1    0    0  501  0.22570427980E+02  0.50322436886E+02  0.29023923351E+02  0.62500000000E+02  0.47000000000E+01 0. -1.
</event>
<event>
 3    0  0.4607503E-005  0.9118800E+02  0.7546771E-02  0.1235069E+00
         25   -1    0    0    0    0  0.00000000000E+00  0.00000000000E+00  0.99999998245E-14  0.12500000000E+03  0.12500000000E+03 0.  0.
          5    1    1    0  501    0 -0.40745163806E+02  0.42446334269E+02  0.20549947289E+02  0.62500000000E+02  0.47000000000E+01 0.  1.
         -5    1    1    0    0  501  0.40745163806E+02 -0.42446334269E+02 -0.20549947289E+02  0.62500000000E+02  0.47000000000E+01 0.  1.
</event>
<event>
 3    0  0.4607503E-005  0.9118800E+02  0.7546771E-02  0.1235069E+00
         25   -1    0    0    0    0  0.00000000000E+00  0.00000000000E+00  0.99999998245E-14  0.12500000000E+03  0.12500000000E+03 0.  0.
          5    1    1    0  501    0  0.30759535222E+02 -0.38654680448E+02  0.37997719305E+02  0.62500000000E+02  0.47000000000E+01 0.  1.
         -5    1    1    0    0  501 -0.30759535222E+02  0.38654680448E+02 -0.37997719305E+02  0.62500000000E+02  0.47000000000E+01 0.  1.
</event>
<event>
 3    0  0.4607503E-005  0.9118800E+02  0.7546771E-02  0.1235069E+00
         25   -1    0    0    0    0  0.00000000000E+00  0.00000000000E+00  0.99999998245E-14  0.12500000000E+03  0.12500000000E+03 0.  0.
          5    1    1    0  501    0 -0.20863365009E+02 -0.45484543478E+02 -0.37148839889E+02  0.62500000000E+02  0.47000000000E+01 0. -1.
         -5    1    1    0    0  501  0.20863365009E+02  0.45484543478E+02  0.37148839889E+02  0.62500000000E+02  0.47000000000E+01 0. -1.
</event>
<event>
 3    0  0.4607503E-005  0.9118800E+02  0.7546771E-02  0.1235069E+00
         25   -1    0    0    0    0  0.00000000000E+00  0.00000000000E+00  0.99999998245E-14  0.12500000000E+03  0.12500000000E+03 0.  0.
          5    1    1    0  501    0 -0.14854762938E+02  0.50675226900E+02  0.33098601129E+02  0.62500000000E+02  0.47000000000E+01 0.  1.
         -5    1    1    0    0  501  0.14854762938E+02 -0.50675226900E+02 -0.33098601129E+02  0.62500000000E+02  0.47000000000E+01 0.  1.
</event>
<event>
 3    0  0.4607503E-005  0.9118800E+02  0.7546771E-02  0.1235069E+00
         25   -1    0    0    0    0  0.00000000000E+00  0.00000000000E+00  0.99999998245E-14  0.12500000000E+03  0.12500000000E+03 0.  0.
          5    1    1    0  501    0  0.29790564876E+02 -0.40518922798E+00 -0.54740460960E+02  0.62500000000E+02  0.47000000000E+01 0.  1.
         -5    1    1    0    0  501 -0.29790564876E+02  0.40518922798E+00  0.54740460960E+02  0.62500000000E+02  0.47000000000E+01 0.  1.
</event>
<event>
 3    0  0.4607503E-005  0.9118800E+02  0.7546771E-02  0.1235069E+00
         25   -1    0    0    0    0  0.00000000000E+00  0.00000000000E+00  0.99999998245E-14  0.12500000000E+03  0.12500000000E+03 0.  0.
          5    1    1    0  501    0 -0.53943733659E+01 -0.62057139915E+02  0.19930182089E+01  0.62500000000E+02  0.47000000000E+01 0.  1.
         -5    1    1    0    0  501  0.53943733659E+01  0.62057139915E+02 -0.19930182089E+01  0.62500000000E+02  0.47000000000E+01 0.  1.
</event>
<event>
 3    0  0.4607503E-005  0.9118800E+02  0.7546771E-02  0.1235069E+00
         25   -1    0    0    0    0  0.00000000000E+00  0.00000000000E+00  0.99999998245E-14  0.12500000000E+03  0.12500000000E+03 0.  0.
          5    1    1    0  501    0 -0.22961625762E+02 -0.42429981717E+02  0.39454028867E+02  0.62500000000E+02  0.47000000000E+01 0. -1.
         -5    1    1    0    0  501  0.22961625762E+02  0.42429981717E+02 -0.39454028867E+02  0.62500000000E+02  0.47000000000E+01 0. -1.
</event>
<event>
 3    0  0.4607503E-005  0.9118800E+02  0.7546771E-02  0.1235069E+00
         25   -1    0    0    0    0  0.00000000000E+00  0.00000000000E+00  0.99999998245E-14  0.12500000000E+03  0.12500000000E+03 0.  0.
          5    1    1    0  501    0  0.22217486916E+02 -0.36592703544E+02 -0.45293678615E+02  0.62500000000E+02  0.47000000000E+01 0.  1.
         -5    1    1    0    0  501 -0.22217486916E+02  0.36592703544E+02  0.45293678615E+02  0.62500000000E+02  0.47000000000E+01 0.  1.
</event>
<event>
 3    0  0.4607503E-005  0.9118800E+02  0.7546771E-02  0.1235069E+00
         25   -1    0    0    0    0  0.00000000000E+00  0.00000000000E+00  0.99999998245E-14  0.12500000000E+03  0.12500000000E+03 0.  0.
          5    1    1    0  501    0 -0.60840273588E+02 -0.13485099240E+02 -0.87932261412E+00  0.62500000000E+02  0.47000000000E+01 0. -1.
         -5    1    1    0    0  501  0.60840273588E+02  0.13485099240E+02  0.87932261412E+00  0.62500000000E+02  0.47000000000E+01 0. -1.
</event>
<event>
 3    0  0.4607503E-005  0.9118800E+02  0.7546771E-02  0.1235069E+00
         25   -1    0    0    0    0  0.00000000000E+00  0.00000000000E+00  0.99999998245E-14  0.12500000000E+03  0.12500000000E+03 0.  0.
          5    1    1    0  501    0  0.15886405413E+02  0.60240089147E+02 -0.17069805489E+01  0.62500000000E+02  0.47000000000E+01 0. -1.
         -5    1    1    0    0  501 -0.15886405413E+02 -0.60240089147E+02  0.17069805489E+01  0.62500000000E+02  0.47000000000E+01 0. -1.
</event>
<event>
 3    0  0.4607503E-005  0.9118800E+02  0.7546771E-02  0.1235069E+00
         25   -1    0    0    0    0  0.00000000000E+00  0.00000000000E+00  0.99999998245E-14  0.12500000000E+03  0.12500000000E+03 0.  0.
          5    1    1    0  501    0  0.18237879526E+02 -0.53324896071E+02 -0.26608179371E+02  0.62500000000E+02  0.47000000000E+01 0.  1.
         -5    1    1    0    0  501 -0.18237879526E+02  0.53324896071E+02  0.26608179371E+02  0.62500000000E+02  0.47000000000E+01 0.  1.
</event>
<event>
 3    0  0.4607503E-005  0.9118800E+02  0.7546771E-02  0.1235069E+00
         25   -1    0    0    0    0  0.00000000000E+00  0.00000000000E+00  0.99999998245E-14  0.12500000000E+03  0.12500000000E+03 0.  0.
          5    1    1    0  501    0 -0.57044196523E+02 -0.24395496644E+02  0.59143373757E+01  0.62500000000E+02  0.47000000000E+01 0. -1.
         -5    1    1    0    0  501  0.57044196523E+02  0.24395496644E+02 -0.59143373757E+01  0.62500000000E+02  0.47000000000E+01 0. -1.
</event>
<event>
 3    0  0.4607503E-005  0.9118800E+02  0.7546771E-02  0.1235069E+00
         25   -1    0    0    0    0  0.00000000000E+00  0.00000000000E+00  0.99999998245E-14  0.12500000000E+03  0.12500000000E+03 0.  0.
          5    1    1    0  501    0 -0.58287515484E+02 -0.20904043813E+02 -0.70531192403E+01  0.62500000000E+02  0.47000000000E+01 0.  1.
         -5    1    1    0    0  501  0.58287515484E+02  0.20904043813E+02  0.70531192403E+01  0.62500000000E+02  0.47000000000E+01 0.  1.
</event>
<event>
 3    0  0.4607503E-005  0.9118800E+02  0.7546771E-02  0.1235069E+00
         25   -1    0    0    0    0  0.00000000000E+00  0.00000000000E+00  0.99999998245E-14  0.12500000000E+03  0.12500000000E+03 0.  0.
          5    1    1    0  501    0 -0.59499039241E+02  0.18277158565E+02  0.31574996764E+01  0.62500000000E+02  0.47000000000E+01 0. -1.
         -5    1    1    0    0  501  0.59499039241E+02 -0.18277158565E+02 -0.31574996764E+01  0.62500000000E+02  0.47000000000E+01 0. -1.
</event>
<event>
 3    0  0.4607503E-005  0.9118800E+02  0.7546771E-02  0.1235069E+00
         25   -1    0    0    0    0  0.00000000000E+00  0.00000000000E+00  0.99999998245E-14  0.12500000000E+03  0.12500000000E+03 0.  0.
          5    1    1    0  501    0 -0.31725835120E+02  0.10858745822E+02 -0.52533027945E+02  0.62500000000E+02  0.47000000000E+01 0. -1.
         -5    1    1    0    0  501  0.31725835120E+02 -0.10858745822E+02  0.52533027945E+02  0.62500000000E+02  0.47000000000E+01 0. -1.
</event>
<event>
 3    0  0.4607503E-005  0.9118800E+02  0.7546771E-02  0.1235069E+00
         25   -1    0    0    0    0  0.00000000000E+00  0.00000000000E+00  0.99999998245E-14  0.12500000000E+03  0.12500000000E+03 0.  0.
          5    1    1    0  501    0 -0.15013697662E+02  0.19119900891E+02  0.57386220231E+02  0.62500000000E+02  0.47000000000E+01 0. -1.
         -5    1    1    0    0  501  0.15013697662E+02 -0.19119900891E+02 -0.57386220231E+02  0.62500000000E+02  0.47000000000E+01 0. -1.
</event>
<event>
 3    0  0.4607503E-005  0.9118800E+02  0.7546771E-02  0.1235069E+00
         25   -1    0    0    0    0  0.00000000000E+00  0.00000000000E+00  0.99999998245E-14  0.12500000000E+03  0.12500000000E+03 0.  0.
          5    1    1    0  501    0  0.17743311627E+02  0.59725256968E+01 -0.59444628263E+02  0.62500000000E+02  0.47000000000E+01 0. -1.
         -5    1    1    0    0  501 -0.17743311627E+02 -0.59725256968E+01  0.59444628263E+02  0.62500000000E+02  0.47000000000E+01 0. -1.
</event>
<event>
 3    0  0.4607503E-005  0.9118800E+02  0.7546771E-02  0.1235069E+00
         25   -1    0    0    0    0  0.00000000000E+00  0.00000000000E+00  0.99999998245E-14  0.12500000000E+03  0.12500000000E+03 0.  0.
          5    1    1    0  501    0 -0.56914926806E+02  0.25333575772E+02  0.17495843112E+01  0.62500000000E+02  0.47000000000E+01 0. -1.
         -5    1    1    0    0  501  0.56914926806E+02 -0.25333575772E+02 -0.17495843112E+01  0.62500000000E+02  0.47000000000E+01 0. -1.
</event>
<event>
 3    0  0.4607503E-005  0.9118800E+02  0.7546771E-02  0.1235069E+00
         25   -1    0    0    0    0  0.00000000000E+00  0.00000000000E+00  0.99999998245E-14  0.12500000000E+03  0.12500000000E+03 0.  0.
          5    1    1    0  501    0  0.46499333595E+02 -0.50826862912E+01 -0.41184199340E+02  0.62500000000E+02  0.47000000000E+01 0.  1.
         -5    1    1    0    0  501 -0.46499333595E+02  0.50826862912E+01  0.41184199340E+02  0.62500000000E+02  0.47000000000E+01 0.  1.
</event>
<event>
 3    0  0.4607503E-005  0.9118800E+02  0.7546771E-02  0.1235069E+00
         25   -1    0    0    0    0  0.00000000000E+00  0.00000000000E+00  0.99999998245E-14  0.12500000000E+03  0.12500000000E+03 0.  0.
          5    1    1    0  501    0  0.82096450756E+01  0.55990701192E+02 -0.26111359745E+02  0.62500000000E+02  0.47000000000E+01 0.  1.
         -5    1    1    0    0  501 -0.82096450756E+01 -0.55990701192E+02  0.26111359745E+02  0.62500000000E+02  0.47000000000E+01 0.  1.
</event>
<event>
 3    0  0.4607503E-005  0.9118800E+02  0.7546771E-02  0.1235069E+00
         25   -1    0    0    0    0  0.00000000000E+00  0.00000000000E+00  0.99999998245E-14  0.12500000000E+03  0.12500000000E+03 0.  0.
          5    1    1    0  501    0  0.62019638167E+02  0.43533035389E+01 -0.43328085452E+01  0.62500000000E+02  0.47000000000E+01 0. -1.
         -5    1    1    0    0  501 -0.62019638167E+02 -0.43533035389E+01  0.43328085452E+01  0.62500000000E+02  0.47000000000E+01 0. -1.
</event>
<event>
 3    0  0.4607503E-005  0.9118800E+02  0.7546771E-02  0.1235069E+00
         25   -1    0    0    0    0  0.00000000000E+00  0.00000000000E+00  0.99999998245E-14  0.12500000000E+03  0.12500000000E+03 0.  0.
          5    1    1    0  501    0 -0.22340460570E+02  0.51341200022E+02 -0.27370513364E+02  0.62500000000E+02  0.47000000000E+01 0. -1.
         -5    1    1    0    0  501  0.22340460570E+02 -0.51341200022E+02  0.27370513364E+02  0.62500000000E+02  0.47000000000E+01 0. -1.
</event>
<event>
 3    0  0.4607503E-005  0.9118800E+02  0.7546771E-02  0.1235069E+00
         25   -1    0    0    0    0  0.00000000000E+00  0.00000000000E+00  0.99999998245E-14  0.12500000000E+03  0.12500000000E+03 0.  0.
          5    1    1    0  501    0  0.52103223898E+02  0.26689380546E+02 -0.21379687218E+02  0.62500000000E+02  0.47000000000E+01 0.  1.
         -5    1    1    0    0  501 -0.52103223898E+02 -0.26689380546E+02  0.21379687218E+02  0.62500000000E+02  0.47000000000E+01 0.  1.
</event>
<event>
 3    0  0.4607503E-005  0.9118800E+02  0.7546771E-02  0.1235069E+00
         25   -1    0    0    0    0  0.00000000000E+00  0.00000000000E+00  0.99999998245E-14  0.12500000000E+03  0.12500000000E+03 0.  0.
          5    1    1    0  501    0  0.10815900147E+02  0.23198369740E+02 -0.56824395689E+02  0.62500000000E+02  0.47000000000E+01 0.  1.
         -5    1    1    0    0  501 -0.10815900147E+02 -0.23198369740E+02  0.56824395689E+02  0.62500000000E+02  0.47000000000E+01 0.  1.
</event>
<event>
 3    0  0.4607503E-005  0.9118800E+02  0.7546771E-02  0.1235069E+00
         25   -1    0    0    0    0  0.00000000000E+00  0.00000000000E+00  0.99999998245E-14  0.12500000000E+03  0.12500000000E+03 0.  0.
          5    1    1    0  501    0  0.49397215081E+02  0.33752110905E+02  0.17460531255E+02  0.62500000000E+02  0.47000000000E+01 0.  1.
         -5    1    1    0    0  501 -0.49397215081E+02 -0.33752110905E+02 -0.17460531255E+02  0.62500000000E+02  0.47000000000E+01 0.  1.
</event>
<event>
 3    0  0.4607503E-005  0.9118800E+02  0.7546771E-02  0.1235069E+00
         25   -1    0    0    0    0  0.00000000000E+00  0.00000000000E+00  0.99999998245E-14  0.12500000000E+03  0.12500000000E+03 0.  0.
          5    1    1    0  501    0  0.29373370774E+02 -0.24562798570E+02 -0.49173509289E+02  0.62500000000E+02  0.47000000000E+01 0.  1.
         -5    1    1    0    0  501 -0.29373370774E+02  0.24562798570E+02  0.49173509289E+02  0.62500000000E+02  0.47000000000E+01 0.  1.
</event>
<event>
 3    0  0.4607503E-005  0.9118800E+02  0.7546771E-02  0.1235069E+00
         25   -1    0    0    0    0  0.00000000000E+00  0.00000000000E+00  0.99999998245E-14  0.12500000000E+03  0.12500000000E+03 0.  0.
          5    1    1    0  501    0 -0.37998778179E+02  0.46415610959E+01  0.49180369737E+02  0.62500000000E+02  0.47000000000E+01 0. -1.
         -5    1    1    0    0  501  0.37998778179E+02 -0.46415610959E+01 -0.49180369737E+02  0.62500000000E+02  0.47000000000E+01 0. -1.
</event>
<event>
 3    0  0.4607503E-005  0.9118800E+02  0.7546771E-02  0.1235069E+00
         25   -1    0    0    0    0  0.00000000000E+00  0.00000000000E+00  0.99999998245E-14  0.12500000000E+03  0.12500000000E+03 0.  0.
          5    1    1    0  501    0  0.23514914313E+02 -0.33551645625E+02 -0.46962707340E+02  0.62500000000E+02  0.47000000000E+01 0.  1.
         -5    1    1    0    0  501 -0.23514914313E+02  0.33551645625E+02  0.46962707340E+02  0.62500000000E+02  0.47000000000E+01 0.  1.
</event>
<event>
 3    0  0.4607503E-005  0.9118800E+02  0.7546771E-02  0.1235069E+00
         25   -1    0    0    0    0  0.00000000000E+00  0.00000000000E+00  0.99999998245E-14  0.12500000000E+03  0.12500000000E+03 0.  0.
          5    1    1    0  501    0  0.16150143516E+02  0.50310129981E+02 -0.33048807628E+02  0.62500000000E+02  0.47000000000E+01 0. -1.
         -5    1    1    0    0  501 -0.16150143516E+02 -0.50310129981E+02  0.33048807628E+02  0.62500000000E+02  0.47000000000E+01 0. -1.
</event>
<event>
 3    0  0.4607503E-005  0.9118800E+02  0.7546771E-02  0.1235069E+00
         25   -1    0    0    0    0  0.00000000000E+00  0.00000000000E+00  0.99999998245E-14  0.12500000000E+03  0.12500000000E+03 0.  0.
          5    1    1    0  501    0  0.16127463080E+02 -0.53300106446E+02 -0.27985060075E+02  0.62500000000E+02  0.47000000000E+01 0. -1.
         -5    1    1    0    0  501 -0.16127463080E+02  0.53300106446E+02  0.27985060075E+02  0.62500000000E+02  0.47000000000E+01 0. -1.
</event>
<event>
 3    0  0.4607503E-005  0.9118800E+02  0.7546771E-02  0.1235069E+00
         25   -1    0    0    0    0  0.00000000000E+00  0.00000000000E+00  0.99999998245E-14  0.12500000000E+03  0.12500000000E+03 0.  0.
          5    1    1    0  501    0  0.26341742121E+02  0.96708345582E+01 -0.55648428379E+02  0.62500000000E+02  0.47000000000E+01 0. -1.
         -5    1    1    0    0  501 -0.26341742121E+02 -0.96708345582E+01  0.55648428379E+02  0.62500000000E+02  0.47000000000E+01 0. -1.
</event>
<event>
 3    0  0.4607503E-005  0.9118800E+02  0.7546771E-02  0.1235069E+00
         25   -1    0    0    0    0  0.00000000000E+00  0.00000000000E+00  0.99999998245E-14  0.12500000000E+03  0.12500000000E+03 0.  0.
          5    1    1    0  501    0  0.29951146040E+02  0.46792774980E+02 -0.28240486196E+02  0.62500000000E+02  0.47000000000E+01 0. -1.
         -5    1    1    0    0  501 -0.29951146040E+02 -0.46792774980E+02  0.28240486196E+02  0.62500000000E+02  0.47000000000E+01 0. -1.
</event>
<event>
 3    0  0.4607503E-005  0.9118800E+02  0.7546771E-02  0.1235069E+00
         25   -1    0    0    0    0  0.00000000000E+00  0.00000000000E+00  0.99999998245E-14  0.12500000000E+03  0.12500000000E+03 0.  0.
          5    1    1    0  501    0  0.16867996070E+02  0.44026503437E+02  0.40759019905E+02  0.62500000000E+02  0.47000000000E+01 0. -1.
         -5    1    1    0    0  501 -0.16867996070E+02 -0.44026503437E+02 -0.40759019905E+02  0.62500000000E+02  0.47000000000E+01 0. -1.
</event>
<event>
 3    0  0.4607503E-005  0.9118800E+02  0.7546771E-02  0.1235069E+00
         25   -1    0    0    0    0  0.00000000000E+00  0.00000000000E+00  0.99999998245E-14  0.12500000000E+03  0.12500000000E+03 0.  0.
          5    1    1    0  501    0  0.10622781877E+02 -0.24338212715E+02  0.56382336835E+02  0.62500000000E+02  0.47000000000E+01 0.  1.
         -5    1    1    0    0  501 -0.10622781877E+02  0.24338212715E+02 -0.56382336835E+02  0.62500000000E+02  0.47000000000E+01 0.  1.
</event>
<event>
 3    0  0.4607503E-005  0.9118800E+02  0.7546771E-02  0.1235069E+00
         25   -1    0    0    0    0  0.00000000000E+00  0.00000000000E+00  0.99999998245E-14  0.12500000000E+03  0.12500000000E+03 0.  0.
          5    1    1    0  501    0  0.34446373451E+02 -0.46623546749E+02 -0.22887818695E+02  0.62500000000E+02  0.47000000000E+01 0. -1.
         -5    1    1    0    0  501 -0.34446373451E+02  0.46623546749E+02  0.22887818695E+02  0.62500000000E+02  0.47000000000E+01 0. -1.
</event>
<event>
 3    0  0.4607503E-005  0.9118800E+02  0.7546771E-02  0.1235069E+00
         25   -1    0    0    0    0  0.00000000000E+00  0.00000000000E+00  0.99999998245E-14  0.12500000000E+03  0.12500000000E+03 0.  0.
          5    1    1    0  501    0 -0.12009623605E+02  0.18315814152E+02  0.58347749681E+02  0.62500000000E+02  0.47000000000E+01 0.  1.
         -5    1    1    0    0  501  0.12009623605E+02 -0.18315814152E+02 -0.58347749681E+02  0.62500000000E+02  0.47000000000E+01 0.  1.
</event>
<event>
 3    0  0.4607503E-005  0.9118800E+02  0.7546771E-02  0.1235069E+00
         25   -1    0    0    0    0  0.00000000000E+00  0.00000000000E+00  0.99999998245E-14  0.12500000000E+03  0.12500000000E+03 0.  0.
          5    1    1    0  501    0 -0.33021648218E+02 -0.52853096715E+02 -0.53001570835E+00  0.62500000000E+02  0.47000000000E+01 0. -1.
         -5    1    1    0    0  501  0.33021648218E+02  0.52853096715E+02  0.53001570835E+00  0.62500000000E+02  0.47000000000E+01 0. -1.
</event>
<event>
 3    0  0.4607503E-005  0.9118800E+02  0.7546771E-02  0.1235069E+00
         25   -1    0    0    0    0  0.00000000000E+00  0.00000000000E+00  0.99999998245E-14  0.12500000000E+03  0.12500000000E+03 0.  0.
          5    1    1    0  501    0  0.16701245923E+02 -0.52158076550E+02 -0.29744973277E+02  0.62500000000E+02  0.47000000000E+01 0.  1.
         -5    1    1    0    0  501 -0.16701245923E+02  0.52158076550E+02  0.29744973277E+02  0.62500000000E+02  0.47000000000E+01 0.  1.
</event>
<event>
 3    0  0.4607503E-005  0.9118800E+02  0.7546771E-02  0.1235069E+00
         25   -1    0    0    0    0  0.00000000000E+00  0.00000000000E+00  0.99999998245E-14  0.12500000000E+03  0.12500000000E+03 0.  0.
          5    1    1    0  501    0 -0.45379343934E+01  0.55769871759E+02 -0.27446102736E+02  0.62500000000E+02  0.47000000000E+01 0. -1.
         -5    1    1    0    0  501  0.45379343934E+01 -0.55769871759E+02  0.27446102736E+02  0.62500000000E+02  0.47000000000E+01 0. -1.
</event>
<event>
 3    0  0.4607503E-005  0.9118800E+02  0.7546771E-02  0.1235069E+00
         25   -1    0    0    0    0  0.00000000000E+00  0.00000000000E+00  0.99999998245E-14  0.12500000000E+03  0.12500000000E+03 0.  0.
          5    1    1    0  501    0 -0.32596270442E+02  0.43822078771E+02  0.30021135312E+02  0.62500000000E+02  0.47000000000E+01 0.  1.
         -5    1    1    0    0  501  0.32596270442E+02 -0.43822078771E+02 -0.30021135312E+02  0.62500000000E+02  0.47000000000E+01 0.  1.
</event>
<event>
 3    0  0.4607503E-005  0.9118800E+02  0.7546771E-02  0.1235069E+00
         25   -1    0    0    0    0  0.00000000000E+00  0.00000000000E+00  0.99999998245E-14  0.12500000000E+03  0.12500000000E+03 0.  0.
          5    1    1    0  501    0 -0.47920774607E+02  0.91987800644E+01 -0.38770372792E+02  0.62500000000E+02  0.47000000000E+01 0.  1.
         -5    1    1    0    0  501  0.47920774607E+02 -0.91987800644E+01  0.38770372792E+02  0.62500000000E+02  0.47000000000E+01 0.  1.
</event>
<event>
 3    0  0.4607503E-005  0.9118800E+02  0.7546771E-02  0.1235069E+00
         25   -1    0    0    0    0  0.00000000000E+00  0.00000000000E+00  0.99999998245E-14  0.12500000000E+03  0.12500000000E+03 0.  0.
          5    1    1    0  501    0 -0.58449153181E+02 -0.95864533200E+01 -0.19389595281E+02  0.62500000000E+02  0.47000000000E+01 0.  1.
         -5    1    1    0    0  501  0.58449153181E+02  0.95864533200E+01  0.19389595281E+02  0.62500000000E+02  0.47000000000E+01 0.  1.
</event>
<event>
 3    0  0.4607503E-005  0.9118800E+02  0.7546771E-02  0.1235069E+00
         25   -1    0    0    0    0  0.00000000000E+00  0.00000000000E+00  0.99999998245E-14  0.12500000000E+03  0.12500000000E+03 0.  0.
          5    1    1    0  501    0 -0.17645558832E+02 -0.42811390924E+02  0.41713056237E+02  0.62500000000E+02  0.47000000000E+01 0. -1.
         -5    1    1    0    0  501  0.17645558832E+02  0.42811390924E+02 -0.41713056237E+02  0.62500000000E+02  0.47000000000E+01 0. -1.
</event>
<event>
 3    0  0.4607503E-005  0.9118800E+02  0.7546771E-02  0.1235069E+00
         25   -1    0    0    0    0  0.00000000000E+00  0.00000000000E+00  0.99999998245E-14  0.12500000000E+03  0.12500000000E+03 0.  0.
          5    1    1    0  501    0 -0.30214180191E+02  0.13139848425E+00 -0.54509137306E+02  0.62500000000E+02  0.47000000000E+01 0.  1.
         -5    1    1    0    0  501  0.30214180191E+02 -0.13139848425E+00  0.54509137306E+02  0.62500000000E+02  0.47000000000E+01 0.  1.
</event>
<event>
 3    0  0.4607503E-005  0.9118800E+02  0.7546771E-02  0.1235069E+00
         25   -1    0    0    0    0  0.00000000000E+00  0.00000000000E+00  0.99999998245E-14  0.12500000000E+03  0.12500000000E+03 0.  0.
          5    1    1    0  501    0 -0.16264117919E+02  0.54310377525E+02 -0.25884770840E+02  0.62500000000E+02  0.47000000000E+01 0. -1.
         -5    1    1    0    0  501  0.16264117919E+02 -0.54310377525E+02  0.25884770840E+02  0.62500000000E+02  0.47000000000E+01 0. -1.
</event>
<event>
 3    0  0.4607503E-005  0.9118800E+02  0.7546771E-02  0.1235069E+00
         25   -1    0    0    0    0  0.00000000000E+00  0.00000000000E+00  0.99999998245E-14  0.12500000000E+03  0.12500000000E+03 0.  0.
          5    1    1    0  501    0  0.58315308155E+02  0.98211277020E+01 -0.19673085305E+02  0.62500000000E+02  0.47000000000E+01 0.  1.
         -5    1    1    0    0  501 -0.58315308155E+02 -0.98211277020E+01  0.19673085305E+02  0.62500000000E+02  0.47000000000E+01 0.  1.
</event>
<event>
 3    0  0.4607503E-005  0.9118800E+02  0.7546771E-02  0.1235069E+00
         25   -1    0    0    0    0  0.00000000000E+00  0.00000000000E+00  0.99999998245E-14  0.12500000000E+03  0.12500000000E+03 0.  0.
          5    1    1    0  501    0 -0.27198187100E+02  0.18296962064E+02  0.53006035484E+02  0.62500000000E+02  0.47000000000E+01 0.  1.
         -5    1    1    0    0  501  0.27198187100E+02 -0.18296962064E+02 -0.53006035484E+02  0.62500000000E+02  0.47000000000E+01 0.  1.
</event>
<event>
 3    0  0.4607503E-005  0.9118800E+02  0.7546771E-02  0.1235069E+00
         25   -1    0    0    0    0  0.00000000000E+00  0.00000000000E+00  0.99999998245E-14  0.12500000000E+03  0.12500000000E+03 0.  0.
          5    1    1    0  501    0 -0.49912472005E+02 -0.37285673430E+02 -0.16381987759E+01  0.62500000000E+02  0.47000000000E+01 0. -1.
         -5    1    1    0    0  501  0.49912472005E+02  0.37285673430E+02  0.16381987759E+01  0.62500000000E+02  0.47000000000E+01 0. -1.
</event>
<event>
 3    0  0.4607503E-005  0.9118800E+02  0.7546771E-02  0.1235069E+00
         25   -1    0    0    0    0  0.00000000000E+00  0.00000000000E+00  0.99999998245E-14  0.12500000000E+03  0.12500000000E+03 0.  0.
          5    1    1    0  501    0 -0.57123948817E+02  0.39853694898E+01 -0.24599416692E+02  0.62500000000E+02  0.47000000000E+01 0. -1.
         -5    1    1    0    0  501  0.57123948817E+02 -0.39853694898E+01  0.24599416692E+02  0.62500000000E+02  0.47000000000E+01 0. -1.
</event>
<event>
 3    0  0.4607503E-005  0.9118800E+02  0.7546771E-02  0.1235069E+00
         25   -1    0    0    0    0  0.00000000000E+00  0.00000000000E+00  0.99999998245E-14  0.12500000000E+03  0.12500000000E+03 0.  0.
          5    1    1    0  501    0 -0.55145944830E+02  0.10629328607E+02  0.27020402331E+02  0.62500000000E+02  0.47000000000E+01 0. -1.
         -5    1    1    0    0  501  0.55145944830E+02 -0.10629328607E+02 -0.27020402331E+02  0.62500000000E+02  0.47000000000E+01 0. -1.
</event>
<event>
 3    0  0.4607503E-005  0.9118800E+02  0.7546771E-02  0.1235069E+00
         25   -1    0    0    0    0  0.00000000000E+00  0.00000000000E+00  0.99999998245E-14  0.12500000000E+03  0.12500000000E+03 0.  0.
          5    1    1    0  501    0 -0.49622201683E+02 -0.10056260012E+02 -0.36341006242E+02  0.62500000000E+02  0.47000000000E+01 0.  1.
         -5    1    1    0    0  501  0.49622201683E+02  0.10056260012E+02  0.36341006242E+02  0.62500000000E+02  0.47000000000E+01 0.  1.
</event>
<event>
 3    0  0.4607503E-005  0.9118800E+02  0.7546771E-02  0.1235069E+00
         25   -1    0    0    0    0  0.00000000000E+00  0.00000000000E+00  0.99999998245E-14  0.12500000000E+03  0.12500000000E+03 0.  0.
          5    1    1    0  501    0  0.12932973964E+02  0.21749859535E+01  0.60927560435E+02  0.62500000000E+02  0.47000000000E+01 0. -1.
         -5    1    1    0    0  501 -0.12932973964E+02 -0.21749859535E+01 -0.60927560435E+02  0.62500000000E+02  0.47000000000E+01 0. -1.
</event>
<event>
 3    0  0.4607503E-005  0.9118800E+02  0.7546771E-02  0.1235069E+00
         25   -1    0    0    0    0  0.00000000000E+00  0.00000000000E+00  0.99999998245E-14  0.12500000000E+03  0.12500000000E+03 0.  0.
          5    1    1    0  501    0  0.31323087881E+01 -0.42737799311E+02 -0.45252946332E+02  0.62500000000E+02  0.47000000000E+01 0. -1.
         -5    1    1    0    0  501 -0.31323087881E+01  0.42737799311E+02  0.45252946332E+02  0.62500000000E+02  0.47000000000E+01 0. -1.
</event>
<event>
 3    0  0.4607503E-005  0.9118800E+02  0.7546771E-02  0.1235069E+00
         25   -1    0    0    0    0  0.00000000000E+00  0.00000000000E+00  0.99999998245E-14  0.12500000000E+03  0.12500000000E+03 0.  0.
          5    1    1    0  501    0 -0.48424966426E+02 -0.10911425253E+02  0.37684525015E+02  0.62500000000E+02  0.47000000000E+01 0.  1.
         -5    1    1    0    0  501  0.48424966426E+02  0.10911425253E+02 -0.37684525015E+02  0.62500000000E+02  0.47000000000E+01 0.  1.
</event>
<event>
 3    0  0.4607503E-005  0.9118800E+02  0.7546771E-02  0.1235069E+00
         25   -1    0    0    0    0  0.00000000000E+00  0.00000000000E+00  0.99999998245E-14  0.12500000000E+03  0.12500000000E+03 0.  0.
          5    1    1    0  501    0 -0.42759386763E+00  0.33188080983E+02  0.52749677195E+02  0.62500000000E+02  0.47000000000E+01 0.  1.
         -5    1    1    0    0  501  0.42759386763E+00 -0.33188080983E+02 -0.52749677195E+02  0.62500000000E+02  0.47000000000E+01 0.  1.
</event>
<event>
 3    0  0.4607503E-005  0.9118800E+02  0.7546771E-02  0.1235069E+00
         25   -1    0    0    0    0  0.00000000000E+00  0.00000000000E+00  0.99999998245E-14  0.12500000000E+03  0.12500000000E+03 0.  0.
          5    1    1    0  501    0  0.54441467297E+02  0.58305741429E+01  0.29770640632E+02  0.62500000000E+02  0.47000000000E+01 0.  1.
         -5    1    1    0    0  501 -0.54441467297E+02 -0.58305741429E+01 -0.29770640632E+02  0.62500000000E+02  0.47000000000E+01 0.  1.
</event>
<event>
 3    0  0.4607503E-005  0.9118800E+02  0.7546771E-02  0.1235069E+00
         25   -1    0    0    0    0  0.00000000000E+00  0.00000000000E+00  0.99999998245E-14  0.12500000000E+03  0.12500000000E+03 0.  0.
          5    1    1    0  501    0 -0.55285082351E+02 -0.28081566417E+02 -0.62566202564E+01  0.62500000000E+02  0.47000000000E+01 0.  1.
         -5    1    1    0    0  501  0.55285082351E+02  0.28081566417E+02  0.62566202564E+01  0.62500000000E+02  0.47000000000E+01 0.  1.
</event>
<event>
 3    0  0.4607503E-005  0.9118800E+02  0.7546771E-02  0.1235069E+00
         25   -1    0    0    0    0  0.00000000000E+00  0.00000000000E+00  0.99999998245E-14  0.12500000000E+03  0.12500000000E+03 0.  0.
          5    1    1    0  501    0  0.59538314411E+02  0.17467185422E+02  0.58520552427E+01  0.62500000000E+02  0.47000000000E+01 0. -1.
         -5    1    1    0    0  501 -0.59538314411E+02 -0.17467185422E+02 -0.58520552427E+01  0.62500000000E+02  0.47000000000E+01 0. -1.
</event>
<event>
 3    0  0.4607503E-005  0.9118800E+02  0.7546771E-02  0.1235069E+00
         25   -1    0    0    0    0  0.00000000000E+00  0.00000000000E+00  0.99999998245E-14  0.12500000000E+03  0.12500000000E+03 0.  0.
          5    1    1    0  501    0 -0.36303076440E+01  0.62089686196E+02 -0.39814236807E+01  0.62500000000E+02  0.47000000000E+01 0.  1.
         -5    1    1    0    0  501  0.36303076440E+01 -0.62089686196E+02  0.39814236807E+01  0.62500000000E+02  0.47000000000E+01 0.  1.
</event>
<event>
 3    0  0.4607503E-005  0.9118800E+02  0.7546771E-02  0.1235069E+00
         25   -1    0    0    0    0  0.00000000000E+00  0.00000000000E+00  0.99999998245E-14  0.12500000000E+03  0.12500000000E+03 0.  0.
          5    1    1    0  501    0 -0.27823177520E+02 -0.55296551208E+02 -0.72334097888E+01  0.62500000000E+02  0.47000000000E+01 0. -1.
         -5    1    1    0    0  501  0.27823177520E+02  0.55296551208E+02  0.72334097888E+01  0.62500000000E+02  0.47000000000E+01 0. -1.
</event>
<event>
 3    0  0.4607503E-005  0.9118800E+02  0.7546771E-02  0.1235069E+00
         25   -1    0    0    0    0  0.00000000000E+00  0.00000000000E+00  0.99999998245E-14  0.12500000000E+03  0.12500000000E+03 0.  0.
          5    1    1    0  501    0  0.16588463817E+02 -0.60063732000E+02  0.11536751689E+01  0.62500000000E+02  0.47000000000E+01 0. -1.
         -5    1    1    0    0  501 -0.16588463817E+02  0.60063732000E+02 -0.11536751689E+01  0.62500000000E+02  0.47000000000E+01 0. -1.
</event>
<event>
 3    0  0.4607503E-005  0.9118800E+02  0.7546771E-02  0.1235069E+00
         25   -1    0    0    0    0  0.00000000000E+00  0.00000000000E+00  0.99999998245E-14  0.12500000000E+03  0.12500000000E+03 0.  0.
          5    1    1    0  501    0  0.28400078875E+02  0.41186721492E+02  0.37165165042E+02  0.62500000000E+02  0.47000000000E+01 0.  1.
         -5    1    1    0    0  501 -0.28400078875E+02 -0.41186721492E+02 -0.37165165042E+02  0.62500000000E+02  0.47000000000E+01 0.  1.
</event>
<event>
 3    0  0.4607503E-005  0.9118800E+02  0.7546771E-02  0.1235069E+00
         25   -1    0    0    0    0  0.00000000000E+00  0.00000000000E+00  0.99999998245E-14  0.12500000000E+03  0.12500000000E+03 0.  0.
          5    1    1    0  501    0  0.23254115425E+02 -0.37673536783E+02 -0.43864686732E+02  0.62500000000E+02  0.47000000000E+01 0. -1.
         -5    1    1    0    0  501 -0.23254115425E+02  0.37673536783E+02  0.43864686732E+02  0.62500000000E+02  0.47000000000E+01 0. -1.
</event>
<event>
 3    0  0.4607503E-005  0.9118800E+02  0.7546771E-02  0.1235069E+00
         25   -1    0    0    0    0  0.00000000000E+00  0.00000000000E+00  0.99999998245E-14  0.12500000000E+03  0.12500000000E+03 0.  0.
          5    1    1    0  501    0  0.42764531982E+02  0.20083354360E+02 -0.40644971178E+02  0.62500000000E+02  0.47000000000E+01 0.  1.
         -5    1    1    0    0  501 -0.42764531982E+02 -0.20083354360E+02  0.40644971178E+02  0.62500000000E+02  0.47000000000E+01 0.  1.
</event>
<event>
 3    0  0.4607503E-005  0.9118800E+02  0.7546771E-02  0.1235069E+00
         25   -1    0    0    0    0  0.00000000000E+00  0.00000000000E+00  0.99999998245E-14  0.12500000000E+03  0.12500000000E+03 0.  0.
          5    1    1    0  501    0 -0.63076686332E+01 -0.57675520614E+02 -0.22757584194E+02  0.62500000000E+02  0.47000000000E+01 0. -1.
         -5    1    1    0    0  501  0.63076686332E+01  0.57675520614E+02  0.22757584194E+02  0.62500000000E+02  0.47000000000E+01 0. -1.
</event>
<event>
 3    0  0.4607503E-005  0.9118800E+02  0.7546771E-02  0.1235069E+00
         25   -1    0    0    0    0  0.00000000000E+00  0.00000000000E+00  0.99999998245E-14  0.12500000000E+03  0.12500000000E+03 0.  0.
          5    1    1    0  501    0 -0.37010653886E+02 -0.48790023763E+02 -0.11571736264E+02  0.62500000000E+02  0.47000000000E+01 0.  1.
         -5    1    1    0    0  501  0.37010653886E+02  0.48790023763E+02  0.11571736264E+02  0.62500000000E+02  0.47000000000E+01 0.  1.
</event>
<event>
 3    0  0.4607503E-005  0.9118800E+02  0.7546771E-02  0.1235069E+00
         25   -1    0    0    0    0  0.00000000000E+00  0.00000000000E+00  0.99999998245E-14  0.12500000000E+03  0.12500000000E+03 0.  0.
          5    1    1    0  501    0  0.61444689895E+01 -0.60340011279E+02  0.14334871457E+02  0.62500000000E+02  0.47000000000E+01 0.  1.
         -5    1    1    0    0  501 -0.61444689895E+01  0.60340011279E+02 -0.14334871457E+02  0.62500000000E+02  0.47000000000E+01 0.  1.
</event>
<event>
 3    0  0.4607503E-005  0.9118800E+02  0.7546771E-02  0.1235069E+00
         25   -1    0    0    0    0  0.00000000000E+00  0.00000000000E+00  0.99999998245E-14  0.12500000000E+03  0.12500000000E+03 0.  0.
          5    1    1    0  501    0  0.52010665873E+02  0.34295067243E+02  0.17026445086E+01  0.62500000000E+02  0.47000000000E+01 0.  1.
         -5    1    1    0    0  501 -0.52010665873E+02 -0.34295067243E+02 -0.17026445086E+01  0.62500000000E+02  0.47000000000E+01 0.  1.
</event>
<event>
 3    0  0.4607503E-005  0.9118800E+02  0.7546771E-02  0.1235069E+00
         25   -1    0    0    0    0  0.00000000000E+00  0.00000000000E+00  0.99999998245E-14  0.12500000000E+03  0.12500000000E+03 0.  0.
          5    1    1    0  501    0  0.27415522165E+02 -0.36327045944E+02  0.42578103262E+02  0.62500000000E+02  0.47000000000E+01 0. -1.
         -5    1    1    0    0  501 -0.27415522165E+02  0.36327045944E+02 -0.42578103262E+02  0.62500000000E+02  0.47000000000E+01 0. -1.
</event>
<event>
 3    0  0.4607503E-005  0.9118800E+02  0.7546771E-02  0.1235069E+00
         25   -1    0    0    0    0  0.00000000000E+00  0.00000000000E+00  0.99999998245E-14  0.12500000000E+03  0.12500000000E+03 0.  0.
          5    1    1    0  501    0 -0.60635410003E+01 -0.38947116069E+02  0.48275414245E+02  0.62500000000E+02  0.47000000000E+01 0.  1.
         -5    1    1    0    0  501  0.60635410003E+01  0.38947116069E+02 -0.48275414245E+02  0.62500000000E+02  0.47000000000E+01 0.  1.
</event>
<event>
 3    0  0.4607503E-005  0.9118800E+02  0.7546771E-02  0.1235069E+00
         25   -1    0    0    0    0  0.00000000000E+00  0.00000000000E+00  0.99999998245E-14  0.12500000000E+03  0.12500000000E+03 0.  0.
          5    1    1    0  501    0 -0.44498070597E+02  0.19419646244E+02  0.39076323431E+02  0.62500000000E+02  0.47000000000E+01 0. -1.
         -5    1    1    0    0  501  0.44498070597E+02 -0.19419646244E+02 -0.39076323431E+02  0.62500000000E+02  0.47000000000E+01 0. -1.
</event>
<event>
 3    0  0.4607503E-005  0.9118800E+02  0.7546771E-02  0.1235069E+00
         25   -1    0    0    0    0  0.00000000000E+00  0.00000000000E+00  0.99999998245E-14  0.12500000000E+03  0.12500000000E+03 0.  0.
          5    1    1    0  501    0  0.32827050649E+02 -0.36352923120E+02  0.38535823935E+02  0.62500000000E+02  0.47000000000E+01 0.  1.
         -5    1    1    0    0  501 -0.32827050649E+02  0.36352923120E+02 -0.38535823935E+02  0.62500000000E+02  0.47000000000E+01 0.  1.
</event>
<event>
 3    0  0.4607503E-005  0.9118800E+02  0.7546771E-02  0.1235069E+00
         25   -1    0    0    0    0  0.00000000000E+00  0.00000000000E+00  0.99999998245E-14  0.12500000000E+03  0.12500000000E+03 0.  0.
          5    1    1    0  501    0 -0.13868859755E+01 -0.16043325276E+02 -0.60206712760E+02  0.62500000000E+02  0.47000000000E+01 0.  1.
         -5    1    1    0    0  501  0.13868859755E+01  0.16043325276E+02  0.60206712760E+02  0.62500000000E+02  0.47000000000E+01 0.  1.
</event>
<event>
 3    0  0.4607503E-005  0.9118800E+02  0.7546771E-02  0.1235069E+00
         25   -1    0    0    0    0  0.00000000000E+00  0.00000000000E+00  0.99999998245E-14  0.12500000000E+03  0.12500000000E+03 0.  0.
          5    1    1    0  501    0  0.31587842328E+02 -0.93107340505E+01  0.52911987758E+02  0.62500000000E+02  0.47000000000E+01 0. -1.
         -5    1    1    0    0  501 -0.31587842328E+02  0.93107340505E+01 -0.52911987758E+02  0.62500000000E+02  0.47000000000E+01 0. -1.
</event>
<event>
 3    0  0.4607503E-005  0.9118800E+02  0.7546771E-02  0.1235069E+00
         25   -1    0    0    0    0  0.00000000000E+00  0.00000000000E+00  0.99999998245E-14  0.12500000000E+03  0.12500000000E+03 0.  0.
          5    1    1    0  501    0 -0.21264793887E+02 -0.20574510400E+02  0.54851235745E+02  0.62500000000E+02  0.47000000000E+01 0. -1.
         -5    1    1    0    0  501  0.21264793887E+02  0.20574510400E+02 -0.54851235745E+02  0.62500000000E+02  0.47000000000E+01 0. -1.
</event>
<event>
 3    0  0.4607503E-005  0.9118800E+02  0.7546771E-02  0.1235069E+00
         25   -1    0    0    0    0  0.00000000000E+00  0.00000000000E+00  0.99999998245E-14  0.12500000000E+03  0.12500000000E+03 0.  0.
          5    1    1    0  501    0 -0.26386097579E+02 -0.55390697706E+02 -0.10945522470E+02  0.62500000000E+02  0.47000000000E+01 0.  1.
         -5    1    1    0    0  501  0.26386097579E+02  0.55390697706E+02  0.10945522470E+02  0.62500000000E+02  0.47000000000E+01 0.  1.
</event>
<event>
 3    0  0.4607503E-005  0.9118800E+02  0.7546771E-02  0.1235069E+00
         25   -1    0    0    0    0  0.00000000000E+00  0.00000000000E+00  0.99999998245E-14  0.12500000000E+03  0.12500000000E+03 0.  0.
          5    1    1    0  501    0  0.23638736650E+02 -0.53323488708E+02 -0.21953944557E+02  0.62500000000E+02  0.47000000000E+01 0. -1.
         -5    1    1    0    0  501 -0.23638736650E+02  0.53323488708E+02  0.21953944557E+02  0.62500000000E+02  0.47000000000E+01 0. -1.
</event>
<event>
 3    0  0.4607503E-005  0.9118800E+02  0.7546771E-02  0.1235069E+00
         25   -1    0    0    0    0  0.00000000000E+00  0.00000000000E+00  0.99999998245E-14  0.12500000000E+03  0.12500000000E+03 0.  0.
          5    1    1    0  501    0  0.22143374688E+02 -0.58187768925E+02 -0.28309901030E+01  0.62500000000E+02  0.47000000000E+01 0. -1.
         -5    1    1    0    0  501 -0.22143374688E+02  0.58187768925E+02  0.28309901030E+01  0.62500000000E+02  0.47000000000E+01 0. -1.
</event>
<event>
 3    0  0.4607503E-005  0.9118800E+02  0.7546771E-02  0.1235069E+00
         25   -1    0    0    0    0  0.00000000000E+00  0.00000000000E+00  0.99999998245E-14  0.12500000000E+03  0.12500000000E+03 0.  0.
          5    1    1    0  501    0 -0.53977472604E+02 -0.26545328447E+02  0.16307605248E+02  0.62500000000E+02  0.47000000000E+01 0.  1.
         -5    1    1    0    0  501  0.53977472604E+02  0.26545328447E+02 -0.16307605248E+02  0.62500000000E+02  0.47000000000E+01 0.  1.
</event>
<event>
 3    0  0.4607503E-005  0.9118800E+02  0.7546771E-02  0.1235069E+00
         25   -1    0    0    0    0  0.00000000000E+00  0.00000000000E+00  0.99999998245E-14  0.12500000000E+03  0.12500000000E+03 0.  0.
          5    1    1    0  501    0  0.12846989920E+02  0.51922039654E+02  0.31987757786E+02  0.62500000000E+02  0.47000000000E+01 0.  1.
         -5    1    1    0    0  501 -0.12846989920E+02 -0.51922039654E+02 -0.31987757786E+02  0.62500000000E+02  0.47000000000E+01 0.  1.
</event>
<event>
 3    0  0.4607503E-005  0.9118800E+02  0.7546771E-02  0.1235069E+00
         25   -1    0    0    0    0  0.00000000000E+00  0.00000000000E+00  0.99999998245E-14  0.12500000000E+03  0.12500000000E+03 0.  0.
          5    1    1    0  501    0  0.42276807084E+02 -0.35702552565E+02 -0.28673320754E+02  0.62500000000E+02  0.47000000000E+01 0. -1.
         -5    1    1    0    0  501 -0.42276807084E+02  0.35702552565E+02  0.28673320754E+02  0.62500000000E+02  0.47000000000E+01 0. -1.
</event>
<event>
 3    0  0.4607503E-005  0.9118800E+02  0.7546771E-02  0.1235069E+00
         25   -1    0    0    0    0  0.00000000000E+00  0.00000000000E+00  0.99999998245E-14  0.12500000000E+03  0.12500000000E+03 0.  0.
          5    1    1    0  501    0  0.22314583110E+02 -0.51963423787E+02 -0.26192021094E+02  0.62500000000E+02  0.47000000000E+01 0.  1.
         -5    1    1    0    0  501 -0.22314583110E+02  0.51963423787E+02  0.26192021094E+02  0.62500000000E+02  0.47000000000E+01 0.  1.
</event>
<event>
 3    0  0.4607503E-005  0.9118800E+02  0.7546771E-02  0.1235069E+00
         25   -1    0    0    0    0  0.00000000000E+00  0.00000000000E+00  0.99999998245E-14  0.12500000000E+03  0.12500000000E+03 0.  0.
          5    1    1    0  501    0 -0.31609500126E+02  0.53707030535E+02 -0.74456224970E+00  0.62500000000E+02  0.47000000000E+01 0. -1.
         -5    1    1    0    0  501  0.31609500126E+02 -0.53707030535E+02  0.74456224970E+00  0.62500000000E+02  0.47000000000E+01 0. -1.
</event>
<event>
 3    0  0.4607503E-005  0.9118800E+02  0.7546771E-02  0.1235069E+00
         25   -1    0    0    0    0  0.00000000000E+00  0.00000000000E+00  0.99999998245E-14  0.12500000000E+03  0.12500000000E+03 0.  0.
          5    1    1    0  501    0  0.60173996745E+02 -0.75073824966E+01 -0.14383647792E+02  0.62500000000E+02  0.47000000000E+01 0.  1.
         -5    1    1    0    0  501 -0.60173996745E+02  0.75073824966E+01  0.14383647792E+02  0.62500000000E+02  0.47000000000E+01 0.  1.
</event>
<event>
 3    0  0.4607503E-005  0.9118800E+02  0.7546771E-02  0.1235069E+00
         25   -1    0    0    0    0  0.00000000000E+00  0.00000000000E+00  0.99999998245E-14  0.12500000000E+03  0.12500000000E+03 0.  0.
          5    1    1    0  501    0  0.49924266638E+02  0.10617423312E+02 -0.35763080444E+02  0.62500000000E+02  0.47000000000E+01 0.  1.
         -5    1    1    0    0  501 -0.49924266638E+02 -0.10617423312E+02  0.35763080444E+02  0.62500000000E+02  0.47000000000E+01 0.  1.
</event>
<event>
 3    0  0.4607503E-005  0.9118800E+02  0.7546771E-02  0.1235069E+00
         25   -1    0    0    0    0  0.00000000000E+00  0.00000000000E+00  0.99999998245E-14  0.12500000000E+03  0.12500000000E+03 0.  0.
          5    1    1    0  501    0 -0.57691842442E+02 -0.82772332276E+01 -0.22074843731E+02  0.62500000000E+02  0.47000000000E+01 0. -1.
         -5    1    1    0    0  501  0.57691842442E+02  0.82772332276E+01  0.22074843731E+02  0.62500000000E+02  0.47000000000E+01 0. -1.
</event>
<event>
 3    0  0.4607503E-005  0.9118800E+02  0.7546771E-02  0.1235069E+00
         25   -1    0    0    0    0  0.00000000000E+00  0.00000000000E+00  0.99999998245E-14  0.12500000000E+03  0.12500000000E+03 0.  0.
          5    1    1    0  501    0  0.54491219743E+02 -0.28897872489E+02 -0.89319615127E+01  0.62500000000E+02  0.47000000000E+01 0. -1.
         -5    1    1    0    0  501 -0.54491219743E+02  0.28897872489E+02  0.89319615127E+01  0.62500000000E+02  0.47000000000E+01 0. -1.
</event>
<event>
 3    0  0.4607503E-005  0.9118800E+02  0.7546771E-02  0.1235069E+00
         25   -1    0    0    0    0  0.00000000000E+00  0.00000000000E+00  0.99999998245E-14  0.12500000000E+03  0.12500000000E+03 0.  0.
          5    1    1    0  501    0  0.28469718549E+02 -0.38775536602E+02  0.39624397623E+02  0.62500000000E+02  0.47000000000E+01 0.  1.
         -5    1    1    0    0  501 -0.28469718549E+02  0.38775536602E+02 -0.39624397623E+02  0.62500000000E+02  0.47000000000E+01 0.  1.
</event>
<event>
 3    0  0.4607503E-005  0.9118800E+02  0.7546771E-02  0.1235069E+00
         25   -1    0    0    0    0  0.00000000000E+00  0.00000000000E+00  0.99999998245E-14  0.12500000000E+03  0.12500000000E+03 0.  0.
          5    1    1    0  501    0  0.17920297309E+02  0.55348682287E+02 -0.22350532733E+02  0.62500000000E+02  0.47000000000E+01 0. -1.
         -5    1    1    0    0  501 -0.17920297309E+02 -0.55348682287E+02  0.22350532733E+02  0.62500000000E+02  0.47000000000E+01 0. -1.
</event>
<event>
 3    0  0.4607503E-005  0.9118800E+02  0.7546771E-02  0.1235069E+00
         25   -1    0    0    0    0  0.00000000000E+00  0.00000000000E+00  0.99999998245E-14  0.12500000000E+03  0.12500000000E+03 0.  0.
          5    1    1    0  501    0  0.15798142760E+00 -0.35758047785E+02  0.51044069788E+02  0.62500000000E+02  0.47000000000E+01 0. -1.
         -5    1    1    0    0  501 -0.15798142760E+00  0.35758047785E+02 -0.51044069788E+02  0.62500000000E+02  0.47000000000E+01 0. -1.
</event>
<event>
 3    0  0.4607503E-005  0.9118800E+02  0.7546771E-02  0.1235069E+00
         25   -1    0    0    0    0  0.00000000000E+00  0.00000000000E+00  0.99999998245E-14  0.12500000000E+03  0.12500000000E+03 0.  0.
          5    1    1    0  501    0 -0.46938276924E+02 -0.26450586808E+02  0.31326101208E+02  0.62500000000E+02  0.47000000000E+01 0.  1.
         -5    1    1    0    0  501  0.46938276924E+02  0.26450586808E+02 -0.31326101208E+02  0.62500000000E+02  0.47000000000E+01 0.  1.
</event>
<event>
 3    0  0.4607503E-005  0.9118800E+02  0.7546771E-02  0.1235069E+00
         25   -1    0    0    0    0  0.00000000000E+00  0.00000000000E+00  0.99999998245E-14  0.12500000000E+03  0.12500000000E+03 0.  0.
          5    1    1    0  501    0 -0.34668745251E+02 -0.47761463940E+02  0.20026998404E+02  0.62500000000E+02  0.47000000000E+01 0.  1.
         -5    1    1    0    0  501  0.34668745251E+02  0.47761463940E+02 -0.20026998404E+02  0.62500000000E+02  0.47000000000E+01 0.  1.
</event>
<event>
 3    0  0.4607503E-005  0.9118800E+02  0.7546771E-02  0.1235069E+00
         25   -1    0    0    0    0  0.00000000000E+00  0.00000000000E+00  0.99999998245E-14  0.12500000000E+03  0.12500000000E+03 0.  0.
          5    1    1    0  501    0 -0.32116507780E+02 -0.27290002359E+02 -0.45912369785E+02  0.62500000000E+02  0.47000000000E+01 0.  1.
         -5    1    1    0    0  501  0.32116507780E+02  0.27290002359E+02  0.45912369785E+02  0.62500000000E+02  0.47000000000E+01 0.  1.
</event>
<event>
 3    0  0.4607503E-005  0.9118800E+02  0.7546771E-02  0.1235069E+00
         25   -1    0    0    0    0  0.00000000000E+00  0.00000000000E+00  0.99999998245E-14  0.12500000000E+03  0.12500000000E+03 0.  0.
          5    1    1    0  501    0  0.94356980666E+01  0.12468248538E+02 -0.60329680758E+02  0.62500000000E+02  0.47000000000E+01 0. -1.
         -5    1    1    0    0  501 -0.94356980666E+01 -0.12468248538E+02  0.60329680758E+02  0.62500000000E+02  0.47000000000E+01 0. -1.
</event>
<event>
 3    0  0.4607503E-005  0.9118800E+02  0.7546771E-02  0.1235069E+00
         25   -1    0    0    0    0  0.00000000000E+00  0.00000000000E+00  0.99999998245E-14  0.12500000000E+03  0.12500000000E+03 0.  0.
          5    1    1    0  501    0 -0.25754085203E+02  0.29983393260E+02 -0.48185923505E+02  0.62500000000E+02  0.47000000000E+01 0. -1.
         -5    1    1    0    0  501  0.25754085203E+02 -0.29983393260E+02  0.48185923505E+02  0.62500000000E+02  0.47000000000E+01 0. -1.
</event>
<event>
 3    0  0.4607503E-005  0.9118800E+02  0.7546771E-02  0.1235069E+00
         25   -1    0    0    0    0  0.00000000000E+00  0.00000000000E+00  0.99999998245E-14  0.12500000000E+03  0.12500000000E+03 0.  0.
          5    1    1    0  501    0 -0.14352639260E+02  0.38008538448E+02 -0.47260054499E+02  0.62500000000E+02  0.47000000000E+01 0.  1.
         -5    1    1    0    0  501  0.14352639260E+02 -0.38008538448E+02  0.47260054499E+02  0.62500000000E+02  0.47000000000E+01 0.  1.
</event>
<event>
 3    0  0.4607503E-005  0.9118800E+02  0.7546771E-02  0.1235069E+00
         25   -1    0    0    0    0  0.00000000000E+00  0.00000000000E+00  0.99999998245E-14  0.12500000000E+03  0.12500000000E+03 0.  0.
          5    1    1    0  501    0  0.13877216800E+02  0.23749202773E+01  0.60711964287E+02  0.62500000000E+02  0.47000000000E+01 0. -1.
         -5    1    1    0    0  501 -0.13877216800E+02 -0.23749202773E+01 -0.60711964287E+02  0.62500000000E+02  0.47000000000E+01 0. -1.
</event>
<event>
 3    0  0.4607503E-005  0.9118800E+02  0.7546771E-02  0.1235069E+00
         25   -1    0    0    0    0  0.00000000000E+00  0.00000000000E+00  0.99999998245E-14  0.12500000000E+03  0.12500000000E+03 0.  0.
          5    1    1    0  501    0  0.36093572491E+02 -0.47451641650E+02 -0.18159177558E+02  0.62500000000E+02  0.47000000000E+01 0. -1.
         -5    1    1    0    0  501 -0.36093572491E+02  0.47451641650E+02  0.18159177558E+02  0.62500000000E+02  0.47000000000E+01 0. -1.
</event>
<event>
 3    0  0.4607503E-005  0.9118800E+02  0.7546771E-02  0.1235069E+00
         25   -1    0    0    0    0  0.00000000000E+00  0.00000000000E+00  0.99999998245E-14  0.12500000000E+03  0.12500000000E+03 0.  0.
          5    1    1    0  501    0 -0.22286615716E+02 -0.55683107873E+02  0.16936890432E+02  0.62500000000E+02  0.47000000000E+01 0. -1.
         -5    1    1    0    0  501  0.22286615716E+02  0.55683107873E+02 -0.16936890432E+02  0.62500000000E+02  0.47000000000E+01 0. -1.
</event>
<event>
 3    0  0.4607503E-005  0.9118800E+02  0.7546771E-02  0.1235069E+00
         25   -1    0    0    0    0  0.00000000000E+00  0.00000000000E+00  0.99999998245E-14  0.12500000000E+03  0.12500000000E+03 0.  0.
          5    1    1    0  501    0  0.33686958565E+02  0.50990511273E+02  0.12219516470E+02  0.62500000000E+02  0.47000000000E+01 0. -1.
         -5    1    1    0    0  501 -0.33686958565E+02 -0.50990511273E+02 -0.12219516470E+02  0.62500000000E+02  0.47000000000E+01 0. -1.
</event>
<event>
 3    0  0.4607503E-005  0.9118800E+02  0.7546771E-02  0.1235069E+00
         25   -1    0    0    0    0  0.00000000000E+00  0.00000000000E+00  0.99999998245E-14  0.12500000000E+03  0.12500000000E+03 0.  0.
          5    1    1    0  501    0 -0.61955227491E+02 -0.64448138698E+01 -0.20430762937E+01  0.62500000000E+02  0.47000000000E+01 0.  1.
         -5    1    1    0    0  501  0.61955227491E+02  0.64448138698E+01  0.20430762937E+01  0.62500000000E+02  0.47000000000E+01 0.  1.
</event>
<event>
 3    0  0.4607503E-005  0.9118800E+02  0.7546771E-02  0.1235069E+00
         25   -1    0    0    0    0  0.00000000000E+00  0.00000000000E+00  0.99999998245E-14  0.12500000000E+03  0.12500000000E+03 0.  0.
          5    1    1    0  501    0 -0.37703054360E+02  0.39529753498E+02  0.30000637999E+02  0.62500000000E+02  0.47000000000E+01 0.  1.
         -5    1    1    0    0  501  0.37703054360E+02 -0.39529753498E+02 -0.30000637999E+02  0.62500000000E+02  0.47000000000E+01 0.  1.
</event>
<event>
 3    0  0.4607503E-005  0.9118800E+02  0.7546771E-02  0.1235069E+00
         25   -1    0    0    0    0  0.00000000000E+00  0.00000000000E+00  0.99999998245E-14  0.12500000000E+03  0.12500000000E+03 0.  0.
          5    1    1    0  501    0 -0.58903374429E+02  0.31277972671E+01 -0.20118880812E+02  0.62500000000E+02  0.47000000000E+01 0. -1.
         -5    1    1    0    0  501  0.58903374429E+02 -0.31277972671E+01  0.20118880812E+02  0.62500000000E+02  0.47000000000E+01 0. -1.
</event>
<event>
 3    0  0.4607503E-005  0.9118800E+02  0.7546771E-02  0.1235069E+00
         25   -1    0    0    0    0  0.00000000000E+00  0.00000000000E+00  0.99999998245E-14  0.12500000000E+03  0.12500000000E+03 0.  0.
          5    1    1    0  501    0 -0.36584913053E+02  0.38026517702E+02 -0.33161545325E+02  0.62500000000E+02  0.47000000000E+01 0.  1.
         -5    1    1    0    0  501  0.36584913053E+02 -0.38026517702E+02  0.33161545325E+02  0.62500000000E+02  0.47000000000E+01 0.  1.
</event>
<event>
 3    0  0.4607503E-005  0.9118800E+02  0.7546771E-02  0.1235069E+00
         25   -1    0    0    0    0  0.00000000000E+00  0.00000000000E+00  0.99999998245E-14  0.12500000000E+03  0.12500000000E+03 0.  0.
          5    1    1    0  501    0  0.44977693166E+01  0.41780194960E+02  0.46025486203E+02  0.62500000000E+02  0.47000000000E+01 0.  1.
         -5    1    1    0    0  501 -0.44977693166E+01 -0.41780194960E+02 -0.46025486203E+02  0.62500000000E+02  0.47000000000E+01 0.  1.
</event>
<event>
 3    0  0.4607503E-005  0.9118800E+02  0.7546771E-02  0.1235069E+00
         25   -1    0    0    0    0  0.00000000000E+00  0.00000000000E+00  0.99999998245E-14  0.12500000000E+03  0.12500000000E+03 0.  0.
          5    1    1    0  501    0 -0.24799048692E+02  0.21017230865E+02  0.53173707702E+02  0.62500000000E+02  0.47000000000E+01 0.  1.
         -5    1    1    0    0  501  0.24799048692E+02 -0.21017230865E+02 -0.53173707702E+02  0.62500000000E+02  0.47000000000E+01 0.  1.
</event>
<event>
 3    0  0.4607503E-005  0.9118800E+02  0.7546771E-02  0.1235069E+00
         25   -1    0    0    0    0  0.00000000000E+00  0.00000000000E+00  0.99999998245E-14  0.12500000000E+03  0.12500000000E+03 0.  0.
          5    1    1    0  501    0  0.65385685041E+01  0.61771872818E+02 -0.50638770141E+01  0.62500000000E+02  0.47000000000E+01 0.  1.
         -5    1    1    0    0  501 -0.65385685041E+01 -0.61771872818E+02  0.50638770141E+01  0.62500000000E+02  0.47000000000E+01 0.  1.
</event>
<event>
 3    0  0.4607503E-005  0.9118800E+02  0.7546771E-02  0.1235069E+00
         25   -1    0    0    0    0  0.00000000000E+00  0.00000000000E+00  0.99999998245E-14  0.12500000000E+03  0.12500000000E+03 0.  0.
          5    1    1    0  501    0 -0.37141227585E+02 -0.38670646483E+02 -0.31769015000E+02  0.62500000000E+02  0.47000000000E+01 0.  1.
         -5    1    1    0    0  501  0.37141227585E+02  0.38670646483E+02  0.31769015000E+02  0.62500000000E+02  0.47000000000E+01 0.  1.
</event>
<event>
 3    0  0.4607503E-005  0.9118800E+02  0.7546771E-02  0.1235069E+00
         25   -1    0    0    0    0  0.00000000000E+00  0.00000000000E+00  0.99999998245E-14  0.12500000000E+03  0.12500000000E+03 0.  0.
          5    1    1    0  501    0 -0.31469055000E+02  0.46790117439E+02  0.26543238075E+02  0.62500000000E+02  0.47000000000E+01 0.  1.
         -5    1    1    0    0  501  0.31469055000E+02 -0.46790117439E+02 -0.26543238075E+02  0.62500000000E+02  0.47000000000E+01 0.  1.
</event>
<event>
 3    0  0.4607503E-005  0.9118800E+02  0.7546771E-02  0.1235069E+00
         25   -1    0    0    0    0  0.00000000000E+00  0.00000000000E+00  0.99999998245E-14  0.12500000000E+03  0.12500000000E+03 0.  0.
          5    1    1    0  501    0  0.11237821596E+02 -0.58133277747E+02 -0.19452336213E+02  0.62500000000E+02  0.47000000000E+01 0.  1.
         -5    1    1    0    0  501 -0.11237821596E+02  0.58133277747E+02  0.19452336213E+02  0.62500000000E+02  0.47000000000E+01 0.  1.
</event>
<event>
 3    0  0.4607503E-005  0.9118800E+02  0.7546771E-02  0.1235069E+00
         25   -1    0    0    0    0  0.00000000000E+00  0.00000000000E+00  0.99999998245E-14  0.12500000000E+03  0.12500000000E+03 0.  0.
          5    1    1    0  501    0  0.21099469509E+02  0.52309468901E+02  0.26508335477E+02  0.62500000000E+02  0.47000000000E+01 0. -1.
         -5    1    1    0    0  501 -0.21099469509E+02 -0.52309468901E+02 -0.26508335477E+02  0.62500000000E+02  0.47000000000E+01 0. -1.
</event>
<event>
 3    0  0.4607503E-005  0.9118800E+02  0.7546771E-02  0.1235069E+00
         25   -1    0    0    0    0  0.00000000000E+00  0.00000000000E+00  0.99999998245E-14  0.12500000000E+03  0.12500000000E+03 0.  0.
          5    1    1    0  501    0 -0.20662388016E+02 -0.57202312442E+02  0.13605924180E+02  0.62500000000E+02  0.47000000000E+01 0.  1.
         -5    1    1    0    0  501  0.20662388016E+02  0.57202312442E+02 -0.13605924180E+02  0.62500000000E+02  0.47000000000E+01 0.  1.
</event>
<event>
 3    0  0.4607503E-005  0.9118800E+02  0.7546771E-02  0.1235069E+00
         25   -1    0    0    0    0  0.00000000000E+00  0.00000000000E+00  0.99999998245E-14  0.12500000000E+03  0.12500000000E+03 0.  0.
          5    1    1    0  501    0  0.35555709692E+02  0.30782527716E+02  0.40894834585E+02  0.62500000000E+02  0.47000000000E+01 0.  1.
         -5    1    1    0    0  501 -0.35555709692E+02 -0.30782527716E+02 -0.40894834585E+02  0.62500000000E+02  0.47000000000E+01 0.  1.
</event>
<event>
 3    0  0.4607503E-005  0.9118800E+02  0.7546771E-02  0.1235069E+00
         25   -1    0    0    0    0  0.00000000000E+00  0.00000000000E+00  0.99999998245E-14  0.12500000000E+03  0.12500000000E+03 0.  0.
          5    1    1    0  501    0  0.88489292309E+01 -0.12954277189E+02 -0.60316193132E+02  0.62500000000E+02  0.47000000000E+01 0.  1.
         -5    1    1    0    0  501 -0.88489292309E+01  0.12954277189E+02  0.60316193132E+02  0.62500000000E+02  0.47000000000E+01 0.  1.
</event>
<event>
 3    0  0.4607503E-005  0.9118800E+02  0.7546771E-02  0.1235069E+00
         25   -1    0    0    0    0  0.00000000000E+00  0.00000000000E+00  0.99999998245E-14  0.12500000000E+03  0.12500000000E+03 0.  0.
          5    1    1    0  501    0  0.11189689444E+02  0.60371277429E+02  0.10689233448E+02  0.62500000000E+02  0.47000000000E+01 0.  1.
         -5    1    1    0    0  501 -0.11189689444E+02 -0.60371277429E+02 -0.10689233448E+02  0.62500000000E+02  0.47000000000E+01 0.  1.
</event>
<event>
 3    0  0.4607503E-005  0.9118800E+02  0.7546771E-02  0.1235069E+00
         25   -1    0    0    0    0  0.00000000000E+00  0.00000000000E+00  0.99999998245E-14  0.12500000000E+03  0.12500000000E+03 0.  0.
          5    1    1    0  501    0 -0.50971530905E+02  0.25260420004E+02 -0.25455337720E+02  0.62500000000E+02  0.47000000000E+01 0.  1.
         -5    1    1    0    0  501  0.50971530905E+02 -0.25260420004E+02  0.25455337720E+02  0.62500000000E+02  0.47000000000E+01 0.  1.
</event>
<event>
 3    0  0.4607503E-005  0.9118800E+02  0.7546771E-02  0.1235069E+00
         25   -1    0    0    0    0  0.00000000000E+00  0.00000000000E+00  0.99999998245E-14  0.12500000000E+03  0.12500000000E+03 0.  0.
          5    1    1    0  501    0  0.64368957813E+01 -0.52063995922E+02 -0.33646198913E+02  0.62500000000E+02  0.47000000000E+01 0.  1.
         -5    1    1    0    0  501 -0.64368957813E+01  0.52063995922E+02  0.33646198913E+02  0.62500000000E+02  0.47000000000E+01 0.  1.
</event>
<event>
 3    0  0.4607503E-005  0.9118800E+02  0.7546771E-02  0.1235069E+00
         25   -1    0    0    0    0  0.00000000000E+00  0.00000000000E+00  0.99999998245E-14  0.12500000000E+03  0.12500000000E+03 0.  0.
          5    1    1    0  501    0  0.55977393451E+02 -0.10253188642E+02  0.25407942559E+02  0.62500000000E+02  0.47000000000E+01 0. -1.
         -5    1    1    0    0  501 -0.55977393451E+02  0.10253188642E+02 -0.25407942559E+02  0.62500000000E+02  0.47000000000E+01 0. -1.
</event>
<event>
 3    0  0.4607503E-005  0.9118800E+02  0.7546771E-02  0.1235069E+00
         25   -1    0    0    0    0  0.00000000000E+00  0.00000000000E+00  0.99999998245E-14  0.12500000000E+03  0.12500000000E+03 0.  0.
          5    1    1    0  501    0  0.33699992386E+02  0.18647813388E+02  0.48997240423E+02  0.62500000000E+02  0.47000000000E+01 0. -1.
         -5    1    1    0    0  501 -0.33699992386E+02 -0.18647813388E+02 -0.48997240423E+02  0.62500000000E+02  0.47000000000E+01 0. -1.
</event>
<event>
 3    0  0.4607503E-005  0.9118800E+02  0.7546771E-02  0.1235069E+00
         25   -1    0    0    0    0  0.00000000000E+00  0.00000000000E+00  0.99999998245E-14  0.12500000000E+03  0.12500000000E+03 0.  0.
          5    1    1    0  501    0 -0.48768935255E+02  0.36883406377E+02  0.12056752801E+02  0.62500000000E+02  0.47000000000E+01 0. -1.
         -5    1    1    0    0  501  0.48768935255E+02 -0.36883406377E+02 -0.12056752801E+02  0.62500000000E+02  0.47000000000E+01 0. -1.
</event>
<event>
 3    0  0.4607503E-005  0.9118800E+02  0.7546771E-02  0.1235069E+00
         25   -1    0    0    0    0  0.00000000000E+00  0.00000000000E+00  0.99999998245E-14  0.12500000000E+03  0.12500000000E+03 0.  0.
          5    1    1    0  501    0  0.35175460896E+02 -0.50530503707E+02 -0.96703229445E+01  0.62500000000E+02  0.47000000000E+01 0.  1.
         -5    1    1    0    0  501 -0.35175460896E+02  0.50530503707E+02  0.96703229445E+01  0.62500000000E+02  0.47000000000E+01 0.  1.
</event>
<event>
 3    0  0.4607503E-005  0.9118800E+02  0.7546771E-02  0.1235069E+00
         25   -1    0    0    0    0  0.00000000000E+00  0.00000000000E+00  0.99999998245E-14  0.12500000000E+03  0.12500000000E+03 0.  0.
          5    1    1    0  501    0  0.30360371964E+02 -0.19086586521E+02  0.50971659078E+02  0.62500000000E+02  0.47000000000E+01 0.  1.
         -5    1    1    0    0  501 -0.30360371964E+02  0.19086586521E+02 -0.50971659078E+02  0.62500000000E+02  0.47000000000E+01 0.  1.
</event>
<event>
 3    0  0.4607503E-005  0.9118800E+02  0.7546771E-02  0.1235069E+00
         25   -1    0    0    0    0  0.00000000000E+00  0.00000000000E+00  0.99999998245E-14  0.12500000000E+03  0.12500000000E+03 0.  0.
          5    1    1    0  501    0  0.29042805838E+02  0.32511337266E+02 -0.44538616707E+02  0.62500000000E+02  0.47000000000E+01 0.  1.
         -5    1    1    0    0  501 -0.29042805838E+02 -0.32511337266E+02  0.44538616707E+02  0.62500000000E+02  0.47000000000E+01 0.  1.
</event>
<event>
 3    0  0.4607503E-005  0.9118800E+02  0.7546771E-02  0.1235069E+00
         25   -1    0    0    0    0  0.00000000000E+00  0.00000000000E+00  0.99999998245E-14  0.12500000000E+03  0.12500000000E+03 0.  0.
          5    1    1    0  501    0 -0.34658972533E+02 -0.45362213129E+02  0.25003704586E+02  0.62500000000E+02  0.47000000000E+01 0. -1.
         -5    1    1    0    0  501  0.34658972533E+02  0.45362213129E+02 -0.25003704586E+02  0.62500000000E+02  0.47000000000E+01 0. -1.
</event>
<event>
 3    0  0.4607503E-005  0.9118800E+02  0.7546771E-02  0.1235069E+00
         25   -1    0    0    0    0  0.00000000000E+00  0.00000000000E+00  0.99999998245E-14  0.12500000000E+03  0.12500000000E+03 0.  0.
          5    1    1    0  501    0 -0.38706986489E+02  0.44886717808E+02  0.19264261247E+02  0.62500000000E+02  0.47000000000E+01 0. -1.
         -5    1    1    0    0  501  0.38706986489E+02 -0.44886717808E+02 -0.19264261247E+02  0.62500000000E+02  0.47000000000E+01 0. -1.
</event>
<event>
 3    0  0.4607503E-005  0.9118800E+02  0.7546771E-02  0.1235069E+00
         25   -1    0    0    0    0  0.00000000000E+00  0.00000000000E+00  0.99999998245E-14  0.12500000000E+03  0.12500000000E+03 0.  0.
          5    1    1    0  501    0 -0.58901379640E+02 -0.14765060183E+02  0.14027846388E+02  0.62500000000E+02  0.47000000000E+01 0.  1.
         -5    1    1    0    0  501  0.58901379640E+02  0.14765060183E+02 -0.14027846388E+02  0.62500000000E+02  0.47000000000E+01 0.  1.
</event>
<event>
 3    0  0.4607503E-005  0.9118800E+02  0.7546771E-02  0.1235069E+00
         25   -1    0    0    0    0  0.00000000000E+00  0.00000000000E+00  0.99999998245E-14  0.12500000000E+03  0.12500000000E+03 0.  0.
          5    1    1    0  501    0  0.35443948022E+02 -0.36801395332E+02 -0.35686746143E+02  0.62500000000E+02  0.47000000000E+01 0.  1.
         -5    1    1    0    0  501 -0.35443948022E+02  0.36801395332E+02  0.35686746143E+02  0.62500000000E+02  0.47000000000E+01 0.  1.
</event>
<event>
 3    0  0.4607503E-005  0.9118800E+02  0.7546771E-02  0.1235069E+00
         25   -1    0    0    0    0  0.00000000000E+00  0.00000000000E+00  0.99999998245E-14  0.12500000000E+03  0.12500000000E+03 0.  0.
          5    1    1    0  501    0  0.40458348511E+02 -0.36829532014E+02  0.29847405370E+02  0.62500000000E+02  0.47000000000E+01 0.  1.
         -5    1    1    0    0  501 -0.40458348511E+02  0.36829532014E+02 -0.29847405370E+02  0.62500000000E+02  0.47000000000E+01 0.  1.
</event>
<event>
 3    0  0.4607503E-005  0.9118800E+02  0.7546771E-02  0.1235069E+00
         25   -1    0    0    0    0  0.00000000000E+00  0.00000000000E+00  0.99999998245E-14  0.12500000000E+03  0.12500000000E+03 0.  0.
          5    1    1    0  501    0  0.11915270601E+02  0.19864595727E+02  0.57858311098E+02  0.62500000000E+02  0.47000000000E+01 0.  1.
         -5    1    1    0    0  501 -0.11915270601E+02 -0.19864595727E+02 -0.57858311098E+02  0.62500000000E+02  0.47000000000E+01 0.  1.
</event>
<event>
 3    0  0.4607503E-005  0.9118800E+02  0.7546771E-02  0.1235069E+00
         25   -1    0    0    0    0  0.00000000000E+00  0.00000000000E+00  0.99999998245E-14  0.12500000000E+03  0.12500000000E+03 0.  0.
          5    1    1    0  501    0 -0.36429813852E+02  0.50342123619E+02 -0.47643732286E+01  0.62500000000E+02  0.47000000000E+01 0. -1.
         -5    1    1    0    0  501  0.36429813852E+02 -0.50342123619E+02  0.47643732286E+01  0.62500000000E+02  0.47000000000E+01 0. -1.
</event>
<event>
 3    0  0.4607503E-005  0.9118800E+02  0.7546771E-02  0.1235069E+00
         25   -1    0    0    0    0  0.00000000000E+00  0.00000000000E+00  0.99999998245E-14  0.12500000000E+03  0.12500000000E+03 0.  0.
          5    1    1    0  501    0  0.51139199214E+02  0.35621398028E+02 -0.24146704332E+00  0.62500000000E+02  0.47000000000E+01 0.  1.
         -5    1    1    0    0  501 -0.51139199214E+02 -0.35621398028E+02  0.24146704332E+00  0.62500000000E+02  0.47000000000E+01 0.  1.
</event>
<event>
 3    0  0.4607503E-005  0.9118800E+02  0.7546771E-02  0.1235069E+00
         25   -1    0    0    0    0  0.00000000000E+00  0.00000000000E+00  0.99999998245E-14  0.12500000000E+03  0.12500000000E+03 0.  0.
          5    1    1    0  501    0  0.53838607108E+01  0.62047478459E+02 -0.22987954851E+01  0.62500000000E+02  0.47000000000E+01 0.  1.
         -5    1    1    0    0  501 -0.53838607108E+01 -0.62047478459E+02  0.22987954851E+01  0.62500000000E+02  0.47000000000E+01 0.  1.
</event>
<event>
 3    0  0.4607503E-005  0.9118800E+02  0.7546771E-02  0.1235069E+00
         25   -1    0    0    0    0  0.00000000000E+00  0.00000000000E+00  0.99999998245E-14  0.12500000000E+03  0.12500000000E+03 0.  0.
          5    1    1    0  501    0 -0.59152985524E+02  0.10835108937E+01 -0.19593629264E+02  0.62500000000E+02  0.47000000000E+01 0. -1.
         -5    1    1    0    0  501  0.59152985524E+02 -0.10835108937E+01  0.19593629264E+02  0.62500000000E+02  0.47000000000E+01 0. -1.
</event>
<event>
 3    0  0.4607503E-005  0.9118800E+02  0.7546771E-02  0.1235069E+00
         25   -1    0    0    0    0  0.00000000000E+00  0.00000000000E+00  0.99999998245E-14  0.12500000000E+03  0.12500000000E+03 0.  0.
          5    1    1    0  501    0  0.72122041431E+01 -0.25842819065E+02 -0.56252047200E+02  0.62500000000E+02  0.47000000000E+01 0.  1.
         -5    1    1    0    0  501 -0.72122041431E+01  0.25842819065E+02  0.56252047200E+02  0.62500000000E+02  0.47000000000E+01 0.  1.
</event>
<event>
 3    0  0.4607503E-005  0.9118800E+02  0.7546771E-02  0.1235069E+00
         25   -1    0    0    0    0  0.00000000000E+00  0.00000000000E+00  0.99999998245E-14  0.12500000000E+03  0.12500000000E+03 0.  0.
          5    1    1    0  501    0  0.93804153411E+01  0.36278148766E+02 -0.49800238254E+02  0.62500000000E+02  0.47000000000E+01 0.  1.
         -5    1    1    0    0  501 -0.93804153411E+01 -0.36278148766E+02  0.49800238254E+02  0.62500000000E+02  0.47000000000E+01 0.  1.
</event>
<event>
 3    0  0.4607503E-005  0.9118800E+02  0.7546771E-02  0.1235069E+00
         25   -1    0    0    0    0  0.00000000000E+00  0.00000000000E+00  0.99999998245E-14  0.12500000000E+03  0.12500000000E+03 0.  0.
          5    1    1    0  501    0 -0.10747949506E+02 -0.17263155361E+02 -0.58912011071E+02  0.62500000000E+02  0.47000000000E+01 0. -1.
         -5    1    1    0    0  501  0.10747949506E+02  0.17263155361E+02  0.58912011071E+02  0.62500000000E+02  0.47000000000E+01 0. -1.
</event>
<event>
 3    0  0.4607503E-005  0.9118800E+02  0.7546771E-02  0.1235069E+00
         25   -1    0    0    0    0  0.00000000000E+00  0.00000000000E+00  0.99999998245E-14  0.12500000000E+03  0.12500000000E+03 0.  0.
          5    1    1    0  501    0 -0.26051343984E+02  0.21240725038E+02 -0.52481607031E+02  0.62500000000E+02  0.47000000000E+01 0.  1.
         -5    1    1    0    0  501  0.26051343984E+02 -0.21240725038E+02  0.52481607031E+02  0.62500000000E+02  0.47000000000E+01 0.  1.
</event>
<event>
 3    0  0.4607503E-005  0.9118800E+02  0.7546771E-02  0.1235069E+00
         25   -1    0    0    0    0  0.00000000000E+00  0.00000000000E+00  0.99999998245E-14  0.12500000000E+03  0.12500000000E+03 0.  0.
          5    1    1    0  501    0  0.99620158279E+01  0.25332560912E+02 -0.56064066908E+02  0.62500000000E+02  0.47000000000E+01 0.  1.
         -5    1    1    0    0  501 -0.99620158279E+01 -0.25332560912E+02  0.56064066908E+02  0.62500000000E+02  0.47000000000E+01 0.  1.
</event>
<event>
 3    0  0.4607503E-005  0.9118800E+02  0.7546771E-02  0.1235069E+00
         25   -1    0    0    0    0  0.00000000000E+00  0.00000000000E+00  0.99999998245E-14  0.12500000000E+03  0.12500000000E+03 0.  0.
          5    1    1    0  501    0 -0.59239489491E+02  0.17978235960E+02  0.71851177204E+01  0.62500000000E+02  0.47000000000E+01 0. -1.
         -5    1    1    0    0  501  0.59239489491E+02 -0.17978235960E+02 -0.71851177204E+01  0.62500000000E+02  0.47000000000E+01 0. -1.
</event>
<event>
 3    0  0.4607503E-005  0.9118800E+02  0.7546771E-02  0.1235069E+00
         25   -1    0    0    0    0  0.00000000000E+00  0.00000000000E+00  0.99999998245E-14  0.12500000000E+03  0.12500000000E+03 0.  0.
          5    1    1    0  501    0 -0.88133422195E+01 -0.19592592487E+02  0.58503122298E+02  0.62500000000E+02  0.47000000000E+01 0. -1.
         -5    1    1    0    0  501  0.88133422195E+01  0.19592592487E+02 -0.58503122298E+02  0.62500000000E+02  0.47000000000E+01 0. -1.
</event>
<event>
 3    0  0.4607503E-005  0.9118800E+02  0.7546771E-02  0.1235069E+00
         25   -1    0    0    0    0  0.00000000000E+00  0.00000000000E+00  0.99999998245E-14  0.12500000000E+03  0.12500000000E+03 0.  0.
          5    1    1    0  501    0  0.28098232725E+02 -0.55561082085E+02 -0.27596150532E+01  0.62500000000E+02  0.47000000000E+01 0. -1.
         -5    1    1    0    0  501 -0.28098232725E+02  0.55561082085E+02  0.27596150532E+01  0.62500000000E+02  0.47000000000E+01 0. -1.
</event>
<event>
 3    0  0.4607503E-005  0.9118800E+02  0.7546771E-02  0.1235069E+00
         25   -1    0    0    0    0  0.00000000000E+00  0.00000000000E+00  0.99999998245E-14  0.12500000000E+03  0.12500000000E+03 0.  0.
          5    1    1    0  501    0 -0.48103075019E+02 -0.91325076493E+01  0.38559713144E+02  0.62500000000E+02  0.47000000000E+01 0.  1.
         -5    1    1    0    0  501  0.48103075019E+02  0.91325076493E+01 -0.38559713144E+02  0.62500000000E+02  0.47000000000E+01 0.  1.
</event>
<event>
 3    0  0.4607503E-005  0.9118800E+02  0.7546771E-02  0.1235069E+00
         25   -1    0    0    0    0  0.00000000000E+00  0.00000000000E+00  0.99999998245E-14  0.12500000000E+03  0.12500000000E+03 0.  0.
          5    1    1    0  501    0 -0.95624890978E+01  0.18101166411E+02  0.58864816120E+02  0.62500000000E+02  0.47000000000E+01 0. -1.
         -5    1    1    0    0  501  0.95624890978E+01 -0.18101166411E+02 -0.58864816120E+02  0.62500000000E+02  0.47000000000E+01 0. -1.
</event>
<event>
 3    0  0.4607503E-005  0.9118800E+02  0.7546771E-02  0.1235069E+00
         25   -1    0    0    0    0  0.00000000000E+00  0.00000000000E+00  0.99999998245E-14  0.12500000000E+03  0.12500000000E+03 0.  0.
          5    1    1    0  501    0 -0.41160777556E+02  0.45763825767E+02  0.97786830489E+01  0.62500000000E+02  0.47000000000E+01 0. -1.
         -5    1    1    0    0  501  0.41160777556E+02 -0.45763825767E+02 -0.97786830489E+01  0.62500000000E+02  0.47000000000E+01 0. -1.
</event>
<event>
 3    0  0.4607503E-005  0.9118800E+02  0.7546771E-02  0.1235069E+00
         25   -1    0    0    0    0  0.00000000000E+00  0.00000000000E+00  0.99999998245E-14  0.12500000000E+03  0.12500000000E+03 0.  0.
          5    1    1    0  501    0 -0.34824834255E+02 -0.21195060546E+02  0.47139795583E+02  0.62500000000E+02  0.47000000000E+01 0.  1.
         -5    1    1    0    0  501  0.34824834255E+02  0.21195060546E+02 -0.47139795583E+02  0.62500000000E+02  0.47000000000E+01 0.  1.
</event>
<event>
 3    0  0.4607503E-005  0.9118800E+02  0.7546771E-02  0.1235069E+00
         25   -1    0    0    0    0  0.00000000000E+00  0.00000000000E+00  0.99999998245E-14  0.12500000000E+03  0.12500000000E+03 0.  0.
          5    1    1    0  501    0  0.13095805180E+02 -0.49840336914E+02 -0.35051400870E+02  0.62500000000E+02  0.47000000000E+01 0.  1.
         -5    1    1    0    0  501 -0.13095805180E+02  0.49840336914E+02  0.35051400870E+02  0.62500000000E+02  0.47000000000E+01 0.  1.
</event>
<event>
 3    0  0.4607503E-005  0.9118800E+02  0.7546771E-02  0.1235069E+00
         25   -1    0    0    0    0  0.00000000000E+00  0.00000000000E+00  0.99999998245E-14  0.12500000000E+03  0.12500000000E+03 0.  0.
          5    1    1    0  501    0 -0.50165313698E+01 -0.52854568736E+02 -0.32640296824E+02  0.62500000000E+02  0.47000000000E+01 0.  1.
         -5    1    1    0    0  501  0.50165313698E+01  0.52854568736E+02  0.32640296824E+02  0.62500000000E+02  0.47000000000E+01 0.  1.
</event>
<event>
 3    0  0.4607503E-005  0.9118800E+02  0.7546771E-02  0.1235069E+00
         25   -1    0    0    0    0  0.00000000000E+00  0.00000000000E+00  0.99999998245E-14  0.12500000000E+03  0.12500000000E+03 0.  0.
          5    1    1    0  501    0 -0.44968003186E+02 -0.43132554485E+02 -0.12733550378E+01  0.62500000000E+02  0.47000000000E+01 0. -1.
         -5    1    1    0    0  501  0.44968003186E+02  0.43132554485E+02  0.12733550378E+01  0.62500000000E+02  0.47000000000E+01 0. -1.
</event>
<event>
 3    0  0.4607503E-005  0.9118800E+02  0.7546771E-02  0.1235069E+00
         25   -1    0    0    0    0  0.00000000000E+00  0.00000000000E+00  0.99999998245E-14  0.12500000000E+03  0.12500000000E+03 0.  0.
          5    1    1    0  501    0 -0.48704485120E+02 -0.25892314771E+02 -0.29010707765E+02  0.62500000000E+02  0.47000000000E+01 0. -1.
         -5    1    1    0    0  501  0.48704485120E+02  0.25892314771E+02  0.29010707765E+02  0.62500000000E+02  0.47000000000E+01 0. -1.
</event>
<event>
 3    0  0.4607503E-005  0.9118800E+02  0.7546771E-02  0.1235069E+00
         25   -1    0    0    0    0  0.00000000000E+00  0.00000000000E+00  0.99999998245E-14  0.12500000000E+03  0.12500000000E+03 0.  0.
          5    1    1    0  501    0 -0.57351947593E+02 -0.23277330343E+02  0.72856021991E+01  0.62500000000E+02  0.47000000000E+01 0.  1.
         -5    1    1    0    0  501  0.57351947593E+02  0.23277330343E+02 -0.72856021991E+01  0.62500000000E+02  0.47000000000E+01 0.  1.
</event>
<event>
 3    0  0.4607503E-005  0.9118800E+02  0.7546771E-02  0.1235069E+00
         25   -1    0    0    0    0  0.00000000000E+00  0.00000000000E+00  0.99999998245E-14  0.12500000000E+03  0.12500000000E+03 0.  0.
          5    1    1    0  501    0  0.94845250877E+01 -0.39717615096E+02  0.47082001178E+02  0.62500000000E+02  0.47000000000E+01 0.  1.
         -5    1    1    0    0  501 -0.94845250877E+01  0.39717615096E+02 -0.47082001178E+02  0.62500000000E+02  0.47000000000E+01 0.  1.
</event>
<event>
 3    0  0.4607503E-005  0.9118800E+02  0.7546771E-02  0.1235069E+00
         25   -1    0    0    0    0  0.00000000000E+00  0.00000000000E+00  0.99999998245E-14  0.12500000000E+03  0.12500000000E+03 0.  0.
          5    1    1    0  501    0  0.59659126268E+02  0.12123820693E+02 -0.13340225814E+02  0.62500000000E+02  0.47000000000E+01 0.  1.
         -5    1    1    0    0  501 -0.59659126268E+02 -0.12123820693E+02  0.13340225814E+02  0.62500000000E+02  0.47000000000E+01 0.  1.
</event>
<event>
 3    0  0.4607503E-005  0.9118800E+02  0.7546771E-02  0.1235069E+00
         25   -1    0    0    0    0  0.00000000000E+00  0.00000000000E+00  0.99999998245E-14  0.12500000000E+03  0.12500000000E+03 0.  0.
          5    1    1    0  501    0 -0.17588813305E+02 -0.57649457260E+02  0.15853508260E+02  0.62500000000E+02  0.47000000000E+01 0. -1.
         -5    1    1    0    0  501  0.17588813305E+02  0.57649457260E+02 -0.15853508260E+02  0.62500000000E+02  0.47000000000E+01 0. -1.
</event>
<event>
 3    0  0.4607503E-005  0.9118800E+02  0.7546771E-02  0.1235069E+00
         25   -1    0    0    0    0  0.00000000000E+00  0.00000000000E+00  0.99999998245E-14  0.12500000000E+03  0.12500000000E+03 0.  0.
          5    1    1    0  501    0 -0.47897128167E+02 -0.44213690387E+01 -0.39629239321E+02  0.62500000000E+02  0.47000000000E+01 0.  1.
         -5    1    1    0    0  501  0.47897128167E+02  0.44213690387E+01  0.39629239321E+02  0.62500000000E+02  0.47000000000E+01 0.  1.
</event>
<event>
 3    0  0.4607503E-005  0.9118800E+02  0.7546771E-02  0.1235069E+00
         25   -1    0    0    0    0  0.00000000000E+00  0.00000000000E+00  0.99999998245E-14  0.12500000000E+03  0.12500000000E+03 0.  0.
          5    1    1    0  501    0  0.55310900035E+02  0.24002135309E+02 -0.15772185578E+02  0.62500000000E+02  0.47000000000E+01 0.  1.
         -5    1    1    0    0  501 -0.55310900035E+02 -0.24002135309E+02  0.15772185578E+02  0.62500000000E+02  0.47000000000E+01 0.  1.
</event>
<event>
 3    0  0.4607503E-005  0.9118800E+02  0.7546771E-02  0.1235069E+00
         25   -1    0    0    0    0  0.00000000000E+00  0.00000000000E+00  0.99999998245E-14  0.12500000000E+03  0.12500000000E+03 0.  0.
          5    1    1    0  501    0  0.21226319122E+01  0.54548535519E+02 -0.30068450350E+02  0.62500000000E+02  0.47000000000E+01 0. -1.
         -5    1    1    0    0  501 -0.21226319122E+01 -0.54548535519E+02  0.30068450350E+02  0.62500000000E+02  0.47000000000E+01 0. -1.
</event>
<event>
 3    0  0.4607503E-005  0.9118800E+02  0.7546771E-02  0.1235069E+00
         25   -1    0    0    0    0  0.00000000000E+00  0.00000000000E+00  0.99999998245E-14  0.12500000000E+03  0.12500000000E+03 0.  0.
          5    1    1    0  501    0  0.31835760527E+02 -0.53182579753E+02 -0.65005817005E+01  0.62500000000E+02  0.47000000000E+01 0.  1.
         -5    1    1    0    0  501 -0.31835760527E+02  0.53182579753E+02  0.65005817005E+01  0.62500000000E+02  0.47000000000E+01 0.  1.
</event>
<event>
 3    0  0.4607503E-005  0.9118800E+02  0.7546771E-02  0.1235069E+00
         25   -1    0    0    0    0  0.00000000000E+00  0.00000000000E+00  0.99999998245E-14  0.12500000000E+03  0.12500000000E+03 0.  0.
          5    1    1    0  501    0 -0.34497717273E+02  0.13040023093E+02 -0.50239678549E+02  0.62500000000E+02  0.47000000000E+01 0. -1.
         -5    1    1    0    0  501  0.34497717273E+02 -0.13040023093E+02  0.50239678549E+02  0.62500000000E+02  0.47000000000E+01 0. -1.
</event>
<event>
 3    0  0.4607503E-005  0.9118800E+02  0.7546771E-02  0.1235069E+00
         25   -1    0    0    0    0  0.00000000000E+00  0.00000000000E+00  0.99999998245E-14  0.12500000000E+03  0.12500000000E+03 0.  0.
          5    1    1    0  501    0 -0.36753361358E+02  0.47518483645E+02 -0.16593496950E+02  0.62500000000E+02  0.47000000000E+01 0. -1.
         -5    1    1    0    0  501  0.36753361358E+02 -0.47518483645E+02  0.16593496950E+02  0.62500000000E+02  0.47000000000E+01 0. -1.
</event>
<event>
 3    0  0.4607503E-005  0.9118800E+02  0.7546771E-02  0.1235069E+00
         25   -1    0    0    0    0  0.00000000000E+00  0.00000000000E+00  0.99999998245E-14  0.12500000000E+03  0.12500000000E+03 0.  0.
          5    1    1    0  501    0  0.17598915310E+02 -0.50369087086E+02  0.32208589631E+02  0.62500000000E+02  0.47000000000E+01 0.  1.
         -5    1    1    0    0  501 -0.17598915310E+02  0.50369087086E+02 -0.32208589631E+02  0.62500000000E+02  0.47000000000E+01 0.  1.
</event>
<event>
 3    0  0.4607503E-005  0.9118800E+02  0.7546771E-02  0.1235069E+00
         25   -1    0    0    0    0  0.00000000000E+00  0.00000000000E+00  0.99999998245E-14  0.12500000000E+03  0.12500000000E+03 0.  0.
          5    1    1    0  501    0 -0.29520903298E+02 -0.33351394928E+01 -0.54786431833E+02  0.62500000000E+02  0.47000000000E+01 0. -1.
         -5    1    1    0    0  501  0.29520903298E+02  0.33351394928E+01  0.54786431833E+02  0.62500000000E+02  0.47000000000E+01 0. -1.
</event>
<event>
 3    0  0.4607503E-005  0.9118800E+02  0.7546771E-02  0.1235069E+00
         25   -1    0    0    0    0  0.00000000000E+00  0.00000000000E+00  0.99999998245E-14  0.12500000000E+03  0.12500000000E+03 0.  0.
          5    1    1    0  501    0 -0.18702583556E+02  0.30573377554E+02  0.50986684078E+02  0.62500000000E+02  0.47000000000E+01 0. -1.
         -5    1    1    0    0  501  0.18702583556E+02 -0.30573377554E+02 -0.50986684078E+02  0.62500000000E+02  0.47000000000E+01 0. -1.
</event>
<event>
 3    0  0.4607503E-005  0.9118800E+02  0.7546771E-02  0.1235069E+00
         25   -1    0    0    0    0  0.00000000000E+00  0.00000000000E+00  0.99999998245E-14  0.12500000000E+03  0.12500000000E+03 0.  0.
          5    1    1    0  501    0 -0.21953720333E+02  0.50228290621E+02 -0.29653212050E+02  0.62500000000E+02  0.47000000000E+01 0. -1.
         -5    1    1    0    0  501  0.21953720333E+02 -0.50228290621E+02  0.29653212050E+02  0.62500000000E+02  0.47000000000E+01 0. -1.
</event>
<event>
 3    0  0.4607503E-005  0.9118800E+02  0.7546771E-02  0.1235069E+00
         25   -1    0    0    0    0  0.00000000000E+00  0.00000000000E+00  0.99999998245E-14  0.12500000000E+03  0.12500000000E+03 0.  0.
          5    1    1    0  501    0  0.13009261417E+02 -0.58024870756E+02  0.18655655741E+02  0.62500000000E+02  0.47000000000E+01 0. -1.
         -5    1    1    0    0  501 -0.13009261417E+02  0.58024870756E+02 -0.18655655741E+02  0.62500000000E+02  0.47000000000E+01 0. -1.
</event>
<event>
 3    0  0.4607503E-005  0.9118800E+02  0.7546771E-02  0.1235069E+00
         25   -1    0    0    0    0  0.00000000000E+00  0.00000000000E+00  0.99999998245E-14  0.12500000000E+03  0.12500000000E+03 0.  0.
          5    1    1    0  501    0 -0.19578555134E+02 -0.46349174251E+02  0.36777632131E+02  0.62500000000E+02  0.47000000000E+01 0. -1.
         -5    1    1    0    0  501  0.19578555134E+02  0.46349174251E+02 -0.36777632131E+02  0.62500000000E+02  0.47000000000E+01 0. -1.
</event>
<event>
 3    0  0.4607503E-005  0.9118800E+02  0.7546771E-02  0.1235069E+00
         25   -1    0    0    0    0  0.00000000000E+00  0.00000000000E+00  0.99999998245E-14  0.12500000000E+03  0.12500000000E+03 0.  0.
          5    1    1    0  501    0 -0.12249286157E+02  0.17504261873E+02  0.58546697643E+02  0.62500000000E+02  0.47000000000E+01 0. -1.
         -5    1    1    0    0  501  0.12249286157E+02 -0.17504261873E+02 -0.58546697643E+02  0.62500000000E+02  0.47000000000E+01 0. -1.
</event>
<event>
 3    0  0.4607503E-005  0.9118800E+02  0.7546771E-02  0.1235069E+00
         25   -1    0    0    0    0  0.00000000000E+00  0.00000000000E+00  0.99999998245E-14  0.12500000000E+03  0.12500000000E+03 0.  0.
          5    1    1    0  501    0 -0.17606334567E+01 -0.62736092973E+01  0.61981464941E+02  0.62500000000E+02  0.47000000000E+01 0. -1.
         -5    1    1    0    0  501  0.17606334567E+01  0.62736092973E+01 -0.61981464941E+02  0.62500000000E+02  0.47000000000E+01 0. -1.
</event>
<event>
 3    0  0.4607503E-005  0.9118800E+02  0.7546771E-02  0.1235069E+00
         25   -1    0    0    0    0  0.00000000000E+00  0.00000000000E+00  0.99999998245E-14  0.12500000000E+03  0.12500000000E+03 0.  0.
          5    1    1    0  501    0  0.35264116730E+02  0.26890897328E+02  0.43789059275E+02  0.62500000000E+02  0.47000000000E+01 0. -1.
         -5    1    1    0    0  501 -0.35264116730E+02 -0.26890897328E+02 -0.43789059275E+02  0.62500000000E+02  0.47000000000E+01 0. -1.
</event>
<event>
 3    0  0.4607503E-005  0.9118800E+02  0.7546771E-02  0.1235069E+00
         25   -1    0    0    0    0  0.00000000000E+00  0.00000000000E+00  0.99999998245E-14  0.12500000000E+03  0.12500000000E+03 0.  0.
          5    1    1    0  501    0  0.57432354150E+02  0.10260835437E+02 -0.21918028033E+02  0.62500000000E+02  0.47000000000E+01 0.  1.
         -5    1    1    0    0  501 -0.57432354150E+02 -0.10260835437E+02  0.21918028033E+02  0.62500000000E+02  0.47000000000E+01 0.  1.
</event>
<event>
 3    0  0.4607503E-005  0.9118800E+02  0.7546771E-02  0.1235069E+00
         25   -1    0    0    0    0  0.00000000000E+00  0.00000000000E+00  0.99999998245E-14  0.12500000000E+03  0.12500000000E+03 0.  0.
          5    1    1    0  501    0 -0.53092271724E+01 -0.54299146647E+02  0.30125981814E+02  0.62500000000E+02  0.47000000000E+01 0. -1.
         -5    1    1    0    0  501  0.53092271724E+01  0.54299146647E+02 -0.30125981814E+02  0.62500000000E+02  0.47000000000E+01 0. -1.
</event>
<event>
 3    0  0.4607503E-005  0.9118800E+02  0.7546771E-02  0.1235069E+00
         25   -1    0    0    0    0  0.00000000000E+00  0.00000000000E+00  0.99999998245E-14  0.12500000000E+03  0.12500000000E+03 0.  0.
          5    1    1    0  501    0  0.50737858317E+02  0.35700567456E+02 -0.59413143943E+01  0.62500000000E+02  0.47000000000E+01 0. -1.
         -5    1    1    0    0  501 -0.50737858317E+02 -0.35700567456E+02  0.59413143943E+01  0.62500000000E+02  0.47000000000E+01 0. -1.
</event>
<event>
 3    0  0.4607503E-005  0.9118800E+02  0.7546771E-02  0.1235069E+00
         25   -1    0    0    0    0  0.00000000000E+00  0.00000000000E+00  0.99999998245E-14  0.12500000000E+03  0.12500000000E+03 0.  0.
          5    1    1    0  501    0  0.61221814684E+02 -0.18580178057E+01  0.11515084743E+02  0.62500000000E+02  0.47000000000E+01 0.  1.
         -5    1    1    0    0  501 -0.61221814684E+02  0.18580178057E+01 -0.11515084743E+02  0.62500000000E+02  0.47000000000E+01 0.  1.
</event>
<event>
 3    0  0.4607503E-005  0.9118800E+02  0.7546771E-02  0.1235069E+00
         25   -1    0    0    0    0  0.00000000000E+00  0.00000000000E+00  0.99999998245E-14  0.12500000000E+03  0.12500000000E+03 0.  0.
          5    1    1    0  501    0 -0.45024578565E+01  0.60134534742E+02 -0.15739301275E+02  0.62500000000E+02  0.47000000000E+01 0. -1.
         -5    1    1    0    0  501  0.45024578565E+01 -0.60134534742E+02  0.15739301275E+02  0.62500000000E+02  0.47000000000E+01 0. -1.
</event>
<event>
 3    0  0.4607503E-005  0.9118800E+02  0.7546771E-02  0.1235069E+00
         25   -1    0    0    0    0  0.00000000000E+00  0.00000000000E+00  0.99999998245E-14  0.12500000000E+03  0.12500000000E+03 0.  0.
          5    1    1    0  501    0  0.27973735440E+02 -0.42399289070E+02  0.36109976625E+02  0.62500000000E+02  0.47000000000E+01 0. -1.
         -5    1    1    0    0  501 -0.27973735440E+02  0.42399289070E+02 -0.36109976625E+02  0.62500000000E+02  0.47000000000E+01 0. -1.
</event>
<event>
 3    0  0.4607503E-005  0.9118800E+02  0.7546771E-02  0.1235069E+00
         25   -1    0    0    0    0  0.00000000000E+00  0.00000000000E+00  0.99999998245E-14  0.12500000000E+03  0.12500000000E+03 0.  0.
          5    1    1    0  501    0  0.56024885358E+02 -0.24983073549E+02  0.11009916291E+02  0.62500000000E+02  0.47000000000E+01 0.  1.
         -5    1    1    0    0  501 -0.56024885358E+02  0.24983073549E+02 -0.11009916291E+02  0.62500000000E+02  0.47000000000E+01 0.  1.
</event>
<event>
 3    0  0.4607503E-005  0.9118800E+02  0.7546771E-02  0.1235069E+00
         25   -1    0    0    0    0  0.00000000000E+00  0.00000000000E+00  0.99999998245E-14  0.12500000000E+03  0.12500000000E+03 0.  0.
          5    1    1    0  501    0  0.17588234932E+02 -0.40511663011E+02  0.43972936586E+02  0.62500000000E+02  0.47000000000E+01 0. -1.
         -5    1    1    0    0  501 -0.17588234932E+02  0.40511663011E+02 -0.43972936586E+02  0.62500000000E+02  0.47000000000E+01 0. -1.
</event>
<event>
 3    0  0.4607503E-005  0.9118800E+02  0.7546771E-02  0.1235069E+00
         25   -1    0    0    0    0  0.00000000000E+00  0.00000000000E+00  0.99999998245E-14  0.12500000000E+03  0.12500000000E+03 0.  0.
          5    1    1    0  501    0 -0.49454393224E+02  0.29778304911E+02 -0.23487774426E+02  0.62500000000E+02  0.47000000000E+01 0.  1.
         -5    1    1    0    0  501  0.49454393224E+02 -0.29778304911E+02  0.23487774426E+02  0.62500000000E+02  0.47000000000E+01 0.  1.
</event>
<event>
 3    0  0.4607503E-005  0.9118800E+02  0.7546771E-02  0.1235069E+00
         25   -1    0    0    0    0  0.00000000000E+00  0.00000000000E+00  0.99999998245E-14  0.12500000000E+03  0.12500000000E+03 0.  0.
          5    1    1    0  501    0 -0.51887604467E+02 -0.54448654843E+01 -0.34090907036E+02  0.62500000000E+02  0.47000000000E+01 0. -1.
         -5    1    1    0    0  501  0.51887604467E+02  0.54448654843E+01  0.34090907036E+02  0.62500000000E+02  0.47000000000E+01 0. -1.
</event>
<event>
 3    0  0.4607503E-005  0.9118800E+02  0.7546771E-02  0.1235069E+00
         25   -1    0    0    0    0  0.00000000000E+00  0.00000000000E+00  0.99999998245E-14  0.12500000000E+03  0.12500000000E+03 0.  0.
          5    1    1    0  501    0 -0.53033515714E+02  0.15507259360E+02  0.28829344740E+02  0.62500000000E+02  0.47000000000E+01 0.  1.
         -5    1    1    0    0  501  0.53033515714E+02 -0.15507259360E+02 -0.28829344740E+02  0.62500000000E+02  0.47000000000E+01 0.  1.
</event>
<event>
 3    0  0.4607503E-005  0.9118800E+02  0.7546771E-02  0.1235069E+00
         25   -1    0    0    0    0  0.00000000000E+00  0.00000000000E+00  0.99999998245E-14  0.12500000000E+03  0.12500000000E+03 0.  0.
          5    1    1    0  501    0 -0.55587106837E+01  0.59215192789E+02  0.18623148996E+02  0.62500000000E+02  0.47000000000E+01 0. -1.
         -5    1    1    0    0  501  0.55587106837E+01 -0.59215192789E+02 -0.18623148996E+02  0.62500000000E+02  0.47000000000E+01 0. -1.
</event>
<event>
 3    0  0.4607503E-005  0.9118800E+02  0.7546771E-02  0.1235069E+00
         25   -1    0    0    0    0  0.00000000000E+00  0.00000000000E+00  0.99999998245E-14  0.12500000000E+03  0.12500000000E+03 0.  0.
          5    1    1    0  501    0 -0.45903173764E+02  0.33747262030E+01  0.42019874601E+02  0.62500000000E+02  0.47000000000E+01 0. -1.
         -5    1    1    0    0  501  0.45903173764E+02 -0.33747262030E+01 -0.42019874601E+02  0.62500000000E+02  0.47000000000E+01 0. -1.
</event>
<event>
 3    0  0.4607503E-005  0.9118800E+02  0.7546771E-02  0.1235069E+00
         25   -1    0    0    0    0  0.00000000000E+00  0.00000000000E+00  0.99999998245E-14  0.12500000000E+03  0.12500000000E+03 0.  0.
          5    1    1    0  501    0 -0.41768008116E+02 -0.41802122677E+02 -0.19803434998E+02  0.62500000000E+02  0.47000000000E+01 0. -1.
         -5    1    1    0    0  501  0.41768008116E+02  0.41802122677E+02  0.19803434998E+02  0.62500000000E+02  0.47000000000E+01 0. -1.
</event>
<event>
 3    0  0.4607503E-005  0.9118800E+02  0.7546771E-02  0.1235069E+00
         25   -1    0    0    0    0  0.00000000000E+00  0.00000000000E+00  0.99999998245E-14  0.12500000000E+03  0.12500000000E+03 0.  0.
          5    1    1    0  501    0 -0.22509636446E+02  0.48864332139E+02 -0.31460345067E+02  0.62500000000E+02  0.47000000000E+01 0.  1.
         -5    1    1    0    0  501  0.22509636446E+02 -0.48864332139E+02  0.31460345067E+02  0.62500000000E+02  0.47000000000E+01 0.  1.
</event>
<event>
 3    0  0.4607503E-005  0.9118800E+02  0.7546771E-02  0.1235069E+00
         25   -1    0    0    0    0  0.00000000000E+00  0.00000000000E+00  0.99999998245E-14  0.12500000000E+03  0.12500000000E+03 0.  0.
          5    1    1    0  501    0  0.38169702587E+01  0.44494494772E+01 -0.62046701261E+02  0.62500000000E+02  0.47000000000E+01 0. -1.
         -5    1    1    0    0  501 -0.38169702587E+01 -0.44494494772E+01  0.62046701261E+02  0.62500000000E+02  0.47000000000E+01 0. -1.
</event>
<event>
 3    0  0.4607503E-005  0.9118800E+02  0.7546771E-02  0.1235069E+00
         25   -1    0    0    0    0  0.00000000000E+00  0.00000000000E+00  0.99999998245E-14  0.12500000000E+03  0.12500000000E+03 0.  0.
          5    1    1    0  501    0  0.18895896898E+01  0.23167737126E+01  0.62251281195E+02  0.62500000000E+02  0.47000000000E+01 0.  1.
         -5    1    1    0    0  501 -0.18895896898E+01 -0.23167737126E+01 -0.62251281195E+02  0.62500000000E+02  0.47000000000E+01 0.  1.
</event>
<event>
 3    0  0.4607503E-005  0.9118800E+02  0.7546771E-02  0.1235069E+00
         25   -1    0    0    0    0  0.00000000000E+00  0.00000000000E+00  0.99999998245E-14  0.12500000000E+03  0.12500000000E+03 0.  0.
          5    1    1    0  501    0  0.50279696134E+02  0.36062960313E+02 -0.74548675446E+01  0.62500000000E+02  0.47000000000E+01 0. -1.
         -5    1    1    0    0  501 -0.50279696134E+02 -0.36062960313E+02  0.74548675446E+01  0.62500000000E+02  0.47000000000E+01 0. -1.
</event>
<event>
 3    0  0.4607503E-005  0.9118800E+02  0.7546771E-02  0.1235069E+00
         25   -1    0    0    0    0  0.00000000000E+00  0.00000000000E+00  0.99999998245E-14  0.12500000000E+03  0.12500000000E+03 0.  0.
          5    1    1    0  501    0  0.34029075804E+02  0.50492201097E+02  0.13293593507E+02  0.62500000000E+02  0.47000000000E+01 0. -1.
         -5    1    1    0    0  501 -0.34029075804E+02 -0.50492201097E+02 -0.13293593507E+02  0.62500000000E+02  0.47000000000E+01 0. -1.
</event>
<event>
 3    0  0.4607503E-005  0.9118800E+02  0.7546771E-02  0.1235069E+00
         25   -1    0    0    0    0  0.00000000000E+00  0.00000000000E+00  0.99999998245E-14  0.12500000000E+03  0.12500000000E+03 0.  0.
          5    1    1    0  501    0 -0.35856606727E+02  0.77227059165E+00  0.50969278513E+02  0.62500000000E+02  0.47000000000E+01 0. -1.
         -5    1    1    0    0  501  0.35856606727E+02 -0.77227059165E+00 -0.50969278513E+02  0.62500000000E+02  0.47000000000E+01 0. -1.
</event>
<event>
 3    0  0.4607503E-005  0.9118800E+02  0.7546771E-02  0.1235069E+00
         25   -1    0    0    0    0  0.00000000000E+00  0.00000000000E+00  0.99999998245E-14  0.12500000000E+03  0.12500000000E+03 0.  0.
          5    1    1    0  501    0  0.37306317831E+02  0.20595745631E+02  0.45477619900E+02  0.62500000000E+02  0.47000000000E+01 0. -1.
         -5    1    1    0    0  501 -0.37306317831E+02 -0.20595745631E+02 -0.45477619900E+02  0.62500000000E+02  0.47000000000E+01 0. -1.
</event>
<event>
 3    0  0.4607503E-005  0.9118800E+02  0.7546771E-02  0.1235069E+00
         25   -1    0    0    0    0  0.00000000000E+00  0.00000000000E+00  0.99999998245E-14  0.12500000000E+03  0.12500000000E+03 0.  0.
          5    1    1    0  501    0  0.26957478631E+02 -0.17562436943E+02  0.53376166539E+02  0.62500000000E+02  0.47000000000E+01 0.  1.
         -5    1    1    0    0  501 -0.26957478631E+02  0.17562436943E+02 -0.53376166539E+02  0.62500000000E+02  0.47000000000E+01 0.  1.
</event>
<event>
 3    0  0.4607503E-005  0.9118800E+02  0.7546771E-02  0.1235069E+00
         25   -1    0    0    0    0  0.00000000000E+00  0.00000000000E+00  0.99999998245E-14  0.12500000000E+03  0.12500000000E+03 0.  0.
          5    1    1    0  501    0 -0.49550196361E+02  0.37551486515E+02 -0.43386519824E+01  0.62500000000E+02  0.47000000000E+01 0. -1.
         -5    1    1    0    0  501  0.49550196361E+02 -0.37551486515E+02  0.43386519824E+01  0.62500000000E+02  0.47000000000E+01 0. -1.
</event>
<event>
 3    0  0.4607503E-005  0.9118800E+02  0.7546771E-02  0.1235069E+00
         25   -1    0    0    0    0  0.00000000000E+00  0.00000000000E+00  0.99999998245E-14  0.12500000000E+03  0.12500000000E+03 0.  0.
          5    1    1    0  501    0 -0.34047916815E+02 -0.51103886952E+02 -0.10643876124E+02  0.62500000000E+02  0.47000000000E+01 0. -1.
         -5    1    1    0    0  501  0.34047916815E+02  0.51103886952E+02  0.10643876124E+02  0.62500000000E+02  0.47000000000E+01 0. -1.
</event>
<event>
 3    0  0.4607503E-005  0.9118800E+02  0.7546771E-02  0.1235069E+00
         25   -1    0    0    0    0  0.00000000000E+00  0.00000000000E+00  0.99999998245E-14  0.12500000000E+03  0.12500000000E+03 0.  0.
          5    1    1    0  501    0 -0.58128474032E+02 -0.93550179190E+01 -0.20438300967E+02  0.62500000000E+02  0.47000000000E+01 0. -1.
         -5    1    1    0    0  501  0.58128474032E+02  0.93550179190E+01  0.20438300967E+02  0.62500000000E+02  0.47000000000E+01 0. -1.
</event>
<event>
 3    0  0.4607503E-005  0.9118800E+02  0.7546771E-02  0.1235069E+00
         25   -1    0    0    0    0  0.00000000000E+00  0.00000000000E+00  0.99999998245E-14  0.12500000000E+03  0.12500000000E+03 0.  0.
          5    1    1    0  501    0 -0.57936371924E+02  0.10827805712E+02 -0.20255750584E+02  0.62500000000E+02  0.47000000000E+01 0.  1.
         -5    1    1    0    0  501  0.57936371924E+02 -0.10827805712E+02  0.20255750584E+02  0.62500000000E+02  0.47000000000E+01 0.  1.
</event>
<event>
 3    0  0.4607503E-005  0.9118800E+02  0.7546771E-02  0.1235069E+00
         25   -1    0    0    0    0  0.00000000000E+00  0.00000000000E+00  0.99999998245E-14  0.12500000000E+03  0.12500000000E+03 0.  0.
          5    1    1    0  501    0 -0.61501408230E+02  0.84208943721E+01 -0.55520558067E+01  0.62500000000E+02  0.47000000000E+01 0. -1.
         -5    1    1    0    0  501  0.61501408230E+02 -0.84208943721E+01  0.55520558067E+01  0.62500000000E+02  0.47000000000E+01 0. -1.
</event>
<event>
 3    0  0.4607503E-005  0.9118800E+02  0.7546771E-02  0.1235069E+00
         25   -1    0    0    0    0  0.00000000000E+00  0.00000000000E+00  0.99999998245E-14  0.12500000000E+03  0.12500000000E+03 0.  0.
          5    1    1    0  501    0  0.57723277443E+01  0.59545924300E+02 -0.17467774090E+02  0.62500000000E+02  0.47000000000E+01 0.  1.
         -5    1    1    0    0  501 -0.57723277443E+01 -0.59545924300E+02  0.17467774090E+02  0.62500000000E+02  0.47000000000E+01 0.  1.
</event>
<event>
 3    0  0.4607503E-005  0.9118800E+02  0.7546771E-02  0.1235069E+00
         25   -1    0    0    0    0  0.00000000000E+00  0.00000000000E+00  0.99999998245E-14  0.12500000000E+03  0.12500000000E+03 0.  0.
          5    1    1    0  501    0 -0.29327141565E+02 -0.54356970714E+02 -0.83305763527E+01  0.62500000000E+02  0.47000000000E+01 0.  1.
         -5    1    1    0    0  501  0.29327141565E+02  0.54356970714E+02  0.83305763527E+01  0.62500000000E+02  0.47000000000E+01 0.  1.
</event>
<event>
 3    0  0.4607503E-005  0.9118800E+02  0.7546771E-02  0.1235069E+00
         25   -1    0    0    0    0  0.00000000000E+00  0.00000000000E+00  0.99999998245E-14  0.12500000000E+03  0.12500000000E+03 0.  0.
          5    1    1    0  501    0 -0.29922825083E+02 -0.89195757592E+00  0.54662500407E+02  0.62500000000E+02  0.47000000000E+01 0.  1.
         -5    1    1    0    0  501  0.29922825083E+02  0.89195757592E+00 -0.54662500407E+02  0.62500000000E+02  0.47000000000E+01 0.  1.
</event>
<event>
 3    0  0.4607503E-005  0.9118800E+02  0.7546771E-02  0.1235069E+00
         25   -1    0    0    0    0  0.00000000000E+00  0.00000000000E+00  0.99999998245E-14  0.12500000000E+03  0.12500000000E+03 0.  0.
          5    1    1    0  501    0  0.47811438414E+02 -0.32163475459E+02  0.23743150657E+02  0.62500000000E+02  0.47000000000E+01 0. -1.
         -5    1    1    0    0  501 -0.47811438414E+02  0.32163475459E+02 -0.23743150657E+02  0.62500000000E+02  0.47000000000E+01 0. -1.
</event>
<event>
 3    0  0.4607503E-005  0.9118800E+02  0.7546771E-02  0.1235069E+00
         25   -1    0    0    0    0  0.00000000000E+00  0.00000000000E+00  0.99999998245E-14  0.12500000000E+03  0.12500000000E+03 0.  0.
          5    1    1    0  501    0  0.59300785988E+01  0.61920478154E+02  0.38533820266E+01  0.62500000000E+02  0.47000000000E+01 0.  1.
         -5    1    1    0    0  501 -0.59300785988E+01 -0.61920478154E+02 -0.38533820266E+01  0.62500000000E+02  0.47000000000E+01 0.  1.
</event>
<event>
 3    0  0.4607503E-005  0.9118800E+02  0.7546771E-02  0.1235069E+00
         25   -1    0    0    0    0  0.00000000000E+00  0.00000000000E+00  0.99999998245E-14  0.12500000000E+03  0.12500000000E+03 0.  0.
          5    1    1    0  501    0  0.20942771510E+02  0.34387341773E+02 -0.47571746313E+02  0.62500000000E+02  0.47000000000E+01 0.  1.
         -5    1    1    0    0  501 -0.20942771510E+02 -0.34387341773E+02  0.47571746313E+02  0.62500000000E+02  0.47000000000E+01 0.  1.
</event>
<event>
 3    0  0.4607503E-005  0.9118800E+02  0.7546771E-02  0.1235069E+00
         25   -1    0    0    0    0  0.00000000000E+00  0.00000000000E+00  0.99999998245E-14  0.12500000000E+03  0.12500000000E+03 0.  0.
          5    1    1    0  501    0  0.48854729335E+02  0.38423954012E+02  0.45798667776E+01  0.62500000000E+02  0.47000000000E+01 0. -1.
         -5    1    1    0    0  501 -0.48854729335E+02 -0.38423954012E+02 -0.45798667776E+01  0.62500000000E+02  0.47000000000E+01 0. -1.
</event>
<event>
 3    0  0.4607503E-005  0.9118800E+02  0.7546771E-02  0.1235069E+00
         25   -1    0    0    0    0  0.00000000000E+00  0.00000000000E+00  0.99999998245E-14  0.12500000000E+03  0.12500000000E+03 0.  0.
          5    1    1    0  501    0  0.47223466306E+02 -0.26927297426E+02 -0.30479909504E+02  0.62500000000E+02  0.47000000000E+01 0.  1.
         -5    1    1    0    0  501 -0.47223466306E+02  0.26927297426E+02  0.30479909504E+02  0.62500000000E+02  0.47000000000E+01 0.  1.
</event>
<event>
 3    0  0.4607503E-005  0.9118800E+02  0.7546771E-02  0.1235069E+00
         25   -1    0    0    0    0  0.00000000000E+00  0.00000000000E+00  0.99999998245E-14  0.12500000000E+03  0.12500000000E+03 0.  0.
          5    1    1    0  501    0  0.16700948847E+02  0.57088898271E+02 -0.18603655605E+02  0.62500000000E+02  0.47000000000E+01 0.  1.
         -5    1    1    0    0  501 -0.16700948847E+02 -0.57088898271E+02  0.18603655605E+02  0.62500000000E+02  0.47000000000E+01 0.  1.
</event>
<event>
 3    0  0.4607503E-005  0.9118800E+02  0.7546771E-02  0.1235069E+00
         25   -1    0    0    0    0  0.00000000000E+00  0.00000000000E+00  0.99999998245E-14  0.12500000000E+03  0.12500000000E+03 0.  0.
          5    1    1    0  501    0  0.12608166458E+02 -0.55811106622E+02  0.24704544443E+02  0.62500000000E+02  0.47000000000E+01 0. -1.
         -5    1    1    0    0  501 -0.12608166458E+02  0.55811106622E+02 -0.24704544443E+02  0.62500000000E+02  0.47000000000E+01 0. -1.
</event>
<event>
 3    0  0.4607503E-005  0.9118800E+02  0.7546771E-02  0.1235069E+00
         25   -1    0    0    0    0  0.00000000000E+00  0.00000000000E+00  0.99999998245E-14  0.12500000000E+03  0.12500000000E+03 0.  0.
          5    1    1    0  501    0  0.29174426990E+02 -0.52765749035E+02 -0.15773032002E+02  0.62500000000E+02  0.47000000000E+01 0.  1.
         -5    1    1    0    0  501 -0.29174426990E+02  0.52765749035E+02  0.15773032002E+02  0.62500000000E+02  0.47000000000E+01 0.  1.
</event>
<event>
 3    0  0.4607503E-005  0.9118800E+02  0.7546771E-02  0.1235069E+00
         25   -1    0    0    0    0  0.00000000000E+00  0.00000000000E+00  0.99999998245E-14  0.12500000000E+03  0.12500000000E+03 0.  0.
          5    1    1    0  501    0  0.50624854429E+02 -0.36254101156E+02 -0.26313995092E+01  0.62500000000E+02  0.47000000000E+01 0. -1.
         -5    1    1    0    0  501 -0.50624854429E+02  0.36254101156E+02  0.26313995092E+01  0.62500000000E+02  0.47000000000E+01 0. -1.
</event>
<event>
 3    0  0.4607503E-005  0.9118800E+02  0.7546771E-02  0.1235069E+00
         25   -1    0    0    0    0  0.00000000000E+00  0.00000000000E+00  0.99999998245E-14  0.12500000000E+03  0.12500000000E+03 0.  0.
          5    1    1    0  501    0 -0.24885309944E+02  0.27178998102E+02  0.50261152107E+02  0.62500000000E+02  0.47000000000E+01 0. -1.
         -5    1    1    0    0  501  0.24885309944E+02 -0.27178998102E+02 -0.50261152107E+02  0.62500000000E+02  0.47000000000E+01 0. -1.
</event>
<event>
 3    0  0.4607503E-005  0.9118800E+02  0.7546771E-02  0.1235069E+00
         25   -1    0    0    0    0  0.00000000000E+00  0.00000000000E+00  0.99999998245E-14  0.12500000000E+03  0.12500000000E+03 0.  0.
          5    1    1    0  501    0  0.20809948058E+02 -0.55225556684E+02 -0.20031074627E+02  0.62500000000E+02  0.47000000000E+01 0. -1.
         -5    1    1    0    0  501 -0.20809948058E+02  0.55225556684E+02  0.20031074627E+02  0.62500000000E+02  0.47000000000E+01 0. -1.
</event>
<event>
 3    0  0.4607503E-005  0.9118800E+02  0.7546771E-02  0.1235069E+00
         25   -1    0    0    0    0  0.00000000000E+00  0.00000000000E+00  0.99999998245E-14  0.12500000000E+03  0.12500000000E+03 0.  0.
          5    1    1    0  501    0 -0.57115540774E+02  0.21818555590E+02 -0.12079968295E+02  0.62500000000E+02  0.47000000000E+01 0. -1.
         -5    1    1    0    0  501  0.57115540774E+02 -0.21818555590E+02  0.12079968295E+02  0.62500000000E+02  0.47000000000E+01 0. -1.
</event>
<event>
 3    0  0.4607503E-005  0.9118800E+02  0.7546771E-02  0.1235069E+00
         25   -1    0    0    0    0  0.00000000000E+00  0.00000000000E+00  0.99999998245E-14  0.12500000000E+03  0.12500000000E+03 0.  0.
          5    1    1    0  501    0 -0.46333538277E+02 -0.46583747209E+01 -0.41420559819E+02  0.62500000000E+02  0.47000000000E+01 0.  1.
         -5    1    1    0    0  501  0.46333538277E+02  0.46583747209E+01  0.41420559819E+02  0.62500000000E+02  0.47000000000E+01 0.  1.
</event>
<event>
 3    0  0.4607503E-005  0.9118800E+02  0.7546771E-02  0.1235069E+00
         25   -1    0    0    0    0  0.00000000000E+00  0.00000000000E+00  0.99999998245E-14  0.12500000000E+03  0.12500000000E+03 0.  0.
          5    1    1    0  501    0  0.39115001373E+02  0.44105329160E+01  0.48318980401E+02  0.62500000000E+02  0.47000000000E+01 0. -1.
         -5    1    1    0    0  501 -0.39115001373E+02 -0.44105329160E+01 -0.48318980401E+02  0.62500000000E+02  0.47000000000E+01 0. -1.
</event>
<event>
 3    0  0.4607503E-005  0.9118800E+02  0.7546771E-02  0.1235069E+00
         25   -1    0    0    0    0  0.00000000000E+00  0.00000000000E+00  0.99999998245E-14  0.12500000000E+03  0.12500000000E+03 0.  0.
          5    1    1    0  501    0 -0.32278634696E+02 -0.16226254746E+02  0.50783446112E+02  0.62500000000E+02  0.47000000000E+01 0.  1.
         -5    1    1    0    0  501  0.32278634696E+02  0.16226254746E+02 -0.50783446112E+02  0.62500000000E+02  0.47000000000E+01 0.  1.
</event>
<event>
 3    0  0.4607503E-005  0.9118800E+02  0.7546771E-02  0.1235069E+00
         25   -1    0    0    0    0  0.00000000000E+00  0.00000000000E+00  0.99999998245E-14  0.12500000000E+03  0.12500000000E+03 0.  0.
          5    1    1    0  501    0  0.25831300287E+02  0.47460770510E+02 -0.31054455205E+02  0.62500000000E+02  0.47000000000E+01 0.  1.
         -5    1    1    0    0  501 -0.25831300287E+02 -0.47460770510E+02  0.31054455205E+02  0.62500000000E+02  0.47000000000E+01 0.  1.
</event>
<event>
 3    0  0.4607503E-005  0.9118800E+02  0.7546771E-02  0.1235069E+00
         25   -1    0    0    0    0  0.00000000000E+00  0.00000000000E+00  0.99999998245E-14  0.12500000000E+03  0.12500000000E+03 0.  0.
          5    1    1    0  501    0 -0.41472455154E+02 -0.45697628172E+02  0.87133370772E+01  0.62500000000E+02  0.47000000000E+01 0.  1.
         -5    1    1    0    0  501  0.41472455154E+02  0.45697628172E+02 -0.87133370772E+01  0.62500000000E+02  0.47000000000E+01 0.  1.
</event>
<event>
 3    0  0.4607503E-005  0.9118800E+02  0.7546771E-02  0.1235069E+00
         25   -1    0    0    0    0  0.00000000000E+00  0.00000000000E+00  0.99999998245E-14  0.12500000000E+03  0.12500000000E+03 0.  0.
          5    1    1    0  501    0 -0.88339798768E+01  0.49034118659E+02  0.37440299235E+02  0.62500000000E+02  0.47000000000E+01 0.  1.
         -5    1    1    0    0  501  0.88339798768E+01 -0.49034118659E+02 -0.37440299235E+02  0.62500000000E+02  0.47000000000E+01 0.  1.
</event>
<event>
 3    0  0.4607503E-005  0.9118800E+02  0.7546771E-02  0.1235069E+00
         25   -1    0    0    0    0  0.00000000000E+00  0.00000000000E+00  0.99999998245E-14  0.12500000000E+03  0.12500000000E+03 0.  0.
          5    1    1    0  501    0  0.22155652327E+01 -0.48262007984E+02  0.39370418541E+02  0.62500000000E+02  0.47000000000E+01 0. -1.
         -5    1    1    0    0  501 -0.22155652327E+01  0.48262007984E+02 -0.39370418541E+02  0.62500000000E+02  0.47000000000E+01 0. -1.
</event>
<event>
 3    0  0.4607503E-005  0.9118800E+02  0.7546771E-02  0.1235069E+00
         25   -1    0    0    0    0  0.00000000000E+00  0.00000000000E+00  0.99999998245E-14  0.12500000000E+03  0.12500000000E+03 0.  0.
          5    1    1    0  501    0  0.56855872303E+02  0.18637465301E+02  0.17441750825E+02  0.62500000000E+02  0.47000000000E+01 0.  1.
         -5    1    1    0    0  501 -0.56855872303E+02 -0.18637465301E+02 -0.17441750825E+02  0.62500000000E+02  0.47000000000E+01 0.  1.
</event>
<event>
 3    0  0.4607503E-005  0.9118800E+02  0.7546771E-02  0.1235069E+00
         25   -1    0    0    0    0  0.00000000000E+00  0.00000000000E+00  0.99999998245E-14  0.12500000000E+03  0.12500000000E+03 0.  0.
          5    1    1    0  501    0 -0.46750837443E+02 -0.38150807621E+02  0.15589582298E+02  0.62500000000E+02  0.47000000000E+01 0.  1.
         -5    1    1    0    0  501  0.46750837443E+02  0.38150807621E+02 -0.15589582298E+02  0.62500000000E+02  0.47000000000E+01 0.  1.
</event>
<event>
 3    0  0.4607503E-005  0.9118800E+02  0.7546771E-02  0.1235069E+00
         25   -1    0    0    0    0  0.00000000000E+00  0.00000000000E+00  0.99999998245E-14  0.12500000000E+03  0.12500000000E+03 0.  0.
          5    1    1    0  501    0 -0.10353652570E+02 -0.85571896053E+01 -0.60858330445E+02  0.62500000000E+02  0.47000000000E+01 0.  1.
         -5    1    1    0    0  501  0.10353652570E+02  0.85571896053E+01  0.60858330445E+02  0.62500000000E+02  0.47000000000E+01 0.  1.
</event>
<event>
 3    0  0.4607503E-005  0.9118800E+02  0.7546771E-02  0.1235069E+00
         25   -1    0    0    0    0  0.00000000000E+00  0.00000000000E+00  0.99999998245E-14  0.12500000000E+03  0.12500000000E+03 0.  0.
          5    1    1    0  501    0 -0.34771952804E+02 -0.16382365854E+02 -0.49058020621E+02  0.62500000000E+02  0.47000000000E+01 0. -1.
         -5    1    1    0    0  501  0.34771952804E+02  0.16382365854E+02  0.49058020621E+02  0.62500000000E+02  0.47000000000E+01 0. -1.
</event>
<event>
 3    0  0.4607503E-005  0.9118800E+02  0.7546771E-02  0.1235069E+00
         25   -1    0    0    0    0  0.00000000000E+00  0.00000000000E+00  0.99999998245E-14  0.12500000000E+03  0.12500000000E+03 0.  0.
          5    1    1    0  501    0 -0.39954414813E+02 -0.47089308549E+02 -0.83905755057E+01  0.62500000000E+02  0.47000000000E+01 0.  1.
         -5    1    1    0    0  501  0.39954414813E+02  0.47089308549E+02  0.83905755057E+01  0.62500000000E+02  0.47000000000E+01 0.  1.
</event>
<event>
 3    0  0.4607503E-005  0.9118800E+02  0.7546771E-02  0.1235069E+00
         25   -1    0    0    0    0  0.00000000000E+00  0.00000000000E+00  0.99999998245E-14  0.12500000000E+03  0.12500000000E+03 0.  0.
          5    1    1    0  501    0 -0.19618342265E+02 -0.58944408323E+02 -0.49837108891E+01  0.62500000000E+02  0.47000000000E+01 0.  1.
         -5    1    1    0    0  501  0.19618342265E+02  0.58944408323E+02  0.49837108891E+01  0.62500000000E+02  0.47000000000E+01 0.  1.
</event>
<event>
 3    0  0.4607503E-005  0.9118800E+02  0.7546771E-02  0.1235069E+00
         25   -1    0    0    0    0  0.00000000000E+00  0.00000000000E+00  0.99999998245E-14  0.12500000000E+03  0.12500000000E+03 0.  0.
          5    1    1    0  501    0 -0.24065849984E+02  0.57387293876E+02 -0.34195564275E+01  0.62500000000E+02  0.47000000000E+01 0. -1.
         -5    1    1    0    0  501  0.24065849984E+02 -0.57387293876E+02  0.34195564275E+01  0.62500000000E+02  0.47000000000E+01 0. -1.
</event>
<event>
 3    0  0.4607503E-005  0.9118800E+02  0.7546771E-02  0.1235069E+00
         25   -1    0    0    0    0  0.00000000000E+00  0.00000000000E+00  0.99999998245E-14  0.12500000000E+03  0.12500000000E+03 0.  0.
          5    1    1    0  501    0 -0.25829267762E+02  0.55016054616E+02 -0.13792848196E+02  0.62500000000E+02  0.47000000000E+01 0.  1.
         -5    1    1    0    0  501  0.25829267762E+02 -0.55016054616E+02  0.13792848196E+02  0.62500000000E+02  0.47000000000E+01 0.  1.
</event>
<event>
 3    0  0.4607503E-005  0.9118800E+02  0.7546771E-02  0.1235069E+00
         25   -1    0    0    0    0  0.00000000000E+00  0.00000000000E+00  0.99999998245E-14  0.12500000000E+03  0.12500000000E+03 0.  0.
          5    1    1    0  501    0  0.24727022795E+00  0.90567859916E+01 -0.61660955920E+02  0.62500000000E+02  0.47000000000E+01 0. -1.
         -5    1    1    0    0  501 -0.24727022795E+00 -0.90567859916E+01  0.61660955920E+02  0.62500000000E+02  0.47000000000E+01 0. -1.
</event>
<event>
 3    0  0.4607503E-005  0.9118800E+02  0.7546771E-02  0.1235069E+00
         25   -1    0    0    0    0  0.00000000000E+00  0.00000000000E+00  0.99999998245E-14  0.12500000000E+03  0.12500000000E+03 0.  0.
          5    1    1    0  501    0 -0.26410971981E+02 -0.35395082714E+02 -0.43975091571E+02  0.62500000000E+02  0.47000000000E+01 0.  1.
         -5    1    1    0    0  501  0.26410971981E+02  0.35395082714E+02  0.43975091571E+02  0.62500000000E+02  0.47000000000E+01 0.  1.
</event>
<event>
 3    0  0.4607503E-005  0.9118800E+02  0.7546771E-02  0.1235069E+00
         25   -1    0    0    0    0  0.00000000000E+00  0.00000000000E+00  0.99999998245E-14  0.12500000000E+03  0.12500000000E+03 0.  0.
          5    1    1    0  501    0 -0.50387626203E+02  0.11184112469E+02 -0.34930828131E+02  0.62500000000E+02  0.47000000000E+01 0.  1.
         -5    1    1    0    0  501  0.50387626203E+02 -0.11184112469E+02  0.34930828131E+02  0.62500000000E+02  0.47000000000E+01 0.  1.
</event>
<event>
 3    0  0.4607503E-005  0.9118800E+02  0.7546771E-02  0.1235069E+00
         25   -1    0    0    0    0  0.00000000000E+00  0.00000000000E+00  0.99999998245E-14  0.12500000000E+03  0.12500000000E+03 0.  0.
          5    1    1    0  501    0  0.54073472616E+02 -0.30222988926E+02  0.68403581505E+01  0.62500000000E+02  0.47000000000E+01 0.  1.
         -5    1    1    0    0  501 -0.54073472616E+02  0.30222988926E+02 -0.68403581505E+01  0.62500000000E+02  0.47000000000E+01 0.  1.
</event>
<event>
 3    0  0.4607503E-005  0.9118800E+02  0.7546771E-02  0.1235069E+00
         25   -1    0    0    0    0  0.00000000000E+00  0.00000000000E+00  0.99999998245E-14  0.12500000000E+03  0.12500000000E+03 0.  0.
          5    1    1    0  501    0  0.24129091802E+01  0.59604707213E+02 -0.18044853762E+02  0.62500000000E+02  0.47000000000E+01 0. -1.
         -5    1    1    0    0  501 -0.24129091802E+01 -0.59604707213E+02  0.18044853762E+02  0.62500000000E+02  0.47000000000E+01 0. -1.
</event>
<event>
 3    0  0.4607503E-005  0.9118800E+02  0.7546771E-02  0.1235069E+00
         25   -1    0    0    0    0  0.00000000000E+00  0.00000000000E+00  0.99999998245E-14  0.12500000000E+03  0.12500000000E+03 0.  0.
          5    1    1    0  501    0 -0.57175948970E+02  0.13551132952E+02 -0.20771077370E+02  0.62500000000E+02  0.47000000000E+01 0. -1.
         -5    1    1    0    0  501  0.57175948970E+02 -0.13551132952E+02  0.20771077370E+02  0.62500000000E+02  0.47000000000E+01 0. -1.
</event>
<event>
 3    0  0.4607503E-005  0.9118800E+02  0.7546771E-02  0.1235069E+00
         25   -1    0    0    0    0  0.00000000000E+00  0.00000000000E+00  0.99999998245E-14  0.12500000000E+03  0.12500000000E+03 0.  0.
          5    1    1    0  501    0 -0.60152147908E+02  0.16274361685E+02  0.10120542595E+01  0.62500000000E+02  0.47000000000E+01 0. -1.
         -5    1    1    0    0  501  0.60152147908E+02 -0.16274361685E+02 -0.10120542595E+01  0.62500000000E+02  0.47000000000E+01 0. -1.
</event>
<event>
 3    0  0.4607503E-005  0.9118800E+02  0.7546771E-02  0.1235069E+00
         25   -1    0    0    0    0  0.00000000000E+00  0.00000000000E+00  0.99999998245E-14  0.12500000000E+03  0.12500000000E+03 0.  0.
          5    1    1    0  501    0  0.31108862544E+02  0.44462182750E+02  0.30651475925E+02  0.62500000000E+02  0.47000000000E+01 0.  1.
         -5    1    1    0    0  501 -0.31108862544E+02 -0.44462182750E+02 -0.30651475925E+02  0.62500000000E+02  0.47000000000E+01 0.  1.
</event>
<event>
 3    0  0.4607503E-005  0.9118800E+02  0.7546771E-02  0.1235069E+00
         25   -1    0    0    0    0  0.00000000000E+00  0.00000000000E+00  0.99999998245E-14  0.12500000000E+03  0.12500000000E+03 0.  0.
          5    1    1    0  501    0 -0.52876022736E+02  0.13925663425E+02 -0.29905887678E+02  0.62500000000E+02  0.47000000000E+01 0. -1.
         -5    1    1    0    0  501  0.52876022736E+02 -0.13925663425E+02  0.29905887678E+02  0.62500000000E+02  0.47000000000E+01 0. -1.
</event>
<event>
 3    0  0.4607503E-005  0.9118800E+02  0.7546771E-02  0.1235069E+00
         25   -1    0    0    0    0  0.00000000000E+00  0.00000000000E+00  0.99999998245E-14  0.12500000000E+03  0.12500000000E+03 0.  0.
          5    1    1    0  501    0  0.49104188298E+02 -0.54918279472E+01 -0.37983924459E+02  0.62500000000E+02  0.47000000000E+01 0. -1.
         -5    1    1    0    0  501 -0.49104188298E+02  0.54918279472E+01  0.37983924459E+02  0.62500000000E+02  0.47000000000E+01 0. -1.
</event>
<event>
 3    0  0.4607503E-005  0.9118800E+02  0.7546771E-02  0.1235069E+00
         25   -1    0    0    0    0  0.00000000000E+00  0.00000000000E+00  0.99999998245E-14  0.12500000000E+03  0.12500000000E+03 0.  0.
          5    1    1    0  501    0 -0.28452647331E+02  0.48238228290E+02 -0.27343741355E+02  0.62500000000E+02  0.47000000000E+01 0. -1.
         -5    1    1    0    0  501  0.28452647331E+02 -0.48238228290E+02  0.27343741355E+02  0.62500000000E+02  0.47000000000E+01 0. -1.
</event>
<event>
 3    0  0.4607503E-005  0.9118800E+02  0.7546771E-02  0.1235069E+00
         25   -1    0    0    0    0  0.00000000000E+00  0.00000000000E+00  0.99999998245E-14  0.12500000000E+03  0.12500000000E+03 0.  0.
          5    1    1    0  501    0  0.32302929274E+02 -0.43493766365E+02  0.30805406145E+02  0.62500000000E+02  0.47000000000E+01 0.  1.
         -5    1    1    0    0  501 -0.32302929274E+02  0.43493766365E+02 -0.30805406145E+02  0.62500000000E+02  0.47000000000E+01 0.  1.
</event>
<event>
 3    0  0.4607503E-005  0.9118800E+02  0.7546771E-02  0.1235069E+00
         25   -1    0    0    0    0  0.00000000000E+00  0.00000000000E+00  0.99999998245E-14  0.12500000000E+03  0.12500000000E+03 0.  0.
          5    1    1    0  501    0  0.10942222614E+02 -0.53630383095E+02 -0.29802848410E+02  0.62500000000E+02  0.47000000000E+01 0.  1.
         -5    1    1    0    0  501 -0.10942222614E+02  0.53630383095E+02  0.29802848410E+02  0.62500000000E+02  0.47000000000E+01 0.  1.
</event>
<event>
 3    0  0.4607503E-005  0.9118800E+02  0.7546771E-02  0.1235069E+00
         25   -1    0    0    0    0  0.00000000000E+00  0.00000000000E+00  0.99999998245E-14  0.12500000000E+03  0.12500000000E+03 0.  0.
          5    1    1    0  501    0 -0.56165172704E+02 -0.20220295443E+02  0.17910137558E+02  0.62500000000E+02  0.47000000000E+01 0.  1.
         -5    1    1    0    0  501  0.56165172704E+02  0.20220295443E+02 -0.17910137558E+02  0.62500000000E+02  0.47000000000E+01 0.  1.
</event>
<event>
 3    0  0.4607503E-005  0.9118800E+02  0.7546771E-02  0.1235069E+00
         25   -1    0    0    0    0  0.00000000000E+00  0.00000000000E+00  0.99999998245E-14  0.12500000000E+03  0.12500000000E+03 0.  0.
          5    1    1    0  501    0 -0.30137638755E+02  0.30506707264E+02  0.45224147777E+02  0.62500000000E+02  0.47000000000E+01 0.  1.
         -5    1    1    0    0  501  0.30137638755E+02 -0.30506707264E+02 -0.45224147777E+02  0.62500000000E+02  0.47000000000E+01 0.  1.
</event>
<event>
 3    0  0.4607503E-005  0.9118800E+02  0.7546771E-02  0.1235069E+00
         25   -1    0    0    0    0  0.00000000000E+00  0.00000000000E+00  0.99999998245E-14  0.12500000000E+03  0.12500000000E+03 0.  0.
          5    1    1    0  501    0  0.32485912269E+02 -0.48028380256E+01  0.52969408633E+02  0.62500000000E+02  0.47000000000E+01 0. -1.
         -5    1    1    0    0  501 -0.32485912269E+02  0.48028380256E+01 -0.52969408633E+02  0.62500000000E+02  0.47000000000E+01 0. -1.
</event>
<event>
 3    0  0.4607503E-005  0.9118800E+02  0.7546771E-02  0.1235069E+00
         25   -1    0    0    0    0  0.00000000000E+00  0.00000000000E+00  0.99999998245E-14  0.12500000000E+03  0.12500000000E+03 0.  0.
          5    1    1    0  501    0  0.54798930323E+02  0.27866627294E+02  0.10231730972E+02  0.62500000000E+02  0.47000000000E+01 0.  1.
         -5    1    1    0    0  501 -0.54798930323E+02 -0.27866627294E+02 -0.10231730972E+02  0.62500000000E+02  0.47000000000E+01 0.  1.
</event>
<event>
 3    0  0.4607503E-005  0.9118800E+02  0.7546771E-02  0.1235069E+00
         25   -1    0    0    0    0  0.00000000000E+00  0.00000000000E+00  0.99999998245E-14  0.12500000000E+03  0.12500000000E+03 0.  0.
          5    1    1    0  501    0 -0.46517697346E+02 -0.36976870964E+02 -0.18787624845E+02  0.62500000000E+02  0.47000000000E+01 0.  1.
         -5    1    1    0    0  501  0.46517697346E+02  0.36976870964E+02  0.18787624845E+02  0.62500000000E+02  0.47000000000E+01 0.  1.
</event>
<event>
 3    0  0.4607503E-005  0.9118800E+02  0.7546771E-02  0.1235069E+00
         25   -1    0    0    0    0  0.00000000000E+00  0.00000000000E+00  0.99999998245E-14  0.12500000000E+03  0.12500000000E+03 0.  0.
          5    1    1    0  501    0  0.25045435344E+02  0.11236194068E+00  0.57069024376E+02  0.62500000000E+02  0.47000000000E+01 0. -1.
         -5    1    1    0    0  501 -0.25045435344E+02 -0.11236194068E+00 -0.57069024376E+02  0.62500000000E+02  0.47000000000E+01 0. -1.
</event>
<event>
 3    0  0.4607503E-005  0.9118800E+02  0.7546771E-02  0.1235069E+00
         25   -1    0    0    0    0  0.00000000000E+00  0.00000000000E+00  0.99999998245E-14  0.12500000000E+03  0.12500000000E+03 0.  0.
          5    1    1    0  501    0  0.21550258493E+02 -0.51817458452E+02 -0.27105301298E+02  0.62500000000E+02  0.47000000000E+01 0. -1.
         -5    1    1    0    0  501 -0.21550258493E+02  0.51817458452E+02  0.27105301298E+02  0.62500000000E+02  0.47000000000E+01 0. -1.
</event>
<event>
 3    0  0.4607503E-005  0.9118800E+02  0.7546771E-02  0.1235069E+00
         25   -1    0    0    0    0  0.00000000000E+00  0.00000000000E+00  0.99999998245E-14  0.12500000000E+03  0.12500000000E+03 0.  0.
          5    1    1    0  501    0 -0.34880024067E+02  0.51355076410E+02  0.54954570289E+01  0.62500000000E+02  0.47000000000E+01 0. -1.
         -5    1    1    0    0  501  0.34880024067E+02 -0.51355076410E+02 -0.54954570289E+01  0.62500000000E+02  0.47000000000E+01 0. -1.
</event>
<event>
 3    0  0.4607503E-005  0.9118800E+02  0.7546771E-02  0.1235069E+00
         25   -1    0    0    0    0  0.00000000000E+00  0.00000000000E+00  0.99999998245E-14  0.12500000000E+03  0.12500000000E+03 0.  0.
          5    1    1    0  501    0 -0.12303204723E+01 -0.97472902259E+01  0.61543778278E+02  0.62500000000E+02  0.47000000000E+01 0.  1.
         -5    1    1    0    0  501  0.12303204723E+01  0.97472902259E+01 -0.61543778278E+02  0.62500000000E+02  0.47000000000E+01 0.  1.
</event>
<event>
 3    0  0.4607503E-005  0.9118800E+02  0.7546771E-02  0.1235069E+00
         25   -1    0    0    0    0  0.00000000000E+00  0.00000000000E+00  0.99999998245E-14  0.12500000000E+03  0.12500000000E+03 0.  0.
          5    1    1    0  501    0  0.53103407066E+02 -0.14040750269E+02  0.29445636176E+02  0.62500000000E+02  0.47000000000E+01 0.  1.
         -5    1    1    0    0  501 -0.53103407066E+02  0.14040750269E+02 -0.29445636176E+02  0.62500000000E+02  0.47000000000E+01 0.  1.
</event>
<event>
 3    0  0.4607503E-005  0.9118800E+02  0.7546771E-02  0.1235069E+00
         25   -1    0    0    0    0  0.00000000000E+00  0.00000000000E+00  0.99999998245E-14  0.12500000000E+03  0.12500000000E+03 0.  0.
          5    1    1    0  501    0 -0.27054101159E+02  0.13620059736E+02 -0.54467693023E+02  0.62500000000E+02  0.47000000000E+01 0. -1.
         -5    1    1    0    0  501  0.27054101159E+02 -0.13620059736E+02  0.54467693023E+02  0.62500000000E+02  0.47000000000E+01 0. -1.
</event>
<event>
 3    0  0.4607503E-005  0.9118800E+02  0.7546771E-02  0.1235069E+00
         25   -1    0    0    0    0  0.00000000000E+00  0.00000000000E+00  0.99999998245E-14  0.12500000000E+03  0.12500000000E+03 0.  0.
          5    1    1    0  501    0 -0.15223504914E+02  0.52175102913E+02 -0.30498582495E+02  0.62500000000E+02  0.47000000000E+01 0.  1.
         -5    1    1    0    0  501  0.15223504914E+02 -0.52175102913E+02  0.30498582495E+02  0.62500000000E+02  0.47000000000E+01 0.  1.
</event>
<event>
 3    0  0.4607503E-005  0.9118800E+02  0.7546771E-02  0.1235069E+00
         25   -1    0    0    0    0  0.00000000000E+00  0.00000000000E+00  0.99999998245E-14  0.12500000000E+03  0.12500000000E+03 0.  0.
          5    1    1    0  501    0  0.47758972249E+02 -0.18978075155E+01 -0.39995485950E+02  0.62500000000E+02  0.47000000000E+01 0. -1.
         -5    1    1    0    0  501 -0.47758972249E+02  0.18978075155E+01  0.39995485950E+02  0.62500000000E+02  0.47000000000E+01 0. -1.
</event>
<event>
 3    0  0.4607503E-005  0.9118800E+02  0.7546771E-02  0.1235069E+00
         25   -1    0    0    0    0  0.00000000000E+00  0.00000000000E+00  0.99999998245E-14  0.12500000000E+03  0.12500000000E+03 0.  0.
          5    1    1    0  501    0  0.57939652590E+02 -0.23300335487E+01 -0.22841357259E+02  0.62500000000E+02  0.47000000000E+01 0. -1.
         -5    1    1    0    0  501 -0.57939652590E+02  0.23300335487E+01  0.22841357259E+02  0.62500000000E+02  0.47000000000E+01 0. -1.
</event>
<event>
 3    0  0.4607503E-005  0.9118800E+02  0.7546771E-02  0.1235069E+00
         25   -1    0    0    0    0  0.00000000000E+00  0.00000000000E+00  0.99999998245E-14  0.12500000000E+03  0.12500000000E+03 0.  0.
          5    1    1    0  501    0 -0.10806506221E+02 -0.57434791656E+02  0.21647728073E+02  0.62500000000E+02  0.47000000000E+01 0. -1.
         -5    1    1    0    0  501  0.10806506221E+02  0.57434791656E+02 -0.21647728073E+02  0.62500000000E+02  0.47000000000E+01 0. -1.
</event>
<event>
 3    0  0.4607503E-005  0.9118800E+02  0.7546771E-02  0.1235069E+00
         25   -1    0    0    0    0  0.00000000000E+00  0.00000000000E+00  0.99999998245E-14  0.12500000000E+03  0.12500000000E+03 0.  0.
          5    1    1    0  501    0 -0.27017298777E+02 -0.20112254825E+02 -0.52437799083E+02  0.62500000000E+02  0.47000000000E+01 0. -1.
         -5    1    1    0    0  501  0.27017298777E+02  0.20112254825E+02  0.52437799083E+02  0.62500000000E+02  0.47000000000E+01 0. -1.
</event>
<event>
 3    0  0.4607503E-005  0.9118800E+02  0.7546771E-02  0.1235069E+00
         25   -1    0    0    0    0  0.00000000000E+00  0.00000000000E+00  0.99999998245E-14  0.12500000000E+03  0.12500000000E+03 0.  0.
          5    1    1    0  501    0 -0.43330739861E+02  0.21748860825E+02  0.39161129145E+02  0.62500000000E+02  0.47000000000E+01 0.  1.
         -5    1    1    0    0  501  0.43330739861E+02 -0.21748860825E+02 -0.39161129145E+02  0.62500000000E+02  0.47000000000E+01 0.  1.
</event>
<event>
 3    0  0.4607503E-005  0.9118800E+02  0.7546771E-02  0.1235069E+00
         25   -1    0    0    0    0  0.00000000000E+00  0.00000000000E+00  0.99999998245E-14  0.12500000000E+03  0.12500000000E+03 0.  0.
          5    1    1    0  501    0  0.13806372805E+01  0.44242515166E+02  0.43873154576E+02  0.62500000000E+02  0.47000000000E+01 0. -1.
         -5    1    1    0    0  501 -0.13806372805E+01 -0.44242515166E+02 -0.43873154576E+02  0.62500000000E+02  0.47000000000E+01 0. -1.
</event>
<event>
 3    0  0.4607503E-005  0.9118800E+02  0.7546771E-02  0.1235069E+00
         25   -1    0    0    0    0  0.00000000000E+00  0.00000000000E+00  0.99999998245E-14  0.12500000000E+03  0.12500000000E+03 0.  0.
          5    1    1    0  501    0 -0.60222526528E+02 -0.12613975283E+02  0.99143797640E+01  0.62500000000E+02  0.47000000000E+01 0. -1.
         -5    1    1    0    0  501  0.60222526528E+02  0.12613975283E+02 -0.99143797640E+01  0.62500000000E+02  0.47000000000E+01 0. -1.
</event>
<event>
 3    0  0.4607503E-005  0.9118800E+02  0.7546771E-02  0.1235069E+00
         25   -1    0    0    0    0  0.00000000000E+00  0.00000000000E+00  0.99999998245E-14  0.12500000000E+03  0.12500000000E+03 0.  0.
          5    1    1    0  501    0  0.12582433493E+02  0.22564033063E+02  0.56716018719E+02  0.62500000000E+02  0.47000000000E+01 0. -1.
         -5    1    1    0    0  501 -0.12582433493E+02 -0.22564033063E+02 -0.56716018719E+02  0.62500000000E+02  0.47000000000E+01 0. -1.
</event>
<event>
 3    0  0.4607503E-005  0.9118800E+02  0.7546771E-02  0.1235069E+00
         25   -1    0    0    0    0  0.00000000000E+00  0.00000000000E+00  0.99999998245E-14  0.12500000000E+03  0.12500000000E+03 0.  0.
          5    1    1    0  501    0  0.62239593583E+02  0.49159345446E+00  0.31861146445E+01  0.62500000000E+02  0.47000000000E+01 0. -1.
         -5    1    1    0    0  501 -0.62239593583E+02 -0.49159345446E+00 -0.31861146445E+01  0.62500000000E+02  0.47000000000E+01 0. -1.
</event>
<event>
 3    0  0.4607503E-005  0.9118800E+02  0.7546771E-02  0.1235069E+00
         25   -1    0    0    0    0  0.00000000000E+00  0.00000000000E+00  0.99999998245E-14  0.12500000000E+03  0.12500000000E+03 0.  0.
          5    1    1    0  501    0  0.61885793828E+02 -0.55613847467E+01 -0.48352375335E+01  0.62500000000E+02  0.47000000000E+01 0. -1.
         -5    1    1    0    0  501 -0.61885793828E+02  0.55613847467E+01  0.48352375335E+01  0.62500000000E+02  0.47000000000E+01 0. -1.
</event>
<event>
 3    0  0.4607503E-005  0.9118800E+02  0.7546771E-02  0.1235069E+00
         25   -1    0    0    0    0  0.00000000000E+00  0.00000000000E+00  0.99999998245E-14  0.12500000000E+03  0.12500000000E+03 0.  0.
          5    1    1    0  501    0 -0.45179630042E+02 -0.23413612515E+02  0.35982826158E+02  0.62500000000E+02  0.47000000000E+01 0.  1.
         -5    1    1    0    0  501  0.45179630042E+02  0.23413612515E+02 -0.35982826158E+02  0.62500000000E+02  0.47000000000E+01 0.  1.
</event>
<event>
 3    0  0.4607503E-005  0.9118800E+02  0.7546771E-02  0.1235069E+00
         25   -1    0    0    0    0  0.00000000000E+00  0.00000000000E+00  0.99999998245E-14  0.12500000000E+03  0.12500000000E+03 0.  0.
          5    1    1    0  501    0 -0.25423268952E+02 -0.19371003706E+02  0.53503099080E+02  0.62500000000E+02  0.47000000000E+01 0. -1.
         -5    1    1    0    0  501  0.25423268952E+02  0.19371003706E+02 -0.53503099080E+02  0.62500000000E+02  0.47000000000E+01 0. -1.
</event>
<event>
 3    0  0.4607503E-005  0.9118800E+02  0.7546771E-02  0.1235069E+00
         25   -1    0    0    0    0  0.00000000000E+00  0.00000000000E+00  0.99999998245E-14  0.12500000000E+03  0.12500000000E+03 0.  0.
          5    1    1    0  501    0 -0.24008123744E+02 -0.51853909984E+02 -0.24878545248E+02  0.62500000000E+02  0.47000000000E+01 0.  1.
         -5    1    1    0    0  501  0.24008123744E+02  0.51853909984E+02  0.24878545248E+02  0.62500000000E+02  0.47000000000E+01 0.  1.
</event>
<event>
 3    0  0.4607503E-005  0.9118800E+02  0.7546771E-02  0.1235069E+00
         25   -1    0    0    0    0  0.00000000000E+00  0.00000000000E+00  0.99999998245E-14  0.12500000000E+03  0.12500000000E+03 0.  0.
          5    1    1    0  501    0 -0.41319273665E+02 -0.13750634998E+02 -0.44584724524E+02  0.62500000000E+02  0.47000000000E+01 0. -1.
         -5    1    1    0    0  501  0.41319273665E+02  0.13750634998E+02  0.44584724524E+02  0.62500000000E+02  0.47000000000E+01 0. -1.
</event>
<event>
 3    0  0.4607503E-005  0.9118800E+02  0.7546771E-02  0.1235069E+00
         25   -1    0    0    0    0  0.00000000000E+00  0.00000000000E+00  0.99999998245E-14  0.12500000000E+03  0.12500000000E+03 0.  0.
          5    1    1    0  501    0 -0.31435656131E+02  0.41860597856E+02  0.33817892760E+02  0.62500000000E+02  0.47000000000E+01 0. -1.
         -5    1    1    0    0  501  0.31435656131E+02 -0.41860597856E+02 -0.33817892760E+02  0.62500000000E+02  0.47000000000E+01 0. -1.
</event>
<event>
 3    0  0.4607503E-005  0.9118800E+02  0.7546771E-02  0.1235069E+00
         25   -1    0    0    0    0  0.00000000000E+00  0.00000000000E+00  0.99999998245E-14  0.12500000000E+03  0.12500000000E+03 0.  0.
          5    1    1    0  501    0  0.57474490688E+02 -0.18290284670E+02  0.15694215712E+02  0.62500000000E+02  0.47000000000E+01 0. -1.
         -5    1    1    0    0  501 -0.57474490688E+02  0.18290284670E+02 -0.15694215712E+02  0.62500000000E+02  0.47000000000E+01 0. -1.
</event>
<event>
 3    0  0.4607503E-005  0.9118800E+02  0.7546771E-02  0.1235069E+00
         25   -1    0    0    0    0  0.00000000000E+00  0.00000000000E+00  0.99999998245E-14  0.12500000000E+03  0.12500000000E+03 0.  0.
          5    1    1    0  501    0 -0.53419913235E+01 -0.22537434019E+02  0.57859201485E+02  0.62500000000E+02  0.47000000000E+01 0. -1.
         -5    1    1    0    0  501  0.53419913235E+01  0.22537434019E+02 -0.57859201485E+02  0.62500000000E+02  0.47000000000E+01 0. -1.
</event>
<event>
 3    0  0.4607503E-005  0.9118800E+02  0.7546771E-02  0.1235069E+00
         25   -1    0    0    0    0  0.00000000000E+00  0.00000000000E+00  0.99999998245E-14  0.12500000000E+03  0.12500000000E+03 0.  0.
          5    1    1    0  501    0 -0.10955911808E+02 -0.45387140547E+02 -0.41281175727E+02  0.62500000000E+02  0.47000000000E+01 0.  1.
         -5    1    1    0    0  501  0.10955911808E+02  0.45387140547E+02  0.41281175727E+02  0.62500000000E+02  0.47000000000E+01 0.  1.
</event>
<event>
 3    0  0.4607503E-005  0.9118800E+02  0.7546771E-02  0.1235069E+00
         25   -1    0    0    0    0  0.00000000000E+00  0.00000000000E+00  0.99999998245E-14  0.12500000000E+03  0.12500000000E+03 0.  0.
          5    1    1    0  501    0  0.53226008863E+02  0.32333196838E+02  0.23908916201E+01  0.62500000000E+02  0.47000000000E+01 0. -1.
         -5    1    1    0    0  501 -0.53226008863E+02 -0.32333196838E+02 -0.23908916201E+01  0.62500000000E+02  0.47000000000E+01 0. -1.
</event>
<event>
 3    0  0.4607503E-005  0.9118800E+02  0.7546771E-02  0.1235069E+00
         25   -1    0    0    0    0  0.00000000000E+00  0.00000000000E+00  0.99999998245E-14  0.12500000000E+03  0.12500000000E+03 0.  0.
          5    1    1    0  501    0  0.32273082822E+02 -0.47156691375E+01 -0.53107161379E+02  0.62500000000E+02  0.47000000000E+01 0.  1.
         -5    1    1    0    0  501 -0.32273082822E+02  0.47156691375E+01  0.53107161379E+02  0.62500000000E+02  0.47000000000E+01 0.  1.
</event>
<event>
 3    0  0.4607503E-005  0.9118800E+02  0.7546771E-02  0.1235069E+00
         25   -1    0    0    0    0  0.00000000000E+00  0.00000000000E+00  0.99999998245E-14  0.12500000000E+03  0.12500000000E+03 0.  0.
          5    1    1    0  501    0  0.40217159207E+02  0.74036905586E+01 -0.47031111739E+02  0.62500000000E+02  0.47000000000E+01 0.  1.
         -5    1    1    0    0  501 -0.40217159207E+02 -0.74036905586E+01  0.47031111739E+02  0.62500000000E+02  0.47000000000E+01 0.  1.
</event>
<event>
 3    0  0.4607503E-005  0.9118800E+02  0.7546771E-02  0.1235069E+00
         25   -1    0    0    0    0  0.00000000000E+00  0.00000000000E+00  0.99999998245E-14  0.12500000000E+03  0.12500000000E+03 0.  0.
          5    1    1    0  501    0  0.11038156346E+02  0.12971311544E+02  0.59950514437E+02  0.62500000000E+02  0.47000000000E+01 0. -1.
         -5    1    1    0    0  501 -0.11038156346E+02 -0.12971311544E+02 -0.59950514437E+02  0.62500000000E+02  0.47000000000E+01 0. -1.
</event>
<event>
 3    0  0.4607503E-005  0.9118800E+02  0.7546771E-02  0.1235069E+00
         25   -1    0    0    0    0  0.00000000000E+00  0.00000000000E+00  0.99999998245E-14  0.12500000000E+03  0.12500000000E+03 0.  0.
          5    1    1    0  501    0  0.60194357226E+02 -0.11287385894E+02 -0.11549644059E+02  0.62500000000E+02  0.47000000000E+01 0.  1.
         -5    1    1    0    0  501 -0.60194357226E+02  0.11287385894E+02  0.11549644059E+02  0.62500000000E+02  0.47000000000E+01 0.  1.
</event>
<event>
 3    0  0.4607503E-005  0.9118800E+02  0.7546771E-02  0.1235069E+00
         25   -1    0    0    0    0  0.00000000000E+00  0.00000000000E+00  0.99999998245E-14  0.12500000000E+03  0.12500000000E+03 0.  0.
          5    1    1    0  501    0  0.43835517946E+02  0.36464454263E+02  0.25158516287E+02  0.62500000000E+02  0.47000000000E+01 0. -1.
         -5    1    1    0    0  501 -0.43835517946E+02 -0.36464454263E+02 -0.25158516287E+02  0.62500000000E+02  0.47000000000E+01 0. -1.
</event>
<event>
 3    0  0.4607503E-005  0.9118800E+02  0.7546771E-02  0.1235069E+00
         25   -1    0    0    0    0  0.00000000000E+00  0.00000000000E+00  0.99999998245E-14  0.12500000000E+03  0.12500000000E+03 0.  0.
          5    1    1    0  501    0  0.51634369107E+02  0.93806370489E+01  0.33616299253E+02  0.62500000000E+02  0.47000000000E+01 0. -1.
         -5    1    1    0    0  501 -0.51634369107E+02 -0.93806370489E+01 -0.33616299253E+02  0.62500000000E+02  0.47000000000E+01 0. -1.
</event>
<event>
 3    0  0.4607503E-005  0.9118800E+02  0.7546771E-02  0.1235069E+00
         25   -1    0    0    0    0  0.00000000000E+00  0.00000000000E+00  0.99999998245E-14  0.12500000000E+03  0.12500000000E+03 0.  0.
          5    1    1    0  501    0 -0.24964011229E+02  0.90865182074E+01 -0.56377241243E+02  0.62500000000E+02  0.47000000000E+01 0. -1.
         -5    1    1    0    0  501  0.24964011229E+02 -0.90865182074E+01  0.56377241243E+02  0.62500000000E+02  0.47000000000E+01 0. -1.
</event>
<event>
 3    0  0.4607503E-005  0.9118800E+02  0.7546771E-02  0.1235069E+00
         25   -1    0    0    0    0  0.00000000000E+00  0.00000000000E+00  0.99999998245E-14  0.12500000000E+03  0.12500000000E+03 0.  0.
          5    1    1    0  501    0  0.29633548103E+01  0.46612405550E+02 -0.41263327266E+02  0.62500000000E+02  0.47000000000E+01 0.  1.
         -5    1    1    0    0  501 -0.29633548103E+01 -0.46612405550E+02  0.41263327266E+02  0.62500000000E+02  0.47000000000E+01 0.  1.
</event>
<event>
 3    0  0.4607503E-005  0.9118800E+02  0.7546771E-02  0.1235069E+00
         25   -1    0    0    0    0  0.00000000000E+00  0.00000000000E+00  0.99999998245E-14  0.12500000000E+03  0.12500000000E+03 0.  0.
          5    1    1    0  501    0  0.59842291627E+02  0.10931275417E+02 -0.13548702911E+02  0.62500000000E+02  0.47000000000E+01 0. -1.
         -5    1    1    0    0  501 -0.59842291627E+02 -0.10931275417E+02  0.13548702911E+02  0.62500000000E+02  0.47000000000E+01 0. -1.
</event>
<event>
 3    0  0.4607503E-005  0.9118800E+02  0.7546771E-02  0.1235069E+00
         25   -1    0    0    0    0  0.00000000000E+00  0.00000000000E+00  0.99999998245E-14  0.12500000000E+03  0.12500000000E+03 0.  0.
          5    1    1    0  501    0 -0.10624212950E+02 -0.41479929454E+02 -0.45284672370E+02  0.62500000000E+02  0.47000000000E+01 0.  1.
         -5    1    1    0    0  501  0.10624212950E+02  0.41479929454E+02  0.45284672370E+02  0.62500000000E+02  0.47000000000E+01 0.  1.
</event>
<event>
 3    0  0.4607503E-005  0.9118800E+02  0.7546771E-02  0.1235069E+00
         25   -1    0    0    0    0  0.00000000000E+00  0.00000000000E+00  0.99999998245E-14  0.12500000000E+03  0.12500000000E+03 0.  0.
          5    1    1    0  501    0 -0.85473715139E+01 -0.36362423277E+02  0.49888642130E+02  0.62500000000E+02  0.47000000000E+01 0.  1.
         -5    1    1    0    0  501  0.85473715139E+01  0.36362423277E+02 -0.49888642130E+02  0.62500000000E+02  0.47000000000E+01 0.  1.
</event>
<event>
 3    0  0.4607503E-005  0.9118800E+02  0.7546771E-02  0.1235069E+00
         25   -1    0    0    0    0  0.00000000000E+00  0.00000000000E+00  0.99999998245E-14  0.12500000000E+03  0.12500000000E+03 0.  0.
          5    1    1    0  501    0 -0.23053640201E+02  0.53726258828E+02  0.21591173795E+02  0.62500000000E+02  0.47000000000E+01 0.  1.
         -5    1    1    0    0  501  0.23053640201E+02 -0.53726258828E+02 -0.21591173795E+02  0.62500000000E+02  0.47000000000E+01 0.  1.
</event>
<event>
 3    0  0.4607503E-005  0.9118800E+02  0.7546771E-02  0.1235069E+00
         25   -1    0    0    0    0  0.00000000000E+00  0.00000000000E+00  0.99999998245E-14  0.12500000000E+03  0.12500000000E+03 0.  0.
          5    1    1    0  501    0  0.25398373987E+02  0.35192081646E+02 -0.44728067119E+02  0.62500000000E+02  0.47000000000E+01 0. -1.
         -5    1    1    0    0  501 -0.25398373987E+02 -0.35192081646E+02  0.44728067119E+02  0.62500000000E+02  0.47000000000E+01 0. -1.
</event>
