<event>
 5    0  0.5771525E-005  0.2161165E+03  0.7546771E-02  0.1136812E+00
         21   -1    0    0  502  501  0.00000000000E+00  0.00000000000E+00  0.12521042506E+03  0.12521042506E+03  0.00000000000E+00 0. -1.
         21   -1    0    0  501  502 -0.00000000000E+00 -0.00000000000E+00 -0.37302287732E+03  0.37302287732E+03  0.00000000000E+00 0. -1.
         25    1    1    2    0    0 -0.79362872992E+02 -0.31237944551E+02 -0.79387951644E+02  0.17088511245E+03  0.12500000000E+03 0.  0.
         25    1    1    2    0    0  0.80035045387E+02  0.15602504160E+02 -0.58999084277E+02  0.16048345264E+03  0.12500000000E+03 0.  0.
         25    1    1    2    0    0 -0.67217239511E+00  0.15635440391E+02 -0.10942541634E+03  0.16686473730E+03  0.12500000000E+03 0.  0.
</event>
<event>
 5    0  0.5771525E-005  0.3478958E+03  0.7546771E-02  0.1063482E+00
         21   -1    0    0  502  501  0.00000000000E+00  0.00000000000E+00  0.20599399580E+04  0.20599399580E+04  0.00000000000E+00 0.  1.
         21   -1    0    0  501  502 -0.00000000000E+00 -0.00000000000E+00 -0.58754866253E+02  0.58754866253E+02  0.00000000000E+00 0.  1.
         25    1    1    2    0    0  0.12022338337E+03 -0.15057126642E+02  0.15539055499E+03  0.23334867377E+03  0.12500000000E+03 0.  0.
         25    1    1    2    0    0 -0.51604821491E+02  0.13835568341E+03  0.83463890815E+03  0.85676861505E+03  0.12500000000E+03 0.  0.
         25    1    1    2    0    0 -0.68618561878E+02 -0.12329855677E+03  0.10111556286E+04  0.10285775354E+04  0.12500000000E+03 0.  0.
</event>
<event>
 5    0  0.5771525E-005  0.2957611E+03  0.7546771E-02  0.1087379E+00
         21   -1    0    0  502  501  0.00000000000E+00  0.00000000000E+00  0.69019155568E+03  0.69019155568E+03  0.00000000000E+00 0.  1.
         21   -1    0    0  501  502 -0.00000000000E+00 -0.00000000000E+00 -0.12673962449E+03  0.12673962449E+03  0.00000000000E+00 0.  1.
         25    1    1    2    0    0  0.69357756229E+02 -0.19679019413E+02  0.25378014345E+03  0.29193684825E+03  0.12500000000E+03 0.  0.
         25    1    1    2    0    0  0.25222038744E+02 -0.12323897998E+03  0.39825569215E+02  0.18175553193E+03  0.12500000000E+03 0.  0.
         25    1    1    2    0    0 -0.94579794973E+02  0.14291799939E+03  0.26984621852E+03  0.34323879999E+03  0.12500000000E+03 0.  0.
</event>
<event>
 5    0  0.5771525E-005  0.3554756E+03  0.7546771E-02  0.1060390E+00
         21   -1    0    0  502  501  0.00000000000E+00  0.00000000000E+00  0.69228173037E+03  0.69228173037E+03  0.00000000000E+00 0.  1.
         21   -1    0    0  501  502 -0.00000000000E+00 -0.00000000000E+00 -0.18253103564E+03  0.18253103564E+03  0.00000000000E+00 0.  1.
         25    1    1    2    0    0 -0.65162299503E+02  0.14355717542E+02  0.23027723785E+03  0.27037902687E+03  0.12500000000E+03 0.  0.
         25    1    1    2    0    0  0.35227530602E+02 -0.48535776847E+02  0.40098869616E+03  0.42428013740E+03  0.12500000000E+03 0.  0.
         25    1    1    2    0    0  0.29934768900E+02  0.34180059305E+02 -0.12151523928E+03  0.18015360174E+03  0.12500000000E+03 0.  0.
</event>
<event>
 5    0  0.5771525E-005  0.8572449E+03  0.7546771E-02  0.9480664E-01
         21   -1    0    0  502  501  0.00000000000E+00  0.00000000000E+00  0.12614141255E+04  0.12614141255E+04  0.00000000000E+00 0.  1.
         21   -1    0    0  501  502 -0.00000000000E+00 -0.00000000000E+00 -0.58257533662E+03  0.58257533662E+03  0.00000000000E+00 0.  1.
         25    1    1    2    0    0  0.22137842779E+02 -0.67475241446E+03  0.69888548932E+02  0.69013789504E+03  0.12500000000E+03 0.  0.
         25    1    1    2    0    0  0.17360989159E+03  0.18135698060E+03  0.53430718739E+03  0.60344007106E+03  0.12500000000E+03 0.  0.
         25    1    1    2    0    0 -0.19574773437E+03  0.49339543386E+03  0.74643052583E+02  0.55041149603E+03  0.12500000000E+03 0.  0.
</event>
<event>
 5    0  0.5771525E-005  0.3119057E+03  0.7546771E-02  0.1079436E+00
         21   -1    0    0  502  501  0.00000000000E+00  0.00000000000E+00  0.55399678110E+02  0.55399678110E+02  0.00000000000E+00 0. -1.
         21   -1    0    0  501  502 -0.00000000000E+00 -0.00000000000E+00 -0.17560602164E+04  0.17560602164E+04  0.00000000000E+00 0. -1.
         25    1    1    2    0    0  0.22420400843E+02 -0.69637737083E+02 -0.60835959486E+03  0.62536268313E+03  0.12500000000E+03 0.  0.
         25    1    1    2    0    0 -0.16123603431E+03  0.13822309464E+03 -0.44229032950E+03  0.50630861953E+03  0.12500000000E+03 0.  0.
         25    1    1    2    0    0  0.13881563346E+03 -0.68585357554E+02 -0.65001061389E+03  0.67978859180E+03  0.12500000000E+03 0.  0.
</event>
<event>
 5    0  0.6012076E-005  0.2675815E+03  0.7546771E-02  0.1102672E+00
         21   -1    0    0  502  501  0.00000000000E+00  0.00000000000E+00  0.16373838232E+03  0.16373838232E+03  0.00000000000E+00 0.  1.
         21   -1    0    0  501  502 -0.00000000000E+00 -0.00000000000E+00 -0.43728220464E+03  0.43728220464E+03  0.00000000000E+00 0.  1.
         25    1    1    2    0    0 -0.13698463833E+02 -0.59402598141E+02 -0.21615857645E+03  0.25703277369E+03  0.12500000000E+03 0.  0.
         25    1    1    2    0    0  0.10492344214E+03  0.60200209611E+02  0.12068296879E+02  0.17436638935E+03  0.12500000000E+03 0.  0.
         25    1    1    2    0    0 -0.91224978304E+02 -0.79761146969E+00 -0.69453542748E+02  0.16962142391E+03  0.12500000000E+03 0.  0.
</event>
<event>
 5    0  0.5771525E-005  0.3071088E+03  0.7546771E-02  0.1081740E+00
         21   -1    0    0  502  501  0.00000000000E+00  0.00000000000E+00  0.87077069125E+02  0.87077069125E+02  0.00000000000E+00 0. -1.
         21   -1    0    0  501  502 -0.00000000000E+00 -0.00000000000E+00 -0.10831304410E+04  0.10831304410E+04  0.00000000000E+00 0. -1.
         25    1    1    2    0    0  0.72877405018E+02 -0.94277836702E+02 -0.69369429057E+03  0.71486795664E+03  0.12500000000E+03 0.  0.
         25    1    1    2    0    0 -0.11244276672E+03  0.52237039667E+02 -0.25471921472E+03  0.30964328259E+03  0.12500000000E+03 0.  0.
         25    1    1    2    0    0  0.39565361707E+02  0.42040797035E+02 -0.47639866559E+02  0.14569627088E+03  0.12500000000E+03 0.  0.
</event>
<event>
 5    0  0.5771525E-005  0.2254203E+03  0.7546771E-02  0.1129905E+00
         21   -1    0    0  502  501  0.00000000000E+00  0.00000000000E+00  0.23122457428E+03  0.23122457428E+03  0.00000000000E+00 0. -1.
         21   -1    0    0  501  502 -0.00000000000E+00 -0.00000000000E+00 -0.21976171227E+03  0.21976171227E+03  0.00000000000E+00 0. -1.
         25    1    1    2    0    0  0.15269143670E+02 -0.41739036632E+02  0.40180393517E+02  0.13861730754E+03  0.12500000000E+03 0.  0.
         25    1    1    2    0    0 -0.54255325403E+02 -0.55063458235E+02 -0.27534073239E+02  0.14952842525E+03  0.12500000000E+03 0.  0.
         25    1    1    2    0    0  0.38986181732E+02  0.96802494867E+02 -0.11834582689E+01  0.16284055377E+03  0.12500000000E+03 0.  0.
</event>
<event>
 5    0  0.5771525E-005  0.2591502E+03  0.7546771E-02  0.1107655E+00
         21   -1    0    0  502  501  0.00000000000E+00  0.00000000000E+00  0.18761110388E+03  0.18761110388E+03  0.00000000000E+00 0. -1.
         21   -1    0    0  501  502 -0.00000000000E+00 -0.00000000000E+00 -0.35796840232E+03  0.35796840232E+03  0.00000000000E+00 0. -1.
         25    1    1    2    0    0 -0.53382303905E+01  0.13644768646E+03 -0.58042865456E+02  0.19401144831E+03  0.12500000000E+03 0.  0.
         25    1    1    2    0    0  0.69396191388E+02 -0.50620096788E+02 -0.10927713652E+03  0.18693506397E+03  0.12500000000E+03 0.  0.
         25    1    1    2    0    0 -0.64057960997E+02 -0.85827589671E+02 -0.30372964629E+01  0.16463299392E+03  0.12500000000E+03 0.  0.
</event>
<event>
 5    0  0.5771525E-005  0.3708226E+03  0.7546771E-02  0.1054379E+00
         21   -1    0    0  502  501  0.00000000000E+00  0.00000000000E+00  0.48734852389E+03  0.48734852389E+03  0.00000000000E+00 0.  1.
         21   -1    0    0  501  502 -0.00000000000E+00 -0.00000000000E+00 -0.28215820888E+03  0.28215820888E+03  0.00000000000E+00 0.  1.
         25    1    1    2    0    0 -0.53127312791E+00  0.15566440423E+03  0.88810034160E+02  0.21850380126E+03  0.12500000000E+03 0.  0.
         25    1    1    2    0    0 -0.18900901933E+03 -0.15366761319E+03 -0.38023084505E+02  0.27642159772E+03  0.12500000000E+03 0.  0.
         25    1    1    2    0    0  0.18954029246E+03 -0.19967910477E+01  0.15440336536E+03  0.27458133380E+03  0.12500000000E+03 0.  0.
</event>
<event>
 5    0  0.5771525E-005  0.2474960E+03  0.7546771E-02  0.1114898E+00
         21   -1    0    0  502  501  0.00000000000E+00  0.00000000000E+00  0.62263256265E+02  0.62263256265E+02  0.00000000000E+00 0. -1.
         21   -1    0    0  501  502 -0.00000000000E+00 -0.00000000000E+00 -0.98379460835E+03  0.98379460835E+03  0.00000000000E+00 0. -1.
         25    1    1    2    0    0  0.12874529182E+03 -0.13998793896E+02 -0.27499636889E+03  0.32866292657E+03  0.12500000000E+03 0.  0.
         25    1    1    2    0    0 -0.10520717813E+03 -0.62777810556E+00 -0.23360335708E+03  0.28506924225E+03  0.12500000000E+03 0.  0.
         25    1    1    2    0    0 -0.23538113695E+02  0.14626572001E+02 -0.41293162612E+03  0.43232569580E+03  0.12500000000E+03 0.  0.
</event>
<event>
 5    0  0.5771525E-005  0.2316050E+03  0.7546771E-02  0.1125515E+00
         21   -1    0    0  502  501  0.00000000000E+00  0.00000000000E+00  0.83142763924E+02  0.83142763924E+02  0.00000000000E+00 0.  1.
         21   -1    0    0  501  502 -0.00000000000E+00 -0.00000000000E+00 -0.64516592915E+03  0.64516592915E+03  0.00000000000E+00 0.  1.
         25    1    1    2    0    0 -0.94882541609E+02 -0.45348958000E+02 -0.21994502610E+03  0.27397087291E+03  0.12500000000E+03 0.  0.
         25    1    1    2    0    0  0.61722539422E+02  0.73784510281E+02 -0.13038532902E+03  0.20464398319E+03  0.12500000000E+03 0.  0.
         25    1    1    2    0    0  0.33160002187E+02 -0.28435552282E+02 -0.21169281010E+03  0.24969383699E+03  0.12500000000E+03 0.  0.
</event>
<event>
 5    0  0.5771525E-005  0.4965596E+03  0.7546771E-02  0.1014681E+00
         21   -1    0    0  502  501  0.00000000000E+00  0.00000000000E+00  0.17214656555E+03  0.17214656555E+03  0.00000000000E+00 0. -1.
         21   -1    0    0  501  502 -0.00000000000E+00 -0.00000000000E+00 -0.14323341327E+04  0.14323341327E+04  0.00000000000E+00 0. -1.
         25    1    1    2    0    0  0.17918861038E+03 -0.46192086055E+02 -0.50243479987E+02  0.22889227637E+03  0.12500000000E+03 0.  0.
         25    1    1    2    0    0 -0.29722335715E+03  0.13109385702E+03 -0.11017537055E+04  0.11554278649E+04  0.12500000000E+03 0.  0.
         25    1    1    2    0    0  0.11803474678E+03 -0.84901770961E+02 -0.10819038163E+03  0.22016055695E+03  0.12500000000E+03 0.  0.
</event>
<event>
 5    0  0.5771525E-005  0.2314371E+03  0.7546771E-02  0.1125632E+00
         21   -1    0    0  502  501  0.00000000000E+00  0.00000000000E+00  0.11857343640E+03  0.11857343640E+03  0.00000000000E+00 0. -1.
         21   -1    0    0  501  502 -0.00000000000E+00 -0.00000000000E+00 -0.45172961862E+03  0.45172961862E+03  0.00000000000E+00 0. -1.
         25    1    1    2    0    0  0.79718461691E+02 -0.20571353241E+02 -0.48682469958E+02  0.15739503356E+03  0.12500000000E+03 0.  0.
         25    1    1    2    0    0 -0.46976765431E+01 -0.51580063613E+02 -0.14851564333E+03  0.20090910243E+03  0.12500000000E+03 0.  0.
         25    1    1    2    0    0 -0.75020785148E+02  0.72151416854E+02 -0.13595806894E+03  0.21199891903E+03  0.12500000000E+03 0.  0.
</event>
<event>
 5    0  0.5771525E-005  0.2741749E+03  0.7546771E-02  0.1098914E+00
         21   -1    0    0  502  501  0.00000000000E+00  0.00000000000E+00  0.11866914167E+03  0.11866914167E+03  0.00000000000E+00 0.  1.
         21   -1    0    0  501  502 -0.00000000000E+00 -0.00000000000E+00 -0.63345786526E+03  0.63345786526E+03  0.00000000000E+00 0.  1.
         25    1    1    2    0    0  0.78571813939E+02  0.60690981470E+02 -0.25578775886E+03  0.30151169589E+03  0.12500000000E+03 0.  0.
         25    1    1    2    0    0  0.11242244841E+02 -0.12095932451E+03 -0.44655736468E+02  0.17993521349E+03  0.12500000000E+03 0.  0.
         25    1    1    2    0    0 -0.89814058780E+02  0.60268343042E+02 -0.21434522827E+03  0.27068009755E+03  0.12500000000E+03 0.  0.
</event>
<event>
 5    0  0.5771525E-005  0.3341052E+03  0.7546771E-02  0.1069335E+00
         21   -1    0    0  502  501  0.00000000000E+00  0.00000000000E+00  0.47706830482E+03  0.47706830482E+03  0.00000000000E+00 0. -1.
         21   -1    0    0  501  502 -0.00000000000E+00 -0.00000000000E+00 -0.23398387800E+03  0.23398387800E+03  0.00000000000E+00 0. -1.
         25    1    1    2    0    0  0.97219809519E+02  0.81822767478E+02 -0.39251146932E+02  0.18251659973E+03  0.12500000000E+03 0.  0.
         25    1    1    2    0    0 -0.12350445668E+02 -0.10810331118E+03  0.32887694053E+03  0.36827150502E+03  0.12500000000E+03 0.  0.
         25    1    1    2    0    0 -0.84869363850E+02  0.26280543703E+02 -0.46541366785E+02  0.16026407807E+03  0.12500000000E+03 0.  0.
</event>
<event>
 5    0  0.5771525E-005  0.2762320E+03  0.7546771E-02  0.1097765E+00
         21   -1    0    0  502  501  0.00000000000E+00  0.00000000000E+00  0.23407611998E+03  0.23407611998E+03  0.00000000000E+00 0.  1.
         21   -1    0    0  501  502 -0.00000000000E+00 -0.00000000000E+00 -0.32597991367E+03  0.32597991367E+03  0.00000000000E+00 0.  1.
         25    1    1    2    0    0  0.29788573405E+02 -0.82110400379E+02  0.94192555112E+01  0.15278481381E+03  0.12500000000E+03 0.  0.
         25    1    1    2    0    0 -0.91737439991E+02  0.13495887659E+03 -0.14531586956E+03  0.25173668428E+03  0.12500000000E+03 0.  0.
         25    1    1    2    0    0  0.61948866586E+02 -0.52848476215E+02  0.43992820358E+02  0.15553453556E+03  0.12500000000E+03 0.  0.
</event>
<event>
 5    0  0.5771525E-005  0.3501253E+03  0.7546771E-02  0.1062564E+00
         21   -1    0    0  502  501  0.00000000000E+00  0.00000000000E+00  0.90599836892E+02  0.90599836892E+02  0.00000000000E+00 0.  1.
         21   -1    0    0  501  502 -0.00000000000E+00 -0.00000000000E+00 -0.13530676635E+04  0.13530676635E+04  0.00000000000E+00 0.  1.
         25    1    1    2    0    0 -0.39590663433E+02 -0.25796180585E+02 -0.49999028409E+03  0.51754047933E+03  0.12500000000E+03 0.  0.
         25    1    1    2    0    0  0.24498738486E+03  0.20725467486E+02 -0.31955472847E+03  0.42212390152E+03  0.12500000000E+03 0.  0.
         25    1    1    2    0    0 -0.20539672143E+03  0.50707130990E+01 -0.44292281406E+03  0.50400311955E+03  0.12500000000E+03 0.  0.
</event>
<event>
 5    0  0.5771525E-005  0.3317915E+03  0.7546771E-02  0.1070347E+00
         21   -1    0    0  502  501  0.00000000000E+00  0.00000000000E+00  0.23836909527E+03  0.23836909527E+03  0.00000000000E+00 0. -1.
         21   -1    0    0  501  502 -0.00000000000E+00 -0.00000000000E+00 -0.46182827456E+03  0.46182827456E+03  0.00000000000E+00 0. -1.
         25    1    1    2    0    0 -0.16724166455E+03 -0.14324098047E+03  0.42536360247E+02  0.25675298399E+03  0.12500000000E+03 0.  0.
         25    1    1    2    0    0  0.79242919219E+02  0.92332993431E+02 -0.20969920702E+03  0.27277019512E+03  0.12500000000E+03 0.  0.
         25    1    1    2    0    0  0.87998745326E+02  0.50907987036E+02 -0.56296332520E+02  0.17067419072E+03  0.12500000000E+03 0.  0.
</event>
<event>
 5    0  0.5771525E-005  0.2267755E+03  0.7546771E-02  0.1128930E+00
         21   -1    0    0  502  501  0.00000000000E+00  0.00000000000E+00  0.40852453222E+03  0.40852453222E+03  0.00000000000E+00 0. -1.
         21   -1    0    0  501  502 -0.00000000000E+00 -0.00000000000E+00 -0.12588502514E+03  0.12588502514E+03  0.00000000000E+00 0. -1.
         25    1    1    2    0    0  0.14736118525E+02 -0.82258104686E+02  0.10536029154E+03  0.18360103488E+03  0.12500000000E+03 0.  0.
         25    1    1    2    0    0  0.55071322122E+02  0.22631826100E+02  0.12670015184E+03  0.18767785844E+03  0.12500000000E+03 0.  0.
         25    1    1    2    0    0 -0.69807440647E+02  0.59626278586E+02  0.50579063703E+02  0.16313066405E+03  0.12500000000E+03 0.  0.
</event>
<event>
 5    0  0.5771525E-005  0.4120023E+03  0.7546771E-02  0.1039701E+00
         21   -1    0    0  502  501  0.00000000000E+00  0.00000000000E+00  0.22511623209E+03  0.22511623209E+03  0.00000000000E+00 0. -1.
         21   -1    0    0  501  502 -0.00000000000E+00 -0.00000000000E+00 -0.75403669707E+03  0.75403669707E+03  0.00000000000E+00 0. -1.
         25    1    1    2    0    0  0.31032632391E+03 -0.83832537379E+02 -0.12855480818E+03  0.36807833452E+03  0.12500000000E+03 0.  0.
         25    1    1    2    0    0 -0.95694801472E+02  0.11466607027E+03 -0.25759204363E+03  0.32293105091E+03  0.12500000000E+03 0.  0.
         25    1    1    2    0    0 -0.21463152244E+03 -0.30833532887E+02 -0.14277361317E+03  0.28814354373E+03  0.12500000000E+03 0.  0.
</event>
<event>
 5    0  0.5771525E-005  0.5000469E+03  0.7546771E-02  0.1013767E+00
         21   -1    0    0  502  501  0.00000000000E+00  0.00000000000E+00  0.60700905164E+03  0.60700905164E+03  0.00000000000E+00 0.  1.
         21   -1    0    0  501  502 -0.00000000000E+00 -0.00000000000E+00 -0.41193275516E+03  0.41193275516E+03  0.00000000000E+00 0.  1.
         25    1    1    2    0    0 -0.96780494691E+02  0.44112850108E+03  0.70266265578E+02  0.47383875601E+03  0.12500000000E+03 0.  0.
         25    1    1    2    0    0  0.93292755076E+02 -0.22499552330E+03  0.10973844269E+03  0.29494753679E+03  0.12500000000E+03 0.  0.
         25    1    1    2    0    0  0.34877396145E+01 -0.21613297779E+03  0.15071588214E+02  0.25015551400E+03  0.12500000000E+03 0.  0.
</event>
<event>
 5    0  0.5771525E-005  0.6742551E+03  0.7546771E-02  0.9762301E-01
         21   -1    0    0  502  501  0.00000000000E+00  0.00000000000E+00  0.18018253410E+03  0.18018253410E+03  0.00000000000E+00 0.  1.
         21   -1    0    0  501  502 -0.00000000000E+00 -0.00000000000E+00 -0.25231078965E+04  0.25231078965E+04  0.00000000000E+00 0.  1.
         25    1    1    2    0    0  0.55215667943E+02 -0.13518127411E+03  0.21087388877E+02  0.19337120992E+03  0.12500000000E+03 0.  0.
         25    1    1    2    0    0 -0.14766643992E+03  0.44417546696E+01 -0.22830570812E+04  0.22912441473E+04  0.12500000000E+03 0.  0.
         25    1    1    2    0    0  0.92450771977E+02  0.13073951944E+03 -0.80955670062E+02  0.21867507333E+03  0.12500000000E+03 0.  0.
</event>
<event>
 5    0  0.5771525E-005  0.3731402E+03  0.7546771E-02  0.1053499E+00
         21   -1    0    0  502  501  0.00000000000E+00  0.00000000000E+00  0.14619207254E+03  0.14619207254E+03  0.00000000000E+00 0.  1.
         21   -1    0    0  501  502 -0.00000000000E+00 -0.00000000000E+00 -0.95240215075E+03  0.95240215075E+03  0.00000000000E+00 0.  1.
         25    1    1    2    0    0 -0.88272588994E+02 -0.12927365410E+03 -0.24085466258E+03  0.31327255881E+03  0.12500000000E+03 0.  0.
         25    1    1    2    0    0  0.80905270691E+02  0.22875520772E+03 -0.95785405060E+02  0.28926536555E+03  0.12500000000E+03 0.  0.
         25    1    1    2    0    0  0.73673183030E+01 -0.99481553614E+02 -0.46957001056E+03  0.49605629893E+03  0.12500000000E+03 0.  0.
</event>
<event>
 5    0  0.5771525E-005  0.3538343E+03  0.7546771E-02  0.1061052E+00
         21   -1    0    0  502  501  0.00000000000E+00  0.00000000000E+00  0.44562931265E+02  0.44562931265E+02  0.00000000000E+00 0.  1.
         21   -1    0    0  501  502 -0.00000000000E+00 -0.00000000000E+00 -0.28094813427E+04  0.28094813427E+04  0.00000000000E+00 0.  1.
         25    1    1    2    0    0  0.29581305026E+02 -0.25686708052E+03 -0.85364474477E+03  0.90066092451E+03  0.12500000000E+03 0.  0.
         25    1    1    2    0    0 -0.55666833245E+02  0.12214375350E+03 -0.13453307366E+04  0.13577767430E+04  0.12500000000E+03 0.  0.
         25    1    1    2    0    0  0.26085528219E+02  0.13472332702E+03 -0.56594293001E+03  0.59560660646E+03  0.12500000000E+03 0.  0.
</event>
<event>
 5    0  0.6889948E-005  0.3921520E+03  0.7546771E-02  0.1046532E+00
         21   -1    0    0  502  501  0.00000000000E+00  0.00000000000E+00  0.78098460106E+03  0.78098460106E+03  0.00000000000E+00 0.  1.
         21   -1    0    0  501  502 -0.00000000000E+00 -0.00000000000E+00 -0.19690935855E+03  0.19690935855E+03  0.00000000000E+00 0.  1.
         25    1    1    2    0    0 -0.32755518732E+01 -0.21878313919E+03  0.56982486149E+01  0.25206003505E+03  0.12500000000E+03 0.  0.
         25    1    1    2    0    0 -0.37862510520E+02  0.23934827839E+03  0.24397444939E+03  0.36588208487E+03  0.12500000000E+03 0.  0.
         25    1    1    2    0    0  0.41138062394E+02 -0.20565139204E+02  0.33440254450E+03  0.35995183969E+03  0.12500000000E+03 0.  0.
</event>
<event>
 5    0  0.5771525E-005  0.2819316E+03  0.7546771E-02  0.1094639E+00
         21   -1    0    0  502  501  0.00000000000E+00  0.00000000000E+00  0.11570570404E+04  0.11570570404E+04  0.00000000000E+00 0.  1.
         21   -1    0    0  501  502 -0.00000000000E+00 -0.00000000000E+00 -0.68696212108E+02  0.68696212108E+02  0.00000000000E+00 0.  1.
         25    1    1    2    0    0  0.69792359927E+02 -0.27338576401E+01  0.18690659326E+03  0.23545174046E+03  0.12500000000E+03 0.  0.
         25    1    1    2    0    0  0.46529642086E+01  0.11906116437E+03  0.19859610103E+03  0.26317792894E+03  0.12500000000E+03 0.  0.
         25    1    1    2    0    0 -0.74445324136E+02 -0.11632730673E+03  0.70285813396E+03  0.72712358307E+03  0.12500000000E+03 0.  0.
</event>
<event>
 5    0  0.5771525E-005  0.6343450E+03  0.7546771E-02  0.9836606E-01
         21   -1    0    0  502  501  0.00000000000E+00  0.00000000000E+00  0.44969309406E+03  0.44969309406E+03  0.00000000000E+00 0.  1.
         21   -1    0    0  501  502 -0.00000000000E+00 -0.00000000000E+00 -0.89481831719E+03  0.89481831719E+03  0.00000000000E+00 0.  1.
         25    1    1    2    0    0  0.56378846842E+02  0.15190820600E+03 -0.18775089736E+03  0.27772302188E+03  0.12500000000E+03 0.  0.
         25    1    1    2    0    0  0.65213819220E+02  0.26359156583E+03 -0.47900162363E+03  0.56462457548E+03  0.12500000000E+03 0.  0.
         25    1    1    2    0    0 -0.12159266606E+03 -0.41549977183E+03  0.22162729786E+03  0.50216381390E+03  0.12500000000E+03 0.  0.
</event>
<event>
 5    0  0.5771525E-005  0.3349963E+03  0.7546771E-02  0.1068947E+00
         21   -1    0    0  502  501  0.00000000000E+00  0.00000000000E+00  0.48034643206E+03  0.48034643206E+03  0.00000000000E+00 0. -1.
         21   -1    0    0  501  502 -0.00000000000E+00 -0.00000000000E+00 -0.23362826130E+03  0.23362826130E+03  0.00000000000E+00 0. -1.
         25    1    1    2    0    0  0.75689868686E+02  0.25472735093E+03  0.74026810581E+02  0.30285301422E+03  0.12500000000E+03 0.  0.
         25    1    1    2    0    0 -0.76357212212E+02 -0.13197971081E+03  0.78539250257E+02  0.21223214119E+03  0.12500000000E+03 0.  0.
         25    1    1    2    0    0  0.66734352571E+00 -0.12274764013E+03  0.94152109919E+02  0.19888953795E+03  0.12500000000E+03 0.  0.
</event>
<event>
 5    0  0.5771525E-005  0.3063083E+03  0.7546771E-02  0.1082129E+00
         21   -1    0    0  502  501  0.00000000000E+00  0.00000000000E+00  0.27787295245E+03  0.27787295245E+03  0.00000000000E+00 0. -1.
         21   -1    0    0  501  502 -0.00000000000E+00 -0.00000000000E+00 -0.33765347946E+03  0.33765347946E+03  0.00000000000E+00 0. -1.
         25    1    1    2    0    0 -0.16753219463E+03 -0.67985680169E+02 -0.54771080105E+02  0.22652584877E+03  0.12500000000E+03 0.  0.
         25    1    1    2    0    0  0.19622438376E+03 -0.79878216353E+01 -0.39185644360E+02  0.23606848328E+03  0.12500000000E+03 0.  0.
         25    1    1    2    0    0 -0.28692189133E+02  0.75973501805E+02  0.34176197456E+02  0.15293209986E+03  0.12500000000E+03 0.  0.
</event>
<event>
 5    0  0.5771525E-005  0.4059682E+03  0.7546771E-02  0.1041732E+00
         21   -1    0    0  502  501  0.00000000000E+00  0.00000000000E+00  0.13898086117E+03  0.13898086117E+03  0.00000000000E+00 0. -1.
         21   -1    0    0  501  502 -0.00000000000E+00 -0.00000000000E+00 -0.11858480901E+04  0.11858480901E+04  0.00000000000E+00 0. -1.
         25    1    1    2    0    0 -0.24314967122E+03  0.74900138665E+02 -0.27592269434E+03  0.39558832976E+03  0.12500000000E+03 0.  0.
         25    1    1    2    0    0 -0.70990785934E+02 -0.85302856665E+02 -0.16268692400E+03  0.23325587728E+03  0.12500000000E+03 0.  0.
         25    1    1    2    0    0  0.31414045716E+03  0.10402718000E+02 -0.60825761056E+03  0.69598474421E+03  0.12500000000E+03 0.  0.
</event>
<event>
 5    0  0.5771525E-005  0.3834990E+03  0.7546771E-02  0.1049648E+00
         21   -1    0    0  502  501  0.00000000000E+00  0.00000000000E+00  0.66441780011E+03  0.66441780011E+03  0.00000000000E+00 0. -1.
         21   -1    0    0  501  502 -0.00000000000E+00 -0.00000000000E+00 -0.22135394842E+03  0.22135394842E+03  0.00000000000E+00 0. -1.
         25    1    1    2    0    0 -0.18128154782E+03  0.15521779507E+03  0.32992420311E+03  0.42594664371E+03  0.12500000000E+03 0.  0.
         25    1    1    2    0    0  0.19671206100E+02 -0.18673780896E+03  0.30104287425E+01  0.22559261585E+03  0.12500000000E+03 0.  0.
         25    1    1    2    0    0  0.16161034172E+03  0.31520013890E+02  0.11012921984E+03  0.23423248897E+03  0.12500000000E+03 0.  0.
</event>
<event>
 5    0  0.5771525E-005  0.5380960E+03  0.7546771E-02  0.1004287E+00
         21   -1    0    0  502  501  0.00000000000E+00  0.00000000000E+00  0.24278336410E+03  0.24278336410E+03  0.00000000000E+00 0. -1.
         21   -1    0    0  501  502 -0.00000000000E+00 -0.00000000000E+00 -0.11926157944E+04  0.11926157944E+04  0.00000000000E+00 0. -1.
         25    1    1    2    0    0 -0.18249420592E+03 -0.65181729576E+02 -0.99354263156E+02  0.25109572412E+03  0.12500000000E+03 0.  0.
         25    1    1    2    0    0 -0.41055143999E+02  0.92786923501E+02 -0.90649128112E+03  0.92067713167E+03  0.12500000000E+03 0.  0.
         25    1    1    2    0    0  0.22354934991E+03 -0.27605193925E+02  0.56013113935E+02  0.26362630277E+03  0.12500000000E+03 0.  0.
</event>
<event>
 5    0  0.5771525E-005  0.3113090E+03  0.7546771E-02  0.1079720E+00
         21   -1    0    0  502  501  0.00000000000E+00  0.00000000000E+00  0.28644227525E+03  0.28644227525E+03  0.00000000000E+00 0. -1.
         21   -1    0    0  501  502 -0.00000000000E+00 -0.00000000000E+00 -0.33833456873E+03  0.33833456873E+03  0.00000000000E+00 0. -1.
         25    1    1    2    0    0  0.52037274772E+02 -0.13654895990E+03 -0.41707801990E+02  0.19676899441E+03  0.12500000000E+03 0.  0.
         25    1    1    2    0    0  0.42763655555E+02 -0.67469037978E+02 -0.69624897555E+02  0.16387015494E+03  0.12500000000E+03 0.  0.
         25    1    1    2    0    0 -0.94800930327E+02  0.20401799788E+03  0.59440406071E+02  0.26413769463E+03  0.12500000000E+03 0.  0.
</event>
<event>
 5    0  0.5771525E-005  0.5393180E+03  0.7546771E-02  0.1003997E+00
         21   -1    0    0  502  501  0.00000000000E+00  0.00000000000E+00  0.11139256037E+03  0.11139256037E+03  0.00000000000E+00 0. -1.
         21   -1    0    0  501  502 -0.00000000000E+00 -0.00000000000E+00 -0.26111609259E+04  0.26111609259E+04  0.00000000000E+00 0. -1.
         25    1    1    2    0    0  0.57792622890E+02  0.65250516008E+02 -0.87042126379E+02  0.17549629302E+03  0.12500000000E+03 0.  0.
         25    1    1    2    0    0  0.21469398840E+03 -0.16910287488E+02 -0.21658187151E+03  0.33001844425E+03  0.12500000000E+03 0.  0.
         25    1    1    2    0    0 -0.27248661129E+03 -0.48340228520E+02 -0.21961443676E+04  0.22170387490E+04  0.12500000000E+03 0.  0.
</event>
<event>
 5    0  0.5939262E-005  0.2764705E+03  0.7546771E-02  0.1097632E+00
         21   -1    0    0  502  501  0.00000000000E+00  0.00000000000E+00  0.16868214151E+03  0.16868214151E+03  0.00000000000E+00 0. -1.
         21   -1    0    0  501  502 -0.00000000000E+00 -0.00000000000E+00 -0.45313588460E+03  0.45313588460E+03  0.00000000000E+00 0. -1.
         25    1    1    2    0    0 -0.16982641602E+02  0.39703640309E+01 -0.16424065898E+03  0.20713321310E+03  0.12500000000E+03 0.  0.
         25    1    1    2    0    0  0.14971343140E+03  0.58802498223E+02 -0.53152738818E+02  0.21052804797E+03  0.12500000000E+03 0.  0.
         25    1    1    2    0    0 -0.13273078980E+03 -0.62772862254E+02 -0.67060345290E+02  0.20415676503E+03  0.12500000000E+03 0.  0.
</event>
<event>
 5    0  0.6355690E-005  0.3759725E+03  0.7546771E-02  0.1052432E+00
         21   -1    0    0  502  501  0.00000000000E+00  0.00000000000E+00  0.26852529688E+03  0.26852529688E+03  0.00000000000E+00 0.  1.
         21   -1    0    0  501  502 -0.00000000000E+00 -0.00000000000E+00 -0.52641330424E+03  0.52641330424E+03  0.00000000000E+00 0.  1.
         25    1    1    2    0    0 -0.25048163104E+03  0.51042545591E+02 -0.19394347476E+03  0.34436239683E+03  0.12500000000E+03 0.  0.
         25    1    1    2    0    0  0.39024476216E+02 -0.11775306402E+03  0.31177241870E+02  0.17884550383E+03  0.12500000000E+03 0.  0.
         25    1    1    2    0    0  0.21145715483E+03  0.66710518430E+02 -0.95121774467E+02  0.27173070046E+03  0.12500000000E+03 0.  0.
</event>
<event>
 5    0  0.5771525E-005  0.2718981E+03  0.7546771E-02  0.1100198E+00
         21   -1    0    0  502  501  0.00000000000E+00  0.00000000000E+00  0.97050875174E+02  0.97050875174E+02  0.00000000000E+00 0. -1.
         21   -1    0    0  501  502 -0.00000000000E+00 -0.00000000000E+00 -0.76175093383E+03  0.76175093383E+03  0.00000000000E+00 0. -1.
         25    1    1    2    0    0 -0.46421414179E+02 -0.48288922036E+02 -0.24549092973E+03  0.28350937245E+03  0.12500000000E+03 0.  0.
         25    1    1    2    0    0 -0.12610192555E+01  0.27268600774E+02  0.69478706030E+01  0.12813445931E+03  0.12500000000E+03 0.  0.
         25    1    1    2    0    0  0.47682433435E+02  0.21020321261E+02 -0.42615699953E+03  0.44715797724E+03  0.12500000000E+03 0.  0.
</event>
<event>
 5    0  0.5771525E-005  0.3209252E+03  0.7546771E-02  0.1075224E+00
         21   -1    0    0  502  501  0.00000000000E+00  0.00000000000E+00  0.26508558750E+03  0.26508558750E+03  0.00000000000E+00 0. -1.
         21   -1    0    0  501  502 -0.00000000000E+00 -0.00000000000E+00 -0.38852719276E+03  0.38852719276E+03  0.00000000000E+00 0. -1.
         25    1    1    2    0    0  0.10198796765E+03 -0.78809503474E+02  0.12505887090E+03  0.21880860260E+03  0.12500000000E+03 0.  0.
         25    1    1    2    0    0  0.47650626750E+02  0.47130913297E+02 -0.17208699992E+03  0.22300412723E+03  0.12500000000E+03 0.  0.
         25    1    1    2    0    0 -0.14963859440E+03  0.31678590177E+02 -0.76413476236E+02  0.21180005042E+03  0.12500000000E+03 0.  0.
</event>
<event>
 5    0  0.5771525E-005  0.4845322E+03  0.7546771E-02  0.1017897E+00
         21   -1    0    0  502  501  0.00000000000E+00  0.00000000000E+00  0.11166946609E+04  0.11166946609E+04  0.00000000000E+00 0. -1.
         21   -1    0    0  501  502 -0.00000000000E+00 -0.00000000000E+00 -0.21023778222E+03  0.21023778222E+03  0.00000000000E+00 0. -1.
         25    1    1    2    0    0 -0.23091756698E+03  0.26083997467E+03  0.38719794653E+03  0.53563762463E+03  0.12500000000E+03 0.  0.
         25    1    1    2    0    0 -0.83894380070E+02 -0.19371046274E+03  0.27381409322E+03  0.36764271790E+03  0.12500000000E+03 0.  0.
         25    1    1    2    0    0  0.31481194705E+03 -0.67129511936E+02  0.24544483895E+03  0.42365210060E+03  0.12500000000E+03 0.  0.
</event>
<event>
 5    0  0.5771525E-005  0.3430836E+03  0.7546771E-02  0.1065490E+00
         21   -1    0    0  502  501  0.00000000000E+00  0.00000000000E+00  0.16260225361E+04  0.16260225361E+04  0.00000000000E+00 0. -1.
         21   -1    0    0  501  502 -0.00000000000E+00 -0.00000000000E+00 -0.72389131763E+02  0.72389131763E+02  0.00000000000E+00 0. -1.
         25    1    1    2    0    0  0.47428585014E+02  0.13275516736E+03  0.96932713789E+03  0.98746823006E+03  0.12500000000E+03 0.  0.
         25    1    1    2    0    0 -0.12323725737E+03  0.11919477637E+02  0.39066579914E+03  0.42845567119E+03  0.12500000000E+03 0.  0.
         25    1    1    2    0    0  0.75808672357E+02 -0.14467464500E+03  0.19364046733E+03  0.28248776663E+03  0.12500000000E+03 0.  0.
</event>
<event>
 5    0  0.5771525E-005  0.4862816E+03  0.7546771E-02  0.1017423E+00
         21   -1    0    0  502  501  0.00000000000E+00  0.00000000000E+00  0.11633264674E+04  0.11633264674E+04  0.00000000000E+00 0.  1.
         21   -1    0    0  501  502 -0.00000000000E+00 -0.00000000000E+00 -0.20327038831E+03  0.20327038831E+03  0.00000000000E+00 0.  1.
         25    1    1    2    0    0  0.13750575523E+02  0.35315492828E+03  0.46838815294E+03  0.59993328255E+03  0.12500000000E+03 0.  0.
         25    1    1    2    0    0 -0.14434685426E+03 -0.29609490856E+03  0.45181957575E+03  0.57295212561E+03  0.12500000000E+03 0.  0.
         25    1    1    2    0    0  0.13059627874E+03 -0.57060019715E+02  0.39848350352E+02  0.19371144751E+03  0.12500000000E+03 0.  0.
</event>
<event>
 5    0  0.5771525E-005  0.3993206E+03  0.7546771E-02  0.1044015E+00
         21   -1    0    0  502  501  0.00000000000E+00  0.00000000000E+00  0.86294487653E+02  0.86294487653E+02  0.00000000000E+00 0.  1.
         21   -1    0    0  501  502 -0.00000000000E+00 -0.00000000000E+00 -0.18478234736E+04  0.18478234736E+04  0.00000000000E+00 0.  1.
         25    1    1    2    0    0 -0.32480154795E+02  0.73420711787E+02 -0.93418155726E+03  0.94592057981E+03  0.12500000000E+03 0.  0.
         25    1    1    2    0    0 -0.33714246999E+02  0.90814494748E+02 -0.73631908999E+03  0.75311003525E+03  0.12500000000E+03 0.  0.
         25    1    1    2    0    0  0.66194401794E+02 -0.16423520654E+03 -0.91028338687E+02  0.23508734619E+03  0.12500000000E+03 0.  0.
</event>
<event>
 5    0  0.5771525E-005  0.4216903E+03  0.7546771E-02  0.1036518E+00
         21   -1    0    0  502  501  0.00000000000E+00  0.00000000000E+00  0.17994932687E+03  0.17994932687E+03  0.00000000000E+00 0.  1.
         21   -1    0    0  501  502 -0.00000000000E+00 -0.00000000000E+00 -0.98818225277E+03  0.98818225277E+03  0.00000000000E+00 0.  1.
         25    1    1    2    0    0 -0.18912129217E+03  0.13353483696E+03 -0.29915334507E+03  0.39839194231E+03  0.12500000000E+03 0.  0.
         25    1    1    2    0    0  0.89194055316E+02 -0.17950450727E+03 -0.54973811456E+03  0.59834308071E+03  0.12500000000E+03 0.  0.
         25    1    1    2    0    0  0.99927236858E+02  0.45969670311E+02  0.40658533726E+02  0.17139655661E+03  0.12500000000E+03 0.  0.
</event>
<event>
 5    0  0.5771525E-005  0.2468279E+03  0.7546771E-02  0.1115326E+00
         21   -1    0    0  502  501  0.00000000000E+00  0.00000000000E+00  0.71381943001E+03  0.71381943001E+03  0.00000000000E+00 0.  1.
         21   -1    0    0  501  502 -0.00000000000E+00 -0.00000000000E+00 -0.85349347503E+02  0.85349347503E+02  0.00000000000E+00 0.  1.
         25    1    1    2    0    0  0.10684091576E+03 -0.81145532811E+02  0.15808478779E+03  0.24210613150E+03  0.12500000000E+03 0.  0.
         25    1    1    2    0    0 -0.26540830083E+02  0.56409986424E+01  0.24930967429E+03  0.28020804810E+03  0.12500000000E+03 0.  0.
         25    1    1    2    0    0 -0.80300085678E+02  0.75504534169E+02  0.22107562042E+03  0.27685459791E+03  0.12500000000E+03 0.  0.
</event>
<event>
 5    0  0.5771525E-005  0.2464634E+03  0.7546771E-02  0.1115560E+00
         21   -1    0    0  502  501  0.00000000000E+00  0.00000000000E+00  0.24006349175E+03  0.24006349175E+03  0.00000000000E+00 0. -1.
         21   -1    0    0  501  502 -0.00000000000E+00 -0.00000000000E+00 -0.25303402494E+03  0.25303402494E+03  0.00000000000E+00 0. -1.
         25    1    1    2    0    0 -0.48110309811E+02  0.25194712040E+02 -0.11393118162E+03  0.17763639709E+03  0.12500000000E+03 0.  0.
         25    1    1    2    0    0 -0.21331400871E+02 -0.75145217844E+02  0.50354269805E+02  0.15576387552E+03  0.12500000000E+03 0.  0.
         25    1    1    2    0    0  0.69441710682E+02  0.49950505804E+02  0.50606378627E+02  0.15969724409E+03  0.12500000000E+03 0.  0.
</event>
<event>
 5    0  0.5771525E-005  0.3229502E+03  0.7546771E-02  0.1074299E+00
         21   -1    0    0  502  501  0.00000000000E+00  0.00000000000E+00  0.12601853992E+03  0.12601853992E+03  0.00000000000E+00 0.  1.
         21   -1    0    0  501  502 -0.00000000000E+00 -0.00000000000E+00 -0.82763097309E+03  0.82763097309E+03  0.00000000000E+00 0.  1.
         25    1    1    2    0    0 -0.10253937670E+03  0.14276833159E+03 -0.20207423812E+03  0.29556068411E+03  0.12500000000E+03 0.  0.
         25    1    1    2    0    0  0.97178362485E+02 -0.17376302199E+03 -0.13421967538E+03  0.27069751237E+03  0.12500000000E+03 0.  0.
         25    1    1    2    0    0  0.53610142144E+01  0.30994690398E+02 -0.36531851967E+03  0.38739131652E+03  0.12500000000E+03 0.  0.
</event>
<event>
 5    0  0.5771525E-005  0.3484422E+03  0.7546771E-02  0.1063256E+00
         21   -1    0    0  502  501  0.00000000000E+00  0.00000000000E+00  0.14087925080E+03  0.14087925080E+03  0.00000000000E+00 0. -1.
         21   -1    0    0  501  502 -0.00000000000E+00 -0.00000000000E+00 -0.86181574921E+03  0.86181574921E+03  0.00000000000E+00 0. -1.
         25    1    1    2    0    0  0.24263886086E+03 -0.40315672411E+02 -0.46809577179E+03  0.54335772913E+03  0.12500000000E+03 0.  0.
         25    1    1    2    0    0 -0.95520121772E+02 -0.55216265624E+02 -0.12963250897E+03  0.21119307999E+03  0.12500000000E+03 0.  0.
         25    1    1    2    0    0 -0.14711873909E+03  0.95531938035E+02 -0.12320821765E+03  0.24814419089E+03  0.12500000000E+03 0.  0.
</event>
<event>
 5    0  0.6395981E-005  0.2806937E+03  0.7546771E-02  0.1095311E+00
         21   -1    0    0  502  501  0.00000000000E+00  0.00000000000E+00  0.75858010974E+02  0.75858010974E+02  0.00000000000E+00 0. -1.
         21   -1    0    0  501  502 -0.00000000000E+00 -0.00000000000E+00 -0.10386374967E+04  0.10386374967E+04  0.00000000000E+00 0. -1.
         25    1    1    2    0    0 -0.12166525114E+03  0.74042637744E+01 -0.69585663652E+03  0.71742505884E+03  0.12500000000E+03 0.  0.
         25    1    1    2    0    0  0.82719138880E+02  0.17609989465E+02 -0.19181707090E+03  0.24407244079E+03  0.12500000000E+03 0.  0.
         25    1    1    2    0    0  0.38946112256E+02 -0.25014253239E+02 -0.75105778267E+02  0.15299800801E+03  0.12500000000E+03 0.  0.
</event>
<event>
 5    0  0.6294840E-005  0.3774422E+03  0.7546771E-02  0.1051883E+00
         21   -1    0    0  502  501  0.00000000000E+00  0.00000000000E+00  0.22799949652E+03  0.22799949652E+03  0.00000000000E+00 0.  1.
         21   -1    0    0  501  502 -0.00000000000E+00 -0.00000000000E+00 -0.62483753664E+03  0.62483753664E+03  0.00000000000E+00 0.  1.
         25    1    1    2    0    0 -0.15085261519E+03 -0.22555571858E+02 -0.32319001127E+03  0.37860539975E+03  0.12500000000E+03 0.  0.
         25    1    1    2    0    0  0.90595767842E+02 -0.15461770720E+03 -0.11265977672E+03  0.24582809811E+03  0.12500000000E+03 0.  0.
         25    1    1    2    0    0  0.60256847350E+02  0.17717327906E+03  0.39011747876E+02  0.22840353530E+03  0.12500000000E+03 0.  0.
</event>
<event>
 5    0  0.5771525E-005  0.3607264E+03  0.7546771E-02  0.1058297E+00
         21   -1    0    0  502  501  0.00000000000E+00  0.00000000000E+00  0.63969270428E+02  0.63969270428E+02  0.00000000000E+00 0.  1.
         21   -1    0    0  501  502 -0.00000000000E+00 -0.00000000000E+00 -0.20341569168E+04  0.20341569168E+04  0.00000000000E+00 0.  1.
         25    1    1    2    0    0 -0.21696297708E+03  0.41945796973E+02 -0.12588671887E+04  0.12842133709E+04  0.12500000000E+03 0.  0.
         25    1    1    2    0    0  0.16116776996E+03 -0.10493436428E+03 -0.53423973927E+03  0.58139777253E+03  0.12500000000E+03 0.  0.
         25    1    1    2    0    0  0.55795207116E+02  0.62988567305E+02 -0.17708071839E+03  0.23251504376E+03  0.12500000000E+03 0.  0.
</event>
<event>
 5    0  0.5771525E-005  0.8002461E+03  0.7546771E-02  0.9559661E-01
         21   -1    0    0  502  501  0.00000000000E+00  0.00000000000E+00  0.16392592283E+04  0.16392592283E+04  0.00000000000E+00 0.  1.
         21   -1    0    0  501  502 -0.00000000000E+00 -0.00000000000E+00 -0.39066050147E+03  0.39066050147E+03  0.00000000000E+00 0.  1.
         25    1    1    2    0    0  0.50293523281E+02 -0.26068683731E+03 -0.10745788294E+03  0.31250481954E+03  0.12500000000E+03 0.  0.
         25    1    1    2    0    0  0.71710168594E+02  0.62867014709E+03  0.78531921669E+03  0.10162282097E+04  0.12500000000E+03 0.  0.
         25    1    1    2    0    0 -0.12200369187E+03 -0.36798330978E+03  0.57073739303E+03  0.70118670046E+03  0.12500000000E+03 0.  0.
</event>
<event>
 5    0  0.5771525E-005  0.3559643E+03  0.7546771E-02  0.1060193E+00
         21   -1    0    0  502  501  0.00000000000E+00  0.00000000000E+00  0.19829027578E+04  0.19829027578E+04  0.00000000000E+00 0.  1.
         21   -1    0    0  501  502 -0.00000000000E+00 -0.00000000000E+00 -0.63901574459E+02  0.63901574459E+02  0.00000000000E+00 0.  1.
         25    1    1    2    0    0  0.21371208560E+03  0.78730818113E+02  0.61917573605E+03  0.67147225509E+03  0.12500000000E+03 0.  0.
         25    1    1    2    0    0 -0.18491135980E+03  0.81214809428E+02  0.81581646028E+03  0.84968791513E+03  0.12500000000E+03 0.  0.
         25    1    1    2    0    0 -0.28800725798E+02 -0.15994562754E+03  0.48400898705E+03  0.52564416207E+03  0.12500000000E+03 0.  0.
</event>
<event>
 5    0  0.5771525E-005  0.2759572E+03  0.7546771E-02  0.1097918E+00
         21   -1    0    0  502  501  0.00000000000E+00  0.00000000000E+00  0.13517438641E+03  0.13517438641E+03  0.00000000000E+00 0.  1.
         21   -1    0    0  501  502 -0.00000000000E+00 -0.00000000000E+00 -0.56336399978E+03  0.56336399978E+03  0.00000000000E+00 0.  1.
         25    1    1    2    0    0 -0.46898762089E+02  0.16040195385E+03 -0.14607237860E+03  0.25473598190E+03  0.12500000000E+03 0.  0.
         25    1    1    2    0    0 -0.14014891274E+01  0.78018690667E+01 -0.12901069952E+03  0.17980988272E+03  0.12500000000E+03 0.  0.
         25    1    1    2    0    0  0.48300251217E+02 -0.16820382292E+03 -0.15310653525E+03  0.26399252158E+03  0.12500000000E+03 0.  0.
</event>
<event>
 5    0  0.5771525E-005  0.2917896E+03  0.7546771E-02  0.1089418E+00
         21   -1    0    0  502  501  0.00000000000E+00  0.00000000000E+00  0.24089652397E+04  0.24089652397E+04  0.00000000000E+00 0.  1.
         21   -1    0    0  501  502 -0.00000000000E+00 -0.00000000000E+00 -0.35343460665E+02  0.35343460665E+02  0.00000000000E+00 0.  1.
         25    1    1    2    0    0  0.11334805080E+02  0.42621589658E+02  0.98435429091E+03  0.99323886742E+03  0.12500000000E+03 0.  0.
         25    1    1    2    0    0  0.41725818011E+02 -0.16621762879E+03  0.50155559880E+03  0.54456621516E+03  0.12500000000E+03 0.  0.
         25    1    1    2    0    0 -0.53060623091E+02  0.12359603913E+03  0.88771188931E+03  0.90650361777E+03  0.12500000000E+03 0.  0.
</event>
<event>
 5    0  0.5771525E-005  0.3983984E+03  0.7546771E-02  0.1044336E+00
         21   -1    0    0  502  501  0.00000000000E+00  0.00000000000E+00  0.19770255623E+03  0.19770255623E+03  0.00000000000E+00 0. -1.
         21   -1    0    0  501  502 -0.00000000000E+00 -0.00000000000E+00 -0.80282869925E+03  0.80282869925E+03  0.00000000000E+00 0. -1.
         25    1    1    2    0    0  0.24889171532E+03 -0.79465337957E+02 -0.47443145839E+03  0.55585252954E+03  0.12500000000E+03 0.  0.
         25    1    1    2    0    0 -0.52723503950E+02  0.32053701893E+02 -0.15210861035E+03  0.20632313737E+03  0.12500000000E+03 0.  0.
         25    1    1    2    0    0 -0.19616821137E+03  0.47411636064E+02  0.21413925715E+02  0.23835558857E+03  0.12500000000E+03 0.  0.
</event>
<event>
 5    0  0.5771525E-005  0.3289787E+03  0.7546771E-02  0.1071590E+00
         21   -1    0    0  502  501  0.00000000000E+00  0.00000000000E+00  0.18703208385E+03  0.18703208385E+03  0.00000000000E+00 0.  1.
         21   -1    0    0  501  502 -0.00000000000E+00 -0.00000000000E+00 -0.57865474131E+03  0.57865474131E+03  0.00000000000E+00 0.  1.
         25    1    1    2    0    0  0.23833322134E+02 -0.63038276485E+02 -0.32722560572E+03  0.35671199669E+03  0.12500000000E+03 0.  0.
         25    1    1    2    0    0  0.35493486044E+02  0.20390435011E+02  0.11758072221E+03  0.17642500851E+03  0.12500000000E+03 0.  0.
         25    1    1    2    0    0 -0.59326808178E+02  0.42647841474E+02 -0.18197777395E+03  0.23254981996E+03  0.12500000000E+03 0.  0.
</event>
<event>
 5    0  0.5771525E-005  0.2713171E+03  0.7546771E-02  0.1100528E+00
         21   -1    0    0  502  501  0.00000000000E+00  0.00000000000E+00  0.11591123459E+04  0.11591123459E+04  0.00000000000E+00 0. -1.
         21   -1    0    0  501  502 -0.00000000000E+00 -0.00000000000E+00 -0.63508065599E+02  0.63508065599E+02  0.00000000000E+00 0. -1.
         25    1    1    2    0    0  0.19898086526E+02 -0.20405442516E+01  0.31847760831E+03  0.34271429014E+03  0.12500000000E+03 0.  0.
         25    1    1    2    0    0  0.14185774394E+03 -0.60209087500E+02  0.39717072215E+03  0.44398010796E+03  0.12500000000E+03 0.  0.
         25    1    1    2    0    0 -0.16175583046E+03  0.62249631751E+02  0.37995594983E+03  0.43592601340E+03  0.12500000000E+03 0.  0.
</event>
<event>
 5    0  0.5928129E-005  0.3110054E+03  0.7546771E-02  0.1079865E+00
         21   -1    0    0  502  501  0.00000000000E+00  0.00000000000E+00  0.23249044137E+03  0.23249044137E+03  0.00000000000E+00 0. -1.
         21   -1    0    0  501  502 -0.00000000000E+00 -0.00000000000E+00 -0.41603585696E+03  0.41603585696E+03  0.00000000000E+00 0. -1.
         25    1    1    2    0    0  0.12231907612E+03  0.44204297548E+02  0.52242032154E+02  0.18780363742E+03  0.12500000000E+03 0.  0.
         25    1    1    2    0    0 -0.24818916220E+02  0.54690642080E+02 -0.23616958890E+03  0.27387610274E+03  0.12500000000E+03 0.  0.
         25    1    1    2    0    0 -0.97500159905E+02 -0.98894939628E+02  0.38214114611E+00  0.18684655816E+03  0.12500000000E+03 0.  0.
</event>
<event>
 5    0  0.5771525E-005  0.4321178E+03  0.7546771E-02  0.1033193E+00
         21   -1    0    0  502  501  0.00000000000E+00  0.00000000000E+00  0.16440097457E+03  0.16440097457E+03  0.00000000000E+00 0. -1.
         21   -1    0    0  501  502 -0.00000000000E+00 -0.00000000000E+00 -0.11357950985E+04  0.11357950985E+04  0.00000000000E+00 0. -1.
         25    1    1    2    0    0  0.17825296184E+03  0.71472667898E+02 -0.19209071323E+03  0.29900886738E+03  0.12500000000E+03 0.  0.
         25    1    1    2    0    0 -0.21956887978E+03 -0.93178785673E+02 -0.81887254320E+03  0.86201509330E+03  0.12500000000E+03 0.  0.
         25    1    1    2    0    0  0.41315917931E+02  0.21706117775E+02  0.39569132499E+02  0.13917211240E+03  0.12500000000E+03 0.  0.
</event>
<event>
 5    0  0.5771525E-005  0.4161277E+03  0.7546771E-02  0.1038334E+00
         21   -1    0    0  502  501  0.00000000000E+00  0.00000000000E+00  0.78532750359E+03  0.78532750359E+03  0.00000000000E+00 0. -1.
         21   -1    0    0  501  502 -0.00000000000E+00 -0.00000000000E+00 -0.22049692573E+03  0.22049692573E+03  0.00000000000E+00 0.  1.
         25    1    1    2    0    0  0.26185218505E+03  0.11516308490E+03  0.12287110468E+03  0.33548682732E+03  0.12500000000E+03 0.  0.
         25    1    1    2    0    0  0.73684397425E+01 -0.13620796975E+03  0.26796154023E+03  0.32563060662E+03  0.12500000000E+03 0.  0.
         25    1    1    2    0    0 -0.26922062479E+03  0.21044884851E+02  0.17399793296E+03  0.34470699538E+03  0.12500000000E+03 0.  0.
</event>
<event>
 5    0  0.5771525E-005  0.3192693E+03  0.7546771E-02  0.1075986E+00
         21   -1    0    0  502  501  0.00000000000E+00  0.00000000000E+00  0.63153751221E+02  0.63153751221E+02  0.00000000000E+00 0. -1.
         21   -1    0    0  501  502 -0.00000000000E+00 -0.00000000000E+00 -0.16140432031E+04  0.16140432031E+04  0.00000000000E+00 0. -1.
         25    1    1    2    0    0 -0.40784508233E+02  0.11385860416E+02 -0.32506032473E+03  0.35083076924E+03  0.12500000000E+03 0.  0.
         25    1    1    2    0    0 -0.51785076604E+02  0.95322308551E+02 -0.11967158768E+03  0.20424085185E+03  0.12500000000E+03 0.  0.
         25    1    1    2    0    0  0.92569584837E+02 -0.10670816897E+03 -0.11061575394E+04  0.11221253332E+04  0.12500000000E+03 0.  0.
</event>
<event>
 5    0  0.6016497E-005  0.3235393E+03  0.7546771E-02  0.1074032E+00
         21   -1    0    0  502  501  0.00000000000E+00  0.00000000000E+00  0.41916007874E+03  0.41916007874E+03  0.00000000000E+00 0.  1.
         21   -1    0    0  501  502 -0.00000000000E+00 -0.00000000000E+00 -0.24973204472E+03  0.24973204472E+03  0.00000000000E+00 0.  1.
         25    1    1    2    0    0 -0.11696443533E+03  0.65266751823E+01  0.60987805804E+02  0.18184550882E+03  0.12500000000E+03 0.  0.
         25    1    1    2    0    0 -0.75579790452E+02  0.13289432664E+03  0.92285199185E+02  0.21797881724E+03  0.12500000000E+03 0.  0.
         25    1    1    2    0    0  0.19254422578E+03 -0.13942100183E+03  0.16155029032E+02  0.26906779739E+03  0.12500000000E+03 0.  0.
</event>
<event>
 5    0  0.5771525E-005  0.3453069E+03  0.7546771E-02  0.1064558E+00
         21   -1    0    0  502  501  0.00000000000E+00  0.00000000000E+00  0.48862416969E+03  0.48862416969E+03  0.00000000000E+00 0.  1.
         21   -1    0    0  501  502 -0.00000000000E+00 -0.00000000000E+00 -0.24402572500E+03  0.24402572500E+03  0.00000000000E+00 0.  1.
         25    1    1    2    0    0 -0.43741072973E+02 -0.11942805993E+02 -0.13721606260E+03  0.19107370283E+03  0.12500000000E+03 0.  0.
         25    1    1    2    0    0 -0.10465960306E+03 -0.64195980128E+02  0.16152351115E+03  0.23830568821E+03  0.12500000000E+03 0.  0.
         25    1    1    2    0    0  0.14840067604E+03  0.76138786120E+02  0.22029099614E+03  0.30327050364E+03  0.12500000000E+03 0.  0.
</event>
<event>
 5    0  0.5771525E-005  0.2780035E+03  0.7546771E-02  0.1096784E+00
         21   -1    0    0  502  501  0.00000000000E+00  0.00000000000E+00  0.28441339169E+02  0.28441339169E+02  0.00000000000E+00 0. -1.
         21   -1    0    0  501  502 -0.00000000000E+00 -0.00000000000E+00 -0.27173811657E+04  0.27173811657E+04  0.00000000000E+00 0. -1.
         25    1    1    2    0    0 -0.10108193433E+03  0.11161937707E+03 -0.15364458414E+04  0.15488599892E+04  0.12500000000E+03 0.  0.
         25    1    1    2    0    0  0.72162278946E+02 -0.10973666767E+03 -0.83620587281E+03  0.85563706819E+03  0.12500000000E+03 0.  0.
         25    1    1    2    0    0  0.28919655385E+02 -0.18827094092E+01 -0.31628811238E+03  0.34132544748E+03  0.12500000000E+03 0.  0.
</event>
<event>
 5    0  0.5771525E-005  0.2852697E+03  0.7546771E-02  0.1092845E+00
         21   -1    0    0  502  501  0.00000000000E+00  0.00000000000E+00  0.57934308812E+02  0.57934308812E+02  0.00000000000E+00 0. -1.
         21   -1    0    0  501  502 -0.00000000000E+00 -0.00000000000E+00 -0.14046735781E+04  0.14046735781E+04  0.00000000000E+00 0. -1.
         25    1    1    2    0    0  0.12059309718E+03  0.84972523317E+02 -0.68885928688E+03  0.71548245396E+03  0.12500000000E+03 0.  0.
         25    1    1    2    0    0 -0.73973772218E+02  0.11807989395E+02 -0.49262977780E+03  0.51373207566E+03  0.12500000000E+03 0.  0.
         25    1    1    2    0    0 -0.46619324957E+02 -0.96780512712E+02 -0.16525020459E+03  0.23339335727E+03  0.12500000000E+03 0.  0.
</event>
<event>
 5    0  0.5771525E-005  0.3304063E+03  0.7546771E-02  0.1070957E+00
         21   -1    0    0  502  501  0.00000000000E+00  0.00000000000E+00  0.89195931881E+03  0.89195931881E+03  0.00000000000E+00 0.  1.
         21   -1    0    0  501  502 -0.00000000000E+00 -0.00000000000E+00 -0.12239156759E+03  0.12239156759E+03  0.00000000000E+00 0.  1.
         25    1    1    2    0    0 -0.32037132978E+02  0.33771199988E+02 -0.50899344830E+02  0.14276769642E+03  0.12500000000E+03 0.  0.
         25    1    1    2    0    0  0.73008753840E+02 -0.14069332589E+02  0.28654810278E+03  0.32134566975E+03  0.12500000000E+03 0.  0.
         25    1    1    2    0    0 -0.40971620863E+02 -0.19701867399E+02  0.53391899327E+03  0.55023752023E+03  0.12500000000E+03 0.  0.
</event>
<event>
 5    0  0.5771525E-005  0.4219401E+03  0.7546771E-02  0.1036437E+00
         21   -1    0    0  502  501  0.00000000000E+00  0.00000000000E+00  0.75916179050E+03  0.75916179050E+03  0.00000000000E+00 0. -1.
         21   -1    0    0  501  502 -0.00000000000E+00 -0.00000000000E+00 -0.23451322327E+03  0.23451322327E+03  0.00000000000E+00 0. -1.
         25    1    1    2    0    0  0.13473311145E+03  0.10805556757E+03  0.32996687285E+03  0.39285131307E+03  0.12500000000E+03 0.  0.
         25    1    1    2    0    0 -0.23328744658E+03  0.80060142469E+02 -0.15491941282E+02  0.27694342272E+03  0.12500000000E+03 0.  0.
         25    1    1    2    0    0  0.98554335133E+02 -0.18811571004E+03  0.21017363566E+03  0.32388027798E+03  0.12500000000E+03 0.  0.
</event>
<event>
 5    0  0.5771525E-005  0.3167611E+03  0.7546771E-02  0.1077150E+00
         21   -1    0    0  502  501  0.00000000000E+00  0.00000000000E+00  0.29846188316E+03  0.29846188316E+03  0.00000000000E+00 0.  1.
         21   -1    0    0  501  502 -0.00000000000E+00 -0.00000000000E+00 -0.33618233984E+03  0.33618233984E+03  0.00000000000E+00 0.  1.
         25    1    1    2    0    0  0.39212259314E+02 -0.15408915340E+03  0.58362884503E+02  0.21050485687E+03  0.12500000000E+03 0.  0.
         25    1    1    2    0    0 -0.12843220582E+02  0.23144376552E+03 -0.52188204533E+02  0.26847676549E+03  0.12500000000E+03 0.  0.
         25    1    1    2    0    0 -0.26369038732E+02 -0.77354612117E+02 -0.43895136651E+02  0.15566260065E+03  0.12500000000E+03 0.  0.
</event>
<event>
 5    0  0.5771525E-005  0.2387540E+03  0.7546771E-02  0.1120626E+00
         21   -1    0    0  502  501  0.00000000000E+00  0.00000000000E+00  0.41640786302E+03  0.41640786302E+03  0.00000000000E+00 0. -1.
         21   -1    0    0  501  502 -0.00000000000E+00 -0.00000000000E+00 -0.13689332045E+03  0.13689332045E+03  0.00000000000E+00 0. -1.
         25    1    1    2    0    0 -0.61827717611E+02  0.62535923889E+02  0.11151652833E+03  0.18919393365E+03  0.12500000000E+03 0.  0.
         25    1    1    2    0    0 -0.46848061326E+02 -0.78233324772E+02  0.61134682954E+02  0.16636599236E+03  0.12500000000E+03 0.  0.
         25    1    1    2    0    0  0.10867577894E+03  0.15697400883E+02  0.10686333130E+03  0.19774125745E+03  0.12500000000E+03 0.  0.
</event>
<event>
 5    0  0.7326910E-005  0.4018810E+03  0.7546771E-02  0.1043130E+00
         21   -1    0    0  502  501  0.00000000000E+00  0.00000000000E+00  0.51353423800E+03  0.51353423800E+03  0.00000000000E+00 0. -1.
         21   -1    0    0  501  502 -0.00000000000E+00 -0.00000000000E+00 -0.31450348337E+03  0.31450348337E+03  0.00000000000E+00 0. -1.
         25    1    1    2    0    0  0.21739622782E+03 -0.78386364993E+01  0.14361365403E+03  0.28908899273E+03  0.12500000000E+03 0.  0.
         25    1    1    2    0    0 -0.14670584680E+03 -0.16120481414E+03  0.15562556636E+03  0.29555695642E+03  0.12500000000E+03 0.  0.
         25    1    1    2    0    0 -0.70690381023E+02  0.16904345063E+03 -0.10020846577E+03  0.24339177222E+03  0.12500000000E+03 0.  0.
</event>
<event>
 5    0  0.5771525E-005  0.2369697E+03  0.7546771E-02  0.1121828E+00
         21   -1    0    0  502  501  0.00000000000E+00  0.00000000000E+00  0.43959372070E+03  0.43959372070E+03  0.00000000000E+00 0.  1.
         21   -1    0    0  501  502 -0.00000000000E+00 -0.00000000000E+00 -0.12774217939E+03  0.12774217939E+03  0.00000000000E+00 0.  1.
         25    1    1    2    0    0  0.10759011554E+02  0.15762096993E+01  0.12660412777E+03  0.17824658745E+03  0.12500000000E+03 0.  0.
         25    1    1    2    0    0 -0.10037274916E+03 -0.29524167639E+02  0.24452368772E+02  0.16483107591E+03  0.12500000000E+03 0.  0.
         25    1    1    2    0    0  0.89613737601E+02  0.27947957940E+02  0.16079504477E+03  0.22425823673E+03  0.12500000000E+03 0.  0.
</event>
<event>
 5    0  0.5771525E-005  0.5074954E+03  0.7546771E-02  0.1011841E+00
         21   -1    0    0  502  501  0.00000000000E+00  0.00000000000E+00  0.10648334549E+04  0.10648334549E+04  0.00000000000E+00 0.  1.
         21   -1    0    0  501  502 -0.00000000000E+00 -0.00000000000E+00 -0.24187025156E+03  0.24187025156E+03  0.00000000000E+00 0.  1.
         25    1    1    2    0    0  0.11080683691E+03 -0.13128810329E+03  0.25210216601E+03  0.32968958624E+03  0.12500000000E+03 0.  0.
         25    1    1    2    0    0 -0.31974508187E+02  0.41089806826E+03  0.16206503712E+03  0.46016265378E+03  0.12500000000E+03 0.  0.
         25    1    1    2    0    0 -0.78832328726E+02 -0.27960996497E+03  0.40879600018E+03  0.51685146640E+03  0.12500000000E+03 0.  0.
</event>
<event>
 5    0  0.5771525E-005  0.4216277E+03  0.7546771E-02  0.1036538E+00
         21   -1    0    0  502  501  0.00000000000E+00  0.00000000000E+00  0.27169753867E+04  0.27169753867E+04  0.00000000000E+00 0.  1.
         21   -1    0    0  501  502 -0.00000000000E+00 -0.00000000000E+00 -0.65429347922E+02  0.65429347922E+02  0.00000000000E+00 0.  1.
         25    1    1    2    0    0  0.90578133499E+02  0.11837726933E+03  0.10905559946E+04  0.11077702621E+04  0.12500000000E+03 0.  0.
         25    1    1    2    0    0  0.76025812164E+02 -0.29290594480E+03  0.97975598134E+03  0.10330152949E+04  0.12500000000E+03 0.  0.
         25    1    1    2    0    0 -0.16660394566E+03  0.17452867547E+03  0.58123406278E+03  0.64161917756E+03  0.12500000000E+03 0.  0.
</event>
<event>
 5    0  0.5771525E-005  0.2527679E+03  0.7546771E-02  0.1111568E+00
         21   -1    0    0  502  501  0.00000000000E+00  0.00000000000E+00  0.78496961639E+02  0.78496961639E+02  0.00000000000E+00 0. -1.
         21   -1    0    0  501  502 -0.00000000000E+00 -0.00000000000E+00 -0.81393721285E+03  0.81393721285E+03  0.00000000000E+00 0. -1.
         25    1    1    2    0    0  0.52318171776E+02 -0.11522289199E+03 -0.14954942007E+03  0.23238660671E+03  0.12500000000E+03 0.  0.
         25    1    1    2    0    0 -0.26423114442E+02 -0.30840005623E+01 -0.21023469968E+03  0.24603113825E+03  0.12500000000E+03 0.  0.
         25    1    1    2    0    0 -0.25895057333E+02  0.11830689255E+03 -0.37565613146E+03  0.41401642953E+03  0.12500000000E+03 0.  0.
</event>
<event>
 5    0  0.6090499E-005  0.4136894E+03  0.7546771E-02  0.1039140E+00
         21   -1    0    0  502  501  0.00000000000E+00  0.00000000000E+00  0.34191310214E+03  0.34191310214E+03  0.00000000000E+00 0.  1.
         21   -1    0    0  501  502 -0.00000000000E+00 -0.00000000000E+00 -0.50053333432E+03  0.50053333432E+03  0.00000000000E+00 0.  1.
         25    1    1    2    0    0 -0.32515173655E+02  0.17180303459E+03 -0.15294051627E+02  0.21548184895E+03  0.12500000000E+03 0.  0.
         25    1    1    2    0    0  0.21099536132E+03 -0.16885511070E+03  0.86685947389E+02  0.31011376039E+03  0.12500000000E+03 0.  0.
         25    1    1    2    0    0 -0.17848018767E+03 -0.29479238884E+01 -0.23001212794E+03  0.31685082712E+03  0.12500000000E+03 0.  0.
</event>
<event>
 5    0  0.5771525E-005  0.2537982E+03  0.7546771E-02  0.1110928E+00
         21   -1    0    0  502  501  0.00000000000E+00  0.00000000000E+00  0.57151511978E+03  0.57151511978E+03  0.00000000000E+00 0. -1.
         21   -1    0    0  501  502 -0.00000000000E+00 -0.00000000000E+00 -0.11270663490E+03  0.11270663490E+03  0.00000000000E+00 0. -1.
         25    1    1    2    0    0  0.71658284708E+02 -0.30019007649E+02  0.71479168275E+02  0.16361638697E+03  0.12500000000E+03 0.  0.
         25    1    1    2    0    0 -0.99960967063E+02  0.10903075182E+03  0.25465396511E+03  0.31992740071E+03  0.12500000000E+03 0.  0.
         25    1    1    2    0    0  0.28302682354E+02 -0.79011744173E+02  0.13267535150E+03  0.20067796700E+03  0.12500000000E+03 0.  0.
</event>
<event>
 5    0  0.5771525E-005  0.2694750E+03  0.7546771E-02  0.1101580E+00
         21   -1    0    0  502  501  0.00000000000E+00  0.00000000000E+00  0.19341964971E+03  0.19341964971E+03  0.00000000000E+00 0.  1.
         21   -1    0    0  501  502 -0.00000000000E+00 -0.00000000000E+00 -0.37543651854E+03  0.37543651854E+03  0.00000000000E+00 0.  1.
         25    1    1    2    0    0  0.77431172340E+02 -0.52958575814E+02 -0.16343761689E+03  0.22613503005E+03  0.12500000000E+03 0.  0.
         25    1    1    2    0    0 -0.14773854269E+03  0.35074110358E+02  0.23225198101E+01  0.19669078350E+03  0.12500000000E+03 0.  0.
         25    1    1    2    0    0  0.70307370352E+02  0.17884465455E+02 -0.20901771750E+02  0.14603035470E+03  0.12500000000E+03 0.  0.
</event>
<event>
 5    0  0.7983796E-005  0.5002442E+03  0.7546771E-02  0.1013715E+00
         21   -1    0    0  502  501  0.00000000000E+00  0.00000000000E+00  0.58456379493E+03  0.58456379493E+03  0.00000000000E+00 0.  1.
         21   -1    0    0  501  502 -0.00000000000E+00 -0.00000000000E+00 -0.42808709808E+03  0.42808709808E+03  0.00000000000E+00 0.  1.
         25    1    1    2    0    0  0.22175895795E+03  0.18668990962E+03  0.59041706036E+02  0.32115585132E+03  0.12500000000E+03 0.  0.
         25    1    1    2    0    0 -0.62817544228E+02 -0.30646863612E+03  0.24269756505E+03  0.41520618597E+03  0.12500000000E+03 0.  0.
         25    1    1    2    0    0 -0.15894141373E+03  0.11977872650E+03 -0.14526257423E+03  0.27628885571E+03  0.12500000000E+03 0.  0.
</event>
<event>
 5    0  0.5771525E-005  0.3197910E+03  0.7546771E-02  0.1075746E+00
         21   -1    0    0  502  501  0.00000000000E+00  0.00000000000E+00  0.20005393747E+03  0.20005393747E+03  0.00000000000E+00 0. -1.
         21   -1    0    0  501  502 -0.00000000000E+00 -0.00000000000E+00 -0.51119361758E+03  0.51119361758E+03  0.00000000000E+00 0. -1.
         25    1    1    2    0    0  0.15783634235E+03 -0.15019789560E+03 -0.18973850743E+03  0.31479742694E+03  0.12500000000E+03 0.  0.
         25    1    1    2    0    0 -0.12773400016E+03  0.56504396013E+02 -0.14318974867E+03  0.23587502134E+03  0.12500000000E+03 0.  0.
         25    1    1    2    0    0 -0.30102342190E+02  0.93693499587E+02  0.21788575985E+02  0.16057510677E+03  0.12500000000E+03 0.  0.
</event>
<event>
 5    0  0.5771525E-005  0.2878806E+03  0.7546771E-02  0.1091461E+00
         21   -1    0    0  502  501  0.00000000000E+00  0.00000000000E+00  0.50902365949E+03  0.50902365949E+03  0.00000000000E+00 0. -1.
         21   -1    0    0  501  502 -0.00000000000E+00 -0.00000000000E+00 -0.16281213524E+03  0.16281213524E+03  0.00000000000E+00 0. -1.
         25    1    1    2    0    0 -0.14384282216E+03  0.45262697828E+02  0.10308427780E+03  0.22133873956E+03  0.12500000000E+03 0.  0.
         25    1    1    2    0    0  0.17169646841E+03 -0.97279059325E+02  0.19448733839E+03  0.30396252638E+03  0.12500000000E+03 0.  0.
         25    1    1    2    0    0 -0.27853646248E+02  0.52016361497E+02  0.48639908056E+02  0.14653452879E+03  0.12500000000E+03 0.  0.
</event>
<event>
 5    0  0.5771525E-005  0.2040060E+03  0.7546771E-02  0.1146403E+00
         21   -1    0    0  502  501  0.00000000000E+00  0.00000000000E+00  0.42650448131E+03  0.42650448131E+03  0.00000000000E+00 0. -1.
         21   -1    0    0  501  502 -0.00000000000E+00 -0.00000000000E+00 -0.97580309488E+02  0.97580309488E+02  0.00000000000E+00 0. -1.
         25    1    1    2    0    0  0.30805272828E+02  0.27954021211E+02  0.55704154897E+02  0.14303267112E+03  0.12500000000E+03 0.  0.
         25    1    1    2    0    0  0.23622821932E+02 -0.46390272909E+01  0.12998148839E+03  0.18193335487E+03  0.12500000000E+03 0.  0.
         25    1    1    2    0    0 -0.54428094760E+02 -0.23314993920E+02  0.14323852854E+03  0.19911876481E+03  0.12500000000E+03 0.  0.
</event>
<event>
 5    0  0.5771525E-005  0.2910361E+03  0.7546771E-02  0.1089809E+00
         21   -1    0    0  502  501  0.00000000000E+00  0.00000000000E+00  0.11238605371E+04  0.11238605371E+04  0.00000000000E+00 0. -1.
         21   -1    0    0  501  502 -0.00000000000E+00 -0.00000000000E+00 -0.75367029628E+02  0.75367029628E+02  0.00000000000E+00 0. -1.
         25    1    1    2    0    0  0.26907867600E+02 -0.13387114257E+03  0.49451770437E+03  0.52803245742E+03  0.12500000000E+03 0.  0.
         25    1    1    2    0    0  0.40651589772E+01  0.15529816843E+03  0.15846858995E+03  0.25469852892E+03  0.12500000000E+03 0.  0.
         25    1    1    2    0    0 -0.30973026577E+02 -0.21427025861E+02  0.39550721311E+03  0.41649658034E+03  0.12500000000E+03 0.  0.
</event>
<event>
 5    0  0.6572976E-005  0.3030072E+03  0.7546771E-02  0.1083747E+00
         21   -1    0    0  502  501  0.00000000000E+00  0.00000000000E+00  0.25908021146E+03  0.25908021146E+03  0.00000000000E+00 0. -1.
         21   -1    0    0  501  502 -0.00000000000E+00 -0.00000000000E+00 -0.35438206773E+03  0.35438206773E+03  0.00000000000E+00 0. -1.
         25    1    1    2    0    0  0.81948226664E+02  0.70168141378E+02 -0.10546430742E+03  0.19592549619E+03  0.12500000000E+03 0.  0.
         25    1    1    2    0    0 -0.18991494244E+03 -0.20225882971E+02 -0.52031678171E+02  0.23411336407E+03  0.12500000000E+03 0.  0.
         25    1    1    2    0    0  0.10796671577E+03 -0.49942258406E+02  0.62194129319E+02  0.18342341893E+03  0.12500000000E+03 0.  0.
</event>
<event>
 5    0  0.5771525E-005  0.2782387E+03  0.7546771E-02  0.1096655E+00
         21   -1    0    0  502  501  0.00000000000E+00  0.00000000000E+00  0.35713786536E+03  0.35713786536E+03  0.00000000000E+00 0.  1.
         21   -1    0    0  501  502 -0.00000000000E+00 -0.00000000000E+00 -0.21676997202E+03  0.21676997202E+03  0.00000000000E+00 0.  1.
         25    1    1    2    0    0 -0.15012795814E+03  0.23650044381E+02 -0.23785484630E+02  0.19821321271E+03  0.12500000000E+03 0.  0.
         25    1    1    2    0    0  0.11075489263E+03 -0.88699513387E+02  0.69661865827E+02  0.20152425528E+03  0.12500000000E+03 0.  0.
         25    1    1    2    0    0  0.39373065514E+02  0.65049469006E+02  0.94491512141E+02  0.17417036939E+03  0.12500000000E+03 0.  0.
</event>
<event>
 5    0  0.5771525E-005  0.3919532E+03  0.7546771E-02  0.1046602E+00
         21   -1    0    0  502  501  0.00000000000E+00  0.00000000000E+00  0.17349676498E+04  0.17349676498E+04  0.00000000000E+00 0.  1.
         21   -1    0    0  501  502 -0.00000000000E+00 -0.00000000000E+00 -0.88547641313E+02  0.88547641313E+02  0.00000000000E+00 0.  1.
         25    1    1    2    0    0  0.41208057593E+02  0.13392195569E+03  0.11427422580E+03  0.21981081163E+03  0.12500000000E+03 0.  0.
         25    1    1    2    0    0  0.75426046637E+02 -0.23198503767E+03  0.80854209944E+03  0.85373969850E+03  0.12500000000E+03 0.  0.
         25    1    1    2    0    0 -0.11663410423E+03  0.98063081981E+02  0.72360368329E+03  0.74996478103E+03  0.12500000000E+03 0.  0.
</event>
<event>
 5    0  0.5771525E-005  0.3332611E+03  0.7546771E-02  0.1069703E+00
         21   -1    0    0  502  501  0.00000000000E+00  0.00000000000E+00  0.13772404282E+03  0.13772404282E+03  0.00000000000E+00 0. -1.
         21   -1    0    0  501  502 -0.00000000000E+00 -0.00000000000E+00 -0.80641688211E+03  0.80641688211E+03  0.00000000000E+00 0. -1.
         25    1    1    2    0    0 -0.15713818718E+03 -0.18709697205E+03 -0.43616423863E+03  0.51532701257E+03  0.12500000000E+03 0.  0.
         25    1    1    2    0    0  0.11351308973E+03  0.75909978623E+02 -0.14423843363E+03  0.23468547491E+03  0.12500000000E+03 0.  0.
         25    1    1    2    0    0  0.43625097444E+02  0.11118699343E+03 -0.88290167027E+02  0.19412843745E+03  0.12500000000E+03 0.  0.
</event>
<event>
 5    0  0.6650424E-005  0.2646651E+03  0.7546771E-02  0.1104372E+00
         21   -1    0    0  502  501  0.00000000000E+00  0.00000000000E+00  0.19300628701E+03  0.19300628701E+03  0.00000000000E+00 0. -1.
         21   -1    0    0  501  502 -0.00000000000E+00 -0.00000000000E+00 -0.36292925619E+03  0.36292925619E+03  0.00000000000E+00 0. -1.
         25    1    1    2    0    0  0.29250881536E+02 -0.51091498092E+02  0.45287857991E+02  0.14540270056E+03  0.12500000000E+03 0.  0.
         25    1    1    2    0    0 -0.10683995245E+03 -0.18971053359E+02 -0.17861221389E+03  0.24352001818E+03  0.12500000000E+03 0.  0.
         25    1    1    2    0    0  0.77589070912E+02  0.70062551451E+02 -0.36598613279E+02  0.16701282446E+03  0.12500000000E+03 0.  0.
</event>
<event>
 5    0  0.5771525E-005  0.2711607E+03  0.7546771E-02  0.1100617E+00
         21   -1    0    0  502  501  0.00000000000E+00  0.00000000000E+00  0.54503644697E+03  0.54503644697E+03  0.00000000000E+00 0.  1.
         21   -1    0    0  501  502 -0.00000000000E+00 -0.00000000000E+00 -0.13490492314E+03  0.13490492314E+03  0.00000000000E+00 0.  1.
         25    1    1    2    0    0  0.81228227088E+02  0.88267493553E+02  0.23657360093E+03  0.29322558543E+03  0.12500000000E+03 0.  0.
         25    1    1    2    0    0 -0.76751185613E+02 -0.66701550364E+02 -0.12353252490E+02  0.16160892352E+03  0.12500000000E+03 0.  0.
         25    1    1    2    0    0 -0.44770414755E+01 -0.21565943189E+02  0.18591117539E+03  0.22510686116E+03  0.12500000000E+03 0.  0.
</event>
<event>
 5    0  0.5771525E-005  0.3682280E+03  0.7546771E-02  0.1055373E+00
         21   -1    0    0  502  501  0.00000000000E+00  0.00000000000E+00  0.10584209964E+03  0.10584209964E+03  0.00000000000E+00 0. -1.
         21   -1    0    0  501  502 -0.00000000000E+00 -0.00000000000E+00 -0.12810769506E+04  0.12810769506E+04  0.00000000000E+00 0. -1.
         25    1    1    2    0    0  0.18256707680E+03 -0.62228935521E+02 -0.48977795097E+03  0.54102737380E+03  0.12500000000E+03 0.  0.
         25    1    1    2    0    0 -0.22504498116E+02  0.93418983041E+02 -0.60504000123E+03  0.62524552130E+03  0.12500000000E+03 0.  0.
         25    1    1    2    0    0 -0.16006257868E+03 -0.31190047520E+02 -0.80416898734E+02  0.22064615510E+03  0.12500000000E+03 0.  0.
</event>
<event>
 5    0  0.5771525E-005  0.4702446E+03  0.7546771E-02  0.1021851E+00
         21   -1    0    0  502  501  0.00000000000E+00  0.00000000000E+00  0.12165159840E+03  0.12165159840E+03  0.00000000000E+00 0.  1.
         21   -1    0    0  501  502 -0.00000000000E+00 -0.00000000000E+00 -0.18177314894E+04  0.18177314894E+04  0.00000000000E+00 0.  1.
         25    1    1    2    0    0  0.63428081165E+02  0.68577581464E+02 -0.46518092683E+02  0.16283408460E+03  0.12500000000E+03 0.  0.
         25    1    1    2    0    0  0.41699252606E+02  0.25688785052E+03 -0.60560655650E+03  0.67090572862E+03  0.12500000000E+03 0.  0.
         25    1    1    2    0    0 -0.10512733377E+03 -0.32546543198E+03 -0.10439552418E+04  0.11056432746E+04  0.12500000000E+03 0.  0.
</event>
<event>
 5    0  0.5771525E-005  0.3639427E+03  0.7546771E-02  0.1057034E+00
         21   -1    0    0  502  501  0.00000000000E+00  0.00000000000E+00  0.47982765508E+03  0.47982765508E+03  0.00000000000E+00 0. -1.
         21   -1    0    0  501  502 -0.00000000000E+00 -0.00000000000E+00 -0.27604551244E+03  0.27604551244E+03  0.00000000000E+00 0. -1.
         25    1    1    2    0    0  0.13867373263E+03  0.25099483921E+03  0.15965096850E+03  0.35120114632E+03  0.12500000000E+03 0.  0.
         25    1    1    2    0    0 -0.32558762647E+02 -0.57371983814E+02 -0.20575013357E+02  0.14282838908E+03  0.12500000000E+03 0.  0.
         25    1    1    2    0    0 -0.10611496999E+03 -0.19362285539E+03  0.64706187488E+02  0.26184363213E+03  0.12500000000E+03 0.  0.
</event>
<event>
 5    0  0.6277595E-005  0.3641221E+03  0.7546771E-02  0.1056963E+00
         21   -1    0    0  502  501  0.00000000000E+00  0.00000000000E+00  0.18183086979E+03  0.18183086979E+03  0.00000000000E+00 0.  1.
         21   -1    0    0  501  502 -0.00000000000E+00 -0.00000000000E+00 -0.72916617532E+03  0.72916617532E+03  0.00000000000E+00 0.  1.
         25    1    1    2    0    0 -0.18317890777E+03  0.12020124060E+03 -0.41542950819E+03  0.48601391623E+03  0.12500000000E+03 0.  0.
         25    1    1    2    0    0  0.16675681360E+03  0.98750804346E+01 -0.14556141067E+02  0.20914643994E+03  0.12500000000E+03 0.  0.
         25    1    1    2    0    0  0.16422094176E+02 -0.13007632103E+03 -0.11734965627E+03  0.21583668895E+03  0.12500000000E+03 0.  0.
</event>
<event>
 5    0  0.5771525E-005  0.2804543E+03  0.7546771E-02  0.1095441E+00
         21   -1    0    0  502  501  0.00000000000E+00  0.00000000000E+00  0.90645241317E+02  0.90645241317E+02  0.00000000000E+00 0. -1.
         21   -1    0    0  501  502 -0.00000000000E+00 -0.00000000000E+00 -0.86771913209E+03  0.86771913209E+03  0.00000000000E+00 0. -1.
         25    1    1    2    0    0  0.10665712907E+03  0.10269586322E+03 -0.24979141098E+03  0.31613752150E+03  0.12500000000E+03 0.  0.
         25    1    1    2    0    0  0.10328867408E+02 -0.96644224212E+02 -0.11478044947E+03  0.19556672303E+03  0.12500000000E+03 0.  0.
         25    1    1    2    0    0 -0.11698599647E+03 -0.60516390067E+01 -0.41250203032E+03  0.44666012887E+03  0.12500000000E+03 0.  0.
</event>
<event>
 5    0  0.5771525E-005  0.2413158E+03  0.7546771E-02  0.1118919E+00
         21   -1    0    0  502  501  0.00000000000E+00  0.00000000000E+00  0.24838881797E+03  0.24838881797E+03  0.00000000000E+00 0. -1.
         21   -1    0    0  501  502 -0.00000000000E+00 -0.00000000000E+00 -0.23444424976E+03  0.23444424976E+03  0.00000000000E+00 0. -1.
         25    1    1    2    0    0 -0.27733592119E+02  0.57995314999E+02  0.17240297658E+02  0.14161510003E+03  0.12500000000E+03 0.  0.
         25    1    1    2    0    0  0.75643882033E+02 -0.81638402208E+01  0.88886483800E+02  0.17121463775E+03  0.12500000000E+03 0.  0.
         25    1    1    2    0    0 -0.47910289914E+02 -0.49831474778E+02 -0.92182213247E+02  0.17000332996E+03  0.12500000000E+03 0.  0.
</event>
<event>
 5    0  0.5771525E-005  0.2139411E+03  0.7546771E-02  0.1138483E+00
         21   -1    0    0  502  501  0.00000000000E+00  0.00000000000E+00  0.58491227978E+02  0.58491227978E+02  0.00000000000E+00 0. -1.
         21   -1    0    0  501  502 -0.00000000000E+00 -0.00000000000E+00 -0.78252379209E+03  0.78252379209E+03  0.00000000000E+00 0. -1.
         25    1    1    2    0    0  0.61450121266E+02 -0.55389636456E+02 -0.26638244467E+03  0.30566114582E+03  0.12500000000E+03 0.  0.
         25    1    1    2    0    0  0.40144717304E+01  0.13039610655E+01 -0.17901606870E+03  0.21837941559E+03  0.12500000000E+03 0.  0.
         25    1    1    2    0    0 -0.65464592997E+02  0.54085675391E+02 -0.27863405074E+03  0.31697445867E+03  0.12500000000E+03 0.  0.
</event>
<event>
 5    0  0.7088188E-005  0.2719929E+03  0.7546771E-02  0.1100144E+00
         21   -1    0    0  502  501  0.00000000000E+00  0.00000000000E+00  0.52842324276E+03  0.52842324276E+03  0.00000000000E+00 0.  1.
         21   -1    0    0  501  502 -0.00000000000E+00 -0.00000000000E+00 -0.14000162522E+03  0.14000162522E+03  0.00000000000E+00 0.  1.
         25    1    1    2    0    0 -0.73766203589E+02 -0.39209519433E+02  0.63490288965E+02  0.16320188724E+03  0.12500000000E+03 0.  0.
         25    1    1    2    0    0 -0.60040081290E+02 -0.68291557156E+02  0.21866177799E+03  0.26778073361E+03  0.12500000000E+03 0.  0.
         25    1    1    2    0    0  0.13380628488E+03  0.10750107659E+03  0.10626955058E+03  0.23744224713E+03  0.12500000000E+03 0.  0.
</event>
<event>
 5    0  0.5771525E-005  0.2581889E+03  0.7546771E-02  0.1108236E+00
         21   -1    0    0  502  501  0.00000000000E+00  0.00000000000E+00  0.27382760426E+03  0.27382760426E+03  0.00000000000E+00 0.  1.
         21   -1    0    0  501  502 -0.00000000000E+00 -0.00000000000E+00 -0.24344343721E+03  0.24344343721E+03  0.00000000000E+00 0.  1.
         25    1    1    2    0    0 -0.12763047802E+03 -0.15708825499E+02 -0.33836155197E+02  0.18249983977E+03  0.12500000000E+03 0.  0.
         25    1    1    2    0    0  0.85559433025E+00 -0.33162573546E+02  0.75593150942E+02  0.14979924164E+03  0.12500000000E+03 0.  0.
         25    1    1    2    0    0  0.12677488369E+03  0.48871399045E+02 -0.11372828695E+02  0.18497196007E+03  0.12500000000E+03 0.  0.
</event>
<event>
 5    0  0.5771525E-005  0.3383771E+03  0.7546771E-02  0.1067489E+00
         21   -1    0    0  502  501  0.00000000000E+00  0.00000000000E+00  0.17405149915E+04  0.17405149915E+04  0.00000000000E+00 0.  1.
         21   -1    0    0  501  502 -0.00000000000E+00 -0.00000000000E+00 -0.65784591675E+02  0.65784591675E+02  0.00000000000E+00 0.  1.
         25    1    1    2    0    0 -0.97274338662E+02  0.28589096519E+02  0.15971909759E+03  0.22674837053E+03  0.12500000000E+03 0.  0.
         25    1    1    2    0    0 -0.12300779514E+03 -0.34576520295E+02  0.43647204783E+03  0.47165591479E+03  0.12500000000E+03 0.  0.
         25    1    1    2    0    0  0.22028213381E+03  0.59874237756E+01  0.10785392544E+04  0.11078952979E+04  0.12500000000E+03 0.  0.
</event>
<event>
 5    0  0.5771525E-005  0.5772414E+03  0.7546771E-02  0.9953781E-01
         21   -1    0    0  502  501  0.00000000000E+00  0.00000000000E+00  0.18071036710E+04  0.18071036710E+04  0.00000000000E+00 0.  1.
         21   -1    0    0  501  502 -0.00000000000E+00 -0.00000000000E+00 -0.18438764017E+03  0.18438764017E+03  0.00000000000E+00 0. -1.
         25    1    1    2    0    0 -0.41192360876E+01 -0.27108612946E+03  0.78223670478E+03  0.83727171217E+03  0.12500000000E+03 0.  0.
         25    1    1    2    0    0 -0.99106811333E+02  0.48706232491E+03  0.46726510987E+03  0.69355140494E+03  0.12500000000E+03 0.  0.
         25    1    1    2    0    0  0.10322604742E+03 -0.21597619544E+03  0.37321421622E+03  0.46066819410E+03  0.12500000000E+03 0.  0.
</event>
<event>
 5    0  0.5771525E-005  0.4963109E+03  0.7546771E-02  0.1014746E+00
         21   -1    0    0  502  501  0.00000000000E+00  0.00000000000E+00  0.52710360191E+03  0.52710360191E+03  0.00000000000E+00 0. -1.
         21   -1    0    0  501  502 -0.00000000000E+00 -0.00000000000E+00 -0.46731712654E+03  0.46731712654E+03  0.00000000000E+00 0. -1.
         25    1    1    2    0    0 -0.14689993862E+03 -0.82061291587E+02 -0.83854195926E+00  0.20961715268E+03  0.12500000000E+03 0.  0.
         25    1    1    2    0    0  0.43097472740E+03 -0.34648845137E+02  0.17282522372E+02  0.45040364530E+03  0.12500000000E+03 0.  0.
         25    1    1    2    0    0 -0.28407478878E+03  0.11671013672E+03  0.43342494954E+02  0.33439993047E+03  0.12500000000E+03 0.  0.
</event>
<event>
 5    0  0.5771525E-005  0.3425908E+03  0.7546771E-02  0.1065698E+00
         21   -1    0    0  502  501  0.00000000000E+00  0.00000000000E+00  0.11014806354E+04  0.11014806354E+04  0.00000000000E+00 0.  1.
         21   -1    0    0  501  502 -0.00000000000E+00 -0.00000000000E+00 -0.10655519911E+03  0.10655519911E+03  0.00000000000E+00 0.  1.
         25    1    1    2    0    0 -0.21921856931E+03  0.10030230496E+03  0.38745725185E+03  0.47314422275E+03  0.12500000000E+03 0.  0.
         25    1    1    2    0    0  0.24127828697E+03 -0.87861431150E+02  0.40378990157E+03  0.49457671544E+03  0.12500000000E+03 0.  0.
         25    1    1    2    0    0 -0.22059717660E+02 -0.12440873807E+02  0.20367828291E+03  0.24031489636E+03  0.12500000000E+03 0.  0.
</event>
<event>
 5    0  0.5771525E-005  0.2641895E+03  0.7546771E-02  0.1104652E+00
         21   -1    0    0  502  501  0.00000000000E+00  0.00000000000E+00  0.10650323486E+03  0.10650323486E+03  0.00000000000E+00 0.  1.
         21   -1    0    0  501  502 -0.00000000000E+00 -0.00000000000E+00 -0.65534237419E+03  0.65534237419E+03  0.00000000000E+00 0.  1.
         25    1    1    2    0    0 -0.18104251368E+02 -0.89476516522E+02 -0.30838442020E+03  0.34505037538E+03  0.12500000000E+03 0.  0.
         25    1    1    2    0    0 -0.70591073260E+02  0.10856577124E+03 -0.90238684823E+02  0.20133962985E+03  0.12500000000E+03 0.  0.
         25    1    1    2    0    0  0.88695324628E+02 -0.19089254718E+02 -0.15021603431E+03  0.21545560382E+03  0.12500000000E+03 0.  0.
</event>
<event>
 5    0  0.5771525E-005  0.2991591E+03  0.7546771E-02  0.1085662E+00
         21   -1    0    0  502  501  0.00000000000E+00  0.00000000000E+00  0.47038473165E+03  0.47038473165E+03  0.00000000000E+00 0. -1.
         21   -1    0    0  501  502 -0.00000000000E+00 -0.00000000000E+00 -0.19026164664E+03  0.19026164664E+03  0.00000000000E+00 0. -1.
         25    1    1    2    0    0  0.14273482443E+01  0.67183719375E+02  0.97285706561E+02  0.17206161156E+03  0.12500000000E+03 0.  0.
         25    1    1    2    0    0 -0.15479025949E+03  0.53285509812E+02  0.23225355290E+02  0.20727707813E+03  0.12500000000E+03 0.  0.
         25    1    1    2    0    0  0.15336291125E+03 -0.12046922919E+03  0.15961202316E+03  0.28130768860E+03  0.12500000000E+03 0.  0.
</event>
<event>
 5    0  0.5771525E-005  0.2631473E+03  0.7546771E-02  0.1105267E+00
         21   -1    0    0  502  501  0.00000000000E+00  0.00000000000E+00  0.36105378272E+03  0.36105378272E+03  0.00000000000E+00 0.  1.
         21   -1    0    0  501  502 -0.00000000000E+00 -0.00000000000E+00 -0.19179004790E+03  0.19179004790E+03  0.00000000000E+00 0.  1.
         25    1    1    2    0    0  0.29018878119E+02  0.31008760405E+02 -0.42010377956E+02  0.13854064517E+03  0.12500000000E+03 0.  0.
         25    1    1    2    0    0 -0.13697143128E+03 -0.33576348900E+02  0.86841610621E+02  0.20749701089E+03  0.12500000000E+03 0.  0.
         25    1    1    2    0    0  0.10795255316E+03  0.25675884951E+01  0.12443250216E+03  0.20680617456E+03  0.12500000000E+03 0.  0.
</event>
<event>
 5    0  0.5771525E-005  0.2995455E+03  0.7546771E-02  0.1085468E+00
         21   -1    0    0  502  501  0.00000000000E+00  0.00000000000E+00  0.19852713932E+04  0.19852713932E+04  0.00000000000E+00 0. -1.
         21   -1    0    0  501  502 -0.00000000000E+00 -0.00000000000E+00 -0.45196599408E+02  0.45196599408E+02  0.00000000000E+00 0. -1.
         25    1    1    2    0    0  0.32954172077E+02  0.46983437961E+02  0.40976102222E+03  0.43222970309E+03  0.12500000000E+03 0.  0.
         25    1    1    2    0    0 -0.20783628767E+03 -0.26548636095E+02  0.75721867318E+03  0.79555381438E+03  0.12500000000E+03 0.  0.
         25    1    1    2    0    0  0.17488211560E+03 -0.20434801866E+02  0.77309509836E+03  0.80268447512E+03  0.12500000000E+03 0.  0.
</event>
<event>
 5    0  0.5771525E-005  0.3188771E+03  0.7546771E-02  0.1076167E+00
         21   -1    0    0  502  501  0.00000000000E+00  0.00000000000E+00  0.19895446204E+03  0.19895446204E+03  0.00000000000E+00 0.  1.
         21   -1    0    0  501  502 -0.00000000000E+00 -0.00000000000E+00 -0.51108466005E+03  0.51108466005E+03  0.00000000000E+00 0.  1.
         25    1    1    2    0    0  0.15126153632E+03 -0.16343286680E+03 -0.10507120054E+03  0.27614364288E+03  0.12500000000E+03 0.  0.
         25    1    1    2    0    0  0.31212835956E+00  0.66309294367E+02 -0.14649815441E+02  0.14225553429E+03  0.12500000000E+03 0.  0.
         25    1    1    2    0    0 -0.15157366468E+03  0.97123572431E+02 -0.19240918203E+03  0.29163994492E+03  0.12500000000E+03 0.  0.
</event>
<event>
 5    0  0.5771525E-005  0.3148259E+03  0.7546771E-02  0.1078056E+00
         21   -1    0    0  502  501  0.00000000000E+00  0.00000000000E+00  0.52047098711E+03  0.52047098711E+03  0.00000000000E+00 0. -1.
         21   -1    0    0  501  502 -0.00000000000E+00 -0.00000000000E+00 -0.19043398737E+03  0.19043398737E+03  0.00000000000E+00 0. -1.
         25    1    1    2    0    0 -0.10206413945E+03  0.35653713291E+02 -0.21402836982E+02  0.16664740401E+03  0.12500000000E+03 0.  0.
         25    1    1    2    0    0 -0.42836493021E+02  0.10288276887E+03  0.21113702101E+03  0.26948779361E+03  0.12500000000E+03 0.  0.
         25    1    1    2    0    0  0.14490063247E+03 -0.13853648216E+03  0.14030281571E+03  0.27476977686E+03  0.12500000000E+03 0.  0.
</event>
<event>
 5    0  0.6305616E-005  0.3044353E+03  0.7546771E-02  0.1083044E+00
         21   -1    0    0  502  501  0.00000000000E+00  0.00000000000E+00  0.19563999841E+03  0.19563999841E+03  0.00000000000E+00 0.  1.
         21   -1    0    0  501  502 -0.00000000000E+00 -0.00000000000E+00 -0.47373152747E+03  0.47373152747E+03  0.00000000000E+00 0.  1.
         25    1    1    2    0    0  0.12757008641E+03 -0.37983443545E+00  0.31012555397E+02  0.18127617001E+03  0.12500000000E+03 0.  0.
         25    1    1    2    0    0 -0.10635955900E+03 -0.10917760654E+03 -0.10280645193E+03  0.22232020178E+03  0.12500000000E+03 0.  0.
         25    1    1    2    0    0 -0.21210527402E+02  0.10955744098E+03 -0.20629763252E+03  0.26577515409E+03  0.12500000000E+03 0.  0.
</event>
<event>
 5    0  0.5771525E-005  0.2625004E+03  0.7546771E-02  0.1105650E+00
         21   -1    0    0  502  501  0.00000000000E+00  0.00000000000E+00  0.42644462640E+03  0.42644462640E+03  0.00000000000E+00 0. -1.
         21   -1    0    0  501  502 -0.00000000000E+00 -0.00000000000E+00 -0.16158354834E+03  0.16158354834E+03  0.00000000000E+00 0. -1.
         25    1    1    2    0    0 -0.43712717237E+02 -0.76510676925E+02  0.85820477373E+02  0.17537057811E+03  0.12500000000E+03 0.  0.
         25    1    1    2    0    0 -0.10429851785E+03  0.62474333904E+02  0.57889165249E+02  0.18373181182E+03  0.12500000000E+03 0.  0.
         25    1    1    2    0    0  0.14801123508E+03  0.14036343021E+02  0.12115143544E+03  0.22892578480E+03  0.12500000000E+03 0.  0.
</event>
<event>
 5    0  0.5771525E-005  0.3053134E+03  0.7546771E-02  0.1082614E+00
         21   -1    0    0  502  501  0.00000000000E+00  0.00000000000E+00  0.87421514931E+03  0.87421514931E+03  0.00000000000E+00 0. -1.
         21   -1    0    0  501  502 -0.00000000000E+00 -0.00000000000E+00 -0.10662851799E+03  0.10662851799E+03  0.00000000000E+00 0. -1.
         25    1    1    2    0    0 -0.21812839893E+02 -0.13556486083E+03  0.13584681503E+03  0.23007170324E+03  0.12500000000E+03 0.  0.
         25    1    1    2    0    0 -0.12123875515E+03  0.11982626323E+03  0.28163471951E+03  0.35213674097E+03  0.12500000000E+03 0.  0.
         25    1    1    2    0    0  0.14305159504E+03  0.15738597603E+02  0.35010509679E+03  0.39863522310E+03  0.12500000000E+03 0.  0.
</event>
<event>
 5    0  0.6857021E-005  0.3426014E+03  0.7546771E-02  0.1065693E+00
         21   -1    0    0  502  501  0.00000000000E+00  0.00000000000E+00  0.37371307131E+03  0.37371307131E+03  0.00000000000E+00 0. -1.
         21   -1    0    0  501  502 -0.00000000000E+00 -0.00000000000E+00 -0.31407974361E+03  0.31407974361E+03  0.00000000000E+00 0. -1.
         25    1    1    2    0    0  0.50009428185E+02 -0.15993030249E+03  0.13026527963E+03  0.24631826493E+03  0.12500000000E+03 0.  0.
         25    1    1    2    0    0  0.90768341468E+02  0.10601805172E+03 -0.13981972892E+03  0.23378040059E+03  0.12500000000E+03 0.  0.
         25    1    1    2    0    0 -0.14077776965E+03  0.53912250778E+02  0.69187776985E+02  0.20769414940E+03  0.12500000000E+03 0.  0.
</event>
<event>
 5    0  0.5771525E-005  0.3550503E+03  0.7546771E-02  0.1060561E+00
         21   -1    0    0  502  501  0.00000000000E+00  0.00000000000E+00  0.53341733012E+03  0.53341733012E+03  0.00000000000E+00 0.  1.
         21   -1    0    0  501  502 -0.00000000000E+00 -0.00000000000E+00 -0.23632661095E+03  0.23632661095E+03  0.00000000000E+00 0.  1.
         25    1    1    2    0    0 -0.91604616070E+02  0.34885411915E+02  0.88945301392E+02  0.18205676118E+03  0.12500000000E+03 0.  0.
         25    1    1    2    0    0 -0.18511194157E+03 -0.90230261648E+02  0.95167484251E+02  0.25901695135E+03  0.12500000000E+03 0.  0.
         25    1    1    2    0    0  0.27671655764E+03  0.55344849733E+02  0.11297793353E+03  0.32867022854E+03  0.12500000000E+03 0.  0.
</event>
<event>
 5    0  0.5771525E-005  0.3007909E+03  0.7546771E-02  0.1084846E+00
         21   -1    0    0  502  501  0.00000000000E+00  0.00000000000E+00  0.86805253035E+03  0.86805253035E+03  0.00000000000E+00 0.  1.
         21   -1    0    0  501  502 -0.00000000000E+00 -0.00000000000E+00 -0.10422777672E+03  0.10422777672E+03  0.00000000000E+00 0.  1.
         25    1    1    2    0    0  0.39777137146E+01  0.73242858243E+01  0.90475613619E+02  0.15453253389E+03  0.12500000000E+03 0.  0.
         25    1    1    2    0    0  0.13970324041E+02  0.71532960027E+01  0.67892669324E+03  0.69051632449E+03  0.12500000000E+03 0.  0.
         25    1    1    2    0    0 -0.17948037756E+02 -0.14477581827E+02 -0.55775532352E+01  0.12723144869E+03  0.12500000000E+03 0.  0.
</event>
<event>
 5    0  0.5771525E-005  0.2757709E+03  0.7546771E-02  0.1098021E+00
         21   -1    0    0  502  501  0.00000000000E+00  0.00000000000E+00  0.50273715108E+03  0.50273715108E+03  0.00000000000E+00 0. -1.
         21   -1    0    0  501  502 -0.00000000000E+00 -0.00000000000E+00 -0.15127104117E+03  0.15127104117E+03  0.00000000000E+00 0. -1.
         25    1    1    2    0    0  0.88140460752E+02 -0.19769802325E+02  0.15806845829E+03  0.22083981392E+03  0.12500000000E+03 0.  0.
         25    1    1    2    0    0 -0.42766938985E+02 -0.95096426666E+02  0.19932429235E+03  0.25734707100E+03  0.12500000000E+03 0.  0.
         25    1    1    2    0    0 -0.45373521767E+02  0.11486622899E+03 -0.59266407304E+01  0.17582130733E+03  0.12500000000E+03 0.  0.
</event>
<event>
 5    0  0.5771525E-005  0.2196337E+03  0.7546771E-02  0.1134156E+00
         21   -1    0    0  502  501  0.00000000000E+00  0.00000000000E+00  0.20333523621E+03  0.20333523621E+03  0.00000000000E+00 0.  1.
         21   -1    0    0  501  502 -0.00000000000E+00 -0.00000000000E+00 -0.23723854908E+03  0.23723854908E+03  0.00000000000E+00 0.  1.
         25    1    1    2    0    0 -0.34083464500E+02  0.59161532631E+02 -0.23625219549E+01  0.14245122325E+03  0.12500000000E+03 0.  0.
         25    1    1    2    0    0 -0.33764162593E+02 -0.86837980113E+01  0.33128238121E+02  0.13393247248E+03  0.12500000000E+03 0.  0.
         25    1    1    2    0    0  0.67847627093E+02 -0.50477734619E+02 -0.64669029031E+02  0.16419008956E+03  0.12500000000E+03 0.  0.
</event>
<event>
 5    0  0.5771525E-005  0.3767115E+03  0.7546771E-02  0.1052156E+00
         21   -1    0    0  502  501  0.00000000000E+00  0.00000000000E+00  0.12578696675E+04  0.12578696675E+04  0.00000000000E+00 0. -1.
         21   -1    0    0  501  502 -0.00000000000E+00 -0.00000000000E+00 -0.11281893888E+03  0.11281893888E+03  0.00000000000E+00 0.  1.
         25    1    1    2    0    0 -0.19102434977E+03 -0.59617004402E+02  0.11250303344E+03  0.26139323242E+03  0.12500000000E+03 0.  0.
         25    1    1    2    0    0 -0.14386202613E+02  0.94607354842E+02  0.32355441161E+03  0.35981935980E+03  0.12500000000E+03 0.  0.
         25    1    1    2    0    0  0.20541055238E+03 -0.34990350440E+02  0.70899328356E+03  0.74947601415E+03  0.12500000000E+03 0.  0.
</event>
<event>
 5    0  0.6578003E-005  0.3536181E+03  0.7546771E-02  0.1061140E+00
         21   -1    0    0  502  501  0.00000000000E+00  0.00000000000E+00  0.31800673782E+03  0.31800673782E+03  0.00000000000E+00 0.  1.
         21   -1    0    0  501  502 -0.00000000000E+00 -0.00000000000E+00 -0.39321726460E+03  0.39321726460E+03  0.00000000000E+00 0.  1.
         25    1    1    2    0    0 -0.25761297813E+03 -0.26343053440E+02 -0.92499115240E+02  0.30205875138E+03  0.12500000000E+03 0.  0.
         25    1    1    2    0    0  0.87654387979E+02  0.10214026883E+03  0.21543448154E+02  0.18494606351E+03  0.12500000000E+03 0.  0.
         25    1    1    2    0    0  0.16995859015E+03 -0.75797215394E+02 -0.42548596882E+01  0.22421918753E+03  0.12500000000E+03 0.  0.
</event>
<event>
 5    0  0.5771525E-005  0.2651367E+03  0.7546771E-02  0.1104096E+00
         21   -1    0    0  502  501  0.00000000000E+00  0.00000000000E+00  0.15160596865E+03  0.15160596865E+03  0.00000000000E+00 0.  1.
         21   -1    0    0  501  502 -0.00000000000E+00 -0.00000000000E+00 -0.46368554330E+03  0.46368554330E+03  0.00000000000E+00 0.  1.
         25    1    1    2    0    0  0.50784973350E+01  0.91817572253E+02 -0.10634873514E+03  0.18812578552E+03  0.12500000000E+03 0.  0.
         25    1    1    2    0    0 -0.56787547846E+02 -0.97992633662E+01 -0.22908457496E+03  0.26725567091E+03  0.12500000000E+03 0.  0.
         25    1    1    2    0    0  0.51709050511E+02 -0.82018308886E+02  0.23353735452E+02  0.15991005552E+03  0.12500000000E+03 0.  0.
</event>
<event>
 5    0  0.5771525E-005  0.2921274E+03  0.7546771E-02  0.1089244E+00
         21   -1    0    0  502  501  0.00000000000E+00  0.00000000000E+00  0.83305392840E+03  0.83305392840E+03  0.00000000000E+00 0. -1.
         21   -1    0    0  501  502 -0.00000000000E+00 -0.00000000000E+00 -0.10244045645E+03  0.10244045645E+03  0.00000000000E+00 0. -1.
         25    1    1    2    0    0  0.42588240487E+02 -0.86777072594E+02  0.44600182003E+02  0.16418950877E+03  0.12500000000E+03 0.  0.
         25    1    1    2    0    0  0.31756740256E+02 -0.47902011163E+02  0.17107439989E+03  0.21953255686E+03  0.12500000000E+03 0.  0.
         25    1    1    2    0    0 -0.74344980743E+02  0.13467908376E+03  0.51493889006E+03  0.55177231922E+03  0.12500000000E+03 0.  0.
</event>
<event>
 5    0  0.5771525E-005  0.3619144E+03  0.7546771E-02  0.1057828E+00
         21   -1    0    0  502  501  0.00000000000E+00  0.00000000000E+00  0.11659153809E+04  0.11659153809E+04  0.00000000000E+00 0.  1.
         21   -1    0    0  501  502 -0.00000000000E+00 -0.00000000000E+00 -0.11234268597E+03  0.11234268597E+03  0.00000000000E+00 0.  1.
         25    1    1    2    0    0 -0.82758089786E+02 -0.91705460214E+02  0.59890391673E+03  0.62415518449E+03  0.12500000000E+03 0.  0.
         25    1    1    2    0    0 -0.27659018305E+02 -0.97999620389E+02  0.34082894027E+03  0.37703887520E+03  0.12500000000E+03 0.  0.
         25    1    1    2    0    0  0.11041710809E+03  0.18970508060E+03  0.11383983791E+03  0.27706400716E+03  0.12500000000E+03 0.  0.
</event>
<event>
 5    0  0.5771525E-005  0.3878349E+03  0.7546771E-02  0.1048075E+00
         21   -1    0    0  502  501  0.00000000000E+00  0.00000000000E+00  0.21060560885E+03  0.21060560885E+03  0.00000000000E+00 0. -1.
         21   -1    0    0  501  502 -0.00000000000E+00 -0.00000000000E+00 -0.71420673428E+03  0.71420673428E+03  0.00000000000E+00 0. -1.
         25    1    1    2    0    0 -0.17582771358E+03  0.17026205391E+03 -0.23628550438E+03  0.36243674130E+03  0.12500000000E+03 0.  0.
         25    1    1    2    0    0 -0.26754518380E+02  0.55386294285E+02 -0.17092657561E+03  0.22050927440E+03  0.12500000000E+03 0.  0.
         25    1    1    2    0    0  0.20258223196E+03 -0.22564834820E+03 -0.96389045442E+02  0.34186632743E+03  0.12500000000E+03 0.  0.
</event>
<event>
 5    0  0.5963243E-005  0.3187241E+03  0.7546771E-02  0.1076238E+00
         21   -1    0    0  502  501  0.00000000000E+00  0.00000000000E+00  0.34931382364E+03  0.34931382364E+03  0.00000000000E+00 0.  1.
         21   -1    0    0  501  502 -0.00000000000E+00 -0.00000000000E+00 -0.29081307302E+03  0.29081307302E+03  0.00000000000E+00 0.  1.
         25    1    1    2    0    0 -0.99554285608E+02 -0.10996696556E+02  0.19671592926E+03  0.25368117774E+03  0.12500000000E+03 0.  0.
         25    1    1    2    0    0  0.45901369662E+02 -0.10114315683E+03 -0.12666428096E+03  0.20977538936E+03  0.12500000000E+03 0.  0.
         25    1    1    2    0    0  0.53652915946E+02  0.11213985339E+03 -0.11550897680E+02  0.17667032955E+03  0.12500000000E+03 0.  0.
</event>
<event>
 5    0  0.5771525E-005  0.2771153E+03  0.7546771E-02  0.1097275E+00
         21   -1    0    0  502  501  0.00000000000E+00  0.00000000000E+00  0.65408720479E+02  0.65408720479E+02  0.00000000000E+00 0. -1.
         21   -1    0    0  501  502 -0.00000000000E+00 -0.00000000000E+00 -0.11740468285E+04  0.11740468285E+04  0.00000000000E+00 0. -1.
         25    1    1    2    0    0  0.40601632910E+02  0.68529854055E+02 -0.17734679023E+03  0.23113138579E+03  0.12500000000E+03 0.  0.
         25    1    1    2    0    0 -0.10337718298E+03  0.74349566321E+02 -0.33742979975E+03  0.38170482016E+03  0.12500000000E+03 0.  0.
         25    1    1    2    0    0  0.62775550072E+02 -0.14287942038E+03 -0.59386151807E+03  0.62661934307E+03  0.12500000000E+03 0.  0.
</event>
<event>
 5    0  0.5771525E-005  0.2973033E+03  0.7546771E-02  0.1086596E+00
         21   -1    0    0  502  501  0.00000000000E+00  0.00000000000E+00  0.11210771848E+04  0.11210771848E+04  0.00000000000E+00 0. -1.
         21   -1    0    0  501  502 -0.00000000000E+00 -0.00000000000E+00 -0.78843130366E+02  0.78843130366E+02  0.00000000000E+00 0. -1.
         25    1    1    2    0    0 -0.95017779615E+02 -0.86600088065E+02  0.22330469760E+03  0.28638774706E+03  0.12500000000E+03 0.  0.
         25    1    1    2    0    0 -0.33011122488E+02  0.11588768826E+02  0.86848753760E+02  0.15617855103E+03  0.12500000000E+03 0.  0.
         25    1    1    2    0    0  0.12802890210E+03  0.75011319239E+02  0.73208060303E+03  0.75735401703E+03  0.12500000000E+03 0.  0.
</event>
<event>
 5    0  0.5771525E-005  0.3538698E+03  0.7546771E-02  0.1061038E+00
         21   -1    0    0  502  501  0.00000000000E+00  0.00000000000E+00  0.89746633854E+02  0.89746633854E+02  0.00000000000E+00 0. -1.
         21   -1    0    0  501  502 -0.00000000000E+00 -0.00000000000E+00 -0.13953042263E+04  0.13953042263E+04  0.00000000000E+00 0. -1.
         25    1    1    2    0    0  0.10980177491E+03  0.37117282785E+02 -0.73523402922E+02  0.18564701245E+03  0.12500000000E+03 0.  0.
         25    1    1    2    0    0 -0.50763040156E+02  0.12468966850E+02 -0.13047905900E+03  0.18810142535E+03  0.12500000000E+03 0.  0.
         25    1    1    2    0    0 -0.59038734752E+02 -0.49586249635E+02 -0.11015551305E+04  0.11113024223E+04  0.12500000000E+03 0.  0.
</event>
<event>
 5    0  0.6283811E-005  0.5708519E+03  0.7546771E-02  0.9967795E-01
         21   -1    0    0  502  501  0.00000000000E+00  0.00000000000E+00  0.31347010336E+03  0.31347010336E+03  0.00000000000E+00 0.  1.
         21   -1    0    0  501  502 -0.00000000000E+00 -0.00000000000E+00 -0.10395629937E+04  0.10395629937E+04  0.00000000000E+00 0.  1.
         25    1    1    2    0    0 -0.30441696112E+03 -0.13850411208E+03 -0.54727297831E+03  0.65344149552E+03  0.12500000000E+03 0.  0.
         25    1    1    2    0    0  0.36205479804E+02  0.26250777702E+03 -0.23282399180E+03  0.37423679793E+03  0.12500000000E+03 0.  0.
         25    1    1    2    0    0  0.26821148132E+03 -0.12400366493E+03  0.54004079744E+02  0.32535480365E+03  0.12500000000E+03 0.  0.
</event>
<event>
 5    0  0.5771525E-005  0.2244737E+03  0.7546771E-02  0.1130591E+00
         21   -1    0    0  502  501  0.00000000000E+00  0.00000000000E+00  0.22450450617E+03  0.22450450617E+03  0.00000000000E+00 0. -1.
         21   -1    0    0  501  502 -0.00000000000E+00 -0.00000000000E+00 -0.22444297156E+03  0.22444297156E+03  0.00000000000E+00 0. -1.
         25    1    1    2    0    0  0.10170085447E+02 -0.35338553513E+02  0.47489462690E+02  0.13868126430E+03  0.12500000000E+03 0.  0.
         25    1    1    2    0    0 -0.87583951278E+01  0.10499040543E+03 -0.22781169222E+02  0.16505658542E+03  0.12500000000E+03 0.  0.
         25    1    1    2    0    0 -0.14116903188E+01 -0.69651851918E+02 -0.24646758851E+02  0.14520962801E+03  0.12500000000E+03 0.  0.
</event>
<event>
 5    0  0.5771525E-005  0.4209414E+03  0.7546771E-02  0.1036760E+00
         21   -1    0    0  502  501  0.00000000000E+00  0.00000000000E+00  0.75741022354E+03  0.75741022354E+03  0.00000000000E+00 0. -1.
         21   -1    0    0  501  502 -0.00000000000E+00 -0.00000000000E+00 -0.23394409048E+03  0.23394409048E+03  0.00000000000E+00 0. -1.
         25    1    1    2    0    0 -0.14977491106E+03 -0.26990616572E+03  0.17682003148E+03  0.37705727126E+03  0.12500000000E+03 0.  0.
         25    1    1    2    0    0  0.11354517917E+03 -0.22712602566E+02  0.19801006463E+03  0.26123046477E+03  0.12500000000E+03 0.  0.
         25    1    1    2    0    0  0.36229731892E+02  0.29261876828E+03  0.14863603695E+03  0.35306657801E+03  0.12500000000E+03 0.  0.
</event>
<event>
 5    0  0.5771525E-005  0.4639827E+03  0.7546771E-02  0.1023632E+00
         21   -1    0    0  502  501  0.00000000000E+00  0.00000000000E+00  0.10502419919E+04  0.10502419919E+04  0.00000000000E+00 0.  1.
         21   -1    0    0  501  502 -0.00000000000E+00 -0.00000000000E+00 -0.20498130788E+03  0.20498130788E+03  0.00000000000E+00 0.  1.
         25    1    1    2    0    0 -0.13827551814E+03 -0.15551467521E+03  0.32869852749E+03  0.40862287637E+03  0.12500000000E+03 0.  0.
         25    1    1    2    0    0 -0.15490119376E+03 -0.68829030435E+02  0.37843789375E+03  0.43309589548E+03  0.12500000000E+03 0.  0.
         25    1    1    2    0    0  0.29317671190E+03  0.22434370564E+03  0.13812426281E+03  0.41350452796E+03  0.12500000000E+03 0.  0.
</event>
<event>
 5    0  0.5771525E-005  0.4232497E+03  0.7546771E-02  0.1036014E+00
         21   -1    0    0  502  501  0.00000000000E+00  0.00000000000E+00  0.29576590143E+03  0.29576590143E+03  0.00000000000E+00 0. -1.
         21   -1    0    0  501  502 -0.00000000000E+00 -0.00000000000E+00 -0.60568286640E+03  0.60568286640E+03  0.00000000000E+00 0. -1.
         25    1    1    2    0    0  0.26459508765E+03 -0.15785767051E+03  0.55247151508E+02  0.33705615600E+03  0.12500000000E+03 0.  0.
         25    1    1    2    0    0 -0.11270230436E+03  0.15922522670E+03 -0.22399299291E+03  0.32226129631E+03  0.12500000000E+03 0.  0.
         25    1    1    2    0    0 -0.15189278329E+03 -0.13675561937E+01 -0.14117112356E+03  0.24213131552E+03  0.12500000000E+03 0.  0.
</event>
<event>
 5    0  0.5771525E-005  0.2886223E+03  0.7546771E-02  0.1091071E+00
         21   -1    0    0  502  501  0.00000000000E+00  0.00000000000E+00  0.46207119994E+02  0.46207119994E+02  0.00000000000E+00 0. -1.
         21   -1    0    0  501  502 -0.00000000000E+00 -0.00000000000E+00 -0.18028139523E+04  0.18028139523E+04  0.00000000000E+00 0. -1.
         25    1    1    2    0    0  0.63895422685E+00 -0.57972646070E+02 -0.34553798604E+03  0.37199830074E+03  0.12500000000E+03 0.  0.
         25    1    1    2    0    0 -0.20324093488E+02 -0.45457282500E+02 -0.12120628503E+04  0.12195084200E+04  0.12500000000E+03 0.  0.
         25    1    1    2    0    0  0.19685139262E+02  0.10342992857E+03 -0.19900599588E+03  0.25751435150E+03  0.12500000000E+03 0.  0.
</event>
<event>
 5    0  0.5771525E-005  0.2559571E+03  0.7546771E-02  0.1109597E+00
         21   -1    0    0  502  501  0.00000000000E+00  0.00000000000E+00  0.22659338083E+02  0.22659338083E+02  0.00000000000E+00 0. -1.
         21   -1    0    0  501  502 -0.00000000000E+00 -0.00000000000E+00 -0.28912597184E+04  0.28912597184E+04  0.00000000000E+00 0. -1.
         25    1    1    2    0    0  0.15092887490E+03 -0.37829644905E+02 -0.10685106837E+04  0.10869915770E+04  0.12500000000E+03 0.  0.
         25    1    1    2    0    0 -0.12537068286E+03 -0.58505970417E+01 -0.10176995031E+04  0.10330001530E+04  0.12500000000E+03 0.  0.
         25    1    1    2    0    0 -0.25558192039E+02  0.43680241947E+02 -0.78239019359E+03  0.79392732648E+03  0.12500000000E+03 0.  0.
</event>
<event>
 5    0  0.5771525E-005  0.3992452E+03  0.7546771E-02  0.1044041E+00
         21   -1    0    0  502  501  0.00000000000E+00  0.00000000000E+00  0.32433224464E+03  0.32433224464E+03  0.00000000000E+00 0. -1.
         21   -1    0    0  501  502 -0.00000000000E+00 -0.00000000000E+00 -0.49146114508E+03  0.49146114508E+03  0.00000000000E+00 0. -1.
         25    1    1    2    0    0  0.56896156361E+02  0.16419139320E+03 -0.25035212474E+02  0.21551739622E+03  0.12500000000E+03 0.  0.
         25    1    1    2    0    0  0.57472962193E+02  0.50618571711E+02 -0.26305381336E+03  0.30114396874E+03  0.12500000000E+03 0.  0.
         25    1    1    2    0    0 -0.11436911855E+03 -0.21480996491E+03  0.12096012539E+03  0.29913202476E+03  0.12500000000E+03 0.  0.
</event>
<event>
 5    0  0.5771525E-005  0.2222379E+03  0.7546771E-02  0.1132226E+00
         21   -1    0    0  502  501  0.00000000000E+00  0.00000000000E+00  0.19755909611E+03  0.19755909611E+03  0.00000000000E+00 0.  1.
         21   -1    0    0  501  502 -0.00000000000E+00 -0.00000000000E+00 -0.24999949176E+03  0.24999949176E+03  0.00000000000E+00 0.  1.
         25    1    1    2    0    0  0.13075598736E+01 -0.16957165402E+02 -0.10919939219E+03  0.16684952031E+03  0.12500000000E+03 0.  0.
         25    1    1    2    0    0 -0.31326877128E+02  0.20409354328E+02  0.75512666285E+02  0.15074839218E+03  0.12500000000E+03 0.  0.
         25    1    1    2    0    0  0.30019317254E+02 -0.34521889255E+01 -0.18753669747E+02  0.12996067538E+03  0.12500000000E+03 0.  0.
</event>
<event>
 5    0  0.5771525E-005  0.5017385E+03  0.7546771E-02  0.1013326E+00
         21   -1    0    0  502  501  0.00000000000E+00  0.00000000000E+00  0.41821356616E+03  0.41821356616E+03  0.00000000000E+00 0.  1.
         21   -1    0    0  501  502 -0.00000000000E+00 -0.00000000000E+00 -0.60194497083E+03  0.60194497083E+03  0.00000000000E+00 0.  1.
         25    1    1    2    0    0  0.15379349199E+03  0.13476260103E+03 -0.44891616907E+03  0.50888517729E+03  0.12500000000E+03 0.  0.
         25    1    1    2    0    0 -0.51934802982E+02 -0.13159844873E+03 -0.13519266646E+02  0.18927003471E+03  0.12500000000E+03 0.  0.
         25    1    1    2    0    0 -0.10185868901E+03 -0.31641522951E+01  0.27870403104E+03  0.32200332499E+03  0.12500000000E+03 0.  0.
</event>
<event>
 5    0  0.5771525E-005  0.5105820E+03  0.7546771E-02  0.1011053E+00
         21   -1    0    0  502  501  0.00000000000E+00  0.00000000000E+00  0.19859841832E+03  0.19859841832E+03  0.00000000000E+00 0. -1.
         21   -1    0    0  501  502 -0.00000000000E+00 -0.00000000000E+00 -0.13126689163E+04  0.13126689163E+04  0.00000000000E+00 0. -1.
         25    1    1    2    0    0 -0.13610225737E+03 -0.41207062554E+03 -0.78602170619E+03  0.90652145452E+03  0.12500000000E+03 0.  0.
         25    1    1    2    0    0  0.75766671936E+02  0.17794703435E+03 -0.10611623278E+03  0.25355746976E+03  0.12500000000E+03 0.  0.
         25    1    1    2    0    0  0.60335585435E+02  0.23412359119E+03 -0.22193255906E+03  0.35118841039E+03  0.12500000000E+03 0.  0.
</event>
<event>
 5    0  0.6521684E-005  0.3086236E+03  0.7546771E-02  0.1081007E+00
         21   -1    0    0  502  501  0.00000000000E+00  0.00000000000E+00  0.25038047876E+03  0.25038047876E+03  0.00000000000E+00 0.  1.
         21   -1    0    0  501  502 -0.00000000000E+00 -0.00000000000E+00 -0.38041514194E+03  0.38041514194E+03  0.00000000000E+00 0.  1.
         25    1    1    2    0    0  0.51249282625E+02 -0.65565770641E+02  0.37212314255E+02  0.15470977856E+03  0.12500000000E+03 0.  0.
         25    1    1    2    0    0 -0.13286810585E+03  0.16167716121E+03 -0.18496802506E+02  0.24445975070E+03  0.12500000000E+03 0.  0.
         25    1    1    2    0    0  0.81618823225E+02 -0.96111390564E+02 -0.14875017493E+03  0.23162609145E+03  0.12500000000E+03 0.  0.
</event>
<event>
 5    0  0.5771525E-005  0.2789989E+03  0.7546771E-02  0.1096237E+00
         21   -1    0    0  502  501  0.00000000000E+00  0.00000000000E+00  0.54295206433E+03  0.54295206433E+03  0.00000000000E+00 0.  1.
         21   -1    0    0  501  502 -0.00000000000E+00 -0.00000000000E+00 -0.14336514123E+03  0.14336514123E+03  0.00000000000E+00 0.  1.
         25    1    1    2    0    0  0.97997673762E+02 -0.99978518099E+02  0.12846166962E+03  0.22743493291E+03  0.12500000000E+03 0.  0.
         25    1    1    2    0    0 -0.15115266993E+03  0.15691557537E+01  0.10364157560E+03  0.22184717278E+03  0.12500000000E+03 0.  0.
         25    1    1    2    0    0  0.53154996169E+02  0.98409362345E+02  0.16748367788E+03  0.23703509987E+03  0.12500000000E+03 0.  0.
</event>
<event>
 5    0  0.5771525E-005  0.2188268E+03  0.7546771E-02  0.1134761E+00
         21   -1    0    0  502  501  0.00000000000E+00  0.00000000000E+00  0.10788590548E+03  0.10788590548E+03  0.00000000000E+00 0.  1.
         21   -1    0    0  501  502 -0.00000000000E+00 -0.00000000000E+00 -0.44384998971E+03  0.44384998971E+03  0.00000000000E+00 0.  1.
         25    1    1    2    0    0  0.37041952794E+00 -0.18597008842E+02 -0.23940277038E+03  0.27071141907E+03  0.12500000000E+03 0.  0.
         25    1    1    2    0    0 -0.35663209033E+02 -0.10405747920E+02 -0.39821179311E+02  0.13634834209E+03  0.12500000000E+03 0.  0.
         25    1    1    2    0    0  0.35292789505E+02  0.29002756761E+02 -0.56740134546E+02  0.14467613403E+03  0.12500000000E+03 0.  0.
</event>
<event>
 5    0  0.5771525E-005  0.3314869E+03  0.7546771E-02  0.1070481E+00
         21   -1    0    0  502  501  0.00000000000E+00  0.00000000000E+00  0.41392885136E+03  0.41392885136E+03  0.00000000000E+00 0.  1.
         21   -1    0    0  501  502 -0.00000000000E+00 -0.00000000000E+00 -0.26546492311E+03  0.26546492311E+03  0.00000000000E+00 0.  1.
         25    1    1    2    0    0  0.12455966881E+03 -0.23523078581E+02 -0.15212797141E+03  0.23417165927E+03  0.12500000000E+03 0.  0.
         25    1    1    2    0    0 -0.78756155758E+02 -0.23303815124E+02  0.25729020436E+03  0.29760519003E+03  0.12500000000E+03 0.  0.
         25    1    1    2    0    0 -0.45803513051E+02  0.46826893705E+02  0.43301695292E+02  0.14761692517E+03  0.12500000000E+03 0.  0.
</event>
<event>
 5    0  0.5771525E-005  0.4364744E+03  0.7546771E-02  0.1031834E+00
         21   -1    0    0  502  501  0.00000000000E+00  0.00000000000E+00  0.25993181942E+03  0.25993181942E+03  0.00000000000E+00 0. -1.
         21   -1    0    0  501  502 -0.00000000000E+00 -0.00000000000E+00 -0.73292257774E+03  0.73292257774E+03  0.00000000000E+00 0. -1.
         25    1    1    2    0    0 -0.12217474549E+03  0.52147659454E+02 -0.26431321203E+03  0.32114252424E+03  0.12500000000E+03 0.  0.
         25    1    1    2    0    0  0.20210046460E+03  0.16789809676E+02 -0.37122464209E+03  0.44108868767E+03  0.12500000000E+03 0.  0.
         25    1    1    2    0    0 -0.79925719109E+02 -0.68937469130E+02  0.16254709579E+03  0.23062318525E+03  0.12500000000E+03 0.  0.
</event>
<event>
 5    0  0.5771525E-005  0.3481913E+03  0.7546771E-02  0.1063360E+00
         21   -1    0    0  502  501  0.00000000000E+00  0.00000000000E+00  0.79618122096E+03  0.79618122096E+03  0.00000000000E+00 0.  1.
         21   -1    0    0  501  502 -0.00000000000E+00 -0.00000000000E+00 -0.15227337947E+03  0.15227337947E+03  0.00000000000E+00 0.  1.
         25    1    1    2    0    0 -0.20102075067E+03  0.22305087438E+02  0.11156109566E+03  0.26263613078E+03  0.12500000000E+03 0.  0.
         25    1    1    2    0    0  0.59480892846E+02  0.73908594920E+02  0.59818544591E+02  0.16793961800E+03  0.12500000000E+03 0.  0.
         25    1    1    2    0    0  0.14153985782E+03 -0.96213682357E+02  0.47252820124E+03  0.51787885166E+03  0.12500000000E+03 0.  0.
</event>
<event>
 5    0  0.5771525E-005  0.2448450E+03  0.7546771E-02  0.1116607E+00
         21   -1    0    0  502  501  0.00000000000E+00  0.00000000000E+00  0.38917862921E+02  0.38917862921E+02  0.00000000000E+00 0. -1.
         21   -1    0    0  501  502 -0.00000000000E+00 -0.00000000000E+00 -0.15403996103E+04  0.15403996103E+04  0.00000000000E+00 0. -1.
         25    1    1    2    0    0  0.76209018163E+02  0.53340736570E+02 -0.24919878785E+03  0.29390148774E+03  0.12500000000E+03 0.  0.
         25    1    1    2    0    0 -0.27472548144E+02 -0.10984773289E+01 -0.37116371422E+03  0.39261106748E+03  0.12500000000E+03 0.  0.
         25    1    1    2    0    0 -0.48736470019E+02 -0.52242259241E+02 -0.88111924530E+03  0.89280491800E+03  0.12500000000E+03 0.  0.
</event>
<event>
 5    0  0.5771525E-005  0.2421597E+03  0.7546771E-02  0.1118362E+00
         21   -1    0    0  502  501  0.00000000000E+00  0.00000000000E+00  0.15522649769E+04  0.15522649769E+04  0.00000000000E+00 0. -1.
         21   -1    0    0  501  502 -0.00000000000E+00 -0.00000000000E+00 -0.37777906419E+02  0.37777906419E+02  0.00000000000E+00 0. -1.
         25    1    1    2    0    0  0.10995589914E+02 -0.71483906235E+00  0.20872038496E+03  0.24353770363E+03  0.12500000000E+03 0.  0.
         25    1    1    2    0    0  0.58291947093E+02  0.85449438133E+02  0.61587339394E+03  0.63688664214E+03  0.12500000000E+03 0.  0.
         25    1    1    2    0    0 -0.69287537007E+02 -0.84734599070E+02  0.68989329163E+03  0.70961853759E+03  0.12500000000E+03 0.  0.
</event>
<event>
 5    0  0.5771525E-005  0.2586035E+03  0.7546771E-02  0.1107985E+00
         21   -1    0    0  502  501  0.00000000000E+00  0.00000000000E+00  0.16015922539E+04  0.16015922539E+04  0.00000000000E+00 0.  1.
         21   -1    0    0  501  502 -0.00000000000E+00 -0.00000000000E+00 -0.41755812703E+02  0.41755812703E+02  0.00000000000E+00 0.  1.
         25    1    1    2    0    0 -0.77383432307E+02 -0.76330151750E+01  0.11129971575E+04  0.11226905768E+04  0.12500000000E+03 0.  0.
         25    1    1    2    0    0  0.46260422448E+02 -0.21833971930E+02  0.23021581199E+03  0.26691022668E+03  0.12500000000E+03 0.  0.
         25    1    1    2    0    0  0.31123009859E+02  0.29466987105E+02  0.21662347167E+03  0.25374726313E+03  0.12500000000E+03 0.  0.
</event>
<event>
 5    0  0.5860360E-005  0.3320179E+03  0.7546771E-02  0.1070247E+00
         21   -1    0    0  502  501  0.00000000000E+00  0.00000000000E+00  0.69663305614E+03  0.69663305614E+03  0.00000000000E+00 0.  1.
         21   -1    0    0  501  502 -0.00000000000E+00 -0.00000000000E+00 -0.15824099162E+03  0.15824099162E+03  0.00000000000E+00 0.  1.
         25    1    1    2    0    0  0.11872347202E+03 -0.96819677760E+02  0.14358353278E+03  0.24435740974E+03  0.12500000000E+03 0.  0.
         25    1    1    2    0    0 -0.44364954176E+02  0.10726634542E+03  0.42819555847E+03  0.46092380532E+03  0.12500000000E+03 0.  0.
         25    1    1    2    0    0 -0.74358517844E+02 -0.10446667657E+02 -0.33387026722E+02  0.14959283270E+03  0.12500000000E+03 0.  0.
</event>
<event>
 5    0  0.5771525E-005  0.3370658E+03  0.7546771E-02  0.1068053E+00
         21   -1    0    0  502  501  0.00000000000E+00  0.00000000000E+00  0.80153691734E+03  0.80153691734E+03  0.00000000000E+00 0. -1.
         21   -1    0    0  501  502 -0.00000000000E+00 -0.00000000000E+00 -0.14174434067E+03  0.14174434067E+03  0.00000000000E+00 0. -1.
         25    1    1    2    0    0 -0.55443865756E+01 -0.14256909682E+03  0.21607694802E+03  0.28752553810E+03  0.12500000000E+03 0.  0.
         25    1    1    2    0    0 -0.12662668835E+03  0.22180744171E+03  0.25641353905E+03  0.38289131931E+03  0.12500000000E+03 0.  0.
         25    1    1    2    0    0  0.13217107492E+03 -0.79238344883E+02  0.18730208960E+03  0.27286440060E+03  0.12500000000E+03 0.  0.
</event>
<event>
 5    0  0.5771525E-005  0.3336010E+03  0.7546771E-02  0.1069555E+00
         21   -1    0    0  502  501  0.00000000000E+00  0.00000000000E+00  0.65164824739E+02  0.65164824739E+02  0.00000000000E+00 0.  1.
         21   -1    0    0  501  502 -0.00000000000E+00 -0.00000000000E+00 -0.17078178922E+04  0.17078178922E+04  0.00000000000E+00 0.  1.
         25    1    1    2    0    0  0.20017762415E+03 -0.13167343631E+03 -0.76704774785E+03  0.81326270204E+03  0.12500000000E+03 0.  0.
         25    1    1    2    0    0 -0.73593284629E+02  0.13467708158E+01 -0.53208547480E+03  0.55150497534E+03  0.12500000000E+03 0.  0.
         25    1    1    2    0    0 -0.12658433952E+03  0.13032666550E+03 -0.34351984486E+03  0.40821503961E+03  0.12500000000E+03 0.  0.
</event>
<event>
 5    0  0.6504751E-005  0.3000006E+03  0.7546771E-02  0.1085240E+00
         21   -1    0    0  502  501  0.00000000000E+00  0.00000000000E+00  0.39590451438E+03  0.39590451438E+03  0.00000000000E+00 0.  1.
         21   -1    0    0  501  502 -0.00000000000E+00 -0.00000000000E+00 -0.22732847876E+03  0.22732847876E+03  0.00000000000E+00 0.  1.
         25    1    1    2    0    0  0.41806969095E+02  0.54250372222E+02 -0.26402221592E+02  0.14495862464E+03  0.12500000000E+03 0.  0.
         25    1    1    2    0    0 -0.12309260275E+03 -0.35725906126E+02  0.25907900109E+03  0.31492071704E+03  0.12500000000E+03 0.  0.
         25    1    1    2    0    0  0.81285633652E+02 -0.18524466096E+02 -0.64100743873E+02  0.16335365147E+03  0.12500000000E+03 0.  0.
</event>
<event>
 5    0  0.5771525E-005  0.3188240E+03  0.7546771E-02  0.1076192E+00
         21   -1    0    0  502  501  0.00000000000E+00  0.00000000000E+00  0.93839304248E+03  0.93839304248E+03  0.00000000000E+00 0.  1.
         21   -1    0    0  501  502 -0.00000000000E+00 -0.00000000000E+00 -0.10832215561E+03  0.10832215561E+03  0.00000000000E+00 0.  1.
         25    1    1    2    0    0 -0.80366273213E+02  0.10527295661E+03  0.50269335484E+03  0.53466507485E+03  0.12500000000E+03 0.  0.
         25    1    1    2    0    0  0.50448501620E+02 -0.20208030186E+02  0.33090685158E+03  0.35787953311E+03  0.12500000000E+03 0.  0.
         25    1    1    2    0    0  0.29917771594E+02 -0.85064926423E+02 -0.35293195469E+01  0.15417059013E+03  0.12500000000E+03 0.  0.
</event>
<event>
 5    0  0.5858929E-005  0.2517152E+03  0.7546771E-02  0.1112226E+00
         21   -1    0    0  502  501  0.00000000000E+00  0.00000000000E+00  0.21420409484E+03  0.21420409484E+03  0.00000000000E+00 0. -1.
         21   -1    0    0  501  502 -0.00000000000E+00 -0.00000000000E+00 -0.29579514811E+03  0.29579514811E+03  0.00000000000E+00 0. -1.
         25    1    1    2    0    0 -0.92140553168E+02 -0.87336542397E+02 -0.10936224266E+03  0.20905179572E+03  0.12500000000E+03 0.  0.
         25    1    1    2    0    0  0.46663257868E+01  0.62553794706E+02  0.41199557338E+02  0.14579833797E+03  0.12500000000E+03 0.  0.
         25    1    1    2    0    0  0.87474227381E+02  0.24782747690E+02 -0.13428367947E+02  0.15514910926E+03  0.12500000000E+03 0.  0.
</event>
<event>
 5    0  0.8810452E-005  0.3978359E+03  0.7546771E-02  0.1044532E+00
         21   -1    0    0  502  501  0.00000000000E+00  0.00000000000E+00  0.62447755718E+03  0.62447755718E+03  0.00000000000E+00 0. -1.
         21   -1    0    0  501  502 -0.00000000000E+00 -0.00000000000E+00 -0.25344926435E+03  0.25344926435E+03  0.00000000000E+00 0. -1.
         25    1    1    2    0    0 -0.15962149810E+03 -0.17137100813E+03  0.46770754035E+02  0.26955435169E+03  0.12500000000E+03 0.  0.
         25    1    1    2    0    0  0.71132078969E+02  0.96954181045E+02  0.38922668898E+03  0.42612474851E+03  0.12500000000E+03 0.  0.
         25    1    1    2    0    0  0.88489419130E+02  0.74416827084E+02 -0.64969150186E+02  0.18224772132E+03  0.12500000000E+03 0.  0.
</event>
<event>
 5    0  0.5771525E-005  0.2790372E+03  0.7546771E-02  0.1096216E+00
         21   -1    0    0  502  501  0.00000000000E+00  0.00000000000E+00  0.12644035649E+04  0.12644035649E+04  0.00000000000E+00 0.  1.
         21   -1    0    0  501  502 -0.00000000000E+00 -0.00000000000E+00 -0.61579829350E+02  0.61579829350E+02  0.00000000000E+00 0.  1.
         25    1    1    2    0    0  0.61734535030E+02  0.11026049303E+03  0.81751028992E+03  0.83661018596E+03  0.12500000000E+03 0.  0.
         25    1    1    2    0    0 -0.69108810821E+02 -0.10268393331E+03  0.21345839998E+03  0.27660351844E+03  0.12500000000E+03 0.  0.
         25    1    1    2    0    0  0.73742757911E+01 -0.75765597200E+01  0.17185504567E+03  0.21276968986E+03  0.12500000000E+03 0.  0.
</event>
<event>
 5    0  0.5771525E-005  0.5518311E+03  0.7546771E-02  0.1001071E+00
         21   -1    0    0  502  501  0.00000000000E+00  0.00000000000E+00  0.37839340258E+03  0.37839340258E+03  0.00000000000E+00 0. -1.
         21   -1    0    0  501  502 -0.00000000000E+00 -0.00000000000E+00 -0.80476453526E+03  0.80476453526E+03  0.00000000000E+00 0. -1.
         25    1    1    2    0    0  0.31783395634E+03  0.34967589642E+03 -0.63641083244E+01  0.48883244391E+03  0.12500000000E+03 0.  0.
         25    1    1    2    0    0 -0.15148575015E+03 -0.84498529804E+02 -0.13452344239E+03  0.25260540491E+03  0.12500000000E+03 0.  0.
         25    1    1    2    0    0 -0.16634820619E+03 -0.26517736661E+03 -0.28548358197E+03  0.44172008902E+03  0.12500000000E+03 0.  0.
</event>
<event>
 5    0  0.5771525E-005  0.2306019E+03  0.7546771E-02  0.1126217E+00
         21   -1    0    0  502  501  0.00000000000E+00  0.00000000000E+00  0.14906153720E+03  0.14906153720E+03  0.00000000000E+00 0. -1.
         21   -1    0    0  501  502 -0.00000000000E+00 -0.00000000000E+00 -0.35674700624E+03  0.35674700624E+03  0.00000000000E+00 0. -1.
         25    1    1    2    0    0 -0.31956456678E+02 -0.10516859990E+03 -0.79768507517E+02  0.18457969639E+03  0.12500000000E+03 0.  0.
         25    1    1    2    0    0  0.15898277018E+02  0.74724590627E+02 -0.11445852488E+02  0.14694395937E+03  0.12500000000E+03 0.  0.
         25    1    1    2    0    0  0.16058179660E+02  0.30444009274E+02 -0.11647110904E+03  0.17428488768E+03  0.12500000000E+03 0.  0.
</event>
<event>
 5    0  0.5771525E-005  0.3138724E+03  0.7546771E-02  0.1078504E+00
         21   -1    0    0  502  501  0.00000000000E+00  0.00000000000E+00  0.97159215762E+02  0.97159215762E+02  0.00000000000E+00 0.  1.
         21   -1    0    0  501  502 -0.00000000000E+00 -0.00000000000E+00 -0.10139633254E+04  0.10139633254E+04  0.00000000000E+00 0.  1.
         25    1    1    2    0    0  0.15919800961E+03 -0.77243690066E+02 -0.19675794486E+03  0.29265898719E+03  0.12500000000E+03 0.  0.
         25    1    1    2    0    0 -0.10174700171E+03 -0.21916944135E+02 -0.14155581836E+03  0.21562897419E+03  0.12500000000E+03 0.  0.
         25    1    1    2    0    0 -0.57451007895E+02  0.99160634202E+02 -0.57849034642E+03  0.60283457978E+03  0.12500000000E+03 0.  0.
</event>
<event>
 5    0  0.5771525E-005  0.2649701E+03  0.7546771E-02  0.1104193E+00
         21   -1    0    0  502  501  0.00000000000E+00  0.00000000000E+00  0.37941351081E+03  0.37941351081E+03  0.00000000000E+00 0.  1.
         21   -1    0    0  501  502 -0.00000000000E+00 -0.00000000000E+00 -0.18504658415E+03  0.18504658415E+03  0.00000000000E+00 0.  1.
         25    1    1    2    0    0  0.81027597253E+02  0.13796339586E+03  0.60438122084E+02  0.21184224488E+03  0.12500000000E+03 0.  0.
         25    1    1    2    0    0 -0.45664095202E+02 -0.14335746443E+03  0.90612881908E+02  0.21557427158E+03  0.12500000000E+03 0.  0.
         25    1    1    2    0    0 -0.35363502050E+02  0.53940685751E+01  0.43315922662E+02  0.13704357850E+03  0.12500000000E+03 0.  0.
</event>
<event>
 5    0  0.5771525E-005  0.3288848E+03  0.7546771E-02  0.1071631E+00
         21   -1    0    0  502  501  0.00000000000E+00  0.00000000000E+00  0.61825868636E+03  0.61825868636E+03  0.00000000000E+00 0. -1.
         21   -1    0    0  501  502 -0.00000000000E+00 -0.00000000000E+00 -0.17495136544E+03  0.17495136544E+03  0.00000000000E+00 0. -1.
         25    1    1    2    0    0 -0.86163529588E+02  0.58095243987E+02  0.89139844721E+02  0.18539180975E+03  0.12500000000E+03 0.  0.
         25    1    1    2    0    0  0.14160810785E+03  0.97955552579E+02  0.18995202300E+02  0.21362107621E+03  0.12500000000E+03 0.  0.
         25    1    1    2    0    0 -0.55444578266E+02 -0.15605079657E+03  0.33517227390E+03  0.39419716584E+03  0.12500000000E+03 0.  0.
</event>
<event>
 5    0  0.5771525E-005  0.3754801E+03  0.7546771E-02  0.1052617E+00
         21   -1    0    0  502  501  0.00000000000E+00  0.00000000000E+00  0.10596667361E+03  0.10596667361E+03  0.00000000000E+00 0.  1.
         21   -1    0    0  501  502 -0.00000000000E+00 -0.00000000000E+00 -0.13304684056E+04  0.13304684056E+04  0.00000000000E+00 0.  1.
         25    1    1    2    0    0  0.15236458003E+03  0.62216334801E+02 -0.27262501142E+03  0.34210412803E+03  0.12500000000E+03 0.  0.
         25    1    1    2    0    0  0.73307121018E+02 -0.19829478807E+03 -0.48927670953E+03  0.54745909021E+03  0.12500000000E+03 0.  0.
         25    1    1    2    0    0 -0.22567170104E+03  0.13607845327E+03 -0.46260001104E+03  0.54687186096E+03  0.12500000000E+03 0.  0.
</event>
<event>
 5    0  0.5771525E-005  0.3433613E+03  0.7546771E-02  0.1065373E+00
         21   -1    0    0  502  501  0.00000000000E+00  0.00000000000E+00  0.45281883399E+03  0.45281883399E+03  0.00000000000E+00 0.  1.
         21   -1    0    0  501  502 -0.00000000000E+00 -0.00000000000E+00 -0.26036242627E+03  0.26036242627E+03  0.00000000000E+00 0.  1.
         25    1    1    2    0    0 -0.10170245051E+03  0.23231603757E+03  0.81717900363E+02  0.29430756870E+03  0.12500000000E+03 0.  0.
         25    1    1    2    0    0  0.70915893543E+02 -0.87812154586E+01  0.59957147724E+02  0.15596805207E+03  0.12500000000E+03 0.  0.
         25    1    1    2    0    0  0.30786556966E+02 -0.22353482212E+03  0.50781359635E+02  0.26290563949E+03  0.12500000000E+03 0.  0.
</event>
<event>
 5    0  0.5771525E-005  0.3973214E+03  0.7546771E-02  0.1044711E+00
         21   -1    0    0  502  501  0.00000000000E+00  0.00000000000E+00  0.16895603680E+04  0.16895603680E+04  0.00000000000E+00 0. -1.
         21   -1    0    0  501  502 -0.00000000000E+00 -0.00000000000E+00 -0.93435135842E+02  0.93435135842E+02  0.00000000000E+00 0. -1.
         25    1    1    2    0    0 -0.22130110562E+02 -0.74430428813E+02  0.13228422138E+04  0.13310019358E+04  0.12500000000E+03 0.  0.
         25    1    1    2    0    0  0.20250624107E+02  0.89011837125E+02  0.40992288891E+01  0.15483862116E+03  0.12500000000E+03 0.  0.
         25    1    1    2    0    0  0.18794864548E+01 -0.14581408312E+02  0.26918378950E+03  0.29715494690E+03  0.12500000000E+03 0.  0.
</event>
<event>
 5    0  0.5771525E-005  0.3823195E+03  0.7546771E-02  0.1050080E+00
         21   -1    0    0  502  501  0.00000000000E+00  0.00000000000E+00  0.20103265866E+03  0.20103265866E+03  0.00000000000E+00 0. -1.
         21   -1    0    0  501  502 -0.00000000000E+00 -0.00000000000E+00 -0.72708683563E+03  0.72708683563E+03  0.00000000000E+00 0. -1.
         25    1    1    2    0    0 -0.60615383616E+02 -0.45695006088E+02  0.26628153678E+02  0.14864829929E+03  0.12500000000E+03 0.  0.
         25    1    1    2    0    0  0.24214427373E+03  0.21318819905E+02 -0.46825412716E+03  0.54219486256E+03  0.12500000000E+03 0.  0.
         25    1    1    2    0    0 -0.18152889011E+03  0.24376186183E+02 -0.84428203487E+02  0.23727633245E+03  0.12500000000E+03 0.  0.
</event>
<event>
 5    0  0.5771525E-005  0.4269291E+03  0.7546771E-02  0.1034834E+00
         21   -1    0    0  502  501  0.00000000000E+00  0.00000000000E+00  0.79853187060E+03  0.79853187060E+03  0.00000000000E+00 0. -1.
         21   -1    0    0  501  502 -0.00000000000E+00 -0.00000000000E+00 -0.22825444289E+03  0.22825444289E+03  0.00000000000E+00 0. -1.
         25    1    1    2    0    0  0.26994473592E+03 -0.82387843437E+02  0.13190807741E+03  0.33568237679E+03  0.12500000000E+03 0.  0.
         25    1    1    2    0    0 -0.31472194063E+03  0.15974475203E+03  0.26094085028E+03  0.45638077639E+03  0.12500000000E+03 0.  0.
         25    1    1    2    0    0  0.44777204708E+02 -0.77356908593E+02  0.17742850001E+03  0.23472316031E+03  0.12500000000E+03 0.  0.
</event>
<event>
 5    0  0.5771525E-005  0.2999890E+03  0.7546771E-02  0.1085246E+00
         21   -1    0    0  502  501  0.00000000000E+00  0.00000000000E+00  0.20163879429E+03  0.20163879429E+03  0.00000000000E+00 0.  1.
         21   -1    0    0  501  502 -0.00000000000E+00 -0.00000000000E+00 -0.44631003074E+03  0.44631003074E+03  0.00000000000E+00 0.  1.
         25    1    1    2    0    0  0.11180904849E+03 -0.54574148049E+02 -0.13273192455E+03  0.22073143127E+03  0.12500000000E+03 0.  0.
         25    1    1    2    0    0 -0.98545546768E+02  0.95673603873E+02  0.73263646021E+02  0.19964274366E+03  0.12500000000E+03 0.  0.
         25    1    1    2    0    0 -0.13263501719E+02 -0.41099455824E+02 -0.18520295792E+03  0.22757465011E+03  0.12500000000E+03 0.  0.
</event>
<event>
 5    0  0.5771525E-005  0.4489307E+03  0.7546771E-02  0.1028041E+00
         21   -1    0    0  502  501  0.00000000000E+00  0.00000000000E+00  0.37536165037E+03  0.37536165037E+03  0.00000000000E+00 0. -1.
         21   -1    0    0  501  502 -0.00000000000E+00 -0.00000000000E+00 -0.53691896779E+03  0.53691896779E+03  0.00000000000E+00 0. -1.
         25    1    1    2    0    0  0.31751978969E+03 -0.34235326794E+01 -0.42261933092E+02  0.34386277555E+03  0.12500000000E+03 0.  0.
         25    1    1    2    0    0 -0.82344766323E+02 -0.10530942636E+03 -0.19854506638E+03  0.27002940433E+03  0.12500000000E+03 0.  0.
         25    1    1    2    0    0 -0.23517502336E+03  0.10873295904E+03  0.79249682058E+02  0.29838843828E+03  0.12500000000E+03 0.  0.
</event>
<event>
 5    0  0.5771525E-005  0.2902180E+03  0.7546771E-02  0.1090235E+00
         21   -1    0    0  502  501  0.00000000000E+00  0.00000000000E+00  0.15677359337E+04  0.15677359337E+04  0.00000000000E+00 0. -1.
         21   -1    0    0  501  502 -0.00000000000E+00 -0.00000000000E+00 -0.53724928027E+02  0.53724928027E+02  0.00000000000E+00 0. -1.
         25    1    1    2    0    0  0.84998408765E+02  0.86617041347E+02  0.35908033588E+03  0.39911267702E+03  0.12500000000E+03 0.  0.
         25    1    1    2    0    0  0.59256748046E+02 -0.53172711381E+02  0.20563384883E+03  0.25347382352E+03  0.12500000000E+03 0.  0.
         25    1    1    2    0    0 -0.14425515681E+03 -0.33444329966E+02  0.94929682098E+03  0.96887436120E+03  0.12500000000E+03 0.  0.
</event>
<event>
 5    0  0.5771525E-005  0.3151492E+03  0.7546771E-02  0.1077904E+00
         21   -1    0    0  502  501  0.00000000000E+00  0.00000000000E+00  0.85291129965E+02  0.85291129965E+02  0.00000000000E+00 0. -1.
         21   -1    0    0  501  502 -0.00000000000E+00 -0.00000000000E+00 -0.11644703160E+04  0.11644703160E+04  0.00000000000E+00 0. -1.
         25    1    1    2    0    0  0.16115243635E+02  0.13508333640E+03 -0.13632594163E+03  0.22960176657E+03  0.12500000000E+03 0.  0.
         25    1    1    2    0    0  0.10282267116E+03 -0.12777470439E+03 -0.62886178745E+03  0.66180890331E+03  0.12500000000E+03 0.  0.
         25    1    1    2    0    0 -0.11893791479E+03 -0.73086320107E+01 -0.31399145691E+03  0.35835077604E+03  0.12500000000E+03 0.  0.
</event>
<event>
 5    0  0.5771525E-005  0.2238499E+03  0.7546771E-02  0.1131045E+00
         21   -1    0    0  502  501  0.00000000000E+00  0.00000000000E+00  0.10933880107E+04  0.10933880107E+04  0.00000000000E+00 0.  1.
         21   -1    0    0  501  502 -0.00000000000E+00 -0.00000000000E+00 -0.45828904147E+02  0.45828904147E+02  0.00000000000E+00 0.  1.
         25    1    1    2    0    0 -0.44528689233E+02  0.25278355774E+02  0.42795838639E+03  0.44877074316E+03  0.12500000000E+03 0.  0.
         25    1    1    2    0    0  0.89673446615E+02 -0.61874567606E+02  0.31053672803E+03  0.35203387422E+03  0.12500000000E+03 0.  0.
         25    1    1    2    0    0 -0.45144757382E+02  0.36596211832E+02  0.30906399210E+03  0.33841229743E+03  0.12500000000E+03 0.  0.
</event>
<event>
 5    0  0.5771525E-005  0.4066994E+03  0.7546771E-02  0.1041484E+00
         21   -1    0    0  502  501  0.00000000000E+00  0.00000000000E+00  0.24306823618E+03  0.24306823618E+03  0.00000000000E+00 0. -1.
         21   -1    0    0  501  502 -0.00000000000E+00 -0.00000000000E+00 -0.68048556593E+03  0.68048556593E+03  0.00000000000E+00 0. -1.
         25    1    1    2    0    0  0.92195295295E+02 -0.80995319072E+02  0.54073822085E+02  0.18332810047E+03  0.12500000000E+03 0.  0.
         25    1    1    2    0    0 -0.31617712729E+02 -0.17788674505E+03 -0.78307082078E+02  0.23323887525E+03  0.12500000000E+03 0.  0.
         25    1    1    2    0    0 -0.60577582566E+02  0.25888206412E+03 -0.41318406977E+03  0.50698682640E+03  0.12500000000E+03 0.  0.
</event>
<event>
 5    0  0.5771525E-005  0.4370485E+03  0.7546771E-02  0.1031656E+00
         21   -1    0    0  502  501  0.00000000000E+00  0.00000000000E+00  0.18141853091E+03  0.18141853091E+03  0.00000000000E+00 0. -1.
         21   -1    0    0  501  502 -0.00000000000E+00 -0.00000000000E+00 -0.10528769321E+04  0.10528769321E+04  0.00000000000E+00 0. -1.
         25    1    1    2    0    0  0.28153431260E+03  0.88282530263E+02 -0.37887298250E+03  0.49621075280E+03  0.12500000000E+03 0.  0.
         25    1    1    2    0    0 -0.28814448107E+03 -0.50913623561E+02 -0.11465854288E+03  0.33821741601E+03  0.12500000000E+03 0.  0.
         25    1    1    2    0    0  0.66101684675E+01 -0.37368906702E+02 -0.37792687585E+03  0.39986729424E+03  0.12500000000E+03 0.  0.
</event>
<event>
 5    0  0.5771525E-005  0.5219289E+03  0.7546771E-02  0.1008209E+00
         21   -1    0    0  502  501  0.00000000000E+00  0.00000000000E+00  0.16259179612E+04  0.16259179612E+04  0.00000000000E+00 0. -1.
         21   -1    0    0  501  502 -0.00000000000E+00 -0.00000000000E+00 -0.16754213278E+03  0.16754213278E+03  0.00000000000E+00 0. -1.
         25    1    1    2    0    0  0.99328774651E+02  0.32538630690E+02 -0.30792135277E+02  0.16582558173E+03  0.12500000000E+03 0.  0.
         25    1    1    2    0    0  0.91025116556E+01 -0.11485356191E+03  0.14202440438E+04  0.14303818862E+04  0.12500000000E+03 0.  0.
         25    1    1    2    0    0 -0.10843128631E+03  0.82314931220E+02  0.68923919882E+02  0.19725262605E+03  0.12500000000E+03 0.  0.
</event>
<event>
 5    0  0.5771525E-005  0.2715877E+03  0.7546771E-02  0.1100374E+00
         21   -1    0    0  502  501  0.00000000000E+00  0.00000000000E+00  0.44394145406E+03  0.44394145406E+03  0.00000000000E+00 0. -1.
         21   -1    0    0  501  502 -0.00000000000E+00 -0.00000000000E+00 -0.16614770484E+03  0.16614770484E+03  0.00000000000E+00 0.  1.
         25    1    1    2    0    0  0.11411981018E+03  0.60283867771E+02  0.15478207027E+03  0.23714966807E+03  0.12500000000E+03 0.  0.
         25    1    1    2    0    0 -0.86118169258E+02 -0.11239321176E+03  0.13788593393E+03  0.23385060167E+03  0.12500000000E+03 0.  0.
         25    1    1    2    0    0 -0.28001640919E+02  0.52109343986E+02 -0.14874254982E+02  0.13908888915E+03  0.12500000000E+03 0.  0.
</event>
<event>
 5    0  0.5771525E-005  0.2475699E+03  0.7546771E-02  0.1114850E+00
         21   -1    0    0  502  501  0.00000000000E+00  0.00000000000E+00  0.31307979131E+03  0.31307979131E+03  0.00000000000E+00 0.  1.
         21   -1    0    0  501  502 -0.00000000000E+00 -0.00000000000E+00 -0.19576756233E+03  0.19576756233E+03  0.00000000000E+00 0.  1.
         25    1    1    2    0    0 -0.89544519320E+02 -0.92875995976E+02 -0.24477159291E+01  0.17965289556E+03  0.12500000000E+03 0.  0.
         25    1    1    2    0    0  0.87485959945E+02  0.93491645487E+02  0.91690001266E+02  0.20106351558E+03  0.12500000000E+03 0.  0.
         25    1    1    2    0    0  0.20585593749E+01 -0.61564951163E+00  0.28069943643E+02  0.12813094250E+03  0.12500000000E+03 0.  0.
</event>
<event>
 5    0  0.5771525E-005  0.2691332E+03  0.7546771E-02  0.1101777E+00
         21   -1    0    0  502  501  0.00000000000E+00  0.00000000000E+00  0.38502805972E+03  0.38502805972E+03  0.00000000000E+00 0.  1.
         21   -1    0    0  501  502 -0.00000000000E+00 -0.00000000000E+00 -0.18812306910E+03  0.18812306910E+03  0.00000000000E+00 0.  1.
         25    1    1    2    0    0 -0.22434968777E+02  0.46412498369E+02 -0.78390469831E+01  0.13543964887E+03  0.12500000000E+03 0.  0.
         25    1    1    2    0    0  0.63802472959E+02 -0.14836668698E+03  0.17415415571E+03  0.26839914179E+03  0.12500000000E+03 0.  0.
         25    1    1    2    0    0 -0.41367504181E+02  0.10195418861E+03  0.30589881883E+02  0.16931233816E+03  0.12500000000E+03 0.  0.
</event>
<event>
 5    0  0.6966513E-005  0.4229631E+03  0.7546771E-02  0.1036106E+00
         21   -1    0    0  502  501  0.00000000000E+00  0.00000000000E+00  0.60112992572E+03  0.60112992572E+03  0.00000000000E+00 0.  1.
         21   -1    0    0  501  502 -0.00000000000E+00 -0.00000000000E+00 -0.29760257384E+03  0.29760257384E+03  0.00000000000E+00 0.  1.
         25    1    1    2    0    0 -0.73474059390E+02  0.21822445948E+02  0.32291419849E+03  0.35464522574E+03  0.12500000000E+03 0.  0.
         25    1    1    2    0    0  0.25659896584E+03 -0.78720077914E+02  0.59441263289E+02  0.30199030401E+03  0.12500000000E+03 0.  0.
         25    1    1    2    0    0 -0.18312490645E+03  0.56897631965E+02 -0.78828109895E+02  0.24209696981E+03  0.12500000000E+03 0.  0.
</event>
<event>
 5    0  0.5850918E-005  0.5135574E+03  0.7546771E-02  0.1010300E+00
         21   -1    0    0  502  501  0.00000000000E+00  0.00000000000E+00  0.14152045787E+03  0.14152045787E+03  0.00000000000E+00 0.  1.
         21   -1    0    0  501  502 -0.00000000000E+00 -0.00000000000E+00 -0.18636262663E+04  0.18636262663E+04  0.00000000000E+00 0.  1.
         25    1    1    2    0    0  0.18790322480E+03 -0.26205336609E+03 -0.80782757447E+03  0.87874340887E+03  0.12500000000E+03 0.  0.
         25    1    1    2    0    0  0.32675702247E+02  0.16167786704E+03 -0.40264367905E+02  0.21084035081E+03  0.12500000000E+03 0.  0.
         25    1    1    2    0    0 -0.22057892704E+03  0.10037549905E+03 -0.87401386606E+03  0.91556296448E+03  0.12500000000E+03 0.  0.
</event>
<event>
 5    0  0.5771525E-005  0.2342661E+03  0.7546771E-02  0.1123673E+00
         21   -1    0    0  502  501  0.00000000000E+00  0.00000000000E+00  0.10037489084E+03  0.10037489084E+03  0.00000000000E+00 0.  1.
         21   -1    0    0  501  502 -0.00000000000E+00 -0.00000000000E+00 -0.54675624394E+03  0.54675624394E+03  0.00000000000E+00 0.  1.
         25    1    1    2    0    0 -0.72638511898E+02 -0.95322093286E+02 -0.14473816811E+03  0.22569180798E+03  0.12500000000E+03 0.  0.
         25    1    1    2    0    0  0.39278039302E+02  0.98987877461E+02 -0.15443817145E+03  0.22542740086E+03  0.12500000000E+03 0.  0.
         25    1    1    2    0    0  0.33360472596E+02 -0.36657841758E+01 -0.14720501352E+03  0.19601192594E+03  0.12500000000E+03 0.  0.
</event>
<event>
 5    0  0.5771525E-005  0.2688708E+03  0.7546771E-02  0.1101928E+00
         21   -1    0    0  502  501  0.00000000000E+00  0.00000000000E+00  0.71010391216E+02  0.71010391216E+02  0.00000000000E+00 0. -1.
         21   -1    0    0  501  502 -0.00000000000E+00 -0.00000000000E+00 -0.10180411519E+04  0.10180411519E+04  0.00000000000E+00 0. -1.
         25    1    1    2    0    0  0.12488795598E+03  0.49278503089E+01 -0.17810225712E+03  0.25093166251E+03  0.12500000000E+03 0.  0.
         25    1    1    2    0    0 -0.35496507120E+02  0.80607185636E+02 -0.28864699842E+03  0.32664906259E+03  0.12500000000E+03 0.  0.
         25    1    1    2    0    0 -0.89391448861E+02 -0.85535035944E+02 -0.48028150518E+03  0.51147081806E+03  0.12500000000E+03 0.  0.
</event>
<event>
 5    0  0.5771525E-005  0.2139129E+03  0.7546771E-02  0.1138504E+00
         21   -1    0    0  502  501  0.00000000000E+00  0.00000000000E+00  0.12078090496E+04  0.12078090496E+04  0.00000000000E+00 0.  1.
         21   -1    0    0  501  502 -0.00000000000E+00 -0.00000000000E+00 -0.37885726494E+02  0.37885726494E+02  0.00000000000E+00 0.  1.
         25    1    1    2    0    0  0.31386290783E+02 -0.15235526237E+02  0.35564168255E+03  0.37858054213E+03  0.12500000000E+03 0.  0.
         25    1    1    2    0    0  0.53129117801E+02 -0.21968736080E+02  0.46254753679E+03  0.48257699107E+03  0.12500000000E+03 0.  0.
         25    1    1    2    0    0 -0.84515408584E+02  0.37204262317E+02  0.35173410378E+03  0.38453724291E+03  0.12500000000E+03 0.  0.
</event>
<event>
 5    0  0.5771525E-005  0.4258074E+03  0.7546771E-02  0.1035193E+00
         21   -1    0    0  502  501  0.00000000000E+00  0.00000000000E+00  0.99215612009E+03  0.99215612009E+03  0.00000000000E+00 0. -1.
         21   -1    0    0  501  502 -0.00000000000E+00 -0.00000000000E+00 -0.18274536816E+03  0.18274536816E+03  0.00000000000E+00 0. -1.
         25    1    1    2    0    0 -0.16400708660E+03  0.16726883988E+03  0.59657660636E+03  0.65299757772E+03  0.12500000000E+03 0.  0.
         25    1    1    2    0    0  0.20684869805E+03 -0.72889328066E+02  0.25004585307E+03  0.35531277302E+03  0.12500000000E+03 0.  0.
         25    1    1    2    0    0 -0.42841611448E+02 -0.94379511814E+02 -0.37211707507E+02  0.16659113751E+03  0.12500000000E+03 0.  0.
</event>
<event>
 5    0  0.5771525E-005  0.6384300E+03  0.7546771E-02  0.9828735E-01
         21   -1    0    0  502  501  0.00000000000E+00  0.00000000000E+00  0.28485690804E+04  0.28485690804E+04  0.00000000000E+00 0.  1.
         21   -1    0    0  501  502 -0.00000000000E+00 -0.00000000000E+00 -0.14308686393E+03  0.14308686393E+03  0.00000000000E+00 0.  1.
         25    1    1    2    0    0 -0.18173905091E+03 -0.11485558947E+03  0.70649003464E+02  0.25852885863E+03  0.12500000000E+03 0.  0.
         25    1    1    2    0    0  0.95861527104E+02  0.31641460361E+03  0.22174532103E+04  0.22454468094E+04  0.12500000000E+03 0.  0.
         25    1    1    2    0    0  0.85877523801E+02 -0.20155901415E+03  0.41738000267E+03  0.48768027632E+03  0.12500000000E+03 0.  0.
</event>
<event>
 5    0  0.5771525E-005  0.2638061E+03  0.7546771E-02  0.1104878E+00
         21   -1    0    0  502  501  0.00000000000E+00  0.00000000000E+00  0.44532816810E+03  0.44532816810E+03  0.00000000000E+00 0.  1.
         21   -1    0    0  501  502 -0.00000000000E+00 -0.00000000000E+00 -0.15627499062E+03  0.15627499062E+03  0.00000000000E+00 0.  1.
         25    1    1    2    0    0  0.19675547298E+02 -0.14752792265E+03  0.22548693685E+03  0.29769275069E+03  0.12500000000E+03 0.  0.
         25    1    1    2    0    0 -0.61715419686E+01  0.10694224105E+03  0.43587085265E+02  0.17029258602E+03  0.12500000000E+03 0.  0.
         25    1    1    2    0    0 -0.13504005330E+02  0.40585681601E+02  0.19979155364E+02  0.13361782201E+03  0.12500000000E+03 0.  0.
</event>
<event>
 5    0  0.5771525E-005  0.3977111E+03  0.7546771E-02  0.1044575E+00
         21   -1    0    0  502  501  0.00000000000E+00  0.00000000000E+00  0.11842515202E+04  0.11842515202E+04  0.00000000000E+00 0.  1.
         21   -1    0    0  501  502 -0.00000000000E+00 -0.00000000000E+00 -0.13356460626E+03  0.13356460626E+03  0.00000000000E+00 0.  1.
         25    1    1    2    0    0 -0.47534011521E+02 -0.21648007697E+03  0.52754181527E+03  0.58570340006E+03  0.12500000000E+03 0.  0.
         25    1    1    2    0    0 -0.91522419841E+02  0.81228172753E+02  0.46107284151E+03  0.49314048157E+03  0.12500000000E+03 0.  0.
         25    1    1    2    0    0  0.13905643136E+03  0.13525190422E+03  0.62072257175E+02  0.23897224485E+03  0.12500000000E+03 0.  0.
</event>
<event>
 5    0  0.5771525E-005  0.2675471E+03  0.7546771E-02  0.1102692E+00
         21   -1    0    0  502  501  0.00000000000E+00  0.00000000000E+00  0.36779413885E+03  0.36779413885E+03  0.00000000000E+00 0.  1.
         21   -1    0    0  501  502 -0.00000000000E+00 -0.00000000000E+00 -0.19462368017E+03  0.19462368017E+03  0.00000000000E+00 0.  1.
         25    1    1    2    0    0  0.10146589828E+03 -0.52207081759E+01  0.42428693584E+02  0.16657664406E+03  0.12500000000E+03 0.  0.
         25    1    1    2    0    0 -0.61943827311E+02 -0.12063534591E+03  0.26474810395E+02  0.18632187207E+03  0.12500000000E+03 0.  0.
         25    1    1    2    0    0 -0.39522070968E+02  0.12585605409E+03  0.10426695470E+03  0.20951930290E+03  0.12500000000E+03 0.  0.
</event>
<event>
 5    0  0.5771525E-005  0.5201338E+03  0.7546771E-02  0.1008653E+00
         21   -1    0    0  502  501  0.00000000000E+00  0.00000000000E+00  0.17772410798E+03  0.17772410798E+03  0.00000000000E+00 0.  1.
         21   -1    0    0  501  502 -0.00000000000E+00 -0.00000000000E+00 -0.15222425305E+04  0.15222425305E+04  0.00000000000E+00 0.  1.
         25    1    1    2    0    0  0.24644774208E+03 -0.20422384935E+03 -0.10557348171E+04  0.11102454117E+04  0.12500000000E+03 0.  0.
         25    1    1    2    0    0 -0.63448191170E+02  0.24445426374E+03 -0.20872674413E+03  0.35067850482E+03  0.12500000000E+03 0.  0.
         25    1    1    2    0    0 -0.18299955091E+03 -0.40230414394E+02 -0.80056861288E+02  0.23904272195E+03  0.12500000000E+03 0.  0.
</event>
<event>
 5    0  0.5771525E-005  0.3842806E+03  0.7546771E-02  0.1049363E+00
         21   -1    0    0  502  501  0.00000000000E+00  0.00000000000E+00  0.10161427674E+04  0.10161427674E+04  0.00000000000E+00 0. -1.
         21   -1    0    0  501  502 -0.00000000000E+00 -0.00000000000E+00 -0.14532559422E+03  0.14532559422E+03  0.00000000000E+00 0. -1.
         25    1    1    2    0    0 -0.15191375905E+03 -0.21354578587E+03  0.32903593600E+03  0.43882711862E+03  0.12500000000E+03 0.  0.
         25    1    1    2    0    0  0.10541428207E+03  0.45124038546E+02  0.46421313738E+03  0.49423393917E+03  0.12500000000E+03 0.  0.
         25    1    1    2    0    0  0.46499476977E+02  0.16842174733E+03  0.77568099778E+02  0.22840730381E+03  0.12500000000E+03 0.  0.
</event>
<event>
 5    0  0.5771525E-005  0.2146226E+03  0.7546771E-02  0.1137957E+00
         21   -1    0    0  502  501  0.00000000000E+00  0.00000000000E+00  0.24116963010E+03  0.24116963010E+03  0.00000000000E+00 0.  1.
         21   -1    0    0  501  502 -0.00000000000E+00 -0.00000000000E+00 -0.19099768330E+03  0.19099768330E+03  0.00000000000E+00 0.  1.
         25    1    1    2    0    0 -0.13488211738E+02  0.42672242767E+02 -0.64228091775E+02  0.14748932142E+03  0.12500000000E+03 0.  0.
         25    1    1    2    0    0 -0.13444391375E+02 -0.40778825784E+02  0.68015974062E+02  0.14864332148E+03  0.12500000000E+03 0.  0.
         25    1    1    2    0    0  0.26932603112E+02 -0.18934169827E+01  0.46384064519E+02  0.13603467051E+03  0.12500000000E+03 0.  0.
</event>
<event>
 5    0  0.5771525E-005  0.1989185E+03  0.7546771E-02  0.1150655E+00
         21   -1    0    0  502  501  0.00000000000E+00  0.00000000000E+00  0.98038686862E+03  0.98038686862E+03  0.00000000000E+00 0.  1.
         21   -1    0    0  501  502 -0.00000000000E+00 -0.00000000000E+00 -0.40360154431E+02  0.40360154431E+02  0.00000000000E+00 0.  1.
         25    1    1    2    0    0 -0.30713706780E+02 -0.26123264758E+02  0.33881790676E+03  0.36338454933E+03  0.12500000000E+03 0.  0.
         25    1    1    2    0    0 -0.52496085737E+01  0.39378280298E+02  0.24469480902E+03  0.27763061234E+03  0.12500000000E+03 0.  0.
         25    1    1    2    0    0  0.35963315354E+02 -0.13255015540E+02  0.35651399841E+03  0.37973186138E+03  0.12500000000E+03 0.  0.
</event>
<event>
 5    0  0.5771525E-005  0.7902512E+03  0.7546771E-02  0.9574236E-01
         21   -1    0    0  502  501  0.00000000000E+00  0.00000000000E+00  0.34210150786E+03  0.34210150786E+03  0.00000000000E+00 0. -1.
         21   -1    0    0  501  502 -0.00000000000E+00 -0.00000000000E+00 -0.18254728792E+04  0.18254728792E+04  0.00000000000E+00 0. -1.
         25    1    1    2    0    0  0.67830519341E+02 -0.32430662261E+03  0.10979269540E+03  0.37074951218E+03  0.12500000000E+03 0.  0.
         25    1    1    2    0    0  0.10005931935E+02 -0.15466010837E+03 -0.10199452083E+03  0.22371354468E+03  0.12500000000E+03 0.  0.
         25    1    1    2    0    0 -0.77836451275E+02  0.47896673098E+03 -0.14911695459E+04  0.15731113302E+04  0.12500000000E+03 0.  0.
</event>
<event>
 5    0  0.5771525E-005  0.3680005E+03  0.7546771E-02  0.1055460E+00
         21   -1    0    0  502  501  0.00000000000E+00  0.00000000000E+00  0.10029192529E+03  0.10029192529E+03  0.00000000000E+00 0. -1.
         21   -1    0    0  501  502 -0.00000000000E+00 -0.00000000000E+00 -0.13503020351E+04  0.13503020351E+04  0.00000000000E+00 0. -1.
         25    1    1    2    0    0  0.11387235424E+03  0.12633999261E+03 -0.16251929227E+03  0.26639487073E+03  0.12500000000E+03 0.  0.
         25    1    1    2    0    0 -0.13139715542E+03  0.81884565147E+02 -0.68942206897E+03  0.71756399272E+03  0.12500000000E+03 0.  0.
         25    1    1    2    0    0  0.17524801179E+02 -0.20822455776E+03 -0.39806874860E+03  0.46663509696E+03  0.12500000000E+03 0.  0.
</event>
<event>
 5    0  0.5771525E-005  0.2630057E+03  0.7546771E-02  0.1105351E+00
         21   -1    0    0  502  501  0.00000000000E+00  0.00000000000E+00  0.28429946180E+04  0.28429946180E+04  0.00000000000E+00 0. -1.
         21   -1    0    0  501  502 -0.00000000000E+00 -0.00000000000E+00 -0.24330681019E+02  0.24330681019E+02  0.00000000000E+00 0. -1.
         25    1    1    2    0    0  0.84851151784E+00  0.98674768066E+02  0.86271476230E+03  0.87729082459E+03  0.12500000000E+03 0.  0.
         25    1    1    2    0    0 -0.40381904694E+02 -0.97553790572E+02  0.16374701369E+04  0.16456247718E+04  0.12500000000E+03 0.  0.
         25    1    1    2    0    0  0.39533393177E+02 -0.11209774937E+01  0.31847903781E+03  0.34440970267E+03  0.12500000000E+03 0.  0.
</event>
<event>
 5    0  0.5771525E-005  0.2413531E+03  0.7546771E-02  0.1118895E+00
         21   -1    0    0  502  501  0.00000000000E+00  0.00000000000E+00  0.22805884451E+03  0.22805884451E+03  0.00000000000E+00 0. -1.
         21   -1    0    0  501  502 -0.00000000000E+00 -0.00000000000E+00 -0.25542237605E+03  0.25542237605E+03  0.00000000000E+00 0. -1.
         25    1    1    2    0    0  0.10550705067E+03  0.22755978840E+02 -0.90901604475E+02  0.18851438674E+03  0.12500000000E+03 0.  0.
         25    1    1    2    0    0 -0.49955372595E+02  0.32603859923E+02  0.47994594288E+02  0.14658455585E+03  0.12500000000E+03 0.  0.
         25    1    1    2    0    0 -0.55551678073E+02 -0.55359838763E+02  0.15543478645E+02  0.14838227796E+03  0.12500000000E+03 0.  0.
</event>
<event>
 5    0  0.5771525E-005  0.2416226E+03  0.7546771E-02  0.1118717E+00
         21   -1    0    0  502  501  0.00000000000E+00  0.00000000000E+00  0.48185167629E+03  0.48185167629E+03  0.00000000000E+00 0. -1.
         21   -1    0    0  501  502 -0.00000000000E+00 -0.00000000000E+00 -0.12116069019E+03  0.12116069019E+03  0.00000000000E+00 0. -1.
         25    1    1    2    0    0  0.33846430687E+02  0.10119316364E+03  0.17984297851E+03  0.24362703905E+03  0.12500000000E+03 0.  0.
         25    1    1    2    0    0  0.20848566087E+02  0.15974950826E+02  0.50872436207E+02  0.13748769591E+03  0.12500000000E+03 0.  0.
         25    1    1    2    0    0 -0.54694996774E+02 -0.11716811446E+03  0.12997557139E+03  0.22189763152E+03  0.12500000000E+03 0.  0.
</event>
<event>
 5    0  0.5771525E-005  0.2384023E+03  0.7546771E-02  0.1120862E+00
         21   -1    0    0  502  501  0.00000000000E+00  0.00000000000E+00  0.95199140127E+02  0.95199140127E+02  0.00000000000E+00 0. -1.
         21   -1    0    0  501  502 -0.00000000000E+00 -0.00000000000E+00 -0.59701874594E+03  0.59701874594E+03  0.00000000000E+00 0. -1.
         25    1    1    2    0    0  0.11726159306E+03 -0.14746484316E+02 -0.24494079458E+03  0.29931376991E+03  0.12500000000E+03 0.  0.
         25    1    1    2    0    0 -0.39411371601E+02  0.70144583389E+01 -0.19013731813E+03  0.23104038301E+03  0.12500000000E+03 0.  0.
         25    1    1    2    0    0 -0.77850221456E+02  0.77320259771E+01 -0.66741493103E+02  0.16186373315E+03  0.12500000000E+03 0.  0.
</event>
<event>
 5    0  0.5771525E-005  0.2623189E+03  0.7546771E-02  0.1105758E+00
         21   -1    0    0  502  501  0.00000000000E+00  0.00000000000E+00  0.70811135377E+03  0.70811135377E+03  0.00000000000E+00 0. -1.
         21   -1    0    0  501  502 -0.00000000000E+00 -0.00000000000E+00 -0.97175697976E+02  0.97175697976E+02  0.00000000000E+00 0. -1.
         25    1    1    2    0    0 -0.66707936910E+02 -0.54063290400E+02  0.79162174955E+02  0.17106851890E+03  0.12500000000E+03 0.  0.
         25    1    1    2    0    0  0.94913585266E+02  0.99162375093E+02  0.41669153623E+03  0.45617825646E+03  0.12500000000E+03 0.  0.
         25    1    1    2    0    0 -0.28205648356E+02 -0.45099084694E+02  0.11508194461E+03  0.17804027638E+03  0.12500000000E+03 0.  0.
</event>
<event>
 5    0  0.5771525E-005  0.2284336E+03  0.7546771E-02  0.1127747E+00
         21   -1    0    0  502  501  0.00000000000E+00  0.00000000000E+00  0.87568910947E+03  0.87568910947E+03  0.00000000000E+00 0. -1.
         21   -1    0    0  501  502 -0.00000000000E+00 -0.00000000000E+00 -0.59589548560E+02  0.59589548560E+02  0.00000000000E+00 0. -1.
         25    1    1    2    0    0  0.13690092452E+02  0.81199905244E+02  0.45497956157E+03  0.47896998308E+03  0.12500000000E+03 0.  0.
         25    1    1    2    0    0 -0.26039772065E+02 -0.57961624921E+02  0.25164365965E+03  0.28807490542E+03  0.12500000000E+03 0.  0.
         25    1    1    2    0    0  0.12349679612E+02 -0.23238280323E+02  0.10947633970E+03  0.16823376954E+03  0.12500000000E+03 0.  0.
</event>
<event>
 5    0  0.5771525E-005  0.3163739E+03  0.7546771E-02  0.1077330E+00
         21   -1    0    0  502  501  0.00000000000E+00  0.00000000000E+00  0.12744079778E+03  0.12744079778E+03  0.00000000000E+00 0.  1.
         21   -1    0    0  501  502 -0.00000000000E+00 -0.00000000000E+00 -0.78540352530E+03  0.78540352530E+03  0.00000000000E+00 0.  1.
         25    1    1    2    0    0  0.44712132409E+01 -0.20608395174E+02 -0.16995661616E+02  0.12790054814E+03  0.12500000000E+03 0.  0.
         25    1    1    2    0    0 -0.72208038715E+02 -0.15567043393E+03 -0.40865188577E+03  0.46050911891E+03  0.12500000000E+03 0.  0.
         25    1    1    2    0    0  0.67736825474E+02  0.17627882910E+03 -0.23231518013E+03  0.32443465603E+03  0.12500000000E+03 0.  0.
</event>
<event>
 5    0  0.5771525E-005  0.2821527E+03  0.7546771E-02  0.1094519E+00
         21   -1    0    0  502  501  0.00000000000E+00  0.00000000000E+00  0.48218539393E+03  0.48218539393E+03  0.00000000000E+00 0.  1.
         21   -1    0    0  501  502 -0.00000000000E+00 -0.00000000000E+00 -0.16510275769E+03  0.16510275769E+03  0.00000000000E+00 0.  1.
         25    1    1    2    0    0  0.37082888462E+01 -0.14511573239E+03 -0.19774286500E+02  0.19258335753E+03  0.12500000000E+03 0.  0.
         25    1    1    2    0    0 -0.17297982515E+02  0.11752541314E+03  0.15477786453E+03  0.23171670264E+03  0.12500000000E+03 0.  0.
         25    1    1    2    0    0  0.13589693669E+02  0.27590319250E+02  0.18207905820E+03  0.22298809145E+03  0.12500000000E+03 0.  0.
</event>
<event>
 5    0  0.5771525E-005  0.4737436E+03  0.7546771E-02  0.1020869E+00
         21   -1    0    0  502  501  0.00000000000E+00  0.00000000000E+00  0.22361165815E+04  0.22361165815E+04  0.00000000000E+00 0. -1.
         21   -1    0    0  501  502 -0.00000000000E+00 -0.00000000000E+00 -0.10036730015E+03  0.10036730015E+03  0.00000000000E+00 0. -1.
         25    1    1    2    0    0  0.61271116023E+01 -0.35070110739E+03  0.59631678999E+03  0.70302739793E+03  0.12500000000E+03 0.  0.
         25    1    1    2    0    0 -0.10249748203E+02  0.29832267656E+03  0.57730513978E+03  0.66182150245E+03  0.12500000000E+03 0.  0.
         25    1    1    2    0    0  0.41226366011E+01  0.52378430827E+02  0.96212735162E+03  0.97163498130E+03  0.12500000000E+03 0.  0.
</event>
<event>
 5    0  0.6405504E-005  0.2644754E+03  0.7546771E-02  0.1104484E+00
         21   -1    0    0  502  501  0.00000000000E+00  0.00000000000E+00  0.26364113710E+03  0.26364113710E+03  0.00000000000E+00 0.  1.
         21   -1    0    0  501  502 -0.00000000000E+00 -0.00000000000E+00 -0.26531233286E+03  0.26531233286E+03  0.00000000000E+00 0.  1.
         25    1    1    2    0    0 -0.86503445649E+02 -0.37184084298E+02  0.18865449980E+02  0.15762743238E+03  0.12500000000E+03 0.  0.
         25    1    1    2    0    0 -0.88069888262E+02  0.46476602335E+00 -0.10333273603E+02  0.15325892395E+03  0.12500000000E+03 0.  0.
         25    1    1    2    0    0  0.17457333391E+03  0.36719318275E+02 -0.10203372134E+02  0.21806711364E+03  0.12500000000E+03 0.  0.
</event>
<event>
 5    0  0.5771525E-005  0.2230393E+03  0.7546771E-02  0.1131637E+00
         21   -1    0    0  502  501  0.00000000000E+00  0.00000000000E+00  0.56870844967E+02  0.56870844967E+02  0.00000000000E+00 0. -1.
         21   -1    0    0  501  502 -0.00000000000E+00 -0.00000000000E+00 -0.87472818785E+03  0.87472818785E+03  0.00000000000E+00 0. -1.
         25    1    1    2    0    0 -0.35459445559E+02  0.10218010559E+03 -0.27187166279E+03  0.31817816909E+03  0.12500000000E+03 0.  0.
         25    1    1    2    0    0  0.13214452713E+02 -0.53971296539E+02 -0.34219292934E+03  0.36852208007E+03  0.12500000000E+03 0.  0.
         25    1    1    2    0    0  0.22244992846E+02 -0.48208809046E+02 -0.20379275075E+03  0.24489878365E+03  0.12500000000E+03 0.  0.
</event>
<event>
 5    0  0.5771525E-005  0.3191675E+03  0.7546771E-02  0.1076033E+00
         21   -1    0    0  502  501  0.00000000000E+00  0.00000000000E+00  0.62847630831E+03  0.62847630831E+03  0.00000000000E+00 0. -1.
         21   -1    0    0  501  502 -0.00000000000E+00 -0.00000000000E+00 -0.16208706782E+03  0.16208706782E+03  0.00000000000E+00 0. -1.
         25    1    1    2    0    0 -0.54709781228E+02  0.12944239477E+03  0.96551807096E+02  0.21141368257E+03  0.12500000000E+03 0.  0.
         25    1    1    2    0    0  0.15151524262E+03 -0.45183968755E+02  0.42486991623E+02  0.20598204833E+03  0.12500000000E+03 0.  0.
         25    1    1    2    0    0 -0.96805461388E+02 -0.84258426017E+02  0.32735044177E+03  0.37316764522E+03  0.12500000000E+03 0.  0.
</event>
<event>
 5    0  0.5771525E-005  0.4558210E+03  0.7546771E-02  0.1026000E+00
         21   -1    0    0  502  501  0.00000000000E+00  0.00000000000E+00  0.12949668065E+04  0.12949668065E+04  0.00000000000E+00 0. -1.
         21   -1    0    0  501  502 -0.00000000000E+00 -0.00000000000E+00 -0.16044642082E+03  0.16044642082E+03  0.00000000000E+00 0. -1.
         25    1    1    2    0    0  0.12523465827E+03 -0.11248650858E+03  0.62405369435E+03  0.65833498135E+03  0.12500000000E+03 0.  0.
         25    1    1    2    0    0  0.54185862942E+02  0.14331341656E+03  0.53926582753E+03  0.57437572707E+03  0.12500000000E+03 0.  0.
         25    1    1    2    0    0 -0.17942052122E+03 -0.30826907984E+02 -0.28799136163E+02  0.22270251892E+03  0.12500000000E+03 0.  0.
</event>
<event>
 5    0  0.5771525E-005  0.2978507E+03  0.7546771E-02  0.1086320E+00
         21   -1    0    0  502  501  0.00000000000E+00  0.00000000000E+00  0.46734744670E+03  0.46734744670E+03  0.00000000000E+00 0. -1.
         21   -1    0    0  501  502 -0.00000000000E+00 -0.00000000000E+00 -0.18982678646E+03  0.18982678646E+03  0.00000000000E+00 0. -1.
         25    1    1    2    0    0 -0.12971073140E+03  0.13331370964E+03  0.18883181018E+02  0.22489774019E+03  0.12500000000E+03 0.  0.
         25    1    1    2    0    0  0.86064996767E+02 -0.12306013190E+03  0.83489975168E+02  0.21247718862E+03  0.12500000000E+03 0.  0.
         25    1    1    2    0    0  0.43645734635E+02 -0.10253577738E+02  0.17514750406E+03  0.21979930433E+03  0.12500000000E+03 0.  0.
</event>
<event>
 5    0  0.5771525E-005  0.3142805E+03  0.7546771E-02  0.1078312E+00
         21   -1    0    0  502  501  0.00000000000E+00  0.00000000000E+00  0.81555513552E+02  0.81555513552E+02  0.00000000000E+00 0. -1.
         21   -1    0    0  501  502 -0.00000000000E+00 -0.00000000000E+00 -0.12111042295E+04  0.12111042295E+04  0.00000000000E+00 0. -1.
         25    1    1    2    0    0 -0.19334612999E+03  0.45160481434E+02 -0.26726416284E+03  0.35563651079E+03  0.12500000000E+03 0.  0.
         25    1    1    2    0    0  0.13630382976E+03 -0.27727710766E+02 -0.26790055765E+03  0.32671588382E+03  0.12500000000E+03 0.  0.
         25    1    1    2    0    0  0.57042300232E+02 -0.17432770668E+02 -0.59438399545E+03  0.61030734843E+03  0.12500000000E+03 0.  0.
</event>
<event>
 5    0  0.5771525E-005  0.2408084E+03  0.7546771E-02  0.1119255E+00
         21   -1    0    0  502  501  0.00000000000E+00  0.00000000000E+00  0.33074582966E+02  0.33074582966E+02  0.00000000000E+00 0. -1.
         21   -1    0    0  501  502 -0.00000000000E+00 -0.00000000000E+00 -0.17532707159E+04  0.17532707159E+04  0.00000000000E+00 0. -1.
         25    1    1    2    0    0  0.52463612281E+02 -0.52133196207E+02 -0.42341856144E+03  0.44763665951E+03  0.12500000000E+03 0.  0.
         25    1    1    2    0    0 -0.24857158790E+02  0.10937194622E+03 -0.44837390766E+03  0.47879459274E+03  0.12500000000E+03 0.  0.
         25    1    1    2    0    0 -0.27606453491E+02 -0.57238750011E+02 -0.84840366383E+03  0.85991404662E+03  0.12500000000E+03 0.  0.
</event>
<event>
 5    0  0.5771525E-005  0.2118566E+03  0.7546771E-02  0.1140104E+00
         21   -1    0    0  502  501  0.00000000000E+00  0.00000000000E+00  0.28711487718E+03  0.28711487718E+03  0.00000000000E+00 0.  1.
         21   -1    0    0  501  502 -0.00000000000E+00 -0.00000000000E+00 -0.15632500983E+03  0.15632500983E+03  0.00000000000E+00 0.  1.
         25    1    1    2    0    0  0.26276398209E+02 -0.28643672840E+02  0.65325692668E+02  0.14629885584E+03  0.12500000000E+03 0.  0.
         25    1    1    2    0    0  0.12699148302E+02  0.63642283385E+02  0.78054553940E+02  0.16102522160E+03  0.12500000000E+03 0.  0.
         25    1    1    2    0    0 -0.38975546511E+02 -0.34998610544E+02 -0.12590379261E+02  0.13611580957E+03  0.12500000000E+03 0.  0.
</event>
<event>
 5    0  0.5771525E-005  0.3229295E+03  0.7546771E-02  0.1074309E+00
         21   -1    0    0  502  501  0.00000000000E+00  0.00000000000E+00  0.29513951125E+03  0.29513951125E+03  0.00000000000E+00 0.  1.
         21   -1    0    0  501  502 -0.00000000000E+00 -0.00000000000E+00 -0.35333625075E+03  0.35333625075E+03  0.00000000000E+00 0.  1.
         25    1    1    2    0    0 -0.89444472193E+02 -0.18678881804E+03 -0.47527341700E+02  0.24652428756E+03  0.12500000000E+03 0.  0.
         25    1    1    2    0    0  0.33533843917E+01 -0.37291513760E+02 -0.14412298478E+02  0.13128067844E+03  0.12500000000E+03 0.  0.
         25    1    1    2    0    0  0.86091087802E+02  0.22408033180E+03  0.37429006850E+01  0.27067079599E+03  0.12500000000E+03 0.  0.
</event>
<event>
 5    0  0.5771525E-005  0.2301871E+03  0.7546771E-02  0.1126508E+00
         21   -1    0    0  502  501  0.00000000000E+00  0.00000000000E+00  0.93311466081E+02  0.93311466081E+02  0.00000000000E+00 0.  1.
         21   -1    0    0  501  502 -0.00000000000E+00 -0.00000000000E+00 -0.56784120487E+03  0.56784120487E+03  0.00000000000E+00 0.  1.
         25    1    1    2    0    0  0.84471069447E+02 -0.89715106053E+02 -0.17923883272E+03  0.25086992841E+03  0.12500000000E+03 0.  0.
         25    1    1    2    0    0 -0.19912609242E+02  0.55382845786E+02 -0.12078977972E+03  0.18351823479E+03  0.12500000000E+03 0.  0.
         25    1    1    2    0    0 -0.64558460205E+02  0.34332260267E+02 -0.17450112635E+03  0.22676450775E+03  0.12500000000E+03 0.  0.
</event>
<event>
 5    0  0.5771525E-005  0.2844593E+03  0.7546771E-02  0.1093278E+00
         21   -1    0    0  502  501  0.00000000000E+00  0.00000000000E+00  0.23063125465E+03  0.23063125465E+03  0.00000000000E+00 0.  1.
         21   -1    0    0  501  502 -0.00000000000E+00 -0.00000000000E+00 -0.35085058020E+03  0.35085058020E+03  0.00000000000E+00 0.  1.
         25    1    1    2    0    0  0.68546231324E+01 -0.15689803826E+03  0.50913034704E+02  0.20707756366E+03  0.12500000000E+03 0.  0.
         25    1    1    2    0    0 -0.21950211468E+02  0.57227902353E+00 -0.99543629699E+02  0.16129498907E+03  0.12500000000E+03 0.  0.
         25    1    1    2    0    0  0.15095588336E+02  0.15632575923E+03 -0.71588730555E+02  0.21310928213E+03  0.12500000000E+03 0.  0.
</event>
<event>
 5    0  0.5771525E-005  0.2795250E+03  0.7546771E-02  0.1095949E+00
         21   -1    0    0  502  501  0.00000000000E+00  0.00000000000E+00  0.63398404902E+02  0.63398404902E+02  0.00000000000E+00 0. -1.
         21   -1    0    0  501  502 -0.00000000000E+00 -0.00000000000E+00 -0.12324318009E+04  0.12324318009E+04  0.00000000000E+00 0. -1.
         25    1    1    2    0    0  0.60187344548E+01  0.88404878993E+02 -0.33150424309E+03  0.36520091865E+03  0.12500000000E+03 0.  0.
         25    1    1    2    0    0  0.63926826522E+02 -0.85806215111E+02 -0.73816312186E+03  0.75627980283E+03  0.12500000000E+03 0.  0.
         25    1    1    2    0    0 -0.69945560977E+02 -0.25986638827E+01 -0.99366031035E+02  0.17434948431E+03  0.12500000000E+03 0.  0.
</event>
<event>
 5    0  0.5771525E-005  0.3611184E+03  0.7546771E-02  0.1058142E+00
         21   -1    0    0  502  501  0.00000000000E+00  0.00000000000E+00  0.23031792504E+03  0.23031792504E+03  0.00000000000E+00 0. -1.
         21   -1    0    0  501  502 -0.00000000000E+00 -0.00000000000E+00 -0.56620220751E+03  0.56620220751E+03  0.00000000000E+00 0. -1.
         25    1    1    2    0    0 -0.10557074544E+03 -0.12613789643E+03 -0.15509972905E+02  0.20717507202E+03  0.12500000000E+03 0.  0.
         25    1    1    2    0    0 -0.13828543558E+03  0.10474340139E+03 -0.18598436296E+03  0.28338882316E+03  0.12500000000E+03 0.  0.
         25    1    1    2    0    0  0.24385618102E+03  0.21394495044E+02 -0.13438994660E+03  0.30595623737E+03  0.12500000000E+03 0.  0.
</event>
<event>
 5    0  0.5771525E-005  0.2683434E+03  0.7546771E-02  0.1102231E+00
         21   -1    0    0  502  501  0.00000000000E+00  0.00000000000E+00  0.94788999913E+02  0.94788999913E+02  0.00000000000E+00 0. -1.
         21   -1    0    0  501  502 -0.00000000000E+00 -0.00000000000E+00 -0.75966802912E+03  0.75966802912E+03  0.00000000000E+00 0. -1.
         25    1    1    2    0    0 -0.46195932536E+02  0.46409196155E+02 -0.71613323335E+02  0.15824457574E+03  0.12500000000E+03 0.  0.
         25    1    1    2    0    0  0.51454546892E+02 -0.12614561758E+03 -0.18383429977E+03  0.26073039141E+03  0.12500000000E+03 0.  0.
         25    1    1    2    0    0 -0.52586143558E+01  0.79736421426E+02 -0.40943140610E+03  0.43548206189E+03  0.12500000000E+03 0.  0.
</event>
<event>
 5    0  0.5771525E-005  0.3505199E+03  0.7546771E-02  0.1062402E+00
         21   -1    0    0  502  501  0.00000000000E+00  0.00000000000E+00  0.13089107742E+03  0.13089107742E+03  0.00000000000E+00 0.  1.
         21   -1    0    0  501  502 -0.00000000000E+00 -0.00000000000E+00 -0.93867533495E+03  0.93867533495E+03  0.00000000000E+00 0.  1.
         25    1    1    2    0    0 -0.15313488557E+03 -0.38473672425E+02 -0.11721863950E+03  0.23301443323E+03  0.12500000000E+03 0.  0.
         25    1    1    2    0    0  0.13855144029E+03 -0.64668206715E+02 -0.94990963264E+02  0.21915008936E+03  0.12500000000E+03 0.  0.
         25    1    1    2    0    0  0.14583445275E+02  0.10314187914E+03 -0.59557465477E+03  0.61740188979E+03  0.12500000000E+03 0.  0.
</event>
<event>
 5    0  0.5771525E-005  0.5826338E+03  0.7546771E-02  0.9942105E-01
         21   -1    0    0  502  501  0.00000000000E+00  0.00000000000E+00  0.67313885755E+03  0.67313885755E+03  0.00000000000E+00 0. -1.
         21   -1    0    0  501  502 -0.00000000000E+00 -0.00000000000E+00 -0.50429732991E+03  0.50429732991E+03  0.00000000000E+00 0. -1.
         25    1    1    2    0    0 -0.39397295261E+03  0.21328795937E+02 -0.22424370204E+03  0.47072268145E+03  0.12500000000E+03 0.  0.
         25    1    1    2    0    0  0.31050724431E+03 -0.16797169396E+03  0.28448106979E+03  0.47030173060E+03  0.12500000000E+03 0.  0.
         25    1    1    2    0    0  0.83465708309E+02  0.14664289802E+03  0.10860415990E+03  0.23641177541E+03  0.12500000000E+03 0.  0.
</event>
<event>
 5    0  0.5978197E-005  0.2834286E+03  0.7546771E-02  0.1093831E+00
         21   -1    0    0  502  501  0.00000000000E+00  0.00000000000E+00  0.15641824433E+03  0.15641824433E+03  0.00000000000E+00 0.  1.
         21   -1    0    0  501  502 -0.00000000000E+00 -0.00000000000E+00 -0.51357036215E+03  0.51357036215E+03  0.00000000000E+00 0.  1.
         25    1    1    2    0    0 -0.74700957433E+02  0.88257338189E+02 -0.17588094522E+03  0.24480338576E+03  0.12500000000E+03 0.  0.
         25    1    1    2    0    0 -0.39984984387E+02 -0.44678227686E+02  0.38762034664E+02  0.14395290319E+03  0.12500000000E+03 0.  0.
         25    1    1    2    0    0  0.11468594182E+03 -0.43579110503E+02 -0.22003320726E+03  0.28123231752E+03  0.12500000000E+03 0.  0.
</event>
<event>
 5    0  0.5771525E-005  0.2361506E+03  0.7546771E-02  0.1122384E+00
         21   -1    0    0  502  501  0.00000000000E+00  0.00000000000E+00  0.25857245048E+03  0.25857245048E+03  0.00000000000E+00 0. -1.
         21   -1    0    0  501  502 -0.00000000000E+00 -0.00000000000E+00 -0.21567296721E+03  0.21567296721E+03  0.00000000000E+00 0. -1.
         25    1    1    2    0    0  0.17491494125E+02 -0.16005331408E+01  0.10932568768E+02  0.12670057274E+03  0.12500000000E+03 0.  0.
         25    1    1    2    0    0  0.90113555968E+02  0.80331767534E+01 -0.51380019749E+02  0.16263422557E+03  0.12500000000E+03 0.  0.
         25    1    1    2    0    0 -0.10760505009E+03 -0.64326436126E+01  0.83346934252E+02  0.18491061938E+03  0.12500000000E+03 0.  0.
</event>
<event>
 5    0  0.5771525E-005  0.2455735E+03  0.7546771E-02  0.1116135E+00
         21   -1    0    0  502  501  0.00000000000E+00  0.00000000000E+00  0.65643337535E+03  0.65643337535E+03  0.00000000000E+00 0. -1.
         21   -1    0    0  501  502 -0.00000000000E+00 -0.00000000000E+00 -0.91869745075E+02  0.91869745075E+02  0.00000000000E+00 0. -1.
         25    1    1    2    0    0  0.12759169345E+03 -0.39200336922E+02  0.13465323387E+03  0.22709645538E+03  0.12500000000E+03 0.  0.
         25    1    1    2    0    0 -0.98790306920E+02 -0.13887683329E+01  0.21386330719E+03  0.26669077146E+03  0.12500000000E+03 0.  0.
         25    1    1    2    0    0 -0.28801386533E+02  0.40589105255E+02  0.21604708922E+03  0.25451589359E+03  0.12500000000E+03 0.  0.
</event>
<event>
 5    0  0.5771525E-005  0.4758301E+03  0.7546771E-02  0.1020287E+00
         21   -1    0    0  502  501  0.00000000000E+00  0.00000000000E+00  0.11830277284E+04  0.11830277284E+04  0.00000000000E+00 0. -1.
         21   -1    0    0  501  502 -0.00000000000E+00 -0.00000000000E+00 -0.19138547809E+03  0.19138547809E+03  0.00000000000E+00 0. -1.
         25    1    1    2    0    0 -0.16532921229E+03 -0.87641766986E+02 -0.46851894486E+02  0.22985849511E+03  0.12500000000E+03 0.  0.
         25    1    1    2    0    0 -0.65880480253E+02  0.15176415965E+03  0.51763065312E+03  0.55761912708E+03  0.12500000000E+03 0.  0.
         25    1    1    2    0    0  0.23120969254E+03 -0.64122392663E+02  0.52086349172E+03  0.58693558435E+03  0.12500000000E+03 0.  0.
</event>
<event>
 5    0  0.5771525E-005  0.5988834E+03  0.7546771E-02  0.9907725E-01
         21   -1    0    0  502  501  0.00000000000E+00  0.00000000000E+00  0.26359499043E+03  0.26359499043E+03  0.00000000000E+00 0. -1.
         21   -1    0    0  501  502 -0.00000000000E+00 -0.00000000000E+00 -0.13606529197E+04  0.13606529197E+04  0.00000000000E+00 0. -1.
         25    1    1    2    0    0 -0.27497873897E+03  0.25916114413E+03 -0.15281944619E+02  0.39829178167E+03  0.12500000000E+03 0.  0.
         25    1    1    2    0    0 -0.64900728004E+02 -0.18674058858E+02 -0.27231909376E+03  0.30715389269E+03  0.12500000000E+03 0.  0.
         25    1    1    2    0    0  0.33987946697E+03 -0.24048708527E+03 -0.80945689093E+03  0.91880223581E+03  0.12500000000E+03 0.  0.
</event>
<event>
 5    0  0.5771525E-005  0.2488286E+03  0.7546771E-02  0.1114047E+00
         21   -1    0    0  502  501  0.00000000000E+00  0.00000000000E+00  0.12731878090E+04  0.12731878090E+04  0.00000000000E+00 0. -1.
         21   -1    0    0  501  502 -0.00000000000E+00 -0.00000000000E+00 -0.48630438218E+02  0.48630438218E+02  0.00000000000E+00 0. -1.
         25    1    1    2    0    0  0.39560844858E+02 -0.47689847482E+02  0.41369834860E+03  0.43658985974E+03  0.12500000000E+03 0.  0.
         25    1    1    2    0    0  0.24512853283E+02  0.13825822703E+03  0.43527665644E+03  0.47413814966E+03  0.12500000000E+03 0.  0.
         25    1    1    2    0    0 -0.64073698142E+02 -0.90568379551E+02  0.37558236570E+03  0.41109023778E+03  0.12500000000E+03 0.  0.
</event>
<event>
 5    0  0.5771525E-005  0.3134652E+03  0.7546771E-02  0.1078697E+00
         21   -1    0    0  502  501  0.00000000000E+00  0.00000000000E+00  0.16076223001E+03  0.16076223001E+03  0.00000000000E+00 0.  1.
         21   -1    0    0  501  502 -0.00000000000E+00 -0.00000000000E+00 -0.61121574430E+03  0.61121574430E+03  0.00000000000E+00 0.  1.
         25    1    1    2    0    0  0.15758834603E+03 -0.38033106193E+02 -0.41417095173E+03  0.46199911388E+03  0.12500000000E+03 0.  0.
         25    1    1    2    0    0 -0.69629590179E+02  0.49801787339E+02  0.37122918194E+01  0.15154959241E+03  0.12500000000E+03 0.  0.
         25    1    1    2    0    0 -0.87958755846E+02 -0.11768681146E+02 -0.39994854380E+02  0.15842926801E+03  0.12500000000E+03 0.  0.
</event>
<event>
 5    0  0.5771525E-005  0.2423507E+03  0.7546771E-02  0.1118237E+00
         21   -1    0    0  502  501  0.00000000000E+00  0.00000000000E+00  0.46366792184E+03  0.46366792184E+03  0.00000000000E+00 0. -1.
         21   -1    0    0  501  502 -0.00000000000E+00 -0.00000000000E+00 -0.12667229960E+03  0.12667229960E+03  0.00000000000E+00 0. -1.
         25    1    1    2    0    0  0.85285126201E+02  0.48168169262E+01  0.72030840786E+02  0.16766095700E+03  0.12500000000E+03 0.  0.
         25    1    1    2    0    0  0.34959138174E+02  0.47698607962E+01  0.19738559557E+03  0.23628577243E+03  0.12500000000E+03 0.  0.
         25    1    1    2    0    0 -0.12024426438E+03 -0.95866777224E+01  0.67579185887E+02  0.18639349203E+03  0.12500000000E+03 0.  0.
</event>
<event>
 5    0  0.5771525E-005  0.6291528E+03  0.7546771E-02  0.9846704E-01
         21   -1    0    0  502  501  0.00000000000E+00  0.00000000000E+00  0.23336841151E+03  0.23336841151E+03  0.00000000000E+00 0. -1.
         21   -1    0    0  501  502 -0.00000000000E+00 -0.00000000000E+00 -0.16961729671E+04  0.16961729671E+04  0.00000000000E+00 0. -1.
         25    1    1    2    0    0 -0.15584768694E+03 -0.11144666356E+03 -0.11640817495E+04  0.11863474111E+04  0.12500000000E+03 0.  0.
         25    1    1    2    0    0 -0.45278549218E+01 -0.83204148254E+01 -0.44716401395E+03  0.46440325811E+03  0.12500000000E+03 0.  0.
         25    1    1    2    0    0  0.16037554187E+03  0.11976707838E+03  0.14844120781E+03  0.27879070944E+03  0.12500000000E+03 0.  0.
</event>
<event>
 5    0  0.5771525E-005  0.3655939E+03  0.7546771E-02  0.1056391E+00
         21   -1    0    0  502  501  0.00000000000E+00  0.00000000000E+00  0.38063999506E+03  0.38063999506E+03  0.00000000000E+00 0.  1.
         21   -1    0    0  501  502 -0.00000000000E+00 -0.00000000000E+00 -0.35114253835E+03  0.35114253835E+03  0.00000000000E+00 0.  1.
         25    1    1    2    0    0 -0.74238601941E+02 -0.17560153785E+03  0.97656044053E+01  0.22818334107E+03  0.12500000000E+03 0.  0.
         25    1    1    2    0    0 -0.15555250373E+03  0.11931304321E+03  0.37171448502E+02  0.23545466714E+03  0.12500000000E+03 0.  0.
         25    1    1    2    0    0  0.22979110567E+03  0.56288494642E+02 -0.17439596193E+02  0.26814452519E+03  0.12500000000E+03 0.  0.
</event>
<event>
 5    0  0.5771525E-005  0.4189158E+03  0.7546771E-02  0.1037420E+00
         21   -1    0    0  502  501  0.00000000000E+00  0.00000000000E+00  0.22025695891E+03  0.22025695891E+03  0.00000000000E+00 0. -1.
         21   -1    0    0  501  502 -0.00000000000E+00 -0.00000000000E+00 -0.79675342403E+03  0.79675342403E+03  0.00000000000E+00 0. -1.
         25    1    1    2    0    0 -0.30416224437E+03  0.14006620837E+03 -0.34822825828E+03  0.49902017343E+03  0.12500000000E+03 0.  0.
         25    1    1    2    0    0  0.12063572801E+03 -0.58343292903E+02  0.82456743770E+01  0.18343911754E+03  0.12500000000E+03 0.  0.
         25    1    1    2    0    0  0.18352651636E+03 -0.81722915466E+02 -0.23651388122E+03  0.33455109196E+03  0.12500000000E+03 0.  0.
</event>
<event>
 5    0  0.5771525E-005  0.1974562E+03  0.7546771E-02  0.1151903E+00
         21   -1    0    0  502  501  0.00000000000E+00  0.00000000000E+00  0.15606854008E+04  0.15606854008E+04  0.00000000000E+00 0.  1.
         21   -1    0    0  501  502 -0.00000000000E+00 -0.00000000000E+00 -0.24981930954E+02  0.24981930954E+02  0.00000000000E+00 0.  1.
         25    1    1    2    0    0 -0.51618193647E+01  0.10506519461E+02  0.40072689241E+03  0.41993341571E+03  0.12500000000E+03 0.  0.
         25    1    1    2    0    0 -0.41067774731E+02  0.41619759158E+01  0.58976222805E+03  0.60427507793E+03  0.12500000000E+03 0.  0.
         25    1    1    2    0    0  0.46229594096E+02 -0.14668495377E+02  0.54521434941E+03  0.56145883814E+03  0.12500000000E+03 0.  0.
</event>
<event>
 5    0  0.5771525E-005  0.4974857E+03  0.7546771E-02  0.1014437E+00
         21   -1    0    0  502  501  0.00000000000E+00  0.00000000000E+00  0.11503375947E+04  0.11503375947E+04  0.00000000000E+00 0. -1.
         21   -1    0    0  501  502 -0.00000000000E+00 -0.00000000000E+00 -0.21514733487E+03  0.21514733487E+03  0.00000000000E+00 0. -1.
         25    1    1    2    0    0 -0.56951441359E+02  0.14143233320E+03  0.35914144514E+02  0.20040308711E+03  0.12500000000E+03 0.  0.
         25    1    1    2    0    0 -0.17810529986E+03 -0.21603835671E+03  0.10507214344E+03  0.32412840779E+03  0.12500000000E+03 0.  0.
         25    1    1    2    0    0  0.23505674121E+03  0.74606023519E+02  0.79420397185E+03  0.84095343465E+03  0.12500000000E+03 0.  0.
</event>
<event>
 5    0  0.5771525E-005  0.2744412E+03  0.7546771E-02  0.1098764E+00
         21   -1    0    0  502  501  0.00000000000E+00  0.00000000000E+00  0.10825691814E+04  0.10825691814E+04  0.00000000000E+00 0.  1.
         21   -1    0    0  501  502 -0.00000000000E+00 -0.00000000000E+00 -0.69573335828E+02  0.69573335828E+02  0.00000000000E+00 0.  1.
         25    1    1    2    0    0 -0.10811830379E+03  0.50735165481E+02  0.54294347989E+03  0.56980369162E+03  0.12500000000E+03 0.  0.
         25    1    1    2    0    0  0.73241343795E+02 -0.12668988343E+03  0.24244949844E+03  0.30955028719E+03  0.12500000000E+03 0.  0.
         25    1    1    2    0    0  0.34876960000E+02  0.75954717949E+02  0.22760286728E+03  0.27278853845E+03  0.12500000000E+03 0.  0.
</event>
<event>
 5    0  0.5771525E-005  0.3996310E+03  0.7546771E-02  0.1043908E+00
         21   -1    0    0  502  501  0.00000000000E+00  0.00000000000E+00  0.81506352818E+03  0.81506352818E+03  0.00000000000E+00 0.  1.
         21   -1    0    0  501  502 -0.00000000000E+00 -0.00000000000E+00 -0.19594172734E+03  0.19594172734E+03  0.00000000000E+00 0.  1.
         25    1    1    2    0    0  0.51359084004E+02 -0.33109184290E+03  0.30431585332E+03  0.46956650490E+03  0.12500000000E+03 0.  0.
         25    1    1    2    0    0 -0.45747075848E+02  0.11897212528E+03  0.63253950634E+02  0.18940228038E+03  0.12500000000E+03 0.  0.
         25    1    1    2    0    0 -0.56120081560E+01  0.21211971761E+03  0.25155199689E+03  0.35203647023E+03  0.12500000000E+03 0.  0.
</event>
<event>
 5    0  0.5771525E-005  0.2582410E+03  0.7546771E-02  0.1108205E+00
         21   -1    0    0  502  501  0.00000000000E+00  0.00000000000E+00  0.84562067511E+03  0.84562067511E+03  0.00000000000E+00 0. -1.
         21   -1    0    0  501  502 -0.00000000000E+00 -0.00000000000E+00 -0.78863248878E+02  0.78863248878E+02  0.00000000000E+00 0. -1.
         25    1    1    2    0    0 -0.14581351326E+02  0.35949687921E+02  0.57278748152E+03  0.58755041899E+03  0.12500000000E+03 0.  0.
         25    1    1    2    0    0  0.43159029321E+02 -0.18171310604E+02  0.14862882007E+03  0.19977093006E+03  0.12500000000E+03 0.  0.
         25    1    1    2    0    0 -0.28577677996E+02 -0.17778377317E+02  0.45341124638E+02  0.13716257494E+03  0.12500000000E+03 0.  0.
</event>
<event>
 5    0  0.5771525E-005  0.3376056E+03  0.7546771E-02  0.1067820E+00
         21   -1    0    0  502  501  0.00000000000E+00  0.00000000000E+00  0.27304772869E+03  0.27304772869E+03  0.00000000000E+00 0. -1.
         21   -1    0    0  501  502 -0.00000000000E+00 -0.00000000000E+00 -0.41742705171E+03  0.41742705171E+03  0.00000000000E+00 0. -1.
         25    1    1    2    0    0  0.14482441794E+03 -0.55833475087E+02  0.19143886680E+02  0.20020733595E+03  0.12500000000E+03 0.  0.
         25    1    1    2    0    0 -0.11315750440E+03 -0.79483890616E+02 -0.22620909620E+03  0.29311749329E+03  0.12500000000E+03 0.  0.
         25    1    1    2    0    0 -0.31666913537E+02  0.13531736570E+03  0.62685886497E+02  0.19714995115E+03  0.12500000000E+03 0.  0.
</event>
<event>
 5    0  0.5771525E-005  0.3157682E+03  0.7546771E-02  0.1077614E+00
         21   -1    0    0  502  501  0.00000000000E+00  0.00000000000E+00  0.13220190989E+03  0.13220190989E+03  0.00000000000E+00 0. -1.
         21   -1    0    0  501  502 -0.00000000000E+00 -0.00000000000E+00 -0.75422153898E+03  0.75422153898E+03  0.00000000000E+00 0. -1.
         25    1    1    2    0    0 -0.50060451220E+02  0.14696061134E+02 -0.12118090690E+00  0.13545123726E+03  0.12500000000E+03 0.  0.
         25    1    1    2    0    0  0.38380625996E+02  0.38584084293E+02 -0.59695791627E+03  0.61232798222E+03  0.12500000000E+03 0.  0.
         25    1    1    2    0    0  0.11679825224E+02 -0.53280145428E+02 -0.24940531918E+02  0.13864422940E+03  0.12500000000E+03 0.  0.
</event>
<event>
 5    0  0.5771525E-005  0.2469520E+03  0.7546771E-02  0.1115246E+00
         21   -1    0    0  502  501  0.00000000000E+00  0.00000000000E+00  0.44460650934E+02  0.44460650934E+02  0.00000000000E+00 0.  1.
         21   -1    0    0  501  502 -0.00000000000E+00 -0.00000000000E+00 -0.13716683871E+04  0.13716683871E+04  0.00000000000E+00 0.  1.
         25    1    1    2    0    0 -0.57766371825E+02 -0.36964833766E+01 -0.79927076860E+03  0.81105448598E+03  0.12500000000E+03 0.  0.
         25    1    1    2    0    0  0.86184734615E+02  0.14116103427E+02 -0.37761927301E+03  0.40724487499E+03  0.12500000000E+03 0.  0.
         25    1    1    2    0    0 -0.28418362790E+02 -0.10419620050E+02 -0.15031769453E+03  0.19782967703E+03  0.12500000000E+03 0.  0.
</event>
<event>
 5    0  0.5771525E-005  0.3136736E+03  0.7546771E-02  0.1078598E+00
         21   -1    0    0  502  501  0.00000000000E+00  0.00000000000E+00  0.16931845009E+04  0.16931845009E+04  0.00000000000E+00 0. -1.
         21   -1    0    0  501  502 -0.00000000000E+00 -0.00000000000E+00 -0.58110100738E+02  0.58110100738E+02  0.00000000000E+00 0. -1.
         25    1    1    2    0    0 -0.32158123027E+02  0.81394787551E+02  0.86769413793E+02  0.17553685507E+03  0.12500000000E+03 0.  0.
         25    1    1    2    0    0 -0.12301652337E+01  0.21288883038E+02  0.73323212051E+03  0.74411630300E+03  0.12500000000E+03 0.  0.
         25    1    1    2    0    0  0.33388288261E+02 -0.10268367059E+03  0.81507286583E+03  0.83164144354E+03  0.12500000000E+03 0.  0.
</event>
<event>
 5    0  0.5771525E-005  0.4066344E+03  0.7546771E-02  0.1041506E+00
         21   -1    0    0  502  501  0.00000000000E+00  0.00000000000E+00  0.73888922992E+02  0.73888922992E+02  0.00000000000E+00 0. -1.
         21   -1    0    0  501  502 -0.00000000000E+00 -0.00000000000E+00 -0.22378388085E+04  0.22378388085E+04  0.00000000000E+00 0. -1.
         25    1    1    2    0    0  0.84203053671E+02  0.96160931623E+02 -0.25703018560E+03  0.31309199180E+03  0.12500000000E+03 0.  0.
         25    1    1    2    0    0  0.15388798143E+03 -0.18170013456E+03 -0.13236242986E+04  0.13506675140E+04  0.12500000000E+03 0.  0.
         25    1    1    2    0    0 -0.23809103511E+03  0.85539202934E+02 -0.58329540138E+03  0.64796822569E+03  0.12500000000E+03 0.  0.
</event>
<event>
 5    0  0.5868394E-005  0.3600235E+03  0.7546771E-02  0.1058575E+00
         21   -1    0    0  502  501  0.00000000000E+00  0.00000000000E+00  0.20999115092E+03  0.20999115092E+03  0.00000000000E+00 0. -1.
         21   -1    0    0  501  502 -0.00000000000E+00 -0.00000000000E+00 -0.61724951412E+03  0.61724951412E+03  0.00000000000E+00 0. -1.
         25    1    1    2    0    0 -0.55233915082E+02  0.65660457708E+02 -0.21572528605E+03  0.26367495164E+03  0.12500000000E+03 0.  0.
         25    1    1    2    0    0 -0.12952900563E+03 -0.19063785628E+03 -0.15684364887E+03  0.30552493472E+03  0.12500000000E+03 0.  0.
         25    1    1    2    0    0  0.18476292071E+03  0.12497739858E+03 -0.34689428291E+02  0.25804077868E+03  0.12500000000E+03 0.  0.
</event>
<event>
 5    0  0.5771525E-005  0.8468951E+03  0.7546771E-02  0.9494514E-01
         21   -1    0    0  502  501  0.00000000000E+00  0.00000000000E+00  0.56682323516E+03  0.56682323516E+03  0.00000000000E+00 0. -1.
         21   -1    0    0  501  502 -0.00000000000E+00 -0.00000000000E+00 -0.12653527444E+04  0.12653527444E+04  0.00000000000E+00 0. -1.
         25    1    1    2    0    0 -0.17304824135E+03 -0.56476443505E+02 -0.10723614521E+04  0.10948604324E+04  0.12500000000E+03 0.  0.
         25    1    1    2    0    0  0.30717213624E+03  0.19525595910E+03  0.32156576682E+03  0.50150688254E+03  0.12500000000E+03 0.  0.
         25    1    1    2    0    0 -0.13412389489E+03 -0.13877951559E+03  0.52266176080E+02  0.23580866458E+03  0.12500000000E+03 0.  0.
</event>
<event>
 5    0  0.5771525E-005  0.2531214E+03  0.7546771E-02  0.1111348E+00
         21   -1    0    0  502  501  0.00000000000E+00  0.00000000000E+00  0.36279145345E+03  0.36279145345E+03  0.00000000000E+00 0.  1.
         21   -1    0    0  501  502 -0.00000000000E+00 -0.00000000000E+00 -0.17660408309E+03  0.17660408309E+03  0.00000000000E+00 0.  1.
         25    1    1    2    0    0  0.43825672170E+02  0.11164867815E+03  0.12522035134E+03  0.21375512453E+03  0.12500000000E+03 0.  0.
         25    1    1    2    0    0 -0.37970563161E+02 -0.98518612061E+02 -0.35086698085E+02  0.16734323103E+03  0.12500000000E+03 0.  0.
         25    1    1    2    0    0 -0.58551090096E+01 -0.13130066091E+02  0.96053717107E+02  0.15829718098E+03  0.12500000000E+03 0.  0.
</event>
<event>
 5    0  0.5771525E-005  0.5062173E+03  0.7546771E-02  0.1012169E+00
         21   -1    0    0  502  501  0.00000000000E+00  0.00000000000E+00  0.19414532559E+03  0.19414532559E+03  0.00000000000E+00 0.  1.
         21   -1    0    0  501  502 -0.00000000000E+00 -0.00000000000E+00 -0.13199180981E+04  0.13199180981E+04  0.00000000000E+00 0.  1.
         25    1    1    2    0    0 -0.26287307507E+03 -0.28708233211E+02 -0.86410451922E+03  0.91226533223E+03  0.12500000000E+03 0.  0.
         25    1    1    2    0    0  0.21005422896E+03 -0.17119957532E+03 -0.16948884379E+03  0.34319606912E+03  0.12500000000E+03 0.  0.
         25    1    1    2    0    0  0.52818846115E+02  0.19990780854E+03 -0.92179409499E+02  0.25860202233E+03  0.12500000000E+03 0.  0.
</event>
<event>
 5    0  0.5771525E-005  0.3423444E+03  0.7546771E-02  0.1065802E+00
         21   -1    0    0  502  501  0.00000000000E+00  0.00000000000E+00  0.15702953460E+03  0.15702953460E+03  0.00000000000E+00 0. -1.
         21   -1    0    0  501  502 -0.00000000000E+00 -0.00000000000E+00 -0.74635454189E+03  0.74635454189E+03  0.00000000000E+00 0. -1.
         25    1    1    2    0    0  0.85196711817E+01 -0.59210522369E+02 -0.85683830451E+00  0.13857923700E+03  0.12500000000E+03 0.  0.
         25    1    1    2    0    0  0.18815710473E+03  0.73347178268E+02 -0.39809596256E+03  0.46356045994E+03  0.12500000000E+03 0.  0.
         25    1    1    2    0    0 -0.19667677591E+03 -0.14136655899E+02 -0.19037220643E+03  0.30124437954E+03  0.12500000000E+03 0.  0.
</event>
<event>
 5    0  0.5850900E-005  0.2770295E+03  0.7546771E-02  0.1097322E+00
         21   -1    0    0  502  501  0.00000000000E+00  0.00000000000E+00  0.32179441256E+03  0.32179441256E+03  0.00000000000E+00 0. -1.
         21   -1    0    0  501  502 -0.00000000000E+00 -0.00000000000E+00 -0.23849191680E+03  0.23849191680E+03  0.00000000000E+00 0. -1.
         25    1    1    2    0    0 -0.99771948304E+02  0.41685704204E+02  0.78982049815E+02  0.18318106834E+03  0.12500000000E+03 0.  0.
         25    1    1    2    0    0 -0.75849850372E+02  0.12970077692E+02 -0.35896840494E+02  0.15111256028E+03  0.12500000000E+03 0.  0.
         25    1    1    2    0    0  0.17562179868E+03 -0.54655781897E+02  0.40217286435E+02  0.22599270075E+03  0.12500000000E+03 0.  0.
</event>
<event>
 5    0  0.5771525E-005  0.3214082E+03  0.7546771E-02  0.1075003E+00
         21   -1    0    0  502  501  0.00000000000E+00  0.00000000000E+00  0.78418105299E+03  0.78418105299E+03  0.00000000000E+00 0.  1.
         21   -1    0    0  501  502 -0.00000000000E+00 -0.00000000000E+00 -0.13173387416E+03  0.13173387416E+03  0.00000000000E+00 0.  1.
         25    1    1    2    0    0 -0.12618220051E+03  0.61936562184E+02  0.57021091199E+03  0.60043614948E+03  0.12500000000E+03 0.  0.
         25    1    1    2    0    0  0.20017804853E+02 -0.20513255838E+01  0.11599631526E+02  0.12713957645E+03  0.12500000000E+03 0.  0.
         25    1    1    2    0    0  0.10616439565E+03 -0.59885236600E+02  0.70636635318E+02  0.18833920122E+03  0.12500000000E+03 0.  0.
</event>
<event>
 5    0  0.5771525E-005  0.2723244E+03  0.7546771E-02  0.1099957E+00
         21   -1    0    0  502  501  0.00000000000E+00  0.00000000000E+00  0.74043557967E+03  0.74043557967E+03  0.00000000000E+00 0.  1.
         21   -1    0    0  501  502 -0.00000000000E+00 -0.00000000000E+00 -0.10015802901E+03  0.10015802901E+03  0.00000000000E+00 0.  1.
         25    1    1    2    0    0 -0.14671819197E+02  0.66794879364E+02  0.20304509855E+03  0.24805066062E+03  0.12500000000E+03 0.  0.
         25    1    1    2    0    0 -0.94371424540E+02 -0.90274244244E+02  0.37042317289E+03  0.41218167348E+03  0.12500000000E+03 0.  0.
         25    1    1    2    0    0  0.10904324374E+03  0.23479364880E+02  0.66809279222E+02  0.18036127459E+03  0.12500000000E+03 0.  0.
</event>
<event>
 5    0  0.5771525E-005  0.3609194E+03  0.7546771E-02  0.1058220E+00
         21   -1    0    0  502  501  0.00000000000E+00  0.00000000000E+00  0.58513482194E+02  0.58513482194E+02  0.00000000000E+00 0.  1.
         21   -1    0    0  501  502 -0.00000000000E+00 -0.00000000000E+00 -0.22262013208E+04  0.22262013208E+04  0.00000000000E+00 0.  1.
         25    1    1    2    0    0 -0.11188865386E+03 -0.36038344161E+02 -0.13062336896E+03  0.21565086977E+03  0.12500000000E+03 0.  0.
         25    1    1    2    0    0  0.86253169523E+02 -0.46806754164E+02 -0.50381255165E+03  0.52828265984E+03  0.12500000000E+03 0.  0.
         25    1    1    2    0    0  0.25635484342E+02  0.82845098325E+02 -0.15332519180E+04  0.15407812734E+04  0.12500000000E+03 0.  0.
</event>
<event>
 5    0  0.5771525E-005  0.2300175E+03  0.7546771E-02  0.1126627E+00
         21   -1    0    0  502  501  0.00000000000E+00  0.00000000000E+00  0.49490713523E+03  0.49490713523E+03  0.00000000000E+00 0.  1.
         21   -1    0    0  501  502 -0.00000000000E+00 -0.00000000000E+00 -0.10690504452E+03  0.10690504452E+03  0.00000000000E+00 0.  1.
         25    1    1    2    0    0  0.45197669094E+02 -0.69972619421E+02  0.70664638299E+02  0.16600448146E+03  0.12500000000E+03 0.  0.
         25    1    1    2    0    0  0.34681015622E+02  0.60804250151E+02  0.10961341252E+03  0.18038855253E+03  0.12500000000E+03 0.  0.
         25    1    1    2    0    0 -0.79878684716E+02  0.91683692699E+01  0.20772403989E+03  0.25541914575E+03  0.12500000000E+03 0.  0.
</event>
<event>
 5    0  0.5771525E-005  0.2978759E+03  0.7546771E-02  0.1086307E+00
         21   -1    0    0  502  501  0.00000000000E+00  0.00000000000E+00  0.51868687874E+02  0.51868687874E+02  0.00000000000E+00 0. -1.
         21   -1    0    0  501  502 -0.00000000000E+00 -0.00000000000E+00 -0.17106668474E+04  0.17106668474E+04  0.00000000000E+00 0. -1.
         25    1    1    2    0    0  0.68752309934E+02 -0.60143985316E+02 -0.90771462703E+03  0.92082301405E+03  0.12500000000E+03 0.  0.
         25    1    1    2    0    0 -0.11380017820E+03 -0.67240866974E+02 -0.26052870547E+03  0.31776094965E+03  0.12500000000E+03 0.  0.
         25    1    1    2    0    0  0.45047868265E+02  0.12738485229E+03 -0.49055482703E+03  0.52395157157E+03  0.12500000000E+03 0.  0.
</event>
<event>
 5    0  0.5771525E-005  0.4425923E+03  0.7546771E-02  0.1029954E+00
         21   -1    0    0  502  501  0.00000000000E+00  0.00000000000E+00  0.11447421239E+04  0.11447421239E+04  0.00000000000E+00 0. -1.
         21   -1    0    0  501  502 -0.00000000000E+00 -0.00000000000E+00 -0.17111971376E+03  0.17111971376E+03  0.00000000000E+00 0. -1.
         25    1    1    2    0    0  0.20063733765E+03 -0.18233021465E+03  0.18665433916E+03  0.35208591389E+03  0.12500000000E+03 0.  0.
         25    1    1    2    0    0 -0.15586243720E+02 -0.12030605154E+03  0.31839234581E+03  0.36292583664E+03  0.12500000000E+03 0.  0.
         25    1    1    2    0    0 -0.18505109393E+03  0.30263626619E+03  0.46857572517E+03  0.60085008712E+03  0.12500000000E+03 0.  0.
</event>
<event>
 5    0  0.5771525E-005  0.3295119E+03  0.7546771E-02  0.1071353E+00
         21   -1    0    0  502  501  0.00000000000E+00  0.00000000000E+00  0.15303721652E+04  0.15303721652E+04  0.00000000000E+00 0. -1.
         21   -1    0    0  501  502 -0.00000000000E+00 -0.00000000000E+00 -0.70948807325E+02  0.70948807325E+02  0.00000000000E+00 0. -1.
         25    1    1    2    0    0 -0.89860413287E+02  0.13515341082E+03  0.58994379172E+03  0.62449981243E+03  0.12500000000E+03 0.  0.
         25    1    1    2    0    0  0.11798465639E+03 -0.78369608093E+02  0.14295552586E+03  0.23690389822E+03  0.12500000000E+03 0.  0.
         25    1    1    2    0    0 -0.28124243106E+02 -0.56783802725E+02  0.72652404025E+03  0.73991726184E+03  0.12500000000E+03 0.  0.
</event>
<event>
 5    0  0.8262434E-005  0.4204240E+03  0.7546771E-02  0.1036928E+00
         21   -1    0    0  502  501  0.00000000000E+00  0.00000000000E+00  0.38374252179E+03  0.38374252179E+03  0.00000000000E+00 0.  1.
         21   -1    0    0  501  502 -0.00000000000E+00 -0.00000000000E+00 -0.46061170911E+03  0.46061170911E+03  0.00000000000E+00 0.  1.
         25    1    1    2    0    0 -0.22097540420E+03 -0.17242477385E+03 -0.12268044755E+03  0.33050858402E+03  0.12500000000E+03 0.  0.
         25    1    1    2    0    0  0.11077272943E+03  0.11310000160E+03  0.19640589403E+03  0.28153593582E+03  0.12500000000E+03 0.  0.
         25    1    1    2    0    0  0.11020267477E+03  0.59324772247E+02 -0.15059463380E+03  0.23230971107E+03  0.12500000000E+03 0.  0.
</event>
<event>
 5    0  0.5771525E-005  0.2952936E+03  0.7546771E-02  0.1087617E+00
         21   -1    0    0  502  501  0.00000000000E+00  0.00000000000E+00  0.10006747773E+04  0.10006747773E+04  0.00000000000E+00 0. -1.
         21   -1    0    0  501  502 -0.00000000000E+00 -0.00000000000E+00 -0.87139500245E+02  0.87139500245E+02  0.00000000000E+00 0. -1.
         25    1    1    2    0    0  0.15269544481E+03  0.41211792726E+02  0.39065783742E+03  0.43960534194E+03  0.12500000000E+03 0.  0.
         25    1    1    2    0    0 -0.18429961566E+03 -0.88179989400E+02  0.27334111738E+03  0.36343145890E+03  0.12500000000E+03 0.  0.
         25    1    1    2    0    0  0.31604170850E+02  0.46968196674E+02  0.24953632224E+03  0.28477747669E+03  0.12500000000E+03 0.  0.
</event>
<event>
 5    0  0.5771525E-005  0.2253212E+03  0.7546771E-02  0.1129977E+00
         21   -1    0    0  502  501  0.00000000000E+00  0.00000000000E+00  0.11756280612E+03  0.11756280612E+03  0.00000000000E+00 0. -1.
         21   -1    0    0  501  502 -0.00000000000E+00 -0.00000000000E+00 -0.43185114499E+03  0.43185114499E+03  0.00000000000E+00 0. -1.
         25    1    1    2    0    0  0.62768440042E+02 -0.67179404705E+02 -0.10644768439E+03  0.18817294969E+03  0.12500000000E+03 0.  0.
         25    1    1    2    0    0 -0.67970780293E+02 -0.73833203817E+01 -0.62820346666E+02  0.15571106688E+03  0.12500000000E+03 0.  0.
         25    1    1    2    0    0  0.52023402504E+01  0.74562725087E+02 -0.14502030782E+03  0.20552993455E+03  0.12500000000E+03 0.  0.
</event>
<event>
 5    0  0.6903326E-005  0.3165054E+03  0.7546771E-02  0.1077269E+00
         21   -1    0    0  502  501  0.00000000000E+00  0.00000000000E+00  0.24565912453E+03  0.24565912453E+03  0.00000000000E+00 0.  1.
         21   -1    0    0  501  502 -0.00000000000E+00 -0.00000000000E+00 -0.40778316980E+03  0.40778316980E+03  0.00000000000E+00 0.  1.
         25    1    1    2    0    0  0.13167480587E+02  0.21194979752E+02  0.79970684578E+02  0.15047564621E+03  0.12500000000E+03 0.  0.
         25    1    1    2    0    0  0.15080851514E+03 -0.44601743028E+02 -0.21407186298E+03  0.29357160326E+03  0.12500000000E+03 0.  0.
         25    1    1    2    0    0 -0.16397599573E+03  0.23406763276E+02 -0.28022866859E+02  0.20939504486E+03  0.12500000000E+03 0.  0.
</event>
<event>
 5    0  0.5771525E-005  0.3084963E+03  0.7546771E-02  0.1081069E+00
         21   -1    0    0  502  501  0.00000000000E+00  0.00000000000E+00  0.22539415127E+03  0.22539415127E+03  0.00000000000E+00 0. -1.
         21   -1    0    0  501  502 -0.00000000000E+00 -0.00000000000E+00 -0.42223792674E+03  0.42223792674E+03  0.00000000000E+00 0. -1.
         25    1    1    2    0    0 -0.71221356334E+02 -0.19931645716E+03 -0.11366202159E+03  0.27082021129E+03  0.12500000000E+03 0.  0.
         25    1    1    2    0    0  0.68683047463E+02  0.52790306607E+02  0.27662630163E+02  0.15457813101E+03  0.12500000000E+03 0.  0.
         25    1    1    2    0    0  0.25383088716E+01  0.14652615055E+03 -0.11084438404E+03  0.22223373570E+03  0.12500000000E+03 0.  0.
</event>
<event>
 5    0  0.5771525E-005  0.2502110E+03  0.7546771E-02  0.1113172E+00
         21   -1    0    0  502  501  0.00000000000E+00  0.00000000000E+00  0.11125113700E+04  0.11125113700E+04  0.00000000000E+00 0. -1.
         21   -1    0    0  501  502 -0.00000000000E+00 -0.00000000000E+00 -0.56274070679E+02  0.56274070679E+02  0.00000000000E+00 0. -1.
         25    1    1    2    0    0 -0.87805984495E+01 -0.53865956760E+02  0.19291477357E+03  0.23626203687E+03  0.12500000000E+03 0.  0.
         25    1    1    2    0    0  0.69764193029E+02  0.12631194643E+03  0.54912123831E+03  0.58136123435E+03  0.12500000000E+03 0.  0.
         25    1    1    2    0    0 -0.60983594579E+02 -0.72445989667E+02  0.31420128743E+03  0.35116216944E+03  0.12500000000E+03 0.  0.
</event>
<event>
 5    0  0.5771525E-005  0.2781619E+03  0.7546771E-02  0.1096697E+00
         21   -1    0    0  502  501  0.00000000000E+00  0.00000000000E+00  0.80428507615E+02  0.80428507615E+02  0.00000000000E+00 0.  1.
         21   -1    0    0  501  502 -0.00000000000E+00 -0.00000000000E+00 -0.96202266301E+03  0.96202266301E+03  0.00000000000E+00 0.  1.
         25    1    1    2    0    0  0.65492000423E+02 -0.14510471695E+03 -0.33121228531E+03  0.38816383003E+03  0.12500000000E+03 0.  0.
         25    1    1    2    0    0 -0.59953210724E+02 -0.23531029987E+02 -0.26473217414E+03  0.29976027234E+03  0.12500000000E+03 0.  0.
         25    1    1    2    0    0 -0.55387896992E+01  0.16863574693E+03 -0.28564969594E+03  0.35452706825E+03  0.12500000000E+03 0.  0.
</event>
<event>
 5    0  0.5771525E-005  0.3316866E+03  0.7546771E-02  0.1070393E+00
         21   -1    0    0  502  501  0.00000000000E+00  0.00000000000E+00  0.23007111046E+03  0.23007111046E+03  0.00000000000E+00 0.  1.
         21   -1    0    0  501  502 -0.00000000000E+00 -0.00000000000E+00 -0.47818263015E+03  0.47818263015E+03  0.00000000000E+00 0.  1.
         25    1    1    2    0    0 -0.15058836805E+03 -0.18503799718E+02  0.56274075221E+02  0.20447742843E+03  0.12500000000E+03 0.  0.
         25    1    1    2    0    0  0.96774258604E+01  0.99394746661E+02 -0.24086826073E+03  0.28916342657E+03  0.12500000000E+03 0.  0.
         25    1    1    2    0    0  0.14091094219E+03 -0.80890946943E+02 -0.63517334186E+02  0.21461288561E+03  0.12500000000E+03 0.  0.
</event>
<event>
 5    0  0.7064617E-005  0.3606243E+03  0.7546771E-02  0.1058337E+00
         21   -1    0    0  502  501  0.00000000000E+00  0.00000000000E+00  0.37760588324E+03  0.37760588324E+03  0.00000000000E+00 0.  1.
         21   -1    0    0  501  502 -0.00000000000E+00 -0.00000000000E+00 -0.34440642595E+03  0.34440642595E+03  0.00000000000E+00 0.  1.
         25    1    1    2    0    0  0.18869203246E+03 -0.34831411174E+02 -0.51335463361E+02  0.23468753720E+03  0.12500000000E+03 0.  0.
         25    1    1    2    0    0 -0.89006091899E+01 -0.93014305398E+02  0.15926070670E+03  0.22297949356E+03  0.12500000000E+03 0.  0.
         25    1    1    2    0    0 -0.17979142327E+03  0.12784571657E+03 -0.74725786051E+02  0.26434527843E+03  0.12500000000E+03 0.  0.
</event>
<event>
 5    0  0.6014933E-005  0.2744496E+03  0.7546771E-02  0.1098760E+00
         21   -1    0    0  502  501  0.00000000000E+00  0.00000000000E+00  0.10601880213E+04  0.10601880213E+04  0.00000000000E+00 0.  1.
         21   -1    0    0  501  502 -0.00000000000E+00 -0.00000000000E+00 -0.71046416621E+02  0.71046416621E+02  0.00000000000E+00 0.  1.
         25    1    1    2    0    0 -0.71428161857E+02  0.47291907641E+02  0.52680643753E+03  0.54816834044E+03  0.12500000000E+03 0.  0.
         25    1    1    2    0    0  0.12646775207E+03 -0.79682927767E+02  0.16923429982E+03  0.25808663182E+03  0.12500000000E+03 0.  0.
         25    1    1    2    0    0 -0.55039590210E+02  0.32391020126E+02  0.29310086737E+03  0.32497946570E+03  0.12500000000E+03 0.  0.
</event>
<event>
 5    0  0.5771525E-005  0.2705068E+03  0.7546771E-02  0.1100990E+00
         21   -1    0    0  502  501  0.00000000000E+00  0.00000000000E+00  0.42134776950E+03  0.42134776950E+03  0.00000000000E+00 0. -1.
         21   -1    0    0  501  502 -0.00000000000E+00 -0.00000000000E+00 -0.17366629096E+03  0.17366629096E+03  0.00000000000E+00 0. -1.
         25    1    1    2    0    0  0.12851834509E+03 -0.39531732006E+02  0.11693613676E+03  0.21766667852E+03  0.12500000000E+03 0.  0.
         25    1    1    2    0    0 -0.55244446764E+02  0.77960582111E+02 -0.27111993371E+02  0.15965544603E+03  0.12500000000E+03 0.  0.
         25    1    1    2    0    0 -0.73273898328E+02 -0.38428850105E+02  0.15785733516E+03  0.21769193591E+03  0.12500000000E+03 0.  0.
</event>
<event>
 5    0  0.6973797E-005  0.5264108E+03  0.7546771E-02  0.1007106E+00
         21   -1    0    0  502  501  0.00000000000E+00  0.00000000000E+00  0.33091801941E+03  0.33091801941E+03  0.00000000000E+00 0. -1.
         21   -1    0    0  501  502 -0.00000000000E+00 -0.00000000000E+00 -0.83739257939E+03  0.83739257939E+03  0.00000000000E+00 0. -1.
         25    1    1    2    0    0  0.28385616512E+03  0.15750737626E+02  0.51844399202E+01  0.31060310145E+03  0.12500000000E+03 0.  0.
         25    1    1    2    0    0 -0.58027912475E+02  0.26904968869E+03 -0.25554050380E+03  0.39582941110E+03  0.12500000000E+03 0.  0.
         25    1    1    2    0    0 -0.22582825264E+03 -0.28480042631E+03 -0.25611849609E+03  0.46187808625E+03  0.12500000000E+03 0.  0.
</event>
<event>
 5    0  0.5771525E-005  0.3272667E+03  0.7546771E-02  0.1072353E+00
         21   -1    0    0  502  501  0.00000000000E+00  0.00000000000E+00  0.24010939647E+03  0.24010939647E+03  0.00000000000E+00 0. -1.
         21   -1    0    0  501  502 -0.00000000000E+00 -0.00000000000E+00 -0.44606135957E+03  0.44606135957E+03  0.00000000000E+00 0. -1.
         25    1    1    2    0    0  0.16614781402E+03  0.48048975313E+02 -0.20977799389E+02  0.21442683647E+03  0.12500000000E+03 0.  0.
         25    1    1    2    0    0 -0.20069379070E+03 -0.94429722750E+02 -0.17911270626E+02  0.25522692605E+03  0.12500000000E+03 0.  0.
         25    1    1    2    0    0  0.34545976685E+02  0.46380747437E+02 -0.16706289309E+03  0.21651699353E+03  0.12500000000E+03 0.  0.
</event>
<event>
 5    0  0.5771525E-005  0.2890950E+03  0.7546771E-02  0.1090823E+00
         21   -1    0    0  502  501  0.00000000000E+00  0.00000000000E+00  0.15471553310E+03  0.15471553310E+03  0.00000000000E+00 0.  1.
         21   -1    0    0  501  502 -0.00000000000E+00 -0.00000000000E+00 -0.54019104106E+03  0.54019104106E+03  0.00000000000E+00 0.  1.
         25    1    1    2    0    0  0.65429542860E+02  0.16610608841E+03 -0.25976674203E+03  0.33908113771E+03  0.12500000000E+03 0.  0.
         25    1    1    2    0    0 -0.78329787094E+02 -0.14171843296E+03 -0.84786837212E+02  0.22143504138E+03  0.12500000000E+03 0.  0.
         25    1    1    2    0    0  0.12900244234E+02 -0.24387655445E+02 -0.40921928720E+02  0.13439039508E+03  0.12500000000E+03 0.  0.
</event>
<event>
 5    0  0.5771525E-005  0.2532021E+03  0.7546771E-02  0.1111298E+00
         21   -1    0    0  502  501  0.00000000000E+00  0.00000000000E+00  0.24829815271E+02  0.24829815271E+02  0.00000000000E+00 0. -1.
         21   -1    0    0  501  502 -0.00000000000E+00 -0.00000000000E+00 -0.25820283802E+04  0.25820283802E+04  0.00000000000E+00 0. -1.
         25    1    1    2    0    0  0.45716043925E+02 -0.73468612028E+01 -0.55851935199E+03  0.57420623437E+03  0.12500000000E+03 0.  0.
         25    1    1    2    0    0 -0.12750095247E+03  0.88853997921E+02 -0.10274473983E+04  0.10466253782E+04  0.12500000000E+03 0.  0.
         25    1    1    2    0    0  0.81784908545E+02 -0.81507136718E+02 -0.97123181458E+03  0.98602658294E+03  0.12500000000E+03 0.  0.
</event>
<event>
 5    0  0.5771525E-005  0.4384557E+03  0.7546771E-02  0.1031222E+00
         21   -1    0    0  502  501  0.00000000000E+00  0.00000000000E+00  0.17430935679E+04  0.17430935679E+04  0.00000000000E+00 0. -1.
         21   -1    0    0  501  502 -0.00000000000E+00 -0.00000000000E+00 -0.11028862375E+03  0.11028862375E+03  0.00000000000E+00 0. -1.
         25    1    1    2    0    0  0.61595164856E+02  0.16807478209E+03  0.11232160253E+03  0.24552848939E+03  0.12500000000E+03 0.  0.
         25    1    1    2    0    0 -0.82485038918E+02  0.84997014329E+02  0.23358298728E+03  0.29019697799E+03  0.12500000000E+03 0.  0.
         25    1    1    2    0    0  0.20889874062E+02 -0.25307179642E+03  0.12869003543E+04  0.13176567242E+04  0.12500000000E+03 0.  0.
</event>
<event>
 5    0  0.5771525E-005  0.2379950E+03  0.7546771E-02  0.1121136E+00
         21   -1    0    0  502  501  0.00000000000E+00  0.00000000000E+00  0.46902418821E+02  0.46902418821E+02  0.00000000000E+00 0.  1.
         21   -1    0    0  501  502 -0.00000000000E+00 -0.00000000000E+00 -0.12076480305E+04  0.12076480305E+04  0.00000000000E+00 0.  1.
         25    1    1    2    0    0  0.18414351132E+02 -0.81865421064E+01 -0.20272204109E+03  0.23901325014E+03  0.12500000000E+03 0.  0.
         25    1    1    2    0    0  0.49882775971E+02 -0.48317788371E+02 -0.22446354423E+03  0.26614241056E+03  0.12500000000E+03 0.  0.
         25    1    1    2    0    0 -0.68297127104E+02  0.56504330477E+02 -0.73356002633E+03  0.74939478858E+03  0.12500000000E+03 0.  0.
</event>
<event>
 5    0  0.5771525E-005  0.3372778E+03  0.7546771E-02  0.1067961E+00
         21   -1    0    0  502  501  0.00000000000E+00  0.00000000000E+00  0.16655345794E+04  0.16655345794E+04  0.00000000000E+00 0. -1.
         21   -1    0    0  501  502 -0.00000000000E+00 -0.00000000000E+00 -0.68300198782E+02  0.68300198782E+02  0.00000000000E+00 0. -1.
         25    1    1    2    0    0  0.20143847086E+03 -0.15909403479E+02  0.28513321933E+03  0.37115565391E+03  0.12500000000E+03 0.  0.
         25    1    1    2    0    0 -0.19815079205E+03 -0.39826097332E+01  0.71916209020E+03  0.75637207084E+03  0.12500000000E+03 0.  0.
         25    1    1    2    0    0 -0.32876788099E+01  0.19892013212E+02  0.59293907104E+03  0.60630705339E+03  0.12500000000E+03 0.  0.
</event>
<event>
 5    0  0.5771525E-005  0.3505865E+03  0.7546771E-02  0.1062375E+00
         21   -1    0    0  502  501  0.00000000000E+00  0.00000000000E+00  0.40841298203E+03  0.40841298203E+03  0.00000000000E+00 0. -1.
         21   -1    0    0  501  502 -0.00000000000E+00 -0.00000000000E+00 -0.30094764947E+03  0.30094764947E+03  0.00000000000E+00 0. -1.
         25    1    1    2    0    0  0.18102229668E+03  0.21009336004E+01  0.78467168794E+02  0.23357136467E+03  0.12500000000E+03 0.  0.
         25    1    1    2    0    0  0.57164031786E+02  0.11663464496E+03 -0.61006861382E+00  0.18026851949E+03  0.12500000000E+03 0.  0.
         25    1    1    2    0    0 -0.23818632846E+03 -0.11873557856E+03  0.29608232377E+02  0.29552074734E+03  0.12500000000E+03 0.  0.
</event>
<event>
 5    0  0.5771525E-005  0.2324383E+03  0.7546771E-02  0.1124935E+00
         21   -1    0    0  502  501  0.00000000000E+00  0.00000000000E+00  0.14714679740E+04  0.14714679740E+04  0.00000000000E+00 0.  1.
         21   -1    0    0  501  502 -0.00000000000E+00 -0.00000000000E+00 -0.36716766518E+02  0.36716766518E+02  0.00000000000E+00 0.  1.
         25    1    1    2    0    0  0.53139055242E+02  0.82279752714E+00  0.43445479992E+03  0.45519271672E+03  0.12500000000E+03 0.  0.
         25    1    1    2    0    0 -0.81117446059E+02 -0.16838050902E+02  0.80525830607E+03  0.81910286260E+03  0.12500000000E+03 0.  0.
         25    1    1    2    0    0  0.27978390816E+02  0.16015253375E+02  0.19503810151E+03  0.23388916121E+03  0.12500000000E+03 0.  0.
</event>
<event>
 5    0  0.5771525E-005  0.3338633E+03  0.7546771E-02  0.1069440E+00
         21   -1    0    0  502  501  0.00000000000E+00  0.00000000000E+00  0.56597854132E+03  0.56597854132E+03  0.00000000000E+00 0. -1.
         21   -1    0    0  501  502 -0.00000000000E+00 -0.00000000000E+00 -0.19694159789E+03  0.19694159789E+03  0.00000000000E+00 0. -1.
         25    1    1    2    0    0 -0.16688430158E+03  0.47844838260E+01  0.37492359085E+02  0.21190549400E+03  0.12500000000E+03 0.  0.
         25    1    1    2    0    0 -0.51522521689E+02  0.49567043015E+02  0.17700832970E+02  0.14508542822E+03  0.12500000000E+03 0.  0.
         25    1    1    2    0    0  0.21840682327E+03 -0.54351526841E+02  0.31384375138E+03  0.40592921698E+03  0.12500000000E+03 0.  0.
</event>
<event>
 5    0  0.5771525E-005  0.2260021E+03  0.7546771E-02  0.1129486E+00
         21   -1    0    0  502  501  0.00000000000E+00  0.00000000000E+00  0.85232712862E+02  0.85232712862E+02  0.00000000000E+00 0. -1.
         21   -1    0    0  501  502 -0.00000000000E+00 -0.00000000000E+00 -0.59926451674E+03  0.59926451674E+03  0.00000000000E+00 0. -1.
         25    1    1    2    0    0  0.33957964749E+02  0.39762961886E+02 -0.14624204878E+03  0.19936392186E+03  0.12500000000E+03 0.  0.
         25    1    1    2    0    0 -0.12756745295E+02 -0.49167675102E+01 -0.39998608490E+02  0.13195377158E+03  0.12500000000E+03 0.  0.
         25    1    1    2    0    0 -0.21201219454E+02 -0.34846194375E+02 -0.32779114661E+03  0.35317953617E+03  0.12500000000E+03 0.  0.
</event>
<event>
 5    0  0.5771525E-005  0.3044465E+03  0.7546771E-02  0.1083039E+00
         21   -1    0    0  502  501  0.00000000000E+00  0.00000000000E+00  0.11954294674E+03  0.11954294674E+03  0.00000000000E+00 0.  1.
         21   -1    0    0  501  502 -0.00000000000E+00 -0.00000000000E+00 -0.77535039180E+03  0.77535039180E+03  0.00000000000E+00 0.  1.
         25    1    1    2    0    0  0.65035208111E+01  0.10923505620E+03 -0.18986529419E+03  0.25228639128E+03  0.12500000000E+03 0.  0.
         25    1    1    2    0    0 -0.15187307354E+03  0.27754932713E+02 -0.15229715476E+03  0.25031018778E+03  0.12500000000E+03 0.  0.
         25    1    1    2    0    0  0.14536955273E+03 -0.13698998891E+03 -0.31364499611E+03  0.39229675949E+03  0.12500000000E+03 0.  0.
</event>
<event>
 5    0  0.5771525E-005  0.2911837E+03  0.7546771E-02  0.1089733E+00
         21   -1    0    0  502  501  0.00000000000E+00  0.00000000000E+00  0.41648511746E+03  0.41648511746E+03  0.00000000000E+00 0.  1.
         21   -1    0    0  501  502 -0.00000000000E+00 -0.00000000000E+00 -0.20357981712E+03  0.20357981712E+03  0.00000000000E+00 0.  1.
         25    1    1    2    0    0  0.11026419453E+03 -0.88600391215E+01  0.15791530093E+03  0.22978018878E+03  0.12500000000E+03 0.  0.
         25    1    1    2    0    0 -0.67698333800E+01 -0.11676440315E+03 -0.18757076388E+02  0.17221087190E+03  0.12500000000E+03 0.  0.
         25    1    1    2    0    0 -0.10349436115E+03  0.12562444227E+03  0.73747075796E+02  0.21807387389E+03  0.12500000000E+03 0.  0.
</event>
<event>
 5    0  0.5771525E-005  0.3382044E+03  0.7546771E-02  0.1067563E+00
         21   -1    0    0  502  501  0.00000000000E+00  0.00000000000E+00  0.11140089413E+03  0.11140089413E+03  0.00000000000E+00 0.  1.
         21   -1    0    0  501  502 -0.00000000000E+00 -0.00000000000E+00 -0.10267620459E+04  0.10267620459E+04  0.00000000000E+00 0.  1.
         25    1    1    2    0    0 -0.12053931025E+03 -0.57236760179E+02 -0.76482954473E+03  0.78638095381E+03  0.12500000000E+03 0.  0.
         25    1    1    2    0    0  0.10053392422E+03 -0.28598274697E+02 -0.97591621660E+02  0.18993171366E+03  0.12500000000E+03 0.  0.
         25    1    1    2    0    0  0.20005386033E+02  0.85835034876E+02 -0.52939985416E+02  0.16185027259E+03  0.12500000000E+03 0.  0.
</event>
<event>
 5    0  0.5771525E-005  0.3846812E+03  0.7546771E-02  0.1049217E+00
         21   -1    0    0  502  501  0.00000000000E+00  0.00000000000E+00  0.76031148067E+02  0.76031148067E+02  0.00000000000E+00 0.  1.
         21   -1    0    0  501  502 -0.00000000000E+00 -0.00000000000E+00 -0.19463028889E+04  0.19463028889E+04  0.00000000000E+00 0.  1.
         25    1    1    2    0    0 -0.10416600851E+03  0.21695589354E+03 -0.71948717740E+03  0.76890000358E+03  0.12500000000E+03 0.  0.
         25    1    1    2    0    0  0.75422320070E+02 -0.19358311461E+03 -0.10763217144E+04  0.11032934250E+04  0.12500000000E+03 0.  0.
         25    1    1    2    0    0  0.28743688443E+02 -0.23372778928E+02 -0.74462849054E+02  0.15014060846E+03  0.12500000000E+03 0.  0.
</event>
<event>
 5    0  0.5771525E-005  0.2904024E+03  0.7546771E-02  0.1090139E+00
         21   -1    0    0  502  501  0.00000000000E+00  0.00000000000E+00  0.22595340259E+03  0.22595340259E+03  0.00000000000E+00 0. -1.
         21   -1    0    0  501  502 -0.00000000000E+00 -0.00000000000E+00 -0.37323417947E+03  0.37323417947E+03  0.00000000000E+00 0. -1.
         25    1    1    2    0    0  0.66830898475E+02 -0.69369428353E+02 -0.64255289632E+02  0.17038846448E+03  0.12500000000E+03 0.  0.
         25    1    1    2    0    0 -0.12700478651E+03  0.16264756200E+03 -0.99161529471E+02  0.26084948562E+03  0.12500000000E+03 0.  0.
         25    1    1    2    0    0  0.60173888039E+02 -0.93278133647E+02  0.16136042217E+02  0.16794963196E+03  0.12500000000E+03 0.  0.
</event>
<event>
 5    0  0.5771525E-005  0.2973414E+03  0.7546771E-02  0.1086577E+00
         21   -1    0    0  502  501  0.00000000000E+00  0.00000000000E+00  0.10298618073E+03  0.10298618073E+03  0.00000000000E+00 0.  1.
         21   -1    0    0  501  502 -0.00000000000E+00 -0.00000000000E+00 -0.85848347966E+03  0.85848347966E+03  0.00000000000E+00 0.  1.
         25    1    1    2    0    0 -0.35453917989E+02  0.12438812265E+03 -0.40671653530E+03  0.44471645511E+03  0.12500000000E+03 0.  0.
         25    1    1    2    0    0  0.10777674159E+03 -0.85977846127E+01 -0.26784127917E+03  0.31472797581E+03  0.12500000000E+03 0.  0.
         25    1    1    2    0    0 -0.72322823606E+02 -0.11579033804E+03 -0.80939484466E+02  0.20202522947E+03  0.12500000000E+03 0.  0.
</event>
<event>
 5    0  0.5771525E-005  0.3131111E+03  0.7546771E-02  0.1078864E+00
         21   -1    0    0  502  501  0.00000000000E+00  0.00000000000E+00  0.42427574543E+03  0.42427574543E+03  0.00000000000E+00 0. -1.
         21   -1    0    0  501  502 -0.00000000000E+00 -0.00000000000E+00 -0.23107272664E+03  0.23107272664E+03  0.00000000000E+00 0. -1.
         25    1    1    2    0    0 -0.36254389429E+02 -0.80857071840E+02  0.78594011585E+02  0.17220413896E+03  0.12500000000E+03 0.  0.
         25    1    1    2    0    0 -0.79793727917E+02 -0.11393610194E+03 -0.25514925300E+02  0.18874449861E+03  0.12500000000E+03 0.  0.
         25    1    1    2    0    0  0.11604811735E+03  0.19479317378E+03  0.14012393250E+03  0.29439983450E+03  0.12500000000E+03 0.  0.
</event>
<event>
 5    0  0.5771525E-005  0.2916896E+03  0.7546771E-02  0.1089470E+00
         21   -1    0    0  502  501  0.00000000000E+00  0.00000000000E+00  0.99631838584E+02  0.99631838584E+02  0.00000000000E+00 0. -1.
         21   -1    0    0  501  502 -0.00000000000E+00 -0.00000000000E+00 -0.85397212904E+03  0.85397212904E+03  0.00000000000E+00 0. -1.
         25    1    1    2    0    0 -0.39950675083E+02 -0.11266320239E+03 -0.44951055095E+03  0.48163657360E+03  0.12500000000E+03 0.  0.
         25    1    1    2    0    0  0.94645415690E+02  0.10793392888E+03 -0.27124930127E+03  0.33137391441E+03  0.12500000000E+03 0.  0.
         25    1    1    2    0    0 -0.54694740607E+02  0.47292735161E+01 -0.33580438241E+02  0.14059347962E+03  0.12500000000E+03 0.  0.
</event>
<event>
 5    0  0.5771525E-005  0.2276788E+03  0.7546771E-02  0.1128284E+00
         21   -1    0    0  502  501  0.00000000000E+00  0.00000000000E+00  0.17623769150E+03  0.17623769150E+03  0.00000000000E+00 0.  1.
         21   -1    0    0  501  502 -0.00000000000E+00 -0.00000000000E+00 -0.29413480286E+03  0.29413480286E+03  0.00000000000E+00 0.  1.
         25    1    1    2    0    0  0.22415239695E+02  0.46135703556E+02 -0.15819582106E+03  0.20804293767E+03  0.12500000000E+03 0.  0.
         25    1    1    2    0    0 -0.83910832232E+00 -0.30174548991E+02  0.10693886537E+01  0.12859763257E+03  0.12500000000E+03 0.  0.
         25    1    1    2    0    0 -0.21576131372E+02 -0.15961154565E+02  0.39229321047E+02  0.13373192412E+03  0.12500000000E+03 0.  0.
</event>
<event>
 5    0  0.5771525E-005  0.2617163E+03  0.7546771E-02  0.1106116E+00
         21   -1    0    0  502  501  0.00000000000E+00  0.00000000000E+00  0.14055808846E+03  0.14055808846E+03  0.00000000000E+00 0. -1.
         21   -1    0    0  501  502 -0.00000000000E+00 -0.00000000000E+00 -0.48731038154E+03  0.48731038154E+03  0.00000000000E+00 0. -1.
         25    1    1    2    0    0  0.45156459925E+02  0.93490259404E+02 -0.16748762480E+03  0.23335946292E+03  0.12500000000E+03 0.  0.
         25    1    1    2    0    0  0.12698866933E+02 -0.55747195083E+02  0.30445115200E+02  0.14078677502E+03  0.12500000000E+03 0.  0.
         25    1    1    2    0    0 -0.57855326858E+02 -0.37743064321E+02 -0.20970978349E+03  0.25372223206E+03  0.12500000000E+03 0.  0.
</event>
<event>
 5    0  0.5771525E-005  0.2203916E+03  0.7546771E-02  0.1133591E+00
         21   -1    0    0  502  501  0.00000000000E+00  0.00000000000E+00  0.96683974224E+02  0.96683974224E+02  0.00000000000E+00 0. -1.
         21   -1    0    0  501  502 -0.00000000000E+00 -0.00000000000E+00 -0.50238390404E+03  0.50238390404E+03  0.00000000000E+00 0. -1.
         25    1    1    2    0    0 -0.74534462451E+02 -0.47134064412E+02 -0.19857013708E+03  0.25066333090E+03  0.12500000000E+03 0.  0.
         25    1    1    2    0    0  0.53881741902E+02  0.66988684734E+02 -0.11875722021E+03  0.19266292675E+03  0.12500000000E+03 0.  0.
         25    1    1    2    0    0  0.20652720550E+02 -0.19854620322E+02 -0.88372572533E+02  0.15574162061E+03  0.12500000000E+03 0.  0.
</event>
<event>
 5    0  0.5771525E-005  0.3211704E+03  0.7546771E-02  0.1075112E+00
         21   -1    0    0  502  501  0.00000000000E+00  0.00000000000E+00  0.10081517079E+03  0.10081517079E+03  0.00000000000E+00 0.  1.
         21   -1    0    0  501  502 -0.00000000000E+00 -0.00000000000E+00 -0.10231636211E+04  0.10231636211E+04  0.00000000000E+00 0.  1.
         25    1    1    2    0    0 -0.15992764400E+03 -0.92645480848E+02 -0.12373678813E+03  0.25513884293E+03  0.12500000000E+03 0.  0.
         25    1    1    2    0    0  0.72789119283E+01  0.35129091396E+01 -0.31428907458E+03  0.33833111813E+03  0.12500000000E+03 0.  0.
         25    1    1    2    0    0  0.15264873207E+03  0.89132571708E+02 -0.48432258761E+03  0.53050883085E+03  0.12500000000E+03 0.  0.
</event>
<event>
 5    0  0.5771525E-005  0.2642087E+03  0.7546771E-02  0.1104641E+00
         21   -1    0    0  502  501  0.00000000000E+00  0.00000000000E+00  0.49167159337E+03  0.49167159337E+03  0.00000000000E+00 0.  1.
         21   -1    0    0  501  502 -0.00000000000E+00 -0.00000000000E+00 -0.14197733242E+03  0.14197733242E+03  0.00000000000E+00 0.  1.
         25    1    1    2    0    0  0.19853996296E+02  0.86152352379E+02  0.31817065314E+02  0.15637689930E+03  0.12500000000E+03 0.  0.
         25    1    1    2    0    0  0.78896066478E+02 -0.11979226645E+03  0.14061135412E+03  0.23658260569E+03  0.12500000000E+03 0.  0.
         25    1    1    2    0    0 -0.98750062774E+02  0.33639914067E+02  0.17726584151E+03  0.24068942080E+03  0.12500000000E+03 0.  0.
</event>
<event>
 5    0  0.5771525E-005  0.2652848E+03  0.7546771E-02  0.1104009E+00
         21   -1    0    0  502  501  0.00000000000E+00  0.00000000000E+00  0.82766697188E+03  0.82766697188E+03  0.00000000000E+00 0. -1.
         21   -1    0    0  501  502 -0.00000000000E+00 -0.00000000000E+00 -0.85029383068E+02  0.85029383068E+02  0.00000000000E+00 0. -1.
         25    1    1    2    0    0  0.29135012974E+02  0.10924040272E+02  0.38566235347E+02  0.13446389161E+03  0.12500000000E+03 0.  0.
         25    1    1    2    0    0 -0.10633771857E+03 -0.40263983996E+02  0.47831393868E+03  0.50728505077E+03  0.12500000000E+03 0.  0.
         25    1    1    2    0    0  0.77202705601E+02  0.29339943724E+02  0.22575741479E+03  0.27094741258E+03  0.12500000000E+03 0.  0.
</event>
<event>
 5    0  0.5771525E-005  0.3149935E+03  0.7546771E-02  0.1077977E+00
         21   -1    0    0  502  501  0.00000000000E+00  0.00000000000E+00  0.43323839365E+03  0.43323839365E+03  0.00000000000E+00 0. -1.
         21   -1    0    0  501  502 -0.00000000000E+00 -0.00000000000E+00 -0.22902150513E+03  0.22902150513E+03  0.00000000000E+00 0. -1.
         25    1    1    2    0    0  0.90958408648E+02  0.73687623598E+01  0.97533369835E+02  0.18293575100E+03  0.12500000000E+03 0.  0.
         25    1    1    2    0    0 -0.22875802175E+03 -0.44322237900E+02  0.11745583230E+03  0.28933642327E+03  0.12500000000E+03 0.  0.
         25    1    1    2    0    0  0.13779961310E+03  0.36953475540E+02 -0.10772313604E+02  0.18998772451E+03  0.12500000000E+03 0.  0.
</event>
<event>
 5    0  0.5771525E-005  0.2871172E+03  0.7546771E-02  0.1091864E+00
         21   -1    0    0  502  501  0.00000000000E+00  0.00000000000E+00  0.14296908094E+03  0.14296908094E+03  0.00000000000E+00 0.  1.
         21   -1    0    0  501  502 -0.00000000000E+00 -0.00000000000E+00 -0.57660205277E+03  0.57660205277E+03  0.00000000000E+00 0.  1.
         25    1    1    2    0    0 -0.63601257097E+02  0.10688712060E+03 -0.16463250430E+03  0.24124435315E+03  0.12500000000E+03 0.  0.
         25    1    1    2    0    0  0.15119437890E+03 -0.37848845654E+02 -0.23308946398E+03  0.30699832825E+03  0.12500000000E+03 0.  0.
         25    1    1    2    0    0 -0.87593121804E+02 -0.69038274944E+02 -0.35911003554E+02  0.17132845231E+03  0.12500000000E+03 0.  0.
</event>
<event>
 5    0  0.5771525E-005  0.4572950E+03  0.7546771E-02  0.1025569E+00
         21   -1    0    0  502  501  0.00000000000E+00  0.00000000000E+00  0.69652386288E+03  0.69652386288E+03  0.00000000000E+00 0. -1.
         21   -1    0    0  501  502 -0.00000000000E+00 -0.00000000000E+00 -0.30023198786E+03  0.30023198786E+03  0.00000000000E+00 0. -1.
         25    1    1    2    0    0 -0.82472330883E+01  0.19033180158E+03 -0.74423391287E+01  0.22797938494E+03  0.12500000000E+03 0.  0.
         25    1    1    2    0    0 -0.58588721258E+02 -0.95148217667E+02  0.53034431287E+03  0.55621570616E+03  0.12500000000E+03 0.  0.
         25    1    1    2    0    0  0.66835954346E+02 -0.95183583916E+02 -0.12661009873E+03  0.21256075964E+03  0.12500000000E+03 0.  0.
</event>
<event>
 5    0  0.5771525E-005  0.4473232E+03  0.7546771E-02  0.1028523E+00
         21   -1    0    0  502  501  0.00000000000E+00  0.00000000000E+00  0.23987219303E+04  0.23987219303E+04  0.00000000000E+00 0. -1.
         21   -1    0    0  501  502 -0.00000000000E+00 -0.00000000000E+00 -0.83418612822E+02  0.83418612822E+02  0.00000000000E+00 0. -1.
         25    1    1    2    0    0 -0.15059033491E+03  0.16740304681E+03  0.48084230485E+03  0.54546819448E+03  0.12500000000E+03 0.  0.
         25    1    1    2    0    0  0.90873587042E+02 -0.29523483405E+03  0.58652260773E+03  0.67457793133E+03  0.12500000000E+03 0.  0.
         25    1    1    2    0    0  0.59716747868E+02  0.12783178724E+03  0.12479384049E+04  0.12620944173E+04  0.12500000000E+03 0.  0.
</event>
<event>
 5    0  0.5771525E-005  0.3063194E+03  0.7546771E-02  0.1082124E+00
         21   -1    0    0  502  501  0.00000000000E+00  0.00000000000E+00  0.27397421138E+04  0.27397421138E+04  0.00000000000E+00 0.  1.
         21   -1    0    0  501  502 -0.00000000000E+00 -0.00000000000E+00 -0.34248313483E+02  0.34248313483E+02  0.00000000000E+00 0.  1.
         25    1    1    2    0    0 -0.49249793297E+02  0.17896009369E+02  0.87853675267E+03  0.88893061320E+03  0.12500000000E+03 0.  0.
         25    1    1    2    0    0  0.17288686157E+03 -0.13406256537E+03  0.10749642923E+04  0.11040995734E+04  0.12500000000E+03 0.  0.
         25    1    1    2    0    0 -0.12363706827E+03  0.11616655600E+03  0.75199275543E+03  0.78096024073E+03  0.12500000000E+03 0.  0.
</event>
<event>
 5    0  0.5771525E-005  0.4146004E+03  0.7546771E-02  0.1038838E+00
         21   -1    0    0  502  501  0.00000000000E+00  0.00000000000E+00  0.10140913252E+04  0.10140913252E+04  0.00000000000E+00 0.  1.
         21   -1    0    0  501  502 -0.00000000000E+00 -0.00000000000E+00 -0.16950492364E+03  0.16950492364E+03  0.00000000000E+00 0.  1.
         25    1    1    2    0    0 -0.24285161330E+03  0.79691431644E+02  0.56050294206E+03  0.62858267429E+03  0.12500000000E+03 0.  0.
         25    1    1    2    0    0  0.25185953109E+03 -0.76509636042E+02  0.31164499690E+03  0.42665507368E+03  0.12500000000E+03 0.  0.
         25    1    1    2    0    0 -0.90079177896E+01 -0.31817956011E+01 -0.27561537383E+02  0.12835850088E+03  0.12500000000E+03 0.  0.
</event>
<event>
 5    0  0.5771525E-005  0.2292423E+03  0.7546771E-02  0.1127174E+00
         21   -1    0    0  502  501  0.00000000000E+00  0.00000000000E+00  0.18437963597E+04  0.18437963597E+04  0.00000000000E+00 0.  1.
         21   -1    0    0  501  502 -0.00000000000E+00 -0.00000000000E+00 -0.28502090602E+02  0.28502090602E+02  0.00000000000E+00 0.  1.
         25    1    1    2    0    0  0.63013264587E+00  0.95934376740E+02  0.67424184956E+03  0.69240946947E+03  0.12500000000E+03 0.  0.
         25    1    1    2    0    0  0.34155870346E+02  0.68205652349E+01  0.39771687536E+03  0.41835016019E+03  0.12500000000E+03 0.  0.
         25    1    1    2    0    0 -0.34786002992E+02 -0.10275494197E+03  0.74333554415E+03  0.76153882062E+03  0.12500000000E+03 0.  0.
</event>
<event>
 5    0  0.5771525E-005  0.2391305E+03  0.7546771E-02  0.1120373E+00
         21   -1    0    0  502  501  0.00000000000E+00  0.00000000000E+00  0.14600742217E+03  0.14600742217E+03  0.00000000000E+00 0.  1.
         21   -1    0    0  501  502 -0.00000000000E+00 -0.00000000000E+00 -0.39164707524E+03  0.39164707524E+03  0.00000000000E+00 0.  1.
         25    1    1    2    0    0 -0.48080424580E+02  0.54001815877E+02  0.52008142166E+01  0.14449903742E+03  0.12500000000E+03 0.  0.
         25    1    1    2    0    0 -0.47182809839E+02 -0.30233685847E+02 -0.75199118872E+02  0.15626964127E+03  0.12500000000E+03 0.  0.
         25    1    1    2    0    0  0.95263234419E+02 -0.23768130030E+02 -0.17564134841E+03  0.23688581872E+03  0.12500000000E+03 0.  0.
</event>
<event>
 5    0  0.5771525E-005  0.2679624E+03  0.7546771E-02  0.1102451E+00
         21   -1    0    0  502  501  0.00000000000E+00  0.00000000000E+00  0.13434825648E+03  0.13434825648E+03  0.00000000000E+00 0.  1.
         21   -1    0    0  501  502 -0.00000000000E+00 -0.00000000000E+00 -0.53446045534E+03  0.53446045534E+03  0.00000000000E+00 0.  1.
         25    1    1    2    0    0 -0.60902994452E+02  0.16832646306E+01  0.20108886481E+02  0.14050400503E+03  0.12500000000E+03 0.  0.
         25    1    1    2    0    0 -0.46007390373E+02  0.37216405105E+02 -0.11697122862E+03  0.18113257328E+03  0.12500000000E+03 0.  0.
         25    1    1    2    0    0  0.10691038482E+03 -0.38899669735E+02 -0.30324985672E+03  0.34717213351E+03  0.12500000000E+03 0.  0.
</event>
<event>
 5    0  0.5771525E-005  0.2303968E+03  0.7546771E-02  0.1126361E+00
         21   -1    0    0  502  501  0.00000000000E+00  0.00000000000E+00  0.60321703992E+02  0.60321703992E+02  0.00000000000E+00 0.  1.
         21   -1    0    0  501  502 -0.00000000000E+00 -0.00000000000E+00 -0.87999339475E+03  0.87999339475E+03  0.00000000000E+00 0.  1.
         25    1    1    2    0    0  0.71715613252E+02 -0.49715562049E+02 -0.20714981158E+03  0.25719799908E+03  0.12500000000E+03 0.  0.
         25    1    1    2    0    0  0.74011024608E+01  0.83720061655E+02 -0.30829717607E+03  0.34312676056E+03  0.12500000000E+03 0.  0.
         25    1    1    2    0    0 -0.79116715713E+02 -0.34004499606E+02 -0.30422470311E+03  0.33999033910E+03  0.12500000000E+03 0.  0.
</event>
<event>
 5    0  0.5771525E-005  0.2649616E+03  0.7546771E-02  0.1104198E+00
         21   -1    0    0  502  501  0.00000000000E+00  0.00000000000E+00  0.25330714413E+03  0.25330714413E+03  0.00000000000E+00 0.  1.
         21   -1    0    0  501  502 -0.00000000000E+00 -0.00000000000E+00 -0.27715236477E+03  0.27715236477E+03  0.00000000000E+00 0.  1.
         25    1    1    2    0    0  0.32790700667E+02  0.21042031844E+02 -0.19443007324E+02  0.13236701888E+03  0.12500000000E+03 0.  0.
         25    1    1    2    0    0  0.60482513503E+01  0.14175884096E+03 -0.59868524555E+01  0.18919036111E+03  0.12500000000E+03 0.  0.
         25    1    1    2    0    0 -0.38838952017E+02 -0.16280087281E+03  0.15846391446E+01  0.20890212891E+03  0.12500000000E+03 0.  0.
</event>
<event>
 5    0  0.5771525E-005  0.2453415E+03  0.7546771E-02  0.1116285E+00
         21   -1    0    0  502  501  0.00000000000E+00  0.00000000000E+00  0.10015437002E+04  0.10015437002E+04  0.00000000000E+00 0. -1.
         21   -1    0    0  501  502 -0.00000000000E+00 -0.00000000000E+00 -0.60099683329E+02  0.60099683329E+02  0.00000000000E+00 0. -1.
         25    1    1    2    0    0  0.40666996791E+02  0.81129739701E+02  0.29447148655E+03  0.33252713526E+03  0.12500000000E+03 0.  0.
         25    1    1    2    0    0 -0.17784748129E+02  0.57256314749E+02  0.19149597352E+03  0.23641127452E+03  0.12500000000E+03 0.  0.
         25    1    1    2    0    0 -0.22882248662E+02 -0.13838605445E+03  0.45547655684E+03  0.49270497380E+03  0.12500000000E+03 0.  0.
</event>
<event>
 5    0  0.5771525E-005  0.3339411E+03  0.7546771E-02  0.1069406E+00
         21   -1    0    0  502  501  0.00000000000E+00  0.00000000000E+00  0.34831214694E+03  0.34831214694E+03  0.00000000000E+00 0.  1.
         21   -1    0    0  501  502 -0.00000000000E+00 -0.00000000000E+00 -0.32016293057E+03  0.32016293057E+03  0.00000000000E+00 0.  1.
         25    1    1    2    0    0  0.31759439474E+02 -0.78594599919E+02 -0.21892042951E+02  0.15261072923E+03  0.12500000000E+03 0.  0.
         25    1    1    2    0    0  0.16936358467E+03 -0.76734266966E+02  0.61817948977E+02  0.23241908346E+03  0.12500000000E+03 0.  0.
         25    1    1    2    0    0 -0.20112302415E+03  0.15532886688E+03 -0.11776689661E+02  0.28344526482E+03  0.12500000000E+03 0.  0.
</event>
<event>
 5    0  0.6047225E-005  0.2569894E+03  0.7546771E-02  0.1108966E+00
         21   -1    0    0  502  501  0.00000000000E+00  0.00000000000E+00  0.19658996477E+03  0.19658996477E+03  0.00000000000E+00 0. -1.
         21   -1    0    0  501  502 -0.00000000000E+00 -0.00000000000E+00 -0.33594566485E+03  0.33594566485E+03  0.00000000000E+00 0. -1.
         25    1    1    2    0    0 -0.12609074767E+02 -0.60754928388E+02 -0.10008191797E+03  0.17173101174E+03  0.12500000000E+03 0.  0.
         25    1    1    2    0    0  0.22975971272E+00  0.14986391347E+03  0.19144479375E+02  0.19608864434E+03  0.12500000000E+03 0.  0.
         25    1    1    2    0    0  0.12379315054E+02 -0.89108985081E+02 -0.58418261480E+02  0.16471597354E+03  0.12500000000E+03 0.  0.
</event>
<event>
 5    0  0.5771525E-005  0.5078371E+03  0.7546771E-02  0.1011753E+00
         21   -1    0    0  502  501  0.00000000000E+00  0.00000000000E+00  0.20165088125E+03  0.20165088125E+03  0.00000000000E+00 0. -1.
         21   -1    0    0  501  502 -0.00000000000E+00 -0.00000000000E+00 -0.12789357784E+04  0.12789357784E+04  0.00000000000E+00 0. -1.
         25    1    1    2    0    0  0.37653981123E+02 -0.34236839370E+03 -0.43676578574E+03  0.57010813964E+03  0.12500000000E+03 0.  0.
         25    1    1    2    0    0 -0.92826018666E+02 -0.97211892711E+02 -0.22480116787E+03  0.29021954948E+03  0.12500000000E+03 0.  0.
         25    1    1    2    0    0  0.55172037543E+02  0.43958028641E+03 -0.41571794351E+03  0.62025897049E+03  0.12500000000E+03 0.  0.
</event>
<event>
 5    0  0.5771525E-005  0.2883804E+03  0.7546771E-02  0.1091198E+00
         21   -1    0    0  502  501  0.00000000000E+00  0.00000000000E+00  0.52038034325E+02  0.52038034325E+02  0.00000000000E+00 0. -1.
         21   -1    0    0  501  502 -0.00000000000E+00 -0.00000000000E+00 -0.15981248128E+04  0.15981248128E+04  0.00000000000E+00 0. -1.
         25    1    1    2    0    0  0.86067157080E+01  0.71653070834E+01 -0.14872374689E+03  0.19460002587E+03  0.12500000000E+03 0.  0.
         25    1    1    2    0    0 -0.54922274487E+02  0.48977811719E+01 -0.12461614634E+04  0.12536282692E+04  0.12500000000E+03 0.  0.
         25    1    1    2    0    0  0.46315558779E+02 -0.12063088255E+02 -0.15120156815E+03  0.20193455200E+03  0.12500000000E+03 0.  0.
</event>
<event>
 5    0  0.6430079E-005  0.2978091E+03  0.7546771E-02  0.1086341E+00
         21   -1    0    0  502  501  0.00000000000E+00  0.00000000000E+00  0.35884580611E+03  0.35884580611E+03  0.00000000000E+00 0.  1.
         21   -1    0    0  501  502 -0.00000000000E+00 -0.00000000000E+00 -0.24715428888E+03  0.24715428888E+03  0.00000000000E+00 0.  1.
         25    1    1    2    0    0  0.11436106828E+03  0.29006433817E+02  0.32476975149E+01  0.17191676672E+03  0.12500000000E+03 0.  0.
         25    1    1    2    0    0 -0.49119595444E+01 -0.54574850796E+02 -0.97877589492E+02  0.16795107684E+03  0.12500000000E+03 0.  0.
         25    1    1    2    0    0 -0.10944910874E+03  0.25568416979E+02  0.20632140921E+03  0.26613225143E+03  0.12500000000E+03 0.  0.
</event>
<event>
 5    0  0.5771525E-005  0.2258059E+03  0.7546771E-02  0.1129627E+00
         21   -1    0    0  502  501  0.00000000000E+00  0.00000000000E+00  0.43438138219E+03  0.43438138219E+03  0.00000000000E+00 0.  1.
         21   -1    0    0  501  502 -0.00000000000E+00 -0.00000000000E+00 -0.11738143061E+03  0.11738143061E+03  0.00000000000E+00 0.  1.
         25    1    1    2    0    0 -0.23887852843E+02 -0.10734660657E+03  0.16234491651E+03  0.23253987910E+03  0.12500000000E+03 0.  0.
         25    1    1    2    0    0 -0.54210845635E+01  0.38963211859E+02  0.95681395894E+02  0.16225735594E+03  0.12500000000E+03 0.  0.
         25    1    1    2    0    0  0.29308937406E+02  0.68383394713E+02  0.58973639177E+02  0.15696557776E+03  0.12500000000E+03 0.  0.
</event>
<event>
 5    0  0.5771525E-005  0.3472492E+03  0.7546771E-02  0.1063750E+00
         21   -1    0    0  502  501  0.00000000000E+00  0.00000000000E+00  0.71835039702E+03  0.71835039702E+03  0.00000000000E+00 0.  1.
         21   -1    0    0  501  502 -0.00000000000E+00 -0.00000000000E+00 -0.16785961668E+03  0.16785961668E+03  0.00000000000E+00 0.  1.
         25    1    1    2    0    0  0.80604384034E+02  0.14599955609E+03  0.25163733214E+03  0.32674039241E+03  0.12500000000E+03 0.  0.
         25    1    1    2    0    0  0.22893368775E+02 -0.13506081165E+03  0.34388112732E+03  0.39069778462E+03  0.12500000000E+03 0.  0.
         25    1    1    2    0    0 -0.10349775281E+03 -0.10938744439E+02 -0.45027679129E+02  0.16877183667E+03  0.12500000000E+03 0.  0.
</event>
<event>
 5    0  0.6091977E-005  0.2776125E+03  0.7546771E-02  0.1097000E+00
         21   -1    0    0  502  501  0.00000000000E+00  0.00000000000E+00  0.61876111019E+03  0.61876111019E+03  0.00000000000E+00 0. -1.
         21   -1    0    0  501  502 -0.00000000000E+00 -0.00000000000E+00 -0.12455321499E+03  0.12455321499E+03  0.00000000000E+00 0. -1.
         25    1    1    2    0    0  0.56040959171E+02 -0.40670957011E+02  0.46853665507E+01  0.14297436312E+03  0.12500000000E+03 0.  0.
         25    1    1    2    0    0 -0.47081290759E+01 -0.93729070979E+02  0.20264739039E+03  0.25592629810E+03  0.12500000000E+03 0.  0.
         25    1    1    2    0    0 -0.51332830095E+02  0.13440002799E+03  0.28687513826E+03  0.34441366396E+03  0.12500000000E+03 0.  0.
</event>
<event>
 5    0  0.5771525E-005  0.2648701E+03  0.7546771E-02  0.1104252E+00
         21   -1    0    0  502  501  0.00000000000E+00  0.00000000000E+00  0.12243627387E+04  0.12243627387E+04  0.00000000000E+00 0. -1.
         21   -1    0    0  501  502 -0.00000000000E+00 -0.00000000000E+00 -0.57300135944E+02  0.57300135944E+02  0.00000000000E+00 0. -1.
         25    1    1    2    0    0  0.89255658890E+02 -0.45645310452E+02  0.66717179768E+03  0.68614377110E+03  0.12500000000E+03 0.  0.
         25    1    1    2    0    0 -0.32837375455E+02  0.31258240277E+02  0.83793839659E+02  0.15716799412E+03  0.12500000000E+03 0.  0.
         25    1    1    2    0    0 -0.56418283435E+02  0.14387070175E+02  0.41609696539E+03  0.43835110939E+03  0.12500000000E+03 0.  0.
</event>
<event>
 5    0  0.5771525E-005  0.4608241E+03  0.7546771E-02  0.1024542E+00
         21   -1    0    0  502  501  0.00000000000E+00  0.00000000000E+00  0.16978015477E+03  0.16978015477E+03  0.00000000000E+00 0. -1.
         21   -1    0    0  501  502 -0.00000000000E+00 -0.00000000000E+00 -0.12507872562E+04  0.12507872562E+04  0.00000000000E+00 0. -1.
         25    1    1    2    0    0 -0.34234675107E+03  0.19885898055E+03 -0.49746336818E+03  0.64795138305E+03  0.12500000000E+03 0.  0.
         25    1    1    2    0    0  0.12342837209E+03  0.14284710045E+02 -0.20383262327E+03  0.26946494074E+03  0.12500000000E+03 0.  0.
         25    1    1    2    0    0  0.21891837897E+03 -0.21314369059E+03 -0.37971111000E+03  0.50315108720E+03  0.12500000000E+03 0.  0.
</event>
<event>
 5    0  0.5771525E-005  0.2591171E+03  0.7546771E-02  0.1107675E+00
         21   -1    0    0  502  501  0.00000000000E+00  0.00000000000E+00  0.11645979975E+04  0.11645979975E+04  0.00000000000E+00 0. -1.
         21   -1    0    0  501  502 -0.00000000000E+00 -0.00000000000E+00 -0.57652231658E+02  0.57652231658E+02  0.00000000000E+00 0. -1.
         25    1    1    2    0    0 -0.71419119207E+01 -0.54894520062E+02  0.60620475415E+03  0.62142869196E+03  0.12500000000E+03 0.  0.
         25    1    1    2    0    0 -0.37638025527E+02  0.12075582683E+03  0.21574161335E+03  0.27958546888E+03  0.12500000000E+03 0.  0.
         25    1    1    2    0    0  0.44779937448E+02 -0.65861306773E+02  0.28499939832E+03  0.32123606829E+03  0.12500000000E+03 0.  0.
</event>
<event>
 5    0  0.5771525E-005  0.6671457E+03  0.7546771E-02  0.9775128E-01
         21   -1    0    0  502  501  0.00000000000E+00  0.00000000000E+00  0.64252945738E+03  0.64252945738E+03  0.00000000000E+00 0. -1.
         21   -1    0    0  501  502 -0.00000000000E+00 -0.00000000000E+00 -0.69270493587E+03  0.69270493587E+03  0.00000000000E+00 0. -1.
         25    1    1    2    0    0  0.13348741902E+03 -0.23959084035E+03 -0.47284762602E+03  0.56074284592E+03  0.12500000000E+03 0.  0.
         25    1    1    2    0    0 -0.34528736523E+02  0.32548085615E+02  0.48729626777E+03  0.50530610931E+03  0.12500000000E+03 0.  0.
         25    1    1    2    0    0 -0.98958682500E+02  0.20704275473E+03 -0.64624120238E+02  0.26918543803E+03  0.12500000000E+03 0.  0.
</event>
<event>
 5    0  0.5771525E-005  0.3224166E+03  0.7546771E-02  0.1074542E+00
         21   -1    0    0  502  501  0.00000000000E+00  0.00000000000E+00  0.15841056613E+03  0.15841056613E+03  0.00000000000E+00 0. -1.
         21   -1    0    0  501  502 -0.00000000000E+00 -0.00000000000E+00 -0.65622183897E+03  0.65622183897E+03  0.00000000000E+00 0. -1.
         25    1    1    2    0    0 -0.84655064262E+02 -0.18609284883E+03 -0.34737176157E+03  0.42200612439E+03  0.12500000000E+03 0.  0.
         25    1    1    2    0    0  0.37652133443E+02  0.15670113429E+03 -0.22200208152E+02  0.20516037113E+03  0.12500000000E+03 0.  0.
         25    1    1    2    0    0  0.47002930819E+02  0.29391714533E+02 -0.12823930312E+03  0.18746590958E+03  0.12500000000E+03 0.  0.
</event>
<event>
 5    0  0.5771525E-005  0.3346174E+03  0.7546771E-02  0.1069112E+00
         21   -1    0    0  502  501  0.00000000000E+00  0.00000000000E+00  0.72390838718E+03  0.72390838718E+03  0.00000000000E+00 0. -1.
         21   -1    0    0  501  502 -0.00000000000E+00 -0.00000000000E+00 -0.15467264101E+03  0.15467264101E+03  0.00000000000E+00 0. -1.
         25    1    1    2    0    0  0.57963894047E+02  0.18834655468E+03  0.23936660697E+03  0.33429868412E+03  0.12500000000E+03 0.  0.
         25    1    1    2    0    0 -0.67952882079E+01 -0.60464654480E+02  0.33020740195E+03  0.35827933053E+03  0.12500000000E+03 0.  0.
         25    1    1    2    0    0 -0.51168605839E+02 -0.12788190020E+03 -0.33826274991E+00  0.18600301354E+03  0.12500000000E+03 0.  0.
</event>
<event>
 5    0  0.6329042E-005  0.2680149E+03  0.7546771E-02  0.1102421E+00
         21   -1    0    0  502  501  0.00000000000E+00  0.00000000000E+00  0.74654484903E+02  0.74654484903E+02  0.00000000000E+00 0.  1.
         21   -1    0    0  501  502 -0.00000000000E+00 -0.00000000000E+00 -0.96219287432E+03  0.96219287432E+03  0.00000000000E+00 0.  1.
         25    1    1    2    0    0  0.35533493237E+02 -0.17084494771E+02 -0.16100271698E+03  0.20760872809E+03  0.12500000000E+03 0.  0.
         25    1    1    2    0    0  0.96611582751E+01 -0.18085999815E+02 -0.66782926328E+03  0.67973624757E+03  0.12500000000E+03 0.  0.
         25    1    1    2    0    0 -0.45194651512E+02  0.35170494586E+02 -0.58706409153E+02  0.14950238356E+03  0.12500000000E+03 0.  0.
</event>
<event>
 5    0  0.5771525E-005  0.2831322E+03  0.7546771E-02  0.1093990E+00
         21   -1    0    0  502  501  0.00000000000E+00  0.00000000000E+00  0.18167339778E+03  0.18167339778E+03  0.00000000000E+00 0.  1.
         21   -1    0    0  501  502 -0.00000000000E+00 -0.00000000000E+00 -0.44125246768E+03  0.44125246768E+03  0.00000000000E+00 0.  1.
         25    1    1    2    0    0 -0.20325922800E+02  0.11460072170E+03 -0.59562501996E+02  0.18088438351E+03  0.12500000000E+03 0.  0.
         25    1    1    2    0    0 -0.10981667187E+03 -0.65037736810E+02 -0.15627414936E+02  0.17932881734E+03  0.12500000000E+03 0.  0.
         25    1    1    2    0    0  0.13014259467E+03 -0.49562984893E+02 -0.18438915297E+03  0.26271266462E+03  0.12500000000E+03 0.  0.
</event>
<event>
 5    0  0.5771525E-005  0.2998347E+03  0.7546771E-02  0.1085323E+00
         21   -1    0    0  502  501  0.00000000000E+00  0.00000000000E+00  0.18543183299E+03  0.18543183299E+03  0.00000000000E+00 0.  1.
         21   -1    0    0  501  502 -0.00000000000E+00 -0.00000000000E+00 -0.48481871032E+03  0.48481871032E+03  0.00000000000E+00 0.  1.
         25    1    1    2    0    0  0.18032736065E+03  0.51329039633E+02 -0.75775557471E+02  0.23773843278E+03  0.12500000000E+03 0.  0.
         25    1    1    2    0    0 -0.44489351379E+02  0.52985610929E+02 -0.31303303515E+02  0.14625892849E+03  0.12500000000E+03 0.  0.
         25    1    1    2    0    0 -0.13583800927E+03 -0.10431465056E+03 -0.19230801634E+03  0.28625318205E+03  0.12500000000E+03 0.  0.
</event>
<event>
 5    0  0.5771525E-005  0.2526725E+03  0.7546771E-02  0.1111627E+00
         21   -1    0    0  502  501  0.00000000000E+00  0.00000000000E+00  0.13540231755E+04  0.13540231755E+04  0.00000000000E+00 0.  1.
         21   -1    0    0  501  502 -0.00000000000E+00 -0.00000000000E+00 -0.47150872740E+02  0.47150872740E+02  0.00000000000E+00 0.  1.
         25    1    1    2    0    0 -0.28590516718E+02  0.83593296473E+02  0.22550095174E+03  0.27254529183E+03  0.12500000000E+03 0.  0.
         25    1    1    2    0    0  0.78032823600E+02 -0.64027218422E+02  0.80259140010E+03  0.81851485128E+03  0.12500000000E+03 0.  0.
         25    1    1    2    0    0 -0.49442306882E+02 -0.19566078052E+02  0.27877995093E+03  0.31011390513E+03  0.12500000000E+03 0.  0.
</event>
<event>
 5    0  0.5771525E-005  0.3367385E+03  0.7546771E-02  0.1068194E+00
         21   -1    0    0  502  501  0.00000000000E+00  0.00000000000E+00  0.88636006916E+03  0.88636006916E+03  0.00000000000E+00 0.  1.
         21   -1    0    0  501  502 -0.00000000000E+00 -0.00000000000E+00 -0.12793087222E+03  0.12793087222E+03  0.00000000000E+00 0.  1.
         25    1    1    2    0    0  0.11044187535E+03 -0.14100867748E+03  0.64302040087E+03  0.67910315188E+03  0.12500000000E+03 0.  0.
         25    1    1    2    0    0 -0.60785888185E+02  0.46651112107E+02  0.80352130262E+02  0.16719065554E+03  0.12500000000E+03 0.  0.
         25    1    1    2    0    0 -0.49655987170E+02  0.94357565368E+02  0.35056665809E+02  0.16799713397E+03  0.12500000000E+03 0.  0.
</event>
<event>
 5    0  0.5771525E-005  0.2278163E+03  0.7546771E-02  0.1128186E+00
         21   -1    0    0  502  501  0.00000000000E+00  0.00000000000E+00  0.62281524467E+03  0.62281524467E+03  0.00000000000E+00 0.  1.
         21   -1    0    0  501  502 -0.00000000000E+00 -0.00000000000E+00 -0.83331714649E+02  0.83331714649E+02  0.00000000000E+00 0.  1.
         25    1    1    2    0    0 -0.38360612124E+01  0.20950068370E+02  0.14791091466E+03  0.19482366234E+03  0.12500000000E+03 0.  0.
         25    1    1    2    0    0  0.93848485172E+02 -0.46312410361E+02  0.26135704500E+03  0.30803389829E+03  0.12500000000E+03 0.  0.
         25    1    1    2    0    0 -0.90012423960E+02  0.25362341991E+02  0.13021557036E+03  0.20328939870E+03  0.12500000000E+03 0.  0.
</event>
<event>
 5    0  0.5771525E-005  0.2986738E+03  0.7546771E-02  0.1085905E+00
         21   -1    0    0  502  501  0.00000000000E+00  0.00000000000E+00  0.82490736801E+03  0.82490736801E+03  0.00000000000E+00 0.  1.
         21   -1    0    0  501  502 -0.00000000000E+00 -0.00000000000E+00 -0.10814070632E+03  0.10814070632E+03  0.00000000000E+00 0.  1.
         25    1    1    2    0    0 -0.47847994683E+02  0.64916643539E+02  0.25143169516E+03  0.29214123046E+03  0.12500000000E+03 0.  0.
         25    1    1    2    0    0 -0.12261148952E+03 -0.18935758815E+02  0.68556047771E+02  0.18898960820E+03  0.12500000000E+03 0.  0.
         25    1    1    2    0    0  0.17045948420E+03 -0.45980884724E+02  0.39677891876E+03  0.45191723566E+03  0.12500000000E+03 0.  0.
</event>
<event>
 5    0  0.5771525E-005  0.2299850E+03  0.7546771E-02  0.1126650E+00
         21   -1    0    0  502  501  0.00000000000E+00  0.00000000000E+00  0.71328600227E+03  0.71328600227E+03  0.00000000000E+00 0. -1.
         21   -1    0    0  501  502 -0.00000000000E+00 -0.00000000000E+00 -0.74154125009E+02  0.74154125009E+02  0.00000000000E+00 0. -1.
         25    1    1    2    0    0  0.48483892611E+02  0.93753684505E+02  0.27502384059E+03  0.32000555323E+03  0.12500000000E+03 0.  0.
         25    1    1    2    0    0  0.21360047912E+02 -0.11913967506E+02  0.14142010422E+03  0.19032298901E+03  0.12500000000E+03 0.  0.
         25    1    1    2    0    0 -0.69843940523E+02 -0.81839717000E+02  0.22268793244E+03  0.27711158504E+03  0.12500000000E+03 0.  0.
</event>
<event>
 5    0  0.5771525E-005  0.2700892E+03  0.7546771E-02  0.1101229E+00
         21   -1    0    0  502  501  0.00000000000E+00  0.00000000000E+00  0.53428432349E+03  0.53428432349E+03  0.00000000000E+00 0. -1.
         21   -1    0    0  501  502 -0.00000000000E+00 -0.00000000000E+00 -0.13653441597E+03  0.13653441597E+03  0.00000000000E+00 0. -1.
         25    1    1    2    0    0 -0.14249858478E+03  0.46077276562E+02  0.14550852816E+03  0.24336535054E+03  0.12500000000E+03 0.  0.
         25    1    1    2    0    0  0.15658778563E+03  0.16402135646E+02  0.17838265154E+03  0.26876408807E+03  0.12500000000E+03 0.  0.
         25    1    1    2    0    0 -0.14089200859E+02 -0.62479412208E+02  0.73858727810E+02  0.15868930085E+03  0.12500000000E+03 0.  0.
</event>
<event>
 5    0  0.5771525E-005  0.4583575E+03  0.7546771E-02  0.1025259E+00
         21   -1    0    0  502  501  0.00000000000E+00  0.00000000000E+00  0.51808102412E+03  0.51808102412E+03  0.00000000000E+00 0. -1.
         21   -1    0    0  501  502 -0.00000000000E+00 -0.00000000000E+00 -0.40551885843E+03  0.40551885843E+03  0.00000000000E+00 0. -1.
         25    1    1    2    0    0 -0.14960553894E+03  0.39341129482E+02  0.41724245768E+03  0.46221835775E+03  0.12500000000E+03 0.  0.
         25    1    1    2    0    0  0.20020757973E+02 -0.11220249317E+02 -0.28090781134E+02  0.13015689275E+03  0.12500000000E+03 0.  0.
         25    1    1    2    0    0  0.12958478096E+03 -0.28120880164E+02 -0.27658951087E+03  0.33122463205E+03  0.12500000000E+03 0.  0.
</event>
<event>
 5    0  0.5771525E-005  0.2850960E+03  0.7546771E-02  0.1092938E+00
         21   -1    0    0  502  501  0.00000000000E+00  0.00000000000E+00  0.14964703036E+04  0.14964703036E+04  0.00000000000E+00 0. -1.
         21   -1    0    0  501  502 -0.00000000000E+00 -0.00000000000E+00 -0.54314283509E+02  0.54314283509E+02  0.00000000000E+00 0. -1.
         25    1    1    2    0    0  0.11344762971E+03 -0.58546293780E+02  0.23929961259E+03  0.29864249160E+03  0.12500000000E+03 0.  0.
         25    1    1    2    0    0 -0.11087598540E+03 -0.39017316256E+02  0.42586844070E+03  0.45913479926E+03  0.12500000000E+03 0.  0.
         25    1    1    2    0    0 -0.25716443032E+01  0.97563610036E+02  0.77698796682E+03  0.79300729627E+03  0.12500000000E+03 0.  0.
</event>
<event>
 5    0  0.5771525E-005  0.2629441E+03  0.7546771E-02  0.1105387E+00
         21   -1    0    0  502  501  0.00000000000E+00  0.00000000000E+00  0.11198575575E+03  0.11198575575E+03  0.00000000000E+00 0. -1.
         21   -1    0    0  501  502 -0.00000000000E+00 -0.00000000000E+00 -0.61739630846E+03  0.61739630846E+03  0.00000000000E+00 0. -1.
         25    1    1    2    0    0 -0.91124890209E+02  0.19158426528E+02 -0.51053063192E+02  0.16401892020E+03  0.12500000000E+03 0.  0.
         25    1    1    2    0    0  0.80156397592E+02 -0.35245339409E+01 -0.76843909654E+02  0.16723473582E+03  0.12500000000E+03 0.  0.
         25    1    1    2    0    0  0.10968492617E+02 -0.15633892587E+02 -0.37751357986E+03  0.39812840819E+03  0.12500000000E+03 0.  0.
</event>
<event>
 5    0  0.5771525E-005  0.2748656E+03  0.7546771E-02  0.1098527E+00
         21   -1    0    0  502  501  0.00000000000E+00  0.00000000000E+00  0.17579016588E+04  0.17579016588E+04  0.00000000000E+00 0. -1.
         21   -1    0    0  501  502 -0.00000000000E+00 -0.00000000000E+00 -0.42977997487E+02  0.42977997487E+02  0.00000000000E+00 0. -1.
         25    1    1    2    0    0  0.70573801822E+02  0.12074900789E+03  0.91503768568E+03  0.93406635237E+03  0.12500000000E+03 0.  0.
         25    1    1    2    0    0 -0.15270427953E+02 -0.12523317156E+03  0.59125960006E+03  0.61735682380E+03  0.12500000000E+03 0.  0.
         25    1    1    2    0    0 -0.55303373869E+02  0.44841636727E+01  0.20862637552E+03  0.24945648007E+03  0.12500000000E+03 0.  0.
</event>
<event>
 5    0  0.5771525E-005  0.2454112E+03  0.7546771E-02  0.1116240E+00
         21   -1    0    0  502  501  0.00000000000E+00  0.00000000000E+00  0.16655900769E+03  0.16655900769E+03  0.00000000000E+00 0.  1.
         21   -1    0    0  501  502 -0.00000000000E+00 -0.00000000000E+00 -0.36159344880E+03  0.36159344880E+03  0.00000000000E+00 0.  1.
         25    1    1    2    0    0  0.60013391664E+02  0.34683146990E+02  0.30512203710E+02  0.14615239457E+03  0.12500000000E+03 0.  0.
         25    1    1    2    0    0 -0.14117572516E+02 -0.74934463985E+02 -0.18727536043E+03  0.23772156059E+03  0.12500000000E+03 0.  0.
         25    1    1    2    0    0 -0.45895819148E+02  0.40251316995E+02 -0.38271284395E+02  0.14427850132E+03  0.12500000000E+03 0.  0.
</event>
<event>
 5    0  0.5771525E-005  0.2362997E+03  0.7546771E-02  0.1122283E+00
         21   -1    0    0  502  501  0.00000000000E+00  0.00000000000E+00  0.12862729317E+03  0.12862729317E+03  0.00000000000E+00 0.  1.
         21   -1    0    0  501  502 -0.00000000000E+00 -0.00000000000E+00 -0.43410336157E+03  0.43410336157E+03  0.00000000000E+00 0.  1.
         25    1    1    2    0    0  0.72426356668E+02 -0.43000604095E+02 -0.19686649068E+03  0.24794363118E+03  0.12500000000E+03 0.  0.
         25    1    1    2    0    0  0.20499196373E+02 -0.18096052541E+02 -0.41479268132E+02  0.13451101759E+03  0.12500000000E+03 0.  0.
         25    1    1    2    0    0 -0.92925553041E+02  0.61096656636E+02 -0.67130309584E+02  0.18027600596E+03  0.12500000000E+03 0.  0.
</event>
<event>
 5    0  0.5771525E-005  0.4093828E+03  0.7546771E-02  0.1040578E+00
         21   -1    0    0  502  501  0.00000000000E+00  0.00000000000E+00  0.94983890143E+03  0.94983890143E+03  0.00000000000E+00 0. -1.
         21   -1    0    0  501  502 -0.00000000000E+00 -0.00000000000E+00 -0.17644499249E+03  0.17644499249E+03  0.00000000000E+00 0. -1.
         25    1    1    2    0    0  0.11228702147E+03  0.20122457850E+03  0.75982009908E+02  0.27294316627E+03  0.12500000000E+03 0.  0.
         25    1    1    2    0    0 -0.57167793663E+02 -0.26930762502E+03  0.29279458853E+03  0.42089003861E+03  0.12500000000E+03 0.  0.
         25    1    1    2    0    0 -0.55119227807E+02  0.68083046522E+02  0.40461731050E+03  0.43245068904E+03  0.12500000000E+03 0.  0.
</event>
<event>
 5    0  0.5771525E-005  0.2079592E+03  0.7546771E-02  0.1143192E+00
         21   -1    0    0  502  501  0.00000000000E+00  0.00000000000E+00  0.10734521969E+03  0.10734521969E+03  0.00000000000E+00 0. -1.
         21   -1    0    0  501  502 -0.00000000000E+00 -0.00000000000E+00 -0.40287805338E+03  0.40287805338E+03  0.00000000000E+00 0. -1.
         25    1    1    2    0    0 -0.16773674130E+02 -0.58484606633E+01 -0.13589754995E+03  0.18549583477E+03  0.12500000000E+03 0.  0.
         25    1    1    2    0    0 -0.22994763926E+02  0.28197633787E+02 -0.13834862926E+03  0.18997160034E+03  0.12500000000E+03 0.  0.
         25    1    1    2    0    0  0.39768438056E+02 -0.22349173124E+02 -0.21286654485E+02  0.13475583796E+03  0.12500000000E+03 0.  0.
</event>
<event>
 5    0  0.5771525E-005  0.6860874E+03  0.7546771E-02  0.9741325E-01
         21   -1    0    0  502  501  0.00000000000E+00  0.00000000000E+00  0.33507614564E+03  0.33507614564E+03  0.00000000000E+00 0. -1.
         21   -1    0    0  501  502 -0.00000000000E+00 -0.00000000000E+00 -0.14048027770E+04  0.14048027770E+04  0.00000000000E+00 0. -1.
         25    1    1    2    0    0 -0.19005541914E+03 -0.30793676600E+03 -0.63506298090E+03  0.74153631328E+03  0.12500000000E+03 0.  0.
         25    1    1    2    0    0 -0.70144080479E+02  0.31728142955E+03 -0.57888708279E+03  0.67551680378E+03  0.12500000000E+03 0.  0.
         25    1    1    2    0    0  0.26019949962E+03 -0.93446635535E+01  0.14422343231E+03  0.32282580561E+03  0.12500000000E+03 0.  0.
</event>
<event>
 5    0  0.6220139E-005  0.2952979E+03  0.7546771E-02  0.1087615E+00
         21   -1    0    0  502  501  0.00000000000E+00  0.00000000000E+00  0.70771905210E+03  0.70771905210E+03  0.00000000000E+00 0. -1.
         21   -1    0    0  501  502 -0.00000000000E+00 -0.00000000000E+00 -0.12321389662E+03  0.12321389662E+03  0.00000000000E+00 0. -1.
         25    1    1    2    0    0  0.13010180726E+03 -0.42022928716E+02  0.14698798781E+03  0.23648017961E+03  0.12500000000E+03 0.  0.
         25    1    1    2    0    0 -0.17498304867E+03 -0.31092895878E+02  0.13427292935E+03  0.25542132850E+03  0.12500000000E+03 0.  0.
         25    1    1    2    0    0  0.44881241408E+02  0.73115824594E+02  0.30324423833E+03  0.33903144060E+03  0.12500000000E+03 0.  0.
</event>
<event>
 5    0  0.5771525E-005  0.2632809E+03  0.7546771E-02  0.1105188E+00
         21   -1    0    0  502  501  0.00000000000E+00  0.00000000000E+00  0.26491939928E+02  0.26491939928E+02  0.00000000000E+00 0. -1.
         21   -1    0    0  501  502 -0.00000000000E+00 -0.00000000000E+00 -0.26165245675E+04  0.26165245675E+04  0.00000000000E+00 0. -1.
         25    1    1    2    0    0 -0.89548197302E+01  0.20274303279E+02 -0.19578320950E+03  0.23333945507E+03  0.12500000000E+03 0.  0.
         25    1    1    2    0    0 -0.40873240222E+00 -0.15777615830E+01 -0.16486711402E+04  0.16534038179E+04  0.12500000000E+03 0.  0.
         25    1    1    2    0    0  0.93635521324E+01 -0.18696541696E+02 -0.74557827781E+03  0.75627323443E+03  0.12500000000E+03 0.  0.
</event>
<event>
 5    0  0.5771525E-005  0.4053754E+03  0.7546771E-02  0.1041934E+00
         21   -1    0    0  502  501  0.00000000000E+00  0.00000000000E+00  0.15975455764E+04  0.15975455764E+04  0.00000000000E+00 0. -1.
         21   -1    0    0  501  502 -0.00000000000E+00 -0.00000000000E+00 -0.10286357688E+03  0.10286357688E+03  0.00000000000E+00 0. -1.
         25    1    1    2    0    0  0.58675022670E+02  0.12408882116E+03  0.40005328527E+03  0.44103109287E+03  0.12500000000E+03 0.  0.
         25    1    1    2    0    0 -0.16694360543E+03 -0.14537386987E+03  0.10587292036E+04  0.10888233356E+04  0.12500000000E+03 0.  0.
         25    1    1    2    0    0  0.10826858276E+03  0.21285048715E+02  0.35899510628E+02  0.17055472487E+03  0.12500000000E+03 0.  0.
</event>
<event>
 5    0  0.5771525E-005  0.4203308E+03  0.7546771E-02  0.1036959E+00
         21   -1    0    0  502  501  0.00000000000E+00  0.00000000000E+00  0.13379702797E+03  0.13379702797E+03  0.00000000000E+00 0.  1.
         21   -1    0    0  501  502 -0.00000000000E+00 -0.00000000000E+00 -0.13204924486E+04  0.13204924486E+04  0.00000000000E+00 0.  1.
         25    1    1    2    0    0 -0.21937105254E+03 -0.21861219685E+03 -0.39268821264E+03  0.51550362138E+03  0.12500000000E+03 0.  0.
         25    1    1    2    0    0  0.85836537298E+02 -0.35581768855E+02 -0.12358037645E+03  0.19882425117E+03  0.12500000000E+03 0.  0.
         25    1    1    2    0    0  0.13353451524E+03  0.25419396571E+03 -0.67042683151E+03  0.73996160398E+03  0.12500000000E+03 0.  0.
</event>
<event>
 5    0  0.5771525E-005  0.4149583E+03  0.7546771E-02  0.1038720E+00
         21   -1    0    0  502  501  0.00000000000E+00  0.00000000000E+00  0.19226156999E+03  0.19226156999E+03  0.00000000000E+00 0. -1.
         21   -1    0    0  501  502 -0.00000000000E+00 -0.00000000000E+00 -0.89560496348E+03  0.89560496348E+03  0.00000000000E+00 0. -1.
         25    1    1    2    0    0  0.17725961189E+03 -0.20907671333E+03 -0.27713395160E+03  0.40934370545E+03  0.12500000000E+03 0.  0.
         25    1    1    2    0    0  0.55789491962E+02 -0.24495641872E+02 -0.24538975377E+03  0.28205253968E+03  0.12500000000E+03 0.  0.
         25    1    1    2    0    0 -0.23304910385E+03  0.23357235520E+03 -0.18081968811E+03  0.39647028833E+03  0.12500000000E+03 0.  0.
</event>
<event>
 5    0  0.5771525E-005  0.2099516E+03  0.7546771E-02  0.1141604E+00
         21   -1    0    0  502  501  0.00000000000E+00  0.00000000000E+00  0.83737337857E+02  0.83737337857E+02  0.00000000000E+00 0. -1.
         21   -1    0    0  501  502 -0.00000000000E+00 -0.00000000000E+00 -0.52640419431E+03  0.52640419431E+03  0.00000000000E+00 0. -1.
         25    1    1    2    0    0  0.56265346092E+02  0.11348302237E+02 -0.13449882533E+03  0.19237855169E+03  0.12500000000E+03 0.  0.
         25    1    1    2    0    0  0.28649153127E+02 -0.18346123317E+02 -0.12277353558E+03  0.17848163842E+03  0.12500000000E+03 0.  0.
         25    1    1    2    0    0 -0.84914499219E+02  0.69978210809E+01 -0.18539449554E+03  0.23928134205E+03  0.12500000000E+03 0.  0.
</event>
<event>
 5    0  0.5771525E-005  0.3259171E+03  0.7546771E-02  0.1072958E+00
         21   -1    0    0  502  501  0.00000000000E+00  0.00000000000E+00  0.35150197862E+03  0.35150197862E+03  0.00000000000E+00 0.  1.
         21   -1    0    0  501  502 -0.00000000000E+00 -0.00000000000E+00 -0.30219446781E+03  0.30219446781E+03  0.00000000000E+00 0.  1.
         25    1    1    2    0    0  0.91945650131E+01 -0.14561473503E+03 -0.12797641447E+02  0.19255381250E+03  0.12500000000E+03 0.  0.
         25    1    1    2    0    0  0.10053259719E+03 -0.77903662824E+02  0.24401389262E+02  0.17998947630E+03  0.12500000000E+03 0.  0.
         25    1    1    2    0    0 -0.10972716220E+03  0.22351839785E+03  0.37703763000E+02  0.28115315763E+03  0.12500000000E+03 0.  0.
</event>
<event>
 5    0  0.5771525E-005  0.3150914E+03  0.7546771E-02  0.1077931E+00
         21   -1    0    0  502  501  0.00000000000E+00  0.00000000000E+00  0.92150389751E+03  0.92150389751E+03  0.00000000000E+00 0. -1.
         21   -1    0    0  501  502 -0.00000000000E+00 -0.00000000000E+00 -0.10773973550E+03  0.10773973550E+03  0.00000000000E+00 0. -1.
         25    1    1    2    0    0  0.12355871979E+02  0.12031721882E+03  0.16386830763E+03  0.23897012985E+03  0.12500000000E+03 0.  0.
         25    1    1    2    0    0  0.40783673924E+02 -0.23668643973E+03  0.39455870602E+03  0.47852413869E+03  0.12500000000E+03 0.  0.
         25    1    1    2    0    0 -0.53139545903E+02  0.11636922090E+03  0.25533714837E+03  0.31174936447E+03  0.12500000000E+03 0.  0.
</event>
<event>
 5    0  0.5771525E-005  0.4131070E+03  0.7546771E-02  0.1039333E+00
         21   -1    0    0  502  501  0.00000000000E+00  0.00000000000E+00  0.11726140930E+04  0.11726140930E+04  0.00000000000E+00 0. -1.
         21   -1    0    0  501  502 -0.00000000000E+00 -0.00000000000E+00 -0.14553585169E+03  0.14553585169E+03  0.00000000000E+00 0. -1.
         25    1    1    2    0    0  0.26766925200E+03  0.12857363457E+03  0.68633091422E+03  0.75819069619E+03  0.12500000000E+03 0.  0.
         25    1    1    2    0    0 -0.42021273347E+02  0.20036998571E+02  0.46181330638E+02  0.14115588555E+03  0.12500000000E+03 0.  0.
         25    1    1    2    0    0 -0.22564797865E+03 -0.14861063314E+03  0.29456599641E+03  0.41880336292E+03  0.12500000000E+03 0.  0.
</event>
<event>
 5    0  0.7955712E-005  0.2833298E+03  0.7546771E-02  0.1093884E+00
         21   -1    0    0  502  501  0.00000000000E+00  0.00000000000E+00  0.58901157101E+03  0.58901157101E+03  0.00000000000E+00 0.  1.
         21   -1    0    0  501  502 -0.00000000000E+00 -0.00000000000E+00 -0.13628896914E+03  0.13628896914E+03  0.00000000000E+00 0.  1.
         25    1    1    2    0    0 -0.32935107992E+02 -0.83880558865E+02  0.22534311914E+03  0.27299302342E+03  0.12500000000E+03 0.  0.
         25    1    1    2    0    0 -0.41103513613E+02  0.16082997691E+03  0.56850719431E+02  0.21543626576E+03  0.12500000000E+03 0.  0.
         25    1    1    2    0    0  0.74038621605E+02 -0.76949418043E+02  0.17052876329E+03  0.23687125097E+03  0.12500000000E+03 0.  0.
</event>
<event>
 5    0  0.5771525E-005  0.2501806E+03  0.7546771E-02  0.1113191E+00
         21   -1    0    0  502  501  0.00000000000E+00  0.00000000000E+00  0.71613279005E+02  0.71613279005E+02  0.00000000000E+00 0. -1.
         21   -1    0    0  501  502 -0.00000000000E+00 -0.00000000000E+00 -0.87400426699E+03  0.87400426699E+03  0.00000000000E+00 0. -1.
         25    1    1    2    0    0 -0.60517737010E+02  0.12306922473E+02 -0.11646274555E+03  0.18166570379E+03  0.12500000000E+03 0.  0.
         25    1    1    2    0    0  0.12058290323E+03 -0.66461578872E+02 -0.41637633939E+03  0.45601714224E+03  0.12500000000E+03 0.  0.
         25    1    1    2    0    0 -0.60065166216E+02  0.54154656399E+02 -0.26955190305E+03  0.30793469996E+03  0.12500000000E+03 0.  0.
</event>
<event>
 5    0  0.5771525E-005  0.3357599E+03  0.7546771E-02  0.1068616E+00
         21   -1    0    0  502  501  0.00000000000E+00  0.00000000000E+00  0.50283415177E+03  0.50283415177E+03  0.00000000000E+00 0.  1.
         21   -1    0    0  501  502 -0.00000000000E+00 -0.00000000000E+00 -0.22419859671E+03  0.22419859671E+03  0.00000000000E+00 0.  1.
         25    1    1    2    0    0  0.13513639212E+03  0.68017139653E+01  0.25783623090E+03  0.31687951930E+03  0.12500000000E+03 0.  0.
         25    1    1    2    0    0  0.13608997849E+01  0.12869439198E+03 -0.38264054636E+01  0.17945400512E+03  0.12500000000E+03 0.  0.
         25    1    1    2    0    0 -0.13649729190E+03 -0.13549610595E+03  0.24625729627E+02  0.23069922406E+03  0.12500000000E+03 0.  0.
</event>
<event>
 5    0  0.5771525E-005  0.3298359E+03  0.7546771E-02  0.1071210E+00
         21   -1    0    0  502  501  0.00000000000E+00  0.00000000000E+00  0.22765417349E+03  0.22765417349E+03  0.00000000000E+00 0. -1.
         21   -1    0    0  501  502 -0.00000000000E+00 -0.00000000000E+00 -0.47788142884E+03  0.47788142884E+03  0.00000000000E+00 0. -1.
         25    1    1    2    0    0 -0.89855997766E+02  0.96997620392E+02 -0.10567844384E+03  0.21041761378E+03  0.12500000000E+03 0.  0.
         25    1    1    2    0    0  0.64484595494E+02  0.60729084713E+02  0.95739683045E+02  0.18065816255E+03  0.12500000000E+03 0.  0.
         25    1    1    2    0    0  0.25371402272E+02 -0.15772670511E+03 -0.24028849456E+03  0.31445982601E+03  0.12500000000E+03 0.  0.
</event>
<event>
 5    0  0.6649385E-005  0.2810392E+03  0.7546771E-02  0.1095123E+00
         21   -1    0    0  502  501  0.00000000000E+00  0.00000000000E+00  0.22299016995E+03  0.22299016995E+03  0.00000000000E+00 0.  1.
         21   -1    0    0  501  502 -0.00000000000E+00 -0.00000000000E+00 -0.35419965520E+03  0.35419965520E+03  0.00000000000E+00 0.  1.
         25    1    1    2    0    0 -0.53914871014E+01  0.16390076904E+02  0.59305937850E+02  0.13942703116E+03  0.12500000000E+03 0.  0.
         25    1    1    2    0    0 -0.14571895205E+03 -0.38846666462E+02 -0.10936297368E+03  0.22433977911E+03  0.12500000000E+03 0.  0.
         25    1    1    2    0    0  0.15111043915E+03  0.22456589557E+02 -0.81152449412E+02  0.21342301488E+03  0.12500000000E+03 0.  0.
</event>
<event>
 5    0  0.5771525E-005  0.2839591E+03  0.7546771E-02  0.1093546E+00
         21   -1    0    0  502  501  0.00000000000E+00  0.00000000000E+00  0.72405860832E+03  0.72405860832E+03  0.00000000000E+00 0.  1.
         21   -1    0    0  501  502 -0.00000000000E+00 -0.00000000000E+00 -0.11136218738E+03  0.11136218738E+03  0.00000000000E+00 0.  1.
         25    1    1    2    0    0  0.28617152540E+01 -0.49290247109E+02  0.52649117435E+02  0.14434211943E+03  0.12500000000E+03 0.  0.
         25    1    1    2    0    0 -0.59836128054E+02  0.69929000536E+02  0.52548140944E+03  0.54792895434E+03  0.12500000000E+03 0.  0.
         25    1    1    2    0    0  0.56974412800E+02 -0.20638753427E+02  0.34565894065E+02  0.14314972193E+03  0.12500000000E+03 0.  0.
</event>
<event>
 5    0  0.5771525E-005  0.3767929E+03  0.7546771E-02  0.1052126E+00
         21   -1    0    0  502  501  0.00000000000E+00  0.00000000000E+00  0.89108548279E+02  0.89108548279E+02  0.00000000000E+00 0.  1.
         21   -1    0    0  501  502 -0.00000000000E+00 -0.00000000000E+00 -0.15932577832E+04  0.15932577832E+04  0.00000000000E+00 0.  1.
         25    1    1    2    0    0 -0.35667395700E+02  0.97096692819E+02 -0.32356500184E+03  0.36196580127E+03  0.12500000000E+03 0.  0.
         25    1    1    2    0    0  0.14103997627E+03 -0.21638253925E+02 -0.11114504275E+04  0.11275227456E+04  0.12500000000E+03 0.  0.
         25    1    1    2    0    0 -0.10537258057E+03 -0.75458438894E+02 -0.69133805560E+02  0.19287778464E+03  0.12500000000E+03 0.  0.
</event>
<event>
 5    0  0.5771525E-005  0.2428850E+03  0.7546771E-02  0.1117886E+00
         21   -1    0    0  502  501  0.00000000000E+00  0.00000000000E+00  0.23633434190E+03  0.23633434190E+03  0.00000000000E+00 0.  1.
         21   -1    0    0  501  502 -0.00000000000E+00 -0.00000000000E+00 -0.24961722826E+03  0.24961722826E+03  0.00000000000E+00 0.  1.
         25    1    1    2    0    0 -0.13004789286E+03 -0.25566849733E+02 -0.63137912877E+01  0.18229367022E+03  0.12500000000E+03 0.  0.
         25    1    1    2    0    0  0.11437701150E+03  0.39271335100E+02 -0.24818724885E+02  0.17568525159E+03  0.12500000000E+03 0.  0.
         25    1    1    2    0    0  0.15670881358E+02 -0.13704485367E+02  0.17849629808E+02  0.12797264835E+03  0.12500000000E+03 0.  0.
</event>
<event>
 5    0  0.6372242E-005  0.2664940E+03  0.7546771E-02  0.1103303E+00
         21   -1    0    0  502  501  0.00000000000E+00  0.00000000000E+00  0.18210416293E+03  0.18210416293E+03  0.00000000000E+00 0.  1.
         21   -1    0    0  501  502 -0.00000000000E+00 -0.00000000000E+00 -0.38999137331E+03  0.38999137331E+03  0.00000000000E+00 0.  1.
         25    1    1    2    0    0  0.95997304698E+02 -0.11096984629E+03 -0.14908992148E+03  0.24368544064E+03  0.12500000000E+03 0.  0.
         25    1    1    2    0    0 -0.10785986601E+02  0.10942154649E+03 -0.60450519346E+02  0.17711204824E+03  0.12500000000E+03 0.  0.
         25    1    1    2    0    0 -0.85211318097E+02  0.15482998011E+01  0.16532304455E+01  0.15129804736E+03  0.12500000000E+03 0.  0.
</event>
<event>
 5    0  0.5771525E-005  0.3045904E+03  0.7546771E-02  0.1082968E+00
         21   -1    0    0  502  501  0.00000000000E+00  0.00000000000E+00  0.20203148455E+03  0.20203148455E+03  0.00000000000E+00 0.  1.
         21   -1    0    0  501  502 -0.00000000000E+00 -0.00000000000E+00 -0.45921228089E+03  0.45921228089E+03  0.00000000000E+00 0.  1.
         25    1    1    2    0    0 -0.99336670744E+02 -0.10898890173E+02 -0.33898385882E+03  0.37486212999E+03  0.12500000000E+03 0.  0.
         25    1    1    2    0    0  0.56765044144E+02  0.23762894118E+01  0.68340751851E+02  0.15337332021E+03  0.12500000000E+03 0.  0.
         25    1    1    2    0    0  0.42571626600E+02  0.85226007615E+01  0.13462310631E+02  0.13300831524E+03  0.12500000000E+03 0.  0.
</event>
<event>
 5    0  0.5771525E-005  0.3218929E+03  0.7546771E-02  0.1074781E+00
         21   -1    0    0  502  501  0.00000000000E+00  0.00000000000E+00  0.12938160790E+03  0.12938160790E+03  0.00000000000E+00 0. -1.
         21   -1    0    0  501  502 -0.00000000000E+00 -0.00000000000E+00 -0.80084845542E+03  0.80084845542E+03  0.00000000000E+00 0. -1.
         25    1    1    2    0    0  0.60098475959E+02  0.11785019043E+03 -0.97925547423E+02  0.20667585015E+03  0.12500000000E+03 0.  0.
         25    1    1    2    0    0 -0.14456322000E+03 -0.90690384130E+02 -0.11650886719E+03  0.24150069665E+03  0.12500000000E+03 0.  0.
         25    1    1    2    0    0  0.84464744039E+02 -0.27159806301E+02 -0.45703243290E+03  0.48205351652E+03  0.12500000000E+03 0.  0.
</event>
<event>
 5    0  0.5771525E-005  0.2813302E+03  0.7546771E-02  0.1094965E+00
         21   -1    0    0  502  501  0.00000000000E+00  0.00000000000E+00  0.31165141831E+03  0.31165141831E+03  0.00000000000E+00 0. -1.
         21   -1    0    0  501  502 -0.00000000000E+00 -0.00000000000E+00 -0.25395902673E+03  0.25395902673E+03  0.00000000000E+00 0. -1.
         25    1    1    2    0    0 -0.61095918562E+02 -0.72898240675E+02  0.29851417826E+02  0.15988424533E+03  0.12500000000E+03 0.  0.
         25    1    1    2    0    0  0.51105984604E+02  0.99103726615E+02  0.15282764227E+03  0.22674800668E+03  0.12500000000E+03 0.  0.
         25    1    1    2    0    0  0.99899339578E+01 -0.26205485940E+02 -0.12498666852E+03  0.17897819303E+03  0.12500000000E+03 0.  0.
</event>
<event>
 5    0  0.6623286E-005  0.3736665E+03  0.7546771E-02  0.1053300E+00
         21   -1    0    0  502  501  0.00000000000E+00  0.00000000000E+00  0.50805282856E+03  0.50805282856E+03  0.00000000000E+00 0. -1.
         21   -1    0    0  501  502 -0.00000000000E+00 -0.00000000000E+00 -0.27482706494E+03  0.27482706494E+03  0.00000000000E+00 0. -1.
         25    1    1    2    0    0  0.14819545363E+03  0.43954654761E+02 -0.18629086256E+02  0.19966458626E+03  0.12500000000E+03 0.  0.
         25    1    1    2    0    0  0.86970171949E+02 -0.10058575333E+03  0.25174609841E+03  0.31093794019E+03  0.12500000000E+03 0.  0.
         25    1    1    2    0    0 -0.23516562558E+03  0.56631098570E+02  0.10875145730E+00  0.27227736705E+03  0.12500000000E+03 0.  0.
</event>
<event>
 5    0  0.5837932E-005  0.3307502E+03  0.7546771E-02  0.1070805E+00
         21   -1    0    0  502  501  0.00000000000E+00  0.00000000000E+00  0.17425421444E+03  0.17425421444E+03  0.00000000000E+00 0.  1.
         21   -1    0    0  501  502 -0.00000000000E+00 -0.00000000000E+00 -0.62779381914E+03  0.62779381914E+03  0.00000000000E+00 0.  1.
         25    1    1    2    0    0 -0.39848837240E+02 -0.69338407390E+02  0.52780929048E+02  0.15750101917E+03  0.12500000000E+03 0.  0.
         25    1    1    2    0    0 -0.90900649645E+02 -0.23101585659E+02 -0.87599400004E+02  0.17915151757E+03  0.12500000000E+03 0.  0.
         25    1    1    2    0    0  0.13074948689E+03  0.92439993049E+02 -0.41872113374E+03  0.46539549684E+03  0.12500000000E+03 0.  0.
</event>
<event>
 5    0  0.5771525E-005  0.2858264E+03  0.7546771E-02  0.1092549E+00
         21   -1    0    0  502  501  0.00000000000E+00  0.00000000000E+00  0.34281845390E+03  0.34281845390E+03  0.00000000000E+00 0.  1.
         21   -1    0    0  501  502 -0.00000000000E+00 -0.00000000000E+00 -0.23830898069E+03  0.23830898069E+03  0.00000000000E+00 0.  1.
         25    1    1    2    0    0  0.12731763268E+02  0.11740559433E+03  0.13762185380E+03  0.22025200571E+03  0.12500000000E+03 0.  0.
         25    1    1    2    0    0  0.78259156784E+02 -0.58002818559E+02 -0.94180367063E+02  0.18434685818E+03  0.12500000000E+03 0.  0.
         25    1    1    2    0    0 -0.90990920052E+02 -0.59402775766E+02  0.61067986478E+02  0.17652857070E+03  0.12500000000E+03 0.  0.
</event>
<event>
 5    0  0.5917429E-005  0.4752150E+03  0.7546771E-02  0.1020459E+00
         21   -1    0    0  502  501  0.00000000000E+00  0.00000000000E+00  0.38259834609E+03  0.38259834609E+03  0.00000000000E+00 0.  1.
         21   -1    0    0  501  502 -0.00000000000E+00 -0.00000000000E+00 -0.59025171191E+03  0.59025171191E+03  0.00000000000E+00 0.  1.
         25    1    1    2    0    0  0.89237814981E+02  0.18420495439E+03  0.21846545091E+03  0.32441794969E+03  0.12500000000E+03 0.  0.
         25    1    1    2    0    0  0.14046784256E+03 -0.10073101799E+03 -0.16656628983E+03  0.27064235013E+03  0.12500000000E+03 0.  0.
         25    1    1    2    0    0 -0.22970565754E+03 -0.83473936397E+02 -0.25955252690E+03  0.37778975818E+03  0.12500000000E+03 0.  0.
</event>
<event>
 5    0  0.5771525E-005  0.2139160E+03  0.7546771E-02  0.1138502E+00
         21   -1    0    0  502  501  0.00000000000E+00  0.00000000000E+00  0.24555908965E+02  0.24555908965E+02  0.00000000000E+00 0. -1.
         21   -1    0    0  501  502 -0.00000000000E+00 -0.00000000000E+00 -0.18635049155E+04  0.18635049155E+04  0.00000000000E+00 0. -1.
         25    1    1    2    0    0 -0.48066358072E+02  0.19694758991E+00 -0.49135403865E+03  0.50927812133E+03  0.12500000000E+03 0.  0.
         25    1    1    2    0    0  0.92423461902E+02  0.11711347799E+02 -0.63552539529E+03  0.65436746560E+03  0.12500000000E+03 0.  0.
         25    1    1    2    0    0 -0.44357103830E+02 -0.11908295389E+02 -0.71206957262E+03  0.72441523756E+03  0.12500000000E+03 0.  0.
</event>
<event>
 5    0  0.5771525E-005  0.2521494E+03  0.7546771E-02  0.1111954E+00
         21   -1    0    0  502  501  0.00000000000E+00  0.00000000000E+00  0.17518383749E+03  0.17518383749E+03  0.00000000000E+00 0. -1.
         21   -1    0    0  501  502 -0.00000000000E+00 -0.00000000000E+00 -0.36292901091E+03  0.36292901091E+03  0.00000000000E+00 0. -1.
         25    1    1    2    0    0  0.41485284394E+01  0.39159506099E+01 -0.29702408988E+02  0.12860706846E+03  0.12500000000E+03 0.  0.
         25    1    1    2    0    0 -0.93533888605E+02 -0.10955681450E+03 -0.91191484364E+02  0.21140522875E+03  0.12500000000E+03 0.  0.
         25    1    1    2    0    0  0.89385360166E+02  0.10564086389E+03 -0.66851280072E+02  0.19810055119E+03  0.12500000000E+03 0.  0.
</event>
<event>
 5    0  0.5771525E-005  0.4347483E+03  0.7546771E-02  0.1032370E+00
         21   -1    0    0  502  501  0.00000000000E+00  0.00000000000E+00  0.79331699664E+03  0.79331699664E+03  0.00000000000E+00 0. -1.
         21   -1    0    0  501  502 -0.00000000000E+00 -0.00000000000E+00 -0.23824785793E+03  0.23824785793E+03  0.00000000000E+00 0. -1.
         25    1    1    2    0    0 -0.94571304043E+02  0.15589766613E+03 -0.35346113683E+02  0.22387979276E+03  0.12500000000E+03 0.  0.
         25    1    1    2    0    0 -0.94458907557E+02  0.95729329686E+02  0.34038432205E+03  0.38674678600E+03  0.12500000000E+03 0.  0.
         25    1    1    2    0    0  0.18903021160E+03 -0.25162699581E+03  0.25003093034E+03  0.42093827582E+03  0.12500000000E+03 0.  0.
</event>
<event>
 5    0  0.5771525E-005  0.3262171E+03  0.7546771E-02  0.1072823E+00
         21   -1    0    0  502  501  0.00000000000E+00  0.00000000000E+00  0.41143691311E+02  0.41143691311E+02  0.00000000000E+00 0.  1.
         21   -1    0    0  501  502 -0.00000000000E+00 -0.00000000000E+00 -0.25864861938E+04  0.25864861938E+04  0.00000000000E+00 0.  1.
         25    1    1    2    0    0  0.16546217903E+03  0.60145997332E+02 -0.14167088326E+04  0.14330681038E+04  0.12500000000E+03 0.  0.
         25    1    1    2    0    0 -0.17003061769E+02  0.51607168557E+02 -0.22052639751E+03  0.25924755728E+03  0.12500000000E+03 0.  0.
         25    1    1    2    0    0 -0.14845911726E+03 -0.11175316589E+03 -0.90810727243E+03  0.93531422412E+03  0.12500000000E+03 0.  0.
</event>
<event>
 5    0  0.6953608E-005  0.3746689E+03  0.7546771E-02  0.1052922E+00
         21   -1    0    0  502  501  0.00000000000E+00  0.00000000000E+00  0.51704524765E+03  0.51704524765E+03  0.00000000000E+00 0. -1.
         21   -1    0    0  501  502 -0.00000000000E+00 -0.00000000000E+00 -0.27149799908E+03  0.27149799908E+03  0.00000000000E+00 0. -1.
         25    1    1    2    0    0  0.12300234782E+03 -0.14574370540E+03  0.75477145475E+02  0.24019284902E+03  0.12500000000E+03 0.  0.
         25    1    1    2    0    0  0.22587211076E+02  0.16752588043E+03 -0.86401297602E+02  0.22729999328E+03  0.12500000000E+03 0.  0.
         25    1    1    2    0    0 -0.14558955889E+03 -0.21782175029E+02  0.25647140071E+03  0.32105040443E+03  0.12500000000E+03 0.  0.
</event>
<event>
 5    0  0.5771525E-005  0.6805789E+03  0.7546771E-02  0.9751034E-01
         21   -1    0    0  502  501  0.00000000000E+00  0.00000000000E+00  0.15690780928E+04  0.15690780928E+04  0.00000000000E+00 0. -1.
         21   -1    0    0  501  502 -0.00000000000E+00 -0.00000000000E+00 -0.29519730802E+03  0.29519730802E+03  0.00000000000E+00 0. -1.
         25    1    1    2    0    0  0.19127241190E+03 -0.38496788944E+03  0.73603285718E+03  0.86148405574E+03  0.12500000000E+03 0.  0.
         25    1    1    2    0    0  0.21792166029E+03  0.29182783132E+03  0.13574758209E+03  0.40829614154E+03  0.12500000000E+03 0.  0.
         25    1    1    2    0    0 -0.40919407219E+03  0.93140058119E+02  0.40210034547E+03  0.59449520349E+03  0.12500000000E+03 0.  0.
</event>
<event>
 5    0  0.5771525E-005  0.2500935E+03  0.7546771E-02  0.1113246E+00
         21   -1    0    0  502  501  0.00000000000E+00  0.00000000000E+00  0.60611789391E+03  0.60611789391E+03  0.00000000000E+00 0. -1.
         21   -1    0    0  501  502 -0.00000000000E+00 -0.00000000000E+00 -0.10319239543E+03  0.10319239543E+03  0.00000000000E+00 0. -1.
         25    1    1    2    0    0 -0.64078318259E+02  0.18812122666E+02  0.11752056789E+03  0.18410869265E+03  0.12500000000E+03 0.  0.
         25    1    1    2    0    0  0.41373952841E+02  0.60055570582E+00  0.14267143869E+02  0.13244136829E+03  0.12500000000E+03 0.  0.
         25    1    1    2    0    0  0.22704365418E+02 -0.19412678372E+02  0.37113778671E+03  0.39276022840E+03  0.12500000000E+03 0.  0.
</event>
<event>
 5    0  0.5771525E-005  0.3045219E+03  0.7546771E-02  0.1083002E+00
         21   -1    0    0  502  501  0.00000000000E+00  0.00000000000E+00  0.37814203425E+03  0.37814203425E+03  0.00000000000E+00 0. -1.
         21   -1    0    0  501  502 -0.00000000000E+00 -0.00000000000E+00 -0.24523474532E+03  0.24523474532E+03  0.00000000000E+00 0. -1.
         25    1    1    2    0    0 -0.18028142310E+03 -0.26173441918E+02  0.10269424607E+03  0.24363404678E+03  0.12500000000E+03 0.  0.
         25    1    1    2    0    0  0.15062726299E+02  0.59350514786E+02  0.84738781119E+02  0.16295714269E+03  0.12500000000E+03 0.  0.
         25    1    1    2    0    0  0.16521869680E+03 -0.33177072868E+02 -0.54525738263E+02  0.21678559008E+03  0.12500000000E+03 0.  0.
</event>
<event>
 5    0  0.5771525E-005  0.2576561E+03  0.7546771E-02  0.1108560E+00
         21   -1    0    0  502  501  0.00000000000E+00  0.00000000000E+00  0.96484909140E+02  0.96484909140E+02  0.00000000000E+00 0.  1.
         21   -1    0    0  501  502 -0.00000000000E+00 -0.00000000000E+00 -0.68805235777E+03  0.68805235777E+03  0.00000000000E+00 0.  1.
         25    1    1    2    0    0  0.10185998906E+03 -0.33029909315E+02 -0.22888495537E+03  0.28192154064E+03  0.12500000000E+03 0.  0.
         25    1    1    2    0    0 -0.14021507517E+03  0.30714581321E+02 -0.30537649837E+03  0.35983810049E+03  0.12500000000E+03 0.  0.
         25    1    1    2    0    0  0.38355086104E+02  0.23153279950E+01 -0.57305994896E+02  0.14277762578E+03  0.12500000000E+03 0.  0.
</event>
<event>
 5    0  0.5771525E-005  0.3012441E+03  0.7546771E-02  0.1084620E+00
         21   -1    0    0  502  501  0.00000000000E+00  0.00000000000E+00  0.14879616573E+04  0.14879616573E+04  0.00000000000E+00 0. -1.
         21   -1    0    0  501  502 -0.00000000000E+00 -0.00000000000E+00 -0.60988123760E+02  0.60988123760E+02  0.00000000000E+00 0. -1.
         25    1    1    2    0    0  0.93608694490E+01  0.47369053847E+01  0.10082101945E+03  0.16093458955E+03  0.12500000000E+03 0.  0.
         25    1    1    2    0    0  0.10260176834E+03  0.11558669826E+03  0.75322721328E+03  0.77901453292E+03  0.12500000000E+03 0.  0.
         25    1    1    2    0    0 -0.11196263779E+03 -0.12032360364E+03  0.57292530081E+03  0.60900065859E+03  0.12500000000E+03 0.  0.
</event>
<event>
 5    0  0.5938801E-005  0.4584712E+03  0.7546771E-02  0.1025226E+00
         21   -1    0    0  502  501  0.00000000000E+00  0.00000000000E+00  0.14305140563E+03  0.14305140563E+03  0.00000000000E+00 0. -1.
         21   -1    0    0  501  502 -0.00000000000E+00 -0.00000000000E+00 -0.14693728152E+04  0.14693728152E+04  0.00000000000E+00 0. -1.
         25    1    1    2    0    0 -0.13954095612E+03  0.19625559292E+03 -0.66047617798E+03  0.71403201459E+03  0.12500000000E+03 0.  0.
         25    1    1    2    0    0  0.10672716800E+03 -0.20501021142E+03 -0.71352029668E+03  0.76036575998E+03  0.12500000000E+03 0.  0.
         25    1    1    2    0    0  0.32813788125E+02  0.87546185006E+01  0.47675065079E+02  0.13802644626E+03  0.12500000000E+03 0.  0.
</event>
<event>
 5    0  0.5771525E-005  0.3045437E+03  0.7546771E-02  0.1082991E+00
         21   -1    0    0  502  501  0.00000000000E+00  0.00000000000E+00  0.67147275923E+02  0.67147275923E+02  0.00000000000E+00 0.  1.
         21   -1    0    0  501  502 -0.00000000000E+00 -0.00000000000E+00 -0.13812450263E+04  0.13812450263E+04  0.00000000000E+00 0.  1.
         25    1    1    2    0    0  0.32658675300E+02  0.27425300844E+02 -0.71245748044E+03  0.72459602375E+03  0.12500000000E+03 0.  0.
         25    1    1    2    0    0 -0.45800889331E+02  0.86452237183E+02 -0.50331214230E+03  0.52774977344E+03  0.12500000000E+03 0.  0.
         25    1    1    2    0    0  0.13142214031E+02 -0.11387753803E+03 -0.98328127660E+02  0.19604650506E+03  0.12500000000E+03 0.  0.
</event>
<event>
 5    0  0.5771525E-005  0.2523460E+03  0.7546771E-02  0.1111831E+00
         21   -1    0    0  502  501  0.00000000000E+00  0.00000000000E+00  0.59176734549E+03  0.59176734549E+03  0.00000000000E+00 0.  1.
         21   -1    0    0  501  502 -0.00000000000E+00 -0.00000000000E+00 -0.10760730615E+03  0.10760730615E+03  0.00000000000E+00 0.  1.
         25    1    1    2    0    0 -0.10070529804E+03 -0.62832873956E+02  0.24931580167E+03  0.30310542071E+03  0.12500000000E+03 0.  0.
         25    1    1    2    0    0  0.32855598275E+01  0.90099583368E+02  0.14722336477E+03  0.21313950586E+03  0.12500000000E+03 0.  0.
         25    1    1    2    0    0  0.97419738214E+02 -0.27266709411E+02  0.87620872907E+02  0.18312972507E+03  0.12500000000E+03 0.  0.
</event>
<event>
 5    0  0.6599883E-005  0.5068968E+03  0.7546771E-02  0.1011994E+00
         21   -1    0    0  502  501  0.00000000000E+00  0.00000000000E+00  0.25656872851E+03  0.25656872851E+03  0.00000000000E+00 0. -1.
         21   -1    0    0  501  502 -0.00000000000E+00 -0.00000000000E+00 -0.10014639569E+04  0.10014639569E+04  0.00000000000E+00 0. -1.
         25    1    1    2    0    0  0.98773385381E+02  0.36341012025E+03 -0.17836043171E+03  0.43504084953E+03  0.12500000000E+03 0.  0.
         25    1    1    2    0    0  0.14690949539E+03 -0.15500806189E+03 -0.19051915648E+03  0.31230185410E+03  0.12500000000E+03 0.  0.
         25    1    1    2    0    0 -0.24568288077E+03 -0.20840205836E+03 -0.37601564025E+03  0.51068998183E+03  0.12500000000E+03 0.  0.
</event>
<event>
 5    0  0.5771525E-005  0.3157485E+03  0.7546771E-02  0.1077623E+00
         21   -1    0    0  502  501  0.00000000000E+00  0.00000000000E+00  0.33320645116E+03  0.33320645116E+03  0.00000000000E+00 0.  1.
         21   -1    0    0  501  502 -0.00000000000E+00 -0.00000000000E+00 -0.29920521665E+03  0.29920521665E+03  0.00000000000E+00 0.  1.
         25    1    1    2    0    0 -0.12856828385E+03  0.63481666805E+02  0.12725661087E+03  0.22886452465E+03  0.12500000000E+03 0.  0.
         25    1    1    2    0    0  0.53721050927E+02 -0.59883935069E+02  0.86615377797E+02  0.17204435667E+03  0.12500000000E+03 0.  0.
         25    1    1    2    0    0  0.74847232926E+02 -0.35977317359E+01 -0.17987075416E+03  0.23150278649E+03  0.12500000000E+03 0.  0.
</event>
<event>
 5    0  0.5771525E-005  0.2494235E+03  0.7546771E-02  0.1113670E+00
         21   -1    0    0  502  501  0.00000000000E+00  0.00000000000E+00  0.54643541219E+03  0.54643541219E+03  0.00000000000E+00 0. -1.
         21   -1    0    0  501  502 -0.00000000000E+00 -0.00000000000E+00 -0.11385077789E+03  0.11385077789E+03  0.00000000000E+00 0. -1.
         25    1    1    2    0    0  0.16548403367E+02 -0.35670906037E+02  0.26504337792E+02  0.13369271900E+03  0.12500000000E+03 0.  0.
         25    1    1    2    0    0  0.82200932939E+01  0.12042793819E+03  0.27389984020E+03  0.32437105403E+03  0.12500000000E+03 0.  0.
         25    1    1    2    0    0 -0.24768496661E+02 -0.84757032153E+02  0.13218045632E+03  0.20222241705E+03  0.12500000000E+03 0.  0.
</event>
<event>
 5    0  0.5771525E-005  0.2660222E+03  0.7546771E-02  0.1103578E+00
         21   -1    0    0  502  501  0.00000000000E+00  0.00000000000E+00  0.36616398761E+03  0.36616398761E+03  0.00000000000E+00 0. -1.
         21   -1    0    0  501  502 -0.00000000000E+00 -0.00000000000E+00 -0.19326807840E+03  0.19326807840E+03  0.00000000000E+00 0. -1.
         25    1    1    2    0    0  0.12040342986E+02  0.10460528820E+03 -0.34944590837E+02  0.16713276342E+03  0.12500000000E+03 0.  0.
         25    1    1    2    0    0 -0.92020943247E+02 -0.11279898007E+02  0.11806617321E+03  0.19534510834E+03  0.12500000000E+03 0.  0.
         25    1    1    2    0    0  0.79980600261E+02 -0.93325390197E+02  0.89774326841E+02  0.19695419425E+03  0.12500000000E+03 0.  0.
</event>
<event>
 5    0  0.5771525E-005  0.2364647E+03  0.7546771E-02  0.1122171E+00
         21   -1    0    0  502  501  0.00000000000E+00  0.00000000000E+00  0.49980887443E+02  0.49980887443E+02  0.00000000000E+00 0.  1.
         21   -1    0    0  501  502 -0.00000000000E+00 -0.00000000000E+00 -0.11187388837E+04  0.11187388837E+04  0.00000000000E+00 0.  1.
         25    1    1    2    0    0  0.60697349165E+02 -0.10864851735E+02 -0.56889856884E+03  0.58572416275E+03  0.12500000000E+03 0.  0.
         25    1    1    2    0    0 -0.85329729943E+01 -0.68460268098E+02 -0.22512096334E+03  0.26657844638E+03  0.12500000000E+03 0.  0.
         25    1    1    2    0    0 -0.52164376171E+02  0.79325119833E+02 -0.27473846407E+03  0.31641716202E+03  0.12500000000E+03 0.  0.
</event>
<event>
 5    0  0.5771525E-005  0.2857771E+03  0.7546771E-02  0.1092575E+00
         21   -1    0    0  502  501  0.00000000000E+00  0.00000000000E+00  0.27202297090E+03  0.27202297090E+03  0.00000000000E+00 0. -1.
         21   -1    0    0  501  502 -0.00000000000E+00 -0.00000000000E+00 -0.30022665202E+03  0.30022665202E+03  0.00000000000E+00 0. -1.
         25    1    1    2    0    0  0.55620576665E+02  0.12428572866E+03 -0.25465448081E+02  0.18658531545E+03  0.12500000000E+03 0.  0.
         25    1    1    2    0    0 -0.15614839472E+03 -0.76931857065E+02 -0.29366392086E+02  0.21630584086E+03  0.12500000000E+03 0.  0.
         25    1    1    2    0    0  0.10052781806E+03 -0.47353871591E+02  0.26628159053E+02  0.16935846661E+03  0.12500000000E+03 0.  0.
</event>
<event>
 5    0  0.5771525E-005  0.2247434E+03  0.7546771E-02  0.1130395E+00
         21   -1    0    0  502  501  0.00000000000E+00  0.00000000000E+00  0.86024275101E+02  0.86024275101E+02  0.00000000000E+00 0.  1.
         21   -1    0    0  501  502 -0.00000000000E+00 -0.00000000000E+00 -0.58715514123E+03  0.58715514123E+03  0.00000000000E+00 0.  1.
         25    1    1    2    0    0  0.44096645421E+02  0.28859456424E+02 -0.10688810301E+03  0.17270625040E+03  0.12500000000E+03 0.  0.
         25    1    1    2    0    0 -0.10190173559E+03 -0.13450509318E+01 -0.15886798682E+03  0.22638420906E+03  0.12500000000E+03 0.  0.
         25    1    1    2    0    0  0.57805090166E+02 -0.27514405492E+02 -0.23537477630E+03  0.27408895687E+03  0.12500000000E+03 0.  0.
</event>
<event>
 5    0  0.5771525E-005  0.3555943E+03  0.7546771E-02  0.1060342E+00
         21   -1    0    0  502  501  0.00000000000E+00  0.00000000000E+00  0.27549777437E+03  0.27549777437E+03  0.00000000000E+00 0. -1.
         21   -1    0    0  501  502 -0.00000000000E+00 -0.00000000000E+00 -0.45897766022E+03  0.45897766022E+03  0.00000000000E+00 0. -1.
         25    1    1    2    0    0 -0.38704745259E+02 -0.17095151257E+03  0.64967297408E+02  0.22487380169E+03  0.12500000000E+03 0.  0.
         25    1    1    2    0    0  0.16492452815E+03  0.14705502515E+03 -0.20202924628E+03  0.32444737133E+03  0.12500000000E+03 0.  0.
         25    1    1    2    0    0 -0.12621978289E+03  0.23896487416E+02 -0.46417936977E+02  0.18515426157E+03  0.12500000000E+03 0.  0.
</event>
<event>
 5    0  0.5771525E-005  0.3395149E+03  0.7546771E-02  0.1067003E+00
         21   -1    0    0  502  501  0.00000000000E+00  0.00000000000E+00  0.45207632026E+03  0.45207632026E+03  0.00000000000E+00 0. -1.
         21   -1    0    0  501  502 -0.00000000000E+00 -0.00000000000E+00 -0.25497981046E+03  0.25497981046E+03  0.00000000000E+00 0. -1.
         25    1    1    2    0    0 -0.10644939233E+03  0.13421218201E+03  0.14353141407E+03  0.25606766635E+03  0.12500000000E+03 0.  0.
         25    1    1    2    0    0 -0.85989091567E+02 -0.93036391969E+02  0.11245863163E+03  0.21052752297E+03  0.12500000000E+03 0.  0.
         25    1    1    2    0    0  0.19243848389E+03 -0.41175790041E+02 -0.58893535903E+02  0.24046094140E+03  0.12500000000E+03 0.  0.
</event>
<event>
 5    0  0.5771525E-005  0.4783100E+03  0.7546771E-02  0.1019601E+00
         21   -1    0    0  502  501  0.00000000000E+00  0.00000000000E+00  0.87375519385E+03  0.87375519385E+03  0.00000000000E+00 0.  1.
         21   -1    0    0  501  502 -0.00000000000E+00 -0.00000000000E+00 -0.26183592821E+03  0.26183592821E+03  0.00000000000E+00 0.  1.
         25    1    1    2    0    0  0.10017416267E+02 -0.92020690817E+02  0.34533963393E+02  0.15932906450E+03  0.12500000000E+03 0.  0.
         25    1    1    2    0    0  0.63383054464E+01  0.31019602804E+03 -0.12587929083E+02  0.33473154301E+03  0.12500000000E+03 0.  0.
         25    1    1    2    0    0 -0.16355721713E+02 -0.21817533722E+03  0.58997323134E+03  0.64153051455E+03  0.12500000000E+03 0.  0.
</event>
<event>
 5    0  0.5771525E-005  0.3011980E+03  0.7546771E-02  0.1084643E+00
         21   -1    0    0  502  501  0.00000000000E+00  0.00000000000E+00  0.54023743182E+03  0.54023743182E+03  0.00000000000E+00 0.  1.
         21   -1    0    0  501  502 -0.00000000000E+00 -0.00000000000E+00 -0.16792659192E+03  0.16792659192E+03  0.00000000000E+00 0.  1.
         25    1    1    2    0    0  0.78895385725E+02 -0.58225993646E+02  0.29688824647E+03  0.33672300058E+03  0.12500000000E+03 0.  0.
         25    1    1    2    0    0 -0.12605514426E+03  0.70041214267E+02 -0.39418669595E+02  0.19487047648E+03  0.12500000000E+03 0.  0.
         25    1    1    2    0    0  0.47159758538E+02 -0.11815220621E+02  0.11484126302E+03  0.17657054668E+03  0.12500000000E+03 0.  0.
</event>
<event>
 5    0  0.5771525E-005  0.3077609E+03  0.7546771E-02  0.1081424E+00
         21   -1    0    0  502  501  0.00000000000E+00  0.00000000000E+00  0.45711999560E+03  0.45711999560E+03  0.00000000000E+00 0.  1.
         21   -1    0    0  501  502 -0.00000000000E+00 -0.00000000000E+00 -0.20720328042E+03  0.20720328042E+03  0.00000000000E+00 0.  1.
         25    1    1    2    0    0 -0.10330857717E+03 -0.13164697244E+03  0.16290847011E+03  0.26489197252E+03  0.12500000000E+03 0.  0.
         25    1    1    2    0    0  0.13123265670E+03  0.14961389239E+03  0.12289940399E+03  0.26520857920E+03  0.12500000000E+03 0.  0.
         25    1    1    2    0    0 -0.27924079535E+02 -0.17966919952E+02 -0.35891158921E+02  0.13422272430E+03  0.12500000000E+03 0.  0.
</event>
<event>
 5    0  0.5771525E-005  0.3791216E+03  0.7546771E-02  0.1051259E+00
         21   -1    0    0  502  501  0.00000000000E+00  0.00000000000E+00  0.97652356764E+02  0.97652356764E+02  0.00000000000E+00 0. -1.
         21   -1    0    0  501  502 -0.00000000000E+00 -0.00000000000E+00 -0.14718867419E+04  0.14718867419E+04  0.00000000000E+00 0. -1.
         25    1    1    2    0    0  0.24884294575E+03  0.12166402138E+03 -0.41296926345E+03  0.51273146803E+03  0.12500000000E+03 0.  0.
         25    1    1    2    0    0 -0.37826557201E+02 -0.13842386897E+03 -0.48105309974E+03  0.51732881294E+03  0.12500000000E+03 0.  0.
         25    1    1    2    0    0 -0.21101638855E+03  0.16759847588E+02 -0.48021202196E+03  0.53947881771E+03  0.12500000000E+03 0.  0.
</event>
<event>
 5    0  0.5771525E-005  0.2970728E+03  0.7546771E-02  0.1086713E+00
         21   -1    0    0  502  501  0.00000000000E+00  0.00000000000E+00  0.51189248819E+02  0.51189248819E+02  0.00000000000E+00 0. -1.
         21   -1    0    0  501  502 -0.00000000000E+00 -0.00000000000E+00 -0.17240388048E+04  0.17240388048E+04  0.00000000000E+00 0. -1.
         25    1    1    2    0    0 -0.44403030947E+02 -0.10974568650E+03 -0.95039486852E+03  0.96586290485E+03  0.12500000000E+03 0.  0.
         25    1    1    2    0    0 -0.67366512248E+02 -0.13868442427E+02 -0.18996594596E+03  0.23757660089E+03  0.12500000000E+03 0.  0.
         25    1    1    2    0    0  0.11176954320E+03  0.12361412892E+03 -0.53248874153E+03  0.57178854790E+03  0.12500000000E+03 0.  0.
</event>
<event>
 5    0  0.5771525E-005  0.6270777E+03  0.7546771E-02  0.9850768E-01
         21   -1    0    0  502  501  0.00000000000E+00  0.00000000000E+00  0.50178024798E+03  0.50178024798E+03  0.00000000000E+00 0. -1.
         21   -1    0    0  501  502 -0.00000000000E+00 -0.00000000000E+00 -0.78366267613E+03  0.78366267613E+03  0.00000000000E+00 0. -1.
         25    1    1    2    0    0 -0.13011602602E+03 -0.59515955002E+02  0.19647773495E+03  0.27331452478E+03  0.12500000000E+03 0.  0.
         25    1    1    2    0    0 -0.89909631075E+02 -0.24320719042E+02  0.21713306419E+03  0.26729572892E+03  0.12500000000E+03 0.  0.
         25    1    1    2    0    0  0.22002565709E+03  0.83836674044E+02 -0.69549322730E+03  0.74483267041E+03  0.12500000000E+03 0.  0.
</event>
<event>
 5    0  0.5771525E-005  0.2911753E+03  0.7546771E-02  0.1089737E+00
         21   -1    0    0  502  501  0.00000000000E+00  0.00000000000E+00  0.27112888741E+03  0.27112888741E+03  0.00000000000E+00 0. -1.
         21   -1    0    0  501  502 -0.00000000000E+00 -0.00000000000E+00 -0.31270390713E+03  0.31270390713E+03  0.00000000000E+00 0. -1.
         25    1    1    2    0    0 -0.40108831681E+02  0.16545453820E+03  0.40446223234E+02  0.21504608707E+03  0.12500000000E+03 0.  0.
         25    1    1    2    0    0 -0.17899285474E+02  0.16966328713E+02 -0.54276410180E+02  0.13848887837E+03  0.12500000000E+03 0.  0.
         25    1    1    2    0    0  0.58008117156E+02 -0.18242086692E+03 -0.27744832775E+02  0.23029782910E+03  0.12500000000E+03 0.  0.
</event>
<event>
 5    0  0.5771525E-005  0.2933288E+03  0.7546771E-02  0.1088624E+00
         21   -1    0    0  502  501  0.00000000000E+00  0.00000000000E+00  0.18179340568E+04  0.18179340568E+04  0.00000000000E+00 0. -1.
         21   -1    0    0  501  502 -0.00000000000E+00 -0.00000000000E+00 -0.47329434981E+02  0.47329434981E+02  0.00000000000E+00 0. -1.
         25    1    1    2    0    0  0.20104316054E+02  0.10219248847E+03  0.93197304107E+03  0.94606883338E+03  0.12500000000E+03 0.  0.
         25    1    1    2    0    0  0.10432694592E+03 -0.18167839425E+02  0.24918605765E+03  0.29821615208E+03  0.12500000000E+03 0.  0.
         25    1    1    2    0    0 -0.12443126197E+03 -0.84024649049E+02  0.58944552311E+03  0.62097850632E+03  0.12500000000E+03 0.  0.
</event>
<event>
 5    0  0.5771525E-005  0.4036392E+03  0.7546771E-02  0.1042527E+00
         21   -1    0    0  502  501  0.00000000000E+00  0.00000000000E+00  0.21477389815E+03  0.21477389815E+03  0.00000000000E+00 0. -1.
         21   -1    0    0  501  502 -0.00000000000E+00 -0.00000000000E+00 -0.75858650846E+03  0.75858650846E+03  0.00000000000E+00 0. -1.
         25    1    1    2    0    0 -0.27293360882E+03 -0.88323227758E+02 -0.44913060363E+03  0.54739112753E+03  0.12500000000E+03 0.  0.
         25    1    1    2    0    0  0.18013955736E+03  0.46088943078E+02  0.24532167655E+02  0.22539138859E+03  0.12500000000E+03 0.  0.
         25    1    1    2    0    0  0.92794051462E+02  0.42234284680E+02 -0.11921417435E+03  0.20057789049E+03  0.12500000000E+03 0.  0.
</event>
<event>
 5    0  0.5771525E-005  0.2508401E+03  0.7546771E-02  0.1112775E+00
         21   -1    0    0  502  501  0.00000000000E+00  0.00000000000E+00  0.12733905633E+03  0.12733905633E+03  0.00000000000E+00 0. -1.
         21   -1    0    0  501  502 -0.00000000000E+00 -0.00000000000E+00 -0.49411975483E+03  0.49411975483E+03  0.00000000000E+00 0. -1.
         25    1    1    2    0    0  0.11796038474E+02 -0.47934365880E+02 -0.56306315496E+02  0.14571290650E+03  0.12500000000E+03 0.  0.
         25    1    1    2    0    0  0.15034880584E+02  0.75557928347E+02 -0.89867199033E+01  0.14710815513E+03  0.12500000000E+03 0.  0.
         25    1    1    2    0    0 -0.26830919059E+02 -0.27623562467E+02 -0.30148766310E+03  0.32863774954E+03  0.12500000000E+03 0.  0.
</event>
<event>
 5    0  0.6424942E-005  0.3316788E+03  0.7546771E-02  0.1070396E+00
         21   -1    0    0  502  501  0.00000000000E+00  0.00000000000E+00  0.22519851827E+03  0.22519851827E+03  0.00000000000E+00 0. -1.
         21   -1    0    0  501  502 -0.00000000000E+00 -0.00000000000E+00 -0.48850600704E+03  0.48850600704E+03  0.00000000000E+00 0. -1.
         25    1    1    2    0    0 -0.49978727615E+02  0.81894925835E+02 -0.19927910221E+03  0.25405080726E+03  0.12500000000E+03 0.  0.
         25    1    1    2    0    0  0.20789425433E+03 -0.65337473349E+02 -0.56130014670E+02  0.25741908429E+03  0.12500000000E+03 0.  0.
         25    1    1    2    0    0 -0.15791552672E+03 -0.16557452486E+02 -0.78983718884E+01  0.20223463375E+03  0.12500000000E+03 0.  0.
</event>
<event>
 5    0  0.5771525E-005  0.3724544E+03  0.7546771E-02  0.1053758E+00
         21   -1    0    0  502  501  0.00000000000E+00  0.00000000000E+00  0.70690231021E+02  0.70690231021E+02  0.00000000000E+00 0.  1.
         21   -1    0    0  501  502 -0.00000000000E+00 -0.00000000000E+00 -0.19623963773E+04  0.19623963773E+04  0.00000000000E+00 0.  1.
         25    1    1    2    0    0  0.71729647281E+02 -0.70647317077E+01 -0.14765135437E+03  0.20644848069E+03  0.12500000000E+03 0.  0.
         25    1    1    2    0    0 -0.73478721924E+02  0.11143058729E+03 -0.15963230369E+04  0.16067632484E+04  0.12500000000E+03 0.  0.
         25    1    1    2    0    0  0.17490746430E+01 -0.10436585558E+03 -0.14773175506E+03  0.21987487926E+03  0.12500000000E+03 0.  0.
</event>
<event>
 5    0  0.5771525E-005  0.2610272E+03  0.7546771E-02  0.1106528E+00
         21   -1    0    0  502  501  0.00000000000E+00  0.00000000000E+00  0.25959741009E+03  0.25959741009E+03  0.00000000000E+00 0. -1.
         21   -1    0    0  501  502 -0.00000000000E+00 -0.00000000000E+00 -0.26246483812E+03  0.26246483812E+03  0.00000000000E+00 0. -1.
         25    1    1    2    0    0 -0.30488825576E+02  0.26699605574E+02 -0.14221206826E+03  0.19362776088E+03  0.12500000000E+03 0.  0.
         25    1    1    2    0    0  0.82135010632E+02 -0.49347767326E+02  0.52064651757E+02  0.16588276003E+03  0.12500000000E+03 0.  0.
         25    1    1    2    0    0 -0.51646185056E+02  0.22648161752E+02  0.87279988473E+02  0.16255172730E+03  0.12500000000E+03 0.  0.
</event>
<event>
 5    0  0.5771525E-005  0.2607962E+03  0.7546771E-02  0.1106666E+00
         21   -1    0    0  502  501  0.00000000000E+00  0.00000000000E+00  0.10061665051E+04  0.10061665051E+04  0.00000000000E+00 0. -1.
         21   -1    0    0  501  502 -0.00000000000E+00 -0.00000000000E+00 -0.67597809367E+02  0.67597809367E+02  0.00000000000E+00 0. -1.
         25    1    1    2    0    0 -0.22564786318E+02  0.11356661429E+03  0.56022537124E+03  0.58556298726E+03  0.12500000000E+03 0.  0.
         25    1    1    2    0    0 -0.11739773524E+02 -0.11054624766E+03  0.27718402241E+03  0.32375033195E+03  0.12500000000E+03 0.  0.
         25    1    1    2    0    0  0.34304559842E+02 -0.30203666373E+01  0.10115930203E+03  0.16445099522E+03  0.12500000000E+03 0.  0.
</event>
<event>
 5    0  0.5771525E-005  0.2621101E+03  0.7546771E-02  0.1105882E+00
         21   -1    0    0  502  501  0.00000000000E+00  0.00000000000E+00  0.43770369203E+03  0.43770369203E+03  0.00000000000E+00 0. -1.
         21   -1    0    0  501  502 -0.00000000000E+00 -0.00000000000E+00 -0.15695940849E+03  0.15695940849E+03  0.00000000000E+00 0. -1.
         25    1    1    2    0    0  0.12169900474E+03  0.72021532458E+02  0.15763430840E+03  0.24590917852E+03  0.12500000000E+03 0.  0.
         25    1    1    2    0    0  0.14726049080E+02 -0.15307311729E+02  0.16662260952E+02  0.12788198174E+03  0.12500000000E+03 0.  0.
         25    1    1    2    0    0 -0.13642505382E+03 -0.56714220729E+02  0.10644771419E+03  0.22087194027E+03  0.12500000000E+03 0.  0.
</event>
<event>
 5    0  0.5771525E-005  0.2536576E+03  0.7546771E-02  0.1111015E+00
         21   -1    0    0  502  501  0.00000000000E+00  0.00000000000E+00  0.17565488094E+03  0.17565488094E+03  0.00000000000E+00 0.  1.
         21   -1    0    0  501  502 -0.00000000000E+00 -0.00000000000E+00 -0.36629886005E+03  0.36629886005E+03  0.00000000000E+00 0.  1.
         25    1    1    2    0    0  0.66904971763E+02  0.83553364062E+02 -0.16881358202E+03  0.23575509616E+03  0.12500000000E+03 0.  0.
         25    1    1    2    0    0 -0.55698386662E+02 -0.62978435456E+02 -0.75088377316E+02  0.16832069991E+03  0.12500000000E+03 0.  0.
         25    1    1    2    0    0 -0.11206585101E+02 -0.20574928606E+02  0.53257980228E+02  0.13787794492E+03  0.12500000000E+03 0.  0.
</event>
<event>
 5    0  0.5771525E-005  0.3676503E+03  0.7546771E-02  0.1055595E+00
         21   -1    0    0  502  501  0.00000000000E+00  0.00000000000E+00  0.18355664635E+03  0.18355664635E+03  0.00000000000E+00 0. -1.
         21   -1    0    0  501  502 -0.00000000000E+00 -0.00000000000E+00 -0.73637621774E+03  0.73637621774E+03  0.00000000000E+00 0. -1.
         25    1    1    2    0    0  0.15077235897E+03 -0.57754879610E+02 -0.39634767038E+03  0.44585244887E+03  0.12500000000E+03 0.  0.
         25    1    1    2    0    0 -0.28041605328E+02 -0.12857402823E+03 -0.11533649767E+03  0.21504678575E+03  0.12500000000E+03 0.  0.
         25    1    1    2    0    0 -0.12273075364E+03  0.18632890784E+03 -0.41135403334E+02  0.25903362947E+03  0.12500000000E+03 0.  0.
</event>
<event>
 5    0  0.5771525E-005  0.3759863E+03  0.7546771E-02  0.1052427E+00
         21   -1    0    0  502  501  0.00000000000E+00  0.00000000000E+00  0.13644785176E+03  0.13644785176E+03  0.00000000000E+00 0.  1.
         21   -1    0    0  501  502 -0.00000000000E+00 -0.00000000000E+00 -0.10360418926E+04  0.10360418926E+04  0.00000000000E+00 0.  1.
         25    1    1    2    0    0 -0.11004197253E+03  0.69951970800E+02 -0.83371490429E+02  0.19894300529E+03  0.12500000000E+03 0.  0.
         25    1    1    2    0    0  0.15883283788E+03  0.33524713940E+02 -0.83095496061E+02  0.22109192273E+03  0.12500000000E+03 0.  0.
         25    1    1    2    0    0 -0.48790865351E+02 -0.10347668474E+03 -0.73312705432E+03  0.75245481632E+03  0.12500000000E+03 0.  0.
</event>
<event>
 5    0  0.5771525E-005  0.2794223E+03  0.7546771E-02  0.1096005E+00
         21   -1    0    0  502  501  0.00000000000E+00  0.00000000000E+00  0.94686092823E+03  0.94686092823E+03  0.00000000000E+00 0.  1.
         21   -1    0    0  501  502 -0.00000000000E+00 -0.00000000000E+00 -0.82458605177E+02  0.82458605177E+02  0.00000000000E+00 0.  1.
         25    1    1    2    0    0 -0.53962086483E+02  0.25106306188E+02  0.39935993005E+02  0.14409065523E+03  0.12500000000E+03 0.  0.
         25    1    1    2    0    0 -0.10232715621E+02 -0.90251841763E+02  0.53579261977E+03  0.55762786409E+03  0.12500000000E+03 0.  0.
         25    1    1    2    0    0  0.64194802104E+02  0.65145535575E+02  0.28867371028E+03  0.32760101408E+03  0.12500000000E+03 0.  0.
</event>
<event>
 5    0  0.5771525E-005  0.5300169E+03  0.7546771E-02  0.1006228E+00
         21   -1    0    0  502  501  0.00000000000E+00  0.00000000000E+00  0.12275954850E+04  0.12275954850E+04  0.00000000000E+00 0.  1.
         21   -1    0    0  501  502 -0.00000000000E+00 -0.00000000000E+00 -0.22883592625E+03  0.22883592625E+03  0.00000000000E+00 0.  1.
         25    1    1    2    0    0 -0.12399705012E+02  0.27063409302E+03  0.23557258787E+03  0.38015261297E+03  0.12500000000E+03 0.  0.
         25    1    1    2    0    0 -0.53773019669E+02 -0.32445456633E+03  0.59902189875E+02  0.35689714990E+03  0.12500000000E+03 0.  0.
         25    1    1    2    0    0  0.66172724681E+02  0.53820473309E+02  0.70328478099E+03  0.71938164837E+03  0.12500000000E+03 0.  0.
</event>
<event>
 5    0  0.5771525E-005  0.2408308E+03  0.7546771E-02  0.1119241E+00
         21   -1    0    0  502  501  0.00000000000E+00  0.00000000000E+00  0.33633698562E+03  0.33633698562E+03  0.00000000000E+00 0.  1.
         21   -1    0    0  501  502 -0.00000000000E+00 -0.00000000000E+00 -0.17244452470E+03  0.17244452470E+03  0.00000000000E+00 0.  1.
         25    1    1    2    0    0  0.13938265186E+02 -0.95968543452E+02  0.60756986223E+02  0.16947167298E+03  0.12500000000E+03 0.  0.
         25    1    1    2    0    0  0.73764580471E+02  0.10148078095E+02  0.25503037988E+02  0.14771459565E+03  0.12500000000E+03 0.  0.
         25    1    1    2    0    0 -0.87702845657E+02  0.85820465356E+02  0.77632436709E+02  0.19159524169E+03  0.12500000000E+03 0.  0.
</event>
<event>
 5    0  0.5771525E-005  0.2652137E+03  0.7546771E-02  0.1104051E+00
         21   -1    0    0  502  501  0.00000000000E+00  0.00000000000E+00  0.55405556080E+02  0.55405556080E+02  0.00000000000E+00 0.  1.
         21   -1    0    0  501  502 -0.00000000000E+00 -0.00000000000E+00 -0.12695170935E+04  0.12695170935E+04  0.00000000000E+00 0.  1.
         25    1    1    2    0    0 -0.72646045035E+02  0.52316032516E+01 -0.28183858489E+03  0.31680089246E+03  0.12500000000E+03 0.  0.
         25    1    1    2    0    0  0.32725177849E+00  0.13374132477E+03 -0.43083990349E+03  0.46811843746E+03  0.12500000000E+03 0.  0.
         25    1    1    2    0    0  0.72318793256E+02 -0.13897292802E+03 -0.50143304906E+03  0.54000331968E+03  0.12500000000E+03 0.  0.
</event>
<event>
 5    0  0.6202906E-005  0.3377249E+03  0.7546771E-02  0.1067769E+00
         21   -1    0    0  502  501  0.00000000000E+00  0.00000000000E+00  0.23422657353E+03  0.23422657353E+03  0.00000000000E+00 0. -1.
         21   -1    0    0  501  502 -0.00000000000E+00 -0.00000000000E+00 -0.48695637672E+03  0.48695637672E+03  0.00000000000E+00 0. -1.
         25    1    1    2    0    0 -0.12096554106E+03  0.57001580008E+02  0.99834185997E+02  0.20850349384E+03  0.12500000000E+03 0.  0.
         25    1    1    2    0    0  0.10380792186E+03 -0.76845267003E+02 -0.53577689245E+02  0.18755492125E+03  0.12500000000E+03 0.  0.
         25    1    1    2    0    0  0.17157619205E+02  0.19843686995E+02 -0.29898629994E+03  0.32512453516E+03  0.12500000000E+03 0.  0.
</event>
<event>
 5    0  0.5771525E-005  0.2496403E+03  0.7546771E-02  0.1113532E+00
         21   -1    0    0  502  501  0.00000000000E+00  0.00000000000E+00  0.12813326515E+03  0.12813326515E+03  0.00000000000E+00 0.  1.
         21   -1    0    0  501  502 -0.00000000000E+00 -0.00000000000E+00 -0.48637061736E+03  0.48637061736E+03  0.00000000000E+00 0. -1.
         25    1    1    2    0    0 -0.48785419927E+02 -0.12163482259E+03 -0.17254683595E+03  0.25014487374E+03  0.12500000000E+03 0.  0.
         25    1    1    2    0    0 -0.10575588175E+02  0.20314309594E+02 -0.25370003091E+02  0.12958839183E+03  0.12500000000E+03 0.  0.
         25    1    1    2    0    0  0.59361008102E+02  0.10132051300E+03 -0.16032051318E+03  0.23477061695E+03  0.12500000000E+03 0.  0.
</event>
<event>
 5    0  0.5771525E-005  0.2766986E+03  0.7546771E-02  0.1097506E+00
         21   -1    0    0  502  501  0.00000000000E+00  0.00000000000E+00  0.49967806148E+03  0.49967806148E+03  0.00000000000E+00 0.  1.
         21   -1    0    0  501  502 -0.00000000000E+00 -0.00000000000E+00 -0.15322286557E+03  0.15322286557E+03  0.00000000000E+00 0.  1.
         25    1    1    2    0    0  0.59523073122E+02  0.13083291655E+03  0.20986201718E+03  0.28342073767E+03  0.12500000000E+03 0.  0.
         25    1    1    2    0    0 -0.48609303224E+02  0.13231245204E+02  0.24724745178E+00  0.13477014262E+03  0.12500000000E+03 0.  0.
         25    1    1    2    0    0 -0.10913769898E+02 -0.14406416176E+03  0.13634593127E+03  0.23471004676E+03  0.12500000000E+03 0.  0.
</event>
<event>
 5    0  0.6023642E-005  0.2658066E+03  0.7546771E-02  0.1103704E+00
         21   -1    0    0  502  501  0.00000000000E+00  0.00000000000E+00  0.17689997206E+03  0.17689997206E+03  0.00000000000E+00 0.  1.
         21   -1    0    0  501  502 -0.00000000000E+00 -0.00000000000E+00 -0.39939606749E+03  0.39939606749E+03  0.00000000000E+00 0.  1.
         25    1    1    2    0    0  0.26263835349E+02 -0.43447497204E+02 -0.13151278713E+03  0.18840936081E+03  0.12500000000E+03 0.  0.
         25    1    1    2    0    0  0.80334734864E+02  0.12070100079E+03 -0.18190421967E+02  0.19229740682E+03  0.12500000000E+03 0.  0.
         25    1    1    2    0    0 -0.10659857021E+03 -0.77253503590E+02 -0.72792886327E+02  0.19558927192E+03  0.12500000000E+03 0.  0.
</event>
<event>
 5    0  0.5771525E-005  0.3015815E+03  0.7546771E-02  0.1084453E+00
         21   -1    0    0  502  501  0.00000000000E+00  0.00000000000E+00  0.86394669445E+03  0.86394669445E+03  0.00000000000E+00 0. -1.
         21   -1    0    0  501  502 -0.00000000000E+00 -0.00000000000E+00 -0.10527430023E+03  0.10527430023E+03  0.00000000000E+00 0. -1.
         25    1    1    2    0    0  0.35884315986E+02 -0.97801138247E+02  0.16401287003E+03  0.23103672502E+03  0.12500000000E+03 0.  0.
         25    1    1    2    0    0 -0.15095553053E+03  0.16189906384E+03  0.37735037727E+03  0.45499141344E+03  0.12500000000E+03 0.  0.
         25    1    1    2    0    0  0.11507121455E+03 -0.64097925593E+02  0.21730914692E+03  0.28319285623E+03  0.12500000000E+03 0.  0.
</event>
<event>
 5    0  0.5771525E-005  0.3497434E+03  0.7546771E-02  0.1062720E+00
         21   -1    0    0  502  501  0.00000000000E+00  0.00000000000E+00  0.89596019036E+02  0.89596019036E+02  0.00000000000E+00 0.  1.
         21   -1    0    0  501  502 -0.00000000000E+00 -0.00000000000E+00 -0.13652439413E+04  0.13652439413E+04  0.00000000000E+00 0.  1.
         25    1    1    2    0    0 -0.63415012695E+02 -0.15381206462E+03 -0.16741905242E+03  0.26708379616E+03  0.12500000000E+03 0.  0.
         25    1    1    2    0    0  0.47748430972E+02  0.23735954730E+03 -0.78451995497E+03  0.83049143710E+03  0.12500000000E+03 0.  0.
         25    1    1    2    0    0  0.15666581723E+02 -0.83547482676E+02 -0.32370891488E+03  0.35726472709E+03  0.12500000000E+03 0.  0.
</event>
<event>
 5    0  0.5771525E-005  0.3384270E+03  0.7546771E-02  0.1067468E+00
         21   -1    0    0  502  501  0.00000000000E+00  0.00000000000E+00  0.25992659900E+03  0.25992659900E+03  0.00000000000E+00 0. -1.
         21   -1    0    0  501  502 -0.00000000000E+00 -0.00000000000E+00 -0.44063524817E+03  0.44063524817E+03  0.00000000000E+00 0. -1.
         25    1    1    2    0    0  0.52979272880E+02 -0.12413000707E+02 -0.34781383886E+01  0.13637442351E+03  0.12500000000E+03 0.  0.
         25    1    1    2    0    0  0.99210946961E+02  0.57773878652E+02  0.11778313556E+03  0.20658775393E+03  0.12500000000E+03 0.  0.
         25    1    1    2    0    0 -0.15219021984E+03 -0.45360877945E+02 -0.29501364634E+03  0.35759966973E+03  0.12500000000E+03 0.  0.
</event>
<event>
 5    0  0.5771525E-005  0.3125288E+03  0.7546771E-02  0.1079140E+00
         21   -1    0    0  502  501  0.00000000000E+00  0.00000000000E+00  0.47388396845E+02  0.47388396845E+02  0.00000000000E+00 0.  1.
         21   -1    0    0  501  502 -0.00000000000E+00 -0.00000000000E+00 -0.20611424675E+04  0.20611424675E+04  0.00000000000E+00 0.  1.
         25    1    1    2    0    0 -0.35928891598E+02  0.64441916848E+01 -0.40354144989E+03  0.42403197361E+03  0.12500000000E+03 0.  0.
         25    1    1    2    0    0 -0.53336367086E+02  0.85043593216E+02 -0.17166853522E+03  0.23488777488E+03  0.12500000000E+03 0.  0.
         25    1    1    2    0    0  0.89265258684E+02 -0.91487784901E+02 -0.14385440856E+04  0.14496111159E+04  0.12500000000E+03 0.  0.
</event>
<event>
 5    0  0.5771525E-005  0.2635274E+03  0.7546771E-02  0.1105042E+00
         21   -1    0    0  502  501  0.00000000000E+00  0.00000000000E+00  0.34279054023E+03  0.34279054023E+03  0.00000000000E+00 0. -1.
         21   -1    0    0  501  502 -0.00000000000E+00 -0.00000000000E+00 -0.20259217479E+03  0.20259217479E+03  0.00000000000E+00 0. -1.
         25    1    1    2    0    0 -0.61063359642E+02  0.99268161617E+02 -0.97696094595E+01  0.17118220430E+03  0.12500000000E+03 0.  0.
         25    1    1    2    0    0  0.10670827073E+03 -0.11298672836E+03  0.13212442433E+03  0.23923737026E+03  0.12500000000E+03 0.  0.
         25    1    1    2    0    0 -0.45644911086E+02  0.13718566740E+02  0.17843550572E+02  0.13496314044E+03  0.12500000000E+03 0.  0.
</event>
<event>
 5    0  0.5771525E-005  0.3940974E+03  0.7546771E-02  0.1045843E+00
         21   -1    0    0  502  501  0.00000000000E+00  0.00000000000E+00  0.33888982664E+03  0.33888982664E+03  0.00000000000E+00 0.  1.
         21   -1    0    0  501  502 -0.00000000000E+00 -0.00000000000E+00 -0.45829879471E+03  0.45829879471E+03  0.00000000000E+00 0.  1.
         25    1    1    2    0    0  0.96442399612E+02 -0.17397912935E+03 -0.81787400938E+02  0.24876505552E+03  0.12500000000E+03 0.  0.
         25    1    1    2    0    0  0.40802753218E+02 -0.12741439281E+03  0.36676850289E+02  0.18673372355E+03  0.12500000000E+03 0.  0.
         25    1    1    2    0    0 -0.13724515283E+03  0.30139352216E+03 -0.74298417427E+02  0.36168984228E+03  0.12500000000E+03 0.  0.
</event>
<event>
 5    0  0.5771525E-005  0.3571072E+03  0.7546771E-02  0.1059735E+00
         21   -1    0    0  502  501  0.00000000000E+00  0.00000000000E+00  0.12435297729E+03  0.12435297729E+03  0.00000000000E+00 0. -1.
         21   -1    0    0  501  502 -0.00000000000E+00 -0.00000000000E+00 -0.10255126455E+04  0.10255126455E+04  0.00000000000E+00 0. -1.
         25    1    1    2    0    0 -0.10330643636E+03 -0.10142084002E+03 -0.63773381259E+03  0.66579863496E+03  0.12500000000E+03 0.  0.
         25    1    1    2    0    0 -0.73346943049E+02  0.95354255165E+02 -0.18548833508E+03  0.25397466505E+03  0.12500000000E+03 0.  0.
         25    1    1    2    0    0  0.17665337941E+03  0.60665848547E+01 -0.77937520552E+02  0.23009232281E+03  0.12500000000E+03 0.  0.
</event>
<event>
 5    0  0.5771525E-005  0.3150978E+03  0.7546771E-02  0.1077928E+00
         21   -1    0    0  502  501  0.00000000000E+00  0.00000000000E+00  0.19366780716E+03  0.19366780716E+03  0.00000000000E+00 0.  1.
         21   -1    0    0  501  502 -0.00000000000E+00 -0.00000000000E+00 -0.51266448016E+03  0.51266448016E+03  0.00000000000E+00 0.  1.
         25    1    1    2    0    0 -0.15187681760E+03  0.17756737944E+03 -0.15872266413E+03  0.30889258016E+03  0.12500000000E+03 0.  0.
         25    1    1    2    0    0  0.46138932355E+02 -0.12987108252E+03 -0.44468428245E+02  0.19130535869E+03  0.12500000000E+03 0.  0.
         25    1    1    2    0    0  0.10573788525E+03 -0.47696296919E+02 -0.11580558063E+03  0.20613434847E+03  0.12500000000E+03 0.  0.
</event>
<event>
 5    0  0.5771525E-005  0.4563026E+03  0.7546771E-02  0.1025859E+00
         21   -1    0    0  502  501  0.00000000000E+00  0.00000000000E+00  0.11942662161E+04  0.11942662161E+04  0.00000000000E+00 0. -1.
         21   -1    0    0  501  502 -0.00000000000E+00 -0.00000000000E+00 -0.17434310377E+03  0.17434310377E+03  0.00000000000E+00 0. -1.
         25    1    1    2    0    0 -0.51393308023E+02 -0.10531947972E+03 -0.84027845012E+02  0.19083800370E+03  0.12500000000E+03 0.  0.
         25    1    1    2    0    0  0.15004657111E+03  0.79620308904E+02  0.85878467177E+03  0.88430169035E+03  0.12500000000E+03 0.  0.
         25    1    1    2    0    0 -0.98653263086E+02  0.25699170814E+02  0.24516628561E+03  0.29346962585E+03  0.12500000000E+03 0.  0.
</event>
<event>
 5    0  0.5771525E-005  0.3120081E+03  0.7546771E-02  0.1079387E+00
         21   -1    0    0  502  501  0.00000000000E+00  0.00000000000E+00  0.65331156437E+03  0.65331156437E+03  0.00000000000E+00 0.  1.
         21   -1    0    0  501  502 -0.00000000000E+00 -0.00000000000E+00 -0.14900858920E+03  0.14900858920E+03  0.00000000000E+00 0.  1.
         25    1    1    2    0    0  0.28491879038E+02 -0.21036377397E+03  0.17460444366E+03  0.30195432820E+03  0.12500000000E+03 0.  0.
         25    1    1    2    0    0 -0.31152264340E+02  0.88291548944E+02  0.27675888528E+03  0.31778348254E+03  0.12500000000E+03 0.  0.
         25    1    1    2    0    0  0.26603853018E+01  0.12207222502E+03  0.52939646221E+02  0.18258234283E+03  0.12500000000E+03 0.  0.
</event>
<event>
 5    0  0.5771525E-005  0.2631508E+03  0.7546771E-02  0.1105265E+00
         21   -1    0    0  502  501  0.00000000000E+00  0.00000000000E+00  0.40688956871E+03  0.40688956871E+03  0.00000000000E+00 0.  1.
         21   -1    0    0  501  502 -0.00000000000E+00 -0.00000000000E+00 -0.17018955763E+03  0.17018955763E+03  0.00000000000E+00 0.  1.
         25    1    1    2    0    0 -0.56305813960E+02  0.35231352856E+02  0.11372507252E+03  0.18157638897E+03  0.12500000000E+03 0.  0.
         25    1    1    2    0    0  0.12646810322E+03 -0.11182135494E+03  0.43179890494E+02  0.21444742828E+03  0.12500000000E+03 0.  0.
         25    1    1    2    0    0 -0.70162289263E+02  0.76590002082E+02  0.79795048070E+02  0.18105530909E+03  0.12500000000E+03 0.  0.
</event>
<event>
 5    0  0.5771525E-005  0.2913296E+03  0.7546771E-02  0.1089657E+00
         21   -1    0    0  502  501  0.00000000000E+00  0.00000000000E+00  0.54384591922E+02  0.54384591922E+02  0.00000000000E+00 0. -1.
         21   -1    0    0  501  502 -0.00000000000E+00 -0.00000000000E+00 -0.15606063086E+04  0.15606063086E+04  0.00000000000E+00 0. -1.
         25    1    1    2    0    0  0.10955077778E+03  0.98094519845E+02 -0.25559663170E+03  0.32027885643E+03  0.12500000000E+03 0.  0.
         25    1    1    2    0    0 -0.12376638837E+03 -0.13874092838E+01 -0.62606405729E+03  0.65030857877E+03  0.12500000000E+03 0.  0.
         25    1    1    2    0    0  0.14215610582E+02 -0.96707110562E+02 -0.62456102770E+03  0.64440346534E+03  0.12500000000E+03 0.  0.
</event>
<event>
 5    0  0.5771525E-005  0.3594605E+03  0.7546771E-02  0.1058798E+00
         21   -1    0    0  502  501  0.00000000000E+00  0.00000000000E+00  0.70717295593E+03  0.70717295593E+03  0.00000000000E+00 0. -1.
         21   -1    0    0  501  502 -0.00000000000E+00 -0.00000000000E+00 -0.18271605530E+03  0.18271605530E+03  0.00000000000E+00 0. -1.
         25    1    1    2    0    0  0.71282631156E+02  0.24183026978E+02  0.53618957164E+02  0.15545425329E+03  0.12500000000E+03 0.  0.
         25    1    1    2    0    0 -0.44209680234E+01 -0.11293285763E+03  0.53068682393E+03  0.55680057506E+03  0.12500000000E+03 0.  0.
         25    1    1    2    0    0 -0.66861663132E+02  0.88749830656E+02 -0.59848880462E+02  0.17763418289E+03  0.12500000000E+03 0.  0.
</event>
<event>
 5    0  0.5771525E-005  0.3267121E+03  0.7546771E-02  0.1072601E+00
         21   -1    0    0  502  501  0.00000000000E+00  0.00000000000E+00  0.71962025169E+02  0.71962025169E+02  0.00000000000E+00 0.  1.
         21   -1    0    0  501  502 -0.00000000000E+00 -0.00000000000E+00 -0.14832930552E+04  0.14832930552E+04  0.00000000000E+00 0.  1.
         25    1    1    2    0    0 -0.20756147120E+03  0.78663089333E+02 -0.47616699893E+03  0.54002745932E+03  0.12500000000E+03 0.  0.
         25    1    1    2    0    0  0.20843778794E+03 -0.74339937722E+02 -0.74899703736E+03  0.79094519390E+03  0.12500000000E+03 0.  0.
         25    1    1    2    0    0 -0.87631674498E+00 -0.43231516108E+01 -0.18616699378E+03  0.22428242718E+03  0.12500000000E+03 0.  0.
</event>
<event>
 5    0  0.5771525E-005  0.3403531E+03  0.7546771E-02  0.1066646E+00
         21   -1    0    0  502  501  0.00000000000E+00  0.00000000000E+00  0.88234986970E+03  0.88234986970E+03  0.00000000000E+00 0.  1.
         21   -1    0    0  501  502 -0.00000000000E+00 -0.00000000000E+00 -0.13128604858E+03  0.13128604858E+03  0.00000000000E+00 0.  1.
         25    1    1    2    0    0  0.14455547650E+02  0.60508149857E+02  0.59378395351E+03  0.60997916563E+03  0.12500000000E+03 0.  0.
         25    1    1    2    0    0 -0.50190030487E+02  0.74946117521E+02  0.15103033960E+03  0.21580343642E+03  0.12500000000E+03 0.  0.
         25    1    1    2    0    0  0.35734482837E+02 -0.13545426738E+03  0.62495280072E+01  0.18785331622E+03  0.12500000000E+03 0.  0.
</event>
<event>
 5    0  0.5771525E-005  0.3167676E+03  0.7546771E-02  0.1077147E+00
         21   -1    0    0  502  501  0.00000000000E+00  0.00000000000E+00  0.15679596633E+03  0.15679596633E+03  0.00000000000E+00 0.  1.
         21   -1    0    0  501  502 -0.00000000000E+00 -0.00000000000E+00 -0.63995079106E+03  0.63995079106E+03  0.00000000000E+00 0.  1.
         25    1    1    2    0    0 -0.51475239310E+02  0.28474604818E+02 -0.32062221470E+03  0.34911904552E+03  0.12500000000E+03 0.  0.
         25    1    1    2    0    0 -0.13040508775E+02 -0.12765310355E+03  0.38244953823E+02  0.18317490606E+03  0.12500000000E+03 0.  0.
         25    1    1    2    0    0  0.64515748085E+02  0.99178498734E+02 -0.20077756384E+03  0.26445280582E+03  0.12500000000E+03 0.  0.
</event>
<event>
 5    0  0.5771525E-005  0.3233417E+03  0.7546771E-02  0.1074122E+00
         21   -1    0    0  502  501  0.00000000000E+00  0.00000000000E+00  0.15199739931E+03  0.15199739931E+03  0.00000000000E+00 0. -1.
         21   -1    0    0  501  502 -0.00000000000E+00 -0.00000000000E+00 -0.68783993287E+03  0.68783993287E+03  0.00000000000E+00 0. -1.
         25    1    1    2    0    0 -0.42206164949E+00  0.87200598389E+02 -0.11894360791E+03  0.19333055723E+03  0.12500000000E+03 0.  0.
         25    1    1    2    0    0  0.19902954698E+03 -0.62223204711E+01 -0.27013712569E+03  0.35812085184E+03  0.12500000000E+03 0.  0.
         25    1    1    2    0    0 -0.19860748533E+03 -0.80978277918E+02 -0.14676179995E+03  0.28838592311E+03  0.12500000000E+03 0.  0.
</event>
<event>
 5    0  0.5771525E-005  0.3699901E+03  0.7546771E-02  0.1054697E+00
         21   -1    0    0  502  501  0.00000000000E+00  0.00000000000E+00  0.20358400403E+03  0.20358400403E+03  0.00000000000E+00 0.  1.
         21   -1    0    0  501  502 -0.00000000000E+00 -0.00000000000E+00 -0.67241353381E+03  0.67241353381E+03  0.00000000000E+00 0.  1.
         25    1    1    2    0    0 -0.17522369254E+03  0.92434579249E+02 -0.31019208453E+03  0.38870505936E+03  0.12500000000E+03 0.  0.
         25    1    1    2    0    0  0.18137742824E+02  0.10023481581E+03 -0.13084875931E+03  0.20765932156E+03  0.12500000000E+03 0.  0.
         25    1    1    2    0    0  0.15708594971E+03 -0.19266939506E+03 -0.27788685943E+02  0.27963315693E+03  0.12500000000E+03 0.  0.
</event>
<event>
 5    0  0.5771525E-005  0.2971770E+03  0.7546771E-02  0.1086660E+00
         21   -1    0    0  502  501  0.00000000000E+00  0.00000000000E+00  0.29955727718E+03  0.29955727718E+03  0.00000000000E+00 0. -1.
         21   -1    0    0  501  502 -0.00000000000E+00 -0.00000000000E+00 -0.29481564827E+03  0.29481564827E+03  0.00000000000E+00 0. -1.
         25    1    1    2    0    0  0.35885966091E+02  0.12949590347E+03 -0.60185705836E+02  0.19314323898E+03  0.12500000000E+03 0.  0.
         25    1    1    2    0    0 -0.10656623267E+03 -0.16217852441E+03  0.97203301564E+02  0.25046300637E+03  0.12500000000E+03 0.  0.
         25    1    1    2    0    0  0.70680266576E+02  0.32682620942E+02 -0.32275966808E+02  0.15076668010E+03  0.12500000000E+03 0.  0.
</event>
<event>
 5    0  0.5771525E-005  0.2749841E+03  0.7546771E-02  0.1098460E+00
         21   -1    0    0  502  501  0.00000000000E+00  0.00000000000E+00  0.26507440770E+03  0.26507440770E+03  0.00000000000E+00 0. -1.
         21   -1    0    0  501  502 -0.00000000000E+00 -0.00000000000E+00 -0.28526428015E+03  0.28526428015E+03  0.00000000000E+00 0. -1.
         25    1    1    2    0    0 -0.33990177045E+02 -0.40645634964E+02 -0.82589163872E+01  0.13601694555E+03  0.12500000000E+03 0.  0.
         25    1    1    2    0    0 -0.73448609801E+01 -0.59227180236E+02  0.13483410928E+03  0.19330556869E+03  0.12500000000E+03 0.  0.
         25    1    1    2    0    0  0.41335038025E+02  0.99872815200E+02 -0.14676506535E+03  0.22101617360E+03  0.12500000000E+03 0.  0.
</event>
<event>
 5    0  0.5771525E-005  0.2474101E+03  0.7546771E-02  0.1114953E+00
         21   -1    0    0  502  501  0.00000000000E+00  0.00000000000E+00  0.22354764963E+03  0.22354764963E+03  0.00000000000E+00 0.  1.
         21   -1    0    0  501  502 -0.00000000000E+00 -0.00000000000E+00 -0.27381982630E+03  0.27381982630E+03  0.00000000000E+00 0.  1.
         25    1    1    2    0    0  0.25962359989E+02 -0.50382486639E+02  0.56163110499E+02  0.14829610270E+03  0.12500000000E+03 0.  0.
         25    1    1    2    0    0 -0.57919173660E+02  0.84390176120E+02  0.22988316412E+02  0.16318638177E+03  0.12500000000E+03 0.  0.
         25    1    1    2    0    0  0.31956813671E+02 -0.34007689481E+02 -0.12942360359E+03  0.18588499146E+03  0.12500000000E+03 0.  0.
</event>
<event>
 5    0  0.5771525E-005  0.2934816E+03  0.7546771E-02  0.1088545E+00
         21   -1    0    0  502  501  0.00000000000E+00  0.00000000000E+00  0.45386280229E+03  0.45386280229E+03  0.00000000000E+00 0.  1.
         21   -1    0    0  501  502 -0.00000000000E+00 -0.00000000000E+00 -0.18977419386E+03  0.18977419386E+03  0.00000000000E+00 0.  1.
         25    1    1    2    0    0  0.81328585276E+02  0.33540464824E+02  0.14848940573E+02  0.15357341111E+03  0.12500000000E+03 0.  0.
         25    1    1    2    0    0  0.10254867671E+03 -0.99727932603E+02  0.11183149039E+03  0.22043859435E+03  0.12500000000E+03 0.  0.
         25    1    1    2    0    0 -0.18387726199E+03  0.66187467779E+02  0.13740817747E+03  0.26962499069E+03  0.12500000000E+03 0.  0.
</event>
<event>
 5    0  0.5771525E-005  0.3135579E+03  0.7546771E-02  0.1078653E+00
         21   -1    0    0  502  501  0.00000000000E+00  0.00000000000E+00  0.11562726383E+03  0.11562726383E+03  0.00000000000E+00 0. -1.
         21   -1    0    0  501  502 -0.00000000000E+00 -0.00000000000E+00 -0.85030585070E+03  0.85030585070E+03  0.00000000000E+00 0. -1.
         25    1    1    2    0    0  0.10418897694E+03  0.53152178650E+02 -0.12593820930E+03  0.21252277424E+03  0.12500000000E+03 0.  0.
         25    1    1    2    0    0  0.23362227913E+02 -0.32382700898E+02 -0.13858894264E+02  0.13195265045E+03  0.12500000000E+03 0.  0.
         25    1    1    2    0    0 -0.12755120485E+03 -0.20769477752E+02 -0.59488148332E+03  0.62145768984E+03  0.12500000000E+03 0.  0.
</event>
<event>
 5    0  0.5771525E-005  0.5854299E+03  0.7546771E-02  0.9936104E-01
         21   -1    0    0  502  501  0.00000000000E+00  0.00000000000E+00  0.33436099612E+03  0.33436099612E+03  0.00000000000E+00 0. -1.
         21   -1    0    0  501  502 -0.00000000000E+00 -0.00000000000E+00 -0.10250242350E+04  0.10250242350E+04  0.00000000000E+00 0. -1.
         25    1    1    2    0    0  0.18215653183E+02 -0.12749226529E+03 -0.13774031248E+03  0.22623766577E+03  0.12500000000E+03 0.  0.
         25    1    1    2    0    0  0.34170382797E+03  0.15101215106E+02  0.92088798592E+02  0.37562601024E+03  0.12500000000E+03 0.  0.
         25    1    1    2    0    0 -0.35991948115E+03  0.11239105018E+03 -0.64501172496E+03  0.75752155508E+03  0.12500000000E+03 0.  0.
</event>
<event>
 5    0  0.5771525E-005  0.2515409E+03  0.7546771E-02  0.1112335E+00
         21   -1    0    0  502  501  0.00000000000E+00  0.00000000000E+00  0.37405932951E+02  0.37405932951E+02  0.00000000000E+00 0.  1.
         21   -1    0    0  501  502 -0.00000000000E+00 -0.00000000000E+00 -0.16915182785E+04  0.16915182785E+04  0.00000000000E+00 0.  1.
         25    1    1    2    0    0  0.67054898020E+02 -0.48831108448E+02 -0.62464308422E+03  0.64240549435E+03  0.12500000000E+03 0.  0.
         25    1    1    2    0    0 -0.39755045811E+02  0.12206193362E+03 -0.74351533407E+03  0.76480038657E+03  0.12500000000E+03 0.  0.
         25    1    1    2    0    0 -0.27299852209E+02 -0.73230825174E+02 -0.28595392727E+03  0.32171833054E+03  0.12500000000E+03 0.  0.
</event>
<event>
 5    0  0.5771525E-005  0.2327803E+03  0.7546771E-02  0.1124698E+00
         21   -1    0    0  502  501  0.00000000000E+00  0.00000000000E+00  0.12764798278E+04  0.12764798278E+04  0.00000000000E+00 0. -1.
         21   -1    0    0  501  502 -0.00000000000E+00 -0.00000000000E+00 -0.42450064274E+02  0.42450064274E+02  0.00000000000E+00 0. -1.
         25    1    1    2    0    0  0.12408204007E+02 -0.88505410115E+01  0.16672354223E+03  0.20893548080E+03  0.12500000000E+03 0.  0.
         25    1    1    2    0    0  0.20054836730E+02  0.84368271207E+02  0.45874062970E+03  0.48330959746E+03  0.12500000000E+03 0.  0.
         25    1    1    2    0    0 -0.32463040737E+02 -0.75517730195E+02  0.60856559161E+03  0.62668481382E+03  0.12500000000E+03 0.  0.
</event>
<event>
 5    0  0.5771525E-005  0.3203675E+03  0.7546771E-02  0.1075480E+00
         21   -1    0    0  502  501  0.00000000000E+00  0.00000000000E+00  0.42182855786E+03  0.42182855786E+03  0.00000000000E+00 0.  1.
         21   -1    0    0  501  502 -0.00000000000E+00 -0.00000000000E+00 -0.24331058004E+03  0.24331058004E+03  0.00000000000E+00 0.  1.
         25    1    1    2    0    0  0.11612523454E+02 -0.17816895211E+03  0.42051591905E+02  0.22197378804E+03  0.12500000000E+03 0.  0.
         25    1    1    2    0    0 -0.13774359909E+03  0.29702825510E+02  0.81647343950E+02  0.20529696955E+03  0.12500000000E+03 0.  0.
         25    1    1    2    0    0  0.12613107563E+03  0.14846612660E+03  0.54819041961E+02  0.23786838031E+03  0.12500000000E+03 0.  0.
</event>
<event>
 5    0  0.6451837E-005  0.2976770E+03  0.7546771E-02  0.1086408E+00
         21   -1    0    0  502  501  0.00000000000E+00  0.00000000000E+00  0.18202106163E+03  0.18202106163E+03  0.00000000000E+00 0. -1.
         21   -1    0    0  501  502 -0.00000000000E+00 -0.00000000000E+00 -0.48682063159E+03  0.48682063159E+03  0.00000000000E+00 0. -1.
         25    1    1    2    0    0 -0.33196427077E+02 -0.48322404704E+02 -0.22487279415E+03  0.26387465039E+03  0.12500000000E+03 0.  0.
         25    1    1    2    0    0  0.91531171928E+02 -0.10772967170E+03 -0.40004782216E+02  0.19289639758E+03  0.12500000000E+03 0.  0.
         25    1    1    2    0    0 -0.58334744851E+02  0.15605207640E+03 -0.39921993591E+02  0.21207064525E+03  0.12500000000E+03 0.  0.
</event>
<event>
 5    0  0.5771525E-005  0.2866816E+03  0.7546771E-02  0.1092095E+00
         21   -1    0    0  502  501  0.00000000000E+00  0.00000000000E+00  0.75952359379E+03  0.75952359379E+03  0.00000000000E+00 0. -1.
         21   -1    0    0  501  502 -0.00000000000E+00 -0.00000000000E+00 -0.10820778557E+03  0.10820778557E+03  0.00000000000E+00 0. -1.
         25    1    1    2    0    0 -0.12523063877E+03 -0.13494597059E+03  0.29191842053E+03  0.36706197312E+03  0.12500000000E+03 0.  0.
         25    1    1    2    0    0 -0.20828886637E+02  0.71547197766E+02  0.13572067975E+03  0.19899232884E+03  0.12500000000E+03 0.  0.
         25    1    1    2    0    0  0.14605952540E+03  0.63398772826E+02  0.22367670794E+03  0.30167707741E+03  0.12500000000E+03 0.  0.
</event>
<event>
 5    0  0.6525280E-005  0.2742489E+03  0.7546771E-02  0.1098872E+00
         21   -1    0    0  502  501  0.00000000000E+00  0.00000000000E+00  0.69637871899E+03  0.69637871899E+03  0.00000000000E+00 0.  1.
         21   -1    0    0  501  502 -0.00000000000E+00 -0.00000000000E+00 -0.10800508476E+03  0.10800508476E+03  0.00000000000E+00 0.  1.
         25    1    1    2    0    0 -0.41063149911E+02  0.70906171643E+02  0.10611723514E+03  0.18330230509E+03  0.12500000000E+03 0.  0.
         25    1    1    2    0    0  0.44124612490E+02 -0.16467294812E+03  0.16770098769E+03  0.26983843785E+03  0.12500000000E+03 0.  0.
         25    1    1    2    0    0 -0.30614625791E+01  0.93766776476E+02  0.31455541140E+03  0.35124306081E+03  0.12500000000E+03 0.  0.
</event>
<event>
 5    0  0.5771525E-005  0.3245199E+03  0.7546771E-02  0.1073588E+00
         21   -1    0    0  502  501  0.00000000000E+00  0.00000000000E+00  0.24270854288E+04  0.24270854288E+04  0.00000000000E+00 0.  1.
         21   -1    0    0  501  502 -0.00000000000E+00 -0.00000000000E+00 -0.43390791838E+02  0.43390791838E+02  0.00000000000E+00 0.  1.
         25    1    1    2    0    0 -0.96356284212E+02  0.86549814387E+02  0.33775008011E+03  0.38272120466E+03  0.12500000000E+03 0.  0.
         25    1    1    2    0    0  0.11255909386E+03  0.86222276866E+02  0.12207613920E+04  0.12353085472E+04  0.12500000000E+03 0.  0.
         25    1    1    2    0    0 -0.16202809644E+02 -0.17277209125E+03  0.82518316494E+03  0.85244646885E+03  0.12500000000E+03 0.  0.
</event>
<event>
 5    0  0.5829275E-005  0.2661384E+03  0.7546771E-02  0.1103510E+00
         21   -1    0    0  502  501  0.00000000000E+00  0.00000000000E+00  0.89249080797E+02  0.89249080797E+02  0.00000000000E+00 0.  1.
         21   -1    0    0  501  502 -0.00000000000E+00 -0.00000000000E+00 -0.79361749277E+03  0.79361749277E+03  0.00000000000E+00 0.  1.
         25    1    1    2    0    0 -0.56477647602E+02 -0.66195129566E+02 -0.24409668099E+03  0.28771463211E+03  0.12500000000E+03 0.  0.
         25    1    1    2    0    0  0.55826142002E+02 -0.11171901742E+00 -0.42889750533E+03  0.45021621549E+03  0.12500000000E+03 0.  0.
         25    1    1    2    0    0  0.65150560031E+00  0.66306848583E+02 -0.31374225656E+02  0.14493572598E+03  0.12500000000E+03 0.  0.
</event>
<event>
 5    0  0.6739634E-005  0.2998850E+03  0.7546771E-02  0.1085298E+00
         21   -1    0    0  502  501  0.00000000000E+00  0.00000000000E+00  0.38972799851E+03  0.38972799851E+03  0.00000000000E+00 0.  1.
         21   -1    0    0  501  502 -0.00000000000E+00 -0.00000000000E+00 -0.23075326631E+03  0.23075326631E+03  0.00000000000E+00 0.  1.
         25    1    1    2    0    0  0.84040268958E+02 -0.94954905461E+02  0.53582890297E+02  0.18594441914E+03  0.12500000000E+03 0.  0.
         25    1    1    2    0    0  0.69735352521E+02  0.29903394968E+02  0.16218099565E+03  0.21836874266E+03  0.12500000000E+03 0.  0.
         25    1    1    2    0    0 -0.15377562148E+03  0.65051510493E+02 -0.56789153745E+02  0.21616810302E+03  0.12500000000E+03 0.  0.
</event>
<event>
 5    0  0.5771525E-005  0.2651148E+03  0.7546771E-02  0.1104109E+00
         21   -1    0    0  502  501  0.00000000000E+00  0.00000000000E+00  0.11857996815E+03  0.11857996815E+03  0.00000000000E+00 0.  1.
         21   -1    0    0  501  502 -0.00000000000E+00 -0.00000000000E+00 -0.59272961505E+03  0.59272961505E+03  0.00000000000E+00 0.  1.
         25    1    1    2    0    0 -0.73786740565E+02  0.12074929366E+03 -0.25078269445E+03  0.31391373789E+03  0.12500000000E+03 0.  0.
         25    1    1    2    0    0  0.11053674994E+02 -0.10199794367E+03 -0.19523254655E+03  0.25350840514E+03  0.12500000000E+03 0.  0.
         25    1    1    2    0    0  0.62733065571E+02 -0.18751349987E+02 -0.28134405897E+02  0.14388744017E+03  0.12500000000E+03 0.  0.
</event>
<event>
 5    0  0.5771525E-005  0.2740764E+03  0.7546771E-02  0.1098969E+00
         21   -1    0    0  502  501  0.00000000000E+00  0.00000000000E+00  0.39682353530E+03  0.39682353530E+03  0.00000000000E+00 0.  1.
         21   -1    0    0  501  502 -0.00000000000E+00 -0.00000000000E+00 -0.18929799026E+03  0.18929799026E+03  0.00000000000E+00 0.  1.
         25    1    1    2    0    0 -0.10124635352E+03 -0.15031213326E+02  0.92089541377E+02  0.18596302081E+03  0.12500000000E+03 0.  0.
         25    1    1    2    0    0  0.79648121020E+02 -0.12171511727E+03  0.90177529588E+02  0.21193248877E+03  0.12500000000E+03 0.  0.
         25    1    1    2    0    0  0.21598232504E+02  0.13674633059E+03  0.25258474074E+02  0.18822601598E+03  0.12500000000E+03 0.  0.
</event>
<event>
 5    0  0.5771525E-005  0.4790633E+03  0.7546771E-02  0.1019393E+00
         21   -1    0    0  502  501  0.00000000000E+00  0.00000000000E+00  0.90241784911E+02  0.90241784911E+02  0.00000000000E+00 0.  1.
         21   -1    0    0  501  502 -0.00000000000E+00 -0.00000000000E+00 -0.25431865247E+04  0.25431865247E+04  0.00000000000E+00 0.  1.
         25    1    1    2    0    0 -0.19368843409E+03  0.89453703922E+02 -0.18980639624E+03  0.31171885201E+03  0.12500000000E+03 0.  0.
         25    1    1    2    0    0 -0.87968181402E+02 -0.33365789651E+01 -0.34906606547E+03  0.38107958717E+03  0.12500000000E+03 0.  0.
         25    1    1    2    0    0  0.28165661550E+03 -0.86117124957E+02 -0.19140722781E+04  0.19406298704E+04  0.12500000000E+03 0.  0.
</event>
<event>
 5    0  0.7929613E-005  0.4899346E+03  0.7546771E-02  0.1016440E+00
         21   -1    0    0  502  501  0.00000000000E+00  0.00000000000E+00  0.61053816942E+03  0.61053816942E+03  0.00000000000E+00 0. -1.
         21   -1    0    0  501  502 -0.00000000000E+00 -0.00000000000E+00 -0.39315456782E+03  0.39315456782E+03  0.00000000000E+00 0. -1.
         25    1    1    2    0    0  0.34001719088E+03  0.71361947725E+02  0.57493224638E+02  0.37367725186E+03  0.12500000000E+03 0.  0.
         25    1    1    2    0    0 -0.68936514346E+02  0.28107280136E+02  0.26160058322E+03  0.29933614441E+03  0.12500000000E+03 0.  0.
         25    1    1    2    0    0 -0.27108067654E+03 -0.99469227862E+02 -0.10171020626E+03  0.33067934096E+03  0.12500000000E+03 0.  0.
</event>
<event>
 5    0  0.5771525E-005  0.2620739E+03  0.7546771E-02  0.1105904E+00
         21   -1    0    0  502  501  0.00000000000E+00  0.00000000000E+00  0.85498090013E+03  0.85498090013E+03  0.00000000000E+00 0. -1.
         21   -1    0    0  501  502 -0.00000000000E+00 -0.00000000000E+00 -0.80332486769E+02  0.80332486769E+02  0.00000000000E+00 0. -1.
         25    1    1    2    0    0 -0.21281402222E+02  0.74996598818E+02  0.64203634271E+02  0.16070001421E+03  0.12500000000E+03 0.  0.
         25    1    1    2    0    0  0.37427002858E+02 -0.11729504754E+03  0.42091828848E+03  0.45602205462E+03  0.12500000000E+03 0.  0.
         25    1    1    2    0    0 -0.16145600635E+02  0.42298448718E+02  0.28952649060E+03  0.31859131806E+03  0.12500000000E+03 0.  0.
</event>
<event>
 5    0  0.5771525E-005  0.3960605E+03  0.7546771E-02  0.1045152E+00
         21   -1    0    0  502  501  0.00000000000E+00  0.00000000000E+00  0.36130735058E+03  0.36130735058E+03  0.00000000000E+00 0.  1.
         21   -1    0    0  501  502 -0.00000000000E+00 -0.00000000000E+00 -0.43415646332E+03  0.43415646332E+03  0.00000000000E+00 0.  1.
         25    1    1    2    0    0 -0.31948603132E+02 -0.67944201101E+02 -0.45309270532E+02  0.15269269040E+03  0.12500000000E+03 0.  0.
         25    1    1    2    0    0  0.25957229391E+03  0.17804374292E+03  0.67088399652E+02  0.34525816938E+03  0.12500000000E+03 0.  0.
         25    1    1    2    0    0 -0.22762369078E+03 -0.11009954182E+03 -0.94628241858E+02  0.29751295412E+03  0.12500000000E+03 0.  0.
</event>
<event>
 5    0  0.5771525E-005  0.3075157E+03  0.7546771E-02  0.1081543E+00
         21   -1    0    0  502  501  0.00000000000E+00  0.00000000000E+00  0.34813302411E+03  0.34813302411E+03  0.00000000000E+00 0.  1.
         21   -1    0    0  501  502 -0.00000000000E+00 -0.00000000000E+00 -0.27163734421E+03  0.27163734421E+03  0.00000000000E+00 0.  1.
         25    1    1    2    0    0 -0.43687961798E+02 -0.95752570273E+02 -0.12798845709E+03  0.20756502082E+03  0.12500000000E+03 0.  0.
         25    1    1    2    0    0 -0.63235531527E+02 -0.56827067768E+01  0.14069919996E+02  0.14090418110E+03  0.12500000000E+03 0.  0.
         25    1    1    2    0    0  0.10692349333E+03  0.10143527705E+03  0.19041421699E+03  0.27130116640E+03  0.12500000000E+03 0.  0.
</event>
<event>
 5    0  0.5771525E-005  0.3653291E+03  0.7546771E-02  0.1056493E+00
         21   -1    0    0  502  501  0.00000000000E+00  0.00000000000E+00  0.77960610072E+02  0.77960610072E+02  0.00000000000E+00 0. -1.
         21   -1    0    0  501  502 -0.00000000000E+00 -0.00000000000E+00 -0.17119592425E+04  0.17119592425E+04  0.00000000000E+00 0. -1.
         25    1    1    2    0    0  0.76449399110E+02 -0.65665382449E+02 -0.10377473165E+03  0.19118223768E+03  0.12500000000E+03 0.  0.
         25    1    1    2    0    0  0.46423631024E+02  0.14090849602E+02 -0.13038946021E+03  0.18702972195E+03  0.12500000000E+03 0.  0.
         25    1    1    2    0    0 -0.12287303013E+03  0.51574532847E+02 -0.13998344406E+04  0.14117078929E+04  0.12500000000E+03 0.  0.
</event>
<event>
 5    0  0.5771525E-005  0.2859104E+03  0.7546771E-02  0.1092504E+00
         21   -1    0    0  502  501  0.00000000000E+00  0.00000000000E+00  0.62439848322E+03  0.62439848322E+03  0.00000000000E+00 0.  1.
         21   -1    0    0  501  502 -0.00000000000E+00 -0.00000000000E+00 -0.13091762794E+03  0.13091762794E+03  0.00000000000E+00 0.  1.
         25    1    1    2    0    0 -0.12947479121E+03 -0.12590123748E+03  0.13715937754E+03  0.25894504823E+03  0.12500000000E+03 0.  0.
         25    1    1    2    0    0  0.36555485584E+02  0.13168029093E+03  0.15329111435E+03  0.24041457585E+03  0.12500000000E+03 0.  0.
         25    1    1    2    0    0  0.92919305627E+02 -0.57790534433E+01  0.20303036339E+03  0.25595648708E+03  0.12500000000E+03 0.  0.
</event>
<event>
 5    0  0.6156676E-005  0.3779800E+03  0.7546771E-02  0.1051683E+00
         21   -1    0    0  502  501  0.00000000000E+00  0.00000000000E+00  0.37437312603E+03  0.37437312603E+03  0.00000000000E+00 0. -1.
         21   -1    0    0  501  502 -0.00000000000E+00 -0.00000000000E+00 -0.38162162721E+03  0.38162162721E+03  0.00000000000E+00 0. -1.
         25    1    1    2    0    0  0.20893147312E+03 -0.35486308781E+02  0.11757549497E+03  0.27269146593E+03  0.12500000000E+03 0.  0.
         25    1    1    2    0    0 -0.27252688095E+03 -0.72342342115E+01 -0.15305415569E+02  0.30030399719E+03  0.12500000000E+03 0.  0.
         25    1    1    2    0    0  0.63595407829E+02  0.42720542992E+02 -0.10951858059E+03  0.18299929012E+03  0.12500000000E+03 0.  0.
</event>
<event>
 5    0  0.5843092E-005  0.3016014E+03  0.7546771E-02  0.1084443E+00
         21   -1    0    0  502  501  0.00000000000E+00  0.00000000000E+00  0.27731667649E+03  0.27731667649E+03  0.00000000000E+00 0. -1.
         21   -1    0    0  501  502 -0.00000000000E+00 -0.00000000000E+00 -0.32801275549E+03  0.32801275549E+03  0.00000000000E+00 0. -1.
         25    1    1    2    0    0 -0.28772555480E+02 -0.22622880875E+03 -0.38746998241E+02  0.26293281220E+03  0.12500000000E+03 0.  0.
         25    1    1    2    0    0  0.22963778442E+02  0.82186658883E+02 -0.29728340097E+01  0.15137972044E+03  0.12500000000E+03 0.  0.
         25    1    1    2    0    0  0.58087770380E+01  0.14404214987E+03 -0.89762467503E+01  0.19101689935E+03  0.12500000000E+03 0.  0.
</event>
<event>
 5    0  0.5771525E-005  0.4041801E+03  0.7546771E-02  0.1042342E+00
         21   -1    0    0  502  501  0.00000000000E+00  0.00000000000E+00  0.14524674644E+03  0.14524674644E+03  0.00000000000E+00 0.  1.
         21   -1    0    0  501  502 -0.00000000000E+00 -0.00000000000E+00 -0.11247172331E+04  0.11247172331E+04  0.00000000000E+00 0.  1.
         25    1    1    2    0    0  0.76909025996E+02 -0.99904353155E+02 -0.32761588055E+03  0.37262990117E+03  0.12500000000E+03 0.  0.
         25    1    1    2    0    0  0.80808162110E+02  0.24183179719E+03 -0.11439427928E+03  0.30614315006E+03  0.12500000000E+03 0.  0.
         25    1    1    2    0    0 -0.15771718811E+03 -0.14192744403E+03 -0.53746032682E+03  0.59119092830E+03  0.12500000000E+03 0.  0.
</event>
<event>
 5    0  0.5771525E-005  0.3725244E+03  0.7546771E-02  0.1053732E+00
         21   -1    0    0  502  501  0.00000000000E+00  0.00000000000E+00  0.11085425270E+04  0.11085425270E+04  0.00000000000E+00 0.  1.
         21   -1    0    0  501  502 -0.00000000000E+00 -0.00000000000E+00 -0.12518639857E+03  0.12518639857E+03  0.00000000000E+00 0.  1.
         25    1    1    2    0    0  0.86339550800E+02  0.30376648804E+02  0.30144487607E+03  0.33892664713E+03  0.12500000000E+03 0.  0.
         25    1    1    2    0    0 -0.24350958467E+03 -0.31570367746E+02  0.12456857286E+03  0.30238375501E+03  0.12500000000E+03 0.  0.
         25    1    1    2    0    0  0.15717003387E+03  0.11937189426E+01  0.55734267951E+03  0.59241852344E+03  0.12500000000E+03 0.  0.
</event>
<event>
 5    0  0.5771525E-005  0.3369225E+03  0.7546771E-02  0.1068114E+00
         21   -1    0    0  502  501  0.00000000000E+00  0.00000000000E+00  0.91291286838E+03  0.91291286838E+03  0.00000000000E+00 0. -1.
         21   -1    0    0  501  502 -0.00000000000E+00 -0.00000000000E+00 -0.12434568659E+03  0.12434568659E+03  0.00000000000E+00 0. -1.
         25    1    1    2    0    0 -0.15137604272E+03  0.12545084188E+01  0.20861873260E+03  0.28646650012E+03  0.12500000000E+03 0.  0.
         25    1    1    2    0    0  0.16147189602E+03  0.83928027794E+02  0.55480641712E+03  0.59711996075E+03  0.12500000000E+03 0.  0.
         25    1    1    2    0    0 -0.10095853300E+02 -0.85182536213E+02  0.25142032075E+02  0.15367209410E+03  0.12500000000E+03 0.  0.
</event>
<event>
 5    0  0.5771525E-005  0.3717095E+03  0.7546771E-02  0.1054041E+00
         21   -1    0    0  502  501  0.00000000000E+00  0.00000000000E+00  0.74696194845E+02  0.74696194845E+02  0.00000000000E+00 0.  1.
         21   -1    0    0  501  502 -0.00000000000E+00 -0.00000000000E+00 -0.18497317095E+04  0.18497317095E+04  0.00000000000E+00 0.  1.
         25    1    1    2    0    0 -0.51065776196E+02 -0.70691761676E+00 -0.36146164287E+03  0.38585973163E+03  0.12500000000E+03 0.  0.
         25    1    1    2    0    0 -0.81293610890E+01 -0.18590106387E+03 -0.12072629441E+04  0.12278982483E+04  0.12500000000E+03 0.  0.
         25    1    1    2    0    0  0.59195137285E+02  0.18660798149E+03 -0.20631092770E+03  0.31066992439E+03  0.12500000000E+03 0.  0.
</event>
<event>
 5    0  0.5771525E-005  0.3927232E+03  0.7546771E-02  0.1046329E+00
         21   -1    0    0  502  501  0.00000000000E+00  0.00000000000E+00  0.24558089444E+03  0.24558089444E+03  0.00000000000E+00 0.  1.
         21   -1    0    0  501  502 -0.00000000000E+00 -0.00000000000E+00 -0.62802743231E+03  0.62802743231E+03  0.00000000000E+00 0.  1.
         25    1    1    2    0    0 -0.10695119562E+03 -0.16846212889E+03  0.10362713172E+03  0.25725790472E+03  0.12500000000E+03 0.  0.
         25    1    1    2    0    0 -0.32425445923E+02  0.99863570420E+02 -0.30995466013E+03  0.35031561995E+03  0.12500000000E+03 0.  0.
         25    1    1    2    0    0  0.13937664154E+03  0.68598558467E+02 -0.17611900945E+03  0.26603480209E+03  0.12500000000E+03 0.  0.
</event>
<event>
 5    0  0.5771525E-005  0.3512510E+03  0.7546771E-02  0.1062103E+00
         21   -1    0    0  502  501  0.00000000000E+00  0.00000000000E+00  0.20246399850E+03  0.20246399850E+03  0.00000000000E+00 0. -1.
         21   -1    0    0  501  502 -0.00000000000E+00 -0.00000000000E+00 -0.60937878779E+03  0.60937878779E+03  0.00000000000E+00 0. -1.
         25    1    1    2    0    0  0.14240261238E+03 -0.66752611958E+02 -0.12023947916E+03  0.23413019362E+03  0.12500000000E+03 0.  0.
         25    1    1    2    0    0  0.23394737168E+02  0.20125419738E+03 -0.21335506834E+03  0.31968101426E+03  0.12500000000E+03 0.  0.
         25    1    1    2    0    0 -0.16579734955E+03 -0.13450158543E+03 -0.73320241794E+02  0.25803157841E+03  0.12500000000E+03 0.  0.
</event>
<event>
 5    0  0.5771525E-005  0.3084332E+03  0.7546771E-02  0.1081099E+00
         21   -1    0    0  502  501  0.00000000000E+00  0.00000000000E+00  0.19849872038E+03  0.19849872038E+03  0.00000000000E+00 0.  1.
         21   -1    0    0  501  502 -0.00000000000E+00 -0.00000000000E+00 -0.47925260880E+03  0.47925260880E+03  0.00000000000E+00 0.  1.
         25    1    1    2    0    0 -0.77990621748E+02 -0.31202694287E+01 -0.36435002256E+02  0.15180508078E+03  0.12500000000E+03 0.  0.
         25    1    1    2    0    0 -0.10922763604E+02  0.32734834459E+02  0.89374286134E+02  0.15749171144E+03  0.12500000000E+03 0.  0.
         25    1    1    2    0    0  0.88913385352E+02 -0.29614565030E+02 -0.33369317230E+03  0.36845453694E+03  0.12500000000E+03 0.  0.
</event>
<event>
 5    0  0.5880364E-005  0.2763194E+03  0.7546771E-02  0.1097716E+00
         21   -1    0    0  502  501  0.00000000000E+00  0.00000000000E+00  0.89933052784E+02  0.89933052784E+02  0.00000000000E+00 0. -1.
         21   -1    0    0  501  502 -0.00000000000E+00 -0.00000000000E+00 -0.84899168451E+03  0.84899168451E+03  0.00000000000E+00 0. -1.
         25    1    1    2    0    0 -0.71125324585E+01 -0.11296500957E+03 -0.21914715281E+03  0.27651791278E+03  0.12500000000E+03 0.  0.
         25    1    1    2    0    0  0.35251706092E+02  0.18114914343E+03 -0.41431916442E+03  0.47047110959E+03  0.12500000000E+03 0.  0.
         25    1    1    2    0    0 -0.28139173633E+02 -0.68184133863E+02 -0.12559231448E+03  0.19193571492E+03  0.12500000000E+03 0.  0.
</event>
<event>
 5    0  0.5771525E-005  0.2914388E+03  0.7546771E-02  0.1089600E+00
         21   -1    0    0  502  501  0.00000000000E+00  0.00000000000E+00  0.12042845077E+04  0.12042845077E+04  0.00000000000E+00 0.  1.
         21   -1    0    0  501  502 -0.00000000000E+00 -0.00000000000E+00 -0.70528663236E+02  0.70528663236E+02  0.00000000000E+00 0.  1.
         25    1    1    2    0    0 -0.65447416090E+02  0.67095799959E+02  0.56712002348E+03  0.58824767885E+03  0.12500000000E+03 0.  0.
         25    1    1    2    0    0  0.86777251442E+01 -0.16783562631E+03  0.24255426117E+03  0.32047101270E+03  0.12500000000E+03 0.  0.
         25    1    1    2    0    0  0.56769690946E+02  0.10073982635E+03  0.32408155986E+03  0.36609447943E+03  0.12500000000E+03 0.  0.
</event>
<event>
 5    0  0.5968455E-005  0.3323986E+03  0.7546771E-02  0.1070080E+00
         21   -1    0    0  502  501  0.00000000000E+00  0.00000000000E+00  0.32429861518E+03  0.32429861518E+03  0.00000000000E+00 0.  1.
         21   -1    0    0  501  502 -0.00000000000E+00 -0.00000000000E+00 -0.34070091535E+03  0.34070091535E+03  0.00000000000E+00 0.  1.
         25    1    1    2    0    0  0.54239260488E+02  0.97495512332E+02 -0.11170295121E+03  0.20136986272E+03  0.12500000000E+03 0.  0.
         25    1    1    2    0    0  0.14119046068E+03 -0.31507146682E+02  0.11249592545E+03  0.22182826628E+03  0.12500000000E+03 0.  0.
         25    1    1    2    0    0 -0.19542972117E+03 -0.65988365650E+02 -0.17195274415E+02  0.24180140153E+03  0.12500000000E+03 0.  0.
</event>
<event>
 5    0  0.5771525E-005  0.2922571E+03  0.7546771E-02  0.1089177E+00
         21   -1    0    0  502  501  0.00000000000E+00  0.00000000000E+00  0.52738644986E+02  0.52738644986E+02  0.00000000000E+00 0.  1.
         21   -1    0    0  501  502 -0.00000000000E+00 -0.00000000000E+00 -0.16195756385E+04  0.16195756385E+04  0.00000000000E+00 0.  1.
         25    1    1    2    0    0 -0.49606317732E+02 -0.47530371117E+02 -0.19110339551E+03  0.23846473683E+03  0.12500000000E+03 0.  0.
         25    1    1    2    0    0  0.14763775941E+03 -0.50069782732E+02 -0.49922049692E+03  0.53772669238E+03  0.12500000000E+03 0.  0.
         25    1    1    2    0    0 -0.98031441680E+02  0.97600153849E+02 -0.87651310112E+03  0.89612285431E+03  0.12500000000E+03 0.  0.
</event>
<event>
 5    0  0.5771525E-005  0.2445337E+03  0.7546771E-02  0.1116809E+00
         21   -1    0    0  502  501  0.00000000000E+00  0.00000000000E+00  0.35907231187E+04  0.35907231187E+04  0.00000000000E+00 0. -1.
         21   -1    0    0  501  502 -0.00000000000E+00 -0.00000000000E+00 -0.16653119040E+02  0.16653119040E+02  0.00000000000E+00 0. -1.
         25    1    1    2    0    0 -0.24483002087E+02 -0.83619156519E+02  0.21201175392E+04  0.21255857924E+04  0.12500000000E+03 0.  0.
         25    1    1    2    0    0  0.50421648616E+02  0.33804802485E+02  0.92476991695E+03  0.93515213020E+03  0.12500000000E+03 0.  0.
         25    1    1    2    0    0 -0.25938646529E+02  0.49814354034E+02  0.52918254353E+03  0.54663831518E+03  0.12500000000E+03 0.  0.
</event>
<event>
 5    0  0.5771525E-005  0.2574530E+03  0.7546771E-02  0.1108683E+00
         21   -1    0    0  502  501  0.00000000000E+00  0.00000000000E+00  0.89490519207E+03  0.89490519207E+03  0.00000000000E+00 0. -1.
         21   -1    0    0  501  502 -0.00000000000E+00 -0.00000000000E+00 -0.74066008105E+02  0.74066008105E+02  0.00000000000E+00 0. -1.
         25    1    1    2    0    0  0.72040597145E+02 -0.82794731876E+02  0.27268331170E+03  0.31941509630E+03  0.12500000000E+03 0.  0.
         25    1    1    2    0    0 -0.11122885962E+03  0.12110967758E+01  0.15861196684E+03  0.23055602788E+03  0.12500000000E+03 0.  0.
         25    1    1    2    0    0  0.39188262475E+02  0.81583635100E+02  0.38954390542E+03  0.41900007599E+03  0.12500000000E+03 0.  0.
</event>
<event>
 5    0  0.6934793E-005  0.2717590E+03  0.7546771E-02  0.1100277E+00
         21   -1    0    0  502  501  0.00000000000E+00  0.00000000000E+00  0.33448339831E+03  0.33448339831E+03  0.00000000000E+00 0. -1.
         21   -1    0    0  501  502 -0.00000000000E+00 -0.00000000000E+00 -0.22079709036E+03  0.22079709036E+03  0.00000000000E+00 0. -1.
         25    1    1    2    0    0 -0.97728009245E+02  0.46656322941E+02  0.18780637852E+01  0.16539680585E+03  0.12500000000E+03 0.  0.
         25    1    1    2    0    0 -0.55833203933E+02  0.55239269784E+02  0.69692928135E+02  0.16325081262E+03  0.12500000000E+03 0.  0.
         25    1    1    2    0    0  0.15356121318E+03 -0.10189559273E+03  0.42115316029E+02  0.22663287020E+03  0.12500000000E+03 0.  0.
</event>
<event>
 5    0  0.5771525E-005  0.3787162E+03  0.7546771E-02  0.1051409E+00
         21   -1    0    0  502  501  0.00000000000E+00  0.00000000000E+00  0.13900661602E+03  0.13900661602E+03  0.00000000000E+00 0.  1.
         21   -1    0    0  501  502 -0.00000000000E+00 -0.00000000000E+00 -0.10317923733E+04  0.10317923733E+04  0.00000000000E+00 0.  1.
         25    1    1    2    0    0  0.23607986833E+02  0.12624169748E+03 -0.28936249641E+03  0.34036738615E+03  0.12500000000E+03 0.  0.
         25    1    1    2    0    0 -0.25310915579E+03 -0.87095736096E+02 -0.23741201054E+03  0.37899785585E+03  0.12500000000E+03 0.  0.
         25    1    1    2    0    0  0.22950116896E+03 -0.39145961388E+02 -0.36601125030E+03  0.45143374729E+03  0.12500000000E+03 0.  0.
</event>
<event>
 5    0  0.5771525E-005  0.2051398E+03  0.7546771E-02  0.1145474E+00
         21   -1    0    0  502  501  0.00000000000E+00  0.00000000000E+00  0.11790709946E+03  0.11790709946E+03  0.00000000000E+00 0.  1.
         21   -1    0    0  501  502 -0.00000000000E+00 -0.00000000000E+00 -0.35691110152E+03  0.35691110152E+03  0.00000000000E+00 0.  1.
         25    1    1    2    0    0  0.16361445012E+02  0.76199041994E+02 -0.93118271105E+02  0.17426991507E+03  0.12500000000E+03 0.  0.
         25    1    1    2    0    0 -0.21881599222E+01 -0.46369659512E+02 -0.69220768295E+02  0.15023797167E+03  0.12500000000E+03 0.  0.
         25    1    1    2    0    0 -0.14173285090E+02 -0.29829382482E+02 -0.76664962666E+02  0.15031031425E+03  0.12500000000E+03 0.  0.
</event>
<event>
 5    0  0.5771525E-005  0.2657272E+03  0.7546771E-02  0.1103750E+00
         21   -1    0    0  502  501  0.00000000000E+00  0.00000000000E+00  0.51431240106E+03  0.51431240106E+03  0.00000000000E+00 0. -1.
         21   -1    0    0  501  502 -0.00000000000E+00 -0.00000000000E+00 -0.13729194272E+03  0.13729194272E+03  0.00000000000E+00 0. -1.
         25    1    1    2    0    0  0.13833515933E+02  0.13527550799E+02  0.31818619494E+03  0.34240592204E+03  0.12500000000E+03 0.  0.
         25    1    1    2    0    0  0.29180843916E+02 -0.79998264071E+02  0.55765276468E+02  0.16120176787E+03  0.12500000000E+03 0.  0.
         25    1    1    2    0    0 -0.43014359850E+02  0.66470713273E+02  0.30689869305E+01  0.14799665387E+03  0.12500000000E+03 0.  0.
</event>
<event>
 5    0  0.5771525E-005  0.2474218E+03  0.7546771E-02  0.1114945E+00
         21   -1    0    0  502  501  0.00000000000E+00  0.00000000000E+00  0.43266395388E+02  0.43266395388E+02  0.00000000000E+00 0.  1.
         21   -1    0    0  501  502 -0.00000000000E+00 -0.00000000000E+00 -0.14148977860E+04  0.14148977860E+04  0.00000000000E+00 0.  1.
         25    1    1    2    0    0  0.55127217979E+02 -0.81446910410E+01 -0.21238378646E+03  0.25266028359E+03  0.12500000000E+03 0.  0.
         25    1    1    2    0    0  0.14233790732E+01  0.97666197265E+02 -0.43678649828E+03  0.46470222420E+03  0.12500000000E+03 0.  0.
         25    1    1    2    0    0 -0.56550597053E+02 -0.89521506224E+02 -0.72246110588E+03  0.74080167360E+03  0.12500000000E+03 0.  0.
</event>
<event>
 5    0  0.5771525E-005  0.2408898E+03  0.7546771E-02  0.1119201E+00
         21   -1    0    0  502  501  0.00000000000E+00  0.00000000000E+00  0.47847063514E+03  0.47847063514E+03  0.00000000000E+00 0.  1.
         21   -1    0    0  501  502 -0.00000000000E+00 -0.00000000000E+00 -0.12127785883E+03  0.12127785883E+03  0.00000000000E+00 0.  1.
         25    1    1    2    0    0 -0.55643189595E+02 -0.59175057594E+02  0.32811487378E+02  0.15264155952E+03  0.12500000000E+03 0.  0.
         25    1    1    2    0    0  0.81715201024E+02  0.85323541382E+02  0.22495646117E+03  0.28317466380E+03  0.12500000000E+03 0.  0.
         25    1    1    2    0    0 -0.26072011429E+02 -0.26148483788E+02  0.99424827764E+02  0.16393227065E+03  0.12500000000E+03 0.  0.
</event>
<event>
 5    0  0.5771525E-005  0.3432470E+03  0.7546771E-02  0.1065421E+00
         21   -1    0    0  502  501  0.00000000000E+00  0.00000000000E+00  0.78299618741E+02  0.78299618741E+02  0.00000000000E+00 0.  1.
         21   -1    0    0  501  502 -0.00000000000E+00 -0.00000000000E+00 -0.15047135267E+04  0.15047135267E+04  0.00000000000E+00 0.  1.
         25    1    1    2    0    0  0.11208250264E+03  0.19240334631E+03 -0.40431160122E+03  0.47819912792E+03  0.12500000000E+03 0.  0.
         25    1    1    2    0    0  0.25203116606E+02 -0.99937314926E+02 -0.72235102433E+03  0.74029633685E+03  0.12500000000E+03 0.  0.
         25    1    1    2    0    0 -0.13728561925E+03 -0.92466031382E+02 -0.29975128241E+03  0.36451768066E+03  0.12500000000E+03 0.  0.
</event>
<event>
 5    0  0.6730614E-005  0.3710447E+03  0.7546771E-02  0.1054294E+00
         21   -1    0    0  502  501  0.00000000000E+00  0.00000000000E+00  0.37355560258E+03  0.37355560258E+03  0.00000000000E+00 0.  1.
         21   -1    0    0  501  502 -0.00000000000E+00 -0.00000000000E+00 -0.36855069660E+03  0.36855069660E+03  0.00000000000E+00 0.  1.
         25    1    1    2    0    0 -0.50914492039E+01 -0.18623857209E+03  0.85027947030E+02  0.23992807332E+03  0.12500000000E+03 0.  0.
         25    1    1    2    0    0 -0.15914808084E+02  0.58149705032E+02  0.15367981755E+03  0.20706799761E+03  0.12500000000E+03 0.  0.
         25    1    1    2    0    0  0.21006257288E+02  0.12808886706E+03 -0.23370285859E+03  0.29511022826E+03  0.12500000000E+03 0.  0.
</event>
<event>
 5    0  0.5771525E-005  0.2428196E+03  0.7546771E-02  0.1117929E+00
         21   -1    0    0  502  501  0.00000000000E+00  0.00000000000E+00  0.61476408853E+03  0.61476408853E+03  0.00000000000E+00 0. -1.
         21   -1    0    0  501  502 -0.00000000000E+00 -0.00000000000E+00 -0.95908921273E+02  0.95908921273E+02  0.00000000000E+00 0. -1.
         25    1    1    2    0    0  0.26284491574E+02 -0.12174190696E+03  0.22000859012E+03  0.28202969017E+03  0.12500000000E+03 0.  0.
         25    1    1    2    0    0 -0.48068509865E+02  0.11743530446E+03  0.19942892512E+03  0.26739208767E+03  0.12500000000E+03 0.  0.
         25    1    1    2    0    0  0.21784018291E+02  0.43066025057E+01  0.99417652014E+02  0.16125123196E+03  0.12500000000E+03 0.  0.
</event>
<event>
 5    0  0.5771525E-005  0.3078954E+03  0.7546771E-02  0.1081359E+00
         21   -1    0    0  502  501  0.00000000000E+00  0.00000000000E+00  0.19810509248E+03  0.19810509248E+03  0.00000000000E+00 0. -1.
         21   -1    0    0  501  502 -0.00000000000E+00 -0.00000000000E+00 -0.47853171333E+03  0.47853171333E+03  0.00000000000E+00 0. -1.
         25    1    1    2    0    0 -0.19592056852E+03  0.88742906654E+02 -0.11426576742E+03  0.27375506983E+03  0.12500000000E+03 0.  0.
         25    1    1    2    0    0  0.12390303367E+03 -0.12785523623E+03 -0.99957838050E+02  0.23940654246E+03  0.12500000000E+03 0.  0.
         25    1    1    2    0    0  0.72017534847E+02  0.39112329576E+02 -0.66203015377E+02  0.16347519352E+03  0.12500000000E+03 0.  0.
</event>
<event>
 5    0  0.5771525E-005  0.2789319E+03  0.7546771E-02  0.1096274E+00
         21   -1    0    0  502  501  0.00000000000E+00  0.00000000000E+00  0.41369163077E+03  0.41369163077E+03  0.00000000000E+00 0.  1.
         21   -1    0    0  501  502 -0.00000000000E+00 -0.00000000000E+00 -0.18807006732E+03  0.18807006732E+03  0.00000000000E+00 0.  1.
         25    1    1    2    0    0  0.13488135088E+03  0.44095641655E+02  0.15169545558E+03  0.24243332211E+03  0.12500000000E+03 0.  0.
         25    1    1    2    0    0 -0.12892582503E+03  0.69583547021E+01  0.12050507797E+03  0.21637181165E+03  0.12500000000E+03 0.  0.
         25    1    1    2    0    0 -0.59555258448E+01 -0.51053996357E+02 -0.46578970096E+02  0.14295656434E+03  0.12500000000E+03 0.  0.
</event>
<event>
 5    0  0.5771525E-005  0.5276831E+03  0.7546771E-02  0.1006796E+00
         21   -1    0    0  502  501  0.00000000000E+00  0.00000000000E+00  0.16278199659E+04  0.16278199659E+04  0.00000000000E+00 0.  1.
         21   -1    0    0  501  502 -0.00000000000E+00 -0.00000000000E+00 -0.17105666854E+03  0.17105666854E+03  0.00000000000E+00 0.  1.
         25    1    1    2    0    0  0.26362917163E+03 -0.12992650782E+03  0.20543580463E+03  0.37975005911E+03  0.12500000000E+03 0.  0.
         25    1    1    2    0    0  0.14804203233E+03  0.16101328106E+02  0.20731568284E+03  0.28421908531E+03  0.12500000000E+03 0.  0.
         25    1    1    2    0    0 -0.41167120396E+03  0.11382517972E+03  0.10440118099E+04  0.11349074900E+04  0.12500000000E+03 0.  0.
</event>
<event>
 5    0  0.5793358E-005  0.2543797E+03  0.7546771E-02  0.1110568E+00
         21   -1    0    0  502  501  0.00000000000E+00  0.00000000000E+00  0.29512161491E+03  0.29512161491E+03  0.00000000000E+00 0.  1.
         21   -1    0    0  501  502 -0.00000000000E+00 -0.00000000000E+00 -0.21926220221E+03  0.21926220221E+03  0.00000000000E+00 0.  1.
         25    1    1    2    0    0 -0.92192705711E+00  0.24564476187E+02 -0.75358895270E+01  0.12761682127E+03  0.12500000000E+03 0.  0.
         25    1    1    2    0    0  0.92460333643E+02  0.80430348645E+02 -0.14319170576E+02  0.17563596706E+03  0.12500000000E+03 0.  0.
         25    1    1    2    0    0 -0.91538406586E+02 -0.10499482483E+03  0.97714472806E+02  0.21113102879E+03  0.12500000000E+03 0.  0.
</event>
<event>
 5    0  0.5884791E-005  0.3780740E+03  0.7546771E-02  0.1051648E+00
         21   -1    0    0  502  501  0.00000000000E+00  0.00000000000E+00  0.95056674322E+03  0.95056674322E+03  0.00000000000E+00 0. -1.
         21   -1    0    0  501  502 -0.00000000000E+00 -0.00000000000E+00 -0.15037343308E+03  0.15037343308E+03  0.00000000000E+00 0. -1.
         25    1    1    2    0    0 -0.14547882092E+03 -0.41537023486E+02  0.23513165785E+03  0.30626999229E+03  0.12500000000E+03 0.  0.
         25    1    1    2    0    0  0.19220570914E+03 -0.15960301621E+03  0.44414259271E+03  0.52469400613E+03  0.12500000000E+03 0.  0.
         25    1    1    2    0    0 -0.46726888223E+02  0.20114003970E+03  0.12091905957E+03  0.26997617787E+03  0.12500000000E+03 0.  0.
</event>
<event>
 5    0  0.5771525E-005  0.4195500E+03  0.7546771E-02  0.1037213E+00
         21   -1    0    0  502  501  0.00000000000E+00  0.00000000000E+00  0.41194730426E+03  0.41194730426E+03  0.00000000000E+00 0.  1.
         21   -1    0    0  501  502 -0.00000000000E+00 -0.00000000000E+00 -0.42729310037E+03  0.42729310037E+03  0.00000000000E+00 0.  1.
         25    1    1    2    0    0 -0.18962137449E+03 -0.76422464999E+02 -0.11729426400E+03  0.26679505840E+03  0.12500000000E+03 0.  0.
         25    1    1    2    0    0  0.17064056127E+03  0.25963423348E+03  0.10117318861E+03  0.34984160764E+03  0.12500000000E+03 0.  0.
         25    1    1    2    0    0  0.18980813220E+02 -0.18321176848E+03  0.77527928498E+00  0.22260373860E+03  0.12500000000E+03 0.  0.
</event>
<event>
 5    0  0.5771525E-005  0.8691232E+03  0.7546771E-02  0.9465024E-01
         21   -1    0    0  502  501  0.00000000000E+00  0.00000000000E+00  0.32298084538E+03  0.32298084538E+03  0.00000000000E+00 0.  1.
         21   -1    0    0  501  502 -0.00000000000E+00 -0.00000000000E+00 -0.23387612909E+04  0.23387612909E+04  0.00000000000E+00 0.  1.
         25    1    1    2    0    0 -0.19383683847E+03  0.18739230083E+03 -0.69249145202E+03  0.75356353778E+03  0.12500000000E+03 0.  0.
         25    1    1    2    0    0 -0.22802417539E+03 -0.18226619696E+03 -0.14221639468E+04  0.14571860838E+04  0.12500000000E+03 0.  0.
         25    1    1    2    0    0  0.42186101386E+03 -0.51261038653E+01  0.98874953299E+02  0.45099251474E+03  0.12500000000E+03 0.  0.
</event>
<event>
 5    0  0.5771525E-005  0.3208730E+03  0.7546771E-02  0.1075248E+00
         21   -1    0    0  502  501  0.00000000000E+00  0.00000000000E+00  0.11575840864E+04  0.11575840864E+04  0.00000000000E+00 0. -1.
         21   -1    0    0  501  502 -0.00000000000E+00 -0.00000000000E+00 -0.88943431729E+02  0.88943431729E+02  0.00000000000E+00 0. -1.
         25    1    1    2    0    0  0.69627035655E+02 -0.17287600849E+03  0.52741072288E+03  0.57316760987E+03  0.12500000000E+03 0.  0.
         25    1    1    2    0    0 -0.75815345707E+02 -0.38764066155E+02  0.16420866877E+03  0.22324897843E+03  0.12500000000E+03 0.  0.
         25    1    1    2    0    0  0.61883100523E+01  0.21164007464E+03  0.37702126301E+03  0.45011092981E+03  0.12500000000E+03 0.  0.
</event>
<event>
 5    0  0.5771525E-005  0.3468108E+03  0.7546771E-02  0.1063932E+00
         21   -1    0    0  502  501  0.00000000000E+00  0.00000000000E+00  0.28817600587E+02  0.28817600587E+02  0.00000000000E+00 0.  1.
         21   -1    0    0  501  502 -0.00000000000E+00 -0.00000000000E+00 -0.41737600454E+04  0.41737600454E+04  0.00000000000E+00 0.  1.
         25    1    1    2    0    0 -0.20545023360E+03  0.89861955934E+02 -0.15956576657E+04  0.16161786274E+04  0.12500000000E+03 0.  0.
         25    1    1    2    0    0  0.16300800138E+03 -0.14720941988E+03 -0.20865183312E+04  0.21017673440E+04  0.12500000000E+03 0.  0.
         25    1    1    2    0    0  0.42442232221E+02  0.57347463945E+02 -0.46276644793E+03  0.48463167460E+03  0.12500000000E+03 0.  0.
</event>
<event>
 5    0  0.5771525E-005  0.4226061E+03  0.7546771E-02  0.1036221E+00
         21   -1    0    0  502  501  0.00000000000E+00  0.00000000000E+00  0.66955898232E+03  0.66955898232E+03  0.00000000000E+00 0.  1.
         21   -1    0    0  501  502 -0.00000000000E+00 -0.00000000000E+00 -0.26673661854E+03  0.26673661854E+03  0.00000000000E+00 0.  1.
         25    1    1    2    0    0  0.22559164931E+03  0.10466038412E+03  0.16799375802E+03  0.32510350809E+03  0.12500000000E+03 0.  0.
         25    1    1    2    0    0 -0.31927326071E+03 -0.18042248081E+03  0.13146788556E+03  0.40914116332E+03  0.12500000000E+03 0.  0.
         25    1    1    2    0    0  0.93681611401E+02  0.75762096697E+02  0.10336072021E+03  0.20205092945E+03  0.12500000000E+03 0.  0.
</event>
<event>
 5    0  0.5771525E-005  0.3536273E+03  0.7546771E-02  0.1061136E+00
         21   -1    0    0  502  501  0.00000000000E+00  0.00000000000E+00  0.54778411613E+03  0.54778411613E+03  0.00000000000E+00 0. -1.
         21   -1    0    0  501  502 -0.00000000000E+00 -0.00000000000E+00 -0.22828754996E+03  0.22828754996E+03  0.00000000000E+00 0. -1.
         25    1    1    2    0    0  0.21301371169E+02  0.14455558006E+03  0.34342206364E+03  0.39359087634E+03  0.12500000000E+03 0.  0.
         25    1    1    2    0    0 -0.45317931425E+02  0.50646735794E+02  0.24745310388E+02  0.14441654040E+03  0.12500000000E+03 0.  0.
         25    1    1    2    0    0  0.24016560256E+02 -0.19520231586E+03 -0.48670807850E+02  0.23806424935E+03  0.12500000000E+03 0.  0.
</event>
<event>
 5    0  0.5771525E-005  0.2769194E+03  0.7546771E-02  0.1097383E+00
         21   -1    0    0  502  501  0.00000000000E+00  0.00000000000E+00  0.39486943837E+03  0.39486943837E+03  0.00000000000E+00 0. -1.
         21   -1    0    0  501  502 -0.00000000000E+00 -0.00000000000E+00 -0.19420185470E+03  0.19420185470E+03  0.00000000000E+00 0. -1.
         25    1    1    2    0    0  0.58996021744E+02  0.53936521644E+02 -0.28752510483E+02  0.15113366868E+03  0.12500000000E+03 0.  0.
         25    1    1    2    0    0 -0.11372041907E+03  0.54253716392E+02  0.18879302004E+03  0.25912082871E+03  0.12500000000E+03 0.  0.
         25    1    1    2    0    0  0.54724397327E+02 -0.10819023804E+03  0.40627074114E+02  0.17881679569E+03  0.12500000000E+03 0.  0.
</event>
<event>
 5    0  0.5771525E-005  0.2433531E+03  0.7546771E-02  0.1117579E+00
         21   -1    0    0  502  501  0.00000000000E+00  0.00000000000E+00  0.63045041653E+03  0.63045041653E+03  0.00000000000E+00 0.  1.
         21   -1    0    0  501  502 -0.00000000000E+00 -0.00000000000E+00 -0.93934016368E+02  0.93934016368E+02  0.00000000000E+00 0.  1.
         25    1    1    2    0    0 -0.18870441194E+01  0.12700168384E+02  0.15889173900E+03  0.20257452934E+03  0.12500000000E+03 0.  0.
         25    1    1    2    0    0 -0.40425081415E+02  0.52791368742E+02  0.30664135906E+02  0.14486685284E+03  0.12500000000E+03 0.  0.
         25    1    1    2    0    0  0.42312125534E+02 -0.65491537127E+02  0.34696052525E+03  0.37694305072E+03  0.12500000000E+03 0.  0.
</event>
<event>
 5    0  0.5781677E-005  0.2503878E+03  0.7546771E-02  0.1113060E+00
         21   -1    0    0  502  501  0.00000000000E+00  0.00000000000E+00  0.66541035824E+03  0.66541035824E+03  0.00000000000E+00 0. -1.
         21   -1    0    0  501  502 -0.00000000000E+00 -0.00000000000E+00 -0.94218605020E+02  0.94218605020E+02  0.00000000000E+00 0. -1.
         25    1    1    2    0    0 -0.39037183546E+02  0.12923077043E+03  0.28638017149E+03  0.34038668650E+03  0.12500000000E+03 0.  0.
         25    1    1    2    0    0 -0.33455427902E+02 -0.72679021105E+02  0.10537743732E+03  0.18201898270E+03  0.12500000000E+03 0.  0.
         25    1    1    2    0    0  0.72492611447E+02 -0.56551749329E+02  0.17943414441E+03  0.23722329406E+03  0.12500000000E+03 0.  0.
</event>
<event>
 5    0  0.5771525E-005  0.3277874E+03  0.7546771E-02  0.1072120E+00
         21   -1    0    0  502  501  0.00000000000E+00  0.00000000000E+00  0.41161599458E+03  0.41161599458E+03  0.00000000000E+00 0. -1.
         21   -1    0    0  501  502 -0.00000000000E+00 -0.00000000000E+00 -0.26103118126E+03  0.26103118126E+03  0.00000000000E+00 0. -1.
         25    1    1    2    0    0  0.11631847000E+03 -0.25061975096E+02 -0.12736446778E+03  0.21448728799E+03  0.12500000000E+03 0.  0.
         25    1    1    2    0    0 -0.12870957528E+02  0.83883185202E+02  0.26827709431E+02  0.15344958879E+03  0.12500000000E+03 0.  0.
         25    1    1    2    0    0 -0.10344751247E+03 -0.58821210105E+02  0.25112157166E+03  0.30471029905E+03  0.12500000000E+03 0.  0.
</event>
<event>
 5    0  0.6133746E-005  0.3157918E+03  0.7546771E-02  0.1077603E+00
         21   -1    0    0  502  501  0.00000000000E+00  0.00000000000E+00  0.73227784053E+03  0.73227784053E+03  0.00000000000E+00 0. -1.
         21   -1    0    0  501  502 -0.00000000000E+00 -0.00000000000E+00 -0.13618387483E+03  0.13618387483E+03  0.00000000000E+00 0. -1.
         25    1    1    2    0    0  0.13081918785E+02  0.54894596517E+02  0.39780588404E+03  0.42078388123E+03  0.12500000000E+03 0.  0.
         25    1    1    2    0    0 -0.13872557670E+03 -0.47992416248E+02  0.16199367323E+02  0.19348249831E+03  0.12500000000E+03 0.  0.
         25    1    1    2    0    0  0.12564365792E+03 -0.69021802683E+01  0.18208871434E+03  0.25419533583E+03  0.12500000000E+03 0.  0.
</event>
<event>
 5    0  0.5771525E-005  0.2858190E+03  0.7546771E-02  0.1092552E+00
         21   -1    0    0  502  501  0.00000000000E+00  0.00000000000E+00  0.10764743638E+04  0.10764743638E+04  0.00000000000E+00 0.  1.
         21   -1    0    0  501  502 -0.00000000000E+00 -0.00000000000E+00 -0.75888948947E+02  0.75888948947E+02  0.00000000000E+00 0.  1.
         25    1    1    2    0    0  0.71026721070E+02 -0.33251372222E+02  0.12787646166E+03  0.19526350992E+03  0.12500000000E+03 0.  0.
         25    1    1    2    0    0 -0.14510541080E+03  0.32137781488E+02  0.72236276633E+03  0.74801161984E+03  0.12500000000E+03 0.  0.
         25    1    1    2    0    0  0.74078689726E+02  0.11135907334E+01  0.15034618684E+03  0.20908818296E+03  0.12500000000E+03 0.  0.
</event>
<event>
 5    0  0.5771525E-005  0.2703596E+03  0.7546771E-02  0.1101074E+00
         21   -1    0    0  502  501  0.00000000000E+00  0.00000000000E+00  0.27780687606E+03  0.27780687606E+03  0.00000000000E+00 0.  1.
         21   -1    0    0  501  502 -0.00000000000E+00 -0.00000000000E+00 -0.26311193861E+03  0.26311193861E+03  0.00000000000E+00 0.  1.
         25    1    1    2    0    0  0.53794697131E+02  0.37111392484E+02  0.36936752155E+02  0.14580963120E+03  0.12500000000E+03 0.  0.
         25    1    1    2    0    0  0.32952397716E+01 -0.14565673604E+03 -0.83834019122E+02  0.20947526375E+03  0.12500000000E+03 0.  0.
         25    1    1    2    0    0 -0.57089936902E+02  0.10854534356E+03  0.61592204417E+02  0.18563391971E+03  0.12500000000E+03 0.  0.
</event>
<event>
 5    0  0.5771525E-005  0.3282884E+03  0.7546771E-02  0.1071897E+00
         21   -1    0    0  502  501  0.00000000000E+00  0.00000000000E+00  0.33771963053E+03  0.33771963053E+03  0.00000000000E+00 0.  1.
         21   -1    0    0  501  502 -0.00000000000E+00 -0.00000000000E+00 -0.31912050938E+03  0.31912050938E+03  0.00000000000E+00 0.  1.
         25    1    1    2    0    0  0.14888961355E+03 -0.86283483495E+02  0.22196437563E+02  0.21384723142E+03  0.12500000000E+03 0.  0.
         25    1    1    2    0    0 -0.13737059198E+03 -0.92412174509E+02  0.59256526998E+02  0.21574759681E+03  0.12500000000E+03 0.  0.
         25    1    1    2    0    0 -0.11519021566E+02  0.17869565800E+03 -0.62853843413E+02  0.22724531168E+03  0.12500000000E+03 0.  0.
</event>
<event>
 5    0  0.7581325E-005  0.5014800E+03  0.7546771E-02  0.1013393E+00
         21   -1    0    0  502  501  0.00000000000E+00  0.00000000000E+00  0.71855196174E+03  0.71855196174E+03  0.00000000000E+00 0. -1.
         21   -1    0    0  501  502 -0.00000000000E+00 -0.00000000000E+00 -0.34998470906E+03  0.34998470906E+03  0.00000000000E+00 0. -1.
         25    1    1    2    0    0  0.47344162163E+02  0.73182659638E+01 -0.22605345327E+03  0.26271693977E+03  0.12500000000E+03 0.  0.
         25    1    1    2    0    0  0.91591069927E+02  0.19604861072E+03  0.18141981015E+03  0.30880759280E+03  0.12500000000E+03 0.  0.
         25    1    1    2    0    0 -0.13893523209E+03 -0.20336687669E+03  0.41320089580E+03  0.49701213822E+03  0.12500000000E+03 0.  0.
</event>
<event>
 5    0  0.5771525E-005  0.1973903E+03  0.7546771E-02  0.1151960E+00
         21   -1    0    0  502  501  0.00000000000E+00  0.00000000000E+00  0.82448611213E+02  0.82448611213E+02  0.00000000000E+00 0.  1.
         21   -1    0    0  501  502 -0.00000000000E+00 -0.00000000000E+00 -0.47257249308E+03  0.47257249308E+03  0.00000000000E+00 0.  1.
         25    1    1    2    0    0 -0.10267590998E+02 -0.38158462640E+02 -0.76458283496E+02  0.15176416181E+03  0.12500000000E+03 0.  0.
         25    1    1    2    0    0  0.41121357876E+01  0.24437633343E+02 -0.15204968240E+03  0.19838904582E+03  0.12500000000E+03 0.  0.
         25    1    1    2    0    0  0.61554552103E+01  0.13720829298E+02 -0.16161591597E+03  0.20486789665E+03  0.12500000000E+03 0.  0.
</event>
<event>
 5    0  0.5771525E-005  0.4673289E+03  0.7546771E-02  0.1022677E+00
         21   -1    0    0  502  501  0.00000000000E+00  0.00000000000E+00  0.20123005539E+03  0.20123005539E+03  0.00000000000E+00 0.  1.
         21   -1    0    0  501  502 -0.00000000000E+00 -0.00000000000E+00 -0.10853067866E+04  0.10853067866E+04  0.00000000000E+00 0.  1.
         25    1    1    2    0    0  0.88363444817E+01 -0.26075188545E+03 -0.33012783544E+03  0.43895217790E+03  0.12500000000E+03 0.  0.
         25    1    1    2    0    0  0.24974434987E+03  0.12974024241E+03 -0.37310894691E+03  0.48377686701E+03  0.12500000000E+03 0.  0.
         25    1    1    2    0    0 -0.25858069435E+03  0.13101164304E+03 -0.18083994884E+03  0.36380779706E+03  0.12500000000E+03 0.  0.
</event>
<event>
 5    0  0.5771525E-005  0.3234151E+03  0.7546771E-02  0.1074088E+00
         21   -1    0    0  502  501  0.00000000000E+00  0.00000000000E+00  0.70186888794E+03  0.70186888794E+03  0.00000000000E+00 0. -1.
         21   -1    0    0  501  502 -0.00000000000E+00 -0.00000000000E+00 -0.14902685286E+03  0.14902685286E+03  0.00000000000E+00 0. -1.
         25    1    1    2    0    0  0.66925082475E+02 -0.50366812497E+02 -0.10683382538E+02  0.15084733053E+03  0.12500000000E+03 0.  0.
         25    1    1    2    0    0 -0.61459454647E+02 -0.73332961864E+02  0.48025103124E+03  0.50539196755E+03  0.12500000000E+03 0.  0.
         25    1    1    2    0    0 -0.54656278280E+01  0.12369977436E+03  0.83274386371E+02  0.19465644271E+03  0.12500000000E+03 0.  0.
</event>
<event>
 5    0  0.5771525E-005  0.5961381E+03  0.7546771E-02  0.9913451E-01
         21   -1    0    0  502  501  0.00000000000E+00  0.00000000000E+00  0.51852331629E+03  0.51852331629E+03  0.00000000000E+00 0.  1.
         21   -1    0    0  501  502 -0.00000000000E+00 -0.00000000000E+00 -0.68537056095E+03  0.68537056095E+03  0.00000000000E+00 0.  1.
         25    1    1    2    0    0  0.25692353639E+02 -0.47637415253E+03 -0.10121176174E+03  0.50344935292E+03  0.12500000000E+03 0.  0.
         25    1    1    2    0    0  0.10525990415E+03  0.23504430584E+03  0.15607583232E+03  0.32605235556E+03  0.12500000000E+03 0.  0.
         25    1    1    2    0    0 -0.13095225779E+03  0.24132984669E+03 -0.22171131524E+03  0.37439216876E+03  0.12500000000E+03 0.  0.
</event>
<event>
 5    0  0.5849198E-005  0.3281655E+03  0.7546771E-02  0.1071951E+00
         21   -1    0    0  502  501  0.00000000000E+00  0.00000000000E+00  0.38440525158E+03  0.38440525158E+03  0.00000000000E+00 0.  1.
         21   -1    0    0  501  502 -0.00000000000E+00 -0.00000000000E+00 -0.28015375573E+03  0.28015375573E+03  0.00000000000E+00 0.  1.
         25    1    1    2    0    0 -0.13000488629E+03 -0.11969338408E+03  0.95447937212E+02  0.23656518207E+03  0.12500000000E+03 0.  0.
         25    1    1    2    0    0  0.10270526512E+02  0.42032689609E+02  0.14362012873E+03  0.19525360967E+03  0.12500000000E+03 0.  0.
         25    1    1    2    0    0  0.11973435978E+03  0.77660694470E+02 -0.13481657009E+03  0.23274021558E+03  0.12500000000E+03 0.  0.
</event>
<event>
 5    0  0.5771525E-005  0.2264796E+03  0.7546771E-02  0.1129142E+00
         21   -1    0    0  502  501  0.00000000000E+00  0.00000000000E+00  0.93303321079E+03  0.93303321079E+03  0.00000000000E+00 0. -1.
         21   -1    0    0  501  502 -0.00000000000E+00 -0.00000000000E+00 -0.54974493595E+02  0.54974493595E+02  0.00000000000E+00 0. -1.
         25    1    1    2    0    0 -0.40131920465E+02  0.10513481998E+03  0.27297900535E+03  0.32063443167E+03  0.12500000000E+03 0.  0.
         25    1    1    2    0    0  0.24479486356E+02 -0.32547909023E+02  0.22729580092E+03  0.26257759377E+03  0.12500000000E+03 0.  0.
         25    1    1    2    0    0  0.15652434108E+02 -0.72586910959E+02  0.37778391093E+03  0.40479567894E+03  0.12500000000E+03 0.  0.
</event>
<event>
 5    0  0.5771525E-005  0.3935835E+03  0.7546771E-02  0.1046024E+00
         21   -1    0    0  502  501  0.00000000000E+00  0.00000000000E+00  0.91839249757E+03  0.91839249757E+03  0.00000000000E+00 0.  1.
         21   -1    0    0  501  502 -0.00000000000E+00 -0.00000000000E+00 -0.16867299051E+03  0.16867299051E+03  0.00000000000E+00 0.  1.
         25    1    1    2    0    0 -0.38112913898E+02  0.13303279008E+03  0.22820417169E+03  0.29470741664E+03  0.12500000000E+03 0.  0.
         25    1    1    2    0    0  0.55459816706E+02 -0.31359188513E+03  0.44026830166E+03  0.55756330504E+03  0.12500000000E+03 0.  0.
         25    1    1    2    0    0 -0.17346902808E+02  0.18055909505E+03  0.81247033710E+02  0.23479476640E+03  0.12500000000E+03 0.  0.
</event>
<event>
 5    0  0.5771525E-005  0.7152738E+03  0.7546771E-02  0.9691463E-01
         21   -1    0    0  502  501  0.00000000000E+00  0.00000000000E+00  0.11640565607E+04  0.11640565607E+04  0.00000000000E+00 0.  1.
         21   -1    0    0  501  502 -0.00000000000E+00 -0.00000000000E+00 -0.43951183714E+03  0.43951183714E+03  0.00000000000E+00 0. -1.
         25    1    1    2    0    0  0.18932142377E+03 -0.11209111863E+03  0.39438654088E+03  0.46858591955E+03  0.12500000000E+03 0.  0.
         25    1    1    2    0    0 -0.57251618673E+03 -0.14077927530E+03  0.11853480253E+03  0.61422234397E+03  0.12500000000E+03 0.  0.
         25    1    1    2    0    0  0.38319476296E+03  0.25287039393E+03  0.21162338019E+03  0.52076013435E+03  0.12500000000E+03 0.  0.
</event>
<event>
 5    0  0.5792470E-005  0.3516653E+03  0.7546771E-02  0.1061934E+00
         21   -1    0    0  502  501  0.00000000000E+00  0.00000000000E+00  0.10278553551E+04  0.10278553551E+04  0.00000000000E+00 0. -1.
         21   -1    0    0  501  502 -0.00000000000E+00 -0.00000000000E+00 -0.12031702003E+03  0.12031702003E+03  0.00000000000E+00 0. -1.
         25    1    1    2    0    0  0.10742062966E+03  0.63180891233E+02  0.77888016628E+03  0.79863028375E+03  0.12500000000E+03 0.  0.
         25    1    1    2    0    0 -0.72780187783E+02 -0.10155378698E+03  0.12074425365E+03  0.21404275781E+03  0.12500000000E+03 0.  0.
         25    1    1    2    0    0 -0.34640441880E+02  0.38372895752E+02  0.79139151352E+01  0.13549933356E+03  0.12500000000E+03 0.  0.
</event>
<event>
 5    0  0.5771525E-005  0.3376137E+03  0.7546771E-02  0.1067817E+00
         21   -1    0    0  502  501  0.00000000000E+00  0.00000000000E+00  0.17069869344E+04  0.17069869344E+04  0.00000000000E+00 0.  1.
         21   -1    0    0  501  502 -0.00000000000E+00 -0.00000000000E+00 -0.66774380315E+02  0.66774380315E+02  0.00000000000E+00 0.  1.
         25    1    1    2    0    0 -0.11490586956E+03 -0.58021007410E+02  0.68101233696E+03  0.70425322098E+03  0.12500000000E+03 0.  0.
         25    1    1    2    0    0 -0.15111794085E+02  0.16835704343E+03  0.23611541937E+03  0.31614545965E+03  0.12500000000E+03 0.  0.
         25    1    1    2    0    0  0.13001766364E+03 -0.11033603602E+03  0.72308479772E+03  0.75336263406E+03  0.12500000000E+03 0.  0.
</event>
<event>
 5    0  0.5771525E-005  0.4456447E+03  0.7546771E-02  0.1029029E+00
         21   -1    0    0  502  501  0.00000000000E+00  0.00000000000E+00  0.18086561943E+03  0.18086561943E+03  0.00000000000E+00 0. -1.
         21   -1    0    0  501  502 -0.00000000000E+00 -0.00000000000E+00 -0.10980483793E+04  0.10980483793E+04  0.00000000000E+00 0. -1.
         25    1    1    2    0    0  0.17062553861E+02  0.11464728049E+03 -0.28652199718E+03  0.33339913697E+03  0.12500000000E+03 0.  0.
         25    1    1    2    0    0 -0.10078830856E+03  0.20881373148E+03 -0.50084601687E+03  0.56589150038E+03  0.12500000000E+03 0.  0.
         25    1    1    2    0    0  0.83725754702E+02 -0.32346101197E+03 -0.12981474582E+03  0.37962336137E+03  0.12500000000E+03 0.  0.
</event>
<event>
 5    0  0.5771525E-005  0.3568813E+03  0.7546771E-02  0.1059826E+00
         21   -1    0    0  502  501  0.00000000000E+00  0.00000000000E+00  0.38764076661E+03  0.38764076661E+03  0.00000000000E+00 0. -1.
         21   -1    0    0  501  502 -0.00000000000E+00 -0.00000000000E+00 -0.32856262923E+03  0.32856262923E+03  0.00000000000E+00 0. -1.
         25    1    1    2    0    0  0.15043463806E+03 -0.32972206472E+02 -0.51528451901E+02  0.20493396030E+03  0.12500000000E+03 0.  0.
         25    1    1    2    0    0 -0.18457701631E+03  0.15722074424E+03  0.17089233736E+03  0.32189474729E+03  0.12500000000E+03 0.  0.
         25    1    1    2    0    0  0.34142378254E+02 -0.12424853776E+03 -0.60285748069E+02  0.18937468825E+03  0.12500000000E+03 0.  0.
</event>
<event>
 5    0  0.5771525E-005  0.3023233E+03  0.7546771E-02  0.1084085E+00
         21   -1    0    0  502  501  0.00000000000E+00  0.00000000000E+00  0.13299241469E+03  0.13299241469E+03  0.00000000000E+00 0. -1.
         21   -1    0    0  501  502 -0.00000000000E+00 -0.00000000000E+00 -0.68725265770E+03  0.68725265770E+03  0.00000000000E+00 0. -1.
         25    1    1    2    0    0  0.15721095821E+03  0.12074086924E+03 -0.18897345229E+03  0.30104751876E+03  0.12500000000E+03 0.  0.
         25    1    1    2    0    0  0.56729114474E+01 -0.13637516536E+01 -0.17355227956E+03  0.21396129435E+03  0.12500000000E+03 0.  0.
         25    1    1    2    0    0 -0.16288386965E+03 -0.11937711759E+03 -0.19173451117E+03  0.30523625927E+03  0.12500000000E+03 0.  0.
</event>
<event>
 5    0  0.5771525E-005  0.4733200E+03  0.7546771E-02  0.1020987E+00
         21   -1    0    0  502  501  0.00000000000E+00  0.00000000000E+00  0.88231467301E+03  0.88231467301E+03  0.00000000000E+00 0.  1.
         21   -1    0    0  501  502 -0.00000000000E+00 -0.00000000000E+00 -0.25391374208E+03  0.25391374208E+03  0.00000000000E+00 0.  1.
         25    1    1    2    0    0  0.71661220764E+02 -0.24321749907E+03  0.18866041037E+03  0.33986443306E+03  0.12500000000E+03 0.  0.
         25    1    1    2    0    0 -0.28923190346E+03  0.19313087308E+03  0.38699456749E+03  0.53511159900E+03  0.12500000000E+03 0.  0.
         25    1    1    2    0    0  0.21757068270E+03  0.50086625994E+02  0.52745953064E+02  0.26125238303E+03  0.12500000000E+03 0.  0.
</event>
<event>
 5    0  0.6913652E-005  0.2879580E+03  0.7546771E-02  0.1091420E+00
         21   -1    0    0  502  501  0.00000000000E+00  0.00000000000E+00  0.57328236876E+03  0.57328236876E+03  0.00000000000E+00 0. -1.
         21   -1    0    0  501  502 -0.00000000000E+00 -0.00000000000E+00 -0.14464044947E+03  0.14464044947E+03  0.00000000000E+00 0. -1.
         25    1    1    2    0    0  0.36851774329E+02 -0.20669655130E+01  0.28758602587E+03  0.31574205912E+03  0.12500000000E+03 0.  0.
         25    1    1    2    0    0  0.64984951975E+02  0.11079911588E+03  0.42680456678E+02  0.18424469991E+03  0.12500000000E+03 0.  0.
         25    1    1    2    0    0 -0.10183672630E+03 -0.10873215036E+03  0.98375436745E+02  0.21793605920E+03  0.12500000000E+03 0.  0.
</event>
<event>
 5    0  0.5771525E-005  0.4017690E+03  0.7546771E-02  0.1043169E+00
         21   -1    0    0  502  501  0.00000000000E+00  0.00000000000E+00  0.44368859706E+03  0.44368859706E+03  0.00000000000E+00 0.  1.
         21   -1    0    0  501  502 -0.00000000000E+00 -0.00000000000E+00 -0.36380987802E+03  0.36380987802E+03  0.00000000000E+00 0.  1.
         25    1    1    2    0    0  0.17749790079E+03  0.50850198404E+02  0.15226480068E+03  0.27000151294E+03  0.12500000000E+03 0.  0.
         25    1    1    2    0    0 -0.25533538999E+03 -0.98687044142E+01 -0.19218114067E+03  0.34329599988E+03  0.12500000000E+03 0.  0.
         25    1    1    2    0    0  0.77837489198E+02 -0.40981493990E+02  0.11979505903E+03  0.19420096226E+03  0.12500000000E+03 0.  0.
</event>
<event>
 5    0  0.5771525E-005  0.3094873E+03  0.7546771E-02  0.1080592E+00
         21   -1    0    0  502  501  0.00000000000E+00  0.00000000000E+00  0.29156127655E+03  0.29156127655E+03  0.00000000000E+00 0.  1.
         21   -1    0    0  501  502 -0.00000000000E+00 -0.00000000000E+00 -0.32851541718E+03  0.32851541718E+03  0.00000000000E+00 0.  1.
         25    1    1    2    0    0  0.19347415521E+03  0.23360275322E+02 -0.54161241843E+01  0.23158645383E+03  0.12500000000E+03 0.  0.
         25    1    1    2    0    0 -0.11525827954E+03  0.54186394562E+02 -0.10429345697E+03  0.20669485123E+03  0.12500000000E+03 0.  0.
         25    1    1    2    0    0 -0.78215875676E+02 -0.77546669883E+02  0.72755440523E+02  0.18179538868E+03  0.12500000000E+03 0.  0.
</event>
<event>
 5    0  0.5771525E-005  0.4294979E+03  0.7546771E-02  0.1034019E+00
         21   -1    0    0  502  501  0.00000000000E+00  0.00000000000E+00  0.15621704915E+03  0.15621704915E+03  0.00000000000E+00 0.  1.
         21   -1    0    0  501  502 -0.00000000000E+00 -0.00000000000E+00 -0.11808469381E+04  0.11808469381E+04  0.00000000000E+00 0.  1.
         25    1    1    2    0    0 -0.11738816072E+03 -0.35947539796E+02 -0.36089163301E+03  0.40117325020E+03  0.12500000000E+03 0.  0.
         25    1    1    2    0    0 -0.10642613869E+03 -0.41636589547E+02 -0.64559236453E+03  0.66743885842E+03  0.12500000000E+03 0.  0.
         25    1    1    2    0    0  0.22381429941E+03  0.77584129343E+02 -0.18145891365E+02  0.26845187859E+03  0.12500000000E+03 0.  0.
</event>
<event>
 5    0  0.5771525E-005  0.3611107E+03  0.7546771E-02  0.1058145E+00
         21   -1    0    0  502  501  0.00000000000E+00  0.00000000000E+00  0.72085147228E+02  0.72085147228E+02  0.00000000000E+00 0.  1.
         21   -1    0    0  501  502 -0.00000000000E+00 -0.00000000000E+00 -0.18089843688E+04  0.18089843688E+04  0.00000000000E+00 0.  1.
         25    1    1    2    0    0  0.64307385237E+02  0.62074433569E+02 -0.25990272722E+03  0.30193228167E+03  0.12500000000E+03 0.  0.
         25    1    1    2    0    0 -0.26500069226E+03 -0.10671534309E+02 -0.57749468521E+03  0.64766068275E+03  0.12500000000E+03 0.  0.
         25    1    1    2    0    0  0.20069330702E+03 -0.51402899260E+02 -0.89950180918E+03  0.93147655164E+03  0.12500000000E+03 0.  0.
</event>
<event>
 5    0  0.5771525E-005  0.3857521E+03  0.7546771E-02  0.1048828E+00
         21   -1    0    0  502  501  0.00000000000E+00  0.00000000000E+00  0.64730012059E+03  0.64730012059E+03  0.00000000000E+00 0.  1.
         21   -1    0    0  501  502 -0.00000000000E+00 -0.00000000000E+00 -0.22988514580E+03  0.22988514580E+03  0.00000000000E+00 0.  1.
         25    1    1    2    0    0 -0.21525807692E+03 -0.15751842442E+02  0.34155143220E+03  0.42292616501E+03  0.12500000000E+03 0.  0.
         25    1    1    2    0    0 -0.34932655641E+02  0.45339962140E+02  0.10289692517E+03  0.17172297402E+03  0.12500000000E+03 0.  0.
         25    1    1    2    0    0  0.25019073256E+03 -0.29588119698E+02 -0.27033382572E+02  0.28253612735E+03  0.12500000000E+03 0.  0.
</event>
<event>
 5    0  0.5771525E-005  0.3403118E+03  0.7546771E-02  0.1066663E+00
         21   -1    0    0  502  501  0.00000000000E+00  0.00000000000E+00  0.30344572848E+03  0.30344572848E+03  0.00000000000E+00 0. -1.
         21   -1    0    0  501  502 -0.00000000000E+00 -0.00000000000E+00 -0.38165667673E+03  0.38165667673E+03  0.00000000000E+00 0. -1.
         25    1    1    2    0    0  0.25854076824E+02 -0.17484928215E+02  0.87293193273E+02  0.15562537581E+03  0.12500000000E+03 0.  0.
         25    1    1    2    0    0 -0.20769968072E+03 -0.36092145317E+02 -0.17667438290E+03  0.30212685729E+03  0.12500000000E+03 0.  0.
         25    1    1    2    0    0  0.18184560390E+03  0.53577073532E+02  0.11170241374E+02  0.22735017211E+03  0.12500000000E+03 0.  0.
</event>
<event>
 5    0  0.6070409E-005  0.3485299E+03  0.7546771E-02  0.1063220E+00
         21   -1    0    0  502  501  0.00000000000E+00  0.00000000000E+00  0.25041693746E+03  0.25041693746E+03  0.00000000000E+00 0. -1.
         21   -1    0    0  501  502 -0.00000000000E+00 -0.00000000000E+00 -0.48508343872E+03  0.48508343872E+03  0.00000000000E+00 0. -1.
         25    1    1    2    0    0 -0.19357149861E+03  0.13978829686E+03 -0.10149610335E+02  0.26970114498E+03  0.12500000000E+03 0.  0.
         25    1    1    2    0    0  0.41580049198E+02 -0.15875165664E+03 -0.81570495905E+02  0.22183267293E+03  0.12500000000E+03 0.  0.
         25    1    1    2    0    0  0.15199144941E+03  0.18963359775E+02 -0.14294639501E+03  0.24396655827E+03  0.12500000000E+03 0.  0.
</event>
<event>
 5    0  0.5771525E-005  0.4197644E+03  0.7546771E-02  0.1037143E+00
         21   -1    0    0  502  501  0.00000000000E+00  0.00000000000E+00  0.54079660363E+03  0.54079660363E+03  0.00000000000E+00 0.  1.
         21   -1    0    0  501  502 -0.00000000000E+00 -0.00000000000E+00 -0.32581959824E+03  0.32581959824E+03  0.00000000000E+00 0. -1.
         25    1    1    2    0    0  0.68710553715E+02  0.29059313152E+03 -0.44757977619E+02  0.32679318359E+03  0.12500000000E+03 0.  0.
         25    1    1    2    0    0 -0.11501265992E+03 -0.67813958479E+02  0.15785910502E+02  0.18357788505E+03  0.12500000000E+03 0.  0.
         25    1    1    2    0    0  0.46302106210E+02 -0.22277917304E+03  0.24394907251E+03  0.35624513324E+03  0.12500000000E+03 0.  0.
</event>
<event>
 5    0  0.5771525E-005  0.5012163E+03  0.7546771E-02  0.1013462E+00
         21   -1    0    0  502  501  0.00000000000E+00  0.00000000000E+00  0.33907556260E+03  0.33907556260E+03  0.00000000000E+00 0.  1.
         21   -1    0    0  501  502 -0.00000000000E+00 -0.00000000000E+00 -0.74089034239E+03  0.74089034239E+03  0.00000000000E+00 0.  1.
         25    1    1    2    0    0 -0.12035325265E+02 -0.12958425805E+03 -0.54398632400E+03  0.57313440805E+03  0.12500000000E+03 0.  0.
         25    1    1    2    0    0 -0.66262954675E+00  0.20052753282E+03  0.23660080184E+03  0.33438999675E+03  0.12500000000E+03 0.  0.
         25    1    1    2    0    0  0.12697954812E+02 -0.70943274767E+02 -0.94429257625E+02  0.17244150019E+03  0.12500000000E+03 0.  0.
</event>
<event>
 5    0  0.5771525E-005  0.4021860E+03  0.7546771E-02  0.1043025E+00
         21   -1    0    0  502  501  0.00000000000E+00  0.00000000000E+00  0.91098054855E+03  0.91098054855E+03  0.00000000000E+00 0. -1.
         21   -1    0    0  501  502 -0.00000000000E+00 -0.00000000000E+00 -0.17755982562E+03  0.17755982562E+03  0.00000000000E+00 0. -1.
         25    1    1    2    0    0  0.64441083649E+02  0.54056261990E+02 -0.11553935544E+03  0.18986594054E+03  0.12500000000E+03 0.  0.
         25    1    1    2    0    0 -0.47204716104E+02 -0.92801659682E+02  0.45830624781E+03  0.48632298942E+03  0.12500000000E+03 0.  0.
         25    1    1    2    0    0 -0.17236367544E+02  0.38745397691E+02  0.39065383056E+03  0.41235144420E+03  0.12500000000E+03 0.  0.
</event>
<event>
 5    0  0.5771525E-005  0.5427212E+03  0.7546771E-02  0.1003193E+00
         21   -1    0    0  502  501  0.00000000000E+00  0.00000000000E+00  0.27541531195E+03  0.27541531195E+03  0.00000000000E+00 0. -1.
         21   -1    0    0  501  502 -0.00000000000E+00 -0.00000000000E+00 -0.10694622483E+04  0.10694622483E+04  0.00000000000E+00 0. -1.
         25    1    1    2    0    0 -0.71413650220E+02  0.28444533138E+03 -0.67563667915E+03  0.74707360963E+03  0.12500000000E+03 0.  0.
         25    1    1    2    0    0  0.15385687284E+03 -0.35312838484E+03 -0.19035235045E+02  0.40541205418E+03  0.12500000000E+03 0.  0.
         25    1    1    2    0    0 -0.82443222622E+02  0.68683053457E+02 -0.99375022136E+02  0.19239189643E+03  0.12500000000E+03 0.  0.
</event>
<event>
 5    0  0.5771525E-005  0.3784526E+03  0.7546771E-02  0.1051507E+00
         21   -1    0    0  502  501  0.00000000000E+00  0.00000000000E+00  0.66842667928E+03  0.66842667928E+03  0.00000000000E+00 0.  1.
         21   -1    0    0  501  502 -0.00000000000E+00 -0.00000000000E+00 -0.21427383615E+03  0.21427383615E+03  0.00000000000E+00 0.  1.
         25    1    1    2    0    0 -0.16668658837E+03  0.89235898164E+02  0.12840233564E+03  0.26049879858E+03  0.12500000000E+03 0.  0.
         25    1    1    2    0    0 -0.10609974083E+03 -0.37590051321E+02 -0.10555841661E+02  0.16854255474E+03  0.12500000000E+03 0.  0.
         25    1    1    2    0    0  0.27278632920E+03 -0.51645846843E+02  0.33630634915E+03  0.45365916212E+03  0.12500000000E+03 0.  0.
</event>
<event>
 5    0  0.5771525E-005  0.2524527E+03  0.7546771E-02  0.1111765E+00
         21   -1    0    0  502  501  0.00000000000E+00  0.00000000000E+00  0.45518826416E+02  0.45518826416E+02  0.00000000000E+00 0. -1.
         21   -1    0    0  501  502 -0.00000000000E+00 -0.00000000000E+00 -0.14001319230E+04  0.14001319230E+04  0.00000000000E+00 0. -1.
         25    1    1    2    0    0 -0.12810264304E+03  0.22539830748E+02 -0.69455791331E+03  0.71760297245E+03  0.12500000000E+03 0.  0.
         25    1    1    2    0    0  0.85944605047E+02  0.32107130771E+02 -0.25365666062E+03  0.29729454159E+03  0.12500000000E+03 0.  0.
         25    1    1    2    0    0  0.42158037998E+02 -0.54646961519E+02 -0.40639852262E+03  0.43075323534E+03  0.12500000000E+03 0.  0.
</event>
<event>
 5    0  0.5771525E-005  0.3394094E+03  0.7546771E-02  0.1067048E+00
         21   -1    0    0  502  501  0.00000000000E+00  0.00000000000E+00  0.40449653205E+03  0.40449653205E+03  0.00000000000E+00 0. -1.
         21   -1    0    0  501  502 -0.00000000000E+00 -0.00000000000E+00 -0.28479536030E+03  0.28479536030E+03  0.00000000000E+00 0. -1.
         25    1    1    2    0    0 -0.63926291906E+02  0.12032833492E+03 -0.10396997710E+03  0.21213258854E+03  0.12500000000E+03 0.  0.
         25    1    1    2    0    0 -0.27641071896E+02 -0.13471880046E+03  0.25783930807E+03  0.31783532346E+03  0.12500000000E+03 0.  0.
         25    1    1    2    0    0  0.91567363802E+02  0.14390465536E+02 -0.34168159217E+02  0.15932398036E+03  0.12500000000E+03 0.  0.
</event>
<event>
 5    0  0.6074397E-005  0.3413691E+03  0.7546771E-02  0.1066214E+00
         21   -1    0    0  502  501  0.00000000000E+00  0.00000000000E+00  0.14265058337E+03  0.14265058337E+03  0.00000000000E+00 0. -1.
         21   -1    0    0  501  502 -0.00000000000E+00 -0.00000000000E+00 -0.81691113274E+03  0.81691113274E+03  0.00000000000E+00 0. -1.
         25    1    1    2    0    0 -0.22428001265E+01  0.56152999177E+02 -0.83009732536E+01  0.13730293378E+03  0.12500000000E+03 0.  0.
         25    1    1    2    0    0  0.13038196073E+03  0.95955290672E+02 -0.48296054168E+03  0.52448332510E+03  0.12500000000E+03 0.  0.
         25    1    1    2    0    0 -0.12813916060E+03 -0.15210828985E+03 -0.18299903444E+03  0.29777545723E+03  0.12500000000E+03 0.  0.
</event>
<event>
 5    0  0.5771525E-005  0.2736112E+03  0.7546771E-02  0.1099230E+00
         21   -1    0    0  502  501  0.00000000000E+00  0.00000000000E+00  0.64256147125E+02  0.64256147125E+02  0.00000000000E+00 0.  1.
         21   -1    0    0  501  502 -0.00000000000E+00 -0.00000000000E+00 -0.11650723941E+04  0.11650723941E+04  0.00000000000E+00 0.  1.
         25    1    1    2    0    0  0.69335386711E+02  0.82001428309E+02 -0.15245522667E+03  0.22449771989E+03  0.12500000000E+03 0.  0.
         25    1    1    2    0    0  0.23240518597E+02 -0.92123993145E+02 -0.64414864185E+03  0.66300786166E+03  0.12500000000E+03 0.  0.
         25    1    1    2    0    0 -0.92575905308E+02  0.10122564836E+02 -0.30421237846E+03  0.34182295969E+03  0.12500000000E+03 0.  0.
</event>
<event>
 5    0  0.5771525E-005  0.3447009E+03  0.7546771E-02  0.1064811E+00
         21   -1    0    0  502  501  0.00000000000E+00  0.00000000000E+00  0.12476928871E+04  0.12476928871E+04  0.00000000000E+00 0.  1.
         21   -1    0    0  501  502 -0.00000000000E+00 -0.00000000000E+00 -0.95230708916E+02  0.95230708916E+02  0.00000000000E+00 0.  1.
         25    1    1    2    0    0  0.72603887850E+02  0.13651556026E+02  0.49994903888E+03  0.52060707928E+03  0.12500000000E+03 0.  0.
         25    1    1    2    0    0 -0.19646960836E+03  0.46518818814E+02  0.57261565077E+03  0.61990159785E+03  0.12500000000E+03 0.  0.
         25    1    1    2    0    0  0.12386572051E+03 -0.60170374840E+02  0.79897488578E+02  0.20241491893E+03  0.12500000000E+03 0.  0.
</event>
<event>
 5    0  0.5771525E-005  0.3724197E+03  0.7546771E-02  0.1053772E+00
         21   -1    0    0  502  501  0.00000000000E+00  0.00000000000E+00  0.14401063110E+03  0.14401063110E+03  0.00000000000E+00 0.  1.
         21   -1    0    0  501  502 -0.00000000000E+00 -0.00000000000E+00 -0.96309850800E+03  0.96309850800E+03  0.00000000000E+00 0.  1.
         25    1    1    2    0    0 -0.81704256659E+01 -0.28803405489E+03 -0.49287454625E+03  0.58444904908E+03  0.12500000000E+03 0.  0.
         25    1    1    2    0    0  0.65116951431E+02  0.17283262286E+03 -0.13568620240E+03  0.26104995386E+03  0.12500000000E+03 0.  0.
         25    1    1    2    0    0 -0.56946525765E+02  0.11520143203E+03 -0.19052712825E+03  0.26161013615E+03  0.12500000000E+03 0.  0.
</event>
<event>
 5    0  0.5771525E-005  0.3739307E+03  0.7546771E-02  0.1053200E+00
         21   -1    0    0  502  501  0.00000000000E+00  0.00000000000E+00  0.38226045695E+03  0.38226045695E+03  0.00000000000E+00 0. -1.
         21   -1    0    0  501  502 -0.00000000000E+00 -0.00000000000E+00 -0.36578254957E+03  0.36578254957E+03  0.00000000000E+00 0. -1.
         25    1    1    2    0    0 -0.77211220717E+02  0.10170701266E+03  0.19478193941E+03  0.26433102911E+03  0.12500000000E+03 0.  0.
         25    1    1    2    0    0  0.21248178059E+02 -0.16332495747E+03 -0.24397275086E+03  0.31980342394E+03  0.12500000000E+03 0.  0.
         25    1    1    2    0    0  0.55963042658E+02  0.61617944805E+02  0.65668718826E+02  0.16390855346E+03  0.12500000000E+03 0.  0.
</event>
<event>
 5    0  0.5771525E-005  0.3644396E+03  0.7546771E-02  0.1056840E+00
         21   -1    0    0  502  501  0.00000000000E+00  0.00000000000E+00  0.20892747824E+03  0.20892747824E+03  0.00000000000E+00 0. -1.
         21   -1    0    0  501  502 -0.00000000000E+00 -0.00000000000E+00 -0.63570479350E+03  0.63570479350E+03  0.00000000000E+00 0. -1.
         25    1    1    2    0    0 -0.45418567028E+02 -0.17441621348E+03 -0.26144053779E+03  0.34126238667E+03  0.12500000000E+03 0.  0.
         25    1    1    2    0    0 -0.10613895707E+03  0.18896425433E+03 -0.64379664769E+01  0.25027867475E+03  0.12500000000E+03 0.  0.
         25    1    1    2    0    0  0.15155752410E+03 -0.14548040854E+02 -0.15889881099E+03  0.25309121032E+03  0.12500000000E+03 0.  0.
</event>
<event>
 5    0  0.5771525E-005  0.4212565E+03  0.7546771E-02  0.1036658E+00
         21   -1    0    0  502  501  0.00000000000E+00  0.00000000000E+00  0.10386153239E+04  0.10386153239E+04  0.00000000000E+00 0.  1.
         21   -1    0    0  501  502 -0.00000000000E+00 -0.00000000000E+00 -0.17085929015E+03  0.17085929015E+03  0.00000000000E+00 0.  1.
         25    1    1    2    0    0  0.21543525124E+03  0.11569340622E+03  0.34080135046E+03  0.43768467210E+03  0.12500000000E+03 0.  0.
         25    1    1    2    0    0  0.12076869480E+03  0.30217695113E+02  0.15443132824E+03  0.23446155737E+03  0.12500000000E+03 0.  0.
         25    1    1    2    0    0 -0.33620394604E+03 -0.14591110133E+03  0.37252335505E+03  0.53732838458E+03  0.12500000000E+03 0.  0.
</event>
<event>
 5    0  0.5771525E-005  0.3490011E+03  0.7546771E-02  0.1063026E+00
         21   -1    0    0  502  501  0.00000000000E+00  0.00000000000E+00  0.18359495456E+04  0.18359495456E+04  0.00000000000E+00 0.  1.
         21   -1    0    0  501  502 -0.00000000000E+00 -0.00000000000E+00 -0.66342651709E+02  0.66342651709E+02  0.00000000000E+00 0.  1.
         25    1    1    2    0    0 -0.93455379628E+02 -0.24471532325E+03  0.71288338169E+03  0.76970592651E+03  0.12500000000E+03 0.  0.
         25    1    1    2    0    0  0.65007473160E+02  0.76684023563E+02  0.23791384614E+03  0.28693973099E+03  0.12500000000E+03 0.  0.
         25    1    1    2    0    0  0.28447906469E+02  0.16803129968E+03  0.81880966608E+03  0.84564653983E+03  0.12500000000E+03 0.  0.
</event>
<event>
 5    0  0.5771525E-005  0.4363942E+03  0.7546771E-02  0.1031859E+00
         21   -1    0    0  502  501  0.00000000000E+00  0.00000000000E+00  0.11735661676E+04  0.11735661676E+04  0.00000000000E+00 0. -1.
         21   -1    0    0  501  502 -0.00000000000E+00 -0.00000000000E+00 -0.16227449702E+03  0.16227449702E+03  0.00000000000E+00 0. -1.
         25    1    1    2    0    0 -0.81561760012E+02  0.17323851600E+03  0.54259655631E+02  0.23501705119E+03  0.12500000000E+03 0.  0.
         25    1    1    2    0    0  0.17662996483E+03 -0.27502511030E+03  0.53666578897E+03  0.64068098522E+03  0.12500000000E+03 0.  0.
         25    1    1    2    0    0 -0.95068204816E+02  0.10178659430E+03  0.42036622597E+03  0.46014262819E+03  0.12500000000E+03 0.  0.
</event>
<event>
 5    0  0.5771525E-005  0.3098701E+03  0.7546771E-02  0.1080408E+00
         21   -1    0    0  502  501  0.00000000000E+00  0.00000000000E+00  0.73262015599E+03  0.73262015599E+03  0.00000000000E+00 0. -1.
         21   -1    0    0  501  502 -0.00000000000E+00 -0.00000000000E+00 -0.13106308725E+03  0.13106308725E+03  0.00000000000E+00 0. -1.
         25    1    1    2    0    0  0.92899511294E+02  0.52367412222E+02  0.64199736508E+02  0.17640655098E+03  0.12500000000E+03 0.  0.
         25    1    1    2    0    0 -0.19472289161E+03 -0.15232529302E+01  0.18425899361E+03  0.29579672335E+03  0.12500000000E+03 0.  0.
         25    1    1    2    0    0  0.10182338032E+03 -0.50844159292E+02  0.35309833862E+03  0.39147996890E+03  0.12500000000E+03 0.  0.
</event>
<event>
 5    0  0.5771525E-005  0.2875312E+03  0.7546771E-02  0.1091645E+00
         21   -1    0    0  502  501  0.00000000000E+00  0.00000000000E+00  0.10096999427E+04  0.10096999427E+04  0.00000000000E+00 0. -1.
         21   -1    0    0  501  502 -0.00000000000E+00 -0.00000000000E+00 -0.81879986275E+02  0.81879986275E+02  0.00000000000E+00 0. -1.
         25    1    1    2    0    0 -0.13163235387E+03  0.77409948680E+02  0.42926283478E+03  0.47245206959E+03  0.12500000000E+03 0.  0.
         25    1    1    2    0    0  0.15635066254E+03 -0.11920784235E+03  0.31391214266E+03  0.39092438228E+03  0.12500000000E+03 0.  0.
         25    1    1    2    0    0 -0.24718308668E+02  0.41797893666E+02  0.18464497903E+03  0.22820347714E+03  0.12500000000E+03 0.  0.
</event>
<event>
 5    0  0.5771525E-005  0.2415516E+03  0.7546771E-02  0.1118763E+00
         21   -1    0    0  502  501  0.00000000000E+00  0.00000000000E+00  0.66111139746E+02  0.66111139746E+02  0.00000000000E+00 0. -1.
         21   -1    0    0  501  502 -0.00000000000E+00 -0.00000000000E+00 -0.88256226470E+03  0.88256226470E+03  0.00000000000E+00 0. -1.
         25    1    1    2    0    0 -0.23017212213E+02  0.82853112068E+02 -0.17811054003E+03  0.23397178186E+03  0.12500000000E+03 0.  0.
         25    1    1    2    0    0  0.91384969664E+02 -0.16417469187E+01 -0.26493235295E+03  0.30686814701E+03  0.12500000000E+03 0.  0.
         25    1    1    2    0    0 -0.68367757451E+02 -0.81211365149E+02 -0.37340823198E+03  0.40783347558E+03  0.12500000000E+03 0.  0.
</event>
<event>
 5    0  0.5771525E-005  0.2267085E+03  0.7546771E-02  0.1128978E+00
         21   -1    0    0  502  501  0.00000000000E+00  0.00000000000E+00  0.20976642226E+03  0.20976642226E+03  0.00000000000E+00 0. -1.
         21   -1    0    0  501  502 -0.00000000000E+00 -0.00000000000E+00 -0.24501899579E+03  0.24501899579E+03  0.00000000000E+00 0. -1.
         25    1    1    2    0    0  0.39167009286E+02 -0.14654271073E+02 -0.43182267692E+02  0.13870295786E+03  0.12500000000E+03 0.  0.
         25    1    1    2    0    0  0.22318192180E+02  0.19684934325E+02  0.87612899308E+02  0.15552047604E+03  0.12500000000E+03 0.  0.
         25    1    1    2    0    0 -0.61485201466E+02 -0.50306632520E+01 -0.79683205151E+02  0.16056198415E+03  0.12500000000E+03 0.  0.
</event>
<event>
 5    0  0.6984353E-005  0.4030313E+03  0.7546771E-02  0.1042735E+00
         21   -1    0    0  502  501  0.00000000000E+00  0.00000000000E+00  0.15747990495E+03  0.15747990495E+03  0.00000000000E+00 0.  1.
         21   -1    0    0  501  502 -0.00000000000E+00 -0.00000000000E+00 -0.10314601454E+04  0.10314601454E+04  0.00000000000E+00 0.  1.
         25    1    1    2    0    0 -0.79767229373E+02 -0.10112167006E+03  0.12840954179E+02  0.17993969307E+03  0.12500000000E+03 0.  0.
         25    1    1    2    0    0  0.16408059247E+03  0.16160791571E+03 -0.29174729834E+03  0.39214926410E+03  0.12500000000E+03 0.  0.
         25    1    1    2    0    0 -0.84313363099E+02 -0.60486245655E+02 -0.59507389626E+03  0.61685109315E+03  0.12500000000E+03 0.  0.
</event>
<event>
 5    0  0.5771525E-005  0.3324857E+03  0.7546771E-02  0.1070042E+00
         21   -1    0    0  502  501  0.00000000000E+00  0.00000000000E+00  0.17897654812E+04  0.17897654812E+04  0.00000000000E+00 0.  1.
         21   -1    0    0  501  502 -0.00000000000E+00 -0.00000000000E+00 -0.61766041416E+02  0.61766041416E+02  0.00000000000E+00 0.  1.
         25    1    1    2    0    0 -0.86915925329E+02 -0.18112805112E+03  0.75846773567E+03  0.79451875688E+03  0.12500000000E+03 0.  0.
         25    1    1    2    0    0  0.32255971074E+02  0.10455976300E+03  0.83288869840E+03  0.84929486966E+03  0.12500000000E+03 0.  0.
         25    1    1    2    0    0  0.54659954255E+02  0.76568288117E+02  0.13664300574E+03  0.20771789611E+03  0.12500000000E+03 0.  0.
</event>
<event>
 5    0  0.5771525E-005  0.2686778E+03  0.7546771E-02  0.1102039E+00
         21   -1    0    0  502  501  0.00000000000E+00  0.00000000000E+00  0.45675868792E+03  0.45675868792E+03  0.00000000000E+00 0.  1.
         21   -1    0    0  501  502 -0.00000000000E+00 -0.00000000000E+00 -0.15804353621E+03  0.15804353621E+03  0.00000000000E+00 0.  1.
         25    1    1    2    0    0 -0.51990039838E+02  0.58514884150E+02  0.10793876884E+03  0.18276414782E+03  0.12500000000E+03 0.  0.
         25    1    1    2    0    0  0.85691052447E+01 -0.11532051215E+03 -0.25521887618E+02  0.17218773718E+03  0.12500000000E+03 0.  0.
         25    1    1    2    0    0  0.43420934593E+02  0.56805628005E+02  0.21629827048E+03  0.25985033913E+03  0.12500000000E+03 0.  0.
</event>
<event>
 5    0  0.5771525E-005  0.4748581E+03  0.7546771E-02  0.1020558E+00
         21   -1    0    0  502  501  0.00000000000E+00  0.00000000000E+00  0.90259054842E+03  0.90259054842E+03  0.00000000000E+00 0.  1.
         21   -1    0    0  501  502 -0.00000000000E+00 -0.00000000000E+00 -0.24982563580E+03  0.24982563580E+03  0.00000000000E+00 0.  1.
         25    1    1    2    0    0  0.33366957163E+02 -0.20977276632E+02 -0.10666137299E+03  0.16898239096E+03  0.12500000000E+03 0.  0.
         25    1    1    2    0    0  0.45530291697E+02 -0.26198642169E+02  0.80920203797E+03  0.82048297640E+03  0.12500000000E+03 0.  0.
         25    1    1    2    0    0 -0.78897248860E+02  0.47175918800E+02 -0.49775752360E+02  0.16295081686E+03  0.12500000000E+03 0.  0.
</event>
<event>
 5    0  0.5771525E-005  0.2926061E+03  0.7546771E-02  0.1088996E+00
         21   -1    0    0  502  501  0.00000000000E+00  0.00000000000E+00  0.16718762352E+04  0.16718762352E+04  0.00000000000E+00 0.  1.
         21   -1    0    0  501  502 -0.00000000000E+00 -0.00000000000E+00 -0.51210934619E+02  0.51210934619E+02  0.00000000000E+00 0.  1.
         25    1    1    2    0    0  0.21366764998E+02 -0.44427890429E+02  0.19399633448E+03  0.23598719009E+03  0.12500000000E+03 0.  0.
         25    1    1    2    0    0 -0.16892463172E+03 -0.78881661797E+01  0.57683916841E+03  0.61397571660E+03  0.12500000000E+03 0.  0.
         25    1    1    2    0    0  0.14755786672E+03  0.52316056609E+02  0.84982979765E+03  0.87312426309E+03  0.12500000000E+03 0.  0.
</event>
<event>
 5    0  0.5771525E-005  0.2116188E+03  0.7546771E-02  0.1140290E+00
         21   -1    0    0  502  501  0.00000000000E+00  0.00000000000E+00  0.65974288604E+02  0.65974288604E+02  0.00000000000E+00 0.  1.
         21   -1    0    0  501  502 -0.00000000000E+00 -0.00000000000E+00 -0.67878772236E+03  0.67878772236E+03  0.00000000000E+00 0.  1.
         25    1    1    2    0    0  0.12682869084E+02 -0.68652798317E+01 -0.16699555819E+03  0.20909448508E+03  0.12500000000E+03 0.  0.
         25    1    1    2    0    0  0.49689864577E+02 -0.48551556469E+02 -0.25945234142E+03  0.29625471093E+03  0.12500000000E+03 0.  0.
         25    1    1    2    0    0 -0.62372733661E+02  0.55416836301E+02 -0.18636553415E+03  0.23941281496E+03  0.12500000000E+03 0.  0.
</event>
<event>
 5    0  0.5771525E-005  0.3085476E+03  0.7546771E-02  0.1081044E+00
         21   -1    0    0  502  501  0.00000000000E+00  0.00000000000E+00  0.11570450979E+03  0.11570450979E+03  0.00000000000E+00 0.  1.
         21   -1    0    0  501  502 -0.00000000000E+00 -0.00000000000E+00 -0.82279943273E+03  0.82279943273E+03  0.00000000000E+00 0.  1.
         25    1    1    2    0    0  0.85637118099E+01  0.24881243392E+02 -0.28901320304E+03  0.31598424797E+03  0.12500000000E+03 0.  0.
         25    1    1    2    0    0  0.28870744401E+01 -0.31276079630E+02  0.49708244932E+02  0.13813919780E+03  0.12500000000E+03 0.  0.
         25    1    1    2    0    0 -0.11450786250E+02  0.63948362384E+01 -0.46778996483E+03  0.48438049675E+03  0.12500000000E+03 0.  0.
</event>
<event>
 5    0  0.5771525E-005  0.4690682E+03  0.7546771E-02  0.1022184E+00
         21   -1    0    0  502  501  0.00000000000E+00  0.00000000000E+00  0.45107307758E+03  0.45107307758E+03  0.00000000000E+00 0. -1.
         21   -1    0    0  501  502 -0.00000000000E+00 -0.00000000000E+00 -0.48778129603E+03  0.48778129603E+03  0.00000000000E+00 0. -1.
         25    1    1    2    0    0 -0.28376717686E+03 -0.39040381438E+02 -0.10332173688E+03  0.32916309538E+03  0.12500000000E+03 0.  0.
         25    1    1    2    0    0  0.35371817370E+03  0.14281673370E+03  0.12976414143E+03  0.42187308308E+03  0.12500000000E+03 0.  0.
         25    1    1    2    0    0 -0.69950996838E+02 -0.10377635226E+03 -0.63150622989E+02  0.18781819515E+03  0.12500000000E+03 0.  0.
</event>
<event>
 5    0  0.5771525E-005  0.4322936E+03  0.7546771E-02  0.1033138E+00
         21   -1    0    0  502  501  0.00000000000E+00  0.00000000000E+00  0.52569427180E+03  0.52569427180E+03  0.00000000000E+00 0.  1.
         21   -1    0    0  501  502 -0.00000000000E+00 -0.00000000000E+00 -0.35548751549E+03  0.35548751549E+03  0.00000000000E+00 0.  1.
         25    1    1    2    0    0  0.45389205636E+01  0.44908484787E+02  0.66338886127E+02  0.14853693688E+03  0.12500000000E+03 0.  0.
         25    1    1    2    0    0 -0.30160160851E+03 -0.28808467510E+02 -0.10977022926E+03  0.34564137671E+03  0.12500000000E+03 0.  0.
         25    1    1    2    0    0  0.29706268795E+03 -0.16100017277E+02  0.21363809945E+03  0.38700347371E+03  0.12500000000E+03 0.  0.
</event>
<event>
 5    0  0.5771525E-005  0.3031226E+03  0.7546771E-02  0.1083690E+00
         21   -1    0    0  502  501  0.00000000000E+00  0.00000000000E+00  0.45506363436E+03  0.45506363436E+03  0.00000000000E+00 0.  1.
         21   -1    0    0  501  502 -0.00000000000E+00 -0.00000000000E+00 -0.20191307088E+03  0.20191307088E+03  0.00000000000E+00 0.  1.
         25    1    1    2    0    0 -0.58633405720E+02 -0.45995852195E+01  0.98684000698E+02  0.16977209560E+03  0.12500000000E+03 0.  0.
         25    1    1    2    0    0  0.19851301938E+03 -0.71338558293E+02  0.14443561181E+03  0.28457556944E+03  0.12500000000E+03 0.  0.
         25    1    1    2    0    0 -0.13987961366E+03  0.75938143512E+02  0.10030950965E+02  0.20262904021E+03  0.12500000000E+03 0.  0.
</event>
<event>
 5    0  0.5771525E-005  0.2629405E+03  0.7546771E-02  0.1105389E+00
         21   -1    0    0  502  501  0.00000000000E+00  0.00000000000E+00  0.69738784523E+02  0.69738784523E+02  0.00000000000E+00 0. -1.
         21   -1    0    0  501  502 -0.00000000000E+00 -0.00000000000E+00 -0.99138125350E+03  0.99138125350E+03  0.00000000000E+00 0. -1.
         25    1    1    2    0    0  0.84887694228E+02 -0.74762225207E+02 -0.44445080392E+03  0.47534916435E+03  0.12500000000E+03 0.  0.
         25    1    1    2    0    0 -0.95163747620E+02  0.11781324077E+03 -0.35377146270E+03  0.40461753099E+03  0.12500000000E+03 0.  0.
         25    1    1    2    0    0  0.10276053391E+02 -0.43051015560E+02 -0.12342020236E+03  0.18115334268E+03  0.12500000000E+03 0.  0.
</event>
<event>
 5    0  0.5771525E-005  0.3694796E+03  0.7546771E-02  0.1054892E+00
         21   -1    0    0  502  501  0.00000000000E+00  0.00000000000E+00  0.15402309124E+03  0.15402309124E+03  0.00000000000E+00 0. -1.
         21   -1    0    0  501  502 -0.00000000000E+00 -0.00000000000E+00 -0.88632940831E+03  0.88632940831E+03  0.00000000000E+00 0. -1.
         25    1    1    2    0    0  0.14308786116E+03  0.15661171489E+03 -0.13172535702E+03  0.27924529528E+03  0.12500000000E+03 0.  0.
         25    1    1    2    0    0 -0.46196387469E+02 -0.17641263362E+03 -0.55176214732E+03  0.59440894234E+03  0.12500000000E+03 0.  0.
         25    1    1    2    0    0 -0.96891473694E+02  0.19800918730E+02 -0.48818812733E+02  0.16669826194E+03  0.12500000000E+03 0.  0.
</event>
<event>
 5    0  0.5771525E-005  0.2399874E+03  0.7546771E-02  0.1119801E+00
         21   -1    0    0  502  501  0.00000000000E+00  0.00000000000E+00  0.38939056769E+03  0.38939056769E+03  0.00000000000E+00 0.  1.
         21   -1    0    0  501  502 -0.00000000000E+00 -0.00000000000E+00 -0.14790797721E+03  0.14790797721E+03  0.00000000000E+00 0.  1.
         25    1    1    2    0    0 -0.49028263870E+02  0.23622830875E+02  0.17527471119E+02  0.13745552386E+03  0.12500000000E+03 0.  0.
         25    1    1    2    0    0  0.14270561149E+02  0.69266639302E+02  0.18746698020E+03  0.23615754254E+03  0.12500000000E+03 0.  0.
         25    1    1    2    0    0  0.34757702722E+02 -0.92889470177E+02  0.36488139163E+02  0.16368547849E+03  0.12500000000E+03 0.  0.
</event>
<event>
 5    0  0.5771525E-005  0.3830892E+03  0.7546771E-02  0.1049798E+00
         21   -1    0    0  502  501  0.00000000000E+00  0.00000000000E+00  0.11449995966E+03  0.11449995966E+03  0.00000000000E+00 0.  1.
         21   -1    0    0  501  502 -0.00000000000E+00 -0.00000000000E+00 -0.12817236515E+04  0.12817236515E+04  0.00000000000E+00 0.  1.
         25    1    1    2    0    0 -0.15732230289E+03  0.12794930821E+03 -0.29075519597E+03  0.37587885874E+03  0.12500000000E+03 0.  0.
         25    1    1    2    0    0  0.83382771579E-01  0.44275146773E+02 -0.33429527518E+02  0.13675828635E+03  0.12500000000E+03 0.  0.
         25    1    1    2    0    0  0.15723892012E+03 -0.17222445498E+03 -0.84303896837E+03  0.88358646611E+03  0.12500000000E+03 0.  0.
</event>
<event>
 5    0  0.5771525E-005  0.2495372E+03  0.7546771E-02  0.1113598E+00
         21   -1    0    0  502  501  0.00000000000E+00  0.00000000000E+00  0.12921527590E+04  0.12921527590E+04  0.00000000000E+00 0.  1.
         21   -1    0    0  501  502 -0.00000000000E+00 -0.00000000000E+00 -0.48189993755E+02  0.48189993755E+02  0.00000000000E+00 0.  1.
         25    1    1    2    0    0  0.93094446855E+01  0.12366458725E+02  0.18969999599E+03  0.22770745165E+03  0.12500000000E+03 0.  0.
         25    1    1    2    0    0 -0.70475325808E+02 -0.23544697230E+02  0.20134313120E+03  0.24836501525E+03  0.12500000000E+03 0.  0.
         25    1    1    2    0    0  0.61165881123E+02  0.11178238505E+02  0.85291963806E+03  0.86427028586E+03  0.12500000000E+03 0.  0.
</event>
<event>
 5    0  0.5771525E-005  0.2748536E+03  0.7546771E-02  0.1098533E+00
         21   -1    0    0  502  501  0.00000000000E+00  0.00000000000E+00  0.24804985488E+03  0.24804985488E+03  0.00000000000E+00 0.  1.
         21   -1    0    0  501  502 -0.00000000000E+00 -0.00000000000E+00 -0.30455374439E+03  0.30455374439E+03  0.00000000000E+00 0.  1.
         25    1    1    2    0    0  0.49236393483E+02 -0.34629194757E+02 -0.45080020785E+02  0.14587875735E+03  0.12500000000E+03 0.  0.
         25    1    1    2    0    0  0.49945960474E+02  0.49303605802E+02  0.12960905710E+03  0.19325877004E+03  0.12500000000E+03 0.  0.
         25    1    1    2    0    0 -0.99182353957E+02 -0.14674411045E+02 -0.14103292582E+03  0.21346607188E+03  0.12500000000E+03 0.  0.
</event>
<event>
 5    0  0.5771525E-005  0.2578335E+03  0.7546771E-02  0.1108452E+00
         21   -1    0    0  502  501  0.00000000000E+00  0.00000000000E+00  0.88010265389E+02  0.88010265389E+02  0.00000000000E+00 0.  1.
         21   -1    0    0  501  502 -0.00000000000E+00 -0.00000000000E+00 -0.75534491446E+03  0.75534491446E+03  0.00000000000E+00 0.  1.
         25    1    1    2    0    0  0.10977443704E+03 -0.62015606966E+02 -0.41169481050E+03  0.44834582582E+03  0.12500000000E+03 0.  0.
         25    1    1    2    0    0 -0.18597302865E+02 -0.15662417935E+02 -0.12139525291E+03  0.17593458568E+03  0.12500000000E+03 0.  0.
         25    1    1    2    0    0 -0.91177134174E+02  0.77678024901E+02 -0.13424458566E+03  0.21907476835E+03  0.12500000000E+03 0.  0.
</event>
<event>
 5    0  0.5771525E-005  0.3548256E+03  0.7546771E-02  0.1060652E+00
         21   -1    0    0  502  501  0.00000000000E+00  0.00000000000E+00  0.13175347522E+03  0.13175347522E+03  0.00000000000E+00 0.  1.
         21   -1    0    0  501  502 -0.00000000000E+00 -0.00000000000E+00 -0.95558153128E+03  0.95558153128E+03  0.00000000000E+00 0.  1.
         25    1    1    2    0    0  0.85146937885E+02  0.16036505920E+02 -0.38895471697E+03  0.41763374194E+03  0.12500000000E+03 0.  0.
         25    1    1    2    0    0 -0.21112802031E+03  0.91301524378E+02 -0.10934062868E+03  0.28371003224E+03  0.12500000000E+03 0.  0.
         25    1    1    2    0    0  0.12598108243E+03 -0.10733803030E+03 -0.32553271040E+03  0.38599123231E+03  0.12500000000E+03 0.  0.
</event>
<event>
 5    0  0.5771525E-005  0.4513469E+03  0.7546771E-02  0.1027321E+00
         21   -1    0    0  502  501  0.00000000000E+00  0.00000000000E+00  0.33547711752E+03  0.33547711752E+03  0.00000000000E+00 0.  1.
         21   -1    0    0  501  502 -0.00000000000E+00 -0.00000000000E+00 -0.60723666977E+03  0.60723666977E+03  0.00000000000E+00 0.  1.
         25    1    1    2    0    0 -0.27611820046E+03  0.10750142015E+03 -0.24599568190E+03  0.40489096245E+03  0.12500000000E+03 0.  0.
         25    1    1    2    0    0  0.17751171669E+03 -0.20440115785E+03  0.98247844699E+02  0.31395522273E+03  0.12500000000E+03 0.  0.
         25    1    1    2    0    0  0.98606483775E+02  0.96899737699E+02 -0.12401171504E+03  0.22386760212E+03  0.12500000000E+03 0.  0.
</event>
<event>
 5    0  0.8304364E-005  0.5041504E+03  0.7546771E-02  0.1012701E+00
         21   -1    0    0  502  501  0.00000000000E+00  0.00000000000E+00  0.95848575608E+03  0.95848575608E+03  0.00000000000E+00 0. -1.
         21   -1    0    0  501  502 -0.00000000000E+00 -0.00000000000E+00 -0.26517619213E+03  0.26517619213E+03  0.00000000000E+00 0. -1.
         25    1    1    2    0    0 -0.14092904169E+03  0.11866632178E+03  0.59538076526E+03  0.63564608577E+03  0.12500000000E+03 0.  0.
         25    1    1    2    0    0 -0.13380385404E+03 -0.18878568732E+03  0.90239305664E+02  0.27804970667E+03  0.12500000000E+03 0.  0.
         25    1    1    2    0    0  0.27473289573E+03  0.70119365539E+02  0.76894930228E+01  0.30996615577E+03  0.12500000000E+03 0.  0.
</event>
<event>
 5    0  0.5771525E-005  0.4424598E+03  0.7546771E-02  0.1029995E+00
         21   -1    0    0  502  501  0.00000000000E+00  0.00000000000E+00  0.27691916824E+03  0.27691916824E+03  0.00000000000E+00 0.  1.
         21   -1    0    0  501  502 -0.00000000000E+00 -0.00000000000E+00 -0.70695977128E+03  0.70695977128E+03  0.00000000000E+00 0.  1.
         25    1    1    2    0    0 -0.24475998759E+03  0.23437422462E+03 -0.18907306770E+03  0.40769149319E+03  0.12500000000E+03 0.  0.
         25    1    1    2    0    0 -0.47435975639E+00 -0.17852274733E+03 -0.19329893856E+03  0.29130752819E+03  0.12500000000E+03 0.  0.
         25    1    1    2    0    0  0.24523434735E+03 -0.55851477289E+02 -0.47668596774E+02  0.28487991813E+03  0.12500000000E+03 0.  0.
</event>
<event>
 5    0  0.6263657E-005  0.2804525E+03  0.7546771E-02  0.1095442E+00
         21   -1    0    0  502  501  0.00000000000E+00  0.00000000000E+00  0.19890532909E+03  0.19890532909E+03  0.00000000000E+00 0. -1.
         21   -1    0    0  501  502 -0.00000000000E+00 -0.00000000000E+00 -0.39543240376E+03  0.39543240376E+03  0.00000000000E+00 0. -1.
         25    1    1    2    0    0  0.79671135481E+01  0.62362084503E+02 -0.11162498151E+03  0.17899061701E+03  0.12500000000E+03 0.  0.
         25    1    1    2    0    0  0.23921984413E+02  0.72177111534E+02 -0.15781187797E+03  0.21520080296E+03  0.12500000000E+03 0.  0.
         25    1    1    2    0    0 -0.31889097961E+02 -0.13453919604E+03  0.72909784803E+02  0.20014631288E+03  0.12500000000E+03 0.  0.
</event>
<event>
 5    0  0.5771525E-005  0.3003212E+03  0.7546771E-02  0.1085080E+00
         21   -1    0    0  502  501  0.00000000000E+00  0.00000000000E+00  0.21300064146E+04  0.21300064146E+04  0.00000000000E+00 0. -1.
         21   -1    0    0  501  502 -0.00000000000E+00 -0.00000000000E+00 -0.42343924461E+02  0.42343924461E+02  0.00000000000E+00 0. -1.
         25    1    1    2    0    0  0.95019865669E+02  0.57291015093E+02  0.11281050099E+04  0.11404196371E+04  0.12500000000E+03 0.  0.
         25    1    1    2    0    0 -0.16235660021E+03 -0.38232108348E+02  0.74751300109E+03  0.77602966859E+03  0.12500000000E+03 0.  0.
         25    1    1    2    0    0  0.67336734541E+02 -0.19058906745E+02  0.21204447910E+03  0.25590103333E+03  0.12500000000E+03 0.  0.
</event>
<event>
 5    0  0.5771525E-005  0.4994498E+03  0.7546771E-02  0.1013923E+00
         21   -1    0    0  502  501  0.00000000000E+00  0.00000000000E+00  0.14148123168E+03  0.14148123168E+03  0.00000000000E+00 0. -1.
         21   -1    0    0  501  502 -0.00000000000E+00 -0.00000000000E+00 -0.17631323474E+04  0.17631323474E+04  0.00000000000E+00 0. -1.
         25    1    1    2    0    0 -0.19489708666E+03 -0.66255421306E+02 -0.81423925355E+03  0.84910848380E+03  0.12500000000E+03 0.  0.
         25    1    1    2    0    0  0.21102922329E+03  0.15007557508E+03 -0.61054119078E+02  0.29395342620E+03  0.12500000000E+03 0.  0.
         25    1    1    2    0    0 -0.16132136630E+02 -0.83820153774E+02 -0.74635774307E+03  0.76155166906E+03  0.12500000000E+03 0.  0.
</event>
<event>
 5    0  0.5771525E-005  0.3510343E+03  0.7546771E-02  0.1062191E+00
         21   -1    0    0  502  501  0.00000000000E+00  0.00000000000E+00  0.44426860425E+03  0.44426860425E+03  0.00000000000E+00 0. -1.
         21   -1    0    0  501  502 -0.00000000000E+00 -0.00000000000E+00 -0.27736622956E+03  0.27736622956E+03  0.00000000000E+00 0. -1.
         25    1    1    2    0    0 -0.98709135971E+02 -0.22456058135E+03  0.12482226802E+03  0.30228553855E+03  0.12500000000E+03 0.  0.
         25    1    1    2    0    0  0.55481378892E+02  0.72274932098E+02 -0.89320610528E+02  0.17861976564E+03  0.12500000000E+03 0.  0.
         25    1    1    2    0    0  0.43227757079E+02  0.15228564926E+03  0.13140071721E+03  0.24072952962E+03  0.12500000000E+03 0.  0.
</event>
<event>
 5    0  0.5771525E-005  0.2977410E+03  0.7546771E-02  0.1086375E+00
         21   -1    0    0  502  501  0.00000000000E+00  0.00000000000E+00  0.12002537482E+04  0.12002537482E+04  0.00000000000E+00 0. -1.
         21   -1    0    0  501  502 -0.00000000000E+00 -0.00000000000E+00 -0.73859141895E+02  0.73859141895E+02  0.00000000000E+00 0. -1.
         25    1    1    2    0    0  0.45547748822E+02 -0.11276659107E+02  0.25986210270E+03  0.29215590510E+03  0.12500000000E+03 0.  0.
         25    1    1    2    0    0  0.15495622401E+03 -0.49510410266E+02  0.51217775017E+03  0.55173703868E+03  0.12500000000E+03 0.  0.
         25    1    1    2    0    0 -0.20050397283E+03  0.60787069373E+02  0.35435475343E+03  0.43021994631E+03  0.12500000000E+03 0.  0.
</event>
<event>
 5    0  0.5771525E-005  0.2403310E+03  0.7546771E-02  0.1119572E+00
         21   -1    0    0  502  501  0.00000000000E+00  0.00000000000E+00  0.22737754453E+04  0.22737754453E+04  0.00000000000E+00 0. -1.
         21   -1    0    0  501  502 -0.00000000000E+00 -0.00000000000E+00 -0.25402245628E+02  0.25402245628E+02  0.00000000000E+00 0. -1.
         25    1    1    2    0    0  0.23122214346E+02  0.26593718479E+01  0.87463362936E+03  0.88382729911E+03  0.12500000000E+03 0.  0.
         25    1    1    2    0    0  0.96658464332E+02 -0.35414486723E+02  0.74452724928E+03  0.76193363853E+03  0.12500000000E+03 0.  0.
         25    1    1    2    0    0 -0.11978067868E+03  0.32755114875E+02  0.62921232098E+03  0.65341675324E+03  0.12500000000E+03 0.  0.
</event>
<event>
 5    0  0.5771525E-005  0.3276475E+03  0.7546771E-02  0.1072183E+00
         21   -1    0    0  502  501  0.00000000000E+00  0.00000000000E+00  0.48410085715E+03  0.48410085715E+03  0.00000000000E+00 0.  1.
         21   -1    0    0  501  502 -0.00000000000E+00 -0.00000000000E+00 -0.22175730158E+03  0.22175730158E+03  0.00000000000E+00 0.  1.
         25    1    1    2    0    0 -0.64002433418E+02  0.80916928381E+02 -0.58151509169E+02  0.17219308581E+03  0.12500000000E+03 0.  0.
         25    1    1    2    0    0  0.17775838614E+03 -0.12186838053E+03  0.22258012563E+03  0.33409109288E+03  0.12500000000E+03 0.  0.
         25    1    1    2    0    0 -0.11375595272E+03  0.40951452146E+02  0.97914939112E+02  0.19957398005E+03  0.12500000000E+03 0.  0.
</event>
<event>
 5    0  0.5771525E-005  0.2809612E+03  0.7546771E-02  0.1095165E+00
         21   -1    0    0  502  501  0.00000000000E+00  0.00000000000E+00  0.47549164624E+03  0.47549164624E+03  0.00000000000E+00 0.  1.
         21   -1    0    0  501  502 -0.00000000000E+00 -0.00000000000E+00 -0.16601589664E+03  0.16601589664E+03  0.00000000000E+00 0.  1.
         25    1    1    2    0    0 -0.15952978534E+03  0.83141475494E+02  0.13593572371E+03  0.25780957767E+03  0.12500000000E+03 0.  0.
         25    1    1    2    0    0  0.67676078956E+02 -0.62488089997E+01  0.15367870899E+03  0.20943076391E+03  0.12500000000E+03 0.  0.
         25    1    1    2    0    0  0.91853706382E+02 -0.76892666494E+02  0.19861316900E+02  0.17426720129E+03  0.12500000000E+03 0.  0.
</event>
<event>
 5    0  0.5771525E-005  0.5303087E+03  0.7546771E-02  0.1006157E+00
         21   -1    0    0  502  501  0.00000000000E+00  0.00000000000E+00  0.10750882172E+03  0.10750882172E+03  0.00000000000E+00 0. -1.
         21   -1    0    0  501  502 -0.00000000000E+00 -0.00000000000E+00 -0.26158536979E+04  0.26158536979E+04  0.00000000000E+00 0. -1.
         25    1    1    2    0    0  0.33700446223E+02 -0.74425978948E+02 -0.15533240417E+04  0.15604856696E+04  0.12500000000E+03 0.  0.
         25    1    1    2    0    0 -0.58379478952E+02  0.22778826970E+03 -0.92335754939E+03  0.96099418489E+03  0.12500000000E+03 0.  0.
         25    1    1    2    0    0  0.24679032728E+02 -0.15336229075E+03 -0.31663285128E+02  0.20188266520E+03  0.12500000000E+03 0.  0.
</event>
<event>
 5    0  0.5771525E-005  0.3084992E+03  0.7546771E-02  0.1081067E+00
         21   -1    0    0  502  501  0.00000000000E+00  0.00000000000E+00  0.18907679030E+03  0.18907679030E+03  0.00000000000E+00 0.  1.
         21   -1    0    0  501  502 -0.00000000000E+00 -0.00000000000E+00 -0.50334968925E+03  0.50334968925E+03  0.00000000000E+00 0.  1.
         25    1    1    2    0    0  0.33286143150E+02  0.81922432871E+02  0.51848723921E+02  0.16165562937E+03  0.12500000000E+03 0.  0.
         25    1    1    2    0    0  0.20103079416E+02  0.31892316516E+02 -0.75644121286E+01  0.13078025075E+03  0.12500000000E+03 0.  0.
         25    1    1    2    0    0 -0.53389222565E+02 -0.11381474939E+03 -0.35855721074E+03  0.39999059943E+03  0.12500000000E+03 0.  0.
</event>
<event>
 5    0  0.5771525E-005  0.4042235E+03  0.7546771E-02  0.1042327E+00
         21   -1    0    0  502  501  0.00000000000E+00  0.00000000000E+00  0.25748740543E+03  0.25748740543E+03  0.00000000000E+00 0.  1.
         21   -1    0    0  501  502 -0.00000000000E+00 -0.00000000000E+00 -0.63458116554E+03  0.63458116554E+03  0.00000000000E+00 0.  1.
         25    1    1    2    0    0 -0.41650393159E+02 -0.19509403560E+03  0.64763443564E+01  0.23550664749E+03  0.12500000000E+03 0.  0.
         25    1    1    2    0    0  0.17247717864E+03  0.70945130984E+02 -0.37485798649E+03  0.43694976690E+03  0.12500000000E+03 0.  0.
         25    1    1    2    0    0 -0.13082678548E+03  0.12414890461E+03 -0.87121179775E+01  0.21961215657E+03  0.12500000000E+03 0.  0.
</event>
<event>
 5    0  0.5771525E-005  0.2264784E+03  0.7546771E-02  0.1129143E+00
         21   -1    0    0  502  501  0.00000000000E+00  0.00000000000E+00  0.53574542525E+03  0.53574542525E+03  0.00000000000E+00 0. -1.
         21   -1    0    0  501  502 -0.00000000000E+00 -0.00000000000E+00 -0.95740405304E+02  0.95740405304E+02  0.00000000000E+00 0. -1.
         25    1    1    2    0    0 -0.11028003029E+02 -0.40292760403E+02  0.14724804189E+03  0.19761606522E+03  0.12500000000E+03 0.  0.
         25    1    1    2    0    0 -0.19690644401E+02  0.77360445925E+02  0.49833729309E+02  0.15646328850E+03  0.12500000000E+03 0.  0.
         25    1    1    2    0    0  0.30718647429E+02 -0.37067685522E+02  0.24292324875E+03  0.27740647684E+03  0.12500000000E+03 0.  0.
</event>
<event>
 5    0  0.5771525E-005  0.3012424E+03  0.7546771E-02  0.1084621E+00
         21   -1    0    0  502  501  0.00000000000E+00  0.00000000000E+00  0.12715371389E+04  0.12715371389E+04  0.00000000000E+00 0.  1.
         21   -1    0    0  501  502 -0.00000000000E+00 -0.00000000000E+00 -0.71367922577E+02  0.71367922577E+02  0.00000000000E+00 0.  1.
         25    1    1    2    0    0  0.51701904105E+02 -0.12010612709E+03  0.79092309750E+03  0.81134635934E+03  0.12500000000E+03 0.  0.
         25    1    1    2    0    0 -0.10650130974E+03  0.11585136371E+02  0.20847338655E+03  0.26563677693E+03  0.12500000000E+03 0.  0.
         25    1    1    2    0    0  0.54799405637E+02  0.10852099071E+03  0.20077273231E+03  0.26592192524E+03  0.12500000000E+03 0.  0.
</event>
<event>
 5    0  0.5771525E-005  0.5002473E+03  0.7546771E-02  0.1013714E+00
         21   -1    0    0  502  501  0.00000000000E+00  0.00000000000E+00  0.13012496903E+03  0.13012496903E+03  0.00000000000E+00 0. -1.
         21   -1    0    0  501  502 -0.00000000000E+00 -0.00000000000E+00 -0.19231312069E+04  0.19231312069E+04  0.00000000000E+00 0. -1.
         25    1    1    2    0    0  0.10424556814E+02 -0.10576237375E+03 -0.81723691278E+03  0.83354395366E+03  0.12500000000E+03 0.  0.
         25    1    1    2    0    0 -0.23255535426E+03  0.29517723568E+03 -0.40435860973E+03  0.56598805511E+03  0.12500000000E+03 0.  0.
         25    1    1    2    0    0  0.22213079745E+03 -0.18941486194E+03 -0.57141071533E+03  0.65372416713E+03  0.12500000000E+03 0.  0.
</event>
<event>
 5    0  0.5771525E-005  0.4455079E+03  0.7546771E-02  0.1029070E+00
         21   -1    0    0  502  501  0.00000000000E+00  0.00000000000E+00  0.13633856817E+03  0.13633856817E+03  0.00000000000E+00 0.  1.
         21   -1    0    0  501  502 -0.00000000000E+00 -0.00000000000E+00 -0.14557677263E+04  0.14557677263E+04  0.00000000000E+00 0.  1.
         25    1    1    2    0    0  0.17140116077E+03 -0.69123107089E+01 -0.35565574861E+03  0.41417647141E+03  0.12500000000E+03 0.  0.
         25    1    1    2    0    0 -0.89474969831E+02  0.26140389091E+03 -0.76279600644E+03  0.82086570878E+03  0.12500000000E+03 0.  0.
         25    1    1    2    0    0 -0.81926190938E+02 -0.25449158020E+03 -0.20097740309E+03  0.35706411428E+03  0.12500000000E+03 0.  0.
</event>
<event>
 5    0  0.5771525E-005  0.3953159E+03  0.7546771E-02  0.1045414E+00
         21   -1    0    0  502  501  0.00000000000E+00  0.00000000000E+00  0.26578531273E+03  0.26578531273E+03  0.00000000000E+00 0. -1.
         21   -1    0    0  501  502 -0.00000000000E+00 -0.00000000000E+00 -0.58797333768E+03  0.58797333768E+03  0.00000000000E+00 0. -1.
         25    1    1    2    0    0 -0.71614296641E+02  0.81595878829E+02 -0.34482189509E+03  0.38250965251E+03  0.12500000000E+03 0.  0.
         25    1    1    2    0    0  0.50374584443E+02 -0.14744192709E+03 -0.14806837207E+03  0.24864827253E+03  0.12500000000E+03 0.  0.
         25    1    1    2    0    0  0.21239712198E+02  0.65846048263E+02  0.17070224220E+03  0.22260072538E+03  0.12500000000E+03 0.  0.
</event>
<event>
 5    0  0.7293031E-005  0.4296211E+03  0.7546771E-02  0.1033980E+00
         21   -1    0    0  502  501  0.00000000000E+00  0.00000000000E+00  0.11685332167E+04  0.11685332167E+04  0.00000000000E+00 0. -1.
         21   -1    0    0  501  502 -0.00000000000E+00 -0.00000000000E+00 -0.15795379572E+03  0.15795379572E+03  0.00000000000E+00 0. -1.
         25    1    1    2    0    0 -0.44959210018E+02 -0.23481926275E+03  0.60437592717E+03  0.66185850306E+03  0.12500000000E+03 0.  0.
         25    1    1    2    0    0 -0.51311943128E+02  0.15730859923E+03  0.43926944087E+03  0.48575873907E+03  0.12500000000E+03 0.  0.
         25    1    1    2    0    0  0.96271153146E+02  0.77510663523E+02 -0.33065947019E+02  0.17886977034E+03  0.12500000000E+03 0.  0.
</event>
<event>
 5    0  0.5771525E-005  0.4040813E+03  0.7546771E-02  0.1042376E+00
         21   -1    0    0  502  501  0.00000000000E+00  0.00000000000E+00  0.14607357560E+04  0.14607357560E+04  0.00000000000E+00 0.  1.
         21   -1    0    0  501  502 -0.00000000000E+00 -0.00000000000E+00 -0.11178044478E+03  0.11178044478E+03  0.00000000000E+00 0.  1.
         25    1    1    2    0    0  0.13660320795E+03  0.70979810378E+02  0.88361236528E+03  0.90559062604E+03  0.12500000000E+03 0.  0.
         25    1    1    2    0    0  0.79803644281E+01 -0.26026123177E+02  0.45241904983E+03  0.47015852853E+03  0.12500000000E+03 0.  0.
         25    1    1    2    0    0 -0.14458357237E+03 -0.44953687201E+02  0.12923896142E+02  0.19676704624E+03  0.12500000000E+03 0.  0.
</event>
<event>
 5    0  0.6236796E-005  0.3018550E+03  0.7546771E-02  0.1084317E+00
         21   -1    0    0  502  501  0.00000000000E+00  0.00000000000E+00  0.55010252512E+03  0.55010252512E+03  0.00000000000E+00 0.  1.
         21   -1    0    0  501  502 -0.00000000000E+00 -0.00000000000E+00 -0.16563534493E+03  0.16563534493E+03  0.00000000000E+00 0.  1.
         25    1    1    2    0    0 -0.97845972469E+02 -0.36065340306E+02  0.15011381461E+02  0.16347747451E+03  0.12500000000E+03 0.  0.
         25    1    1    2    0    0  0.15888549673E+03 -0.73093050368E+02  0.11910342968E+03  0.24575968352E+03  0.12500000000E+03 0.  0.
         25    1    1    2    0    0 -0.61039524260E+02  0.10915839067E+03  0.25035236905E+03  0.30650071202E+03  0.12500000000E+03 0.  0.
</event>
<event>
 5    0  0.5771525E-005  0.3270345E+03  0.7546771E-02  0.1072457E+00
         21   -1    0    0  502  501  0.00000000000E+00  0.00000000000E+00  0.13794412867E+03  0.13794412867E+03  0.00000000000E+00 0. -1.
         21   -1    0    0  501  502 -0.00000000000E+00 -0.00000000000E+00 -0.77532502931E+03  0.77532502931E+03  0.00000000000E+00 0. -1.
         25    1    1    2    0    0 -0.57270023237E+02 -0.14135858230E+03 -0.15405188012E+03  0.25023805889E+03  0.12500000000E+03 0.  0.
         25    1    1    2    0    0 -0.60464307274E+02  0.13630010599E+03 -0.56011300430E+02  0.20247448512E+03  0.12500000000E+03 0.  0.
         25    1    1    2    0    0  0.11773433051E+03  0.50584763021E+01 -0.42731772009E+03  0.46055661396E+03  0.12500000000E+03 0.  0.
</event>
<event>
 5    0  0.5771525E-005  0.3741522E+03  0.7546771E-02  0.1053117E+00
         21   -1    0    0  502  501  0.00000000000E+00  0.00000000000E+00  0.15195507943E+03  0.15195507943E+03  0.00000000000E+00 0.  1.
         21   -1    0    0  501  502 -0.00000000000E+00 -0.00000000000E+00 -0.92125809430E+03  0.92125809430E+03  0.00000000000E+00 0.  1.
         25    1    1    2    0    0 -0.19612296326E+03 -0.23829862433E+02 -0.23203965115E+03  0.32939259064E+03  0.12500000000E+03 0.  0.
         25    1    1    2    0    0  0.31600348999E+03  0.11282425854E+02 -0.33644346015E+03  0.47833534335E+03  0.12500000000E+03 0.  0.
         25    1    1    2    0    0 -0.11988052673E+03  0.12547436579E+02 -0.20081990357E+03  0.26548523975E+03  0.12500000000E+03 0.  0.
</event>
<event>
 5    0  0.5771525E-005  0.2563231E+03  0.7546771E-02  0.1109373E+00
         21   -1    0    0  502  501  0.00000000000E+00  0.00000000000E+00  0.16525691068E+04  0.16525691068E+04  0.00000000000E+00 0. -1.
         21   -1    0    0  501  502 -0.00000000000E+00 -0.00000000000E+00 -0.39757207513E+02  0.39757207513E+02  0.00000000000E+00 0. -1.
         25    1    1    2    0    0  0.24658118820E+02  0.29996625240E+02  0.78337792937E+03  0.79423787405E+03  0.12500000000E+03 0.  0.
         25    1    1    2    0    0 -0.48493201379E+02 -0.78753030537E+01  0.13031301629E+03  0.18713656295E+03  0.12500000000E+03 0.  0.
         25    1    1    2    0    0  0.23835082559E+02 -0.22121322186E+02  0.69912095362E+03  0.71095187731E+03  0.12500000000E+03 0.  0.
</event>
<event>
 5    0  0.5771525E-005  0.2068221E+03  0.7546771E-02  0.1144108E+00
         21   -1    0    0  502  501  0.00000000000E+00  0.00000000000E+00  0.68674283206E+03  0.68674283206E+03  0.00000000000E+00 0. -1.
         21   -1    0    0  501  502 -0.00000000000E+00 -0.00000000000E+00 -0.62287315453E+02  0.62287315453E+02  0.00000000000E+00 0. -1.
         25    1    1    2    0    0  0.38640265824E+02  0.58817276682E+02  0.21127673773E+03  0.25537306453E+03  0.12500000000E+03 0.  0.
         25    1    1    2    0    0 -0.43957213488E+02 -0.29967656319E+01  0.21977193368E+03  0.25664356617E+03  0.12500000000E+03 0.  0.
         25    1    1    2    0    0  0.53169476639E+01 -0.55820511050E+02  0.19340684520E+03  0.23701351682E+03  0.12500000000E+03 0.  0.
</event>
<event>
 5    0  0.5771525E-005  0.3387668E+03  0.7546771E-02  0.1067322E+00
         21   -1    0    0  502  501  0.00000000000E+00  0.00000000000E+00  0.21245218366E+03  0.21245218366E+03  0.00000000000E+00 0. -1.
         21   -1    0    0  501  502 -0.00000000000E+00 -0.00000000000E+00 -0.54018260896E+03  0.54018260896E+03  0.00000000000E+00 0. -1.
         25    1    1    2    0    0  0.13087894116E+03 -0.72141669124E+02 -0.22423689021E+03  0.29705369985E+03  0.12500000000E+03 0.  0.
         25    1    1    2    0    0 -0.15226397675E+03  0.15824314943E+03  0.27198751743E+02  0.25414559814E+03  0.12500000000E+03 0.  0.
         25    1    1    2    0    0  0.21385035587E+02 -0.86101480305E+02 -0.13069228683E+03  0.20143549463E+03  0.12500000000E+03 0.  0.
</event>
<event>
 5    0  0.5771525E-005  0.2608581E+03  0.7546771E-02  0.1106629E+00
         21   -1    0    0  502  501  0.00000000000E+00  0.00000000000E+00  0.56635996659E+02  0.56635996659E+02  0.00000000000E+00 0. -1.
         21   -1    0    0  501  502 -0.00000000000E+00 -0.00000000000E+00 -0.12014789945E+04  0.12014789945E+04  0.00000000000E+00 0. -1.
         25    1    1    2    0    0 -0.59452609209E+02  0.87727329545E+02 -0.16445212313E+03  0.23216416152E+03  0.12500000000E+03 0.  0.
         25    1    1    2    0    0  0.93012715877E+02 -0.50960948763E+02 -0.45590247846E+03  0.48447956972E+03  0.12500000000E+03 0.  0.
         25    1    1    2    0    0 -0.33560106667E+02 -0.36766380781E+02 -0.52448839626E+03  0.54147125992E+03  0.12500000000E+03 0.  0.
</event>
<event>
 5    0  0.5771525E-005  0.3495388E+03  0.7546771E-02  0.1062805E+00
         21   -1    0    0  502  501  0.00000000000E+00  0.00000000000E+00  0.14482935772E+04  0.14482935772E+04  0.00000000000E+00 0. -1.
         21   -1    0    0  501  502 -0.00000000000E+00 -0.00000000000E+00 -0.84359515312E+02  0.84359515312E+02  0.00000000000E+00 0. -1.
         25    1    1    2    0    0  0.12102429562E+03 -0.10339636117E+03  0.61839789355E+03  0.65067552773E+03  0.12500000000E+03 0.  0.
         25    1    1    2    0    0 -0.15125857743E+02  0.22339622013E+03  0.31681347903E+03  0.40759102448E+03  0.12500000000E+03 0.  0.
         25    1    1    2    0    0 -0.10589843788E+03 -0.11999985897E+03  0.42872268934E+03  0.47438654034E+03  0.12500000000E+03 0.  0.
</event>
<event>
 5    0  0.5771525E-005  0.3358763E+03  0.7546771E-02  0.1068566E+00
         21   -1    0    0  502  501  0.00000000000E+00  0.00000000000E+00  0.21010529113E+03  0.21010529113E+03  0.00000000000E+00 0. -1.
         21   -1    0    0  501  502 -0.00000000000E+00 -0.00000000000E+00 -0.53693492108E+03  0.53693492108E+03  0.00000000000E+00 0. -1.
         25    1    1    2    0    0 -0.15606176409E+03  0.40467508035E+02 -0.34244517322E+03  0.39860580788E+03  0.12500000000E+03 0.  0.
         25    1    1    2    0    0 -0.20138184946E+02 -0.30259815684E+02 -0.10431463169E+02  0.13059486346E+03  0.12500000000E+03 0.  0.
         25    1    1    2    0    0  0.17619994904E+03 -0.10207692351E+02  0.26047006439E+02  0.21783954087E+03  0.12500000000E+03 0.  0.
</event>
<event>
 5    0  0.5771525E-005  0.4937093E+03  0.7546771E-02  0.1015434E+00
         21   -1    0    0  502  501  0.00000000000E+00  0.00000000000E+00  0.48393860961E+03  0.48393860961E+03  0.00000000000E+00 0.  1.
         21   -1    0    0  501  502 -0.00000000000E+00 -0.00000000000E+00 -0.50367722084E+03  0.50367722084E+03  0.00000000000E+00 0.  1.
         25    1    1    2    0    0  0.14231253147E+03  0.24779200991E+03  0.73330442238E+02  0.32039989162E+03  0.12500000000E+03 0.  0.
         25    1    1    2    0    0 -0.10328976928E+03  0.11859218280E+03 -0.17864425698E+03  0.26883387586E+03  0.12500000000E+03 0.  0.
         25    1    1    2    0    0 -0.39022762193E+02 -0.36638419271E+03  0.85575203514E+02  0.39838206297E+03  0.12500000000E+03 0.  0.
</event>
<event>
 5    0  0.5771525E-005  0.2613811E+03  0.7546771E-02  0.1106316E+00
         21   -1    0    0  502  501  0.00000000000E+00  0.00000000000E+00  0.10841235354E+03  0.10841235354E+03  0.00000000000E+00 0.  1.
         21   -1    0    0  501  502 -0.00000000000E+00 -0.00000000000E+00 -0.63018703725E+03  0.63018703725E+03  0.00000000000E+00 0.  1.
         25    1    1    2    0    0  0.50054807025E+01 -0.36399090509E+02 -0.81911724113E+01  0.13054517966E+03  0.12500000000E+03 0.  0.
         25    1    1    2    0    0  0.94431141017E+02 -0.11039392419E+02 -0.28161155971E+03  0.32244252068E+03  0.12500000000E+03 0.  0.
         25    1    1    2    0    0 -0.99436621720E+02  0.47438482929E+02 -0.23197195159E+03  0.28561169046E+03  0.12500000000E+03 0.  0.
</event>
<event>
 5    0  0.5771525E-005  0.4219387E+03  0.7546771E-02  0.1036437E+00
         21   -1    0    0  502  501  0.00000000000E+00  0.00000000000E+00  0.86351759758E+02  0.86351759758E+02  0.00000000000E+00 0. -1.
         21   -1    0    0  501  502 -0.00000000000E+00 -0.00000000000E+00 -0.20617102505E+04  0.20617102505E+04  0.00000000000E+00 0. -1.
         25    1    1    2    0    0  0.19781928994E+02  0.29762090899E+03 -0.50771963894E+03  0.60197488481E+03  0.12500000000E+03 0.  0.
         25    1    1    2    0    0 -0.22046519925E+02 -0.14879426933E+03 -0.27350366853E+03  0.33623658386E+03  0.12500000000E+03 0.  0.
         25    1    1    2    0    0  0.22645909313E+01 -0.14882663965E+03 -0.11941351833E+04  0.12098505416E+04  0.12500000000E+03 0.  0.
</event>
<event>
 5    0  0.6641946E-005  0.2630217E+03  0.7546771E-02  0.1105341E+00
         21   -1    0    0  502  501  0.00000000000E+00  0.00000000000E+00  0.17683322892E+03  0.17683322892E+03  0.00000000000E+00 0.  1.
         21   -1    0    0  501  502 -0.00000000000E+00 -0.00000000000E+00 -0.39121844747E+03  0.39121844747E+03  0.00000000000E+00 0.  1.
         25    1    1    2    0    0  0.80493345346E+01 -0.95372996887E+02 -0.15858157509E+03  0.22345898120E+03  0.12500000000E+03 0.  0.
         25    1    1    2    0    0 -0.36113047833E+02  0.13602839388E+03  0.21630692391E+02  0.18947496674E+03  0.12500000000E+03 0.  0.
         25    1    1    2    0    0  0.28063713299E+02 -0.40655396996E+02 -0.77434335853E+02  0.15511772845E+03  0.12500000000E+03 0.  0.
</event>
<event>
 5    0  0.5771525E-005  0.4071503E+03  0.7546771E-02  0.1041332E+00
         21   -1    0    0  502  501  0.00000000000E+00  0.00000000000E+00  0.27398626407E+03  0.27398626407E+03  0.00000000000E+00 0. -1.
         21   -1    0    0  501  502 -0.00000000000E+00 -0.00000000000E+00 -0.60503546183E+03  0.60503546183E+03  0.00000000000E+00 0. -1.
         25    1    1    2    0    0  0.49346082031E+02 -0.49682100443E+02 -0.12403016561E+03  0.18950416591E+03  0.12500000000E+03 0.  0.
         25    1    1    2    0    0  0.26887314698E+03 -0.49001339964E+02 -0.11664586720E+03  0.32237425272E+03  0.12500000000E+03 0.  0.
         25    1    1    2    0    0 -0.31821922901E+03  0.98683440407E+02 -0.90373164948E+02  0.36714330726E+03  0.12500000000E+03 0.  0.
</event>
<event>
 5    0  0.5771525E-005  0.2744445E+03  0.7546771E-02  0.1098763E+00
         21   -1    0    0  502  501  0.00000000000E+00  0.00000000000E+00  0.20099792412E+04  0.20099792412E+04  0.00000000000E+00 0. -1.
         21   -1    0    0  501  502 -0.00000000000E+00 -0.00000000000E+00 -0.37472906499E+02  0.37472906499E+02  0.00000000000E+00 0.  1.
         25    1    1    2    0    0 -0.66466323070E+02  0.12726275116E+03  0.81943104632E+03  0.84125253023E+03  0.12500000000E+03 0.  0.
         25    1    1    2    0    0 -0.11653327550E+02  0.10379367532E+01  0.22389639297E+03  0.25669334261E+03  0.12500000000E+03 0.  0.
         25    1    1    2    0    0  0.78119650620E+02 -0.12830068791E+03  0.92917889544E+03  0.94950627490E+03  0.12500000000E+03 0.  0.
</event>
<event>
 5    0  0.5771525E-005  0.3440848E+03  0.7546771E-02  0.1065069E+00
         21   -1    0    0  502  501  0.00000000000E+00  0.00000000000E+00  0.46507152163E+03  0.46507152163E+03  0.00000000000E+00 0. -1.
         21   -1    0    0  501  502 -0.00000000000E+00 -0.00000000000E+00 -0.25457239560E+03  0.25457239560E+03  0.00000000000E+00 0. -1.
         25    1    1    2    0    0  0.96914131548E+02  0.16779300913E+03 -0.13177350768E+02  0.23096641613E+03  0.12500000000E+03 0.  0.
         25    1    1    2    0    0 -0.12403281990E+03  0.48930746575E+02  0.98194172217E+02  0.20747398350E+03  0.12500000000E+03 0.  0.
         25    1    1    2    0    0  0.27118688353E+02 -0.21672375571E+03  0.12548230458E+03  0.28120351759E+03  0.12500000000E+03 0.  0.
</event>
<event>
 5    0  0.7053299E-005  0.3362068E+03  0.7546771E-02  0.1068423E+00
         21   -1    0    0  502  501  0.00000000000E+00  0.00000000000E+00  0.64071126104E+03  0.64071126104E+03  0.00000000000E+00 0.  1.
         21   -1    0    0  501  502 -0.00000000000E+00 -0.00000000000E+00 -0.17642109822E+03  0.17642109822E+03  0.00000000000E+00 0.  1.
         25    1    1    2    0    0  0.73658900259E+02  0.19085694927E+02  0.30198744953E+03  0.33557609720E+03  0.12500000000E+03 0.  0.
         25    1    1    2    0    0 -0.20365690020E+03  0.29449302262E+02  0.16983971278E+03  0.29464202423E+03  0.12500000000E+03 0.  0.
         25    1    1    2    0    0  0.12999799995E+03 -0.48534997188E+02 -0.75369994874E+01  0.18691423783E+03  0.12500000000E+03 0.  0.
</event>
<event>
 5    0  0.7858543E-005  0.3735622E+03  0.7546771E-02  0.1053339E+00
         21   -1    0    0  502  501  0.00000000000E+00  0.00000000000E+00  0.26545791128E+03  0.26545791128E+03  0.00000000000E+00 0.  1.
         21   -1    0    0  501  502 -0.00000000000E+00 -0.00000000000E+00 -0.52569058676E+03  0.52569058676E+03  0.00000000000E+00 0.  1.
         25    1    1    2    0    0  0.14072384788E+03  0.69245039170E+02 -0.86373063970E+02  0.21836525133E+03  0.12500000000E+03 0.  0.
         25    1    1    2    0    0 -0.89632655314E+02 -0.47778839279E+02  0.15071522720E+03  0.22058311379E+03  0.12500000000E+03 0.  0.
         25    1    1    2    0    0 -0.51091192562E+02 -0.21466199891E+02 -0.32457483872E+03  0.35220013291E+03  0.12500000000E+03 0.  0.
</event>
<event>
 5    0  0.5771525E-005  0.3300052E+03  0.7546771E-02  0.1071135E+00
         21   -1    0    0  502  501  0.00000000000E+00  0.00000000000E+00  0.81882903134E+03  0.81882903134E+03  0.00000000000E+00 0.  1.
         21   -1    0    0  501  502 -0.00000000000E+00 -0.00000000000E+00 -0.13299896639E+03  0.13299896639E+03  0.00000000000E+00 0.  1.
         25    1    1    2    0    0 -0.15562215443E+03  0.16939606398E+03  0.44945365373E+03  0.52014120034E+03  0.12500000000E+03 0.  0.
         25    1    1    2    0    0  0.34166852892E+02 -0.10712163642E+03  0.15792026745E+03  0.23066475608E+03  0.12500000000E+03 0.  0.
         25    1    1    2    0    0  0.12145530153E+03 -0.62274427561E+02  0.78456143771E+02  0.20102204131E+03  0.12500000000E+03 0.  0.
</event>
<event>
 5    0  0.5771525E-005  0.2952638E+03  0.7546771E-02  0.1087632E+00
         21   -1    0    0  502  501  0.00000000000E+00  0.00000000000E+00  0.22684307088E+03  0.22684307088E+03  0.00000000000E+00 0.  1.
         21   -1    0    0  501  502 -0.00000000000E+00 -0.00000000000E+00 -0.38432165407E+03  0.38432165407E+03  0.00000000000E+00 0.  1.
         25    1    1    2    0    0 -0.84581675901E+01 -0.14031941944E+03 -0.34141318491E+02  0.19118501431E+03  0.12500000000E+03 0.  0.
         25    1    1    2    0    0 -0.14608677922E+02  0.21751601853E+03 -0.94580892014E+02  0.26850917475E+03  0.12500000000E+03 0.  0.
         25    1    1    2    0    0  0.23066845512E+02 -0.77196599096E+02 -0.28756372683E+02  0.15147053589E+03  0.12500000000E+03 0.  0.
</event>
<event>
 5    0  0.5771525E-005  0.2534802E+03  0.7546771E-02  0.1111125E+00
         21   -1    0    0  502  501  0.00000000000E+00  0.00000000000E+00  0.32976751011E+02  0.32976751011E+02  0.00000000000E+00 0.  1.
         21   -1    0    0  501  502 -0.00000000000E+00 -0.00000000000E+00 -0.19484097801E+04  0.19484097801E+04  0.00000000000E+00 0.  1.
         25    1    1    2    0    0 -0.65101966069E+02  0.72035785609E+02 -0.49505946798E+03  0.51974637780E+03  0.12500000000E+03 0.  0.
         25    1    1    2    0    0  0.56691279659E+02  0.36943257874E+02 -0.33901415236E+03  0.36760617649E+03  0.12500000000E+03 0.  0.
         25    1    1    2    0    0  0.84106864095E+01 -0.10897904348E+03 -0.10813594088E+04  0.10940339769E+04  0.12500000000E+03 0.  0.
</event>
<event>
 5    0  0.5771525E-005  0.4721281E+03  0.7546771E-02  0.1021321E+00
         21   -1    0    0  502  501  0.00000000000E+00  0.00000000000E+00  0.81562725326E+03  0.81562725326E+03  0.00000000000E+00 0. -1.
         21   -1    0    0  501  502 -0.00000000000E+00 -0.00000000000E+00 -0.27329271261E+03  0.27329271261E+03  0.00000000000E+00 0. -1.
         25    1    1    2    0    0 -0.81725733634E+02 -0.12566921554E+03  0.53106383424E+03  0.56579646810E+03  0.12500000000E+03 0.  0.
         25    1    1    2    0    0 -0.15486327910E+03  0.14197483080E+03  0.57376591374E+02  0.25111065495E+03  0.12500000000E+03 0.  0.
         25    1    1    2    0    0  0.23658901273E+03 -0.16305615255E+02 -0.46105884961E+02  0.27201284283E+03  0.12500000000E+03 0.  0.
</event>
<event>
 5    0  0.5771525E-005  0.3766904E+03  0.7546771E-02  0.1052164E+00
         21   -1    0    0  502  501  0.00000000000E+00  0.00000000000E+00  0.10882838986E+04  0.10882838986E+04  0.00000000000E+00 0.  1.
         21   -1    0    0  501  502 -0.00000000000E+00 -0.00000000000E+00 -0.13038479412E+03  0.13038479412E+03  0.00000000000E+00 0.  1.
         25    1    1    2    0    0  0.10744959487E+03 -0.17641753636E+03  0.14692137294E+03  0.28262953208E+03  0.12500000000E+03 0.  0.
         25    1    1    2    0    0 -0.15755548836E+03 -0.22050507308E+02  0.52596750259E+03  0.56353950223E+03  0.12500000000E+03 0.  0.
         25    1    1    2    0    0  0.50105893489E+02  0.19846804367E+03  0.28501022899E+03  0.37249965845E+03  0.12500000000E+03 0.  0.
</event>
<event>
 5    0  0.5771525E-005  0.2915866E+03  0.7546771E-02  0.1089524E+00
         21   -1    0    0  502  501  0.00000000000E+00  0.00000000000E+00  0.50564973183E+03  0.50564973183E+03  0.00000000000E+00 0.  1.
         21   -1    0    0  501  502 -0.00000000000E+00 -0.00000000000E+00 -0.16814557398E+03  0.16814557398E+03  0.00000000000E+00 0.  1.
         25    1    1    2    0    0 -0.48199820815E+02  0.17181317173E+03  0.14505642637E+03  0.26174291879E+03  0.12500000000E+03 0.  0.
         25    1    1    2    0    0  0.97620372797E+02 -0.16243900091E+03  0.14410869803E+03  0.26890236714E+03  0.12500000000E+03 0.  0.
         25    1    1    2    0    0 -0.49420551982E+02 -0.93741708178E+01  0.48339033444E+02  0.14315001988E+03  0.12500000000E+03 0.  0.
</event>
<event>
 5    0  0.6517206E-005  0.4026807E+03  0.7546771E-02  0.1042855E+00
         21   -1    0    0  502  501  0.00000000000E+00  0.00000000000E+00  0.21500383405E+03  0.21500383405E+03  0.00000000000E+00 0.  1.
         21   -1    0    0  501  502 -0.00000000000E+00 -0.00000000000E+00 -0.75418074115E+03  0.75418074115E+03  0.00000000000E+00 0.  1.
         25    1    1    2    0    0 -0.64960639879E+02  0.19648175677E+03 -0.26743447388E+03  0.36051513602E+03  0.12500000000E+03 0.  0.
         25    1    1    2    0    0 -0.64039768261E+01 -0.25469504207E+03 -0.33671914456E+03  0.44035821519E+03  0.12500000000E+03 0.  0.
         25    1    1    2    0    0  0.71364616705E+02  0.58213285297E+02  0.64976711339E+02  0.16831122398E+03  0.12500000000E+03 0.  0.
</event>
<event>
 5    0  0.6579169E-005  0.2460279E+03  0.7546771E-02  0.1115841E+00
         21   -1    0    0  502  501  0.00000000000E+00  0.00000000000E+00  0.38041335953E+03  0.38041335953E+03  0.00000000000E+00 0. -1.
         21   -1    0    0  501  502 -0.00000000000E+00 -0.00000000000E+00 -0.15911572390E+03  0.15911572390E+03  0.00000000000E+00 0. -1.
         25    1    1    2    0    0  0.17783215813E+02  0.20047251365E+02  0.65910392840E+02  0.14383085530E+03  0.12500000000E+03 0.  0.
         25    1    1    2    0    0 -0.68767921431E+02 -0.12399202398E+03  0.11265010686E+03  0.22004112253E+03  0.12500000000E+03 0.  0.
         25    1    1    2    0    0  0.50984705618E+02  0.10394477262E+03  0.42737135931E+02  0.17565710560E+03  0.12500000000E+03 0.  0.
</event>
<event>
 5    0  0.5771525E-005  0.2071088E+03  0.7546771E-02  0.1143876E+00
         21   -1    0    0  502  501  0.00000000000E+00  0.00000000000E+00  0.74134219447E+02  0.74134219447E+02  0.00000000000E+00 0.  1.
         21   -1    0    0  501  502 -0.00000000000E+00 -0.00000000000E+00 -0.57860002277E+03  0.57860002277E+03  0.00000000000E+00 0.  1.
         25    1    1    2    0    0  0.30736010014E+02 -0.71362494482E+02 -0.18508432844E+03  0.23647096347E+03  0.12500000000E+03 0.  0.
         25    1    1    2    0    0 -0.33726473912E+01  0.27037550854E+02 -0.18937669015E+03  0.22854088186E+03  0.12500000000E+03 0.  0.
         25    1    1    2    0    0 -0.27363362623E+02  0.44324943627E+02 -0.13000478473E+03  0.18772239689E+03  0.12500000000E+03 0.  0.
</event>
<event>
 5    0  0.5771525E-005  0.2543675E+03  0.7546771E-02  0.1110575E+00
         21   -1    0    0  502  501  0.00000000000E+00  0.00000000000E+00  0.31098777246E+03  0.31098777246E+03  0.00000000000E+00 0.  1.
         21   -1    0    0  501  502 -0.00000000000E+00 -0.00000000000E+00 -0.20805591538E+03  0.20805591538E+03  0.00000000000E+00 0.  1.
         25    1    1    2    0    0  0.78821593098E+02 -0.12845745963E+03  0.66112322113E+02  0.20666398237E+03  0.12500000000E+03 0.  0.
         25    1    1    2    0    0 -0.57989103443E+02  0.71205870155E+02 -0.30193915982E+02  0.15801798830E+03  0.12500000000E+03 0.  0.
         25    1    1    2    0    0 -0.20832489655E+02  0.57251589470E+02  0.67013450952E+02  0.15436171718E+03  0.12500000000E+03 0.  0.
</event>
<event>
 5    0  0.6274784E-005  0.6229838E+03  0.7546771E-02  0.9858837E-01
         21   -1    0    0  502  501  0.00000000000E+00  0.00000000000E+00  0.44251373915E+03  0.44251373915E+03  0.00000000000E+00 0. -1.
         21   -1    0    0  501  502 -0.00000000000E+00 -0.00000000000E+00 -0.87705479721E+03  0.87705479721E+03  0.00000000000E+00 0. -1.
         25    1    1    2    0    0  0.23717299929E+02  0.39591230270E+03 -0.40356918040E+02  0.41780706382E+03  0.12500000000E+03 0.  0.
         25    1    1    2    0    0 -0.24042776904E+03 -0.61079679177E+01 -0.34090464707E+03  0.43552703451E+03  0.12500000000E+03 0.  0.
         25    1    1    2    0    0  0.21671046911E+03 -0.38980433478E+03 -0.53279492949E+02  0.46623443803E+03  0.12500000000E+03 0.  0.
</event>
<event>
 5    0  0.5771525E-005  0.2712956E+03  0.7546771E-02  0.1100540E+00
         21   -1    0    0  502  501  0.00000000000E+00  0.00000000000E+00  0.83317408734E+03  0.83317408734E+03  0.00000000000E+00 0. -1.
         21   -1    0    0  501  502 -0.00000000000E+00 -0.00000000000E+00 -0.88338443416E+02  0.88338443416E+02  0.00000000000E+00 0. -1.
         25    1    1    2    0    0  0.74260055505E+02 -0.36923014431E+02  0.46952657610E+02  0.15718593097E+03  0.12500000000E+03 0.  0.
         25    1    1    2    0    0 -0.20729838480E+02  0.57586774768E+02  0.52645871712E+03  0.54454544683E+03  0.12500000000E+03 0.  0.
         25    1    1    2    0    0 -0.53530217024E+02 -0.20663760337E+02  0.17142426920E+03  0.21978115296E+03  0.12500000000E+03 0.  0.
</event>
<event>
 5    0  0.5771525E-005  0.2690193E+03  0.7546771E-02  0.1101842E+00
         21   -1    0    0  502  501  0.00000000000E+00  0.00000000000E+00  0.86161563715E+03  0.86161563715E+03  0.00000000000E+00 0. -1.
         21   -1    0    0  501  502 -0.00000000000E+00 -0.00000000000E+00 -0.83994993476E+02  0.83994993476E+02  0.00000000000E+00 0. -1.
         25    1    1    2    0    0  0.11482021673E+03  0.87689661773E+02  0.20943918460E+03  0.28348356389E+03  0.12500000000E+03 0.  0.
         25    1    1    2    0    0 -0.13853224815E+03 -0.90872494674E+02  0.29430433199E+03  0.36012363695E+03  0.12500000000E+03 0.  0.
         25    1    1    2    0    0  0.23712031417E+02  0.31828329003E+01  0.27387712708E+03  0.30200342978E+03  0.12500000000E+03 0.  0.
</event>
<event>
 5    0  0.5771525E-005  0.2386830E+03  0.7546771E-02  0.1120673E+00
         21   -1    0    0  502  501  0.00000000000E+00  0.00000000000E+00  0.47767799371E+03  0.47767799371E+03  0.00000000000E+00 0. -1.
         21   -1    0    0  501  502 -0.00000000000E+00 -0.00000000000E+00 -0.11926356632E+03  0.11926356632E+03  0.00000000000E+00 0. -1.
         25    1    1    2    0    0 -0.10899052086E+03  0.83954024589E+02  0.11557803948E+03  0.21888466162E+03  0.12500000000E+03 0.  0.
         25    1    1    2    0    0  0.45154801442E+02 -0.56971231061E+02  0.98731112209E+02  0.17509286045E+03  0.12500000000E+03 0.  0.
         25    1    1    2    0    0  0.63835719416E+02 -0.26982793529E+02  0.14410527569E+03  0.20296403796E+03  0.12500000000E+03 0.  0.
</event>
<event>
 5    0  0.5771525E-005  0.2525141E+03  0.7546771E-02  0.1111726E+00
         21   -1    0    0  502  501  0.00000000000E+00  0.00000000000E+00  0.50793046957E+02  0.50793046957E+02  0.00000000000E+00 0. -1.
         21   -1    0    0  501  502 -0.00000000000E+00 -0.00000000000E+00 -0.12553566752E+04  0.12553566752E+04  0.00000000000E+00 0. -1.
         25    1    1    2    0    0  0.83348980321E+01 -0.60018103382E+02 -0.47974002130E+03  0.49944682529E+03  0.12500000000E+03 0.  0.
         25    1    1    2    0    0 -0.69013387994E+02 -0.32901249807E+02 -0.53056683862E+03  0.55042847874E+03  0.12500000000E+03 0.  0.
         25    1    1    2    0    0  0.60678489961E+02  0.92919353189E+02 -0.19425676828E+03  0.25627441808E+03  0.12500000000E+03 0.  0.
</event>
<event>
 5    0  0.6337630E-005  0.2981786E+03  0.7546771E-02  0.1086155E+00
         21   -1    0    0  502  501  0.00000000000E+00  0.00000000000E+00  0.32227565401E+03  0.32227565401E+03  0.00000000000E+00 0. -1.
         21   -1    0    0  501  502 -0.00000000000E+00 -0.00000000000E+00 -0.27588330947E+03  0.27588330947E+03  0.00000000000E+00 0. -1.
         25    1    1    2    0    0 -0.74056621039E+02  0.14266891820E+03 -0.12036032810E+03  0.23653839418E+03  0.12500000000E+03 0.  0.
         25    1    1    2    0    0  0.81907755937E+02 -0.35395258720E+02  0.58432799591E+02  0.16432010495E+03  0.12500000000E+03 0.  0.
         25    1    1    2    0    0 -0.78511348985E+01 -0.10727365948E+03  0.10831987305E+03  0.19730046435E+03  0.12500000000E+03 0.  0.
</event>
<event>
 5    0  0.5771525E-005  0.3250657E+03  0.7546771E-02  0.1073341E+00
         21   -1    0    0  502  501  0.00000000000E+00  0.00000000000E+00  0.68795360299E+02  0.68795360299E+02  0.00000000000E+00 0.  1.
         21   -1    0    0  501  502 -0.00000000000E+00 -0.00000000000E+00 -0.15359715941E+04  0.15359715941E+04  0.00000000000E+00 0.  1.
         25    1    1    2    0    0  0.62390416090E+01 -0.53951489197E+02 -0.11808379546E+04  0.11886769805E+04  0.12500000000E+03 0.  0.
         25    1    1    2    0    0 -0.28191347656E+02 -0.31552208107E+02 -0.20220495257E+03  0.24145835410E+03  0.12500000000E+03 0.  0.
         25    1    1    2    0    0  0.21952306047E+02  0.85503697304E+02 -0.84133326579E+02  0.17463161980E+03  0.12500000000E+03 0.  0.
</event>
<event>
 5    0  0.5771525E-005  0.2161351E+03  0.7546771E-02  0.1136798E+00
         21   -1    0    0  502  501  0.00000000000E+00  0.00000000000E+00  0.10218535129E+04  0.10218535129E+04  0.00000000000E+00 0.  1.
         21   -1    0    0  501  502 -0.00000000000E+00 -0.00000000000E+00 -0.45715356499E+02  0.45715356499E+02  0.00000000000E+00 0.  1.
         25    1    1    2    0    0  0.81332834823E+01  0.41452560475E+02  0.23429483060E+03  0.26889316227E+03  0.12500000000E+03 0.  0.
         25    1    1    2    0    0  0.11370368904E+02  0.16755486787E+02  0.18164337963E+03  0.22142571890E+03  0.12500000000E+03 0.  0.
         25    1    1    2    0    0 -0.19503652386E+02 -0.58208047262E+02  0.56019994621E+03  0.57724998827E+03  0.12500000000E+03 0.  0.
</event>
<event>
 5    0  0.5771525E-005  0.2262608E+03  0.7546771E-02  0.1129300E+00
         21   -1    0    0  502  501  0.00000000000E+00  0.00000000000E+00  0.65454108844E+02  0.65454108844E+02  0.00000000000E+00 0.  1.
         21   -1    0    0  501  502 -0.00000000000E+00 -0.00000000000E+00 -0.78213467112E+03  0.78213467112E+03  0.00000000000E+00 0.  1.
         25    1    1    2    0    0  0.54721619780E+02 -0.22448398848E+02 -0.37933216874E+03  0.40375274677E+03  0.12500000000E+03 0.  0.
         25    1    1    2    0    0 -0.62837759665E+02  0.55380833828E+02 -0.12743783074E+03  0.19718271095E+03  0.12500000000E+03 0.  0.
         25    1    1    2    0    0  0.81161398847E+01 -0.32932434980E+02 -0.20991056280E+03  0.24665332225E+03  0.12500000000E+03 0.  0.
</event>
<event>
 5    0  0.5771525E-005  0.5130431E+03  0.7546771E-02  0.1010429E+00
         21   -1    0    0  502  501  0.00000000000E+00  0.00000000000E+00  0.13862611590E+04  0.13862611590E+04  0.00000000000E+00 0. -1.
         21   -1    0    0  501  502 -0.00000000000E+00 -0.00000000000E+00 -0.18987278799E+03  0.18987278799E+03  0.00000000000E+00 0. -1.
         25    1    1    2    0    0 -0.98448234242E+02  0.11231961829E+03  0.94593583730E+03  0.96577811104E+03  0.12500000000E+03 0.  0.
         25    1    1    2    0    0 -0.61016912665E+02 -0.17845552233E+03 -0.59720883932E+02  0.23401072851E+03  0.12500000000E+03 0.  0.
         25    1    1    2    0    0  0.15946514691E+03  0.66135904034E+02  0.31017341763E+03  0.37634510742E+03  0.12500000000E+03 0.  0.
</event>
<event>
 5    0  0.5771525E-005  0.4810513E+03  0.7546771E-02  0.1018847E+00
         21   -1    0    0  502  501  0.00000000000E+00  0.00000000000E+00  0.11769571436E+03  0.11769571436E+03  0.00000000000E+00 0. -1.
         21   -1    0    0  501  502 -0.00000000000E+00 -0.00000000000E+00 -0.19661747970E+04  0.19661747970E+04  0.00000000000E+00 0. -1.
         25    1    1    2    0    0 -0.17402097698E+03  0.14786812448E+03 -0.97178651694E+03  0.10060528401E+04  0.12500000000E+03 0.  0.
         25    1    1    2    0    0  0.23225358157E+03 -0.16542600182E+03 -0.88538893893E+03  0.93853399587E+03  0.12500000000E+03 0.  0.
         25    1    1    2    0    0 -0.58232604594E+02  0.17557877342E+02  0.86963732729E+01  0.13928367529E+03  0.12500000000E+03 0.  0.
</event>
<event>
 5    0  0.5771525E-005  0.2808493E+03  0.7546771E-02  0.1095226E+00
         21   -1    0    0  502  501  0.00000000000E+00  0.00000000000E+00  0.14709237943E+03  0.14709237943E+03  0.00000000000E+00 0. -1.
         21   -1    0    0  501  502 -0.00000000000E+00 -0.00000000000E+00 -0.53623680251E+03  0.53623680251E+03  0.00000000000E+00 0. -1.
         25    1    1    2    0    0 -0.17741055568E+03 -0.68057460115E+02 -0.14010517660E+03  0.26713439250E+03  0.12500000000E+03 0.  0.
         25    1    1    2    0    0  0.82463320777E+02 -0.20439960225E+02 -0.13710209807E+03  0.20405875758E+03  0.12500000000E+03 0.  0.
         25    1    1    2    0    0  0.94947234908E+02  0.88497420341E+02 -0.11193714841E+03  0.21213603187E+03  0.12500000000E+03 0.  0.
</event>
<event>
 5    0  0.5771525E-005  0.3379161E+03  0.7546771E-02  0.1067687E+00
         21   -1    0    0  502  501  0.00000000000E+00  0.00000000000E+00  0.92085988965E+03  0.92085988965E+03  0.00000000000E+00 0.  1.
         21   -1    0    0  501  502 -0.00000000000E+00 -0.00000000000E+00 -0.12400072804E+03  0.12400072804E+03  0.00000000000E+00 0.  1.
         25    1    1    2    0    0 -0.31073068838E+02  0.75455125590E+02  0.39818331076E+03  0.42524576489E+03  0.12500000000E+03 0.  0.
         25    1    1    2    0    0 -0.14791382176E+03  0.72243943544E+02  0.21570341777E+03  0.29874847361E+03  0.12500000000E+03 0.  0.
         25    1    1    2    0    0  0.17898689060E+03 -0.14769906913E+03  0.18297243308E+03  0.32086637919E+03  0.12500000000E+03 0.  0.
</event>
<event>
 5    0  0.5771525E-005  0.2394645E+03  0.7546771E-02  0.1120150E+00
         21   -1    0    0  502  501  0.00000000000E+00  0.00000000000E+00  0.46204682024E+03  0.46204682024E+03  0.00000000000E+00 0.  1.
         21   -1    0    0  501  502 -0.00000000000E+00 -0.00000000000E+00 -0.12410701975E+03  0.12410701975E+03  0.00000000000E+00 0.  1.
         25    1    1    2    0    0 -0.90497925836E+02 -0.68917745623E+02  0.21877133365E+03  0.27645149063E+03  0.12500000000E+03 0.  0.
         25    1    1    2    0    0  0.40606699941E+02  0.58513216358E+02  0.27346696487E+02  0.14644296630E+03  0.12500000000E+03 0.  0.
         25    1    1    2    0    0  0.49891225894E+02  0.10404529265E+02  0.91821770357E+02  0.16325938307E+03  0.12500000000E+03 0.  0.
</event>
<event>
 5    0  0.5771525E-005  0.4289718E+03  0.7546771E-02  0.1034185E+00
         21   -1    0    0  502  501  0.00000000000E+00  0.00000000000E+00  0.13927457151E+04  0.13927457151E+04  0.00000000000E+00 0. -1.
         21   -1    0    0  501  502 -0.00000000000E+00 -0.00000000000E+00 -0.13212518251E+03  0.13212518251E+03  0.00000000000E+00 0. -1.
         25    1    1    2    0    0 -0.20659131765E+03  0.16636074369E+02  0.89381416386E+03  0.92600512473E+03  0.12500000000E+03 0.  0.
         25    1    1    2    0    0  0.81136621922E+02 -0.14593425921E+03  0.51558186912E+02  0.21485624511E+03  0.12500000000E+03 0.  0.
         25    1    1    2    0    0  0.12545469573E+03  0.12929818484E+03  0.31524818184E+03  0.38400952779E+03  0.12500000000E+03 0.  0.
</event>
<event>
 5    0  0.5771525E-005  0.2495985E+03  0.7546771E-02  0.1113559E+00
         21   -1    0    0  502  501  0.00000000000E+00  0.00000000000E+00  0.80824182094E+02  0.80824182094E+02  0.00000000000E+00 0. -1.
         21   -1    0    0  501  502 -0.00000000000E+00 -0.00000000000E+00 -0.77080148027E+03  0.77080148027E+03  0.00000000000E+00 0. -1.
         25    1    1    2    0    0  0.50804235647E+02 -0.52101409828E+02 -0.92224859612E+02  0.17154023434E+03  0.12500000000E+03 0.  0.
         25    1    1    2    0    0  0.53381416604E+02  0.24226406834E+02 -0.39608898199E+03  0.41946153111E+03  0.12500000000E+03 0.  0.
         25    1    1    2    0    0 -0.10418565225E+03  0.27875002995E+02 -0.20166345657E+03  0.26062389692E+03  0.12500000000E+03 0.  0.
</event>
<event>
 5    0  0.5771525E-005  0.2892654E+03  0.7546771E-02  0.1090733E+00
         21   -1    0    0  502  501  0.00000000000E+00  0.00000000000E+00  0.77438986280E+02  0.77438986280E+02  0.00000000000E+00 0. -1.
         21   -1    0    0  501  502 -0.00000000000E+00 -0.00000000000E+00 -0.10805211949E+04  0.10805211949E+04  0.00000000000E+00 0. -1.
         25    1    1    2    0    0  0.58082766545E+02  0.11386586347E+03 -0.17661447151E+03  0.25130999618E+03  0.12500000000E+03 0.  0.
         25    1    1    2    0    0  0.46108893136E+02  0.41661255968E+02 -0.41191675874E+03  0.43492770250E+03  0.12500000000E+03 0.  0.
         25    1    1    2    0    0 -0.10419165968E+03 -0.15552711944E+03 -0.41455097840E+03  0.47172248253E+03  0.12500000000E+03 0.  0.
</event>
<event>
 5    0  0.5771525E-005  0.4249292E+03  0.7546771E-02  0.1035474E+00
         21   -1    0    0  502  501  0.00000000000E+00  0.00000000000E+00  0.10178661320E+03  0.10178661320E+03  0.00000000000E+00 0.  1.
         21   -1    0    0  501  502 -0.00000000000E+00 -0.00000000000E+00 -0.17739545934E+04  0.17739545934E+04  0.00000000000E+00 0.  1.
         25    1    1    2    0    0  0.21101880674E+03  0.21242556233E+03 -0.40094741403E+03  0.51578812040E+03  0.12500000000E+03 0.  0.
         25    1    1    2    0    0 -0.29477963353E+02 -0.18454640219E+03 -0.38068559856E+03  0.44212311615E+03  0.12500000000E+03 0.  0.
         25    1    1    2    0    0 -0.18154084339E+03 -0.27879160143E+02 -0.89053496764E+03  0.91782997008E+03  0.12500000000E+03 0.  0.
</event>
<event>
 5    0  0.7563387E-005  0.2629693E+03  0.7546771E-02  0.1105372E+00
         21   -1    0    0  502  501  0.00000000000E+00  0.00000000000E+00  0.22273883974E+03  0.22273883974E+03  0.00000000000E+00 0. -1.
         21   -1    0    0  501  502 -0.00000000000E+00 -0.00000000000E+00 -0.31046607183E+03  0.31046607183E+03  0.00000000000E+00 0. -1.
         25    1    1    2    0    0 -0.34716063176E+02 -0.13014110598E+03  0.55674578410E+01  0.18384207651E+03  0.12500000000E+03 0.  0.
         25    1    1    2    0    0 -0.14576177830E+00 -0.31288746511E+02 -0.24906265230E+02  0.13124149097E+03  0.12500000000E+03 0.  0.
         25    1    1    2    0    0  0.34861824955E+02  0.16142985250E+03 -0.68388424697E+02  0.21812134409E+03  0.12500000000E+03 0.  0.
</event>
<event>
 5    0  0.6364993E-005  0.3242200E+03  0.7546771E-02  0.1073723E+00
         21   -1    0    0  502  501  0.00000000000E+00  0.00000000000E+00  0.32423171271E+03  0.32423171271E+03  0.00000000000E+00 0. -1.
         21   -1    0    0  501  502 -0.00000000000E+00 -0.00000000000E+00 -0.32420830992E+03  0.32420830992E+03  0.00000000000E+00 0. -1.
         25    1    1    2    0    0 -0.12358087804E+03  0.62540776974E+02 -0.13344122864E+02  0.18704718073E+03  0.12500000000E+03 0.  0.
         25    1    1    2    0    0  0.14414625535E+03 -0.19233881156E+03 -0.36308976951E+02  0.27334173332E+03  0.12500000000E+03 0.  0.
         25    1    1    2    0    0 -0.20565377309E+02  0.12979803459E+03  0.49676502609E+02  0.18805110858E+03  0.12500000000E+03 0.  0.
</event>
<event>
 5    0  0.5771525E-005  0.2322866E+03  0.7546771E-02  0.1125041E+00
         21   -1    0    0  502  501  0.00000000000E+00  0.00000000000E+00  0.91549626406E+02  0.91549626406E+02  0.00000000000E+00 0.  1.
         21   -1    0    0  501  502 -0.00000000000E+00 -0.00000000000E+00 -0.58937499448E+03  0.58937499448E+03  0.00000000000E+00 0.  1.
         25    1    1    2    0    0  0.93756162247E+02 -0.25285390598E+00 -0.10463030788E+03  0.18804994874E+03  0.12500000000E+03 0.  0.
         25    1    1    2    0    0 -0.65131179027E+02  0.19386369529E+02 -0.10490531058E+03  0.17677111187E+03  0.12500000000E+03 0.  0.
         25    1    1    2    0    0 -0.28624983221E+02 -0.19133515623E+02 -0.28828974961E+03  0.31610356027E+03  0.12500000000E+03 0.  0.
</event>
<event>
 5    0  0.5771525E-005  0.4290125E+03  0.7546771E-02  0.1034172E+00
         21   -1    0    0  502  501  0.00000000000E+00  0.00000000000E+00  0.44764390759E+03  0.44764390759E+03  0.00000000000E+00 0.  1.
         21   -1    0    0  501  502 -0.00000000000E+00 -0.00000000000E+00 -0.41115662668E+03  0.41115662668E+03  0.00000000000E+00 0.  1.
         25    1    1    2    0    0  0.11306488408E+03 -0.11633751464E+03  0.13428699142E+03  0.24490014575E+03  0.12500000000E+03 0.  0.
         25    1    1    2    0    0 -0.27098667694E+03  0.91821204537E+02 -0.21546115398E+03  0.37935922496E+03  0.12500000000E+03 0.  0.
         25    1    1    2    0    0  0.15792179286E+03  0.24516310099E+02  0.11766144347E+03  0.23454116356E+03  0.12500000000E+03 0.  0.
</event>
<event>
 5    0  0.5771525E-005  0.3191116E+03  0.7546771E-02  0.1076059E+00
         21   -1    0    0  502  501  0.00000000000E+00  0.00000000000E+00  0.30260608811E+03  0.30260608811E+03  0.00000000000E+00 0.  1.
         21   -1    0    0  501  502 -0.00000000000E+00 -0.00000000000E+00 -0.33651730942E+03  0.33651730942E+03  0.00000000000E+00 0.  1.
         25    1    1    2    0    0  0.15225909604E+03 -0.99354436023E+01 -0.58046094685E+02  0.20561102713E+03  0.12500000000E+03 0.  0.
         25    1    1    2    0    0 -0.54849339693E+02  0.11351692388E+03  0.12677758343E+03  0.21815613154E+03  0.12500000000E+03 0.  0.
         25    1    1    2    0    0 -0.97409756351E+02 -0.10358148027E+03 -0.10264271005E+03  0.21535623886E+03  0.12500000000E+03 0.  0.
</event>
<event>
 5    0  0.5771525E-005  0.4238171E+03  0.7546771E-02  0.1035831E+00
         21   -1    0    0  502  501  0.00000000000E+00  0.00000000000E+00  0.13612625487E+03  0.13612625487E+03  0.00000000000E+00 0. -1.
         21   -1    0    0  501  502 -0.00000000000E+00 -0.00000000000E+00 -0.13195172631E+04  0.13195172631E+04  0.00000000000E+00 0. -1.
         25    1    1    2    0    0  0.80711406542E+02  0.11537051660E+03 -0.50657824390E+03  0.54043612430E+03  0.12500000000E+03 0.  0.
         25    1    1    2    0    0  0.15627633530E+03  0.68880006506E+02 -0.63393327267E+02  0.22093089918E+03  0.12500000000E+03 0.  0.
         25    1    1    2    0    0 -0.23698774184E+03 -0.18425052311E+03 -0.61341943701E+03  0.69427649445E+03  0.12500000000E+03 0.  0.
</event>
<event>
 5    0  0.5771525E-005  0.2671948E+03  0.7546771E-02  0.1102896E+00
         21   -1    0    0  502  501  0.00000000000E+00  0.00000000000E+00  0.13808476747E+04  0.13808476747E+04  0.00000000000E+00 0. -1.
         21   -1    0    0  501  502 -0.00000000000E+00 -0.00000000000E+00 -0.51702332491E+02  0.51702332491E+02  0.00000000000E+00 0. -1.
         25    1    1    2    0    0  0.64537068622E+01  0.32289921092E+01  0.40286445894E+03  0.42187302474E+03  0.12500000000E+03 0.  0.
         25    1    1    2    0    0  0.41322194837E+02 -0.10569847245E+03  0.74190527760E+03  0.76087326920E+03  0.12500000000E+03 0.  0.
         25    1    1    2    0    0 -0.47775901699E+02  0.10246948034E+03  0.18437560565E+03  0.24980371323E+03  0.12500000000E+03 0.  0.
</event>
<event>
 5    0  0.5771525E-005  0.2906879E+03  0.7546771E-02  0.1089991E+00
         21   -1    0    0  502  501  0.00000000000E+00  0.00000000000E+00  0.55753867517E+03  0.55753867517E+03  0.00000000000E+00 0.  1.
         21   -1    0    0  501  502 -0.00000000000E+00 -0.00000000000E+00 -0.15155798426E+03  0.15155798426E+03  0.00000000000E+00 0.  1.
         25    1    1    2    0    0 -0.64919929183E+02  0.12893062582E+03  0.34949984792E+02  0.19412419972E+03  0.12500000000E+03 0.  0.
         25    1    1    2    0    0 -0.27550800091E+01 -0.15708824802E+03  0.27746005884E+03  0.34248122924E+03  0.12500000000E+03 0.  0.
         25    1    1    2    0    0  0.67675009192E+02  0.28157622202E+02  0.93570647276E+02  0.17249123047E+03  0.12500000000E+03 0.  0.
</event>
<event>
 5    0  0.5771525E-005  0.2592871E+03  0.7546771E-02  0.1107572E+00
         21   -1    0    0  502  501  0.00000000000E+00  0.00000000000E+00  0.96308221774E+03  0.96308221774E+03  0.00000000000E+00 0.  1.
         21   -1    0    0  501  502 -0.00000000000E+00 -0.00000000000E+00 -0.69806891330E+02  0.69806891330E+02  0.00000000000E+00 0.  1.
         25    1    1    2    0    0 -0.22019938713E+02 -0.72891475643E+02  0.45883778126E+03  0.48161722813E+03  0.12500000000E+03 0.  0.
         25    1    1    2    0    0 -0.45097408686E+02  0.32441523155E+02  0.61049868567E+02  0.14979424270E+03  0.12500000000E+03 0.  0.
         25    1    1    2    0    0  0.67117347399E+02  0.40449952488E+02  0.37338767658E+03  0.40147763823E+03  0.12500000000E+03 0.  0.
</event>
<event>
 5    0  0.5771525E-005  0.3484077E+03  0.7546771E-02  0.1063270E+00
         21   -1    0    0  502  501  0.00000000000E+00  0.00000000000E+00  0.15192992836E+03  0.15192992836E+03  0.00000000000E+00 0. -1.
         21   -1    0    0  501  502 -0.00000000000E+00 -0.00000000000E+00 -0.79897321466E+03  0.79897321466E+03  0.00000000000E+00 0. -1.
         25    1    1    2    0    0 -0.11796059855E+03 -0.27279520216E+02 -0.43019623701E+03  0.46406107073E+03  0.12500000000E+03 0.  0.
         25    1    1    2    0    0  0.23653889235E+02  0.20427763510E+02 -0.28739914696E+03  0.31496042557E+03  0.12500000000E+03 0.  0.
         25    1    1    2    0    0  0.94306709312E+02  0.68517567060E+01  0.70552097673E+02  0.17188164671E+03  0.12500000000E+03 0.  0.
</event>
<event>
 5    0  0.5771525E-005  0.3013455E+03  0.7546771E-02  0.1084570E+00
         21   -1    0    0  502  501  0.00000000000E+00  0.00000000000E+00  0.54652701098E+03  0.54652701098E+03  0.00000000000E+00 0. -1.
         21   -1    0    0  501  502 -0.00000000000E+00 -0.00000000000E+00 -0.16615672609E+03  0.16615672609E+03  0.00000000000E+00 0. -1.
         25    1    1    2    0    0 -0.97880274002E+02 -0.12324753305E+03  0.21044790659E+03  0.29100485190E+03  0.12500000000E+03 0.  0.
         25    1    1    2    0    0 -0.48926633953E+02 -0.29600529672E+02  0.83823911354E+02  0.16100141298E+03  0.12500000000E+03 0.  0.
         25    1    1    2    0    0  0.14680690796E+03  0.15284806272E+03  0.86098466946E+02  0.26067747220E+03  0.12500000000E+03 0.  0.
</event>
<event>
 5    0  0.5771525E-005  0.4768986E+03  0.7546771E-02  0.1019991E+00
         21   -1    0    0  502  501  0.00000000000E+00  0.00000000000E+00  0.50522144956E+03  0.50522144956E+03  0.00000000000E+00 0. -1.
         21   -1    0    0  501  502 -0.00000000000E+00 -0.00000000000E+00 -0.45016349677E+03  0.45016349677E+03  0.00000000000E+00 0. -1.
         25    1    1    2    0    0 -0.13303541422E+03  0.23073369155E+02  0.70831394738E+02  0.19716208632E+03  0.12500000000E+03 0.  0.
         25    1    1    2    0    0  0.41262343581E+03 -0.50450803334E+02  0.68376719851E+02  0.43943572813E+03  0.12500000000E+03 0.  0.
         25    1    1    2    0    0 -0.27958802159E+03  0.27377434179E+02 -0.84150161797E+02  0.31878713188E+03  0.12500000000E+03 0.  0.
</event>
<event>
 5    0  0.5771525E-005  0.3322210E+03  0.7546771E-02  0.1070158E+00
         21   -1    0    0  502  501  0.00000000000E+00  0.00000000000E+00  0.97202131457E+03  0.97202131457E+03  0.00000000000E+00 0. -1.
         21   -1    0    0  501  502 -0.00000000000E+00 -0.00000000000E+00 -0.11354770050E+03  0.11354770050E+03  0.00000000000E+00 0. -1.
         25    1    1    2    0    0 -0.74798733287E+01  0.15130372706E+03  0.14483656756E+03  0.24403155048E+03  0.12500000000E+03 0.  0.
         25    1    1    2    0    0  0.33065591260E+01 -0.43066727662E+02  0.26638575958E+02  0.13490845079E+03  0.12500000000E+03 0.  0.
         25    1    1    2    0    0  0.41733142027E+01 -0.10823699940E+03  0.68699847056E+03  0.70662901380E+03  0.12500000000E+03 0.  0.
</event>
<event>
 5    0  0.5771525E-005  0.3175114E+03  0.7546771E-02  0.1076800E+00
         21   -1    0    0  502  501  0.00000000000E+00  0.00000000000E+00  0.12640880302E+03  0.12640880302E+03  0.00000000000E+00 0.  1.
         21   -1    0    0  501  502 -0.00000000000E+00 -0.00000000000E+00 -0.79751958045E+03  0.79751958045E+03  0.00000000000E+00 0.  1.
         25    1    1    2    0    0 -0.18998067385E+03 -0.52540683901E+02 -0.11820309281E+03  0.26162979771E+03  0.12500000000E+03 0.  0.
         25    1    1    2    0    0  0.97219008105E+02  0.11418784452E+03 -0.26336320916E+03  0.32783468290E+03  0.12500000000E+03 0.  0.
         25    1    1    2    0    0  0.92761665742E+02 -0.61647160620E+02 -0.28954447547E+03  0.33446390286E+03  0.12500000000E+03 0.  0.
</event>
<event>
 5    0  0.5771525E-005  0.3624464E+03  0.7546771E-02  0.1057619E+00
         21   -1    0    0  502  501  0.00000000000E+00  0.00000000000E+00  0.10317935168E+03  0.10317935168E+03  0.00000000000E+00 0.  1.
         21   -1    0    0  501  502 -0.00000000000E+00 -0.00000000000E+00 -0.12731946538E+04  0.12731946538E+04  0.00000000000E+00 0.  1.
         25    1    1    2    0    0  0.77570776388E+02 -0.15122368071E+03 -0.56796995987E+03  0.60588835793E+03  0.12500000000E+03 0.  0.
         25    1    1    2    0    0  0.12345127510E+03 -0.37856928684E+01 -0.34963369457E+03  0.39130968448E+03  0.12500000000E+03 0.  0.
         25    1    1    2    0    0 -0.20102205148E+03  0.15500937358E+03 -0.25241164765E+03  0.37917596304E+03  0.12500000000E+03 0.  0.
</event>
<event>
 5    0  0.5771525E-005  0.3126395E+03  0.7546771E-02  0.1079088E+00
         21   -1    0    0  502  501  0.00000000000E+00  0.00000000000E+00  0.94894968122E+02  0.94894968122E+02  0.00000000000E+00 0. -1.
         21   -1    0    0  501  502 -0.00000000000E+00 -0.00000000000E+00 -0.10300172139E+04  0.10300172139E+04  0.00000000000E+00 0. -1.
         25    1    1    2    0    0  0.43707356833E+02  0.64215495655E+02 -0.11567752562E+03  0.18719041871E+03  0.12500000000E+03 0.  0.
         25    1    1    2    0    0 -0.17913010444E+03  0.52899553043E+02 -0.30506754666E+03  0.37891577567E+03  0.12500000000E+03 0.  0.
         25    1    1    2    0    0  0.13542274761E+03 -0.11711504870E+03 -0.51437717348E+03  0.55880598762E+03  0.12500000000E+03 0.  0.
</event>
<event>
 5    0  0.5771525E-005  0.2294366E+03  0.7546771E-02  0.1127037E+00
         21   -1    0    0  502  501  0.00000000000E+00  0.00000000000E+00  0.16003057372E+03  0.16003057372E+03  0.00000000000E+00 0. -1.
         21   -1    0    0  501  502 -0.00000000000E+00 -0.00000000000E+00 -0.32894429384E+03  0.32894429384E+03  0.00000000000E+00 0. -1.
         25    1    1    2    0    0 -0.28244446647E+02 -0.21020235786E+02 -0.11961982517E+03  0.17656019272E+03  0.12500000000E+03 0.  0.
         25    1    1    2    0    0 -0.30857629253E+02 -0.63322425856E+02 -0.45084152204E+02  0.15039781807E+03  0.12500000000E+03 0.  0.
         25    1    1    2    0    0  0.59102075900E+02  0.84342661642E+02 -0.42097427478E+01  0.16201685679E+03  0.12500000000E+03 0.  0.
</event>
<event>
 5    0  0.5771525E-005  0.5174632E+03  0.7546771E-02  0.1009319E+00
         21   -1    0    0  502  501  0.00000000000E+00  0.00000000000E+00  0.17899037081E+04  0.17899037081E+04  0.00000000000E+00 0.  1.
         21   -1    0    0  501  502 -0.00000000000E+00 -0.00000000000E+00 -0.14959921796E+03  0.14959921796E+03  0.00000000000E+00 0.  1.
         25    1    1    2    0    0  0.16895520139E+03  0.31373913029E+03  0.36319477053E+03  0.52394040052E+03  0.12500000000E+03 0.  0.
         25    1    1    2    0    0 -0.22326523239E+02  0.55981887683E+02  0.11271689732E+03  0.17878071577E+03  0.12500000000E+03 0.  0.
         25    1    1    2    0    0 -0.14662867815E+03 -0.36972101797E+03  0.11643928223E+04  0.12367818098E+04  0.12500000000E+03 0.  0.
</event>
<event>
 5    0  0.5771525E-005  0.2779594E+03  0.7546771E-02  0.1096809E+00
         21   -1    0    0  502  501  0.00000000000E+00  0.00000000000E+00  0.61385474797E+03  0.61385474797E+03  0.00000000000E+00 0. -1.
         21   -1    0    0  501  502 -0.00000000000E+00 -0.00000000000E+00 -0.12586274304E+03  0.12586274304E+03  0.00000000000E+00 0. -1.
         25    1    1    2    0    0  0.80077503455E+02  0.10505240136E+03  0.16941631819E+03  0.24854637889E+03  0.12500000000E+03 0.  0.
         25    1    1    2    0    0  0.26553899413E+02 -0.14579603915E+02  0.26744009042E+03  0.29676063820E+03  0.12500000000E+03 0.  0.
         25    1    1    2    0    0 -0.10663140287E+03 -0.90472797444E+02  0.51135596330E+02  0.19441047391E+03  0.12500000000E+03 0.  0.
</event>
<event>
 5    0  0.5771525E-005  0.2257896E+03  0.7546771E-02  0.1129639E+00
         21   -1    0    0  502  501  0.00000000000E+00  0.00000000000E+00  0.15587750363E+03  0.15587750363E+03  0.00000000000E+00 0. -1.
         21   -1    0    0  501  502 -0.00000000000E+00 -0.00000000000E+00 -0.32705783332E+03  0.32705783332E+03  0.00000000000E+00 0. -1.
         25    1    1    2    0    0  0.76917612710E+01 -0.75696013255E+02 -0.81511533891E+02  0.16750576041E+03  0.12500000000E+03 0.  0.
         25    1    1    2    0    0 -0.40793779747E+02  0.10646936318E+03 -0.57258529005E+02  0.17861522025E+03  0.12500000000E+03 0.  0.
         25    1    1    2    0    0  0.33102018476E+02 -0.30773349924E+02 -0.32410266793E+02  0.13681435629E+03  0.12500000000E+03 0.  0.
</event>
<event>
 5    0  0.5771525E-005  0.2369433E+03  0.7546771E-02  0.1121846E+00
         21   -1    0    0  502  501  0.00000000000E+00  0.00000000000E+00  0.97298028845E+02  0.97298028845E+02  0.00000000000E+00 0. -1.
         21   -1    0    0  501  502 -0.00000000000E+00 -0.00000000000E+00 -0.57701204945E+03  0.57701204945E+03  0.00000000000E+00 0. -1.
         25    1    1    2    0    0  0.40527580156E+02 -0.67200674792E+01 -0.30869070203E+03  0.33556309926E+03  0.12500000000E+03 0.  0.
         25    1    1    2    0    0 -0.76647458213E+02 -0.72192639180E+01 -0.14295938348E+03  0.20491299604E+03  0.12500000000E+03 0.  0.
         25    1    1    2    0    0  0.36119878057E+02  0.13939331397E+02 -0.28063935085E+02  0.13383398299E+03  0.12500000000E+03 0.  0.
</event>
<event>
 5    0  0.6767984E-005  0.2958476E+03  0.7546771E-02  0.1087335E+00
         21   -1    0    0  502  501  0.00000000000E+00  0.00000000000E+00  0.19189692595E+03  0.19189692595E+03  0.00000000000E+00 0.  1.
         21   -1    0    0  501  502 -0.00000000000E+00 -0.00000000000E+00 -0.45610842050E+03  0.45610842050E+03  0.00000000000E+00 0.  1.
         25    1    1    2    0    0  0.76721915050E+02 -0.40010524609E+02 -0.13080485585E+03  0.20055424364E+03  0.12500000000E+03 0.  0.
         25    1    1    2    0    0  0.11117834920E+03 -0.22597580723E+02  0.16133899986E+02  0.16957764804E+03  0.12500000000E+03 0.  0.
         25    1    1    2    0    0 -0.18790026425E+03  0.62608105332E+02 -0.14954053868E+03  0.27787345477E+03  0.12500000000E+03 0.  0.
</event>
<event>
 5    0  0.5771525E-005  0.2870444E+03  0.7546771E-02  0.1091902E+00
         21   -1    0    0  502  501  0.00000000000E+00  0.00000000000E+00  0.76187418146E+03  0.76187418146E+03  0.00000000000E+00 0. -1.
         21   -1    0    0  501  502 -0.00000000000E+00 -0.00000000000E+00 -0.10814707812E+03  0.10814707812E+03  0.00000000000E+00 0. -1.
         25    1    1    2    0    0 -0.10716045477E+03  0.10636130957E+03  0.41150303253E+03  0.45580241007E+03  0.12500000000E+03 0.  0.
         25    1    1    2    0    0  0.18899717317E+02 -0.75465669879E+02  0.20727972846E+03  0.25424821037E+03  0.12500000000E+03 0.  0.
         25    1    1    2    0    0  0.88260737451E+02 -0.30895639687E+02  0.34944342341E+02  0.15997063915E+03  0.12500000000E+03 0.  0.
</event>
<event>
 5    0  0.5771525E-005  0.2202989E+03  0.7546771E-02  0.1133660E+00
         21   -1    0    0  502  501  0.00000000000E+00  0.00000000000E+00  0.22113297473E+03  0.22113297473E+03  0.00000000000E+00 0. -1.
         21   -1    0    0  501  502 -0.00000000000E+00 -0.00000000000E+00 -0.21946789109E+03  0.21946789109E+03  0.00000000000E+00 0. -1.
         25    1    1    2    0    0 -0.38882534557E+02  0.57220021513E+02  0.33604720937E+02  0.14676600296E+03  0.12500000000E+03 0.  0.
         25    1    1    2    0    0 -0.15426737318E+02  0.30545574014E+02 -0.21753116599E+02  0.13141238297E+03  0.12500000000E+03 0.  0.
         25    1    1    2    0    0  0.54309271875E+02 -0.87765595526E+02 -0.10186520705E+02  0.16242247989E+03  0.12500000000E+03 0.  0.
</event>
<event>
 5    0  0.5771525E-005  0.2841108E+03  0.7546771E-02  0.1093465E+00
         21   -1    0    0  502  501  0.00000000000E+00  0.00000000000E+00  0.80394464659E+03  0.80394464659E+03  0.00000000000E+00 0. -1.
         21   -1    0    0  501  502 -0.00000000000E+00 -0.00000000000E+00 -0.10040359254E+03  0.10040359254E+03  0.00000000000E+00 0. -1.
         25    1    1    2    0    0  0.10504216366E+03  0.13956670084E+03  0.12265776731E+03  0.24735126443E+03  0.12500000000E+03 0.  0.
         25    1    1    2    0    0 -0.68006667152E+02 -0.66553321773E+02  0.28028050249E+03  0.32130423510E+03  0.12500000000E+03 0.  0.
         25    1    1    2    0    0 -0.37035496509E+02 -0.73013379072E+02  0.30060278425E+03  0.33569273961E+03  0.12500000000E+03 0.  0.
</event>
<event>
 5    0  0.5771525E-005  0.4998447E+03  0.7546771E-02  0.1013819E+00
         21   -1    0    0  502  501  0.00000000000E+00  0.00000000000E+00  0.11949598001E+04  0.11949598001E+04  0.00000000000E+00 0.  1.
         21   -1    0    0  501  502 -0.00000000000E+00 -0.00000000000E+00 -0.20908207568E+03  0.20908207568E+03  0.00000000000E+00 0.  1.
         25    1    1    2    0    0  0.10718646890E+03 -0.40545316902E+03  0.24374006336E+03  0.50091459339E+03  0.12500000000E+03 0.  0.
         25    1    1    2    0    0  0.87832970542E+01  0.16618658599E+03  0.21246551166E+03  0.29742515246E+03  0.12500000000E+03 0.  0.
         25    1    1    2    0    0 -0.11596976596E+03  0.23926658303E+03  0.52967214940E+03  0.60570212994E+03  0.12500000000E+03 0.  0.
</event>
<event>
 5    0  0.5771525E-005  0.2451733E+03  0.7546771E-02  0.1116394E+00
         21   -1    0    0  502  501  0.00000000000E+00  0.00000000000E+00  0.42636811268E+03  0.42636811268E+03  0.00000000000E+00 0.  1.
         21   -1    0    0  501  502 -0.00000000000E+00 -0.00000000000E+00 -0.14098130714E+03  0.14098130714E+03  0.00000000000E+00 0.  1.
         25    1    1    2    0    0 -0.87172752215E+02  0.10208268091E+03  0.71023440128E+02  0.19669593671E+03  0.12500000000E+03 0.  0.
         25    1    1    2    0    0  0.64203016024E+02 -0.31535286810E+02  0.52973491253E+02  0.15345257364E+03  0.12500000000E+03 0.  0.
         25    1    1    2    0    0  0.22969736190E+02 -0.70547394096E+02  0.16138987416E+03  0.21720090948E+03  0.12500000000E+03 0.  0.
</event>
<event>
 5    0  0.5771525E-005  0.3131533E+03  0.7546771E-02  0.1078844E+00
         21   -1    0    0  502  501  0.00000000000E+00  0.00000000000E+00  0.32494737948E+03  0.32494737948E+03  0.00000000000E+00 0. -1.
         21   -1    0    0  501  502 -0.00000000000E+00 -0.00000000000E+00 -0.30178728154E+03  0.30178728154E+03  0.00000000000E+00 0. -1.
         25    1    1    2    0    0 -0.11211525704E+03 -0.16083943014E+03  0.90503883879E+02  0.24950973156E+03  0.12500000000E+03 0.  0.
         25    1    1    2    0    0  0.34623377495E+02  0.29071123813E+02  0.56177210214E+02  0.14430796047E+03  0.12500000000E+03 0.  0.
         25    1    1    2    0    0  0.77491879544E+02  0.13176830632E+03 -0.12352099615E+03  0.23291696898E+03  0.12500000000E+03 0.  0.
</event>
<event>
 5    0  0.5771525E-005  0.2386422E+03  0.7546771E-02  0.1120701E+00
         21   -1    0    0  502  501  0.00000000000E+00  0.00000000000E+00  0.88314374300E+02  0.88314374300E+02  0.00000000000E+00 0. -1.
         21   -1    0    0  501  502 -0.00000000000E+00 -0.00000000000E+00 -0.64485641235E+03  0.64485641235E+03  0.00000000000E+00 0. -1.
         25    1    1    2    0    0  0.19183584246E+02  0.34112861757E+02 -0.87085591200E+02  0.15729144108E+03  0.12500000000E+03 0.  0.
         25    1    1    2    0    0  0.49207459801E+02 -0.13347370783E+02 -0.38717800238E+03  0.41003820790E+03  0.12500000000E+03 0.  0.
         25    1    1    2    0    0 -0.68391044047E+02 -0.20765490975E+02 -0.82278444470E+02  0.16584113768E+03  0.12500000000E+03 0.  0.
</event>
<event>
 5    0  0.7097048E-005  0.2479105E+03  0.7546771E-02  0.1114632E+00
         21   -1    0    0  502  501  0.00000000000E+00  0.00000000000E+00  0.14092003420E+03  0.14092003420E+03  0.00000000000E+00 0.  1.
         21   -1    0    0  501  502 -0.00000000000E+00 -0.00000000000E+00 -0.43613118990E+03  0.43613118990E+03  0.00000000000E+00 0.  1.
         25    1    1    2    0    0  0.42156515587E+02  0.93228220602E+02  0.94066109690E+01  0.16180901475E+03  0.12500000000E+03 0.  0.
         25    1    1    2    0    0 -0.36347754338E+02 -0.86991436307E+02 -0.15909641006E+03  0.22321589757E+03  0.12500000000E+03 0.  0.
         25    1    1    2    0    0 -0.58087612496E+01 -0.62367842947E+01 -0.14552135662E+03  0.19202631178E+03  0.12500000000E+03 0.  0.
</event>
<event>
 5    0  0.5771525E-005  0.2938659E+03  0.7546771E-02  0.1088348E+00
         21   -1    0    0  502  501  0.00000000000E+00  0.00000000000E+00  0.85317124352E+02  0.85317124352E+02  0.00000000000E+00 0. -1.
         21   -1    0    0  501  502 -0.00000000000E+00 -0.00000000000E+00 -0.10121904748E+04  0.10121904748E+04  0.00000000000E+00 0. -1.
         25    1    1    2    0    0  0.81858743096E+02 -0.20543110428E+02 -0.49024451462E+02  0.15859151947E+03  0.12500000000E+03 0.  0.
         25    1    1    2    0    0 -0.36589218301E+02  0.30071408385E+02 -0.15858102064E+03  0.20740299083E+03  0.12500000000E+03 0.  0.
         25    1    1    2    0    0 -0.45269524795E+02 -0.95282979566E+01 -0.71926787839E+03  0.73151308890E+03  0.12500000000E+03 0.  0.
</event>
<event>
 5    0  0.5771525E-005  0.5279461E+03  0.7546771E-02  0.1006731E+00
         21   -1    0    0  502  501  0.00000000000E+00  0.00000000000E+00  0.76644964983E+03  0.76644964983E+03  0.00000000000E+00 0. -1.
         21   -1    0    0  501  502 -0.00000000000E+00 -0.00000000000E+00 -0.36365997476E+03  0.36365997476E+03  0.00000000000E+00 0. -1.
         25    1    1    2    0    0  0.18774456450E+02 -0.98231979709E+01  0.29329640779E+03  0.31952583348E+03  0.12500000000E+03 0.  0.
         25    1    1    2    0    0  0.14695693074E+03  0.18363853069E+03  0.35587544956E+03  0.44451297511E+03  0.12500000000E+03 0.  0.
         25    1    1    2    0    0 -0.16573138719E+03 -0.17381533272E+03 -0.24638218228E+03  0.36607081601E+03  0.12500000000E+03 0.  0.
</event>
<event>
 5    0  0.6004308E-005  0.4582934E+03  0.7546771E-02  0.1025277E+00
         21   -1    0    0  502  501  0.00000000000E+00  0.00000000000E+00  0.50904357729E+03  0.50904357729E+03  0.00000000000E+00 0. -1.
         21   -1    0    0  501  502 -0.00000000000E+00 -0.00000000000E+00 -0.41260283695E+03  0.41260283695E+03  0.00000000000E+00 0. -1.
         25    1    1    2    0    0 -0.82713976478E+02  0.17036964092E+03  0.18889932035E+03  0.29525475387E+03  0.12500000000E+03 0.  0.
         25    1    1    2    0    0  0.27571160340E+03 -0.58921796742E+02  0.79383140094E+02  0.31845776692E+03  0.12500000000E+03 0.  0.
         25    1    1    2    0    0 -0.19299762692E+03 -0.11144784418E+03 -0.17184172011E+03  0.30793389345E+03  0.12500000000E+03 0.  0.
</event>
<event>
 5    0  0.5771525E-005  0.4364265E+03  0.7546771E-02  0.1031849E+00
         21   -1    0    0  502  501  0.00000000000E+00  0.00000000000E+00  0.19075126291E+04  0.19075126291E+04  0.00000000000E+00 0. -1.
         21   -1    0    0  501  502 -0.00000000000E+00 -0.00000000000E+00 -0.99851547855E+02  0.99851547855E+02  0.00000000000E+00 0. -1.
         25    1    1    2    0    0  0.22991958784E+03  0.18935094435E+03  0.61151895697E+03  0.69159036411E+03  0.12500000000E+03 0.  0.
         25    1    1    2    0    0 -0.10883796703E+03 -0.13437979919E+03  0.16804097887E+03  0.27159971296E+03  0.12500000000E+03 0.  0.
         25    1    1    2    0    0 -0.12108162081E+03 -0.54971145157E+02  0.10281011454E+04  0.10441740999E+04  0.12500000000E+03 0.  0.
</event>
<event>
 5    0  0.5771525E-005  0.4858615E+03  0.7546771E-02  0.1017537E+00
         21   -1    0    0  502  501  0.00000000000E+00  0.00000000000E+00  0.16594567507E+04  0.16594567507E+04  0.00000000000E+00 0. -1.
         21   -1    0    0  501  502 -0.00000000000E+00 -0.00000000000E+00 -0.14225222022E+03  0.14225222022E+03  0.00000000000E+00 0. -1.
         25    1    1    2    0    0 -0.24606538241E+03 -0.26574316564E+03  0.65387991592E+03  0.75785984651E+03  0.12500000000E+03 0.  0.
         25    1    1    2    0    0 -0.15168658775E+01 -0.22508848509E+02  0.45435689390E+03  0.47177763425E+03  0.12500000000E+03 0.  0.
         25    1    1    2    0    0  0.24758224829E+03  0.28825201415E+03  0.40896772068E+03  0.57207149019E+03  0.12500000000E+03 0.  0.
</event>
<event>
 5    0  0.5771525E-005  0.2835142E+03  0.7546771E-02  0.1093785E+00
         21   -1    0    0  502  501  0.00000000000E+00  0.00000000000E+00  0.11361678087E+03  0.11361678087E+03  0.00000000000E+00 0.  1.
         21   -1    0    0  501  502 -0.00000000000E+00 -0.00000000000E+00 -0.70746844747E+03  0.70746844747E+03  0.00000000000E+00 0.  1.
         25    1    1    2    0    0  0.41186538928E+02 -0.39661263138E+02 -0.19891992274E+03  0.24179222991E+03  0.12500000000E+03 0.  0.
         25    1    1    2    0    0  0.12887650238E+03  0.90386713667E+02 -0.14266532846E+03  0.24648997306E+03  0.12500000000E+03 0.  0.
         25    1    1    2    0    0 -0.17006304131E+03 -0.50725450529E+02 -0.25226641540E+03  0.33280302536E+03  0.12500000000E+03 0.  0.
</event>
<event>
 5    0  0.5771525E-005  0.3174102E+03  0.7546771E-02  0.1076847E+00
         21   -1    0    0  502  501  0.00000000000E+00  0.00000000000E+00  0.10464584696E+03  0.10464584696E+03  0.00000000000E+00 0. -1.
         21   -1    0    0  501  502 -0.00000000000E+00 -0.00000000000E+00 -0.96276406465E+03  0.96276406465E+03  0.00000000000E+00 0. -1.
         25    1    1    2    0    0  0.52036632947E+02 -0.48581896576E+02 -0.10991730355E+02  0.14426998988E+03  0.12500000000E+03 0.  0.
         25    1    1    2    0    0 -0.59402364868E+02 -0.97080385346E+02 -0.47822506030E+03  0.50722524629E+03  0.12500000000E+03 0.  0.
         25    1    1    2    0    0  0.73657319210E+01  0.14566228192E+03 -0.36890142703E+03  0.41591467544E+03  0.12500000000E+03 0.  0.
</event>
<event>
 5    0  0.5771525E-005  0.2627461E+03  0.7546771E-02  0.1105504E+00
         21   -1    0    0  502  501  0.00000000000E+00  0.00000000000E+00  0.38015302348E+03  0.38015302348E+03  0.00000000000E+00 0. -1.
         21   -1    0    0  501  502 -0.00000000000E+00 -0.00000000000E+00 -0.18159932511E+03  0.18159932511E+03  0.00000000000E+00 0. -1.
         25    1    1    2    0    0 -0.32683925404E+02  0.13742720307E+03  0.89818843982E+02  0.20891840478E+03  0.12500000000E+03 0.  0.
         25    1    1    2    0    0 -0.12851037265E+02 -0.11422806864E+02  0.11324278792E+03  0.16954220327E+03  0.12500000000E+03 0.  0.
         25    1    1    2    0    0  0.45534962669E+02 -0.12600439620E+03 -0.45079335259E+01  0.18329174054E+03  0.12500000000E+03 0.  0.
</event>
<event>
 5    0  0.5771525E-005  0.3029106E+03  0.7546771E-02  0.1083795E+00
         21   -1    0    0  502  501  0.00000000000E+00  0.00000000000E+00  0.13536612482E+04  0.13536612482E+04  0.00000000000E+00 0. -1.
         21   -1    0    0  501  502 -0.00000000000E+00 -0.00000000000E+00 -0.67782698209E+02  0.67782698209E+02  0.00000000000E+00 0. -1.
         25    1    1    2    0    0 -0.68861675194E+02  0.31604795439E+02  0.21484652442E+03  0.25985538759E+03  0.12500000000E+03 0.  0.
         25    1    1    2    0    0  0.11173827838E+03 -0.97877171270E+02  0.95255089885E+03  0.97213352910E+03  0.12500000000E+03 0.  0.
         25    1    1    2    0    0 -0.42876603190E+02  0.66272375831E+02  0.11848112676E+03  0.18945502975E+03  0.12500000000E+03 0.  0.
</event>
<event>
 5    0  0.5771525E-005  0.2927569E+03  0.7546771E-02  0.1088918E+00
         21   -1    0    0  502  501  0.00000000000E+00  0.00000000000E+00  0.46324499956E+03  0.46324499956E+03  0.00000000000E+00 0.  1.
         21   -1    0    0  501  502 -0.00000000000E+00 -0.00000000000E+00 -0.18501352127E+03  0.18501352127E+03  0.00000000000E+00 0.  1.
         25    1    1    2    0    0  0.58064479613E+02  0.77519236005E+02  0.44335426888E+02  0.16422955222E+03  0.12500000000E+03 0.  0.
         25    1    1    2    0    0 -0.13001600331E+03  0.21179584811E+02  0.24947382216E+03  0.30856915574E+03  0.12500000000E+03 0.  0.
         25    1    1    2    0    0  0.71951523694E+02 -0.98698820817E+02 -0.15577770754E+02  0.17545981287E+03  0.12500000000E+03 0.  0.
</event>
<event>
 5    0  0.5771525E-005  0.3133808E+03  0.7546771E-02  0.1078737E+00
         21   -1    0    0  502  501  0.00000000000E+00  0.00000000000E+00  0.16408506661E+03  0.16408506661E+03  0.00000000000E+00 0. -1.
         21   -1    0    0  501  502 -0.00000000000E+00 -0.00000000000E+00 -0.59851576032E+03  0.59851576032E+03  0.00000000000E+00 0. -1.
         25    1    1    2    0    0 -0.53657051503E+02 -0.56125162673E+02 -0.77674162898E+02  0.16639527831E+03  0.12500000000E+03 0.  0.
         25    1    1    2    0    0 -0.25555072596E+02 -0.11512406702E+03  0.21890637248E+01  0.17186158542E+03  0.12500000000E+03 0.  0.
         25    1    1    2    0    0  0.79212124098E+02  0.17124922969E+03 -0.35894559453E+03  0.42434396320E+03  0.12500000000E+03 0.  0.
</event>
<event>
 5    0  0.5771525E-005  0.2346981E+03  0.7546771E-02  0.1123376E+00
         21   -1    0    0  502  501  0.00000000000E+00  0.00000000000E+00  0.21000384994E+03  0.21000384994E+03  0.00000000000E+00 0. -1.
         21   -1    0    0  501  502 -0.00000000000E+00 -0.00000000000E+00 -0.26229603587E+03  0.26229603587E+03  0.00000000000E+00 0. -1.
         25    1    1    2    0    0  0.32433484985E+02  0.44291908627E+01  0.67846765489E+02  0.14594427795E+03  0.12500000000E+03 0.  0.
         25    1    1    2    0    0 -0.24417820329E+02 -0.21793522569E+02 -0.14841097175E+03  0.19677907437E+03  0.12500000000E+03 0.  0.
         25    1    1    2    0    0 -0.80156646562E+01  0.17364331707E+02  0.28272020326E+02  0.12957653348E+03  0.12500000000E+03 0.  0.
</event>
<event>
 5    0  0.5771525E-005  0.4731156E+03  0.7546771E-02  0.1021045E+00
         21   -1    0    0  502  501  0.00000000000E+00  0.00000000000E+00  0.57623549684E+03  0.57623549684E+03  0.00000000000E+00 0. -1.
         21   -1    0    0  501  502 -0.00000000000E+00 -0.00000000000E+00 -0.38844949205E+03  0.38844949205E+03  0.00000000000E+00 0. -1.
         25    1    1    2    0    0  0.17527472044E+03 -0.32828705255E+03  0.92269326444E+02  0.40327688391E+03  0.12500000000E+03 0.  0.
         25    1    1    2    0    0 -0.25318795701E+03  0.26008026561E+03  0.10747129144E+03  0.39864892401E+03  0.12500000000E+03 0.  0.
         25    1    1    2    0    0  0.77913236571E+02  0.68206786938E+02 -0.11954613090E+02  0.16275918097E+03  0.12500000000E+03 0.  0.
</event>
<event>
 5    0  0.6601395E-005  0.2664644E+03  0.7546771E-02  0.1103320E+00
         21   -1    0    0  502  501  0.00000000000E+00  0.00000000000E+00  0.39489442274E+03  0.39489442274E+03  0.00000000000E+00 0.  1.
         21   -1    0    0  501  502 -0.00000000000E+00 -0.00000000000E+00 -0.17980313070E+03  0.17980313070E+03  0.00000000000E+00 0.  1.
         25    1    1    2    0    0 -0.36358751159E+01 -0.79930401354E+02  0.18903975576E+02  0.14961433401E+03  0.12500000000E+03 0.  0.
         25    1    1    2    0    0  0.87702086423E+02  0.14681924751E+03  0.12059759566E+03  0.24375464607E+03  0.12500000000E+03 0.  0.
         25    1    1    2    0    0 -0.84066211308E+02 -0.66888846156E+02  0.75589720806E+02  0.18132857336E+03  0.12500000000E+03 0.  0.
</event>
<event>
 5    0  0.5771525E-005  0.3444963E+03  0.7546771E-02  0.1064897E+00
         21   -1    0    0  502  501  0.00000000000E+00  0.00000000000E+00  0.20451738990E+03  0.20451738990E+03  0.00000000000E+00 0.  1.
         21   -1    0    0  501  502 -0.00000000000E+00 -0.00000000000E+00 -0.58028185702E+03  0.58028185702E+03  0.00000000000E+00 0.  1.
         25    1    1    2    0    0  0.17240984735E+02 -0.18851843514E+02  0.65890565693E+02  0.14359390727E+03  0.12500000000E+03 0.  0.
         25    1    1    2    0    0 -0.11928380047E+03 -0.11056901044E+03 -0.71612921929E+02  0.21727296590E+03  0.12500000000E+03 0.  0.
         25    1    1    2    0    0  0.10204281574E+03  0.12942085395E+03 -0.37004211088E+03  0.42393237374E+03  0.12500000000E+03 0.  0.
</event>
<event>
 5    0  0.5771525E-005  0.2787418E+03  0.7546771E-02  0.1096378E+00
         21   -1    0    0  502  501  0.00000000000E+00  0.00000000000E+00  0.12884728929E+04  0.12884728929E+04  0.00000000000E+00 0.  1.
         21   -1    0    0  501  502 -0.00000000000E+00 -0.00000000000E+00 -0.60301598636E+02  0.60301598636E+02  0.00000000000E+00 0.  1.
         25    1    1    2    0    0  0.64786924335E+02  0.34821165781E+02  0.25347618802E+03  0.29203602011E+03  0.12500000000E+03 0.  0.
         25    1    1    2    0    0 -0.95300763900E+02  0.60745638400E+02  0.80839984667E+03  0.82577695553E+03  0.12500000000E+03 0.  0.
         25    1    1    2    0    0  0.30513839565E+02 -0.95566804181E+02  0.16629525957E+03  0.23096151589E+03  0.12500000000E+03 0.  0.
</event>
<event>
 5    0  0.5771525E-005  0.2848958E+03  0.7546771E-02  0.1093045E+00
         21   -1    0    0  502  501  0.00000000000E+00  0.00000000000E+00  0.15801328474E+04  0.15801328474E+04  0.00000000000E+00 0.  1.
         21   -1    0    0  501  502 -0.00000000000E+00 -0.00000000000E+00 -0.51366342393E+02  0.51366342393E+02  0.00000000000E+00 0.  1.
         25    1    1    2    0    0 -0.82009956833E+02  0.20317571113E+02  0.34168478180E+03  0.37351295403E+03  0.12500000000E+03 0.  0.
         25    1    1    2    0    0  0.17493908796E+03 -0.38592675493E+02  0.40321424887E+03  0.45858457191E+03  0.12500000000E+03 0.  0.
         25    1    1    2    0    0 -0.92929131127E+02  0.18275104380E+02  0.78386747438E+03  0.79940166390E+03  0.12500000000E+03 0.  0.
</event>
<event>
 5    0  0.5771525E-005  0.2903015E+03  0.7546771E-02  0.1090192E+00
         21   -1    0    0  502  501  0.00000000000E+00  0.00000000000E+00  0.80706995986E+02  0.80706995986E+02  0.00000000000E+00 0. -1.
         21   -1    0    0  501  502 -0.00000000000E+00 -0.00000000000E+00 -0.10442090679E+04  0.10442090679E+04  0.00000000000E+00 0. -1.
         25    1    1    2    0    0  0.73742237528E+02  0.32401912504E+02 -0.75511712785E+02  0.16677775720E+03  0.12500000000E+03 0.  0.
         25    1    1    2    0    0 -0.88689276473E+02  0.41363753837E+02 -0.71221996585E+03  0.72969790163E+03  0.12500000000E+03 0.  0.
         25    1    1    2    0    0  0.14947038946E+02 -0.73765666341E+02 -0.17577039325E+03  0.22844040503E+03  0.12500000000E+03 0.  0.
</event>
<event>
 5    0  0.5771525E-005  0.3962662E+03  0.7546771E-02  0.1045080E+00
         21   -1    0    0  502  501  0.00000000000E+00  0.00000000000E+00  0.10120814559E+04  0.10120814559E+04  0.00000000000E+00 0.  1.
         21   -1    0    0  501  502 -0.00000000000E+00 -0.00000000000E+00 -0.15515246475E+03  0.15515246475E+03  0.00000000000E+00 0.  1.
         25    1    1    2    0    0 -0.19028678109E+03  0.13111342208E+03  0.65259480808E+03  0.70349468516E+03  0.12500000000E+03 0.  0.
         25    1    1    2    0    0  0.19110904877E+03 -0.66381330947E+02  0.30044220014E+02  0.23970149097E+03  0.12500000000E+03 0.  0.
         25    1    1    2    0    0 -0.82226767283E+00 -0.64732091132E+02  0.17428996306E+03  0.22403774452E+03  0.12500000000E+03 0.  0.
</event>
<event>
 5    0  0.5771525E-005  0.3624085E+03  0.7546771E-02  0.1057634E+00
         21   -1    0    0  502  501  0.00000000000E+00  0.00000000000E+00  0.12523787938E+04  0.12523787938E+04  0.00000000000E+00 0. -1.
         21   -1    0    0  501  502 -0.00000000000E+00 -0.00000000000E+00 -0.10487238099E+03  0.10487238099E+03  0.00000000000E+00 0. -1.
         25    1    1    2    0    0  0.15302784769E+03 -0.43326913982E+02  0.64670226850E+03  0.67760133391E+03  0.12500000000E+03 0.  0.
         25    1    1    2    0    0 -0.16907153308E+03  0.14709319345E+03  0.43206456518E+03  0.50252002880E+03  0.12500000000E+03 0.  0.
         25    1    1    2    0    0  0.16043685389E+02 -0.10376627947E+03  0.68739579180E+02  0.17712981212E+03  0.12500000000E+03 0.  0.
</event>
<event>
 5    0  0.5771525E-005  0.2689080E+03  0.7546771E-02  0.1101906E+00
         21   -1    0    0  502  501  0.00000000000E+00  0.00000000000E+00  0.38711923186E+03  0.38711923186E+03  0.00000000000E+00 0.  1.
         21   -1    0    0  501  502 -0.00000000000E+00 -0.00000000000E+00 -0.18679385409E+03  0.18679385409E+03  0.00000000000E+00 0.  1.
         25    1    1    2    0    0 -0.20548974100E+02  0.78091706099E+01  0.58549696793E+02  0.13977235233E+03  0.12500000000E+03 0.  0.
         25    1    1    2    0    0  0.75267250133E+02 -0.10606753392E+03  0.18719512331E+03  0.25996633413E+03  0.12500000000E+03 0.  0.
         25    1    1    2    0    0 -0.54718276033E+02  0.98258363308E+02 -0.45419442335E+02  0.17417439948E+03  0.12500000000E+03 0.  0.
</event>
<event>
 5    0  0.5771525E-005  0.2755391E+03  0.7546771E-02  0.1098151E+00
         21   -1    0    0  502  501  0.00000000000E+00  0.00000000000E+00  0.30107356779E+03  0.30107356779E+03  0.00000000000E+00 0. -1.
         21   -1    0    0  501  502 -0.00000000000E+00 -0.00000000000E+00 -0.25217022496E+03  0.25217022496E+03  0.00000000000E+00 0. -1.
         25    1    1    2    0    0 -0.53274828527E+02 -0.80727321622E+02  0.11948422420E+03  0.19813275258E+03  0.12500000000E+03 0.  0.
         25    1    1    2    0    0 -0.18222929075E+01 -0.34635781586E+02 -0.11222057582E+03  0.17152672023E+03  0.12500000000E+03 0.  0.
         25    1    1    2    0    0  0.55097121435E+02  0.11536310321E+03  0.41639694446E+02  0.18358431993E+03  0.12500000000E+03 0.  0.
</event>
<event>
 5    0  0.5771525E-005  0.3545776E+03  0.7546771E-02  0.1060752E+00
         21   -1    0    0  502  501  0.00000000000E+00  0.00000000000E+00  0.11455119695E+04  0.11455119695E+04  0.00000000000E+00 0.  1.
         21   -1    0    0  501  502 -0.00000000000E+00 -0.00000000000E+00 -0.10975468148E+03  0.10975468148E+03  0.00000000000E+00 0.  1.
         25    1    1    2    0    0  0.17446463531E+03  0.13816206751E+03  0.72057823322E+03  0.76445055828E+03  0.12500000000E+03 0.  0.
         25    1    1    2    0    0  0.16668929672E+01 -0.50770996579E+02  0.67846906753E+02  0.15102541303E+03  0.12500000000E+03 0.  0.
         25    1    1    2    0    0 -0.17613152828E+03 -0.87391070931E+02  0.24733214808E+03  0.33979067969E+03  0.12500000000E+03 0.  0.
</event>
<event>
 5    0  0.5782248E-005  0.4057425E+03  0.7546771E-02  0.1041809E+00
         21   -1    0    0  502  501  0.00000000000E+00  0.00000000000E+00  0.20501300262E+03  0.20501300262E+03  0.00000000000E+00 0. -1.
         21   -1    0    0  501  502 -0.00000000000E+00 -0.00000000000E+00 -0.80300737621E+03  0.80300737621E+03  0.00000000000E+00 0. -1.
         25    1    1    2    0    0 -0.23529120043E+03 -0.34478706364E+02 -0.69617104658E+02  0.27752886598E+03  0.12500000000E+03 0.  0.
         25    1    1    2    0    0  0.52982987579E+02  0.19010834675E+03 -0.26068843131E+03  0.35004548089E+03  0.12500000000E+03 0.  0.
         25    1    1    2    0    0  0.18230821285E+03 -0.15562964038E+03 -0.26768883763E+03  0.38044603195E+03  0.12500000000E+03 0.  0.
</event>
<event>
 5    0  0.5771525E-005  0.2417523E+03  0.7546771E-02  0.1118631E+00
         21   -1    0    0  502  501  0.00000000000E+00  0.00000000000E+00  0.12268657032E+03  0.12268657032E+03  0.00000000000E+00 0. -1.
         21   -1    0    0  501  502 -0.00000000000E+00 -0.00000000000E+00 -0.47636988420E+03  0.47636988420E+03  0.00000000000E+00 0. -1.
         25    1    1    2    0    0 -0.67266876546E+02 -0.46495200187E+02 -0.28346474438E+02  0.15203670259E+03  0.12500000000E+03 0.  0.
         25    1    1    2    0    0  0.45276023487E+02  0.68042136778E+01 -0.27371601773E+03  0.30437094800E+03  0.12500000000E+03 0.  0.
         25    1    1    2    0    0  0.21990853059E+02  0.39690986509E+02 -0.51620821707E+02  0.14264880393E+03  0.12500000000E+03 0.  0.
</event>
<event>
 5    0  0.5771525E-005  0.2978208E+03  0.7546771E-02  0.1086335E+00
         21   -1    0    0  502  501  0.00000000000E+00  0.00000000000E+00  0.10546109188E+03  0.10546109188E+03  0.00000000000E+00 0. -1.
         21   -1    0    0  501  502 -0.00000000000E+00 -0.00000000000E+00 -0.84104237380E+03  0.84104237380E+03  0.00000000000E+00 0. -1.
         25    1    1    2    0    0 -0.81330942184E+02 -0.11881703979E+03 -0.19697047268E+03  0.27414335340E+03  0.12500000000E+03 0.  0.
         25    1    1    2    0    0  0.17564214352E+03  0.48050949041E+02 -0.22834335216E+03  0.31768654797E+03  0.12500000000E+03 0.  0.
         25    1    1    2    0    0 -0.94311201340E+02  0.70766090751E+02 -0.31026745708E+03  0.35467356431E+03  0.12500000000E+03 0.  0.
</event>
<event>
 5    0  0.5771525E-005  0.3304198E+03  0.7546771E-02  0.1070951E+00
         21   -1    0    0  502  501  0.00000000000E+00  0.00000000000E+00  0.37932370082E+03  0.37932370082E+03  0.00000000000E+00 0. -1.
         21   -1    0    0  501  502 -0.00000000000E+00 -0.00000000000E+00 -0.28782079354E+03  0.28782079354E+03  0.00000000000E+00 0. -1.
         25    1    1    2    0    0 -0.24320746286E+01  0.16842202967E+03 -0.63450142780E+02  0.21914108625E+03  0.12500000000E+03 0.  0.
         25    1    1    2    0    0  0.10937767653E+03 -0.34350247429E+02 -0.22848060454E+02  0.17114452807E+03  0.12500000000E+03 0.  0.
         25    1    1    2    0    0 -0.10694560191E+03 -0.13407178224E+03  0.17780111051E+03  0.27685888004E+03  0.12500000000E+03 0.  0.
</event>
<event>
 5    0  0.5771525E-005  0.2254490E+03  0.7546771E-02  0.1129885E+00
         21   -1    0    0  502  501  0.00000000000E+00  0.00000000000E+00  0.35388130256E+03  0.35388130256E+03  0.00000000000E+00 0.  1.
         21   -1    0    0  501  502 -0.00000000000E+00 -0.00000000000E+00 -0.14362796030E+03  0.14362796030E+03  0.00000000000E+00 0.  1.
         25    1    1    2    0    0 -0.47451583745E+02 -0.64653600467E+02  0.56086510285E+02  0.15875275585E+03  0.12500000000E+03 0.  0.
         25    1    1    2    0    0  0.79386157492E+02  0.16664318559E+02  0.27168051036E+02  0.15146935172E+03  0.12500000000E+03 0.  0.
         25    1    1    2    0    0 -0.31934573747E+02  0.47989281908E+02  0.12699878094E+03  0.18728715529E+03  0.12500000000E+03 0.  0.
</event>
<event>
 5    0  0.6545503E-005  0.2649044E+03  0.7546771E-02  0.1104232E+00
         21   -1    0    0  502  501  0.00000000000E+00  0.00000000000E+00  0.29394585408E+03  0.29394585408E+03  0.00000000000E+00 0. -1.
         21   -1    0    0  501  502 -0.00000000000E+00 -0.00000000000E+00 -0.23873220412E+03  0.23873220412E+03  0.00000000000E+00 0. -1.
         25    1    1    2    0    0  0.11031033723E+03 -0.10764080278E+02  0.13853067356E+03  0.21702530599E+03  0.12500000000E+03 0.  0.
         25    1    1    2    0    0 -0.29134947774E+02  0.29850909082E+02 -0.98649025455E+02  0.16461030399E+03  0.12500000000E+03 0.  0.
         25    1    1    2    0    0 -0.81175389454E+02 -0.19086828804E+02  0.15332001860E+02  0.15104244823E+03  0.12500000000E+03 0.  0.
</event>
<event>
 5    0  0.5771525E-005  0.2908325E+03  0.7546771E-02  0.1089915E+00
         21   -1    0    0  502  501  0.00000000000E+00  0.00000000000E+00  0.10873493682E+03  0.10873493682E+03  0.00000000000E+00 0.  1.
         21   -1    0    0  501  502 -0.00000000000E+00 -0.00000000000E+00 -0.77788744151E+03  0.77788744151E+03  0.00000000000E+00 0.  1.
         25    1    1    2    0    0 -0.11850289627E+03  0.10629163333E+03 -0.75102462072E+02  0.21588475525E+03  0.12500000000E+03 0.  0.
         25    1    1    2    0    0  0.93281348414E+02 -0.60662974926E+02 -0.24853893155E+03  0.29962978320E+03  0.12500000000E+03 0.  0.
         25    1    1    2    0    0  0.25221547852E+02 -0.45628658404E+02 -0.34551111107E+03  0.37110783987E+03  0.12500000000E+03 0.  0.
</event>
<event>
 5    0  0.5771525E-005  0.2385152E+03  0.7546771E-02  0.1120786E+00
         21   -1    0    0  502  501  0.00000000000E+00  0.00000000000E+00  0.16833517250E+03  0.16833517250E+03  0.00000000000E+00 0.  1.
         21   -1    0    0  501  502 -0.00000000000E+00 -0.00000000000E+00 -0.33795375523E+03  0.33795375523E+03  0.00000000000E+00 0.  1.
         25    1    1    2    0    0  0.74802786076E+02  0.68964939927E+02 -0.89092940808E+02  0.18415800782E+03  0.12500000000E+03 0.  0.
         25    1    1    2    0    0 -0.37381663204E+02 -0.80092974881E+02 -0.10923254002E+03  0.18806653389E+03  0.12500000000E+03 0.  0.
         25    1    1    2    0    0 -0.37421122872E+02  0.11128034954E+02  0.28706898093E+02  0.13406438601E+03  0.12500000000E+03 0.  0.
</event>
<event>
 5    0  0.5771525E-005  0.3113928E+03  0.7546771E-02  0.1079680E+00
         21   -1    0    0  502  501  0.00000000000E+00  0.00000000000E+00  0.12353964192E+03  0.12353964192E+03  0.00000000000E+00 0.  1.
         21   -1    0    0  501  502 -0.00000000000E+00 -0.00000000000E+00 -0.78489363685E+03  0.78489363685E+03  0.00000000000E+00 0.  1.
         25    1    1    2    0    0 -0.11238922207E+03  0.12096457966E+02 -0.56000054228E+03  0.58481045552E+03  0.12500000000E+03 0.  0.
         25    1    1    2    0    0  0.52497048613E+02  0.27264269960E+02  0.14070074331E+02  0.13900448741E+03  0.12500000000E+03 0.  0.
         25    1    1    2    0    0  0.59892173459E+02 -0.39360727926E+02 -0.11542352698E+03  0.18461833583E+03  0.12500000000E+03 0.  0.
</event>
<event>
 5    0  0.5771525E-005  0.3225785E+03  0.7546771E-02  0.1074469E+00
         21   -1    0    0  502  501  0.00000000000E+00  0.00000000000E+00  0.53999395381E+03  0.53999395381E+03  0.00000000000E+00 0.  1.
         21   -1    0    0  501  502 -0.00000000000E+00 -0.00000000000E+00 -0.19270015170E+03  0.19270015170E+03  0.00000000000E+00 0.  1.
         25    1    1    2    0    0 -0.13262652880E+03 -0.12953276786E+03  0.23634819600E+03  0.32535212285E+03  0.12500000000E+03 0.  0.
         25    1    1    2    0    0  0.25538512031E+02  0.23741467914E+02  0.15961722112E+03  0.20571468147E+03  0.12500000000E+03 0.  0.
         25    1    1    2    0    0  0.10708801677E+03  0.10579129994E+03 -0.48671615008E+02  0.20162730120E+03  0.12500000000E+03 0.  0.
</event>
<event>
 5    0  0.5771525E-005  0.3772372E+03  0.7546771E-02  0.1051960E+00
         21   -1    0    0  502  501  0.00000000000E+00  0.00000000000E+00  0.29680217957E+03  0.29680217957E+03  0.00000000000E+00 0. -1.
         21   -1    0    0  501  502 -0.00000000000E+00 -0.00000000000E+00 -0.47947048741E+03  0.47947048741E+03  0.00000000000E+00 0. -1.
         25    1    1    2    0    0  0.16955657480E+03  0.15071896702E+03 -0.23706013964E+03  0.35112412177E+03  0.12500000000E+03 0.  0.
         25    1    1    2    0    0  0.13074249648E+02 -0.11648622490E+03 -0.49372591434E+02  0.17833291727E+03  0.12500000000E+03 0.  0.
         25    1    1    2    0    0 -0.18263082445E+03 -0.34232742117E+02  0.10376442324E+03  0.24681562795E+03  0.12500000000E+03 0.  0.
</event>
<event>
 5    0  0.5771525E-005  0.3185240E+03  0.7546771E-02  0.1076331E+00
         21   -1    0    0  502  501  0.00000000000E+00  0.00000000000E+00  0.97416062001E+03  0.97416062001E+03  0.00000000000E+00 0. -1.
         21   -1    0    0  501  502 -0.00000000000E+00 -0.00000000000E+00 -0.10414869842E+03  0.10414869842E+03  0.00000000000E+00 0. -1.
         25    1    1    2    0    0 -0.20292525224E+02 -0.14386912881E+03  0.25194250522E+03  0.31655985017E+03  0.12500000000E+03 0.  0.
         25    1    1    2    0    0  0.34060762075E+02  0.23881441003E+03  0.48316939391E+03  0.55431951180E+03  0.12500000000E+03 0.  0.
         25    1    1    2    0    0 -0.13768236850E+02 -0.94945281226E+02  0.13490002247E+03  0.20742995645E+03  0.12500000000E+03 0.  0.
</event>
<event>
 5    0  0.5771525E-005  0.2444237E+03  0.7546771E-02  0.1116880E+00
         21   -1    0    0  502  501  0.00000000000E+00  0.00000000000E+00  0.11220297254E+04  0.11220297254E+04  0.00000000000E+00 0.  1.
         21   -1    0    0  501  502 -0.00000000000E+00 -0.00000000000E+00 -0.53245415300E+02  0.53245415300E+02  0.00000000000E+00 0.  1.
         25    1    1    2    0    0 -0.78704507096E+02 -0.28028312453E+01  0.18056365859E+03  0.23330342926E+03  0.12500000000E+03 0.  0.
         25    1    1    2    0    0  0.55643489001E+02 -0.64702094564E+02  0.29522953138E+03  0.33176502997E+03  0.12500000000E+03 0.  0.
         25    1    1    2    0    0  0.23061018096E+02  0.67504925810E+02  0.59299112014E+03  0.61020668148E+03  0.12500000000E+03 0.  0.
</event>
<event>
 5    0  0.5771525E-005  0.3214947E+03  0.7546771E-02  0.1074963E+00
         21   -1    0    0  502  501  0.00000000000E+00  0.00000000000E+00  0.29092685713E+03  0.29092685713E+03  0.00000000000E+00 0. -1.
         21   -1    0    0  501  502 -0.00000000000E+00 -0.00000000000E+00 -0.35527434396E+03  0.35527434396E+03  0.00000000000E+00 0.  1.
         25    1    1    2    0    0 -0.62090281747E+02  0.11818328593E+03 -0.12486279283E+03  0.22144572517E+03  0.12500000000E+03 0.  0.
         25    1    1    2    0    0 -0.57334519835E+02  0.67389828845E+02  0.75390207372E+02  0.17069657162E+03  0.12500000000E+03 0.  0.
         25    1    1    2    0    0  0.11942480158E+03 -0.18557311477E+03 -0.14874901369E+02  0.25405890429E+03  0.12500000000E+03 0.  0.
</event>
<event>
 5    0  0.5771525E-005  0.2845038E+03  0.7546771E-02  0.1093254E+00
         21   -1    0    0  502  501  0.00000000000E+00  0.00000000000E+00  0.11139137439E+03  0.11139137439E+03  0.00000000000E+00 0.  1.
         21   -1    0    0  501  502 -0.00000000000E+00 -0.00000000000E+00 -0.72664896595E+03  0.72664896595E+03  0.00000000000E+00 0.  1.
         25    1    1    2    0    0  0.46129740726E+02  0.13919162856E+03 -0.17722145543E+03  0.26179134192E+03  0.12500000000E+03 0.  0.
         25    1    1    2    0    0 -0.11117995158E+01  0.18168175390E+02 -0.30745892988E+03  0.33239631806E+03  0.12500000000E+03 0.  0.
         25    1    1    2    0    0 -0.45017941210E+02 -0.15735980395E+03 -0.13057720625E+03  0.24385268037E+03  0.12500000000E+03 0.  0.
</event>
<event>
 5    0  0.5771525E-005  0.3420861E+03  0.7546771E-02  0.1065911E+00
         21   -1    0    0  502  501  0.00000000000E+00  0.00000000000E+00  0.21366549945E+03  0.21366549945E+03  0.00000000000E+00 0.  1.
         21   -1    0    0  501  502 -0.00000000000E+00 -0.00000000000E+00 -0.54769196736E+03  0.54769196736E+03  0.00000000000E+00 0.  1.
         25    1    1    2    0    0 -0.15982316969E+03 -0.17437084083E+03 -0.21407490998E+02  0.26838762336E+03  0.12500000000E+03 0.  0.
         25    1    1    2    0    0  0.53091026420E+02 -0.20193801640E+01 -0.14886471497E+03  0.20151535511E+03  0.12500000000E+03 0.  0.
         25    1    1    2    0    0  0.10673214327E+03  0.17639022100E+03 -0.16375426194E+03  0.29145448834E+03  0.12500000000E+03 0.  0.
</event>
<event>
 5    0  0.8732773E-005  0.3802408E+03  0.7546771E-02  0.1050845E+00
         21   -1    0    0  502  501  0.00000000000E+00  0.00000000000E+00  0.25478695044E+03  0.25478695044E+03  0.00000000000E+00 0. -1.
         21   -1    0    0  501  502 -0.00000000000E+00 -0.00000000000E+00 -0.56746661303E+03  0.56746661303E+03  0.00000000000E+00 0. -1.
         25    1    1    2    0    0 -0.98497595650E+02 -0.14034856816E+03 -0.52169204278E+02  0.21850886208E+03  0.12500000000E+03 0.  0.
         25    1    1    2    0    0 -0.22901762152E+02  0.15266246394E+03  0.85411613920E+02  0.21621855239E+03  0.12500000000E+03 0.  0.
         25    1    1    2    0    0  0.12139935780E+03 -0.12313895782E+02 -0.34592207223E+03  0.38752614900E+03  0.12500000000E+03 0.  0.
</event>
<event>
 5    0  0.5771525E-005  0.3070724E+03  0.7546771E-02  0.1081758E+00
         21   -1    0    0  502  501  0.00000000000E+00  0.00000000000E+00  0.12830117271E+03  0.12830117271E+03  0.00000000000E+00 0. -1.
         21   -1    0    0  501  502 -0.00000000000E+00 -0.00000000000E+00 -0.73493863467E+03  0.73493863467E+03  0.00000000000E+00 0. -1.
         25    1    1    2    0    0 -0.56315963561E+02 -0.80848616668E+02 -0.18439584998E+03  0.24358738896E+03  0.12500000000E+03 0.  0.
         25    1    1    2    0    0  0.12573470080E+03 -0.87549328374E+02 -0.82172361028E+02  0.21412939266E+03  0.12500000000E+03 0.  0.
         25    1    1    2    0    0 -0.69418737243E+02  0.16839794504E+03 -0.34006925095E+03  0.40552302575E+03  0.12500000000E+03 0.  0.
</event>
<event>
 5    0  0.5771525E-005  0.2443852E+03  0.7546771E-02  0.1116906E+00
         21   -1    0    0  502  501  0.00000000000E+00  0.00000000000E+00  0.42157084714E+02  0.42157084714E+02  0.00000000000E+00 0. -1.
         21   -1    0    0  501  502 -0.00000000000E+00 -0.00000000000E+00 -0.14167048803E+04  0.14167048803E+04  0.00000000000E+00 0. -1.
         25    1    1    2    0    0  0.78680117479E+02 -0.14270127285E+02 -0.54211201843E+03  0.56205394576E+03  0.12500000000E+03 0.  0.
         25    1    1    2    0    0 -0.23792033838E+01  0.12796166467E+02 -0.65399810316E+03  0.66596390399E+03  0.12500000000E+03 0.  0.
         25    1    1    2    0    0 -0.76300914095E+02  0.14739608178E+01 -0.17843767402E+03  0.23084411529E+03  0.12500000000E+03 0.  0.
</event>
<event>
 5    0  0.5771525E-005  0.4252001E+03  0.7546771E-02  0.1035387E+00
         21   -1    0    0  502  501  0.00000000000E+00  0.00000000000E+00  0.12255113671E+04  0.12255113671E+04  0.00000000000E+00 0.  1.
         21   -1    0    0  501  502 -0.00000000000E+00 -0.00000000000E+00 -0.14752626324E+03  0.14752626324E+03  0.00000000000E+00 0.  1.
         25    1    1    2    0    0  0.10603628707E+03  0.20198635280E+03  0.80193431553E+03  0.84306928974E+03  0.12500000000E+03 0.  0.
         25    1    1    2    0    0 -0.99003217237E+02 -0.11449405237E+03  0.31607320298E+03  0.37207229767E+03  0.12500000000E+03 0.  0.
         25    1    1    2    0    0 -0.70330698292E+01 -0.87492300434E+02 -0.40022414631E+02  0.15789604295E+03  0.12500000000E+03 0.  0.
</event>
<event>
 5    0  0.5771525E-005  0.4909769E+03  0.7546771E-02  0.1016161E+00
         21   -1    0    0  502  501  0.00000000000E+00  0.00000000000E+00  0.21807944786E+03  0.21807944786E+03  0.00000000000E+00 0.  1.
         21   -1    0    0  501  502 -0.00000000000E+00 -0.00000000000E+00 -0.11053691687E+04  0.11053691687E+04  0.00000000000E+00 0.  1.
         25    1    1    2    0    0  0.23642896536E+03  0.24193685373E+03 -0.33230490524E+03  0.49039132018E+03  0.12500000000E+03 0.  0.
         25    1    1    2    0    0 -0.22431868305E+03  0.82064074131E+02 -0.29085822094E+03  0.39658150299E+03  0.12500000000E+03 0.  0.
         25    1    1    2    0    0 -0.12110282312E+02 -0.32400092786E+03 -0.26412659462E+03  0.43647579335E+03  0.12500000000E+03 0.  0.
</event>
<event>
 5    0  0.5771525E-005  0.3511949E+03  0.7546771E-02  0.1062126E+00
         21   -1    0    0  502  501  0.00000000000E+00  0.00000000000E+00  0.14715756001E+04  0.14715756001E+04  0.00000000000E+00 0.  1.
         21   -1    0    0  501  502 -0.00000000000E+00 -0.00000000000E+00 -0.83813466732E+02  0.83813466732E+02  0.00000000000E+00 0.  1.
         25    1    1    2    0    0 -0.18397971498E+03 -0.12297209533E+03  0.86414510449E+03  0.90074548756E+03  0.12500000000E+03 0.  0.
         25    1    1    2    0    0  0.18400169727E+03  0.54680523387E+02  0.21243115497E+03  0.31240771411E+03  0.12500000000E+03 0.  0.
         25    1    1    2    0    0 -0.21982287838E-01  0.68291571942E+02  0.31118587391E+03  0.34223586517E+03  0.12500000000E+03 0.  0.
</event>
<event>
 5    0  0.5771525E-005  0.3063004E+03  0.7546771E-02  0.1082133E+00
         21   -1    0    0  502  501  0.00000000000E+00  0.00000000000E+00  0.11657935646E+04  0.11657935646E+04  0.00000000000E+00 0. -1.
         21   -1    0    0  501  502 -0.00000000000E+00 -0.00000000000E+00 -0.80477325962E+02  0.80477325962E+02  0.00000000000E+00 0. -1.
         25    1    1    2    0    0  0.22136763463E+02 -0.69910630630E+01  0.29368179924E+03  0.32002017196E+03  0.12500000000E+03 0.  0.
         25    1    1    2    0    0  0.23212299446E+01  0.11587851860E+02  0.11555242490E+01  0.12556273992E+03  0.12500000000E+03 0.  0.
         25    1    1    2    0    0 -0.24457993408E+02 -0.45967887965E+01  0.79047891519E+03  0.80068797872E+03  0.12500000000E+03 0.  0.
</event>
<event>
 5    0  0.7611331E-005  0.2725006E+03  0.7546771E-02  0.1099857E+00
         21   -1    0    0  502  501  0.00000000000E+00  0.00000000000E+00  0.10895986164E+03  0.10895986164E+03  0.00000000000E+00 0.  1.
         21   -1    0    0  501  502 -0.00000000000E+00 -0.00000000000E+00 -0.68150377071E+03  0.68150377071E+03  0.00000000000E+00 0.  1.
         25    1    1    2    0    0 -0.77998640842E+02 -0.72666556429E+02 -0.41014932558E+03  0.44182766512E+03  0.12500000000E+03 0.  0.
         25    1    1    2    0    0 -0.25029132538E+01  0.60044569166E+01 -0.10052463539E+02  0.12557217089E+03  0.12500000000E+03 0.  0.
         25    1    1    2    0    0  0.80501554096E+02  0.66662099513E+02 -0.15234211995E+03  0.22306379633E+03  0.12500000000E+03 0.  0.
</event>
<event>
 5    0  0.5771525E-005  0.2629703E+03  0.7546771E-02  0.1105372E+00
         21   -1    0    0  502  501  0.00000000000E+00  0.00000000000E+00  0.16284397982E+03  0.16284397982E+03  0.00000000000E+00 0.  1.
         21   -1    0    0  501  502 -0.00000000000E+00 -0.00000000000E+00 -0.42466044069E+03  0.42466044069E+03  0.00000000000E+00 0.  1.
         25    1    1    2    0    0  0.12355717203E+03  0.39083882760E+02 -0.43792783518E+02  0.18530173377E+03  0.12500000000E+03 0.  0.
         25    1    1    2    0    0 -0.14554697810E+02  0.38362889351E+02 -0.16619229580E+03  0.21196327439E+03  0.12500000000E+03 0.  0.
         25    1    1    2    0    0 -0.10900247422E+03 -0.77446772111E+02 -0.51831381558E+02  0.19023941235E+03  0.12500000000E+03 0.  0.
</event>
<event>
 5    0  0.5852268E-005  0.2980467E+03  0.7546771E-02  0.1086221E+00
         21   -1    0    0  502  501  0.00000000000E+00  0.00000000000E+00  0.83361383928E+03  0.83361383928E+03  0.00000000000E+00 0. -1.
         21   -1    0    0  501  502 -0.00000000000E+00 -0.00000000000E+00 -0.10656232487E+03  0.10656232487E+03  0.00000000000E+00 0. -1.
         25    1    1    2    0    0 -0.14475353168E+03 -0.52871497030E+02  0.55867526412E+02  0.20614354377E+03  0.12500000000E+03 0.  0.
         25    1    1    2    0    0  0.97208345731E+02  0.35651273452E+02  0.37145921529E+03  0.40537319152E+03  0.12500000000E+03 0.  0.
         25    1    1    2    0    0  0.47545185951E+02  0.17220223578E+02  0.29972477270E+03  0.32865942886E+03  0.12500000000E+03 0.  0.
</event>
<event>
 5    0  0.5771525E-005  0.2184112E+03  0.7546771E-02  0.1135073E+00
         21   -1    0    0  502  501  0.00000000000E+00  0.00000000000E+00  0.12226634130E+04  0.12226634130E+04  0.00000000000E+00 0.  1.
         21   -1    0    0  501  502 -0.00000000000E+00 -0.00000000000E+00 -0.39016027938E+02  0.39016027938E+02  0.00000000000E+00 0.  1.
         25    1    1    2    0    0 -0.24655158505E+02  0.23573949073E+01  0.24474066649E+03  0.27592830225E+03  0.12500000000E+03 0.  0.
         25    1    1    2    0    0  0.62221244200E+02  0.52184697824E+02  0.35646149969E+03  0.38637355846E+03  0.12500000000E+03 0.  0.
         25    1    1    2    0    0 -0.37566085695E+02 -0.54542092732E+02  0.58244521892E+03  0.59937758026E+03  0.12500000000E+03 0.  0.
</event>
<event>
 5    0  0.5771525E-005  0.2261144E+03  0.7546771E-02  0.1129405E+00
         21   -1    0    0  502  501  0.00000000000E+00  0.00000000000E+00  0.32623280430E+03  0.32623280430E+03  0.00000000000E+00 0. -1.
         21   -1    0    0  501  502 -0.00000000000E+00 -0.00000000000E+00 -0.15672154299E+03  0.15672154299E+03  0.00000000000E+00 0. -1.
         25    1    1    2    0    0 -0.32697870874E+02 -0.41330558894E+02  0.19064775908E+02  0.13698843578E+03  0.12500000000E+03 0.  0.
         25    1    1    2    0    0 -0.61352404485E+02  0.59289641437E+01  0.23321151367E+02  0.14130869136E+03  0.12500000000E+03 0.  0.
         25    1    1    2    0    0  0.94050275358E+02  0.35401594750E+02  0.12712533404E+03  0.20465722015E+03  0.12500000000E+03 0.  0.
</event>
<event>
 5    0  0.5771525E-005  0.2838992E+03  0.7546771E-02  0.1093578E+00
         21   -1    0    0  502  501  0.00000000000E+00  0.00000000000E+00  0.52580344442E+03  0.52580344442E+03  0.00000000000E+00 0. -1.
         21   -1    0    0  501  502 -0.00000000000E+00 -0.00000000000E+00 -0.15328682405E+03  0.15328682405E+03  0.00000000000E+00 0. -1.
         25    1    1    2    0    0 -0.87073246344E+01  0.10051667801E+03  0.34671287380E+02  0.16433660040E+03  0.12500000000E+03 0.  0.
         25    1    1    2    0    0  0.13303687418E+03  0.54981072518E+01  0.16127315684E+03  0.24364537794E+03  0.12500000000E+03 0.  0.
         25    1    1    2    0    0 -0.12432954955E+03 -0.10601478527E+03  0.17657217615E+03  0.27110829013E+03  0.12500000000E+03 0.  0.
</event>
<event>
 5    0  0.5771525E-005  0.3264452E+03  0.7546771E-02  0.1072721E+00
         21   -1    0    0  502  501  0.00000000000E+00  0.00000000000E+00  0.41684382325E+03  0.41684382325E+03  0.00000000000E+00 0. -1.
         21   -1    0    0  501  502 -0.00000000000E+00 -0.00000000000E+00 -0.25565086799E+03  0.25565086799E+03  0.00000000000E+00 0. -1.
         25    1    1    2    0    0  0.14895462924E+03 -0.77312684281E+02  0.85126103642E+02  0.22591189930E+03  0.12500000000E+03 0.  0.
         25    1    1    2    0    0  0.44203776846E+02  0.28874051320E+02 -0.86332780471E+02  0.16082920665E+03  0.12500000000E+03 0.  0.
         25    1    1    2    0    0 -0.19315840608E+03  0.48438632961E+02  0.16239963209E+03  0.28575358529E+03  0.12500000000E+03 0.  0.
</event>
<event>
 5    0  0.5771525E-005  0.2499054E+03  0.7546771E-02  0.1113365E+00
         21   -1    0    0  502  501  0.00000000000E+00  0.00000000000E+00  0.60043056748E+03  0.60043056748E+03  0.00000000000E+00 0.  1.
         21   -1    0    0  501  502 -0.00000000000E+00 -0.00000000000E+00 -0.10401319382E+03  0.10401319382E+03  0.00000000000E+00 0.  1.
         25    1    1    2    0    0 -0.11704441990E+02 -0.14035247235E+03  0.22271636976E+03  0.29165629055E+03  0.12500000000E+03 0.  0.
         25    1    1    2    0    0  0.43563651387E+02  0.69591710822E+02  0.80186351315E+02  0.16969280737E+03  0.12500000000E+03 0.  0.
         25    1    1    2    0    0 -0.31859209397E+02  0.70760761530E+02  0.19351465258E+03  0.24309466337E+03  0.12500000000E+03 0.  0.
</event>
<event>
 5    0  0.5771525E-005  0.2242623E+03  0.7546771E-02  0.1130745E+00
         21   -1    0    0  502  501  0.00000000000E+00  0.00000000000E+00  0.63307049538E+02  0.63307049538E+02  0.00000000000E+00 0. -1.
         21   -1    0    0  501  502 -0.00000000000E+00 -0.00000000000E+00 -0.79443907883E+03  0.79443907883E+03  0.00000000000E+00 0. -1.
         25    1    1    2    0    0  0.24740789860E+02 -0.29731331479E+02 -0.16814304163E+03  0.21305666196E+03  0.12500000000E+03 0.  0.
         25    1    1    2    0    0  0.62640741102E+01 -0.59453638168E+02 -0.37620140726E+03  0.40090706223E+03  0.12500000000E+03 0.  0.
         25    1    1    2    0    0 -0.31004863970E+02  0.89184969646E+02 -0.18678758039E+03  0.24378240418E+03  0.12500000000E+03 0.  0.
</event>
<event>
 5    0  0.6116396E-005  0.4434748E+03  0.7546771E-02  0.1029686E+00
         21   -1    0    0  502  501  0.00000000000E+00  0.00000000000E+00  0.48971081538E+03  0.48971081538E+03  0.00000000000E+00 0. -1.
         21   -1    0    0  501  502 -0.00000000000E+00 -0.00000000000E+00 -0.40160423370E+03  0.40160423370E+03  0.00000000000E+00 0. -1.
         25    1    1    2    0    0 -0.23479461316E+03 -0.76187201167E+02  0.17220687280E+03  0.32590367754E+03  0.12500000000E+03 0.  0.
         25    1    1    2    0    0  0.13423978171E+03  0.32295894936E+02 -0.26227124894E+03  0.32167460554E+03  0.12500000000E+03 0.  0.
         25    1    1    2    0    0  0.10055483145E+03  0.43891306231E+02  0.17817095782E+03  0.24373676601E+03  0.12500000000E+03 0.  0.
</event>
<event>
 5    0  0.5771525E-005  0.3361147E+03  0.7546771E-02  0.1068463E+00
         21   -1    0    0  502  501  0.00000000000E+00  0.00000000000E+00  0.12174551974E+03  0.12174551974E+03  0.00000000000E+00 0.  1.
         21   -1    0    0  501  502 -0.00000000000E+00 -0.00000000000E+00 -0.92794459013E+03  0.92794459013E+03  0.00000000000E+00 0.  1.
         25    1    1    2    0    0  0.19600396992E+02  0.85281316651E+02 -0.28031371478E+03  0.31915177773E+03  0.12500000000E+03 0.  0.
         25    1    1    2    0    0  0.13855766746E+02  0.69474549940E+02  0.23226814804E+02  0.14554442719E+03  0.12500000000E+03 0.  0.
         25    1    1    2    0    0 -0.33456163737E+02 -0.15475586659E+03 -0.54911217041E+03  0.58499390495E+03  0.12500000000E+03 0.  0.
</event>
<event>
 5    0  0.5771525E-005  0.2539766E+03  0.7546771E-02  0.1110817E+00
         21   -1    0    0  502  501  0.00000000000E+00  0.00000000000E+00  0.25794201600E+03  0.25794201600E+03  0.00000000000E+00 0.  1.
         21   -1    0    0  501  502 -0.00000000000E+00 -0.00000000000E+00 -0.25007222120E+03  0.25007222120E+03  0.00000000000E+00 0.  1.
         25    1    1    2    0    0  0.83318475808E+02 -0.35671370044E+01 -0.73288324379E+02  0.16718514099E+03  0.12500000000E+03 0.  0.
         25    1    1    2    0    0 -0.12089401482E+03  0.51265479084E+02  0.28552245614E+01  0.18131923360E+03  0.12500000000E+03 0.  0.
         25    1    1    2    0    0  0.37575539009E+02 -0.47698342080E+02  0.78302894617E+02  0.15950986262E+03  0.12500000000E+03 0.  0.
</event>
<event>
 5    0  0.5771525E-005  0.2487966E+03  0.7546771E-02  0.1114068E+00
         21   -1    0    0  502  501  0.00000000000E+00  0.00000000000E+00  0.10910457469E+04  0.10910457469E+04  0.00000000000E+00 0.  1.
         21   -1    0    0  501  502 -0.00000000000E+00 -0.00000000000E+00 -0.56734328331E+02  0.56734328331E+02  0.00000000000E+00 0.  1.
         25    1    1    2    0    0  0.72089419604E+02  0.48118231341E+02  0.36232498493E+03  0.39295883157E+03  0.12500000000E+03 0.  0.
         25    1    1    2    0    0 -0.31271315449E+02  0.85260556903E+02  0.34440161549E+03  0.37747149625E+03  0.12500000000E+03 0.  0.
         25    1    1    2    0    0 -0.40818104155E+02 -0.13337878824E+03  0.32758481813E+03  0.37734974738E+03  0.12500000000E+03 0.  0.
</event>
<event>
 5    0  0.5771525E-005  0.4518058E+03  0.7546771E-02  0.1027185E+00
         21   -1    0    0  502  501  0.00000000000E+00  0.00000000000E+00  0.36685573501E+03  0.36685573501E+03  0.00000000000E+00 0. -1.
         21   -1    0    0  501  502 -0.00000000000E+00 -0.00000000000E+00 -0.55642712268E+03  0.55642712268E+03  0.00000000000E+00 0. -1.
         25    1    1    2    0    0 -0.11734625918E+03 -0.10506339542E+03 -0.27936051823E+03  0.34420308067E+03  0.12500000000E+03 0.  0.
         25    1    1    2    0    0 -0.79185906716E+02  0.15026018897E+03 -0.13650008366E+03  0.25120868825E+03  0.12500000000E+03 0.  0.
         25    1    1    2    0    0  0.19653216589E+03 -0.45196793550E+02  0.22628921422E+03  0.32787108877E+03  0.12500000000E+03 0.  0.
</event>
<event>
 5    0  0.5771525E-005  0.2576792E+03  0.7546771E-02  0.1108546E+00
         21   -1    0    0  502  501  0.00000000000E+00  0.00000000000E+00  0.25641435001E+03  0.25641435001E+03  0.00000000000E+00 0.  1.
         21   -1    0    0  501  502 -0.00000000000E+00 -0.00000000000E+00 -0.25895025330E+03  0.25895025330E+03  0.00000000000E+00 0.  1.
         25    1    1    2    0    0  0.74265084186E+01  0.98333753236E+01 -0.38936435379E+02  0.13150244978E+03  0.12500000000E+03 0.  0.
         25    1    1    2    0    0  0.11364564792E+03  0.32761983533E+02  0.93471495947E+02  0.19583309580E+03  0.12500000000E+03 0.  0.
         25    1    1    2    0    0 -0.12107215633E+03 -0.42595358857E+02 -0.57070963862E+02  0.18802905773E+03  0.12500000000E+03 0.  0.
</event>
<event>
 5    0  0.5771525E-005  0.2428495E+03  0.7546771E-02  0.1117909E+00
         21   -1    0    0  502  501  0.00000000000E+00  0.00000000000E+00  0.97637109639E+02  0.97637109639E+02  0.00000000000E+00 0. -1.
         21   -1    0    0  501  502 -0.00000000000E+00 -0.00000000000E+00 -0.60403147821E+03  0.60403147821E+03  0.00000000000E+00 0. -1.
         25    1    1    2    0    0  0.17519180089E+02  0.65350231335E+02 -0.11626884686E+03  0.18363283790E+03  0.12500000000E+03 0.  0.
         25    1    1    2    0    0 -0.93544564398E+02  0.96046470109E+01 -0.10333436426E+03  0.18747219957E+03  0.12500000000E+03 0.  0.
         25    1    1    2    0    0  0.76025384309E+02 -0.74954878346E+02 -0.28679115746E+03  0.33056355038E+03  0.12500000000E+03 0.  0.
</event>
<event>
 5    0  0.5771525E-005  0.2901451E+03  0.7546771E-02  0.1090273E+00
         21   -1    0    0  502  501  0.00000000000E+00  0.00000000000E+00  0.77741852119E+02  0.77741852119E+02  0.00000000000E+00 0. -1.
         21   -1    0    0  501  502 -0.00000000000E+00 -0.00000000000E+00 -0.10828684020E+04  0.10828684020E+04  0.00000000000E+00 0. -1.
         25    1    1    2    0    0  0.62670637630E+02 -0.27663445858E+02 -0.44844181809E+02  0.14942849695E+03  0.12500000000E+03 0.  0.
         25    1    1    2    0    0 -0.26263741831E+02  0.68185414142E+02 -0.72436711004E+03  0.73869597599E+03  0.12500000000E+03 0.  0.
         25    1    1    2    0    0 -0.36406895799E+02 -0.40521968284E+02 -0.23591525805E+03  0.27248578120E+03  0.12500000000E+03 0.  0.
</event>
<event>
 5    0  0.5771525E-005  0.2961289E+03  0.7546771E-02  0.1087192E+00
         21   -1    0    0  502  501  0.00000000000E+00  0.00000000000E+00  0.84471735221E+02  0.84471735221E+02  0.00000000000E+00 0. -1.
         21   -1    0    0  501  502 -0.00000000000E+00 -0.00000000000E+00 -0.10381263261E+04  0.10381263261E+04  0.00000000000E+00 0. -1.
         25    1    1    2    0    0  0.11369901070E+03 -0.13787391538E+03 -0.36433219321E+03  0.42461703756E+03  0.12500000000E+03 0.  0.
         25    1    1    2    0    0 -0.64586261819E+01 -0.40024863607E+02 -0.21691337231E+03  0.25361410577E+03  0.12500000000E+03 0.  0.
         25    1    1    2    0    0 -0.10724038452E+03  0.17789877899E+03 -0.37240902536E+03  0.44436691800E+03  0.12500000000E+03 0.  0.
</event>
<event>
 5    0  0.5771525E-005  0.3263260E+03  0.7546771E-02  0.1072774E+00
         21   -1    0    0  502  501  0.00000000000E+00  0.00000000000E+00  0.22356064022E+03  0.22356064022E+03  0.00000000000E+00 0. -1.
         21   -1    0    0  501  502 -0.00000000000E+00 -0.00000000000E+00 -0.47633018491E+03  0.47633018491E+03  0.00000000000E+00 0. -1.
         25    1    1    2    0    0  0.92865991016E+02  0.20173303785E+03 -0.19587727108E+03  0.32142373306E+03  0.12500000000E+03 0.  0.
         25    1    1    2    0    0 -0.57124737634E+02 -0.14269673272E+03 -0.10942045150E+03  0.22632593397E+03  0.12500000000E+03 0.  0.
         25    1    1    2    0    0 -0.35741253382E+02 -0.59036305130E+02  0.52528177881E+02  0.15214115810E+03  0.12500000000E+03 0.  0.
</event>
<event>
 5    0  0.5771525E-005  0.4818353E+03  0.7546771E-02  0.1018632E+00
         21   -1    0    0  502  501  0.00000000000E+00  0.00000000000E+00  0.17538553155E+04  0.17538553155E+04  0.00000000000E+00 0. -1.
         21   -1    0    0  501  502 -0.00000000000E+00 -0.00000000000E+00 -0.13237423173E+03  0.13237423173E+03  0.00000000000E+00 0. -1.
         25    1    1    2    0    0  0.27614957019E+03  0.43596126317E+02  0.30228801048E+03  0.43030483221E+03  0.12500000000E+03 0.  0.
         25    1    1    2    0    0 -0.20239583987E+03 -0.26177591959E+03  0.73799804268E+03  0.81838671731E+03  0.12500000000E+03 0.  0.
         25    1    1    2    0    0 -0.73753730322E+02  0.21817979327E+03  0.58119503064E+03  0.63753799774E+03  0.12500000000E+03 0.  0.
</event>
<event>
 5    0  0.5771525E-005  0.2210132E+03  0.7546771E-02  0.1133130E+00
         21   -1    0    0  502  501  0.00000000000E+00  0.00000000000E+00  0.47756656307E+02  0.47756656307E+02  0.00000000000E+00 0. -1.
         21   -1    0    0  501  502 -0.00000000000E+00 -0.00000000000E+00 -0.10228275359E+04  0.10228275359E+04  0.00000000000E+00 0. -1.
         25    1    1    2    0    0 -0.66769688562E+01  0.55657599795E+02 -0.58199583530E+03  0.59790174998E+03  0.12500000000E+03 0.  0.
         25    1    1    2    0    0  0.23052908564E+02 -0.73511428571E+01 -0.18154731675E+03  0.22174287838E+03  0.12500000000E+03 0.  0.
         25    1    1    2    0    0 -0.16375939707E+02 -0.48306456938E+02 -0.21152772758E+03  0.25093956388E+03  0.12500000000E+03 0.  0.
</event>
<event>
 5    0  0.5771525E-005  0.4079789E+03  0.7546771E-02  0.1041051E+00
         21   -1    0    0  502  501  0.00000000000E+00  0.00000000000E+00  0.72311575303E+03  0.72311575303E+03  0.00000000000E+00 0. -1.
         21   -1    0    0  501  502 -0.00000000000E+00 -0.00000000000E+00 -0.23018005416E+03  0.23018005416E+03  0.00000000000E+00 0. -1.
         25    1    1    2    0    0 -0.35135848277E+02 -0.24285615594E+03  0.12880423573E+03  0.30402166280E+03  0.12500000000E+03 0.  0.
         25    1    1    2    0    0  0.16034501746E+03 -0.31308412997E+02  0.18699585483E+03  0.27799854509E+03  0.12500000000E+03 0.  0.
         25    1    1    2    0    0 -0.12520916918E+03  0.27416456893E+03  0.17713560831E+03  0.37127559930E+03  0.12500000000E+03 0.  0.
</event>
<event>
 5    0  0.5771525E-005  0.4797324E+03  0.7546771E-02  0.1019209E+00
         21   -1    0    0  502  501  0.00000000000E+00  0.00000000000E+00  0.12591631738E+03  0.12591631738E+03  0.00000000000E+00 0. -1.
         21   -1    0    0  501  502 -0.00000000000E+00 -0.00000000000E+00 -0.18277473801E+04  0.18277473801E+04  0.00000000000E+00 0. -1.
         25    1    1    2    0    0 -0.76754193890E+02 -0.33696176183E+03 -0.60933856928E+03  0.71158479974E+03  0.12500000000E+03 0.  0.
         25    1    1    2    0    0  0.23195578516E+03  0.21189683390E+03 -0.78642615113E+03  0.85603437178E+03  0.12500000000E+03 0.  0.
         25    1    1    2    0    0 -0.15520159128E+03  0.12506492793E+03 -0.30606634233E+03  0.38604452598E+03  0.12500000000E+03 0.  0.
</event>
<event>
 5    0  0.6690848E-005  0.3780171E+03  0.7546771E-02  0.1051669E+00
         21   -1    0    0  502  501  0.00000000000E+00  0.00000000000E+00  0.72587764561E+03  0.72587764561E+03  0.00000000000E+00 0.  1.
         21   -1    0    0  501  502 -0.00000000000E+00 -0.00000000000E+00 -0.19686092241E+03  0.19686092241E+03  0.00000000000E+00 0.  1.
         25    1    1    2    0    0 -0.18246596477E+03 -0.13587217574E+03  0.27724605270E+03  0.37979659052E+03  0.12500000000E+03 0.  0.
         25    1    1    2    0    0  0.72987367361E+02  0.19877901337E+03  0.14234138687E+02  0.24630847053E+03  0.12500000000E+03 0.  0.
         25    1    1    2    0    0  0.10947859741E+03 -0.62906837636E+02  0.23753653181E+03  0.29663350697E+03  0.12500000000E+03 0.  0.
</event>
<event>
 5    0  0.6666792E-005  0.2625383E+03  0.7546771E-02  0.1105628E+00
         21   -1    0    0  502  501  0.00000000000E+00  0.00000000000E+00  0.11826971122E+03  0.11826971122E+03  0.00000000000E+00 0.  1.
         21   -1    0    0  501  502 -0.00000000000E+00 -0.00000000000E+00 -0.58278940815E+03  0.58278940815E+03  0.00000000000E+00 0.  1.
         25    1    1    2    0    0 -0.56748390136E+01 -0.86563652612E+02 -0.78875018871E+02  0.17138184954E+03  0.12500000000E+03 0.  0.
         25    1    1    2    0    0 -0.76625705091E+02 -0.55145786986E+02 -0.15520796617E+03  0.22051546264E+03  0.12500000000E+03 0.  0.
         25    1    1    2    0    0  0.82300544104E+02  0.14170943960E+03 -0.23043671189E+03  0.30916180718E+03  0.12500000000E+03 0.  0.
</event>
<event>
 5    0  0.5771525E-005  0.2762178E+03  0.7546771E-02  0.1097773E+00
         21   -1    0    0  502  501  0.00000000000E+00  0.00000000000E+00  0.78672027496E+03  0.78672027496E+03  0.00000000000E+00 0.  1.
         21   -1    0    0  501  502 -0.00000000000E+00 -0.00000000000E+00 -0.96980174168E+02  0.96980174168E+02  0.00000000000E+00 0.  1.
         25    1    1    2    0    0 -0.31190419092E+01 -0.90115518429E+02  0.19420391196E+02  0.15534698799E+03  0.12500000000E+03 0.  0.
         25    1    1    2    0    0 -0.30388968264E+02  0.53927379777E+02  0.24056223919E+03  0.27807704437E+03  0.12500000000E+03 0.  0.
         25    1    1    2    0    0  0.33508010173E+02  0.36188138652E+02  0.42975747041E+03  0.45027641677E+03  0.12500000000E+03 0.  0.
</event>
<event>
 5    0  0.5771525E-005  0.5389534E+03  0.7546771E-02  0.1004084E+00
         21   -1    0    0  502  501  0.00000000000E+00  0.00000000000E+00  0.13088055467E+04  0.13088055467E+04  0.00000000000E+00 0. -1.
         21   -1    0    0  501  502 -0.00000000000E+00 -0.00000000000E+00 -0.22193577862E+03  0.22193577862E+03  0.00000000000E+00 0. -1.
         25    1    1    2    0    0 -0.77282468234E+02  0.15268401538E+02  0.26526527072E+03  0.30363854800E+03  0.12500000000E+03 0.  0.
         25    1    1    2    0    0 -0.23368886075E+03 -0.29219128056E+03  0.64869780764E+03  0.75922333585E+03  0.12500000000E+03 0.  0.
         25    1    1    2    0    0  0.31097132899E+03  0.27692287902E+03  0.17290668971E+03  0.46787944144E+03  0.12500000000E+03 0.  0.
</event>
<event>
 5    0  0.5771525E-005  0.3253104E+03  0.7546771E-02  0.1073231E+00
         21   -1    0    0  502  501  0.00000000000E+00  0.00000000000E+00  0.14599969492E+03  0.14599969492E+03  0.00000000000E+00 0.  1.
         21   -1    0    0  501  502 -0.00000000000E+00 -0.00000000000E+00 -0.72484314436E+03  0.72484314436E+03  0.00000000000E+00 0.  1.
         25    1    1    2    0    0 -0.79414636362E+02 -0.11801525353E+03 -0.36411220786E+03  0.41041075089E+03  0.12500000000E+03 0.  0.
         25    1    1    2    0    0  0.93498276016E+02  0.13906792283E+03  0.18704148750E+01  0.20907011558E+03  0.12500000000E+03 0.  0.
         25    1    1    2    0    0 -0.14083639654E+02 -0.21052669305E+02 -0.21660165646E+03  0.25136197280E+03  0.12500000000E+03 0.  0.
</event>
<event>
 5    0  0.5771525E-005  0.1979093E+03  0.7546771E-02  0.1151515E+00
         21   -1    0    0  502  501  0.00000000000E+00  0.00000000000E+00  0.21183053333E+03  0.21183053333E+03  0.00000000000E+00 0.  1.
         21   -1    0    0  501  502 -0.00000000000E+00 -0.00000000000E+00 -0.18490296248E+03  0.18490296248E+03  0.00000000000E+00 0.  1.
         25    1    1    2    0    0  0.24943343358E+02 -0.11407160976E+02 -0.10327753000E+02  0.12838986012E+03  0.12500000000E+03 0.  0.
         25    1    1    2    0    0 -0.17936497418E+02  0.21234298475E+02  0.58833509991E+02  0.14092194744E+03  0.12500000000E+03 0.  0.
         25    1    1    2    0    0 -0.70068459400E+01 -0.98271374986E+01 -0.21578186134E+02  0.12742168826E+03  0.12500000000E+03 0.  0.
</event>
<event>
 5    0  0.5771525E-005  0.2549446E+03  0.7546771E-02  0.1110219E+00
         21   -1    0    0  502  501  0.00000000000E+00  0.00000000000E+00  0.11962854943E+03  0.11962854943E+03  0.00000000000E+00 0. -1.
         21   -1    0    0  501  502 -0.00000000000E+00 -0.00000000000E+00 -0.54332148586E+03  0.54332148586E+03  0.00000000000E+00 0. -1.
         25    1    1    2    0    0  0.13129420982E+03  0.37361104600E+02 -0.14706164531E+03  0.23640251519E+03  0.12500000000E+03 0.  0.
         25    1    1    2    0    0 -0.11951522744E+03 -0.70016440539E+02 -0.11452983024E+03  0.21892526933E+03  0.12500000000E+03 0.  0.
         25    1    1    2    0    0 -0.11778982379E+02  0.32655335939E+02 -0.16210146088E+03  0.20762225076E+03  0.12500000000E+03 0.  0.
</event>
<event>
 5    0  0.5771525E-005  0.2626565E+03  0.7546771E-02  0.1105558E+00
         21   -1    0    0  502  501  0.00000000000E+00  0.00000000000E+00  0.23647410295E+02  0.23647410295E+02  0.00000000000E+00 0.  1.
         21   -1    0    0  501  502 -0.00000000000E+00 -0.00000000000E+00 -0.29173778487E+04  0.29173778487E+04  0.00000000000E+00 0.  1.
         25    1    1    2    0    0 -0.90289213356E+02  0.69097838224E+02 -0.15822410231E+04  0.15912379798E+04  0.12500000000E+03 0.  0.
         25    1    1    2    0    0 -0.34579326890E+02 -0.54307528489E+02 -0.64212510232E+03  0.65733909402E+03  0.12500000000E+03 0.  0.
         25    1    1    2    0    0  0.12486854025E+03 -0.14790309735E+02 -0.66936431304E+03  0.69244818520E+03  0.12500000000E+03 0.  0.
</event>
<event>
 5    0  0.5771525E-005  0.3095836E+03  0.7546771E-02  0.1080546E+00
         21   -1    0    0  502  501  0.00000000000E+00  0.00000000000E+00  0.55095900784E+03  0.55095900784E+03  0.00000000000E+00 0. -1.
         21   -1    0    0  501  502 -0.00000000000E+00 -0.00000000000E+00 -0.17395493045E+03  0.17395493045E+03  0.00000000000E+00 0. -1.
         25    1    1    2    0    0 -0.47660954876E+02  0.14876068995E+03  0.81153129594E+02  0.21589844821E+03  0.12500000000E+03 0.  0.
         25    1    1    2    0    0  0.60778968557E+02  0.71689808000E+02  0.14801752729E+03  0.21533160468E+03  0.12500000000E+03 0.  0.
         25    1    1    2    0    0 -0.13118013681E+02 -0.22045049795E+03  0.14783342051E+03  0.29368388541E+03  0.12500000000E+03 0.  0.
</event>
<event>
 5    0  0.5771525E-005  0.2739791E+03  0.7546771E-02  0.1099024E+00
         21   -1    0    0  502  501  0.00000000000E+00  0.00000000000E+00  0.32533308586E+03  0.32533308586E+03  0.00000000000E+00 0. -1.
         21   -1    0    0  501  502 -0.00000000000E+00 -0.00000000000E+00 -0.23073143792E+03  0.23073143792E+03  0.00000000000E+00 0. -1.
         25    1    1    2    0    0  0.97761061744E+02  0.77412170285E+02 -0.60433544202E+02  0.18662015584E+03  0.12500000000E+03 0.  0.
         25    1    1    2    0    0 -0.13114706071E+03 -0.52246983242E+01  0.50609631213E+02  0.18818390946E+03  0.12500000000E+03 0.  0.
         25    1    1    2    0    0  0.33385998970E+02 -0.72187471961E+02  0.10442556092E+03  0.18126045848E+03  0.12500000000E+03 0.  0.
</event>
<event>
 5    0  0.5775842E-005  0.2818105E+03  0.7546771E-02  0.1094704E+00
         21   -1    0    0  502  501  0.00000000000E+00  0.00000000000E+00  0.21411735704E+03  0.21411735704E+03  0.00000000000E+00 0. -1.
         21   -1    0    0  501  502 -0.00000000000E+00 -0.00000000000E+00 -0.37090491826E+03  0.37090491826E+03  0.00000000000E+00 0. -1.
         25    1    1    2    0    0  0.81443374803E+02 -0.77598738407E+02  0.26987470851E+02  0.17031708982E+03  0.12500000000E+03 0.  0.
         25    1    1    2    0    0  0.83029849106E+02  0.64705538356E+02 -0.98746989461E+02  0.19093645661E+03  0.12500000000E+03 0.  0.
         25    1    1    2    0    0 -0.16447322391E+03  0.12893200052E+02 -0.85028042608E+02  0.22376872887E+03  0.12500000000E+03 0.  0.
</event>
<event>
 5    0  0.5771525E-005  0.2915369E+03  0.7546771E-02  0.1089549E+00
         21   -1    0    0  502  501  0.00000000000E+00  0.00000000000E+00  0.40534070666E+03  0.40534070666E+03  0.00000000000E+00 0. -1.
         21   -1    0    0  501  502 -0.00000000000E+00 -0.00000000000E+00 -0.20968474502E+03  0.20968474502E+03  0.00000000000E+00 0. -1.
         25    1    1    2    0    0 -0.65198369860E+02 -0.46659924069E+01  0.24946825953E+02  0.14324783783E+03  0.12500000000E+03 0.  0.
         25    1    1    2    0    0  0.17052392715E+03 -0.10705252128E+03  0.58106171599E+02  0.24400815401E+03  0.12500000000E+03 0.  0.
         25    1    1    2    0    0 -0.10532555729E+03  0.11171851368E+03  0.11260296409E+03  0.22776945985E+03  0.12500000000E+03 0.  0.
</event>
<event>
 5    0  0.5771525E-005  0.2848646E+03  0.7546771E-02  0.1093061E+00
         21   -1    0    0  502  501  0.00000000000E+00  0.00000000000E+00  0.12508049601E+04  0.12508049601E+04  0.00000000000E+00 0. -1.
         21   -1    0    0  501  502 -0.00000000000E+00 -0.00000000000E+00 -0.64876501280E+02  0.64876501280E+02  0.00000000000E+00 0. -1.
         25    1    1    2    0    0  0.43308923942E+02  0.35112516900E+01  0.43779593329E+03  0.45736011084E+03  0.12500000000E+03 0.  0.
         25    1    1    2    0    0 -0.96509077999E+02 -0.76171493601E+02  0.65552779959E+03  0.67857040505E+03  0.12500000000E+03 0.  0.
         25    1    1    2    0    0  0.53200154057E+02  0.72660241911E+02  0.92604725984E+02  0.17975094554E+03  0.12500000000E+03 0.  0.
</event>
<event>
 5    0  0.6677902E-005  0.2818313E+03  0.7546771E-02  0.1094693E+00
         21   -1    0    0  502  501  0.00000000000E+00  0.00000000000E+00  0.27595711170E+03  0.27595711170E+03  0.00000000000E+00 0.  1.
         21   -1    0    0  501  502 -0.00000000000E+00 -0.00000000000E+00 -0.28783058039E+03  0.28783058039E+03  0.00000000000E+00 0.  1.
         25    1    1    2    0    0 -0.23575228079E+02 -0.43543519839E+02 -0.81804547708E+02  0.15738110917E+03  0.12500000000E+03 0.  0.
         25    1    1    2    0    0 -0.74532668674E+02 -0.10220649416E+03 -0.56315773195E+01  0.17792695358E+03  0.12500000000E+03 0.  0.
         25    1    1    2    0    0  0.98107896752E+02  0.14575001400E+03  0.75562656338E+02  0.22847962933E+03  0.12500000000E+03 0.  0.
</event>
<event>
 5    0  0.5771525E-005  0.2288181E+03  0.7546771E-02  0.1127474E+00
         21   -1    0    0  502  501  0.00000000000E+00  0.00000000000E+00  0.23174315954E+02  0.23174315954E+02  0.00000000000E+00 0. -1.
         21   -1    0    0  501  502 -0.00000000000E+00 -0.00000000000E+00 -0.22593005060E+04  0.22593005060E+04  0.00000000000E+00 0. -1.
         25    1    1    2    0    0 -0.40832232582E+01 -0.21030772492E+01 -0.58823966668E+03  0.60139172018E+03  0.12500000000E+03 0.  0.
         25    1    1    2    0    0 -0.97979730740E+02 -0.27219808933E+02 -0.64209825121E+03  0.66200914634E+03  0.12500000000E+03 0.  0.
         25    1    1    2    0    0  0.10206295400E+03  0.29322886182E+02 -0.10057882722E+04  0.10190739555E+04  0.12500000000E+03 0.  0.
</event>
<event>
 5    0  0.6938994E-005  0.3846193E+03  0.7546771E-02  0.1049240E+00
         21   -1    0    0  502  501  0.00000000000E+00  0.00000000000E+00  0.68794729580E+03  0.68794729580E+03  0.00000000000E+00 0. -1.
         21   -1    0    0  501  502 -0.00000000000E+00 -0.00000000000E+00 -0.21503394020E+03  0.21503394020E+03  0.00000000000E+00 0. -1.
         25    1    1    2    0    0  0.69239757191E+02  0.64403666288E+02  0.38909176669E+03  0.41947512336E+03  0.12500000000E+03 0.  0.
         25    1    1    2    0    0 -0.18999623876E+03 -0.15461260983E+03  0.84469334107E+02  0.28768680586E+03  0.12500000000E+03 0.  0.
         25    1    1    2    0    0  0.12075648157E+03  0.90208943537E+02 -0.64774520272E+00  0.19581930679E+03  0.12500000000E+03 0.  0.
</event>
<event>
 5    0  0.5771525E-005  0.2218543E+03  0.7546771E-02  0.1132508E+00
         21   -1    0    0  502  501  0.00000000000E+00  0.00000000000E+00  0.36273339718E+02  0.36273339718E+02  0.00000000000E+00 0. -1.
         21   -1    0    0  501  502 -0.00000000000E+00 -0.00000000000E+00 -0.13569006613E+04  0.13569006613E+04  0.00000000000E+00 0. -1.
         25    1    1    2    0    0 -0.23586723990E+02  0.61616393468E+02 -0.63725517066E+03  0.65274195975E+03  0.12500000000E+03 0.  0.
         25    1    1    2    0    0 -0.14319738960E+02  0.17449657073E+02 -0.24058126855E+03  0.27205494341E+03  0.12500000000E+03 0.  0.
         25    1    1    2    0    0  0.37906462951E+02 -0.79066050541E+02 -0.44279088235E+03  0.46837709784E+03  0.12500000000E+03 0.  0.
</event>
<event>
 5    0  0.5771525E-005  0.3810522E+03  0.7546771E-02  0.1050546E+00
         21   -1    0    0  502  501  0.00000000000E+00  0.00000000000E+00  0.10871910775E+04  0.10871910775E+04  0.00000000000E+00 0. -1.
         21   -1    0    0  501  502 -0.00000000000E+00 -0.00000000000E+00 -0.13355591790E+03  0.13355591790E+03  0.00000000000E+00 0. -1.
         25    1    1    2    0    0 -0.13741471611E+03  0.31753921043E+02  0.38672910763E+03  0.43020404275E+03  0.12500000000E+03 0.  0.
         25    1    1    2    0    0 -0.12883937650E+03 -0.40845330184E+01  0.42788471332E+03  0.46403296892E+03  0.12500000000E+03 0.  0.
         25    1    1    2    0    0  0.26625409261E+03 -0.27669388025E+02  0.13902133862E+03  0.32650998370E+03  0.12500000000E+03 0.  0.
</event>
<event>
 5    0  0.6587872E-005  0.2850759E+03  0.7546771E-02  0.1092948E+00
         21   -1    0    0  502  501  0.00000000000E+00  0.00000000000E+00  0.21457836136E+03  0.21457836136E+03  0.00000000000E+00 0.  1.
         21   -1    0    0  501  502 -0.00000000000E+00 -0.00000000000E+00 -0.37873468989E+03  0.37873468989E+03  0.00000000000E+00 0.  1.
         25    1    1    2    0    0 -0.69185409376E+02 -0.45956031641E+02 -0.12862568033E+03  0.19765662993E+03  0.12500000000E+03 0.  0.
         25    1    1    2    0    0  0.13420690114E+03  0.26494995920E+02  0.89946741117E+02  0.20598275015E+03  0.12500000000E+03 0.  0.
         25    1    1    2    0    0 -0.65021491768E+02  0.19461035721E+02 -0.12547738932E+03  0.18967367117E+03  0.12500000000E+03 0.  0.
</event>
<event>
 5    0  0.5771525E-005  0.3491086E+03  0.7546771E-02  0.1062982E+00
         21   -1    0    0  502  501  0.00000000000E+00  0.00000000000E+00  0.40685093745E+03  0.40685093745E+03  0.00000000000E+00 0. -1.
         21   -1    0    0  501  502 -0.00000000000E+00 -0.00000000000E+00 -0.29956127100E+03  0.29956127100E+03  0.00000000000E+00 0. -1.
         25    1    1    2    0    0 -0.19664104233E+03  0.68227786792E+02  0.89051474718E+02  0.25860760926E+03  0.12500000000E+03 0.  0.
         25    1    1    2    0    0  0.77583345435E+02 -0.13591672553E+03  0.12279101883E+03  0.23493651498E+03  0.12500000000E+03 0.  0.
         25    1    1    2    0    0  0.11905769690E+03  0.67688938742E+02 -0.10455282710E+03  0.21286808420E+03  0.12500000000E+03 0.  0.
</event>
<event>
 5    0  0.5771525E-005  0.2817847E+03  0.7546771E-02  0.1094718E+00
         21   -1    0    0  502  501  0.00000000000E+00  0.00000000000E+00  0.13497215765E+04  0.13497215765E+04  0.00000000000E+00 0. -1.
         21   -1    0    0  501  502 -0.00000000000E+00 -0.00000000000E+00 -0.58828875748E+02  0.58828875748E+02  0.00000000000E+00 0. -1.
         25    1    1    2    0    0 -0.53510341791E+02 -0.29327188628E+02  0.65936396647E+03  0.67387630983E+03  0.12500000000E+03 0.  0.
         25    1    1    2    0    0  0.13079521152E+03 -0.27464983845E+02  0.48937263998E+03  0.52246750469E+03  0.12500000000E+03 0.  0.
         25    1    1    2    0    0 -0.77284869726E+02  0.56792172473E+02  0.14215609426E+03  0.21220663768E+03  0.12500000000E+03 0.  0.
</event>
<event>
 5    0  0.7657007E-005  0.5322194E+03  0.7546771E-02  0.1005695E+00
         21   -1    0    0  502  501  0.00000000000E+00  0.00000000000E+00  0.39508075019E+03  0.39508075019E+03  0.00000000000E+00 0.  1.
         21   -1    0    0  501  502 -0.00000000000E+00 -0.00000000000E+00 -0.71696101517E+03  0.71696101517E+03  0.00000000000E+00 0.  1.
         25    1    1    2    0    0 -0.38241435863E+02 -0.27838279179E+03 -0.31865804396E+03  0.44286265948E+03  0.12500000000E+03 0.  0.
         25    1    1    2    0    0  0.27002979184E+03  0.95170233885E+02 -0.10978424831E+03  0.33113598880E+03  0.12500000000E+03 0.  0.
         25    1    1    2    0    0 -0.23178835598E+03  0.18321255790E+03  0.10656202730E+03  0.33804311708E+03  0.12500000000E+03 0.  0.
</event>
<event>
 5    0  0.5771525E-005  0.3320519E+03  0.7546771E-02  0.1070233E+00
         21   -1    0    0  502  501  0.00000000000E+00  0.00000000000E+00  0.37862342092E+03  0.37862342092E+03  0.00000000000E+00 0. -1.
         21   -1    0    0  501  502 -0.00000000000E+00 -0.00000000000E+00 -0.29120880573E+03  0.29120880573E+03  0.00000000000E+00 0. -1.
         25    1    1    2    0    0 -0.16497347431E+03  0.13483964092E+02  0.68949381830E+01  0.20753458672E+03  0.12500000000E+03 0.  0.
         25    1    1    2    0    0 -0.46723189111E+02 -0.22521807574E+02 -0.90390072531E+02  0.16274413485E+03  0.12500000000E+03 0.  0.
         25    1    1    2    0    0  0.21169666342E+03  0.90378434821E+01  0.17090974954E+03  0.29955350508E+03  0.12500000000E+03 0.  0.
</event>
<event>
 5    0  0.5771525E-005  0.3927785E+03  0.7546771E-02  0.1046309E+00
         21   -1    0    0  502  501  0.00000000000E+00  0.00000000000E+00  0.18159746786E+04  0.18159746786E+04  0.00000000000E+00 0. -1.
         21   -1    0    0  501  502 -0.00000000000E+00 -0.00000000000E+00 -0.84954354104E+02  0.84954354104E+02  0.00000000000E+00 0. -1.
         25    1    1    2    0    0  0.13809295856E+03 -0.63829991030E+02  0.50146622200E+03  0.53873676761E+03  0.12500000000E+03 0.  0.
         25    1    1    2    0    0 -0.19617939698E+03  0.22143165792E+03  0.43620924684E+03  0.54168426409E+03  0.12500000000E+03 0.  0.
         25    1    1    2    0    0  0.58086438424E+02 -0.15760166689E+03  0.79334485566E+03  0.82050800102E+03  0.12500000000E+03 0.  0.
</event>
<event>
 5    0  0.5771525E-005  0.3575114E+03  0.7546771E-02  0.1059574E+00
         21   -1    0    0  502  501  0.00000000000E+00  0.00000000000E+00  0.17459562381E+03  0.17459562381E+03  0.00000000000E+00 0.  1.
         21   -1    0    0  501  502 -0.00000000000E+00 -0.00000000000E+00 -0.73205960773E+03  0.73205960773E+03  0.00000000000E+00 0.  1.
         25    1    1    2    0    0  0.97680258676E+02 -0.19739758438E+02 -0.48292163056E+02  0.16699767666E+03  0.12500000000E+03 0.  0.
         25    1    1    2    0    0  0.37479414326E+02 -0.69665561749E+01 -0.53600350244E+03  0.55170462571E+03  0.12500000000E+03 0.  0.
         25    1    1    2    0    0 -0.13515967300E+03  0.26706314613E+02  0.26831681576E+02  0.18795292917E+03  0.12500000000E+03 0.  0.
</event>
<event>
 5    0  0.5771525E-005  0.3352867E+03  0.7546771E-02  0.1068821E+00
         21   -1    0    0  502  501  0.00000000000E+00  0.00000000000E+00  0.16484682449E+03  0.16484682449E+03  0.00000000000E+00 0. -1.
         21   -1    0    0  501  502 -0.00000000000E+00 -0.00000000000E+00 -0.68194923154E+03  0.68194923154E+03  0.00000000000E+00 0. -1.
         25    1    1    2    0    0  0.21490373785E+03 -0.42221965631E+02 -0.16854596847E+03  0.30331345900E+03  0.12500000000E+03 0.  0.
         25    1    1    2    0    0 -0.96448352253E+02  0.11093604167E+03 -0.62951288895E+02  0.20297032977E+03  0.12500000000E+03 0.  0.
         25    1    1    2    0    0 -0.11845538560E+03 -0.68714076037E+02 -0.28560514969E+03  0.34051226726E+03  0.12500000000E+03 0.  0.
</event>
<event>
 5    0  0.5771525E-005  0.3852807E+03  0.7546771E-02  0.1048999E+00
         21   -1    0    0  502  501  0.00000000000E+00  0.00000000000E+00  0.15078904624E+03  0.15078904624E+03  0.00000000000E+00 0.  1.
         21   -1    0    0  501  502 -0.00000000000E+00 -0.00000000000E+00 -0.98442985228E+03  0.98442985228E+03  0.00000000000E+00 0.  1.
         25    1    1    2    0    0 -0.14644993549E+03  0.18793808151E+03 -0.30086341124E+03  0.40362370880E+03  0.12500000000E+03 0.  0.
         25    1    1    2    0    0 -0.32312409122E+01  0.60930849353E+02 -0.37604177588E+02  0.14409053922E+03  0.12500000000E+03 0.  0.
         25    1    1    2    0    0  0.14968117641E+03 -0.24886893086E+03 -0.49517321721E+03  0.58750465050E+03  0.12500000000E+03 0.  0.
</event>
<event>
 5    0  0.5771525E-005  0.4593519E+03  0.7546771E-02  0.1024969E+00
         21   -1    0    0  502  501  0.00000000000E+00  0.00000000000E+00  0.11869133762E+04  0.11869133762E+04  0.00000000000E+00 0.  1.
         21   -1    0    0  501  502 -0.00000000000E+00 -0.00000000000E+00 -0.17777552819E+03  0.17777552819E+03  0.00000000000E+00 0.  1.
         25    1    1    2    0    0 -0.24583539490E+03  0.20311881328E+03  0.88411040251E+02  0.35374256987E+03  0.12500000000E+03 0.  0.
         25    1    1    2    0    0  0.72409198954E+02 -0.73883941285E+02  0.44429968315E+03  0.47300014516E+03  0.12500000000E+03 0.  0.
         25    1    1    2    0    0  0.17342619595E+03 -0.12923487200E+03  0.47642712460E+03  0.53794618935E+03  0.12500000000E+03 0.  0.
</event>
<event>
 5    0  0.5771525E-005  0.2459820E+03  0.7546771E-02  0.1115871E+00
         21   -1    0    0  502  501  0.00000000000E+00  0.00000000000E+00  0.59470084141E+03  0.59470084141E+03  0.00000000000E+00 0. -1.
         21   -1    0    0  501  502 -0.00000000000E+00 -0.00000000000E+00 -0.10174386496E+03  0.10174386496E+03  0.00000000000E+00 0. -1.
         25    1    1    2    0    0  0.12963626035E+03 -0.64093355025E+01  0.22823053707E+03  0.29079342776E+03  0.12500000000E+03 0.  0.
         25    1    1    2    0    0 -0.49676275195E+02 -0.56103269773E+02  0.11307280743E+03  0.18446075186E+03  0.12500000000E+03 0.  0.
         25    1    1    2    0    0 -0.79959985151E+02  0.62512605276E+02  0.15165363195E+03  0.22119052676E+03  0.12500000000E+03 0.  0.
</event>
<event>
 5    0  0.5895081E-005  0.2941728E+03  0.7546771E-02  0.1088190E+00
         21   -1    0    0  502  501  0.00000000000E+00  0.00000000000E+00  0.24379232942E+03  0.24379232942E+03  0.00000000000E+00 0.  1.
         21   -1    0    0  501  502 -0.00000000000E+00 -0.00000000000E+00 -0.35496452636E+03  0.35496452636E+03  0.00000000000E+00 0.  1.
         25    1    1    2    0    0 -0.14938034632E+02 -0.68402978590E+02  0.12029644905E+03  0.18707845417E+03  0.12500000000E+03 0.  0.
         25    1    1    2    0    0  0.23051175437E+02  0.14427954423E+03 -0.11083253246E+03  0.22193871637E+03  0.12500000000E+03 0.  0.
         25    1    1    2    0    0 -0.81131408043E+01 -0.75876565642E+02 -0.12063611354E+03  0.18973968524E+03  0.12500000000E+03 0.  0.
</event>
<event>
 5    0  0.5771525E-005  0.3323588E+03  0.7546771E-02  0.1070098E+00
         21   -1    0    0  502  501  0.00000000000E+00  0.00000000000E+00  0.29038005920E+03  0.29038005920E+03  0.00000000000E+00 0.  1.
         21   -1    0    0  501  502 -0.00000000000E+00 -0.00000000000E+00 -0.38040615090E+03  0.38040615090E+03  0.00000000000E+00 0.  1.
         25    1    1    2    0    0 -0.19840719998E+02 -0.17493552129E+03  0.37487118177E+02  0.21914920673E+03  0.12500000000E+03 0.  0.
         25    1    1    2    0    0 -0.55767059802E+02  0.50332190898E+02  0.82113349931E+02  0.16736456207E+03  0.12500000000E+03 0.  0.
         25    1    1    2    0    0  0.75607779800E+02  0.12460333039E+03 -0.20962655981E+03  0.28427244131E+03  0.12500000000E+03 0.  0.
</event>
<event>
 5    0  0.5771525E-005  0.4465036E+03  0.7546771E-02  0.1028770E+00
         21   -1    0    0  502  501  0.00000000000E+00  0.00000000000E+00  0.40238215456E+03  0.40238215456E+03  0.00000000000E+00 0.  1.
         21   -1    0    0  501  502 -0.00000000000E+00 -0.00000000000E+00 -0.49546300484E+03  0.49546300484E+03  0.00000000000E+00 0.  1.
         25    1    1    2    0    0 -0.58402978879E+02 -0.25364217957E+02  0.56310640821E+02  0.15116262688E+03  0.12500000000E+03 0.  0.
         25    1    1    2    0    0 -0.54709379181E+02  0.30574361068E+03  0.83540248522E+02  0.34507425978E+03  0.12500000000E+03 0.  0.
         25    1    1    2    0    0  0.11311235806E+03 -0.28037939272E+03 -0.23293173963E+03  0.40160827274E+03  0.12500000000E+03 0.  0.
</event>
<event>
 5    0  0.5771525E-005  0.4095245E+03  0.7546771E-02  0.1040531E+00
         21   -1    0    0  502  501  0.00000000000E+00  0.00000000000E+00  0.21547152303E+03  0.21547152303E+03  0.00000000000E+00 0. -1.
         21   -1    0    0  501  502 -0.00000000000E+00 -0.00000000000E+00 -0.77834111351E+03  0.77834111351E+03  0.00000000000E+00 0. -1.
         25    1    1    2    0    0 -0.15259950920E+02 -0.25389606759E+02 -0.12512606252E+03  0.17932938899E+03  0.12500000000E+03 0.  0.
         25    1    1    2    0    0 -0.26065054914E+03  0.38788257357E+02 -0.12132764349E+02  0.29191684030E+03  0.12500000000E+03 0.  0.
         25    1    1    2    0    0  0.27591050006E+03 -0.13398650598E+02 -0.42561076362E+03  0.52256640725E+03  0.12500000000E+03 0.  0.
</event>
<event>
 5    0  0.5771525E-005  0.4497829E+03  0.7546771E-02  0.1027787E+00
         21   -1    0    0  502  501  0.00000000000E+00  0.00000000000E+00  0.11250133290E+04  0.11250133290E+04  0.00000000000E+00 0.  1.
         21   -1    0    0  501  502 -0.00000000000E+00 -0.00000000000E+00 -0.17982425993E+03  0.17982425993E+03  0.00000000000E+00 0.  1.
         25    1    1    2    0    0 -0.21339398221E+03 -0.18388199102E+03  0.67028819599E+03  0.73774036350E+03  0.12500000000E+03 0.  0.
         25    1    1    2    0    0 -0.85502439463E+01 -0.62259387432E+02  0.10057563610E+03  0.17230727370E+03  0.12500000000E+03 0.  0.
         25    1    1    2    0    0  0.22194422616E+03  0.24614137845E+03  0.17432523695E+03  0.39478995168E+03  0.12500000000E+03 0.  0.
</event>
<event>
 5    0  0.5771525E-005  0.3806009E+03  0.7546771E-02  0.1050712E+00
         21   -1    0    0  502  501  0.00000000000E+00  0.00000000000E+00  0.13411340051E+03  0.13411340051E+03  0.00000000000E+00 0.  1.
         21   -1    0    0  501  502 -0.00000000000E+00 -0.00000000000E+00 -0.10801084840E+04  0.10801084840E+04  0.00000000000E+00 0.  1.
         25    1    1    2    0    0  0.12876246933E+03  0.74379868698E+02 -0.27991020492E+03  0.34071522008E+03  0.12500000000E+03 0.  0.
         25    1    1    2    0    0  0.69116254833E+02 -0.20206752119E+03 -0.50404157474E+03  0.56150801318E+03  0.12500000000E+03 0.  0.
         25    1    1    2    0    0 -0.19787872416E+03  0.12768765249E+03 -0.16204330384E+03  0.31199865127E+03  0.12500000000E+03 0.  0.
</event>
<event>
 5    0  0.5771525E-005  0.3844696E+03  0.7546771E-02  0.1049294E+00
         21   -1    0    0  502  501  0.00000000000E+00  0.00000000000E+00  0.34072953775E+03  0.34072953775E+03  0.00000000000E+00 0. -1.
         21   -1    0    0  501  502 -0.00000000000E+00 -0.00000000000E+00 -0.43382468096E+03  0.43382468096E+03  0.00000000000E+00 0. -1.
         25    1    1    2    0    0 -0.44845790907E+02  0.27702847225E+01  0.31448021736E+02  0.13650200552E+03  0.12500000000E+03 0.  0.
         25    1    1    2    0    0 -0.72730368504E+02 -0.26741293992E+03 -0.10648541279E+03  0.32212347023E+03  0.12500000000E+03 0.  0.
         25    1    1    2    0    0  0.11757615941E+03  0.26464265519E+03 -0.18057752150E+02  0.31592874295E+03  0.12500000000E+03 0.  0.
</event>
<event>
 5    0  0.6960649E-005  0.3602701E+03  0.7546771E-02  0.1058477E+00
         21   -1    0    0  502  501  0.00000000000E+00  0.00000000000E+00  0.22065579593E+03  0.22065579593E+03  0.00000000000E+00 0.  1.
         21   -1    0    0  501  502 -0.00000000000E+00 -0.00000000000E+00 -0.58822183626E+03  0.58822183626E+03  0.00000000000E+00 0.  1.
         25    1    1    2    0    0 -0.18342483491E+03  0.11024709036E+03 -0.73392730255E+02  0.25847743392E+03  0.12500000000E+03 0.  0.
         25    1    1    2    0    0 -0.38342843343E+02 -0.15821607220E+03 -0.11319920385E+03  0.23439615801E+03  0.12500000000E+03 0.  0.
         25    1    1    2    0    0  0.22176767825E+03  0.47968981844E+02 -0.18097410621E+03  0.31600404025E+03  0.12500000000E+03 0.  0.
</event>
<event>
 5    0  0.5771525E-005  0.2562758E+03  0.7546771E-02  0.1109402E+00
         21   -1    0    0  502  501  0.00000000000E+00  0.00000000000E+00  0.86538196683E+03  0.86538196683E+03  0.00000000000E+00 0. -1.
         21   -1    0    0  501  502 -0.00000000000E+00 -0.00000000000E+00 -0.75893978894E+02  0.75893978894E+02  0.00000000000E+00 0. -1.
         25    1    1    2    0    0 -0.59646655170E+02  0.34642979501E+02  0.18056468079E+03  0.23018788728E+03  0.12500000000E+03 0.  0.
         25    1    1    2    0    0  0.16056157629E+03 -0.17472478544E+02  0.30852084589E+03  0.36999381027E+03  0.12500000000E+03 0.  0.
         25    1    1    2    0    0 -0.10091492112E+03 -0.17170500957E+02  0.30040246126E+03  0.34109424818E+03  0.12500000000E+03 0.  0.
</event>
<event>
 5    0  0.5771525E-005  0.3038918E+03  0.7546771E-02  0.1083311E+00
         21   -1    0    0  502  501  0.00000000000E+00  0.00000000000E+00  0.16990536149E+03  0.16990536149E+03  0.00000000000E+00 0. -1.
         21   -1    0    0  501  502 -0.00000000000E+00 -0.00000000000E+00 -0.54353910819E+03  0.54353910819E+03  0.00000000000E+00 0. -1.
         25    1    1    2    0    0 -0.17465385853E+03 -0.50672266449E+02 -0.12771617807E+03  0.25496680377E+03  0.12500000000E+03 0.  0.
         25    1    1    2    0    0  0.15447857308E+03  0.91206778152E+02 -0.54359520671E+02  0.22530482331E+03  0.12500000000E+03 0.  0.
         25    1    1    2    0    0  0.20175285451E+02 -0.40534511703E+02 -0.19155804796E+03  0.23317284259E+03  0.12500000000E+03 0.  0.
</event>
<event>
 5    0  0.5771525E-005  0.2540841E+03  0.7546771E-02  0.1110751E+00
         21   -1    0    0  502  501  0.00000000000E+00  0.00000000000E+00  0.99021859911E+02  0.99021859911E+02  0.00000000000E+00 0.  1.
         21   -1    0    0  501  502 -0.00000000000E+00 -0.00000000000E+00 -0.65196454674E+03  0.65196454674E+03  0.00000000000E+00 0.  1.
         25    1    1    2    0    0  0.32250437744E+02 -0.52706879781E+02 -0.17159862833E+03  0.22110901192E+03  0.12500000000E+03 0.  0.
         25    1    1    2    0    0  0.54948261880E+02  0.39931335581E+02 -0.34426755185E+03  0.37250365139E+03  0.12500000000E+03 0.  0.
         25    1    1    2    0    0 -0.87198699624E+02  0.12775544200E+02 -0.37076506657E+02  0.15737374334E+03  0.12500000000E+03 0.  0.
</event>
<event>
 5    0  0.5771525E-005  0.2478253E+03  0.7546771E-02  0.1114687E+00
         21   -1    0    0  502  501  0.00000000000E+00  0.00000000000E+00  0.73332804362E+03  0.73332804362E+03  0.00000000000E+00 0.  1.
         21   -1    0    0  501  502 -0.00000000000E+00 -0.00000000000E+00 -0.83751588128E+02  0.83751588128E+02  0.00000000000E+00 0.  1.
         25    1    1    2    0    0  0.62680294990E+02 -0.36574793376E+02  0.39265415793E+03  0.41841226396E+03  0.12500000000E+03 0.  0.
         25    1    1    2    0    0 -0.68099401716E+02  0.73425638572E+02  0.20033005809E+03  0.25648778741E+03  0.12500000000E+03 0.  0.
         25    1    1    2    0    0  0.54191067262E+01 -0.36850845195E+02  0.56592239466E+02  0.14217958038E+03  0.12500000000E+03 0.  0.
</event>
<event>
 5    0  0.5771525E-005  0.2740478E+03  0.7546771E-02  0.1098985E+00
         21   -1    0    0  502  501  0.00000000000E+00  0.00000000000E+00  0.30232558177E+03  0.30232558177E+03  0.00000000000E+00 0.  1.
         21   -1    0    0  501  502 -0.00000000000E+00 -0.00000000000E+00 -0.24841494449E+03  0.24841494449E+03  0.00000000000E+00 0.  1.
         25    1    1    2    0    0  0.11108384916E+02  0.32343165147E+02 -0.58038600126E+02  0.14199632267E+03  0.12500000000E+03 0.  0.
         25    1    1    2    0    0  0.18863333046E+02 -0.16534884324E+03  0.60561345767E+02  0.21676886745E+03  0.12500000000E+03 0.  0.
         25    1    1    2    0    0 -0.29971717962E+02  0.13300567809E+03  0.51387891637E+02  0.19197533615E+03  0.12500000000E+03 0.  0.
</event>
<event>
 5    0  0.6128574E-005  0.2933287E+03  0.7546771E-02  0.1088624E+00
         21   -1    0    0  502  501  0.00000000000E+00  0.00000000000E+00  0.26345563666E+03  0.26345563666E+03  0.00000000000E+00 0.  1.
         21   -1    0    0  501  502 -0.00000000000E+00 -0.00000000000E+00 -0.32658904208E+03  0.32658904208E+03  0.00000000000E+00 0.  1.
         25    1    1    2    0    0 -0.16997549865E+03 -0.93973475562E+02 -0.10285280475E+03  0.25283667395E+03  0.12500000000E+03 0.  0.
         25    1    1    2    0    0  0.13382853482E+03  0.19446830091E+02  0.33120110737E+02  0.18711012177E+03  0.12500000000E+03 0.  0.
         25    1    1    2    0    0  0.36146963832E+02  0.74526645470E+02  0.65992885899E+01  0.15009788303E+03  0.12500000000E+03 0.  0.
</event>
<event>
 5    0  0.5771525E-005  0.2296240E+03  0.7546771E-02  0.1126905E+00
         21   -1    0    0  502  501  0.00000000000E+00  0.00000000000E+00  0.50890766945E+02  0.50890766945E+02  0.00000000000E+00 0. -1.
         21   -1    0    0  501  502 -0.00000000000E+00 -0.00000000000E+00 -0.10360858520E+04  0.10360858520E+04  0.00000000000E+00 0. -1.
         25    1    1    2    0    0  0.85852629151E+02 -0.34566929974E+02 -0.26890673808E+03  0.31064671311E+03  0.12500000000E+03 0.  0.
         25    1    1    2    0    0 -0.52363138964E+02  0.27335534348E+02 -0.54064610291E+03  0.55804331225E+03  0.12500000000E+03 0.  0.
         25    1    1    2    0    0 -0.33489490187E+02  0.72313956260E+01 -0.17564224404E+03  0.21828659356E+03  0.12500000000E+03 0.  0.
</event>
<event>
 5    0  0.5771525E-005  0.3974172E+03  0.7546771E-02  0.1044678E+00
         21   -1    0    0  502  501  0.00000000000E+00  0.00000000000E+00  0.84385423944E+03  0.84385423944E+03  0.00000000000E+00 0. -1.
         21   -1    0    0  501  502 -0.00000000000E+00 -0.00000000000E+00 -0.18716555178E+03  0.18716555178E+03  0.00000000000E+00 0. -1.
         25    1    1    2    0    0 -0.16403727244E+03  0.21487761502E+03  0.52296564821E+03  0.60182944876E+03  0.12500000000E+03 0.  0.
         25    1    1    2    0    0  0.13468204892E+03 -0.13273880921E+03  0.15596236860E+03  0.27515106067E+03  0.12500000000E+03 0.  0.
         25    1    1    2    0    0  0.29355223527E+02 -0.82138805817E+02 -0.22239329162E+02  0.15403928178E+03  0.12500000000E+03 0.  0.
</event>
<event>
 5    0  0.5771525E-005  0.3527342E+03  0.7546771E-02  0.1061498E+00
         21   -1    0    0  502  501  0.00000000000E+00  0.00000000000E+00  0.17543179771E+03  0.17543179771E+03  0.00000000000E+00 0. -1.
         21   -1    0    0  501  502 -0.00000000000E+00 -0.00000000000E+00 -0.70922967941E+03  0.70922967941E+03  0.00000000000E+00 0. -1.
         25    1    1    2    0    0  0.66861479086E+02  0.23718737183E+03 -0.38434595920E+03  0.47336573925E+03  0.12500000000E+03 0.  0.
         25    1    1    2    0    0  0.30633126640E+02 -0.15834976963E+03 -0.58613886689E+02  0.21230550088E+03  0.12500000000E+03 0.  0.
         25    1    1    2    0    0 -0.97494605726E+02 -0.78837602199E+02 -0.90838035813E+02  0.19899023699E+03  0.12500000000E+03 0.  0.
</event>
<event>
 5    0  0.5771525E-005  0.2704411E+03  0.7546771E-02  0.1101027E+00
         21   -1    0    0  502  501  0.00000000000E+00  0.00000000000E+00  0.86865386901E+02  0.86865386901E+02  0.00000000000E+00 0. -1.
         21   -1    0    0  501  502 -0.00000000000E+00 -0.00000000000E+00 -0.84197377587E+03  0.84197377587E+03  0.00000000000E+00 0. -1.
         25    1    1    2    0    0  0.10677883966E+03  0.69896396912E+02 -0.11333348025E+03  0.21155780450E+03  0.12500000000E+03 0.  0.
         25    1    1    2    0    0 -0.53612110738E+01  0.26965237209E+02 -0.32052095428E+03  0.34512975638E+03  0.12500000000E+03 0.  0.
         25    1    1    2    0    0 -0.10141762858E+03 -0.96861634122E+02 -0.32125395444E+03  0.37215160190E+03  0.12500000000E+03 0.  0.
</event>
<event>
 5    0  0.5771525E-005  0.2697495E+03  0.7546771E-02  0.1101423E+00
         21   -1    0    0  502  501  0.00000000000E+00  0.00000000000E+00  0.25279212711E+03  0.25279212711E+03  0.00000000000E+00 0. -1.
         21   -1    0    0  501  502 -0.00000000000E+00 -0.00000000000E+00 -0.28784431777E+03  0.28784431777E+03  0.00000000000E+00 0. -1.
         25    1    1    2    0    0  0.46574424453E+02 -0.68592721484E+02  0.10257234958E+03  0.18171468117E+03  0.12500000000E+03 0.  0.
         25    1    1    2    0    0  0.55312177142E+02 -0.15830260750E+02 -0.12778947950E+02  0.13819672791E+03  0.12500000000E+03 0.  0.
         25    1    1    2    0    0 -0.10188660159E+03  0.84422982234E+02 -0.12484559229E+03  0.22072503580E+03  0.12500000000E+03 0.  0.
</event>
<event>
 5    0  0.5771525E-005  0.2793491E+03  0.7546771E-02  0.1096045E+00
         21   -1    0    0  502  501  0.00000000000E+00  0.00000000000E+00  0.14708517277E+04  0.14708517277E+04  0.00000000000E+00 0. -1.
         21   -1    0    0  501  502 -0.00000000000E+00 -0.00000000000E+00 -0.53054932191E+02  0.53054932191E+02  0.00000000000E+00 0. -1.
         25    1    1    2    0    0 -0.33636103687E+02  0.14774405814E+03  0.52495671171E+03  0.56050356230E+03  0.12500000000E+03 0.  0.
         25    1    1    2    0    0  0.12266740002E+03 -0.92926120187E+02  0.51949530660E+03  0.55604220022E+03  0.12500000000E+03 0.  0.
         25    1    1    2    0    0 -0.89031296333E+02 -0.54817937949E+02  0.37334477722E+03  0.40736089739E+03  0.12500000000E+03 0.  0.
</event>
<event>
 5    0  0.5771525E-005  0.3829196E+03  0.7546771E-02  0.1049860E+00
         21   -1    0    0  502  501  0.00000000000E+00  0.00000000000E+00  0.43609360218E+03  0.43609360218E+03  0.00000000000E+00 0. -1.
         21   -1    0    0  501  502 -0.00000000000E+00 -0.00000000000E+00 -0.33622929413E+03  0.33622929413E+03  0.00000000000E+00 0. -1.
         25    1    1    2    0    0  0.44363796715E+02  0.26540598317E+03  0.71843982921E+02  0.30527862723E+03  0.12500000000E+03 0.  0.
         25    1    1    2    0    0 -0.75348173562E+02 -0.25559110600E+03  0.10983631531E+03  0.31415470216E+03  0.12500000000E+03 0.  0.
         25    1    1    2    0    0  0.30984376847E+02 -0.98148771703E+01 -0.81815990191E+02  0.15288956692E+03  0.12500000000E+03 0.  0.
</event>
<event>
 5    0  0.5771525E-005  0.2275883E+03  0.7546771E-02  0.1128349E+00
         21   -1    0    0  502  501  0.00000000000E+00  0.00000000000E+00  0.43568226336E+03  0.43568226336E+03  0.00000000000E+00 0. -1.
         21   -1    0    0  501  502 -0.00000000000E+00 -0.00000000000E+00 -0.11888581219E+03  0.11888581219E+03  0.00000000000E+00 0. -1.
         25    1    1    2    0    0 -0.85320005600E+02  0.56639977897E+02  0.13964795512E+03  0.21357467505E+03  0.12500000000E+03 0.  0.
         25    1    1    2    0    0  0.79357099931E+02 -0.70677858081E+02  0.83720894109E+02  0.18419309716E+03  0.12500000000E+03 0.  0.
         25    1    1    2    0    0  0.59629056686E+01  0.14037880185E+02  0.93427601931E+02  0.15680030334E+03  0.12500000000E+03 0.  0.
</event>
<event>
 5    0  0.5771525E-005  0.2465601E+03  0.7546771E-02  0.1115498E+00
         21   -1    0    0  502  501  0.00000000000E+00  0.00000000000E+00  0.16873746411E+03  0.16873746411E+03  0.00000000000E+00 0. -1.
         21   -1    0    0  501  502 -0.00000000000E+00 -0.00000000000E+00 -0.36027505882E+03  0.36027505882E+03  0.00000000000E+00 0. -1.
         25    1    1    2    0    0 -0.58847105132E+02  0.17710013347E+01 -0.18502099801E+03  0.23091965688E+03  0.12500000000E+03 0.  0.
         25    1    1    2    0    0  0.83169320414E+01  0.59319730092E+02 -0.43949157069E+02  0.14541158875E+03  0.12500000000E+03 0.  0.
         25    1    1    2    0    0  0.50530173091E+02 -0.61090731426E+02  0.37432560373E+02  0.15268127729E+03  0.12500000000E+03 0.  0.
</event>
<event>
 5    0  0.5771525E-005  0.3260126E+03  0.7546771E-02  0.1072915E+00
         21   -1    0    0  502  501  0.00000000000E+00  0.00000000000E+00  0.33089344506E+03  0.33089344506E+03  0.00000000000E+00 0.  1.
         21   -1    0    0  501  502 -0.00000000000E+00 -0.00000000000E+00 -0.32120384261E+03  0.32120384261E+03  0.00000000000E+00 0. -1.
         25    1    1    2    0    0  0.11770231939E+03  0.60252264757E+02  0.19257213833E+02  0.18297544011E+03  0.12500000000E+03 0.  0.
         25    1    1    2    0    0  0.97449387900E+02  0.14572314088E+02  0.99082137437E+02  0.18748601414E+03  0.12500000000E+03 0.  0.
         25    1    1    2    0    0 -0.21515170729E+03 -0.74824578846E+02 -0.10864974882E+03  0.28163583342E+03  0.12500000000E+03 0.  0.
</event>
<event>
 5    0  0.7701667E-005  0.3415245E+03  0.7546771E-02  0.1066148E+00
         21   -1    0    0  502  501  0.00000000000E+00  0.00000000000E+00  0.22605040845E+03  0.22605040845E+03  0.00000000000E+00 0. -1.
         21   -1    0    0  501  502 -0.00000000000E+00 -0.00000000000E+00 -0.51598658013E+03  0.51598658013E+03  0.00000000000E+00 0. -1.
         25    1    1    2    0    0 -0.42896133671E+02 -0.15283550734E+03 -0.20439429629E+02  0.20308013411E+03  0.12500000000E+03 0.  0.
         25    1    1    2    0    0 -0.34130576679E+02  0.14899000836E+03  0.35330350217E+02  0.20058951245E+03  0.12500000000E+03 0.  0.
         25    1    1    2    0    0  0.77026710350E+02  0.38454989757E+01 -0.30482709226E+03  0.33836734202E+03  0.12500000000E+03 0.  0.
</event>
<event>
 5    0  0.5880260E-005  0.3249656E+03  0.7546771E-02  0.1073386E+00
         21   -1    0    0  502  501  0.00000000000E+00  0.00000000000E+00  0.43861506969E+03  0.43861506969E+03  0.00000000000E+00 0. -1.
         21   -1    0    0  501  502 -0.00000000000E+00 -0.00000000000E+00 -0.24076376711E+03  0.24076376711E+03  0.00000000000E+00 0. -1.
         25    1    1    2    0    0  0.28434280200E+02 -0.84889171221E+02  0.18933995365E+03  0.24390427985E+03  0.12500000000E+03 0.  0.
         25    1    1    2    0    0 -0.12349476595E+03 -0.24220696864E+02 -0.11168792375E+03  0.20961104858E+03  0.12500000000E+03 0.  0.
         25    1    1    2    0    0  0.95060485746E+02  0.10910986808E+03  0.12019927268E+03  0.22586350838E+03  0.12500000000E+03 0.  0.
</event>
<event>
 5    0  0.5922652E-005  0.3604113E+03  0.7546771E-02  0.1058421E+00
         21   -1    0    0  502  501  0.00000000000E+00  0.00000000000E+00  0.33805673025E+03  0.33805673025E+03  0.00000000000E+00 0.  1.
         21   -1    0    0  501  502 -0.00000000000E+00 -0.00000000000E+00 -0.38424403720E+03  0.38424403720E+03  0.00000000000E+00 0.  1.
         25    1    1    2    0    0 -0.66285425264E+02 -0.53230297335E+02 -0.98917997509E+02  0.18065711275E+03  0.12500000000E+03 0.  0.
         25    1    1    2    0    0  0.39722179411E+02 -0.16225517202E+02  0.25811061492E+03  0.28997794482E+03  0.12500000000E+03 0.  0.
         25    1    1    2    0    0  0.26563245853E+02  0.69455814537E+02 -0.20537992436E+03  0.25166570989E+03  0.12500000000E+03 0.  0.
</event>
<event>
 5    0  0.5771525E-005  0.6256213E+03  0.7546771E-02  0.9853631E-01
         21   -1    0    0  502  501  0.00000000000E+00  0.00000000000E+00  0.23012257231E+03  0.23012257231E+03  0.00000000000E+00 0.  1.
         21   -1    0    0  501  502 -0.00000000000E+00 -0.00000000000E+00 -0.17008412006E+04  0.17008412006E+04  0.00000000000E+00 0.  1.
         25    1    1    2    0    0 -0.45622636663E+03 -0.21369244135E+03 -0.56576135672E+03  0.76780067065E+03  0.12500000000E+03 0.  0.
         25    1    1    2    0    0  0.23836073412E+03  0.23399434408E+03 -0.18789798631E+03  0.40311269627E+03  0.12500000000E+03 0.  0.
         25    1    1    2    0    0  0.21786563251E+03 -0.20301902732E+02 -0.71705928528E+03  0.76005040601E+03  0.12500000000E+03 0.  0.
</event>
<event>
 5    0  0.5771525E-005  0.2135858E+03  0.7546771E-02  0.1138757E+00
         21   -1    0    0  502  501  0.00000000000E+00  0.00000000000E+00  0.67600380444E+03  0.67600380444E+03  0.00000000000E+00 0.  1.
         21   -1    0    0  501  502 -0.00000000000E+00 -0.00000000000E+00 -0.67483196892E+02  0.67483196892E+02  0.00000000000E+00 0.  1.
         25    1    1    2    0    0 -0.38855099222E+02 -0.37645700357E+02  0.11085879586E+03  0.17561773860E+03  0.12500000000E+03 0.  0.
         25    1    1    2    0    0  0.17152601351E+01 -0.18908856627E+02  0.28843864195E+03  0.31493227390E+03  0.12500000000E+03 0.  0.
         25    1    1    2    0    0  0.37139839087E+02  0.56554556983E+02  0.20922316974E+03  0.25293698883E+03  0.12500000000E+03 0.  0.
</event>
<event>
 5    0  0.5771525E-005  0.3466295E+03  0.7546771E-02  0.1064007E+00
         21   -1    0    0  502  501  0.00000000000E+00  0.00000000000E+00  0.64389466137E+02  0.64389466137E+02  0.00000000000E+00 0. -1.
         21   -1    0    0  501  502 -0.00000000000E+00 -0.00000000000E+00 -0.18660191728E+04  0.18660191728E+04  0.00000000000E+00 0. -1.
         25    1    1    2    0    0  0.12480568645E+03  0.14041036699E+03 -0.92615817310E+03  0.95324996309E+03  0.12500000000E+03 0.  0.
         25    1    1    2    0    0 -0.18891641060E+03 -0.16979356385E+03 -0.49092925424E+03  0.56670609418E+03  0.12500000000E+03 0.  0.
         25    1    1    2    0    0  0.64110724146E+02  0.29383196859E+02 -0.38454227935E+03  0.41045258169E+03  0.12500000000E+03 0.  0.
</event>
<event>
 5    0  0.7016691E-005  0.3012805E+03  0.7546771E-02  0.1084602E+00
         21   -1    0    0  502  501  0.00000000000E+00  0.00000000000E+00  0.21186247174E+03  0.21186247174E+03  0.00000000000E+00 0.  1.
         21   -1    0    0  501  502 -0.00000000000E+00 -0.00000000000E+00 -0.42843806783E+03  0.42843806783E+03  0.00000000000E+00 0.  1.
         25    1    1    2    0    0 -0.14398457376E+03 -0.16126938107E+03 -0.52453510213E+02  0.25517786245E+03  0.12500000000E+03 0.  0.
         25    1    1    2    0    0  0.56693699147E+02  0.98418490627E+02 -0.27808377550E+02  0.17116857387E+03  0.12500000000E+03 0.  0.
         25    1    1    2    0    0  0.87290874608E+02  0.62850890445E+02 -0.13631370833E+03  0.21395410325E+03  0.12500000000E+03 0.  0.
</event>
<event>
 5    0  0.6046613E-005  0.2644781E+03  0.7546771E-02  0.1104482E+00
         21   -1    0    0  502  501  0.00000000000E+00  0.00000000000E+00  0.47844316218E+03  0.47844316218E+03  0.00000000000E+00 0. -1.
         21   -1    0    0  501  502 -0.00000000000E+00 -0.00000000000E+00 -0.14620059223E+03  0.14620059223E+03  0.00000000000E+00 0. -1.
         25    1    1    2    0    0  0.24827731921E+02  0.16007975382E+01 -0.20858707414E+02  0.12914745255E+03  0.12500000000E+03 0.  0.
         25    1    1    2    0    0 -0.11814534268E+03 -0.17348692072E+02  0.10577836018E+03  0.20266563744E+03  0.12500000000E+03 0.  0.
         25    1    1    2    0    0  0.93317610764E+02  0.15747894534E+02  0.24732291718E+03  0.29283066442E+03  0.12500000000E+03 0.  0.
</event>
<event>
 5    0  0.5771525E-005  0.3505757E+03  0.7546771E-02  0.1062379E+00
         21   -1    0    0  502  501  0.00000000000E+00  0.00000000000E+00  0.34146940175E+03  0.34146940175E+03  0.00000000000E+00 0. -1.
         21   -1    0    0  501  502 -0.00000000000E+00 -0.00000000000E+00 -0.35992485122E+03  0.35992485122E+03  0.00000000000E+00 0. -1.
         25    1    1    2    0    0  0.10669422456E+03  0.37054695968E+02 -0.22563652735E+02  0.16997301690E+03  0.12500000000E+03 0.  0.
         25    1    1    2    0    0 -0.10944870693E+03 -0.17718825002E+03 -0.15257317973E+03  0.28684189123E+03  0.12500000000E+03 0.  0.
         25    1    1    2    0    0  0.27544823692E+01  0.14013355406E+03  0.15668138299E+03  0.24457934483E+03  0.12500000000E+03 0.  0.
</event>
<event>
 5    0  0.5771525E-005  0.3493334E+03  0.7546771E-02  0.1062889E+00
         21   -1    0    0  502  501  0.00000000000E+00  0.00000000000E+00  0.13789826173E+03  0.13789826173E+03  0.00000000000E+00 0. -1.
         21   -1    0    0  501  502 -0.00000000000E+00 -0.00000000000E+00 -0.88495529003E+03  0.88495529003E+03  0.00000000000E+00 0. -1.
         25    1    1    2    0    0  0.18737810572E+03 -0.99566988021E+01 -0.29452168350E+03  0.37091469694E+03  0.12500000000E+03 0.  0.
         25    1    1    2    0    0 -0.22611210808E+03  0.12963624317E+03 -0.24470300197E+03  0.37873051123E+03  0.12500000000E+03 0.  0.
         25    1    1    2    0    0  0.38734002356E+02 -0.11967954437E+03 -0.20783234283E+03  0.27320834359E+03  0.12500000000E+03 0.  0.
</event>
<event>
 5    0  0.5771525E-005  0.2319600E+03  0.7546771E-02  0.1125268E+00
         21   -1    0    0  502  501  0.00000000000E+00  0.00000000000E+00  0.17239347083E+04  0.17239347083E+04  0.00000000000E+00 0.  1.
         21   -1    0    0  501  502 -0.00000000000E+00 -0.00000000000E+00 -0.31210822967E+02  0.31210822967E+02  0.00000000000E+00 0.  1.
         25    1    1    2    0    0 -0.12804722303E+02  0.64693650001E+02  0.52563413368E+03  0.54430273907E+03  0.12500000000E+03 0.  0.
         25    1    1    2    0    0 -0.15380184520E+02 -0.12737183129E+03  0.60741747800E+03  0.63327807957E+03  0.12500000000E+03 0.  0.
         25    1    1    2    0    0  0.28184906822E+02  0.62678181292E+02  0.55967227364E+03  0.57756471262E+03  0.12500000000E+03 0.  0.
</event>
<event>
 5    0  0.6124967E-005  0.3894185E+03  0.7546771E-02  0.1047507E+00
         21   -1    0    0  502  501  0.00000000000E+00  0.00000000000E+00  0.27843418087E+03  0.27843418087E+03  0.00000000000E+00 0. -1.
         21   -1    0    0  501  502 -0.00000000000E+00 -0.00000000000E+00 -0.54464145969E+03  0.54464145969E+03  0.00000000000E+00 0. -1.
         25    1    1    2    0    0  0.25383685470E+03 -0.14691911305E+03 -0.92211092297E+02  0.33188290123E+03  0.12500000000E+03 0.  0.
         25    1    1    2    0    0 -0.15188317449E+03  0.24958402907E+01 -0.19077083236E+03  0.27403145511E+03  0.12500000000E+03 0.  0.
         25    1    1    2    0    0 -0.10195368021E+03  0.14442327276E+03  0.16774645826E+02  0.21716128422E+03  0.12500000000E+03 0.  0.
</event>
