<event>
 6    0  0.6687079E+002  0.1348056E+03  0.7546771E-02  0.1220494E+00
         21   -1    0    0  504  501  0.00000000000E+00  0.00000000000E+00  0.27861240212E+03  0.27861240212E+03  0.00000000000E+00 0.  1.
         21   -1    0    0  506  502 -0.00000000000E+00 -0.00000000000E+00 -0.29857006493E+03  0.29857006493E+03  0.00000000000E+00 0.  1.
         21    1    1    2  503  505 -0.12444377185E+02  0.47495343172E+02 -0.49455497738E+02  0.69688710729E+02  0.00000000000E+00 0.  1.
         21    1    1    2  504  502  0.10148186125E+03 -0.96954493949E+02 -0.97891124281E+02  0.17111812958E+03  0.00000000000E+00 0.  1.
         21    1    1    2  505  501 -0.17754772709E+02  0.27941319543E+02  0.21720236992E+03  0.21971076166E+03  0.00000000000E+00 0.  1.
         21    1    1    2  506  503 -0.71282711353E+02  0.21517831234E+02 -0.89813410715E+02  0.11666486508E+03  0.00000000000E+00 0.  1.
<scales pt_clust_3="49.14404" pt_clust_4="120.88739" pt_clust_5="33.10512" pt_clust_6="49.14404"></scales>
<clustering>
<clus scale="   33.105">  1  5  2 -1</clus>
<clus scale="   49.144">  3  6 -1 -1</clus>
<clus scale="  120.887">  1  4  2 -1</clus>
<clus scale="   33.105">  1  3  2 -1</clus>
</clustering>
</event>
<event>
 6    0  0.6687079E+002  0.1220149E+03  0.7546771E-02  0.1239810E+00
         21   -1    0    0  504  501  0.00000000000E+00  0.00000000000E+00  0.13626902744E+04  0.13626902744E+04  0.00000000000E+00 0. -1.
         21   -1    0    0  503  502 -0.00000000000E+00 -0.00000000000E+00 -0.80578799613E+03  0.80578799613E+03  0.00000000000E+00 0.  1.
         21    1    1    2  503  506  0.75716984605E+02  0.95445777900E+02 -0.78497647809E+03  0.79437461530E+03  0.00000000000E+00 0.  1.
         21    1    1    2  504  502 -0.94981105941E+02 -0.97941070780E+02  0.33962680001E+03  0.36600577470E+03  0.00000000000E+00 0. -1.
         21    1    1    2  505  501 -0.11775505596E+02  0.37679492659E+02  0.77746138755E+03  0.77846298296E+03  0.00000000000E+00 0. -1.
         21    1    1    2  506  505  0.31039626933E+02 -0.35184199779E+02  0.22479056878E+03  0.22963489754E+03  0.00000000000E+00 0. -1.
<scales pt_clust_3="14000.00000" pt_clust_4="122.01487" pt_clust_5="39.47666" pt_clust_6="33.50140"></scales>
<clustering>
<clus scale="   39.477">  1  5  2 -1</clus>
<clus scale="   33.501">  1  6  2 -1</clus>
<clus scale="  122.015">  1  4  2 -1</clus>
<clus scale="   39.477">  1  3  2 -1</clus>
</clustering>
</event>
<event>
 6    0  0.6687079E+002  0.9691570E+02  0.7546771E-02  0.1286919E+00
         21   -1    0    0  505  501  0.00000000000E+00  0.00000000000E+00  0.10247122903E+03  0.10247122903E+03  0.00000000000E+00 0.  1.
         21   -1    0    0  506  502 -0.00000000000E+00 -0.00000000000E+00 -0.76161535470E+03  0.76161535470E+03  0.00000000000E+00 0. -1.
         21    1    1    2  503  502 -0.36625005802E+02  0.61518713693E+02 -0.68225265629E+02  0.98897067978E+02  0.00000000000E+00 0.  1.
         21    1    1    2  504  501 -0.65297560277E+02 -0.16360665396E+02 -0.60846985405E+01  0.67590430585E+02  0.00000000000E+00 0.  1.
         21    1    1    2  505  503  0.13091087145E+03 -0.67072640698E+02 -0.41203387419E+02  0.15275508021E+03  0.00000000000E+00 0.  1.
         21    1    1    2  506  504 -0.28988305376E+02  0.21914592402E+02 -0.54363077408E+03  0.54484400496E+03  0.00000000000E+00 0. -1.
<scales pt_clust_3="14000.00000" pt_clust_4="71.33997" pt_clust_5="96.91570" pt_clust_6="36.33966"></scales>
<clustering>
<clus scale="   36.340">  2  6  1 -1</clus>
<clus scale="   71.340">  1  4  2 -1</clus>
<clus scale="   96.916">  1  5  2 -1</clus>
<clus scale="   71.340">  1  3  2 -1</clus>
</clustering>
</event>
<event>
 6    0  0.6687079E+002  0.1015641E+03  0.7546771E-02  0.1277041E+00
         21   -1    0    0  503  501  0.00000000000E+00  0.00000000000E+00  0.16140776274E+03  0.16140776274E+03  0.00000000000E+00 0.  1.
         21   -1    0    0  505  502 -0.00000000000E+00 -0.00000000000E+00 -0.56448850048E+03  0.56448850048E+03  0.00000000000E+00 0.  1.
         21    1    1    2  503  504 -0.70949486571E+02  0.81461756548E+02  0.90676522516E+02  0.14103928233E+03  0.00000000000E+00 0.  1.
         21    1    1    2  504  502 -0.34522010220E+02 -0.50726447377E+02 -0.29213794475E+01  0.61428626153E+02  0.00000000000E+00 0.  1.
         21    1    1    2  505  506  0.42453517527E+02  0.14598014541E+02 -0.40584517602E+03  0.40832059717E+03  0.00000000000E+00 0.  1.
         21    1    1    2  506  501  0.63017979264E+02 -0.45333323712E+02 -0.84990704800E+02  0.11510775757E+03  0.00000000000E+00 0.  1.
<scales pt_clust_3="101.56409" pt_clust_4="54.28873" pt_clust_5="44.89324" pt_clust_6="14000.00000"></scales>
<clustering>
<clus scale="   44.893">  2  5  1 -1</clus>
<clus scale="   54.289">  2  4  1 -1</clus>
<clus scale="  101.564">  1  3  2 -1</clus>
<clus scale="  101.564">  1  3  2 -1</clus>
</clustering>
</event>
<event>
 6    0  0.6687079E+002  0.8958042E+02  0.7546771E-02  0.1303871E+00
         21   -1    0    0  505  501  0.00000000000E+00  0.00000000000E+00  0.97693264586E+03  0.97693264586E+03  0.00000000000E+00 0.  1.
         21   -1    0    0  506  502 -0.00000000000E+00 -0.00000000000E+00 -0.18805180436E+03  0.18805180436E+03  0.00000000000E+00 0.  1.
         21    1    1    2  503  501 -0.34321027634E+02  0.13482180988E+02  0.19433123048E+03  0.19779870900E+03  0.00000000000E+00 0.  1.
         21    1    1    2  504  502 -0.66617387498E+02  0.15143605644E+02  0.75232493932E+02  0.10162250367E+03  0.00000000000E+00 0.  1.
         21    1    1    2  505  504  0.12631656058E+03 -0.82533751778E+01  0.68505920923E+03  0.69665638002E+03  0.00000000000E+00 0.  1.
         21    1    1    2  506  503 -0.25378145446E+02 -0.20372411454E+02 -0.16574209214E+03  0.16890685753E+03  0.00000000000E+00 0.  1.
<scales pt_clust_3="38.29979" pt_clust_4="89.58042" pt_clust_5="14000.00000" pt_clust_6="32.54359"></scales>
<clustering>
<clus scale="   32.544">  2  6  1 -1</clus>
<clus scale="   38.300">  1  3  2 -1</clus>
<clus scale="   89.580">  2  4  1 -1</clus>
<clus scale="   38.300">  1  3  2 -1</clus>
</clustering>
</event>
<event>
 6    0  0.6687079E+002  0.1214376E+03  0.7546771E-02  0.1240744E+00
         21   -1    0    0  505  501  0.00000000000E+00  0.00000000000E+00  0.41571211030E+03  0.41571211030E+03  0.00000000000E+00 0. -1.
         21   -1    0    0  503  502 -0.00000000000E+00 -0.00000000000E+00 -0.13462564275E+03  0.13462564275E+03  0.00000000000E+00 0. -1.
         21    1    1    2  503  504 -0.54264679808E+02 -0.33171498052E+02  0.20929322221E+00  0.63600688371E+02  0.00000000000E+00 0. -1.
         21    1    1    2  504  501 -0.80097751695E+02 -0.69971227099E+01  0.25449089415E+02  0.84334249892E+02  0.00000000000E+00 0. -1.
         21    1    1    2  505  506  0.10266919102E+03  0.42161154285E+02  0.31550047302E+03  0.33445339614E+03  0.00000000000E+00 0. -1.
         21    1    1    2  506  502  0.31693240479E+02 -0.19925335237E+01 -0.60072388105E+02  0.67949418648E+02  0.00000000000E+00 0. -1.
<scales pt_clust_3="34.89324" pt_clust_4="34.89324" pt_clust_5="114.83679" pt_clust_6="31.75581"></scales>
<clustering>
<clus scale="   31.756">  2  6  1 -1</clus>
<clus scale="   34.893">  3  4 -1 -1</clus>
<clus scale="  114.837">  1  5  2 -1</clus>
<clus scale="  114.837">  1  3  2 -1</clus>
</clustering>
</event>
<event>
 6    0  0.6687079E+002  0.1473305E+03  0.7546771E-02  0.1203792E+00
         21   -1    0    0  506  501  0.00000000000E+00  0.00000000000E+00  0.68029330924E+03  0.68029330924E+03  0.00000000000E+00 0. -1.
         21   -1    0    0  501  502 -0.00000000000E+00 -0.00000000000E+00 -0.24641389607E+03  0.24641389607E+03  0.00000000000E+00 0.  1.
         21    1    1    2  503  502  0.39481371207E+01 -0.14994206116E+03 -0.19705294031E+03  0.24764504998E+03  0.00000000000E+00 0.  1.
         21    1    1    2  504  503 -0.42990415578E+01  0.58645963505E+02  0.81754605797E+02  0.10070574146E+03  0.00000000000E+00 0. -1.
         21    1    1    2  505  504 -0.27361865054E+02  0.38465123870E+02  0.30370290028E+02  0.56130133884E+02  0.00000000000E+00 0.  1.
         21    1    1    2  506  505  0.27712769491E+02  0.52830973788E+02  0.51880745766E+03  0.52222627998E+03  0.00000000000E+00 0. -1.
<scales pt_clust_3="141.82296" pt_clust_4="35.75463" pt_clust_5="35.75463" pt_clust_6="59.65827"></scales>
<clustering>
<clus scale="   35.755">  4  5 -1 -1</clus>
<clus scale="   59.658">  1  6  2 -1</clus>
<clus scale="  141.823">  2  3  1 -1</clus>
<clus scale="   59.658">  1  3  2 -1</clus>
</clustering>
</event>
<event>
 6    0  0.6687079E+002  0.9555378E+02  0.7546771E-02  0.1289934E+00
         21   -1    0    0  505  501  0.00000000000E+00  0.00000000000E+00  0.10829876643E+04  0.10829876643E+04  0.00000000000E+00 0. -1.
         21   -1    0    0  506  502 -0.00000000000E+00 -0.00000000000E+00 -0.11552181954E+03  0.11552181954E+03  0.00000000000E+00 0.  1.
         21    1    1    2  503  501 -0.21809068381E+02  0.10346393310E+03 -0.80921636017E+01  0.10604670682E+03  0.00000000000E+00 0.  1.
         21    1    1    2  504  502  0.38544917035E+02  0.14710573273E+02  0.30199376942E+02  0.51128406614E+02  0.00000000000E+00 0.  1.
         21    1    1    2  505  504  0.10247238676E+02 -0.29959935410E+02  0.94850330909E+03  0.94903168070E+03  0.00000000000E+00 0. -1.
         21    1    1    2  506  503 -0.26983087330E+02 -0.88214570962E+02 -0.31446776423E+01  0.92302689719E+02  0.00000000000E+00 0.  1.
<scales pt_clust_3="95.55378" pt_clust_4="42.02877" pt_clust_5="31.66392" pt_clust_6="14000.00000"></scales>
<clustering>
<clus scale="   31.664">  1  5  2 -1</clus>
<clus scale="   42.029">  1  4  2 -1</clus>
<clus scale="   95.554">  1  3  2 -1</clus>
<clus scale="   31.664">  1  3  2 -1</clus>
</clustering>
</event>
<event>
 6    0  0.6687079E+002  0.1030744E+03  0.7546771E-02  0.1273961E+00
         21   -1    0    0  504  501  0.00000000000E+00  0.00000000000E+00  0.71859786167E+03  0.71859786167E+03  0.00000000000E+00 0.  1.
         21   -1    0    0  505  502 -0.00000000000E+00 -0.00000000000E+00 -0.17032235762E+03  0.17032235762E+03  0.00000000000E+00 0. -1.
         21    1    1    2  503  502  0.22504077215E+02 -0.87962985676E+02 -0.12879303788E+03  0.15758035076E+03  0.00000000000E+00 0. -1.
         21    1    1    2  504  506  0.16875841998E+02  0.74108247462E+02  0.85756634581E+02  0.11459069229E+03  0.00000000000E+00 0. -1.
         21    1    1    2  505  501 -0.17305740110E+02 -0.30050781277E+02  0.55390548117E+03  0.55498992798E+03  0.00000000000E+00 0.  1.
         21    1    1    2  506  503 -0.22074179104E+02  0.43905519491E+02  0.37406426184E+02  0.61759248253E+02  0.00000000000E+00 0. -1.
<scales pt_clust_3="92.99698" pt_clust_4="39.47067" pt_clust_5="34.67763" pt_clust_6="39.47067"></scales>
<clustering>
<clus scale="   34.678">  1  5  2 -1</clus>
<clus scale="   39.471">  4  6 -1 -1</clus>
<clus scale="   92.997">  2  3  1 -1</clus>
<clus scale="   34.678">  1  3  2 -1</clus>
</clustering>
</event>
<event>
 6    0  0.6687079E+002  0.1636285E+03  0.7546771E-02  0.1184660E+00
         21   -1    0    0  504  501  0.00000000000E+00  0.00000000000E+00  0.11464123933E+04  0.11464123933E+04  0.00000000000E+00 0.  1.
         21   -1    0    0  506  502 -0.00000000000E+00 -0.00000000000E+00 -0.82906978192E+02  0.82906978192E+02  0.00000000000E+00 0.  1.
         21    1    1    2  503  501  0.14263022207E+03  0.89744592893E+02  0.69632107925E+03  0.71642202480E+03  0.00000000000E+00 0.  1.
         21    1    1    2  504  505 -0.10346899329E+03 -0.12044005020E+03  0.29762597059E+03  0.33733196800E+03  0.00000000000E+00 0.  1.
         21    1    1    2  505  502 -0.30636875211E+02 -0.18698154544E+02 -0.40810261753E+02  0.54348105490E+02  0.00000000000E+00 0.  1.
         21    1    1    2  506  503 -0.85243535755E+01  0.49393611847E+02  0.11036862706E+03  0.12121727325E+03  0.00000000000E+00 0. -1.
<scales pt_clust_3="163.62848" pt_clust_4="14000.00000" pt_clust_5="35.89205" pt_clust_6="48.36681"></scales>
<clustering>
<clus scale="   35.892">  2  5  1 -1</clus>
<clus scale="   48.367">  2  6  1 -1</clus>
<clus scale="  163.628">  1  3  2 -1</clus>
<clus scale="  163.628">  1  3  2 -1</clus>
</clustering>
</event>
<event>
 6    0  0.6687079E+002  0.5586964E+02  0.7546771E-02  0.1416031E+00
         21   -1    0    0  503  501  0.00000000000E+00  0.00000000000E+00  0.28309644066E+04  0.28309644066E+04  0.00000000000E+00 0.  1.
         21   -1    0    0  504  502 -0.00000000000E+00 -0.00000000000E+00 -0.14734221309E+03  0.14734221309E+03  0.00000000000E+00 0.  1.
         21    1    1    2  503  505  0.54902979557E+02 -0.33752719352E+01  0.26284114074E+04  0.26289869258E+04  0.00000000000E+00 0.  1.
         21    1    1    2  504  506  0.48535731619E+01  0.47814940389E+02 -0.50172525540E+02  0.69477392121E+02  0.00000000000E+00 0.  1.
         21    1    1    2  505  502  0.29021243081E+02 -0.55871138352E+02 -0.63050012945E+02  0.89101743995E+02  0.00000000000E+00 0.  1.
         21    1    1    2  506  501 -0.88777795800E+02  0.11431469898E+02  0.16843332456E+03  0.19074055771E+03  0.00000000000E+00 0.  1.
<scales pt_clust_3="14000.00000" pt_clust_4="48.06065" pt_clust_5="36.18857" pt_clust_6="55.86964"></scales>
<clustering>
<clus scale="   48.061">  2  4  1 -1</clus>
<clus scale="   36.189">  2  5  1 -1</clus>
<clus scale="   55.870">  2  6  1 -1</clus>
<clus scale="   55.870">  1  3  2 -1</clus>
</clustering>
</event>
<event>
 6    0  0.6687079E+002  0.1069714E+03  0.7546771E-02  0.1266283E+00
         21   -1    0    0  504  501  0.00000000000E+00  0.00000000000E+00  0.11414404177E+04  0.11414404177E+04  0.00000000000E+00 0. -1.
         21   -1    0    0  503  502 -0.00000000000E+00 -0.00000000000E+00 -0.59209849834E+02  0.59209849834E+02  0.00000000000E+00 0. -1.
         21    1    1    2  503  506  0.31203040598E+01 -0.29970276257E+02 -0.24875208481E+02  0.39073389325E+02  0.00000000000E+00 0. -1.
         21    1    1    2  504  502 -0.12678716649E+03  0.54225711562E+02  0.27337102717E+03  0.30618153419E+03  0.00000000000E+00 0. -1.
         21    1    1    2  505  501  0.34179866705E+02 -0.47775880235E+02  0.61629050844E+03  0.61908383020E+03  0.00000000000E+00 0. -1.
         21    1    1    2  506  505  0.89486995729E+02  0.23520444929E+02  0.21744424072E+03  0.23631151381E+03  0.00000000000E+00 0. -1.
<scales pt_clust_3="30.13227" pt_clust_4="14000.00000" pt_clust_5="60.09141" pt_clust_6="106.97136"></scales>
<clustering>
<clus scale="   30.132">  2  3  1 -1</clus>
<clus scale="   60.091">  1  5  2 -1</clus>
<clus scale="  106.971">  2  6  1 -1</clus>
<clus scale="   60.091">  1  3  2 -1</clus>
</clustering>
</event>
<event>
 6    0  0.6687079E+002  0.8141159E+02  0.7546771E-02  0.1325093E+00
         21   -1    0    0  504  501  0.00000000000E+00  0.00000000000E+00  0.48218648436E+03  0.48218648436E+03  0.00000000000E+00 0.  1.
         21   -1    0    0  505  502 -0.00000000000E+00 -0.00000000000E+00 -0.43751471052E+03  0.43751471052E+03  0.00000000000E+00 0.  1.
         21    1    1    2  503  501  0.31839371614E+02 -0.31168931057E+02  0.25612188109E+03  0.25996858622E+03  0.00000000000E+00 0.  1.
         21    1    1    2  504  506 -0.10931330894E+03  0.48966016705E+02  0.19105475382E+03  0.22549720455E+03  0.00000000000E+00 0.  1.
         21    1    1    2  505  503  0.47843830484E+02 -0.32226388578E+02 -0.39657621794E+03  0.40074963365E+03  0.00000000000E+00 0.  1.
         21    1    1    2  506  502  0.29630106841E+02  0.14429302930E+02 -0.59286431244E+01  0.33485770467E+02  0.00000000000E+00 0.  1.
<scales pt_clust_3="44.60735" pt_clust_4="81.41159" pt_clust_5="14000.00000" pt_clust_6="32.95676"></scales>
<clustering>
<clus scale="   32.957">  2  6  1 -1</clus>
<clus scale="   44.607">  1  3  2 -1</clus>
<clus scale="   81.412">  1  4  2 -1</clus>
<clus scale="   44.607">  1  3  2 -1</clus>
</clustering>
</event>
<event>
 6    0  0.6687079E+002  0.1027781E+03  0.7546771E-02  0.1274560E+00
         21   -1    0    0  503  501  0.00000000000E+00  0.00000000000E+00  0.92748612375E+03  0.92748612375E+03  0.00000000000E+00 0. -1.
         21   -1    0    0  504  502 -0.00000000000E+00 -0.00000000000E+00 -0.64595311817E+02  0.64595311817E+02  0.00000000000E+00 0. -1.
         21    1    1    2  503  502  0.86315676018E+02  0.36580024783E+02  0.45779197280E+02  0.10432750856E+03  0.00000000000E+00 0. -1.
         21    1    1    2  504  506 -0.29525227998E+02 -0.71985490074E+01  0.39926052588E+02  0.50176168361E+02  0.00000000000E+00 0. -1.
         21    1    1    2  505  501 -0.59552788727E+02 -0.87129742093E+02  0.77238789219E+03  0.77956473920E+03  0.00000000000E+00 0. -1.
         21    1    1    2  506  505  0.27623407071E+01  0.57748266317E+02  0.47976698781E+01  0.58013019445E+02  0.00000000000E+00 0.  1.
<scales pt_clust_3="14000.00000" pt_clust_4="30.39010" pt_clust_5="102.77808" pt_clust_6="55.51942"></scales>
<clustering>
<clus scale="   30.390">  2  4  1 -1</clus>
<clus scale="   55.519">  2  6  1 -1</clus>
<clus scale="  102.778">  1  5  2 -1</clus>
<clus scale="  102.778">  1  3  2 -1</clus>
</clustering>
</event>
<event>
 6    0  0.6687079E+002  0.8291837E+02  0.7546771E-02  0.1320968E+00
         21   -1    0    0  506  501  0.00000000000E+00  0.00000000000E+00  0.25041008097E+03  0.25041008097E+03  0.00000000000E+00 0. -1.
         21   -1    0    0  505  502 -0.00000000000E+00 -0.00000000000E+00 -0.25828627877E+03  0.25828627877E+03  0.00000000000E+00 0.  1.
         21    1    1    2  503  501 -0.40756411819E+02 -0.46063973194E+01  0.10718990500E+02  0.42393404652E+02  0.00000000000E+00 0.  1.
         21    1    1    2  504  502 -0.20720599856E+02 -0.54190414358E+02 -0.84597789410E+02  0.10258035991E+03  0.00000000000E+00 0.  1.
         21    1    1    2  505  503 -0.42228553632E+02 -0.80292994566E+01 -0.12732441094E+03  0.13438461970E+03  0.00000000000E+00 0.  1.
         21    1    1    2  506  504  0.10370556531E+03  0.66826111134E+02  0.19332701205E+03  0.22933797547E+03  0.00000000000E+00 0. -1.
<scales pt_clust_3="41.01590" pt_clust_4="82.91837" pt_clust_5="43.63012" pt_clust_6="14000.00000"></scales>
<clustering>
<clus scale="   41.016">  1  3  2 -1</clus>
<clus scale="   43.630">  2  5  1 -1</clus>
<clus scale="   82.918">  2  4  1 -1</clus>
<clus scale="   41.016">  1  3  2 -1</clus>
</clustering>
</event>
<event>
 6    0  0.6687079E+002  0.1551055E+03  0.7546771E-02  0.1194336E+00
         21   -1    0    0  504  501  0.00000000000E+00  0.00000000000E+00  0.32142893801E+03  0.32142893801E+03  0.00000000000E+00 0.  1.
         21   -1    0    0  505  502 -0.00000000000E+00 -0.00000000000E+00 -0.64293110971E+03  0.64293110971E+03  0.00000000000E+00 0. -1.
         21    1    1    2  503  501  0.64554290752E+02  0.14075931639E+03  0.27411663755E+03  0.31483388094E+03  0.00000000000E+00 0.  1.
         21    1    1    2  504  506 -0.63134270148E+02 -0.14901438716E+03 -0.53233021067E+03  0.55638716452E+03  0.00000000000E+00 0. -1.
         21    1    1    2  505  503  0.15622891246E+02  0.34020649356E+02 -0.35218509560E+02  0.51398664663E+02  0.00000000000E+00 0. -1.
         21    1    1    2  506  502 -0.17042911850E+02 -0.25765578591E+02 -0.28070089028E+02  0.41740337594E+02  0.00000000000E+00 0. -1.
<scales pt_clust_3="155.10546" pt_clust_4="14000.00000" pt_clust_5="35.26356" pt_clust_6="30.89217"></scales>
<clustering>
<clus scale="   30.892">  2  6  1 -1</clus>
<clus scale="   35.264">  2  5  1 -1</clus>
<clus scale="  155.105">  1  3  2 -1</clus>
<clus scale="  155.105">  1  3  2 -1</clus>
</clustering>
</event>
<event>
 6    0  0.6687079E+002  0.8932368E+02  0.7546771E-02  0.1304498E+00
         21   -1    0    0  505  501  0.00000000000E+00  0.00000000000E+00  0.12044092349E+04  0.12044092349E+04  0.00000000000E+00 0. -1.
         21   -1    0    0  503  502 -0.00000000000E+00 -0.00000000000E+00 -0.10124892634E+03  0.10124892634E+03  0.00000000000E+00 0. -1.
         21    1    1    2  503  504  0.84071985135E+02  0.31367743145E+02 -0.73100084517E+02  0.11573960580E+03  0.00000000000E+00 0. -1.
         21    1    1    2  504  506  0.23000665227E+02 -0.37691792012E+02  0.25133033886E+03  0.25517962501E+03  0.00000000000E+00 0. -1.
         21    1    1    2  505  502 -0.90558228435E+02  0.33156966399E+02  0.80434251889E+03  0.81010311989E+03  0.00000000000E+00 0. -1.
         21    1    1    2  506  501 -0.16514421927E+02 -0.26832917531E+02  0.12058753536E+03  0.12463581058E+03  0.00000000000E+00 0.  1.
<scales pt_clust_3="14000.00000" pt_clust_4="47.95625" pt_clust_5="89.32368" pt_clust_6="31.50764"></scales>
<clustering>
<clus scale="   31.508">  1  6  2 -1</clus>
<clus scale="   47.956">  1  4  2 -1</clus>
<clus scale="   89.324">  1  5  2 -1</clus>
<clus scale="   31.508">  1  3  2 -1</clus>
</clustering>
</event>
<event>
 6    0  0.6687079E+002  0.8076120E+02  0.7546771E-02  0.1326905E+00
         21   -1    0    0  506  501  0.00000000000E+00  0.00000000000E+00  0.26276370634E+02  0.26276370634E+02  0.00000000000E+00 0. -1.
         21   -1    0    0  503  502 -0.00000000000E+00 -0.00000000000E+00 -0.11089301064E+04  0.11089301064E+04  0.00000000000E+00 0. -1.
         21    1    1    2  503  501  0.64906523456E+02 -0.52270731881E+02 -0.11636632842E+03  0.14313004083E+03  0.00000000000E+00 0. -1.
         21    1    1    2  504  502  0.32568928066E+02 -0.21539564581E+02 -0.55888001986E+03  0.56024241585E+03  0.00000000000E+00 0. -1.
         21    1    1    2  505  504 -0.19187711894E+02  0.55142033486E+02 -0.12126298075E+03  0.13458648760E+03  0.00000000000E+00 0. -1.
         21    1    1    2  506  505 -0.78287739628E+02  0.18668262976E+02 -0.28614440671E+03  0.29724753272E+03  0.00000000000E+00 0. -1.
<scales pt_clust_3="80.76120" pt_clust_4="39.04725" pt_clust_5="51.45194" pt_clust_6="14000.00000"></scales>
<clustering>
<clus scale="   39.047">  2  4  1 -1</clus>
<clus scale="   51.452">  2  5  1 -1</clus>
<clus scale="   80.761">  1  3  2 -1</clus>
<clus scale="   80.761">  1  3  2 -1</clus>
</clustering>
</event>
<event>
 6    0  0.6687079E+002  0.7250977E+02  0.7546771E-02  0.1351761E+00
         21   -1    0    0  503  501  0.00000000000E+00  0.00000000000E+00  0.85928458746E+03  0.85928458746E+03  0.00000000000E+00 0.  1.
         21   -1    0    0  504  502 -0.00000000000E+00 -0.00000000000E+00 -0.68361562011E+03  0.68361562011E+03  0.00000000000E+00 0. -1.
         21    1    1    2  503  505  0.33319451982E+02  0.64246782321E+02  0.81440413259E+03  0.81761355547E+03  0.00000000000E+00 0.  1.
         21    1    1    2  504  501 -0.50959348928E+02 -0.11066232443E+03 -0.57020565815E+03  0.58307589375E+03  0.00000000000E+00 0. -1.
         21    1    1    2  505  506 -0.23940332158E+02  0.69267189094E+02 -0.58364206458E+02  0.93688118693E+02  0.00000000000E+00 0. -1.
         21    1    1    2  506  502  0.41580229103E+02 -0.22851646981E+02 -0.10165300638E+02  0.48522639655E+02  0.00000000000E+00 0. -1.
<scales pt_clust_3="72.50977" pt_clust_4="14000.00000" pt_clust_5="69.29848" pt_clust_6="47.44590"></scales>
<clustering>
<clus scale="   47.446">  2  6  1 -1</clus>
<clus scale="   69.298">  2  5  1 -1</clus>
<clus scale="   72.510">  1  3  2 -1</clus>
<clus scale="   72.510">  1  3  2 -1</clus>
</clustering>
</event>
<event>
 6    0  0.6687079E+002  0.1253609E+03  0.7546771E-02  0.1234506E+00
         21   -1    0    0  503  501  0.00000000000E+00  0.00000000000E+00  0.92327223430E+03  0.92327223430E+03  0.00000000000E+00 0.  1.
         21   -1    0    0  506  502 -0.00000000000E+00 -0.00000000000E+00 -0.62607465687E+02  0.62607465687E+02  0.00000000000E+00 0.  1.
         21    1    1    2  503  505 -0.46498290376E+02  0.37732020850E+02  0.35985294864E+03  0.36480123499E+03  0.00000000000E+00 0.  1.
         21    1    1    2  504  502  0.34119732315E+02 -0.11582830437E+03  0.16149727731E+02  0.12182432406E+03  0.00000000000E+00 0.  1.
         21    1    1    2  505  504 -0.17229377469E+02  0.63276364180E+02  0.43268909321E+03  0.43763066746E+03  0.00000000000E+00 0.  1.
         21    1    1    2  506  501  0.29607935530E+02  0.14819919344E+02  0.51972999026E+02  0.61623473477E+02  0.00000000000E+00 0. -1.
<scales pt_clust_3="36.87429" pt_clust_4="119.18558" pt_clust_5="36.87429" pt_clust_6="33.10982"></scales>
<clustering>
<clus scale="   33.110">  2  6  1 -1</clus>
<clus scale="   36.874">  3  5 -1 -1</clus>
<clus scale="  119.186">  2  4  1 -1</clus>
<clus scale="  125.361">  1  3  2 -1</clus>
</clustering>
</event>
<event>
 6    0  0.6687079E+002  0.1737848E+03  0.7546771E-02  0.1173957E+00
         21   -1    0    0  503  501  0.00000000000E+00  0.00000000000E+00  0.10011725821E+04  0.10011725821E+04  0.00000000000E+00 0.  1.
         21   -1    0    0  505  502 -0.00000000000E+00 -0.00000000000E+00 -0.25184908404E+03  0.25184908404E+03  0.00000000000E+00 0.  1.
         21    1    1    2  503  506  0.30822653886E+02  0.22950652747E+01  0.77214812944E+03  0.77276648291E+03  0.00000000000E+00 0.  1.
         21    1    1    2  504  502 -0.56356232676E+02 -0.11380663876E+02 -0.22512627874E+02  0.61744334845E+02  0.00000000000E+00 0.  1.
         21    1    1    2  505  501 -0.58765323194E+02 -0.13659323996E+03 -0.13661710418E+03  0.20192897160E+03  0.00000000000E+00 0.  1.
         21    1    1    2  506  504  0.84298901984E+02  0.14567883857E+03  0.13630510068E+03  0.21658187679E+03  0.00000000000E+00 0.  1.
<scales pt_clust_3="30.90798" pt_clust_4="54.86469" pt_clust_5="173.78476" pt_clust_6="14000.00000"></scales>
<clustering>
<clus scale="   30.908">  1  3  2 -1</clus>
<clus scale="   54.865">  2  4  1 -1</clus>
<clus scale="  173.785">  2  5  1 -1</clus>
<clus scale="   30.908">  1  3  2 -1</clus>
</clustering>
</event>
<event>
 6    0  0.6687079E+002  0.1859984E+03  0.7546771E-02  0.1162121E+00
         21   -1    0    0  503  501  0.00000000000E+00  0.00000000000E+00  0.52837651447E+02  0.52837651447E+02  0.00000000000E+00 0. -1.
         21   -1    0    0  504  502 -0.00000000000E+00 -0.00000000000E+00 -0.30074573435E+04  0.30074573435E+04  0.00000000000E+00 0. -1.
         21    1    1    2  503  505 -0.26773719025E+02  0.96184576343E+02 -0.41164055458E+03  0.42357555516E+03  0.00000000000E+00 0. -1.
         21    1    1    2  504  506  0.33710666820E+02  0.86286342490E+02 -0.15408180503E+04  0.15436003388E+04  0.00000000000E+00 0. -1.
         21    1    1    2  505  502  0.75090655826E+02 -0.25830506546E+00 -0.81779505846E+03  0.82123530791E+03  0.00000000000E+00 0.  1.
         21    1    1    2  506  501 -0.82027603622E+02 -0.18221261377E+03 -0.18436602873E+03  0.27188379305E+03  0.00000000000E+00 0. -1.
<scales pt_clust_3="96.93698" pt_clust_4="185.99845" pt_clust_5="75.09110" pt_clust_6="14000.00000"></scales>
<clustering>
<clus scale="   75.091">  2  5  1 -1</clus>
<clus scale="   96.937">  2  3  1 -1</clus>
<clus scale="  185.998">  2  4  1 -1</clus>
<clus scale="  185.998">  1  3  2 -1</clus>
</clustering>
</event>
<event>
 6    0  0.6687079E+002  0.1185085E+03  0.7546771E-02  0.1245578E+00
         21   -1    0    0  504  501  0.00000000000E+00  0.00000000000E+00  0.70652241601E+03  0.70652241601E+03  0.00000000000E+00 0.  1.
         21   -1    0    0  505  502 -0.00000000000E+00 -0.00000000000E+00 -0.41891101150E+02  0.41891101150E+02  0.00000000000E+00 0.  1.
         21    1    1    2  503  506 -0.29866137797E+02  0.26687206426E+02  0.36161235832E+02  0.53961357939E+02  0.00000000000E+00 0.  1.
         21    1    1    2  504  502  0.98333257287E+02 -0.45465403006E+02  0.52940706617E+03  0.54037799184E+03  0.00000000000E+00 0.  1.
         21    1    1    2  505  503  0.85353403912E+01  0.32973290841E+02  0.10024563855E+02  0.35504673283E+02  0.00000000000E+00 0.  1.
         21    1    1    2  506  501 -0.77002459882E+02 -0.14195094261E+02  0.89038449009E+02  0.11856949410E+03  0.00000000000E+00 0.  1.
<scales pt_clust_3="39.78116" pt_clust_4="107.37450" pt_clust_5="34.06009" pt_clust_6="39.78116"></scales>
<clustering>
<clus scale="   34.060">  2  5  1 -1</clus>
<clus scale="   39.781">  3  6 -1 -1</clus>
<clus scale="  107.374">  1  4  2 -1</clus>
<clus scale="  107.374">  1  3  2 -1</clus>
</clustering>
</event>
<event>
 6    0  0.6687079E+002  0.1622250E+03  0.7546771E-02  0.1186207E+00
         21   -1    0    0  503  501  0.00000000000E+00  0.00000000000E+00  0.34053942477E+03  0.34053942477E+03  0.00000000000E+00 0.  1.
         21   -1    0    0  505  502 -0.00000000000E+00 -0.00000000000E+00 -0.20680925365E+03  0.20680925365E+03  0.00000000000E+00 0.  1.
         21    1    1    2  503  504 -0.33596640027E+02 -0.11596063622E+02  0.21340775707E+03  0.21634711389E+03  0.00000000000E+00 0.  1.
         21    1    1    2  504  502  0.32491930381E+02  0.15473923018E+03 -0.78446047461E+02  0.17650421315E+03  0.00000000000E+00 0.  1.
         21    1    1    2  505  506  0.19488750028E+01 -0.50685339986E+02 -0.28392858657E+02  0.58128789992E+02  0.00000000000E+00 0. -1.
         21    1    1    2  506  501 -0.84416535656E+00 -0.92457826575E+02  0.27161320176E+02  0.96368561387E+02  0.00000000000E+00 0.  1.
<scales pt_clust_3="35.54157" pt_clust_4="151.46030" pt_clust_5="42.00961" pt_clust_6="42.00961"></scales>
<clustering>
<clus scale="   35.542">  1  3  2 -1</clus>
<clus scale="   42.010">  5  6 -1 -1</clus>
<clus scale="  151.460">  2  4  1 -1</clus>
<clus scale="   35.542">  1  3  2 -1</clus>
</clustering>
</event>
<event>
 6    0  0.6687079E+002  0.2130838E+03  0.7546771E-02  0.1139147E+00
         21   -1    0    0  505  501  0.00000000000E+00  0.00000000000E+00  0.71897906227E+03  0.71897906227E+03  0.00000000000E+00 0.  1.
         21   -1    0    0  506  502 -0.00000000000E+00 -0.00000000000E+00 -0.17082008425E+03  0.17082008425E+03  0.00000000000E+00 0.  1.
         21    1    1    2  503  502 -0.55441688416E+02 -0.19603545326E+03  0.84143934842E+02  0.22041751637E+03  0.00000000000E+00 0.  1.
         21    1    1    2  504  501  0.36423347671E+02  0.31626146530E+02 -0.21378849954E+02  0.52762947465E+02  0.00000000000E+00 0.  1.
         21    1    1    2  505  503 -0.30813720646E+02  0.15674822222E+02  0.45565436875E+03  0.45696399113E+03  0.00000000000E+00 0.  1.
         21    1    1    2  506  504  0.49832061391E+02  0.14873448451E+03  0.29739524374E+02  0.15965469156E+03  0.00000000000E+00 0.  1.
<scales pt_clust_3="200.80667" pt_clust_4="38.94144" pt_clust_5="34.57145" pt_clust_6="38.94144"></scales>
<clustering>
<clus scale="   34.571">  1  5  2 -1</clus>
<clus scale="   38.941">  4  6 -1 -1</clus>
<clus scale="  200.807">  1  3  2 -1</clus>
<clus scale="   34.571">  1  3  2 -1</clus>
</clustering>
</event>
<event>
 6    0  0.6687079E+002  0.9889048E+02  0.7546771E-02  0.1282647E+00
         21   -1    0    0  504  501  0.00000000000E+00  0.00000000000E+00  0.82047528958E+02  0.82047528958E+02  0.00000000000E+00 0. -1.
         21   -1    0    0  505  502 -0.00000000000E+00 -0.00000000000E+00 -0.20180651697E+04  0.20180651697E+04  0.00000000000E+00 0.  1.
         21    1    1    2  503  501 -0.44291155412E+02 -0.65510468377E+02 -0.37760842825E+02  0.87631097024E+02  0.00000000000E+00 0. -1.
         21    1    1    2  504  502 -0.78744182414E+02  0.27698864970E+02 -0.17633791222E+04  0.17653537328E+04  0.00000000000E+00 0.  1.
         21    1    1    2  505  506 -0.14848561039E+01  0.32562827721E+02 -0.11671402913E+03  0.12118047344E+03  0.00000000000E+00 0.  1.
         21    1    1    2  506  503  0.12452019393E+03  0.52487756859E+01 -0.18163646582E+02  0.12594739537E+03  0.00000000000E+00 0. -1.
<scales pt_clust_3="78.21752" pt_clust_4="98.89048" pt_clust_5="32.59666" pt_clust_6="14000.00000"></scales>
<clustering>
<clus scale="   32.597">  2  5  1 -1</clus>
<clus scale="   78.218">  1  3  2 -1</clus>
<clus scale="   98.890">  2  4  1 -1</clus>
<clus scale="   78.218">  1  3  2 -1</clus>
</clustering>
</event>
<event>
 6    0  0.6687079E+002  0.1103719E+03  0.7546771E-02  0.1259883E+00
         21   -1    0    0  504  501  0.00000000000E+00  0.00000000000E+00  0.13281018202E+04  0.13281018202E+04  0.00000000000E+00 0.  1.
         21   -1    0    0  506  502 -0.00000000000E+00 -0.00000000000E+00 -0.53069451120E+03  0.53069451120E+03  0.00000000000E+00 0.  1.
         21    1    1    2  503  501 -0.10410130850E+03  0.39024232144E+02  0.12645212959E+04  0.12693991023E+04  0.00000000000E+00 0.  1.
         21    1    1    2  504  505  0.96860712468E+02 -0.78961230181E+00 -0.18007690188E+02  0.98523591151E+02  0.00000000000E+00 0.  1.
         21    1    1    2  505  502  0.41323133799E+02 -0.49137252583E+02 -0.45051031950E+03  0.45506221438E+03  0.00000000000E+00 0.  1.
         21    1    1    2  506  503 -0.34082537763E+02  0.10902632742E+02  0.14040228225E+01  0.35811423612E+02  0.00000000000E+00 0.  1.
<scales pt_clust_3="14000.00000" pt_clust_4="110.37191" pt_clust_5="41.09887" pt_clust_6="35.78389"></scales>
<clustering>
<clus scale="   35.784">  2  6  1 -1</clus>
<clus scale="   41.099">  2  5  1 -1</clus>
<clus scale="  110.372">  2  4  1 -1</clus>
<clus scale="  110.372">  1  3  2 -1</clus>
</clustering>
</event>
<event>
 6    0  0.6687079E+002  0.7938528E+02  0.7546771E-02  0.1330805E+00
         21   -1    0    0  503  501  0.00000000000E+00  0.00000000000E+00  0.42445792181E+02  0.42445792181E+02  0.00000000000E+00 0.  1.
         21   -1    0    0  505  502 -0.00000000000E+00 -0.00000000000E+00 -0.87274849027E+03  0.87274849027E+03  0.00000000000E+00 0.  1.
         21    1    1    2  503  502  0.48323634655E+02 -0.84798417072E+02 -0.50333053584E+03  0.51270612783E+03  0.00000000000E+00 0.  1.
         21    1    1    2  504  506 -0.47351090834E+02  0.78122621312E+02 -0.16841393234E+03  0.19159468252E+03  0.00000000000E+00 0.  1.
         21    1    1    2  505  504 -0.72101690095E+00  0.41736510272E+02 -0.16918366766E+03  0.17425719370E+03  0.00000000000E+00 0.  1.
         21    1    1    2  506  501 -0.25152692066E+00 -0.35060714512E+02  0.10625437745E+02  0.36636278402E+02  0.00000000000E+00 0.  1.
<scales pt_clust_3="14000.00000" pt_clust_4="79.38528" pt_clust_5="37.01707" pt_clust_6="35.06162"></scales>
<clustering>
<clus scale="   35.062">  1  6  2 -1</clus>
<clus scale="   37.017">  2  5  1 -1</clus>
<clus scale="   79.385">  1  4  2 -1</clus>
<clus scale="   35.062">  1  3  2 -1</clus>
</clustering>
</event>
<event>
 6    0  0.6687079E+002  0.8740369E+02  0.7546771E-02  0.1309264E+00
         21   -1    0    0  505  501  0.00000000000E+00  0.00000000000E+00  0.27833226779E+03  0.27833226779E+03  0.00000000000E+00 0. -1.
         21   -1    0    0  503  502 -0.00000000000E+00 -0.00000000000E+00 -0.13680843989E+03  0.13680843989E+03  0.00000000000E+00 0. -1.
         21    1    1    2  503  506 -0.85219689931E+02 -0.10809554263E+02 -0.48759654945E+02  0.98776241909E+02  0.00000000000E+00 0. -1.
         21    1    1    2  504  501 -0.23679321405E+02 -0.52914051761E+02  0.14138382343E+03  0.15280704389E+03  0.00000000000E+00 0. -1.
         21    1    1    2  505  502  0.30448133884E+02  0.48205457168E+01  0.57330664406E+02  0.65093253101E+02  0.00000000000E+00 0. -1.
         21    1    1    2  506  504  0.78450877452E+02  0.58903060308E+02 -0.84310049909E+01  0.98464168771E+02  0.00000000000E+00 0. -1.
<scales pt_clust_3="87.40369" pt_clust_4="49.74188" pt_clust_5="30.82737" pt_clust_6="14000.00000"></scales>
<clustering>
<clus scale="   30.827">  1  5  2 -1</clus>
<clus scale="   49.742">  1  4  2 -1</clus>
<clus scale="   87.404">  2  3  1 -1</clus>
<clus scale="   30.827">  1  3  2 -1</clus>
</clustering>
</event>
<event>
 6    0  0.6687079E+002  0.1639055E+03  0.7546771E-02  0.1184357E+00
         21   -1    0    0  506  501  0.00000000000E+00  0.00000000000E+00  0.91510241210E+03  0.91510241210E+03  0.00000000000E+00 0.  1.
         21   -1    0    0  503  502 -0.00000000000E+00 -0.00000000000E+00 -0.59793035032E+03  0.59793035032E+03  0.00000000000E+00 0. -1.
         21    1    1    2  503  501 -0.33972899517E+02  0.18306164514E+02 -0.53272371583E+03  0.53411967851E+03  0.00000000000E+00 0. -1.
         21    1    1    2  504  502 -0.68265600773E+02 -0.31667238791E+01  0.28931438809E+02  0.74210838431E+02  0.00000000000E+00 0. -1.
         21    1    1    2  505  504  0.90680718122E+02 -0.17396414209E+03  0.28809715490E+03  0.34854911567E+03  0.00000000000E+00 0.  1.
         21    1    1    2  506  505  0.11557782168E+02  0.15882470145E+03  0.53286718390E+03  0.55615312981E+03  0.00000000000E+00 0.  1.
<scales pt_clust_3="38.59111" pt_clust_4="80.25475" pt_clust_5="163.90548" pt_clust_6="14000.00000"></scales>
<clustering>
<clus scale="   38.591">  2  3  1 -1</clus>
<clus scale="   80.255">  2  4  1 -1</clus>
<clus scale="  163.905">  2  5  1 -1</clus>
<clus scale="  163.905">  1  3  2 -1</clus>
</clustering>
</event>
<event>
 6    0  0.6687079E+002  0.8254080E+02  0.7546771E-02  0.1321992E+00
         21   -1    0    0  502  501  0.00000000000E+00  0.00000000000E+00  0.25140866870E+03  0.25140866870E+03  0.00000000000E+00 0.  1.
         21   -1    0    0  503  502 -0.00000000000E+00 -0.00000000000E+00 -0.97983360182E+02  0.97983360182E+02  0.00000000000E+00 0.  1.
         21    1    1    2  503  504 -0.49197538898E+02 -0.22910320778E+02 -0.23307530685E+02  0.59063708133E+02  0.00000000000E+00 0.  1.
         21    1    1    2  504  506  0.27117082431E+02  0.48699390025E+02  0.22345178658E+02  0.60052258555E+02  0.00000000000E+00 0.  1.
         21    1    1    2  505  501  0.87358707179E+02 -0.37243488984E+02  0.12696311706E+03  0.15855047866E+03  0.00000000000E+00 0.  1.
         21    1    1    2  506  505 -0.65278250713E+02  0.11454419737E+02  0.27424543495E+02  0.71725583536E+02  0.00000000000E+00 0.  1.
<scales pt_clust_3="54.27044" pt_clust_4="42.48651" pt_clust_5="14000.00000" pt_clust_6="82.54080"></scales>
<clustering>
<clus scale="   54.270">  2  3  1 -1</clus>
<clus scale="   42.487">  2  4  1 -1</clus>
<clus scale="   82.541">  2  6  1 -1</clus>
<clus scale="   82.541">  1  3  2 -1</clus>
</clustering>
</event>
<event>
 6    0  0.6687079E+002  0.8490985E+02  0.7546771E-02  0.1315668E+00
         21   -1    0    0  505  501  0.00000000000E+00  0.00000000000E+00  0.30676117809E+04  0.30676117809E+04  0.00000000000E+00 0.  1.
         21   -1    0    0  504  502 -0.00000000000E+00 -0.00000000000E+00 -0.18067097981E+02  0.18067097981E+02  0.00000000000E+00 0. -1.
         21    1    1    2  503  502  0.28669348564E+02  0.27974582644E+02  0.20211104017E+03  0.20604218349E+03  0.00000000000E+00 0. -1.
         21    1    1    2  504  506  0.13504602716E+02  0.62694927744E+02  0.81389175960E+02  0.10362058783E+03  0.00000000000E+00 0. -1.
         21    1    1    2  505  503  0.58507235992E+02 -0.61536498669E+02  0.21051919626E+04  0.21069036610E+04  0.00000000000E+00 0.  1.
         21    1    1    2  506  501 -0.10068118727E+03 -0.29133011719E+02  0.66085250425E+03  0.66911244662E+03  0.00000000000E+00 0. -1.
<scales pt_clust_3="40.05632" pt_clust_4="14000.00000" pt_clust_5="84.90985" pt_clust_6="81.67063"></scales>
<clustering>
<clus scale="   40.056">  2  3  1 -1</clus>
<clus scale="   84.910">  1  5  2 -1</clus>
<clus scale="   81.671">  1  6  2 -1</clus>
<clus scale="   84.910">  1  3  2 -1</clus>
</clustering>
</event>
<event>
 6    0  0.6687079E+002  0.1384501E+03  0.7546771E-02  0.1215430E+00
         21   -1    0    0  505  501  0.00000000000E+00  0.00000000000E+00  0.11632035861E+03  0.11632035861E+03  0.00000000000E+00 0.  1.
         21   -1    0    0  504  502 -0.00000000000E+00 -0.00000000000E+00 -0.22107331396E+04  0.22107331396E+04  0.00000000000E+00 0. -1.
         21    1    1    2  503  506 -0.12964511657E+02  0.37491373157E+02 -0.19132270787E+03  0.19539206783E+03  0.00000000000E+00 0.  1.
         21    1    1    2  504  503 -0.34540624919E+02  0.24242045699E+02 -0.18212227791E+04  0.18217115970E+04  0.00000000000E+00 0. -1.
         21    1    1    2  505  502  0.87780536192E+02 -0.10615593448E+03  0.64259176410E+02  0.15199916682E+03  0.00000000000E+00 0.  1.
         21    1    1    2  506  501 -0.40275399615E+02  0.44422515626E+02 -0.14612647041E+03  0.15795066655E+03  0.00000000000E+00 0. -1.
<scales pt_clust_3="30.80924" pt_clust_4="42.19872" pt_clust_5="133.16781" pt_clust_6="30.80924"></scales>
<clustering>
<clus scale="   30.809">  3  6 -1 -1</clus>
<clus scale="   42.199">  2  4  1 -1</clus>
<clus scale="  133.168">  1  5  2 -1</clus>
<clus scale="  133.168">  1  3  2 -1</clus>
</clustering>
</event>
<event>
 6    0  0.6687079E+002  0.1085302E+03  0.7546771E-02  0.1263316E+00
         21   -1    0    0  505  501  0.00000000000E+00  0.00000000000E+00  0.46346853168E+02  0.46346853168E+02  0.00000000000E+00 0.  1.
         21   -1    0    0  503  502 -0.00000000000E+00 -0.00000000000E+00 -0.12260291976E+04  0.12260291976E+04  0.00000000000E+00 0. -1.
         21    1    1    2  503  501 -0.10618343023E+03 -0.19513882616E+02 -0.35937045213E+02  0.11378569194E+03  0.00000000000E+00 0.  1.
         21    1    1    2  504  506  0.34810039316E+01 -0.38478079594E+02 -0.23419200197E+03  0.23735748099E+03  0.00000000000E+00 0. -1.
         21    1    1    2  505  504  0.11089297776E+03  0.26945215232E+02 -0.70967930353E+03  0.71879622356E+03  0.00000000000E+00 0. -1.
         21    1    1    2  506  502 -0.81905514594E+01  0.31046746978E+02 -0.19987399376E+03  0.20243665432E+03  0.00000000000E+00 0. -1.
<scales pt_clust_3="14000.00000" pt_clust_4="31.37636" pt_clust_5="108.53022" pt_clust_6="32.10896"></scales>
<clustering>
<clus scale="   32.109">  2  6  1 -1</clus>
<clus scale="   31.376">  2  4  1 -1</clus>
<clus scale="  108.530">  2  5  1 -1</clus>
<clus scale="  108.530">  1  3  2 -1</clus>
</clustering>
</event>
<event>
 6    0  0.6687079E+002  0.8551601E+02  0.7546771E-02  0.1314089E+00
         21   -1    0    0  503  501  0.00000000000E+00  0.00000000000E+00  0.70016489243E+03  0.70016489243E+03  0.00000000000E+00 0. -1.
         21   -1    0    0  504  502 -0.00000000000E+00 -0.00000000000E+00 -0.24072076511E+03  0.24072076511E+03  0.00000000000E+00 0.  1.
         21    1    1    2  503  502  0.75914067088E+02  0.17297321032E+02  0.34205770005E+03  0.35080708810E+03  0.00000000000E+00 0. -1.
         21    1    1    2  504  505  0.71876262429E+01  0.38241534188E+02 -0.21806360810E+03  0.22150804519E+03  0.00000000000E+00 0.  1.
         21    1    1    2  505  506 -0.64848109495E+02 -0.86183537069E+02  0.29769415455E+03  0.31663020863E+03  0.00000000000E+00 0. -1.
         21    1    1    2  506  501 -0.18253583836E+02  0.30644681849E+02  0.37755880821E+02  0.51940315604E+02  0.00000000000E+00 0. -1.
<scales pt_clust_3="14000.00000" pt_clust_4="38.98148" pt_clust_5="85.51601" pt_clust_6="35.66917"></scales>
<clustering>
<clus scale="   35.669">  1  6  2 -1</clus>
<clus scale="   38.981">  2  4  1 -1</clus>
<clus scale="   85.516">  2  5  1 -1</clus>
<clus scale="   35.669">  1  3  2 -1</clus>
</clustering>
</event>
<event>
 6    0  0.6687079E+002  0.1504097E+03  0.7546771E-02  0.1199971E+00
         21   -1    0    0  504  501  0.00000000000E+00  0.00000000000E+00  0.67802764045E+03  0.67802764045E+03  0.00000000000E+00 0. -1.
         21   -1    0    0  501  502 -0.00000000000E+00 -0.00000000000E+00 -0.38358625266E+03  0.38358625266E+03  0.00000000000E+00 0. -1.
         21    1    1    2  503  506  0.20496802638E+02 -0.83305975035E+02  0.75393056162E+02  0.11421084586E+03  0.00000000000E+00 0. -1.
         21    1    1    2  504  503  0.11231185133E+02 -0.56477076263E+02  0.56446768752E+03  0.56739718886E+03  0.00000000000E+00 0. -1.
         21    1    1    2  505  502  0.19715013023E+02  0.37928782523E+02 -0.11927884689E+03  0.12670721210E+03  0.00000000000E+00 0. -1.
         21    1    1    2  506  505 -0.51443000794E+02  0.10185426877E+03 -0.22614050901E+03  0.25329864630E+03  0.00000000000E+00 0. -1.
<scales pt_clust_3="134.45858" pt_clust_4="57.58298" pt_clust_5="41.25813" pt_clust_6="41.25813"></scales>
<clustering>
<clus scale="   41.258">  5  6 -1 -1</clus>
<clus scale="   57.583">  1  4  2 -1</clus>
<clus scale="  134.459">  1  3  2 -1</clus>
<clus scale="   57.583">  1  3  2 -1</clus>
</clustering>
</event>
<event>
 6    0  0.6687079E+002  0.1511308E+03  0.7546771E-02  0.1199090E+00
         21   -1    0    0  502  501  0.00000000000E+00  0.00000000000E+00  0.71364201549E+03  0.71364201549E+03  0.00000000000E+00 0.  1.
         21   -1    0    0  505  502 -0.00000000000E+00 -0.00000000000E+00 -0.32259630571E+03  0.32259630571E+03  0.00000000000E+00 0.  1.
         21    1    1    2  503  506  0.32808438799E+02  0.11986178778E+03  0.22641764438E+03  0.25827928975E+03  0.00000000000E+00 0.  1.
         21    1    1    2  504  503 -0.43099699689E+01  0.66689822347E+02  0.45810013939E+02  0.81022624142E+02  0.00000000000E+00 0.  1.
         21    1    1    2  505  504 -0.23918021997E+02 -0.12711792932E+03 -0.27221624976E+03  0.30138468170E+03  0.00000000000E+00 0.  1.
         21    1    1    2  506  501 -0.45804468330E+01 -0.59433680808E+02  0.39103430121E+03  0.39555172561E+03  0.00000000000E+00 0.  1.
<scales pt_clust_3="53.90939" pt_clust_4="53.90939" pt_clust_5="132.04653" pt_clust_6="59.60992"></scales>
<clustering>
<clus scale="   53.909">  3  4 -1 -1</clus>
<clus scale="   59.610">  1  6  2 -1</clus>
<clus scale="  132.047">  2  5  1 -1</clus>
<clus scale="   59.610">  1  3  2 -1</clus>
</clustering>
</event>
<event>
 6    0  0.6687079E+002  0.1356236E+03  0.7546771E-02  0.1219342E+00
         21   -1    0    0  505  501  0.00000000000E+00  0.00000000000E+00  0.46567564451E+03  0.46567564451E+03  0.00000000000E+00 0.  1.
         21   -1    0    0  506  502 -0.00000000000E+00 -0.00000000000E+00 -0.66987360681E+03  0.66987360681E+03  0.00000000000E+00 0. -1.
         21    1    1    2  503  504 -0.31241936745E+02  0.69998805491E+02  0.17684657289E+03  0.19274491362E+03  0.00000000000E+00 0.  1.
         21    1    1    2  504  502 -0.38167678373E+02 -0.70299009405E+02 -0.57850226058E+03  0.58400649645E+03  0.00000000000E+00 0. -1.
         21    1    1    2  505  503 -0.53484878736E+01  0.61273436908E+02  0.24403876340E+03  0.25167033682E+03  0.00000000000E+00 0.  1.
         21    1    1    2  506  501  0.74758102992E+02 -0.60973232993E+02 -0.46581038005E+02  0.10712750443E+03  0.00000000000E+00 0.  1.
<scales pt_clust_3="37.88958" pt_clust_4="79.99201" pt_clust_5="37.88958" pt_clust_6="128.85875"></scales>
<clustering>
<clus scale="   37.890">  3  5 -1 -1</clus>
<clus scale="   79.992">  2  4  1 -1</clus>
<clus scale="  128.859">  2  6  1 -1</clus>
<clus scale="  135.624">  1  3  2 -1</clus>
</clustering>
</event>
<event>
 6    0  0.6687079E+002  0.1721134E+03  0.7546771E-02  0.1175662E+00
         21   -1    0    0  504  501  0.00000000000E+00  0.00000000000E+00  0.58179624599E+03  0.58179624599E+03  0.00000000000E+00 0.  1.
         21   -1    0    0  505  502 -0.00000000000E+00 -0.00000000000E+00 -0.50475769490E+03  0.50475769490E+03  0.00000000000E+00 0.  1.
         21    1    1    2  503  501 -0.67085442480E+02  0.12161903612E+03  0.32615605396E+03  0.35449882662E+03  0.00000000000E+00 0.  1.
         21    1    1    2  504  506  0.19671813664E+02  0.25510839375E+02  0.13654971064E+03  0.14029827745E+03  0.00000000000E+00 0.  1.
         21    1    1    2  505  503  0.93215694837E+00 -0.17441679858E+03 -0.46455222251E+03  0.49621654143E+03  0.00000000000E+00 0.  1.
         21    1    1    2  506  502  0.46481471868E+02  0.27286923089E+02  0.78885009009E+02  0.95540295400E+02  0.00000000000E+00 0.  1.
<scales pt_clust_3="14000.00000" pt_clust_4="32.21464" pt_clust_5="172.11339" pt_clust_6="59.82335"></scales>
<clustering>
<clus scale="   32.215">  1  4  2 -1</clus>
<clus scale="   59.823">  1  6  2 -1</clus>
<clus scale="  172.113">  2  5  1 -1</clus>
<clus scale="   32.215">  1  3  2 -1</clus>
</clustering>
</event>
<event>
 6    0  0.6687079E+002  0.1181313E+03  0.7546771E-02  0.1246212E+00
         21   -1    0    0  503  501  0.00000000000E+00  0.00000000000E+00  0.22378716889E+03  0.22378716889E+03  0.00000000000E+00 0.  1.
         21   -1    0    0  505  502 -0.00000000000E+00 -0.00000000000E+00 -0.25942910433E+03  0.25942910433E+03  0.00000000000E+00 0.  1.
         21    1    1    2  503  502 -0.22626658990E+02 -0.78136163732E+02  0.15946093324E+01  0.81361960145E+02  0.00000000000E+00 0.  1.
         21    1    1    2  504  506  0.31019160286E+00  0.51014720484E+02  0.89477751366E+02  0.10299934910E+03  0.00000000000E+00 0.  1.
         21    1    1    2  505  504 -0.43704334785E-01 -0.49182700532E+02 -0.19060826536E+03  0.19685134179E+03  0.00000000000E+00 0.  1.
         21    1    1    2  506  501  0.22360171722E+02  0.76304143779E+02  0.63893969221E+02  0.10200362219E+03  0.00000000000E+00 0.  1.
<scales pt_clust_3="110.34355" pt_clust_4="33.78757" pt_clust_5="49.18272" pt_clust_6="33.78757"></scales>
<clustering>
<clus scale="   33.788">  4  6 -1 -1</clus>
<clus scale="   49.183">  2  5  1 -1</clus>
<clus scale="  110.344">  2  3  1 -1</clus>
<clus scale="  118.131">  1  3  2 -1</clus>
</clustering>
</event>
<event>
 6    0  0.6687079E+002  0.8273280E+02  0.7546771E-02  0.1321470E+00
         21   -1    0    0  503  501  0.00000000000E+00  0.00000000000E+00  0.19680194569E+04  0.19680194569E+04  0.00000000000E+00 0. -1.
         21   -1    0    0  506  502 -0.00000000000E+00 -0.00000000000E+00 -0.12856004563E+02  0.12856004563E+02  0.00000000000E+00 0. -1.
         21    1    1    2  503  504 -0.61485509932E+02  0.60795334396E+02  0.70289913727E+03  0.70819752738E+03  0.00000000000E+00 0. -1.
         21    1    1    2  504  502 -0.48222021292E+02  0.27574180874E+02  0.19474618391E+03  0.20251364136E+03  0.00000000000E+00 0. -1.
         21    1    1    2  505  501  0.18000841077E+02 -0.26604724524E+02  0.54060006429E+03  0.54155357182E+03  0.00000000000E+00 0. -1.
         21    1    1    2  506  505  0.91706690148E+02 -0.61764790746E+02  0.51691806690E+03  0.52861072093E+03  0.00000000000E+00 0. -1.
<scales pt_clust_3="14000.00000" pt_clust_4="51.57322" pt_clust_5="32.12229" pt_clust_6="82.73280"></scales>
<clustering>
<clus scale="   32.122">  1  5  2 -1</clus>
<clus scale="   51.573">  2  4  1 -1</clus>
<clus scale="   82.733">  2  6  1 -1</clus>
<clus scale="   32.122">  1  3  2 -1</clus>
</clustering>
</event>
<event>
 6    0  0.6687079E+002  0.2434127E+03  0.7546771E-02  0.1117540E+00
         21   -1    0    0  506  501  0.00000000000E+00  0.00000000000E+00  0.64813461492E+03  0.64813461492E+03  0.00000000000E+00 0.  1.
         21   -1    0    0  503  502 -0.00000000000E+00 -0.00000000000E+00 -0.29995317842E+03  0.29995317842E+03  0.00000000000E+00 0.  1.
         21    1    1    2  503  504 -0.46354257184E+02  0.48279015040E+02  0.26158148253E+01  0.66980765444E+02  0.00000000000E+00 0. -1.
         21    1    1    2  504  505  0.68466925935E+02 -0.80533625371E+01  0.31922026214E+02  0.75970996787E+02  0.00000000000E+00 0.  1.
         21    1    1    2  505  501  0.14555803577E+03 -0.21427006206E+03 -0.13755445703E+03  0.29329171472E+03  0.00000000000E+00 0.  1.
         21    1    1    2  506  502 -0.16767070452E+03  0.17404440955E+03  0.45119805249E+03  0.51184431640E+03  0.00000000000E+00 0.  1.
<scales pt_clust_3="66.92967" pt_clust_4="64.78298" pt_clust_5="14000.00000" pt_clust_6="243.41274"></scales>
<clustering>
<clus scale="   66.930">  2  3  1 -1</clus>
<clus scale="   64.783">  2  4  1 -1</clus>
<clus scale="  243.413">  1  6  2 -1</clus>
<clus scale="  243.413">  1  3  2 -1</clus>
</clustering>
</event>
<event>
 6    0  0.6687079E+002  0.2673550E+03  0.7546771E-02  0.1102803E+00
         21   -1    0    0  506  501  0.00000000000E+00  0.00000000000E+00  0.16895279831E+03  0.16895279831E+03  0.00000000000E+00 0.  1.
         21   -1    0    0  504  502 -0.00000000000E+00 -0.00000000000E+00 -0.75332146879E+03  0.75332146879E+03  0.00000000000E+00 0.  1.
         21    1    1    2  503  501 -0.44227147496E+02  0.23908216138E+03 -0.18312984499E+02  0.24382716392E+03  0.00000000000E+00 0.  1.
         21    1    1    2  504  503 -0.13913775063E+02  0.51482352223E+02 -0.16496868878E+03  0.17337443296E+03  0.00000000000E+00 0.  1.
         21    1    1    2  505  502  0.16455548868E+02 -0.59366757613E+02 -0.14504206711E+03  0.15758298839E+03  0.00000000000E+00 0.  1.
         21    1    1    2  506  505  0.41685373691E+02 -0.23119775599E+03 -0.25604493009E+03  0.34748968183E+03  0.00000000000E+00 0.  1.
<scales pt_clust_3="255.06697" pt_clust_4="53.32941" pt_clust_5="41.02935" pt_clust_6="41.02935"></scales>
<clustering>
<clus scale="   41.029">  5  6 -1 -1</clus>
<clus scale="   53.329">  2  4  1 -1</clus>
<clus scale="  255.067">  1  3  2 -1</clus>
<clus scale="  255.067">  1  3  2 -1</clus>
</clustering>
</event>
<event>
 6    0  0.6687079E+002  0.1124875E+03  0.7546771E-02  0.1256032E+00
         21   -1    0    0  505  501  0.00000000000E+00  0.00000000000E+00  0.55518644090E+03  0.55518644090E+03  0.00000000000E+00 0.  1.
         21   -1    0    0  504  502 -0.00000000000E+00 -0.00000000000E+00 -0.44820700484E+02  0.44820700484E+02  0.00000000000E+00 0.  1.
         21    1    1    2  503  506 -0.34295805969E+02  0.90810423606E+02  0.16796310897E+03  0.19399572500E+03  0.00000000000E+00 0.  1.
         21    1    1    2  504  501  0.55350509081E+02 -0.11687771874E+03  0.16819020793E+03  0.21216037810E+03  0.00000000000E+00 0.  1.
         21    1    1    2  505  503  0.17635481878E+02  0.33728517233E+02  0.12565870010E+03  0.13129635184E+03  0.00000000000E+00 0.  1.
         21    1    1    2  506  502 -0.38690184990E+02 -0.76612221014E+01  0.48553723418E+02  0.62554686446E+02  0.00000000000E+00 0.  1.
<scales pt_clust_3="112.48752" pt_clust_4="14000.00000" pt_clust_5="38.06078" pt_clust_6="36.54079"></scales>
<clustering>
<clus scale="   38.061">  1  5  2 -1</clus>
<clus scale="   36.541">  2  6  1 -1</clus>
<clus scale="  112.488">  1  3  2 -1</clus>
<clus scale="   38.061">  1  3  2 -1</clus>
</clustering>
</event>
<event>
 6    0  0.6687079E+002  0.1235035E+03  0.7546771E-02  0.1237427E+00
         21   -1    0    0  503  501  0.00000000000E+00  0.00000000000E+00  0.76200201443E+02  0.76200201443E+02  0.00000000000E+00 0. -1.
         21   -1    0    0  504  502 -0.00000000000E+00 -0.00000000000E+00 -0.16922776695E+04  0.16922776695E+04  0.00000000000E+00 0. -1.
         21    1    1    2  503  505 -0.31578059848E+01 -0.36646260428E+02  0.45964389962E+02  0.58869731497E+02  0.00000000000E+00 0.  1.
         21    1    1    2  504  506 -0.38091232565E+02 -0.23878753987E+02 -0.86008642751E+03  0.86126058756E+03  0.00000000000E+00 0. -1.
         21    1    1    2  505  502 -0.38918285977E+02 -0.84123574687E+02 -0.15509980185E+03  0.18068579727E+03  0.00000000000E+00 0. -1.
         21    1    1    2  506  501  0.80167324527E+02  0.14464858910E+03 -0.64685562862E+03  0.66766175458E+03  0.00000000000E+00 0. -1.
<scales pt_clust_3="36.78206" pt_clust_4="45.50935" pt_clust_5="14000.00000" pt_clust_6="123.50346"></scales>
<clustering>
<clus scale="   36.782">  1  3  2 -1</clus>
<clus scale="   45.509">  2  4  1 -1</clus>
<clus scale="  123.503">  2  6  1 -1</clus>
<clus scale="   36.782">  1  3  2 -1</clus>
</clustering>
</event>
<event>
 6    0  0.6687079E+002  0.7702744E+02  0.7546771E-02  0.1337705E+00
         21   -1    0    0  505  501  0.00000000000E+00  0.00000000000E+00  0.40130899460E+03  0.40130899460E+03  0.00000000000E+00 0.  1.
         21   -1    0    0  504  502 -0.00000000000E+00 -0.00000000000E+00 -0.67273732988E+02  0.67273732988E+02  0.00000000000E+00 0.  1.
         21    1    1    2  503  501  0.17563889271E+02  0.55643455858E+02  0.77515026037E+02  0.97021975076E+02  0.00000000000E+00 0.  1.
         21    1    1    2  504  503 -0.57353869639E+02 -0.79484362165E+02  0.23079674784E+03  0.25074762014E+03  0.00000000000E+00 0.  1.
         21    1    1    2  505  506  0.74766090051E+02 -0.11228584142E+01  0.20443694035E+02  0.77518860017E+02  0.00000000000E+00 0.  1.
         21    1    1    2  506  502 -0.34976109682E+02  0.24963764721E+02  0.52797937013E+01  0.43294272359E+02  0.00000000000E+00 0.  1.
<scales pt_clust_3="14000.00000" pt_clust_4="77.02744" pt_clust_5="55.77913" pt_clust_6="42.97113"></scales>
<clustering>
<clus scale="   42.971">  2  6  1 -1</clus>
<clus scale="   55.779">  2  5  1 -1</clus>
<clus scale="   77.027">  2  4  1 -1</clus>
<clus scale="   77.027">  1  3  2 -1</clus>
</clustering>
</event>
<event>
 6    0  0.6687079E+002  0.1728338E+03  0.7546771E-02  0.1174924E+00
         21   -1    0    0  506  501  0.00000000000E+00  0.00000000000E+00  0.38065208435E+03  0.38065208435E+03  0.00000000000E+00 0.  1.
         21   -1    0    0  504  502 -0.00000000000E+00 -0.00000000000E+00 -0.11573152263E+03  0.11573152263E+03  0.00000000000E+00 0.  1.
         21    1    1    2  503  501  0.28067442863E+02 -0.10569473886E+03  0.96913051233E+02  0.14612083586E+03  0.00000000000E+00 0.  1.
         21    1    1    2  504  503  0.46415389013E+02 -0.73925366660E+02  0.40335929874E+02  0.96157867135E+02  0.00000000000E+00 0. -1.
         21    1    1    2  505  502 -0.14803019058E+02  0.42123725657E+02 -0.15067912958E+02  0.47123026615E+02  0.00000000000E+00 0. -1.
         21    1    1    2  506  505 -0.59679812818E+02  0.13749637987E+03  0.14273949358E+03  0.20698187737E+03  0.00000000000E+00 0.  1.
<scales pt_clust_3="40.45723" pt_clust_4="40.45723" pt_clust_5="44.64905" pt_clust_6="166.79603"></scales>
<clustering>
<clus scale="   40.457">  3  4 -1 -1</clus>
<clus scale="   44.649">  2  5  1 -1</clus>
<clus scale="  166.796">  1  6  2 -1</clus>
<clus scale="  166.796">  1  3  2 -1</clus>
</clustering>
</event>
<event>
 6    0  0.6687079E+002  0.1450754E+03  0.7546771E-02  0.1206658E+00
         21   -1    0    0  504  501  0.00000000000E+00  0.00000000000E+00  0.10762361754E+04  0.10762361754E+04  0.00000000000E+00 0.  1.
         21   -1    0    0  505  502 -0.00000000000E+00 -0.00000000000E+00 -0.13889007635E+03  0.13889007635E+03  0.00000000000E+00 0.  1.
         21    1    1    2  503  501  0.10601839061E+02  0.10226102367E+03 -0.33950505401E+02  0.10826981468E+03  0.00000000000E+00 0.  1.
         21    1    1    2  504  506  0.54706891555E+02 -0.12161681395E+03  0.10082703493E+04  0.10170509283E+04  0.00000000000E+00 0.  1.
         21    1    1    2  505  503 -0.31166478979E+02  0.32315519663E+02 -0.15817263520E+02  0.47600714788E+02  0.00000000000E+00 0.  1.
         21    1    1    2  506  502 -0.34142251637E+02 -0.12959729387E+02 -0.21156481354E+02  0.42204793992E+02  0.00000000000E+00 0. -1.
<scales pt_clust_3="41.76314" pt_clust_4="133.27355" pt_clust_5="41.76314" pt_clust_6="36.51914"></scales>
<clustering>
<clus scale="   36.519">  2  6  1 -1</clus>
<clus scale="   41.763">  3  5 -1 -1</clus>
<clus scale="  133.274">  1  4  2 -1</clus>
<clus scale="  133.274">  1  3  2 -1</clus>
</clustering>
</event>
<event>
 6    0  0.6687079E+002  0.1351862E+03  0.7546771E-02  0.1219957E+00
         21   -1    0    0  503  501  0.00000000000E+00  0.00000000000E+00  0.14273898604E+03  0.14273898604E+03  0.00000000000E+00 0. -1.
         21   -1    0    0  506  502 -0.00000000000E+00 -0.00000000000E+00 -0.23347551618E+03  0.23347551618E+03  0.00000000000E+00 0. -1.
         21    1    1    2  503  505  0.65878450807E+01 -0.53793534398E+02  0.52349749268E+02  0.75350118078E+02  0.00000000000E+00 0. -1.
         21    1    1    2  504  502  0.12276748625E+02  0.34264001142E+02 -0.54625152880E+02  0.65640289900E+02  0.00000000000E+00 0.  1.
         21    1    1    2  505  504  0.26464150443E+01  0.11747510239E+03 -0.52375129413E+02  0.12864896958E+03  0.00000000000E+00 0. -1.
         21    1    1    2  506  501 -0.21511008750E+02 -0.97945569129E+02 -0.36085997119E+02  0.10657512467E+03  0.00000000000E+00 0. -1.
<scales pt_clust_3="54.19542" pt_clust_4="30.74558" pt_clust_5="30.74558" pt_clust_6="123.38355"></scales>
<clustering>
<clus scale="   30.746">  4  5 -1 -1</clus>
<clus scale="   54.195">  1  3  2 -1</clus>
<clus scale="  123.384">  2  6  1 -1</clus>
<clus scale="   54.195">  1  3  2 -1</clus>
</clustering>
</event>
<event>
 6    0  0.6687079E+002  0.1046309E+03  0.7546771E-02  0.1270849E+00
         21   -1    0    0  505  501  0.00000000000E+00  0.00000000000E+00  0.14350551944E+04  0.14350551944E+04  0.00000000000E+00 0. -1.
         21   -1    0    0  506  502 -0.00000000000E+00 -0.00000000000E+00 -0.15523726263E+03  0.15523726263E+03  0.00000000000E+00 0. -1.
         21    1    1    2  503  501  0.23186143685E+02  0.10218180344E+03  0.12489534420E+04  0.12533409027E+04  0.00000000000E+00 0. -1.
         21    1    1    2  504  502 -0.52526852346E+02  0.67944011721E+02 -0.54992028035E+02  0.10197834130E+03  0.00000000000E+00 0. -1.
         21    1    1    2  505  504 -0.45704439771E+02 -0.94800205483E+02  0.72526286694E+02  0.12781250735E+03  0.00000000000E+00 0. -1.
         21    1    1    2  506  503  0.75045148432E+02 -0.75325609676E+02  0.13330231142E+02  0.10716070566E+03  0.00000000000E+00 0. -1.
<scales pt_clust_3="14000.00000" pt_clust_4="85.88049" pt_clust_5="104.63086" pt_clust_6="54.64164"></scales>
<clustering>
<clus scale="   85.880">  2  4  1 -1</clus>
<clus scale="   54.642">  2  6  1 -1</clus>
<clus scale="  104.631">  2  5  1 -1</clus>
<clus scale="  104.631">  1  3  2 -1</clus>
</clustering>
</event>
<event>
 6    0  0.6687079E+002  0.1272831E+03  0.7546771E-02  0.1231544E+00
         21   -1    0    0  504  501  0.00000000000E+00  0.00000000000E+00  0.16400168104E+04  0.16400168104E+04  0.00000000000E+00 0. -1.
         21   -1    0    0  506  502 -0.00000000000E+00 -0.00000000000E+00 -0.75549099242E+02  0.75549099242E+02  0.00000000000E+00 0. -1.
         21    1    1    2  503  505 -0.51933254385E+01  0.59533453248E+02  0.17908107363E+03  0.18878885988E+03  0.00000000000E+00 0. -1.
         21    1    1    2  504  502  0.40127429345E+02  0.10756428694E+02  0.11168342882E+04  0.11176067013E+04  0.00000000000E+00 0. -1.
         21    1    1    2  505  501 -0.21780728242E+02  0.53751957650E+02  0.27808575625E+03  0.28406928891E+03  0.00000000000E+00 0. -1.
         21    1    1    2  506  503 -0.13153375664E+02 -0.12404183959E+03 -0.95334069485E+01  0.12510105958E+03  0.00000000000E+00 0. -1.
<scales pt_clust_3="31.64958" pt_clust_4="41.54409" pt_clust_5="31.64958" pt_clust_6="123.16190"></scales>
<clustering>
<clus scale="   31.650">  3  5 -1 -1</clus>
<clus scale="   41.544">  1  4  2 -1</clus>
<clus scale="  123.162">  2  6  1 -1</clus>
<clus scale="   41.544">  1  3  2 -1</clus>
</clustering>
</event>
<event>
 6    0  0.6687079E+002  0.1296209E+03  0.7546771E-02  0.1228019E+00
         21   -1    0    0  505  501  0.00000000000E+00  0.00000000000E+00  0.40854073392E+03  0.40854073392E+03  0.00000000000E+00 0. -1.
         21   -1    0    0  506  502 -0.00000000000E+00 -0.00000000000E+00 -0.51365400514E+03  0.51365400514E+03  0.00000000000E+00 0. -1.
         21    1    1    2  503  502  0.60904227246E+02  0.74278704128E+02 -0.21222765147E+03  0.23295327178E+03  0.00000000000E+00 0. -1.
         21    1    1    2  504  501 -0.92368382684E+02 -0.76152114024E+02  0.32423379144E+03  0.34562785493E+03  0.00000000000E+00 0. -1.
         21    1    1    2  505  503  0.10468993833E+03  0.72102558576E+02 -0.20529903285E+03  0.24146729599E+03  0.00000000000E+00 0. -1.
         21    1    1    2  506  504 -0.73225782893E+02 -0.70229148680E+02 -0.11820378332E+02  0.10214631637E+03  0.00000000000E+00 0.  1.
<scales pt_clust_3="37.86545" pt_clust_4="122.08245" pt_clust_5="37.86545" pt_clust_6="101.46008"></scales>
<clustering>
<clus scale="   37.865">  3  5 -1 -1</clus>
<clus scale="  101.460">  2  6  1 -1</clus>
<clus scale="  122.082">  1  4  2 -1</clus>
<clus scale="  122.082">  1  3  2 -1</clus>
</clustering>
</event>
<event>
 6    0  0.6687079E+002  0.1012635E+03  0.7546771E-02  0.1277661E+00
         21   -1    0    0  505  501  0.00000000000E+00  0.00000000000E+00  0.51976469038E+03  0.51976469038E+03  0.00000000000E+00 0. -1.
         21   -1    0    0  503  502 -0.00000000000E+00 -0.00000000000E+00 -0.31400506423E+04  0.31400506423E+04  0.00000000000E+00 0.  1.
         21    1    1    2  503  501 -0.28335529190E+02  0.41868857925E+02 -0.31034711544E+04  0.31038829085E+04  0.00000000000E+00 0.  1.
         21    1    1    2  504  502 -0.69417274003E+02  0.22697171190E+02  0.36065721172E+02  0.81453396208E+02  0.00000000000E+00 0. -1.
         21    1    1    2  505  506 -0.16935810089E+02 -0.29648935692E+02  0.15498748781E+03  0.15870413488E+03  0.00000000000E+00 0.  1.
         21    1    1    2  506  504  0.11468861328E+03 -0.34917093423E+02  0.29213199355E+03  0.31577489305E+03  0.00000000000E+00 0. -1.
<scales pt_clust_3="50.54740" pt_clust_4="14000.00000" pt_clust_5="34.14500" pt_clust_6="101.26353"></scales>
<clustering>
<clus scale="   34.145">  1  5  2 -1</clus>
<clus scale="   50.547">  2  3  1 -1</clus>
<clus scale="  101.264">  1  6  2 -1</clus>
<clus scale="   34.145">  1  3  2 -1</clus>
</clustering>
</event>
<event>
 6    0  0.6687079E+002  0.1096968E+03  0.7546771E-02  0.1261132E+00
         21   -1    0    0  506  501  0.00000000000E+00  0.00000000000E+00  0.35407107140E+03  0.35407107140E+03  0.00000000000E+00 0.  1.
         21   -1    0    0  504  502 -0.00000000000E+00 -0.00000000000E+00 -0.11009044677E+03  0.11009044677E+03  0.00000000000E+00 0.  1.
         21    1    1    2  503  505  0.60668653056E+02 -0.73473108636E+02 -0.17121446818E+02  0.96809746913E+02  0.00000000000E+00 0.  1.
         21    1    1    2  504  503 -0.24673102446E+02 -0.25420689303E+02 -0.58485500405E+01  0.35905138442E+02  0.00000000000E+00 0. -1.
         21    1    1    2  505  501  0.39036064424E+02 -0.28531741810E+02  0.72811082175E+02  0.87403251107E+02  0.00000000000E+00 0. -1.
         21    1    1    2  506  502 -0.75031615034E+02  0.12742553975E+03  0.19413953930E+03  0.24404338171E+03  0.00000000000E+00 0.  1.
<scales pt_clust_3="14000.00000" pt_clust_4="35.42560" pt_clust_5="48.03504" pt_clust_6="109.69676"></scales>
<clustering>
<clus scale="   35.426">  2  4  1 -1</clus>
<clus scale="   48.035">  1  5  2 -1</clus>
<clus scale="  109.697">  1  6  2 -1</clus>
<clus scale="   48.035">  1  3  2 -1</clus>
</clustering>
</event>
<event>
 6    0  0.1231218E+003  0.1355130E+03  0.7546771E-02  0.1219497E+00
         21   -1    0    0  504  501  0.00000000000E+00  0.00000000000E+00  0.37445131631E+03  0.37445131631E+03  0.00000000000E+00 0. -1.
         21   -1    0    0  506  502 -0.00000000000E+00 -0.00000000000E+00 -0.10187874641E+04  0.10187874641E+04  0.00000000000E+00 0.  1.
         21    1    1    2  503  502  0.52249939843E+02  0.30340947509E+02  0.25148944702E+03  0.25864564808E+03  0.00000000000E+00 0. -1.
         21    1    1    2  504  503  0.46556476473E+02 -0.84830607817E+01  0.96429247914E+02  0.10741539776E+03  0.00000000000E+00 0.  1.
         21    1    1    2  505  501  0.26493185023E+02 -0.17165106199E+02 -0.49630722494E+01  0.31955622504E+02  0.00000000000E+00 0.  1.
         21    1    1    2  506  505 -0.12529960134E+03 -0.46927805291E+01 -0.98729177050E+03  0.99522211208E+03  0.00000000000E+00 0.  1.
<scales pt_clust_3="45.39462" pt_clust_4="45.39462" pt_clust_5="31.56786" pt_clust_6="125.10384"></scales>
<clustering>
<clus scale="   31.568">  1  5  2 -1</clus>
<clus scale="   45.395">  3  4 -1 -1</clus>
<clus scale="  125.104">  2  6  1 -1</clus>
<clus scale="   31.568">  1  3  2 -1</clus>
</clustering>
</event>
<event>
 6    0  0.6687079E+002  0.1019412E+03  0.7546771E-02  0.1276266E+00
         21   -1    0    0  505  501  0.00000000000E+00  0.00000000000E+00  0.33144557706E+03  0.33144557706E+03  0.00000000000E+00 0.  1.
         21   -1    0    0  506  502 -0.00000000000E+00 -0.00000000000E+00 -0.30456348153E+03  0.30456348153E+03  0.00000000000E+00 0.  1.
         21    1    1    2  503  501  0.12748579321E+02 -0.38621744025E+02  0.11177180486E+02  0.42179316612E+02  0.00000000000E+00 0.  1.
         21    1    1    2  504  502  0.16407100943E+01  0.10273830641E+03 -0.26470637700E+03  0.28394949825E+03  0.00000000000E+00 0.  1.
         21    1    1    2  505  504 -0.38120887866E+02  0.19413472219E+02  0.67167278355E+02  0.79633713193E+02  0.00000000000E+00 0.  1.
         21    1    1    2  506  503  0.23731598450E+02 -0.83530034609E+02  0.21324401369E+03  0.23024653053E+03  0.00000000000E+00 0.  1.
<scales pt_clust_3="40.67143" pt_clust_4="101.94120" pt_clust_5="36.47994" pt_clust_6="14000.00000"></scales>
<clustering>
<clus scale="   40.671">  1  3  2 -1</clus>
<clus scale="   36.480">  1  5  2 -1</clus>
<clus scale="  101.941">  2  4  1 -1</clus>
<clus scale="   40.671">  1  3  2 -1</clus>
</clustering>
</event>
<event>
 6    0  0.6687079E+002  0.1165328E+03  0.7546771E-02  0.1248929E+00
         21   -1    0    0  505  501  0.00000000000E+00  0.00000000000E+00  0.11184548021E+04  0.11184548021E+04  0.00000000000E+00 0.  1.
         21   -1    0    0  504  502 -0.00000000000E+00 -0.00000000000E+00 -0.86102315226E+02  0.86102315226E+02  0.00000000000E+00 0.  1.
         21    1    1    2  503  501 -0.36373524756E+02 -0.17344393458E+01  0.51640232949E+03  0.51768466027E+03  0.00000000000E+00 0.  1.
         21    1    1    2  504  506  0.85879254214E+02  0.85520922265E+02 -0.30222765177E+02  0.12490992749E+03  0.00000000000E+00 0.  1.
         21    1    1    2  505  502  0.23454642311E+02 -0.42167414670E+02  0.19368485743E+03  0.19960469710E+03  0.00000000000E+00 0.  1.
         21    1    1    2  506  503 -0.72960371769E+02 -0.41619068250E+02  0.35248806516E+03  0.36235783250E+03  0.00000000000E+00 0.  1.
<scales pt_clust_3="36.41485" pt_clust_4="14000.00000" pt_clust_5="44.27085" pt_clust_6="116.53279"></scales>
<clustering>
<clus scale="   36.415">  1  3  2 -1</clus>
<clus scale="   44.271">  1  5  2 -1</clus>
<clus scale="  116.533">  1  6  2 -1</clus>
<clus scale="   36.415">  1  3  2 -1</clus>
</clustering>
</event>
<event>
 6    0  0.6687079E+002  0.1306434E+03  0.7546771E-02  0.1226504E+00
         21   -1    0    0  505  501  0.00000000000E+00  0.00000000000E+00  0.10099043455E+03  0.10099043455E+03  0.00000000000E+00 0. -1.
         21   -1    0    0  504  502 -0.00000000000E+00 -0.00000000000E+00 -0.89767917824E+03  0.89767917824E+03  0.00000000000E+00 0.  1.
         21    1    1    2  503  502  0.91203262457E+02  0.42387783083E+02 -0.20978081687E+03  0.23264296758E+03  0.00000000000E+00 0.  1.
         21    1    1    2  504  501 -0.90143916155E+02 -0.14964214450E+03 -0.60759383844E+03  0.63220959305E+03  0.00000000000E+00 0.  1.
         21    1    1    2  505  506 -0.22659451791E+02  0.32701287688E+02  0.37192747562E+02  0.54462146883E+02  0.00000000000E+00 0. -1.
         21    1    1    2  506  503  0.21600105488E+02  0.74553073733E+02 -0.16506835940E+02  0.79354905286E+02  0.00000000000E+00 0. -1.
<scales pt_clust_3="14000.00000" pt_clust_4="130.64335" pt_clust_5="39.78473" pt_clust_6="93.58614"></scales>
<clustering>
<clus scale="   39.785">  1  5  2 -1</clus>
<clus scale="   93.586">  1  6  2 -1</clus>
<clus scale="  130.643">  1  4  2 -1</clus>
<clus scale="   39.785">  1  3  2 -1</clus>
</clustering>
</event>
<event>
 6    0  0.6687079E+002  0.1604686E+03  0.7546771E-02  0.1188169E+00
         21   -1    0    0  503  501  0.00000000000E+00  0.00000000000E+00  0.11244524414E+04  0.11244524414E+04  0.00000000000E+00 0. -1.
         21   -1    0    0  505  502 -0.00000000000E+00 -0.00000000000E+00 -0.30418177685E+03  0.30418177685E+03  0.00000000000E+00 0.  1.
         21    1    1    2  503  504  0.10783959720E+03 -0.56449223550E+02  0.80470556895E+03  0.81385929144E+03  0.00000000000E+00 0. -1.
         21    1    1    2  504  506 -0.11988504886E+02  0.11697783996E+03  0.12340600770E+03  0.17045991325E+03  0.00000000000E+00 0.  1.
         21    1    1    2  505  501 -0.64049529182E+02 -0.14040133876E+03 -0.24078607638E+03  0.28599442773E+03  0.00000000000E+00 0.  1.
         21    1    1    2  506  502 -0.31801563134E+02  0.79872722352E+02  0.13294516433E+03  0.15832058587E+03  0.00000000000E+00 0.  1.
<scales pt_clust_3="121.72056" pt_clust_4="35.38877" pt_clust_5="155.03928" pt_clust_6="35.38877"></scales>
<clustering>
<clus scale="   35.389">  4  6 -1 -1</clus>
<clus scale="  121.721">  1  3  2 -1</clus>
<clus scale="  155.039">  2  5  1 -1</clus>
<clus scale="  121.721">  1  3  2 -1</clus>
</clustering>
</event>
<event>
 6    0  0.6687079E+002  0.1807091E+03  0.7546771E-02  0.1167119E+00
         21   -1    0    0  505  501  0.00000000000E+00  0.00000000000E+00  0.78358378416E+03  0.78358378416E+03  0.00000000000E+00 0. -1.
         21   -1    0    0  504  502 -0.00000000000E+00 -0.00000000000E+00 -0.20629561647E+03  0.20629561647E+03  0.00000000000E+00 0. -1.
         21    1    1    2  503  502 -0.27112409237E+01 -0.88698807954E+02 -0.88413808830E+02  0.12526703857E+03  0.00000000000E+00 0. -1.
         21    1    1    2  504  501  0.44843730880E+02 -0.20856233909E+02 -0.40663140620E+02  0.64026820140E+02  0.00000000000E+00 0. -1.
         21    1    1    2  505  506 -0.48910776987E+02  0.16865248117E+03  0.71869455419E+03  0.73983632361E+03  0.00000000000E+00 0. -1.
         21    1    1    2  506  503  0.67782870302E+01 -0.59097439306E+02 -0.12329437057E+02  0.60749218313E+02  0.00000000000E+00 0.  1.
<scales pt_clust_3="41.68777" pt_clust_4="49.45647" pt_clust_5="173.38743" pt_clust_6="41.68777"></scales>
<clustering>
<clus scale="   41.688">  3  6 -1 -1</clus>
<clus scale="   49.456">  2  4  1 -1</clus>
<clus scale="  173.387">  1  5  2 -1</clus>
<clus scale="  173.387">  1  3  2 -1</clus>
</clustering>
</event>
<event>
 6    0  0.6687079E+002  0.8802456E+02  0.7546771E-02  0.1307707E+00
         21   -1    0    0  506  501  0.00000000000E+00  0.00000000000E+00  0.11825329631E+04  0.11825329631E+04  0.00000000000E+00 0. -1.
         21   -1    0    0  505  502 -0.00000000000E+00 -0.00000000000E+00 -0.50065330513E+02  0.50065330513E+02  0.00000000000E+00 0. -1.
         21    1    1    2  503  501 -0.28805165090E+02 -0.35718844701E+02  0.59312459411E+03  0.59489693018E+03  0.00000000000E+00 0. -1.
         21    1    1    2  504  502  0.58459426640E+02  0.64667450237E+02  0.14564515417E+02  0.88382740355E+02  0.00000000000E+00 0. -1.
         21    1    1    2  505  503  0.45912423064E+02  0.30657674165E+02  0.10478932090E+03  0.11844258251E+03  0.00000000000E+00 0. -1.
         21    1    1    2  506  504 -0.75566684614E+02 -0.59606279702E+02  0.41998920218E+03  0.43087604058E+03  0.00000000000E+00 0. -1.
<scales pt_clust_3="45.88653" pt_clust_4="14000.00000" pt_clust_5="46.97416" pt_clust_6="88.02456"></scales>
<clustering>
<clus scale="   45.887">  1  3  2 -1</clus>
<clus scale="   46.974">  1  5  2 -1</clus>
<clus scale="   88.025">  1  6  2 -1</clus>
<clus scale="   45.887">  1  3  2 -1</clus>
</clustering>
</event>
<event>
 6    0  0.6687079E+002  0.2525952E+03  0.7546771E-02  0.1111676E+00
         21   -1    0    0  506  501  0.00000000000E+00  0.00000000000E+00  0.97859226275E+02  0.97859226275E+02  0.00000000000E+00 0. -1.
         21   -1    0    0  503  502 -0.00000000000E+00 -0.00000000000E+00 -0.17721854911E+04  0.17721854911E+04  0.00000000000E+00 0. -1.
         21    1    1    2  503  501  0.20070286428E+03 -0.13780873636E+02 -0.37625560392E+03  0.42666126106E+03  0.00000000000E+00 0. -1.
         21    1    1    2  504  505 -0.18194095808E+03 -0.87084784075E+01 -0.71888456081E+03  0.74160188888E+03  0.00000000000E+00 0. -1.
         21    1    1    2  505  502 -0.72484242947E+02 -0.19926021810E+02 -0.61836241311E+03  0.62291499080E+03  0.00000000000E+00 0. -1.
         21    1    1    2  506  504  0.53722336751E+02  0.42415373853E+02  0.39176313026E+02  0.78866576618E+02  0.00000000000E+00 0. -1.
<scales pt_clust_3="235.96524" pt_clust_4="57.90583" pt_clust_5="57.90583" pt_clust_6="68.44818"></scales>
<clustering>
<clus scale="   57.906">  4  5 -1 -1</clus>
<clus scale="   68.448">  1  6  2 -1</clus>
<clus scale="  235.965">  1  3  2 -1</clus>
<clus scale="   68.448">  1  3  2 -1</clus>
</clustering>
</event>
<event>
 6    0  0.6687079E+002  0.1468869E+03  0.7546771E-02  0.1204351E+00
         21   -1    0    0  504  501  0.00000000000E+00  0.00000000000E+00  0.18444918139E+04  0.18444918139E+04  0.00000000000E+00 0. -1.
         21   -1    0    0  506  502 -0.00000000000E+00 -0.00000000000E+00 -0.34164083834E+02  0.34164083834E+02  0.00000000000E+00 0.  1.
         21    1    1    2  503  501 -0.20909059864E+01  0.44036202705E+02  0.78135520780E+03  0.78259792984E+03  0.00000000000E+00 0. -1.
         21    1    1    2  504  505 -0.10274810676E+03 -0.83469165631E+02  0.27104189085E+03  0.30164214170E+03  0.00000000000E+00 0.  1.
         21    1    1    2  505  502 -0.11598634306E+01 -0.58582119886E+02  0.69004725453E+02  0.90525478117E+02  0.00000000000E+00 0. -1.
         21    1    1    2  506  503  0.10599887618E+03  0.98015082812E+02  0.68892590601E+03  0.70389034812E+03  0.00000000000E+00 0. -1.
<scales pt_clust_3="44.08581" pt_clust_4="146.88689" pt_clust_5="55.29192" pt_clust_6="14000.00000"></scales>
<clustering>
<clus scale="   44.086">  1  3  2 -1</clus>
<clus scale="   55.292">  2  5  1 -1</clus>
<clus scale="  146.887">  2  4  1 -1</clus>
<clus scale="   44.086">  1  3  2 -1</clus>
</clustering>
</event>
<event>
 6    0  0.6687079E+002  0.8530686E+02  0.7546771E-02  0.1314632E+00
         21   -1    0    0  504  501  0.00000000000E+00  0.00000000000E+00  0.84322461434E+02  0.84322461434E+02  0.00000000000E+00 0. -1.
         21   -1    0    0  506  502 -0.00000000000E+00 -0.00000000000E+00 -0.25870796069E+03  0.25870796069E+03  0.00000000000E+00 0. -1.
         21    1    1    2  503  502  0.42605275121E+02 -0.70468637112E+02 -0.42632972067E+02  0.92728682681E+02  0.00000000000E+00 0. -1.
         21    1    1    2  504  503  0.48962598332E+02 -0.75388005300E+01 -0.35599644342E+02  0.61004132860E+02  0.00000000000E+00 0.  1.
         21    1    1    2  505  501 -0.26900709814E+02  0.18006985543E+02  0.23957809290E+02  0.40272525906E+02  0.00000000000E+00 0. -1.
         21    1    1    2  506  505 -0.64667163639E+02  0.60000452099E+02 -0.12011069214E+03  0.14902508068E+03  0.00000000000E+00 0. -1.
<scales pt_clust_3="85.30686" pt_clust_4="42.53491" pt_clust_5="32.37128" pt_clust_6="14000.00000"></scales>
<clustering>
<clus scale="   32.371">  1  5  2 -1</clus>
<clus scale="   42.535">  1  4  2 -1</clus>
<clus scale="   85.307">  1  3  2 -1</clus>
<clus scale="   32.371">  1  3  2 -1</clus>
</clustering>
</event>
<event>
 6    0  0.6687079E+002  0.9188253E+02  0.7546771E-02  0.1298356E+00
         21   -1    0    0  503  501  0.00000000000E+00  0.00000000000E+00  0.20771773208E+03  0.20771773208E+03  0.00000000000E+00 0.  1.
         21   -1    0    0  505  502 -0.00000000000E+00 -0.00000000000E+00 -0.70260668020E+03  0.70260668020E+03  0.00000000000E+00 0.  1.
         21    1    1    2  503  506 -0.34520239447E+02  0.61440827786E+02 -0.22127346744E+03  0.23222525626E+03  0.00000000000E+00 0.  1.
         21    1    1    2  504  501  0.22574648587E+02 -0.90276724957E+02  0.18250536885E+03  0.20486022426E+03  0.00000000000E+00 0.  1.
         21    1    1    2  505  504  0.47745282040E+02  0.61354768189E+02 -0.27679358786E+03  0.28750427791E+03  0.00000000000E+00 0.  1.
         21    1    1    2  506  502 -0.35799691180E+02 -0.32518871018E+02 -0.17932726167E+03  0.18573465385E+03  0.00000000000E+00 0.  1.
<scales pt_clust_3="14000.00000" pt_clust_4="91.88253" pt_clust_5="52.08669" pt_clust_6="48.36419"></scales>
<clustering>
<clus scale="   48.364">  2  6  1 -1</clus>
<clus scale="   52.087">  2  5  1 -1</clus>
<clus scale="   91.883">  1  4  2 -1</clus>
<clus scale="   91.883">  1  3  2 -1</clus>
</clustering>
</event>
<event>
 6    0  0.6687079E+002  0.1001827E+03  0.7546771E-02  0.1279912E+00
         21   -1    0    0  506  501  0.00000000000E+00  0.00000000000E+00  0.14124371901E+03  0.14124371901E+03  0.00000000000E+00 0.  1.
         21   -1    0    0  501  502 -0.00000000000E+00 -0.00000000000E+00 -0.24182083562E+03  0.24182083562E+03  0.00000000000E+00 0.  1.
         21    1    1    2  503  504  0.34319365893E+02 -0.45327544480E+02 -0.59888047948E+01  0.57168793469E+02  0.00000000000E+00 0.  1.
         21    1    1    2  504  502 -0.56682375966E+02  0.59311432434E+02 -0.15873690171E+03  0.17868447534E+03  0.00000000000E+00 0.  1.
         21    1    1    2  505  503 -0.68299408708E+01 -0.68804089743E+02  0.23693964746E+02  0.73089361901E+02  0.00000000000E+00 0.  1.
         21    1    1    2  506  505  0.29192950944E+02  0.54820201789E+02  0.40454625151E+02  0.74121923917E+02  0.00000000000E+00 0. -1.
<scales pt_clust_3="48.59629" pt_clust_4="84.64372" pt_clust_5="48.59629" pt_clust_6="62.10864"></scales>
<clustering>
<clus scale="   48.596">  3  5 -1 -1</clus>
<clus scale="   62.109">  1  6  2 -1</clus>
<clus scale="   84.644">  2  4  1 -1</clus>
<clus scale="   62.109">  1  3  2 -1</clus>
</clustering>
</event>
<event>
 6    0  0.6687079E+002  0.8634863E+02  0.7546771E-02  0.1311943E+00
         21   -1    0    0  504  501  0.00000000000E+00  0.00000000000E+00  0.47192863817E+02  0.47192863817E+02  0.00000000000E+00 0. -1.
         21   -1    0    0  506  502 -0.00000000000E+00 -0.00000000000E+00 -0.56636930018E+03  0.56636930018E+03  0.00000000000E+00 0. -1.
         21    1    1    2  503  505  0.88243333856E+02  0.74393918510E+02 -0.33890975474E+03  0.35802396978E+03  0.00000000000E+00 0. -1.
         21    1    1    2  504  503  0.19289738247E+02 -0.33069754602E+02 -0.75147562359E+01  0.39015051356E+02  0.00000000000E+00 0. -1.
         21    1    1    2  505  502 -0.34348146140E+02 -0.13345675892E+02 -0.11040834772E+03  0.11639547008E+03  0.00000000000E+00 0.  1.
         21    1    1    2  506  501 -0.73184925963E+02 -0.27978488017E+02 -0.62343577663E+02  0.10012767278E+03  0.00000000000E+00 0. -1.
<scales pt_clust_3="86.34863" pt_clust_4="38.03367" pt_clust_5="36.84972" pt_clust_6="14000.00000"></scales>
<clustering>
<clus scale="   36.850">  2  5  1 -1</clus>
<clus scale="   38.034">  1  4  2 -1</clus>
<clus scale="   86.349">  2  3  1 -1</clus>
<clus scale="   38.034">  1  3  2 -1</clus>
</clustering>
</event>
<event>
 6    0  0.6687079E+002  0.1813498E+03  0.7546771E-02  0.1166503E+00
         21   -1    0    0  504  501  0.00000000000E+00  0.00000000000E+00  0.25451725993E+03  0.25451725993E+03  0.00000000000E+00 0.  1.
         21   -1    0    0  503  502 -0.00000000000E+00 -0.00000000000E+00 -0.25163839467E+03  0.25163839467E+03  0.00000000000E+00 0.  1.
         21    1    1    2  503  501 -0.13427568720E+03 -0.11065846160E+03  0.12152392129E+03  0.21223411305E+03  0.00000000000E+00 0.  1.
         21    1    1    2  504  505  0.40774216449E+02  0.10059938770E+03 -0.71019491984E+01  0.10878056451E+03  0.00000000000E+00 0.  1.
         21    1    1    2  505  506  0.59668301592E+02  0.21627564032E+02  0.45853535780E+01  0.63632406903E+02  0.00000000000E+00 0. -1.
         21    1    1    2  506  502  0.33833169163E+02 -0.11568490132E+02 -0.11612846041E+03  0.12150857014E+03  0.00000000000E+00 0.  1.
<scales pt_clust_3="167.91657" pt_clust_4="54.45026" pt_clust_5="54.45026" pt_clust_6="35.75630"></scales>
<clustering>
<clus scale="   35.756">  2  6  1 -1</clus>
<clus scale="   54.450">  4  5 -1 -1</clus>
<clus scale="  167.917">  1  3  2 -1</clus>
<clus scale="  167.917">  1  3  2 -1</clus>
</clustering>
</event>
<event>
 6    0  0.6687079E+002  0.1307644E+03  0.7546771E-02  0.1226326E+00
         21   -1    0    0  506  501  0.00000000000E+00  0.00000000000E+00  0.83168990763E+03  0.83168990763E+03  0.00000000000E+00 0. -1.
         21   -1    0    0  503  502 -0.00000000000E+00 -0.00000000000E+00 -0.15756686648E+03  0.15756686648E+03  0.00000000000E+00 0.  1.
         21    1    1    2  503  505 -0.45867529603E+02 -0.49698975371E+01  0.15006131274E+03  0.15699340029E+03  0.00000000000E+00 0. -1.
         21    1    1    2  504  502  0.93663347313E+01 -0.36352646558E+02 -0.13142615933E+03  0.13668240009E+03  0.00000000000E+00 0.  1.
         21    1    1    2  505  501 -0.72780911017E+02 -0.68661108191E+01  0.82289274431E+02  0.11007147302E+03  0.00000000000E+00 0.  1.
         21    1    1    2  506  504  0.10928210589E+03  0.48188654914E+02  0.57319861331E+03  0.58550950071E+03  0.00000000000E+00 0. -1.
<scales pt_clust_3="44.18292" pt_clust_4="37.53989" pt_clust_5="44.18292" pt_clust_6="118.23716"></scales>
<clustering>
<clus scale="   37.540">  2  4  1 -1</clus>
<clus scale="   44.183">  3  5 -1 -1</clus>
<clus scale="  118.237">  1  6  2 -1</clus>
<clus scale="  118.237">  1  3  2 -1</clus>
</clustering>
</event>
<event>
 6    0  0.6687079E+002  0.8290170E+02  0.7546771E-02  0.1321013E+00
         21   -1    0    0  504  501  0.00000000000E+00  0.00000000000E+00  0.17950252610E+04  0.17950252610E+04  0.00000000000E+00 0. -1.
         21   -1    0    0  505  502 -0.00000000000E+00 -0.00000000000E+00 -0.74245963199E+02  0.74245963199E+02  0.00000000000E+00 0. -1.
         21    1    1    2  503  501  0.23884492445E+02  0.20220296595E+02  0.20077849913E+03  0.20320269459E+03  0.00000000000E+00 0. -1.
         21    1    1    2  504  506  0.68447279159E+02 -0.23133372435E+02  0.10439881016E+04  0.10464852312E+04  0.00000000000E+00 0. -1.
         21    1    1    2  505  503 -0.18699310865E+02 -0.54592009911E+02 -0.55415521575E+02  0.80005198608E+02  0.00000000000E+00 0. -1.
         21    1    1    2  506  502 -0.73632460738E+02  0.57505085751E+02  0.53142821871E+03  0.53957809982E+03  0.00000000000E+00 0. -1.
<scales pt_clust_3="31.29424" pt_clust_4="14000.00000" pt_clust_5="57.49850" pt_clust_6="82.90170"></scales>
<clustering>
<clus scale="   31.294">  1  3  2 -1</clus>
<clus scale="   57.498">  2  5  1 -1</clus>
<clus scale="   82.902">  2  6  1 -1</clus>
<clus scale="   31.294">  1  3  2 -1</clus>
</clustering>
</event>
<event>
 6    0  0.6687079E+002  0.2909955E+03  0.7546771E-02  0.1089831E+00
         21   -1    0    0  504  501  0.00000000000E+00  0.00000000000E+00  0.15580580923E+03  0.15580580923E+03  0.00000000000E+00 0. -1.
         21   -1    0    0  503  502 -0.00000000000E+00 -0.00000000000E+00 -0.16147627760E+04  0.16147627760E+04  0.00000000000E+00 0. -1.
         21    1    1    2  503  501  0.48773655174E+02 -0.15461825467E+02 -0.79690404245E+03  0.79854492069E+03  0.00000000000E+00 0. -1.
         21    1    1    2  504  506 -0.68193734916E+01 -0.27037322718E+03 -0.32805742410E+02  0.27244155807E+03  0.00000000000E+00 0. -1.
         21    1    1    2  505  502 -0.39325553355E+00  0.24431937931E+03 -0.54049299301E+03  0.59314820175E+03  0.00000000000E+00 0. -1.
         21    1    1    2  506  505 -0.41561026148E+02  0.41515673335E+02 -0.88754188934E+02  0.10643390475E+03  0.00000000000E+00 0. -1.
<scales pt_clust_3="51.16578" pt_clust_4="273.27112" pt_clust_5="49.03774" pt_clust_6="49.03774"></scales>
<clustering>
<clus scale="   49.038">  5  6 -1 -1</clus>
<clus scale="   51.166">  2  3  1 -1</clus>
<clus scale="  273.271">  1  4  2 -1</clus>
<clus scale="  273.271">  1  3  2 -1</clus>
</clustering>
</event>
<event>
 6    0  0.6687079E+002  0.1193513E+03  0.7546771E-02  0.1244171E+00
         21   -1    0    0  503  501  0.00000000000E+00  0.00000000000E+00  0.54812805378E+03  0.54812805378E+03  0.00000000000E+00 0.  1.
         21   -1    0    0  506  502 -0.00000000000E+00 -0.00000000000E+00 -0.18953881130E+03  0.18953881130E+03  0.00000000000E+00 0. -1.
         21    1    1    2  503  504 -0.33280590559E+02 -0.80650187070E+02  0.78839164900E+02  0.11759108939E+03  0.00000000000E+00 0.  1.
         21    1    1    2  504  502  0.16820931090E+01  0.32917292808E+02  0.61808746156E+01  0.33534770225E+02  0.00000000000E+00 0.  1.
         21    1    1    2  505  501  0.13463108343E+02 -0.59733083172E+02  0.40851673429E+03  0.41308016015E+03  0.00000000000E+00 0.  1.
         21    1    1    2  506  505  0.18135389107E+02  0.10746597743E+03 -0.13494753133E+03  0.17346084531E+03  0.00000000000E+00 0. -1.
<scales pt_clust_3="14000.00000" pt_clust_4="32.96024" pt_clust_5="60.81977" pt_clust_6="119.35135"></scales>
<clustering>
<clus scale="   32.960">  2  4  1 -1</clus>
<clus scale="   60.820">  1  5  2 -1</clus>
<clus scale="  119.351">  2  6  1 -1</clus>
<clus scale="   60.820">  1  3  2 -1</clus>
</clustering>
</event>
<event>
 6    0  0.6687079E+002  0.2678278E+03  0.7546771E-02  0.1102529E+00
         21   -1    0    0  506  501  0.00000000000E+00  0.00000000000E+00  0.75156855251E+03  0.75156855251E+03  0.00000000000E+00 0.  1.
         21   -1    0    0  505  502 -0.00000000000E+00 -0.00000000000E+00 -0.61734837482E+03  0.61734837482E+03  0.00000000000E+00 0.  1.
         21    1    1    2  503  504 -0.12407234609E+03  0.29968622785E+02  0.39188725728E+03  0.41215007926E+03  0.00000000000E+00 0. -1.
         21    1    1    2  504  502  0.19123397764E+03  0.43375718836E+02 -0.50349999251E+03  0.54033705189E+03  0.00000000000E+00 0.  1.
         21    1    1    2  505  501  0.58057433445E+02 -0.12722388897E+03  0.52895660700E+01  0.13994485704E+03  0.00000000000E+00 0.  1.
         21    1    1    2  506  503 -0.12521906500E+03  0.53879547345E+02  0.24054334684E+03  0.27648493914E+03  0.00000000000E+00 0.  1.
<scales pt_clust_3="68.92050" pt_clust_4="258.18355" pt_clust_5="139.84486" pt_clust_6="68.92050"></scales>
<clustering>
<clus scale="   68.920">  3  6 -1 -1</clus>
<clus scale="  139.845">  2  5  1 -1</clus>
<clus scale="  258.184">  2  4  1 -1</clus>
<clus scale="  267.828">  1  3  2 -1</clus>
</clustering>
</event>
<event>
 6    0  0.6687079E+002  0.1641621E+03  0.7546771E-02  0.1184076E+00
         21   -1    0    0  502  501  0.00000000000E+00  0.00000000000E+00  0.47565061240E+02  0.47565061240E+02  0.00000000000E+00 0.  1.
         21   -1    0    0  505  502 -0.00000000000E+00 -0.00000000000E+00 -0.97322435257E+03  0.97322435257E+03  0.00000000000E+00 0. -1.
         21    1    1    2  503  504 -0.33817048252E+02  0.13401618654E+03 -0.26961789562E+03  0.30298141963E+03  0.00000000000E+00 0. -1.
         21    1    1    2  504  506 -0.75502963337E+01 -0.91621680682E+02 -0.13054191364E+03  0.15966443111E+03  0.00000000000E+00 0.  1.
         21    1    1    2  505  503  0.10317145335E+01  0.36300476066E+02 -0.41514058052E+03  0.41672591783E+03  0.00000000000E+00 0. -1.
         21    1    1    2  506  501  0.40335630052E+02 -0.78694981919E+02 -0.11035890154E+03  0.14141764523E+03  0.00000000000E+00 0.  1.
<scales pt_clust_3="156.25180" pt_clust_4="49.99015" pt_clust_5="36.31513" pt_clust_6="49.99015"></scales>
<clustering>
<clus scale="   36.315">  2  5  1 -1</clus>
<clus scale="   49.990">  4  6 -1 -1</clus>
<clus scale="  156.252">  2  3  1 -1</clus>
<clus scale="  164.162">  1  3  2 -1</clus>
</clustering>
</event>
<event>
 6    0  0.6687079E+002  0.1609137E+03  0.7546771E-02  0.1187669E+00
         21   -1    0    0  506  501  0.00000000000E+00  0.00000000000E+00  0.39280219706E+03  0.39280219706E+03  0.00000000000E+00 0.  1.
         21   -1    0    0  504  502 -0.00000000000E+00 -0.00000000000E+00 -0.13263112898E+03  0.13263112898E+03  0.00000000000E+00 0.  1.
         21    1    1    2  503  505 -0.17445935743E+03 -0.20912860003E+02  0.17900420292E+03  0.25083046021E+03  0.00000000000E+00 0.  1.
         21    1    1    2  504  503  0.14992361378E+03  0.44640365372E+02 -0.79360512878E+01  0.15662960480E+03  0.00000000000E+00 0.  1.
         21    1    1    2  505  501  0.35580361401E+02  0.11050181056E+02  0.62698213555E+02  0.72932397477E+02  0.00000000000E+00 0.  1.
         21    1    1    2  506  502 -0.11044617752E+02 -0.34777686424E+02  0.26404702893E+02  0.45040863548E+02  0.00000000000E+00 0.  1.
<scales pt_clust_3="160.91373" pt_clust_4="14000.00000" pt_clust_5="33.77661" pt_clust_6="36.48933"></scales>
<clustering>
<clus scale="   36.489">  1  6  2 -1</clus>
<clus scale="   33.777">  1  5  2 -1</clus>
<clus scale="  160.914">  1  3  2 -1</clus>
<clus scale="   36.489">  1  3  2 -1</clus>
</clustering>
</event>
<event>
 6    0  0.6687079E+002  0.7504833E+02  0.7546771E-02  0.1343721E+00
         21   -1    0    0  505  501  0.00000000000E+00  0.00000000000E+00  0.90778277870E+03  0.90778277870E+03  0.00000000000E+00 0. -1.
         21   -1    0    0  506  502 -0.00000000000E+00 -0.00000000000E+00 -0.10420333903E+03  0.10420333903E+03  0.00000000000E+00 0.  1.
         21    1    1    2  503  504 -0.72149602023E+02  0.26131766431E+02  0.28939683872E+02  0.82011825925E+02  0.00000000000E+00 0.  1.
         21    1    1    2  504  502 -0.40262584715E+02 -0.34315560273E+02 -0.53129318047E+02  0.74975715007E+02  0.00000000000E+00 0.  1.
         21    1    1    2  505  503  0.70489351018E+02  0.29017242937E+02  0.79307479982E+03  0.79672980809E+03  0.00000000000E+00 0. -1.
         21    1    1    2  506  501  0.41922835719E+02 -0.20833449095E+02  0.34694274030E+02  0.58268768705E+02  0.00000000000E+00 0. -1.
<scales pt_clust_3="14000.00000" pt_clust_4="50.02630" pt_clust_5="75.04833" pt_clust_6="46.81407"></scales>
<clustering>
<clus scale="   46.814">  2  6  1 -1</clus>
<clus scale="   50.026">  2  4  1 -1</clus>
<clus scale="   75.048">  1  5  2 -1</clus>
<clus scale="   75.048">  1  3  2 -1</clus>
</clustering>
</event>
<event>
 6    0  0.6687079E+002  0.9642348E+02  0.7546771E-02  0.1288002E+00
         21   -1    0    0  505  501  0.00000000000E+00  0.00000000000E+00  0.53506465040E+03  0.53506465040E+03  0.00000000000E+00 0. -1.
         21   -1    0    0  506  502 -0.00000000000E+00 -0.00000000000E+00 -0.70205125243E+03  0.70205125243E+03  0.00000000000E+00 0.  1.
         21    1    1    2  503  502 -0.40289872904E+02  0.60509450887E+02 -0.17618715100E+03  0.19059532964E+03  0.00000000000E+00 0.  1.
         21    1    1    2  504  501 -0.31212309832E+02 -0.57709109092E+02 -0.20125405067E+03  0.21167839396E+03  0.00000000000E+00 0.  1.
         21    1    1    2  505  503  0.67653488885E+02  0.44813552125E+02  0.51764128372E+03  0.52396349837E+03  0.00000000000E+00 0. -1.
         21    1    1    2  506  504  0.38486938502E+01 -0.47613893920E+02 -0.30718668409E+03  0.31087868087E+03  0.00000000000E+00 0.  1.
<scales pt_clust_3="72.69572" pt_clust_4="44.43794" pt_clust_5="81.14970" pt_clust_6="44.43794"></scales>
<clustering>
<clus scale="   44.438">  4  6 -1 -1</clus>
<clus scale="   72.696">  2  3  1 -1</clus>
<clus scale="   81.150">  1  5  2 -1</clus>
<clus scale="   81.150">  1  3  2 -1</clus>
</clustering>
</event>
<event>
 6    0  0.6687079E+002  0.6764633E+02  0.7546771E-02  0.1368285E+00
         21   -1    0    0  503  501  0.00000000000E+00  0.00000000000E+00  0.58007190291E+03  0.58007190291E+03  0.00000000000E+00 0. -1.
         21   -1    0    0  506  502 -0.00000000000E+00 -0.00000000000E+00 -0.41044242399E+03  0.41044242399E+03  0.00000000000E+00 0. -1.
         21    1    1    2  503  502 -0.43108346775E+02 -0.28942129766E+02 -0.10411494515E+03  0.11634387925E+03  0.00000000000E+00 0.  1.
         21    1    1    2  504  501 -0.63474211972E+02 -0.22491999468E+02  0.54874899284E+03  0.55286555578E+03  0.00000000000E+00 0. -1.
         21    1    1    2  505  504  0.64138342309E+02  0.70269853676E+02 -0.91439179871E+02  0.13195720104E+03  0.00000000000E+00 0. -1.
         21    1    1    2  506  505  0.42444216438E+02 -0.18835724442E+02 -0.18356538889E+03  0.18934769083E+03  0.00000000000E+00 0. -1.
<scales pt_clust_3="44.20272" pt_clust_4="67.64633" pt_clust_5="14000.00000" pt_clust_6="46.43593"></scales>
<clustering>
<clus scale="   46.436">  2  6  1 -1</clus>
<clus scale="   44.203">  2  3  1 -1</clus>
<clus scale="   67.646">  1  4  2 -1</clus>
<clus scale="   67.646">  1  3  2 -1</clus>
</clustering>
</event>
<event>
 6    0  0.6687079E+002  0.1264425E+03  0.7546771E-02  0.1232832E+00
         21   -1    0    0  503  501  0.00000000000E+00  0.00000000000E+00  0.57423802667E+03  0.57423802667E+03  0.00000000000E+00 0.  1.
         21   -1    0    0  504  502 -0.00000000000E+00 -0.00000000000E+00 -0.13014784305E+03  0.13014784305E+03  0.00000000000E+00 0.  1.
         21    1    1    2  503  502  0.38650323152E+02 -0.18791620101E+02  0.27508703281E+03  0.27842386408E+03  0.00000000000E+00 0.  1.
         21    1    1    2  504  506 -0.20610175205E+02 -0.24834542634E+02 -0.54066875834E+02  0.62966347299E+02  0.00000000000E+00 0.  1.
         21    1    1    2  505  501  0.21644416195E+01 -0.10518597029E+03  0.17700596538E+03  0.20591232341E+03  0.00000000000E+00 0. -1.
         21    1    1    2  506  505 -0.20204589566E+02  0.14881213302E+03  0.46064061267E+02  0.15708333494E+03  0.00000000000E+00 0.  1.
<scales pt_clust_3="42.80385" pt_clust_4="32.27280" pt_clust_5="14000.00000" pt_clust_6="126.44251"></scales>
<clustering>
<clus scale="   32.273">  2  4  1 -1</clus>
<clus scale="   42.804">  1  3  2 -1</clus>
<clus scale="  126.443">  2  6  1 -1</clus>
<clus scale="   42.804">  1  3  2 -1</clus>
</clustering>
</event>
<event>
 6    0  0.6687079E+002  0.1284203E+03  0.7546771E-02  0.1229819E+00
         21   -1    0    0  504  501  0.00000000000E+00  0.00000000000E+00  0.11598929096E+04  0.11598929096E+04  0.00000000000E+00 0.  1.
         21   -1    0    0  503  502 -0.00000000000E+00 -0.00000000000E+00 -0.98004315099E+02  0.98004315099E+02  0.00000000000E+00 0. -1.
         21    1    1    2  503  505 -0.15206034220E+01 -0.11780744076E+03 -0.36513343873E+02  0.12334556990E+03  0.00000000000E+00 0. -1.
         21    1    1    2  504  502 -0.70999413094E+02 -0.33418465861E+02  0.14056394872E+03  0.16098426693E+03  0.00000000000E+00 0. -1.
         21    1    1    2  505  506  0.26816285307E+02  0.63039508956E+02  0.52666390714E+03  0.53110070978E+03  0.00000000000E+00 0.  1.
         21    1    1    2  506  501  0.45703731210E+02  0.88186397669E+02  0.43117408255E+03  0.44246667811E+03  0.00000000000E+00 0.  1.
<scales pt_clust_3="119.33297" pt_clust_4="78.47108" pt_clust_5="39.40588" pt_clust_6="39.40588"></scales>
<clustering>
<clus scale="   39.406">  5  6 -1 -1</clus>
<clus scale="   78.471">  1  4  2 -1</clus>
<clus scale="  119.333">  2  3  1 -1</clus>
<clus scale="   78.471">  1  3  2 -1</clus>
</clustering>
</event>
<event>
 6    0  0.6687079E+002  0.1746374E+03  0.7546771E-02  0.1173096E+00
         21   -1    0    0  506  501  0.00000000000E+00  0.00000000000E+00  0.38045940284E+03  0.38045940284E+03  0.00000000000E+00 0. -1.
         21   -1    0    0  505  502 -0.00000000000E+00 -0.00000000000E+00 -0.14647890526E+04  0.14647890526E+04  0.00000000000E+00 0. -1.
         21    1    1    2  503  502 -0.32996544514E+02 -0.27669114050E+02 -0.22552911684E+02  0.48610550785E+02  0.00000000000E+00 0.  1.
         21    1    1    2  504  503 -0.96603194959E+02 -0.44081827399E+02  0.38455936362E+02  0.11293468831E+03  0.00000000000E+00 0. -1.
         21    1    1    2  505  501  0.11686926647E+03  0.11533108497E+03 -0.13853234208E+04  0.13950199514E+04  0.00000000000E+00 0. -1.
         21    1    1    2  506  504  0.12730473005E+02 -0.43580143520E+02  0.28509074631E+03  0.28868326499E+03  0.00000000000E+00 0. -1.
<scales pt_clust_3="39.76757" pt_clust_4="39.76757" pt_clust_5="163.09063" pt_clust_6="45.40147"></scales>
<clustering>
<clus scale="   39.768">  3  4 -1 -1</clus>
<clus scale="   45.401">  1  6  2 -1</clus>
<clus scale="  163.091">  2  5  1 -1</clus>
<clus scale="   45.401">  1  3  2 -1</clus>
</clustering>
</event>
<event>
 6    0  0.6687079E+002  0.9484469E+02  0.7546771E-02  0.1291526E+00
         21   -1    0    0  503  501  0.00000000000E+00  0.00000000000E+00  0.23666118574E+03  0.23666118574E+03  0.00000000000E+00 0.  1.
         21   -1    0    0  505  502 -0.00000000000E+00 -0.00000000000E+00 -0.16021625572E+03  0.16021625572E+03  0.00000000000E+00 0.  1.
         21    1    1    2  503  502 -0.34879320771E+02  0.68713963685E+02 -0.26008449403E+02  0.81330285030E+02  0.00000000000E+00 0.  1.
         21    1    1    2  504  501 -0.42145768693E+02 -0.33270194903E+02  0.10029987358E+03  0.11376834502E+03  0.00000000000E+00 0.  1.
         21    1    1    2  505  506  0.20393103053E+02  0.49029624864E+02 -0.61924851291E+02  0.81574934715E+02  0.00000000000E+00 0.  1.
         21    1    1    2  506  504  0.56631986411E+02 -0.84473393646E+02  0.64078357142E+02  0.12020387670E+03  0.00000000000E+00 0.  1.
<scales pt_clust_3="14000.00000" pt_clust_4="50.20275" pt_clust_5="53.10163" pt_clust_6="94.84469"></scales>
<clustering>
<clus scale="   53.102">  2  5  1 -1</clus>
<clus scale="   50.203">  1  4  2 -1</clus>
<clus scale="   94.845">  1  6  2 -1</clus>
<clus scale="   50.203">  1  3  2 -1</clus>
</clustering>
</event>
<event>
 6    0  0.6687079E+002  0.1243739E+03  0.7546771E-02  0.1236051E+00
         21   -1    0    0  506  501  0.00000000000E+00  0.00000000000E+00  0.11677129103E+03  0.11677129103E+03  0.00000000000E+00 0. -1.
         21   -1    0    0  504  502 -0.00000000000E+00 -0.00000000000E+00 -0.37203568252E+03  0.37203568252E+03  0.00000000000E+00 0. -1.
         21    1    1    2  503  505 -0.74926429131E+02 -0.48357207962E+02 -0.19086335226E+03  0.21066848027E+03  0.00000000000E+00 0. -1.
         21    1    1    2  504  501  0.54532323381E+02  0.53055996840E+02  0.46283341658E+02  0.89055380573E+02  0.00000000000E+00 0. -1.
         21    1    1    2  505  502 -0.56392659014E+02  0.57849397399E+01 -0.94058354777E+02  0.10982063386E+03  0.00000000000E+00 0.  1.
         21    1    1    2  506  503  0.76786764764E+02 -0.10483728618E+02 -0.16626026107E+02  0.79262478846E+02  0.00000000000E+00 0. -1.
<scales pt_clust_3="39.67168" pt_clust_4="76.08359" pt_clust_5="39.67168" pt_clust_6="113.98719"></scales>
<clustering>
<clus scale="   39.672">  3  5 -1 -1</clus>
<clus scale="   76.084">  1  4  2 -1</clus>
<clus scale="  113.987">  1  6  2 -1</clus>
<clus scale="   76.084">  1  3  2 -1</clus>
</clustering>
</event>
<event>
 6    0  0.6687079E+002  0.7700679E+02  0.7546771E-02  0.1337767E+00
         21   -1    0    0  504  501  0.00000000000E+00  0.00000000000E+00  0.11830918053E+04  0.11830918053E+04  0.00000000000E+00 0.  1.
         21   -1    0    0  505  502 -0.00000000000E+00 -0.00000000000E+00 -0.41062596300E+02  0.41062596300E+02  0.00000000000E+00 0. -1.
         21    1    1    2  503  502 -0.14473775151E+02  0.48381221036E+02  0.16485316935E+03  0.17241461702E+03  0.00000000000E+00 0.  1.
         21    1    1    2  504  503 -0.11016026693E+02  0.73288392865E+02  0.79762249012E+03  0.80105816151E+03  0.00000000000E+00 0.  1.
         21    1    1    2  505  506 -0.21283837168E+02 -0.28561601123E+02 -0.76518616989E+01  0.36432372566E+02  0.00000000000E+00 0. -1.
         21    1    1    2  506  501  0.46773639012E+02 -0.93108012777E+02  0.18720541121E+03  0.21424925049E+03  0.00000000000E+00 0.  1.
<scales pt_clust_3="46.62066" pt_clust_4="14000.00000" pt_clust_5="35.61975" pt_clust_6="77.00679"></scales>
<clustering>
<clus scale="   35.620">  2  5  1 -1</clus>
<clus scale="   46.621">  2  3  1 -1</clus>
<clus scale="   77.007">  2  6  1 -1</clus>
<clus scale="   77.007">  1  3  2 -1</clus>
</clustering>
</event>
<event>
 6    0  0.6687079E+002  0.1065136E+03  0.7546771E-02  0.1267166E+00
         21   -1    0    0  505  501  0.00000000000E+00  0.00000000000E+00  0.46491488021E+02  0.46491488021E+02  0.00000000000E+00 0.  1.
         21   -1    0    0  506  502 -0.00000000000E+00 -0.00000000000E+00 -0.10305403085E+04  0.10305403085E+04  0.00000000000E+00 0.  1.
         21    1    1    2  503  501  0.59577508862E+01 -0.55800978037E+02 -0.22183203661E+02  0.60343503960E+02  0.00000000000E+00 0.  1.
         21    1    1    2  504  503  0.68888612894E+02 -0.75911337230E+02 -0.16282993545E+03  0.19241039469E+03  0.00000000000E+00 0.  1.
         21    1    1    2  505  502 -0.13260603088E+02  0.43317865151E+02 -0.49744681015E+02  0.67281604654E+02  0.00000000000E+00 0.  1.
         21    1    1    2  506  504 -0.61585760692E+02  0.88394450116E+02 -0.74929100031E+03  0.75699629317E+03  0.00000000000E+00 0.  1.
<scales pt_clust_3="33.89927" pt_clust_4="106.51358" pt_clust_5="45.30211" pt_clust_6="14000.00000"></scales>
<clustering>
<clus scale="   45.302">  1  5  2 -1</clus>
<clus scale="   33.899">  1  3  2 -1</clus>
<clus scale="  106.514">  1  4  2 -1</clus>
<clus scale="   45.302">  1  3  2 -1</clus>
</clustering>
</event>
<event>
 6    0  0.6687079E+002  0.1594825E+03  0.7546771E-02  0.1189282E+00
         21   -1    0    0  503  501  0.00000000000E+00  0.00000000000E+00  0.27077963401E+04  0.27077963401E+04  0.00000000000E+00 0.  1.
         21   -1    0    0  504  502 -0.00000000000E+00 -0.00000000000E+00 -0.83839257733E+02  0.83839257733E+02  0.00000000000E+00 0.  1.
         21    1    1    2  503  505  0.33057908400E+02 -0.18117274336E+01  0.19349770530E+04  0.19352602676E+04  0.00000000000E+00 0.  1.
         21    1    1    2  504  501 -0.86967886607E+02  0.11151828938E+03 -0.10792736755E+02  0.14183167958E+03  0.00000000000E+00 0.  1.
         21    1    1    2  505  506  0.48746622413E+02 -0.20975938881E+02  0.32994392272E+03  0.33418440321E+03  0.00000000000E+00 0. -1.
         21    1    1    2  506  502  0.51633557932E+01 -0.88730623063E+02  0.36982884343E+03  0.38035924748E+03  0.00000000000E+00 0.  1.
<scales pt_clust_3="33.10752" pt_clust_4="139.59151" pt_clust_5="65.59612" pt_clust_6="65.59612"></scales>
<clustering>
<clus scale="   33.108">  1  3  2 -1</clus>
<clus scale="   65.596">  5  6 -1 -1</clus>
<clus scale="  139.592">  2  4  1 -1</clus>
<clus scale="   33.108">  1  3  2 -1</clus>
</clustering>
</event>
<event>
 6    0  0.6687079E+002  0.1312547E+03  0.7546771E-02  0.1225606E+00
         21   -1    0    0  504  501  0.00000000000E+00  0.00000000000E+00  0.43680440525E+03  0.43680440525E+03  0.00000000000E+00 0. -1.
         21   -1    0    0  506  502 -0.00000000000E+00 -0.00000000000E+00 -0.11631417971E+03  0.11631417971E+03  0.00000000000E+00 0.  1.
         21    1    1    2  503  502  0.61227158839E+02  0.11821263739E+03  0.10133529287E+03  0.16730760353E+03  0.00000000000E+00 0. -1.
         21    1    1    2  504  503  0.83968566191E+01 -0.59075013874E+02  0.15227240193E+03  0.16354586163E+03  0.00000000000E+00 0. -1.
         21    1    1    2  505  501 -0.33821694511E+02  0.67053201115E+02  0.49502327163E+02  0.89947313433E+02  0.00000000000E+00 0. -1.
         21    1    1    2  506  505 -0.35802320947E+02 -0.12619082463E+03  0.17380203572E+02  0.13231780637E+03  0.00000000000E+00 0.  1.
<scales pt_clust_3="131.25466" pt_clust_4="59.66879" pt_clust_5="61.15517" pt_clust_6="14000.00000"></scales>
<clustering>
<clus scale="   59.669">  1  4  2 -1</clus>
<clus scale="   61.155">  1  5  2 -1</clus>
<clus scale="  131.255">  1  3  2 -1</clus>
<clus scale="   59.669">  1  3  2 -1</clus>
</clustering>
</event>
<event>
 6    0  0.6687079E+002  0.1516945E+03  0.7546771E-02  0.1198406E+00
         21   -1    0    0  504  501  0.00000000000E+00  0.00000000000E+00  0.39779202677E+03  0.39779202677E+03  0.00000000000E+00 0. -1.
         21   -1    0    0  503  502 -0.00000000000E+00 -0.00000000000E+00 -0.20192498051E+03  0.20192498051E+03  0.00000000000E+00 0. -1.
         21    1    1    2  503  506 -0.20190543249E+02  0.59302880519E+02 -0.39205022115E+02  0.73902120630E+02  0.00000000000E+00 0. -1.
         21    1    1    2  504  502  0.11913987114E+02 -0.28867621172E+02  0.24455591207E+03  0.24654183573E+03  0.00000000000E+00 0. -1.
         21    1    1    2  505  501 -0.19061036614E+02 -0.12042045781E+03  0.82906152997E+02  0.14743757994E+03  0.00000000000E+00 0. -1.
         21    1    1    2  506  505  0.27337592750E+02  0.89985198459E+02 -0.92389996681E+02  0.13183547097E+03  0.00000000000E+00 0. -1.
<scales pt_clust_3="41.67167" pt_clust_4="31.22952" pt_clust_5="142.61322" pt_clust_6="41.67167"></scales>
<clustering>
<clus scale="   31.230">  1  4  2 -1</clus>
<clus scale="   41.672">  3  6 -1 -1</clus>
<clus scale="  142.613">  1  5  2 -1</clus>
<clus scale="   31.230">  1  3  2 -1</clus>
</clustering>
</event>
<event>
 6    0  0.6687079E+002  0.2015941E+03  0.7546771E-02  0.1148401E+00
         21   -1    0    0  505  501  0.00000000000E+00  0.00000000000E+00  0.59211343178E+03  0.59211343178E+03  0.00000000000E+00 0.  1.
         21   -1    0    0  506  502 -0.00000000000E+00 -0.00000000000E+00 -0.19476138761E+03  0.19476138761E+03  0.00000000000E+00 0.  1.
         21    1    1    2  503  502  0.13269010211E+03 -0.62613297338E+02 -0.33868861899E+02  0.15057950727E+03  0.00000000000E+00 0.  1.
         21    1    1    2  504  501 -0.18917041580E+03  0.30965312793E+02  0.48041285179E+03  0.51724346779E+03  0.00000000000E+00 0.  1.
         21    1    1    2  505  503  0.72538564430E+02  0.44960719976E+00 -0.39741379063E+02  0.82712893106E+02  0.00000000000E+00 0.  1.
         21    1    1    2  506  504 -0.16058250746E+02  0.31198377345E+02 -0.94505666642E+01  0.36338951227E+02  0.00000000000E+00 0.  1.
<scales pt_clust_3="39.37074" pt_clust_4="193.94958" pt_clust_5="39.37074" pt_clust_6="35.08855"></scales>
<clustering>
<clus scale="   35.089">  2  6  1 -1</clus>
<clus scale="   39.371">  3  5 -1 -1</clus>
<clus scale="  193.950">  1  4  2 -1</clus>
<clus scale="  193.950">  1  3  2 -1</clus>
</clustering>
</event>
<event>
 6    0  0.6687079E+002  0.8094191E+02  0.7546771E-02  0.1326399E+00
         21   -1    0    0  505  501  0.00000000000E+00  0.00000000000E+00  0.43632956943E+02  0.43632956943E+02  0.00000000000E+00 0. -1.
         21   -1    0    0  503  502 -0.00000000000E+00 -0.00000000000E+00 -0.19178105519E+04  0.19178105519E+04  0.00000000000E+00 0. -1.
         21    1    1    2  503  506 -0.50253340812E+02 -0.27820704360E+02 -0.15266046076E+04  0.15276848556E+04  0.00000000000E+00 0. -1.
         21    1    1    2  504  501  0.67456028655E+02  0.33757121534E+02 -0.72445010520E+02  0.10458555639E+03  0.00000000000E+00 0. -1.
         21    1    1    2  505  502 -0.81549061933E+02 -0.29264216773E+02 -0.65382694899E+02  0.10854280574E+03  0.00000000000E+00 0. -1.
         21    1    1    2  506  504  0.64346374091E+02  0.23327799598E+02 -0.20974528185E+03  0.22063029110E+03  0.00000000000E+00 0.  1.
<scales pt_clust_3="57.44032" pt_clust_4="80.94191" pt_clust_5="14000.00000" pt_clust_6="37.52902"></scales>
<clustering>
<clus scale="   57.440">  2  3  1 -1</clus>
<clus scale="   37.529">  2  6  1 -1</clus>
<clus scale="   80.942">  2  4  1 -1</clus>
<clus scale="   80.942">  1  3  2 -1</clus>
</clustering>
</event>
<event>
 6    0  0.6687079E+002  0.1557565E+03  0.7546771E-02  0.1193573E+00
         21   -1    0    0  506  501  0.00000000000E+00  0.00000000000E+00  0.10904294253E+03  0.10904294253E+03  0.00000000000E+00 0.  1.
         21   -1    0    0  504  502 -0.00000000000E+00 -0.00000000000E+00 -0.42475752300E+03  0.42475752300E+03  0.00000000000E+00 0.  1.
         21    1    1    2  503  505 -0.31670829405E+02 -0.55648875111E+02 -0.22972356229E+02  0.68026229405E+02  0.00000000000E+00 0.  1.
         21    1    1    2  504  503  0.70328247898E+02  0.18577804677E+02 -0.18540080768E+03  0.19915987740E+03  0.00000000000E+00 0.  1.
         21    1    1    2  505  501 -0.12390141254E+03 -0.38350961446E+02 -0.48392275333E+02  0.13843470875E+03  0.00000000000E+00 0.  1.
         21    1    1    2  506  502  0.85243994051E+02  0.75422031881E+02 -0.58949141231E+02  0.12817964997E+03  0.00000000000E+00 0.  1.
<scales pt_clust_3="47.10440" pt_clust_4="72.74062" pt_clust_5="47.10440" pt_clust_6="140.59008"></scales>
<clustering>
<clus scale="   47.104">  3  5 -1 -1</clus>
<clus scale="   72.741">  2  4  1 -1</clus>
<clus scale="  140.590">  1  6  2 -1</clus>
<clus scale="  140.590">  1  3  2 -1</clus>
</clustering>
</event>
<event>
 6    0  0.6687079E+002  0.1026799E+03  0.7546771E-02  0.1274759E+00
         21   -1    0    0  503  501  0.00000000000E+00  0.00000000000E+00  0.15037613588E+02  0.15037613588E+02  0.00000000000E+00 0.  1.
         21   -1    0    0  506  502 -0.00000000000E+00 -0.00000000000E+00 -0.17460900212E+04  0.17460900212E+04  0.00000000000E+00 0. -1.
         21    1    1    2  503  504 -0.10145991110E+03 -0.53810346087E+02 -0.74129414623E+03  0.75013777278E+03  0.00000000000E+00 0. -1.
         21    1    1    2  504  502  0.52696042305E+01 -0.32968565119E+02 -0.32229823883E+03  0.32402291550E+03  0.00000000000E+00 0.  1.
         21    1    1    2  505  501  0.30292321629E+02  0.14262402965E+02 -0.41207513596E+02  0.53095198132E+02  0.00000000000E+00 0.  1.
         21    1    1    2  506  505  0.65897985241E+02  0.72516508241E+02 -0.62625250898E+03  0.63387174840E+03  0.00000000000E+00 0. -1.
<scales pt_clust_3="102.67989" pt_clust_4="33.38705" pt_clust_5="33.19159" pt_clust_6="14000.00000"></scales>
<clustering>
<clus scale="   33.387">  2  4  1 -1</clus>
<clus scale="   33.192">  1  5  2 -1</clus>
<clus scale="  102.680">  1  3  2 -1</clus>
<clus scale="   33.192">  1  3  2 -1</clus>
</clustering>
</event>
<event>
 6    0  0.6687079E+002  0.6223473E+02  0.7546771E-02  0.1388686E+00
         21   -1    0    0  505  501  0.00000000000E+00  0.00000000000E+00  0.27546252787E+03  0.27546252787E+03  0.00000000000E+00 0. -1.
         21   -1    0    0  503  502 -0.00000000000E+00 -0.00000000000E+00 -0.25336937670E+03  0.25336937670E+03  0.00000000000E+00 0.  1.
         21    1    1    2  503  504 -0.36227896088E+02 -0.49012679209E+02 -0.20641815645E+03  0.21522815450E+03  0.00000000000E+00 0.  1.
         21    1    1    2  504  501  0.97019332417E+02  0.40358879721E+02  0.71024775393E+02  0.12683102442E+03  0.00000000000E+00 0. -1.
         21    1    1    2  505  506 -0.18959792908E+02  0.32111636417E+02  0.12069972375E+03  0.12632915046E+03  0.00000000000E+00 0. -1.
         21    1    1    2  506  502 -0.41831643420E+02 -0.23457836929E+02  0.36786808470E+02  0.60443575192E+02  0.00000000000E+00 0. -1.
<scales pt_clust_3="62.23473" pt_clust_4="14000.00000" pt_clust_5="37.29116" pt_clust_6="49.67906"></scales>
<clustering>
<clus scale="   37.291">  1  5  2 -1</clus>
<clus scale="   49.679">  1  6  2 -1</clus>
<clus scale="   62.235">  2  3  1 -1</clus>
<clus scale="   37.291">  1  3  2 -1</clus>
</clustering>
</event>
<event>
 6    0  0.6687079E+002  0.1911380E+03  0.7546771E-02  0.1157439E+00
         21   -1    0    0  506  501  0.00000000000E+00  0.00000000000E+00  0.51995710880E+03  0.51995710880E+03  0.00000000000E+00 0.  1.
         21   -1    0    0  501  502 -0.00000000000E+00 -0.00000000000E+00 -0.71524477650E+02  0.71524477650E+02  0.00000000000E+00 0.  1.
         21    1    1    2  503  504 -0.75907979783E+02  0.77595664793E+02  0.14049482357E+03  0.17754409041E+03  0.00000000000E+00 0.  1.
         21    1    1    2  504  505  0.41338003502E+02 -0.36124232682E+02  0.85777126025E+02  0.10184059146E+03  0.00000000000E+00 0. -1.
         21    1    1    2  505  502  0.67001515372E+02 -0.10929825879E+03  0.79531373923E+02  0.15086600636E+03  0.00000000000E+00 0.  1.
         21    1    1    2  506  503 -0.32431539092E+02  0.67826826679E+02  0.14262930763E+03  0.16123089822E+03  0.00000000000E+00 0.  1.
<scales pt_clust_3="186.03553" pt_clust_4="39.52713" pt_clust_5="39.52713" pt_clust_6="34.55557"></scales>
<clustering>
<clus scale="   34.556">  3  6 -1 -1</clus>
<clus scale="   39.527">  4  5 -1 -1</clus>
<clus scale="  186.036">  1  3  2 -1</clus>
<clus scale="  186.036">  1  3  2 -1</clus>
</clustering>
</event>
<event>
 6    0  0.6687079E+002  0.3061612E+03  0.7546771E-02  0.1082201E+00
         21   -1    0    0  506  501  0.00000000000E+00  0.00000000000E+00  0.48108575498E+03  0.48108575498E+03  0.00000000000E+00 0.  1.
         21   -1    0    0  504  502 -0.00000000000E+00 -0.00000000000E+00 -0.14483201004E+04  0.14483201004E+04  0.00000000000E+00 0.  1.
         21    1    1    2  503  501  0.19815124435E+03  0.44804883079E+02  0.36125896533E+03  0.41446282489E+03  0.00000000000E+00 0.  1.
         21    1    1    2  504  503 -0.25468360480E+03 -0.92515417441E+02 -0.68821125815E+03  0.73963340708E+03  0.00000000000E+00 0.  1.
         21    1    1    2  505  502 -0.46884192246E+02 -0.19424268564E+02 -0.64967651385E+03  0.65165558567E+03  0.00000000000E+00 0.  1.
         21    1    1    2  506  505  0.10341655269E+03  0.67134802926E+02  0.93944612885E+01  0.12365403769E+03  0.00000000000E+00 0.  1.
<scales pt_clust_3="14000.00000" pt_clust_4="306.16117" pt_clust_5="50.74869" pt_clust_6="119.72445"></scales>
<clustering>
<clus scale="   50.749">  2  5  1 -1</clus>
<clus scale="  119.724">  1  6  2 -1</clus>
<clus scale="  306.161">  2  4  1 -1</clus>
<clus scale="  119.724">  1  3  2 -1</clus>
</clustering>
</event>
<event>
 6    0  0.6687079E+002  0.1420744E+03  0.7546771E-02  0.1210565E+00
         21   -1    0    0  506  501  0.00000000000E+00  0.00000000000E+00  0.88546295489E+03  0.88546295489E+03  0.00000000000E+00 0.  1.
         21   -1    0    0  504  502 -0.00000000000E+00 -0.00000000000E+00 -0.29740164584E+02  0.29740164584E+02  0.00000000000E+00 0.  1.
         21    1    1    2  503  501 -0.98008220468E+02  0.85367729029E+02  0.28146660284E+03  0.31002694875E+03  0.00000000000E+00 0.  1.
         21    1    1    2  504  503  0.19117523699E+02  0.29944027801E+02  0.54521775656E+02  0.65074945517E+02  0.00000000000E+00 0.  1.
         21    1    1    2  505  502  0.27664377714E+02 -0.73617226967E+02  0.32847001792E+03  0.33775341090E+03  0.00000000000E+00 0.  1.
         21    1    1    2  506  505  0.51226319055E+02 -0.41694529862E+02  0.19126439389E+03  0.20234781430E+03  0.00000000000E+00 0.  1.
<scales pt_clust_3="134.61132" pt_clust_4="35.52639" pt_clust_5="42.56149" pt_clust_6="42.56149"></scales>
<clustering>
<clus scale="   35.526">  2  4  1 -1</clus>
<clus scale="   42.561">  5  6 -1 -1</clus>
<clus scale="  134.611">  2  3  1 -1</clus>
<clus scale="  142.074">  1  3  2 -1</clus>
</clustering>
</event>
<event>
 6    0  0.6687079E+002  0.6259085E+02  0.7546771E-02  0.1387270E+00
         21   -1    0    0  506  501  0.00000000000E+00  0.00000000000E+00  0.15692780073E+03  0.15692780073E+03  0.00000000000E+00 0. -1.
         21   -1    0    0  504  502 -0.00000000000E+00 -0.00000000000E+00 -0.24507766625E+03  0.24507766625E+03  0.00000000000E+00 0. -1.
         21    1    1    2  503  502  0.99710540204E+02 -0.11665759045E+01 -0.16013317337E+03  0.18864301191E+03  0.00000000000E+00 0. -1.
         21    1    1    2  504  505 -0.41724922952E+02 -0.21524863749E+01 -0.14035970229E+02  0.44075059311E+02  0.00000000000E+00 0. -1.
         21    1    1    2  505  501 -0.40357617753E+02 -0.53445667683E+02  0.87060414640E+02  0.10983939413E+03  0.00000000000E+00 0. -1.
         21    1    1    2  506  503 -0.17627999499E+02  0.56764729962E+02 -0.10411365631E+01  0.59448001643E+02  0.00000000000E+00 0. -1.
<scales pt_clust_3="62.59085" pt_clust_4="41.78041" pt_clust_5="14000.00000" pt_clust_6="61.14689"></scales>
<clustering>
<clus scale="   41.780">  2  4  1 -1</clus>
<clus scale="   61.147">  1  6  2 -1</clus>
<clus scale="   62.591">  2  3  1 -1</clus>
<clus scale="   61.147">  1  3  2 -1</clus>
</clustering>
</event>
<event>
 6    0  0.6687079E+002  0.1240003E+03  0.7546771E-02  0.1236640E+00
         21   -1    0    0  503  501  0.00000000000E+00  0.00000000000E+00  0.13769140757E+04  0.13769140757E+04  0.00000000000E+00 0. -1.
         21   -1    0    0  505  502 -0.00000000000E+00 -0.00000000000E+00 -0.27572197069E+03  0.27572197069E+03  0.00000000000E+00 0. -1.
         21    1    1    2  503  504 -0.66466971270E+02  0.11155015844E+02  0.19531216097E+03  0.20661348667E+03  0.00000000000E+00 0. -1.
         21    1    1    2  504  502  0.12887192540E+03  0.16710193132E+01 -0.22783708197E+03  0.26176420951E+03  0.00000000000E+00 0. -1.
         21    1    1    2  505  506 -0.89696832097E+02  0.55461398915E+02  0.91998052341E+02  0.13994688311E+03  0.00000000000E+00 0. -1.
         21    1    1    2  506  501  0.27291877967E+02 -0.68287434072E+02  0.10417189737E+04  0.10443114671E+04  0.00000000000E+00 0. -1.
<scales pt_clust_3="67.39653" pt_clust_4="14000.00000" pt_clust_5="124.00031" pt_clust_6="66.42463"></scales>
<clustering>
<clus scale="   67.397">  1  3  2 -1</clus>
<clus scale="   66.425">  1  6  2 -1</clus>
<clus scale="  124.000">  1  5  2 -1</clus>
<clus scale="   67.397">  1  3  2 -1</clus>
</clustering>
</event>
<event>
 6    0  0.6687079E+002  0.1481603E+03  0.7546771E-02  0.1202752E+00
         21   -1    0    0  506  501  0.00000000000E+00  0.00000000000E+00  0.15509921761E+03  0.15509921761E+03  0.00000000000E+00 0. -1.
         21   -1    0    0  503  502 -0.00000000000E+00 -0.00000000000E+00 -0.10117340913E+04  0.10117340913E+04  0.00000000000E+00 0. -1.
         21    1    1    2  503  504 -0.23075443733E+01 -0.80246651548E+02 -0.34158681378E+03  0.35089371780E+03  0.00000000000E+00 0. -1.
         21    1    1    2  504  505  0.48453689112E+02  0.20431494760E+03 -0.45588053964E+03  0.50191575411E+03  0.00000000000E+00 0. -1.
         21    1    1    2  505  501 -0.77206953879E+02 -0.12125103330E+03  0.84680376039E+02  0.16683372827E+03  0.00000000000E+00 0. -1.
         21    1    1    2  506  502  0.31060809140E+02 -0.28172627548E+01 -0.14384789627E+03  0.14719010869E+03  0.00000000000E+00 0. -1.
<scales pt_clust_3="81.99815" pt_clust_4="148.16026" pt_clust_5="14000.00000" pt_clust_6="31.18831"></scales>
<clustering>
<clus scale="   31.188">  2  6  1 -1</clus>
<clus scale="   81.998">  2  3  1 -1</clus>
<clus scale="  148.160">  2  4  1 -1</clus>
<clus scale="  148.160">  1  3  2 -1</clus>
</clustering>
</event>
<event>
 6    0  0.6687079E+002  0.8850825E+02  0.7546771E-02  0.1306505E+00
         21   -1    0    0  504  501  0.00000000000E+00  0.00000000000E+00  0.36402678844E+02  0.36402678844E+02  0.00000000000E+00 0. -1.
         21   -1    0    0  505  502 -0.00000000000E+00 -0.00000000000E+00 -0.78850016902E+03  0.78850016902E+03  0.00000000000E+00 0. -1.
         21    1    1    2  503  502  0.59385441185E+02 -0.52356801717E+02 -0.11016276041E+03  0.13566023401E+03  0.00000000000E+00 0. -1.
         21    1    1    2  504  503  0.30157008424E+02  0.16376806695E+02 -0.42778307575E+02  0.54841850384E+02  0.00000000000E+00 0. -1.
         21    1    1    2  505  506 -0.97793043858E+02 -0.93287691578E+01 -0.57315699475E+03  0.58151478570E+03  0.00000000000E+00 0. -1.
         21    1    1    2  506  501  0.82505942489E+01  0.45308764180E+02 -0.25999427441E+02  0.52885977766E+02  0.00000000000E+00 0. -1.
<scales pt_clust_3="88.50825" pt_clust_4="34.31683" pt_clust_5="14000.00000" pt_clust_6="56.82289"></scales>
<clustering>
<clus scale="   34.317">  1  4  2 -1</clus>
<clus scale="   56.823">  1  6  2 -1</clus>
<clus scale="   88.508">  1  3  2 -1</clus>
<clus scale="   34.317">  1  3  2 -1</clus>
</clustering>
</event>
<event>
 6    0  0.6687079E+002  0.1158913E+03  0.7546771E-02  0.1250033E+00
         21   -1    0    0  504  501  0.00000000000E+00  0.00000000000E+00  0.14521345067E+04  0.14521345067E+04  0.00000000000E+00 0.  1.
         21   -1    0    0  506  502 -0.00000000000E+00 -0.00000000000E+00 -0.10787375242E+03  0.10787375242E+03  0.00000000000E+00 0.  1.
         21    1    1    2  503  502 -0.11617993142E+03 -0.16032342179E+02 -0.56514345769E+02  0.13018711050E+03  0.00000000000E+00 0.  1.
         21    1    1    2  504  503  0.99408621228E+02  0.10981294540E+02  0.41588208038E+03  0.42773890118E+03  0.00000000000E+00 0. -1.
         21    1    1    2  505  501  0.29492412755E+02 -0.75661484718E+02  0.72782066154E+03  0.73233692932E+03  0.00000000000E+00 0.  1.
         21    1    1    2  506  505 -0.12721102558E+02  0.80712532357E+02  0.25707235812E+03  0.26974531810E+03  0.00000000000E+00 0.  1.
<scales pt_clust_3="115.89131" pt_clust_4="14000.00000" pt_clust_5="81.20630" pt_clust_6="53.14715"></scales>
<clustering>
<clus scale="   81.206">  1  5  2 -1</clus>
<clus scale="   53.147">  1  6  2 -1</clus>
<clus scale="  115.891">  2  3  1 -1</clus>
<clus scale="   81.206">  1  3  2 -1</clus>
</clustering>
</event>
<event>
 6    0  0.6687079E+002  0.8895149E+02  0.7546771E-02  0.1305411E+00
         21   -1    0    0  506  501  0.00000000000E+00  0.00000000000E+00  0.15273814420E+04  0.15273814420E+04  0.00000000000E+00 0. -1.
         21   -1    0    0  504  502 -0.00000000000E+00 -0.00000000000E+00 -0.45962482049E+02  0.45962482049E+02  0.00000000000E+00 0. -1.
         21    1    1    2  503  502  0.36617757602E+02  0.13786199794E+02 -0.81954919871E+01  0.39976062406E+02  0.00000000000E+00 0. -1.
         21    1    1    2  504  505 -0.12378391349E+03  0.55278282627E+01  0.21239096019E+03  0.24589211881E+03  0.00000000000E+00 0. -1.
         21    1    1    2  505  501  0.52886301338E+02 -0.54283610040E+02  0.31430952341E+03  0.32331741013E+03  0.00000000000E+00 0. -1.
         21    1    1    2  506  503  0.34279854547E+02  0.34969581983E+02  0.96291396829E+03  0.96415833265E+03  0.00000000000E+00 0. -1.
<scales pt_clust_3="39.12697" pt_clust_4="14000.00000" pt_clust_5="88.95149" pt_clust_6="49.98040"></scales>
<clustering>
<clus scale="   39.127">  2  3  1 -1</clus>
<clus scale="   49.980">  1  6  2 -1</clus>
<clus scale="   88.951">  1  5  2 -1</clus>
<clus scale="   49.980">  1  3  2 -1</clus>
</clustering>
</event>
<event>
 6    0  0.6687079E+002  0.1352472E+03  0.7546771E-02  0.1219871E+00
         21   -1    0    0  506  501  0.00000000000E+00  0.00000000000E+00  0.36730823800E+03  0.36730823800E+03  0.00000000000E+00 0. -1.
         21   -1    0    0  504  502 -0.00000000000E+00 -0.00000000000E+00 -0.69925173042E+03  0.69925173042E+03  0.00000000000E+00 0.  1.
         21    1    1    2  503  502 -0.15513440924E+02  0.27891351653E+02 -0.33034601534E+02  0.45933421872E+02  0.00000000000E+00 0.  1.
         21    1    1    2  504  505 -0.32690100039E+02  0.30285492523E+02 -0.17595728537E+03  0.18151258902E+03  0.00000000000E+00 0.  1.
         21    1    1    2  505  501 -0.62643936855E+02  0.20042415687E+01 -0.46777037070E+03  0.47195063250E+03  0.00000000000E+00 0.  1.
         21    1    1    2  506  503  0.11084747782E+03 -0.60181085745E+02  0.34481876519E+03  0.36716332503E+03  0.00000000000E+00 0. -1.
<scales pt_clust_3="31.91542" pt_clust_4="41.43958" pt_clust_5="41.43958" pt_clust_6="125.67471"></scales>
<clustering>
<clus scale="   31.915">  2  3  1 -1</clus>
<clus scale="   41.440">  4  5 -1 -1</clus>
<clus scale="  125.675">  1  6  2 -1</clus>
<clus scale="  125.675">  1  3  2 -1</clus>
</clustering>
</event>
<event>
 6    0  0.6687079E+002  0.8785302E+02  0.7546771E-02  0.1308136E+00
         21   -1    0    0  506  501  0.00000000000E+00  0.00000000000E+00  0.64027944136E+02  0.64027944136E+02  0.00000000000E+00 0. -1.
         21   -1    0    0  505  502 -0.00000000000E+00 -0.00000000000E+00 -0.62948072729E+03  0.62948072729E+03  0.00000000000E+00 0. -1.
         21    1    1    2  503  502 -0.13489466764E+02 -0.48654494240E+02 -0.56863130721E+02  0.76043679282E+02  0.00000000000E+00 0. -1.
         21    1    1    2  504  501  0.14791749774E+02 -0.76914648158E+02  0.68831774784E+01  0.78625931440E+02  0.00000000000E+00 0. -1.
         21    1    1    2  505  504 -0.68689883334E+01  0.88544609732E+02 -0.47684170429E+03  0.48504158777E+03  0.00000000000E+00 0. -1.
         21    1    1    2  506  503  0.55667053238E+01  0.37024532666E+02 -0.38631125612E+02  0.53797472927E+02  0.00000000000E+00 0.  1.
<scales pt_clust_3="44.18186" pt_clust_4="14000.00000" pt_clust_5="87.85302" pt_clust_6="37.44068"></scales>
<clustering>
<clus scale="   37.441">  1  6  2 -1</clus>
<clus scale="   44.182">  1  3  2 -1</clus>
<clus scale="   87.853">  2  5  1 -1</clus>
<clus scale="   37.441">  1  3  2 -1</clus>
</clustering>
</event>
<event>
 6    0  0.6687079E+002  0.1023308E+03  0.7546771E-02  0.1275469E+00
         21   -1    0    0  506  501  0.00000000000E+00  0.00000000000E+00  0.26413748411E+02  0.26413748411E+02  0.00000000000E+00 0.  1.
         21   -1    0    0  505  502 -0.00000000000E+00 -0.00000000000E+00 -0.31837109744E+04  0.31837109744E+04  0.00000000000E+00 0.  1.
         21    1    1    2  503  501  0.32579222475E+02 -0.15445269116E+02 -0.68344231760E+01  0.36697021886E+02  0.00000000000E+00 0. -1.
         21    1    1    2  504  503 -0.53802160879E+02 -0.24350891465E+01 -0.27071639404E+03  0.27602168062E+03  0.00000000000E+00 0.  1.
         21    1    1    2  505  504  0.85634677311E+02  0.61742891938E+02 -0.26927874139E+04  0.26948561259E+04  0.00000000000E+00 0.  1.
         21    1    1    2  506  502 -0.64411738907E+02 -0.43862533676E+02 -0.18695899486E+03  0.20254989442E+03  0.00000000000E+00 0.  1.
<scales pt_clust_3="36.05499" pt_clust_4="46.66356" pt_clust_5="102.33085" pt_clust_6="14000.00000"></scales>
<clustering>
<clus scale="   36.055">  1  3  2 -1</clus>
<clus scale="   46.664">  1  4  2 -1</clus>
<clus scale="  102.331">  2  5  1 -1</clus>
<clus scale="   36.055">  1  3  2 -1</clus>
</clustering>
</event>
<event>
 6    0  0.6687079E+002  0.1123390E+03  0.7546771E-02  0.1256299E+00
         21   -1    0    0  503  501  0.00000000000E+00  0.00000000000E+00  0.27342721940E+03  0.27342721940E+03  0.00000000000E+00 0. -1.
         21   -1    0    0  506  502 -0.00000000000E+00 -0.00000000000E+00 -0.35670328356E+03  0.35670328356E+03  0.00000000000E+00 0. -1.
         21    1    1    2  503  504 -0.63828441164E+02 -0.47833700933E+02  0.11809761559E+03  0.14251027912E+03  0.00000000000E+00 0. -1.
         21    1    1    2  504  502 -0.63628575408E+02 -0.51334293669E+02 -0.24368216687E+03  0.25703074478E+03  0.00000000000E+00 0. -1.
         21    1    1    2  505  501  0.16373784128E+03  0.80302370062E+02  0.49731606760E+02  0.18902852699E+03  0.00000000000E+00 0. -1.
         21    1    1    2  506  505 -0.36280824711E+02  0.18865624540E+02 -0.74231196515E+01  0.41560952063E+02  0.00000000000E+00 0. -1.
<scales pt_clust_3="80.42543" pt_clust_4="112.33898" pt_clust_5="14000.00000" pt_clust_6="40.89266"></scales>
<clustering>
<clus scale="   40.893">  2  6  1 -1</clus>
<clus scale="   80.425">  1  3  2 -1</clus>
<clus scale="  112.339">  2  4  1 -1</clus>
<clus scale="   80.425">  1  3  2 -1</clus>
</clustering>
</event>
<event>
 6    0  0.6687079E+002  0.2048132E+03  0.7546771E-02  0.1145740E+00
         21   -1    0    0  505  501  0.00000000000E+00  0.00000000000E+00  0.26963732209E+03  0.26963732209E+03  0.00000000000E+00 0.  1.
         21   -1    0    0  506  502 -0.00000000000E+00 -0.00000000000E+00 -0.29212423786E+03  0.29212423786E+03  0.00000000000E+00 0. -1.
         21    1    1    2  503  504  0.16498715905E+03 -0.44935077084E+02 -0.31234363558E+02  0.17382608916E+03  0.00000000000E+00 0. -1.
         21    1    1    2  504  502  0.67777129619E+02  0.14988086483E+02 -0.52417281078E+02  0.86982488993E+02  0.00000000000E+00 0. -1.
         21    1    1    2  505  503 -0.17678991496E+03 -0.24031293703E+02  0.10955301019E+03  0.20936580225E+03  0.00000000000E+00 0.  1.
         21    1    1    2  506  501 -0.55974373712E+02  0.53978284304E+02 -0.48388281329E+02  0.91587179555E+02  0.00000000000E+00 0. -1.
<scales pt_clust_3="49.13577" pt_clust_4="49.13577" pt_clust_5="189.73923" pt_clust_6="77.76108"></scales>
<clustering>
<clus scale="   49.136">  3  4 -1 -1</clus>
<clus scale="   77.761">  2  6  1 -1</clus>
<clus scale="  189.739">  1  5  2 -1</clus>
<clus scale="  189.739">  1  3  2 -1</clus>
</clustering>
</event>
<event>
 6    0  0.6687079E+002  0.2768831E+03  0.7546771E-02  0.1097404E+00
         21   -1    0    0  503  501  0.00000000000E+00  0.00000000000E+00  0.22853454949E+03  0.22853454949E+03  0.00000000000E+00 0. -1.
         21   -1    0    0  505  502 -0.00000000000E+00 -0.00000000000E+00 -0.45321209754E+03  0.45321209754E+03  0.00000000000E+00 0. -1.
         21    1    1    2  503  504  0.41952266669E+02 -0.67290349270E+02  0.15305335037E+02  0.80760368153E+02  0.00000000000E+00 0.  1.
         21    1    1    2  504  502  0.19059112880E+03 -0.95697436286E+02 -0.68777544216E+02  0.22408330656E+03  0.00000000000E+00 0. -1.
         21    1    1    2  505  506 -0.22496836128E+03  0.10593483992E+03 -0.19360487322E+03  0.31514409532E+03  0.00000000000E+00 0. -1.
         21    1    1    2  506  501 -0.75750341973E+01  0.57052945640E+02  0.22399534349E+02  0.61758877000E+02  0.00000000000E+00 0. -1.
<scales pt_clust_3="55.70685" pt_clust_4="55.70685" pt_clust_5="259.29771" pt_clust_6="57.55362"></scales>
<clustering>
<clus scale="   57.554">  1  6  2 -1</clus>
<clus scale="   55.707">  3  4 -1 -1</clus>
<clus scale="  259.298">  2  5  1 -1</clus>
<clus scale="   57.554">  1  3  2 -1</clus>
</clustering>
</event>
<event>
 6    0  0.6687079E+002  0.1048040E+03  0.7546771E-02  0.1270506E+00
         21   -1    0    0  505  501  0.00000000000E+00  0.00000000000E+00  0.38571295274E+02  0.38571295274E+02  0.00000000000E+00 0. -1.
         21   -1    0    0  506  502 -0.00000000000E+00 -0.00000000000E+00 -0.87810058205E+03  0.87810058205E+03  0.00000000000E+00 0. -1.
         21    1    1    2  503  502 -0.19198873051E+02  0.10732139885E+03 -0.35423360804E+03  0.37063179632E+03  0.00000000000E+00 0. -1.
         21    1    1    2  504  503 -0.41812300186E+02 -0.10673124305E+03 -0.35400360864E+03  0.37209996187E+03  0.00000000000E+00 0. -1.
         21    1    1    2  505  504  0.34598242845E+02  0.27862896452E+02 -0.85938004965E+01  0.45246356910E+02  0.00000000000E+00 0. -1.
         21    1    1    2  506  501  0.26412930392E+02 -0.28453052254E+02 -0.12269826959E+03  0.12869376222E+03  0.00000000000E+00 0. -1.
<scales pt_clust_3="104.80401" pt_clust_4="14000.00000" pt_clust_5="44.54179" pt_clust_6="38.82292"></scales>
<clustering>
<clus scale="   38.823">  2  6  1 -1</clus>
<clus scale="   44.542">  1  5  2 -1</clus>
<clus scale="  104.804">  2  3  1 -1</clus>
<clus scale="   44.542">  1  3  2 -1</clus>
</clustering>
</event>
<event>
 6    0  0.6687079E+002  0.1126686E+03  0.7546771E-02  0.1255706E+00
         21   -1    0    0  506  501  0.00000000000E+00  0.00000000000E+00  0.49149706597E+03  0.49149706597E+03  0.00000000000E+00 0.  1.
         21   -1    0    0  503  502 -0.00000000000E+00 -0.00000000000E+00 -0.34262358851E+03  0.34262358851E+03  0.00000000000E+00 0. -1.
         21    1    1    2  503  504 -0.80389840854E+01  0.12535317814E+03 -0.94640723014E+02  0.15727336389E+03  0.00000000000E+00 0.  1.
         21    1    1    2  504  501  0.11994416784E+02  0.35303194166E+02  0.15570244460E+03  0.16010444343E+03  0.00000000000E+00 0.  1.
         21    1    1    2  505  502 -0.47741923025E+02 -0.31010717462E+02 -0.19469070380E+03  0.20284335325E+03  0.00000000000E+00 0. -1.
         21    1    1    2  506  505  0.43786490326E+02 -0.12964565485E+03  0.28250245967E+03  0.31389949391E+03  0.00000000000E+00 0.  1.
<scales pt_clust_3="14000.00000" pt_clust_4="37.28514" pt_clust_5="56.57220" pt_clust_6="112.66864"></scales>
<clustering>
<clus scale="   37.285">  1  4  2 -1</clus>
<clus scale="   56.572">  2  5  1 -1</clus>
<clus scale="  112.669">  1  6  2 -1</clus>
<clus scale="   37.285">  1  3  2 -1</clus>
</clustering>
</event>
<event>
 6    0  0.6687079E+002  0.4285339E+03  0.7546771E-02  0.1034324E+00
         21   -1    0    0  506  501  0.00000000000E+00  0.00000000000E+00  0.33000251383E+03  0.33000251383E+03  0.00000000000E+00 0.  1.
         21   -1    0    0  505  502 -0.00000000000E+00 -0.00000000000E+00 -0.15871618370E+04  0.15871618370E+04  0.00000000000E+00 0.  1.
         21    1    1    2  503  504 -0.92195450724E+02  0.36996550618E+03 -0.90510163076E+03  0.98213208832E+03  0.00000000000E+00 0.  1.
         21    1    1    2  504  502 -0.74571229034E+02  0.13413117870E+02 -0.15836941689E+03  0.17556096416E+03  0.00000000000E+00 0.  1.
         21    1    1    2  505  501  0.21249111140E+03 -0.45913962350E+03 -0.32485781174E+03  0.60124393065E+03  0.00000000000E+00 0.  1.
         21    1    1    2  506  503 -0.45724431643E+02  0.75760999447E+02  0.13116953617E+03  0.15822736775E+03  0.00000000000E+00 0.  1.
<scales pt_clust_3="14000.00000" pt_clust_4="75.76793" pt_clust_5="428.53386" pt_clust_6="88.96795"></scales>
<clustering>
<clus scale="   75.768">  2  4  1 -1</clus>
<clus scale="   88.968">  1  6  2 -1</clus>
<clus scale="  428.534">  1  5  2 -1</clus>
<clus scale="   88.968">  1  3  2 -1</clus>
</clustering>
</event>
<event>
 6    0  0.6687079E+002  0.1240832E+03  0.7546771E-02  0.1236509E+00
         21   -1    0    0  503  501  0.00000000000E+00  0.00000000000E+00  0.42706601939E+03  0.42706601939E+03  0.00000000000E+00 0.  1.
         21   -1    0    0  506  502 -0.00000000000E+00 -0.00000000000E+00 -0.15626567711E+03  0.15626567711E+03  0.00000000000E+00 0.  1.
         21    1    1    2  503  505  0.23432388346E+02  0.10351530018E+03  0.55315540383E+02  0.11968418109E+03  0.00000000000E+00 0.  1.
         21    1    1    2  504  501 -0.33034139460E+02 -0.26593664737E+02  0.15856346297E+03  0.16413667830E+03  0.00000000000E+00 0.  1.
         21    1    1    2  505  502 -0.16841694908E+02  0.91856711145E+02 -0.41673176470E+02  0.10226412717E+03  0.00000000000E+00 0.  1.
         21    1    1    2  506  504  0.26443446022E+02 -0.16877834659E+03  0.98594515404E+02  0.19724670994E+03  0.00000000000E+00 0.  1.
<scales pt_clust_3="14000.00000" pt_clust_4="42.40846" pt_clust_5="91.18394" pt_clust_6="124.08325"></scales>
<clustering>
<clus scale="   42.408">  1  4  2 -1</clus>
<clus scale="   91.184">  2  5  1 -1</clus>
<clus scale="  124.083">  2  6  1 -1</clus>
<clus scale="   42.408">  1  3  2 -1</clus>
</clustering>
</event>
<event>
 6    0  0.6687079E+002  0.2152629E+03  0.7546771E-02  0.1137465E+00
         21   -1    0    0  503  501  0.00000000000E+00  0.00000000000E+00  0.51467994308E+03  0.51467994308E+03  0.00000000000E+00 0. -1.
         21   -1    0    0  505  502 -0.00000000000E+00 -0.00000000000E+00 -0.56144819156E+03  0.56144819156E+03  0.00000000000E+00 0.  1.
         21    1    1    2  503  502  0.37983452307E+02 -0.19587250477E+03 -0.19160632147E+03  0.27662567343E+03  0.00000000000E+00 0.  1.
         21    1    1    2  504  501  0.57593697634E+02  0.20258689553E+02  0.36119276792E+03  0.36631634430E+03  0.00000000000E+00 0. -1.
         21    1    1    2  505  506 -0.18710253214E+03  0.18459762839E+03 -0.21758319967E+03  0.34121267667E+03  0.00000000000E+00 0.  1.
         21    1    1    2  506  504  0.91525382197E+02 -0.89838131732E+01  0.12285047535E+01  0.91973440238E+02  0.00000000000E+00 0.  1.
<scales pt_clust_3="215.26291" pt_clust_4="61.05283" pt_clust_5="14000.00000" pt_clust_6="109.34254"></scales>
<clustering>
<clus scale="   61.053">  1  4  2 -1</clus>
<clus scale="  109.343">  1  6  2 -1</clus>
<clus scale="  215.263">  2  3  1 -1</clus>
<clus scale="   61.053">  1  3  2 -1</clus>
</clustering>
</event>
<event>
 6    0  0.6687079E+002  0.6663601E+02  0.7546771E-02  0.1371921E+00
         21   -1    0    0  505  501  0.00000000000E+00  0.00000000000E+00  0.37450549064E+03  0.37450549064E+03  0.00000000000E+00 0.  1.
         21   -1    0    0  504  502 -0.00000000000E+00 -0.00000000000E+00 -0.18156530439E+03  0.18156530439E+03  0.00000000000E+00 0. -1.
         21    1    1    2  503  502  0.66972823957E+02  0.62184988577E+02 -0.10938800825E+03  0.14254146169E+03  0.00000000000E+00 0. -1.
         21    1    1    2  504  506 -0.43743780007E+02 -0.23357734103E+00 -0.87270514049E+01  0.44606437583E+02  0.00000000000E+00 0. -1.
         21    1    1    2  505  503  0.29703465657E+02 -0.71638669314E+02  0.30631494458E+02  0.83382751608E+02  0.00000000000E+00 0. -1.
         21    1    1    2  506  501 -0.52932509607E+02  0.96872580782E+01  0.28042375145E+03  0.28554014415E+03  0.00000000000E+00 0.  1.
<scales pt_clust_3="66.63601" pt_clust_4="43.74440" pt_clust_5="14000.00000" pt_clust_6="54.52176"></scales>
<clustering>
<clus scale="   43.744">  2  4  1 -1</clus>
<clus scale="   54.522">  1  6  2 -1</clus>
<clus scale="   66.636">  2  3  1 -1</clus>
<clus scale="   54.522">  1  3  2 -1</clus>
</clustering>
</event>
<event>
 6    0  0.6687079E+002  0.1093651E+03  0.7546771E-02  0.1261750E+00
         21   -1    0    0  505  501  0.00000000000E+00  0.00000000000E+00  0.18391361851E+03  0.18391361851E+03  0.00000000000E+00 0.  1.
         21   -1    0    0  503  502 -0.00000000000E+00 -0.00000000000E+00 -0.22414288732E+04  0.22414288732E+04  0.00000000000E+00 0.  1.
         21    1    1    2  503  506  0.84915104230E+02 -0.69582718729E+02 -0.20266071163E+04  0.20295784620E+04  0.00000000000E+00 0.  1.
         21    1    1    2  504  502 -0.64292324935E+02  0.84845801553E+02 -0.12058651677E+03  0.16085217162E+03  0.00000000000E+00 0.  1.
         21    1    1    2  505  504 -0.73110112127E+02 -0.60184611029E+02  0.12539914582E+03  0.15713758835E+03  0.00000000000E+00 0.  1.
         21    1    1    2  506  501  0.52487332833E+02  0.44921528205E+02 -0.35720767457E+02  0.77774269729E+02  0.00000000000E+00 0.  1.
<scales pt_clust_3="14000.00000" pt_clust_4="109.36508" pt_clust_5="34.80884" pt_clust_6="69.08592"></scales>
<clustering>
<clus scale="   69.086">  1  6  2 -1</clus>
<clus scale="   34.809">  1  5  2 -1</clus>
<clus scale="  109.365">  1  4  2 -1</clus>
<clus scale="   69.086">  1  3  2 -1</clus>
</clustering>
</event>
<event>
 6    0  0.6687079E+002  0.9132079E+02  0.7546771E-02  0.1299684E+00
         21   -1    0    0  505  501  0.00000000000E+00  0.00000000000E+00  0.61949581970E+03  0.61949581970E+03  0.00000000000E+00 0.  1.
         21   -1    0    0  503  502 -0.00000000000E+00 -0.00000000000E+00 -0.43308453930E+02  0.43308453930E+02  0.00000000000E+00 0.  1.
         21    1    1    2  503  501  0.55472142597E+01 -0.34179473687E+02  0.54064603166E+02  0.64202720527E+02  0.00000000000E+00 0.  1.
         21    1    1    2  504  506 -0.83255482263E+02  0.40365612331E+02  0.15539054737E+03  0.18085098893E+03  0.00000000000E+00 0.  1.
         21    1    1    2  505  504 -0.17744079812E+02 -0.38214149393E+02  0.28492279564E+03  0.28802113301E+03  0.00000000000E+00 0.  1.
         21    1    1    2  506  502  0.95452347815E+02  0.32028010749E+02  0.81809419592E+02  0.12972943116E+03  0.00000000000E+00 0.  1.
<scales pt_clust_3="34.62670" pt_clust_4="91.32079" pt_clust_5="43.30122" pt_clust_6="14000.00000"></scales>
<clustering>
<clus scale="   34.627">  2  3  1 -1</clus>
<clus scale="   43.301">  1  5  2 -1</clus>
<clus scale="   91.321">  1  4  2 -1</clus>
<clus scale="   43.301">  1  3  2 -1</clus>
</clustering>
</event>
<event>
 6    0  0.6687079E+002  0.2014926E+03  0.7546771E-02  0.1148486E+00
         21   -1    0    0  506  501  0.00000000000E+00  0.00000000000E+00  0.10835740649E+04  0.10835740649E+04  0.00000000000E+00 0.  1.
         21   -1    0    0  505  502 -0.00000000000E+00 -0.00000000000E+00 -0.32122553346E+03  0.32122553346E+03  0.00000000000E+00 0.  1.
         21    1    1    2  503  504  0.42105535695E+02  0.20157615221E+02  0.65325636349E+02  0.80290997951E+02  0.00000000000E+00 0.  1.
         21    1    1    2  504  502  0.38143408091E+02 -0.46254438179E+02 -0.28135161682E+03  0.28766842878E+03  0.00000000000E+00 0.  1.
         21    1    1    2  505  501 -0.21094334048E+03  0.10754881817E+02  0.57695778566E+03  0.61440462791E+03  0.00000000000E+00 0.  1.
         21    1    1    2  506  503  0.13069439669E+03  0.15341941140E+02  0.40141672627E+03  0.42243554374E+03  0.00000000000E+00 0.  1.
<scales pt_clust_3="36.54870" pt_clust_4="59.95325" pt_clust_5="191.92128" pt_clust_6="36.54870"></scales>
<clustering>
<clus scale="   36.549">  3  6 -1 -1</clus>
<clus scale="   59.953">  2  4  1 -1</clus>
<clus scale="  191.921">  2  5  1 -1</clus>
<clus scale="  201.493">  1  3  2 -1</clus>
</clustering>
</event>
<event>
 6    0  0.6687079E+002  0.1149521E+03  0.7546771E-02  0.1251665E+00
         21   -1    0    0  506  501  0.00000000000E+00  0.00000000000E+00  0.26576594019E+03  0.26576594019E+03  0.00000000000E+00 0. -1.
         21   -1    0    0  503  502 -0.00000000000E+00 -0.00000000000E+00 -0.15786757887E+03  0.15786757887E+03  0.00000000000E+00 0. -1.
         21    1    1    2  503  504 -0.50084471882E+02 -0.11787854391E+03 -0.83463052931E+02  0.15287212514E+03  0.00000000000E+00 0. -1.
         21    1    1    2  504  505  0.50839616367E+02  0.70222499449E+02  0.55446485565E+02  0.10290859431E+03  0.00000000000E+00 0. -1.
         21    1    1    2  505  501 -0.39838252948E+02  0.33087254267E+02  0.48294187019E+02  0.70810883999E+02  0.00000000000E+00 0. -1.
         21    1    1    2  506  502  0.39083108463E+02  0.14568790198E+02  0.87620741675E+02  0.97041915617E+02  0.00000000000E+00 0. -1.
<scales pt_clust_3="14000.00000" pt_clust_4="114.95207" pt_clust_5="46.35464" pt_clust_6="41.71018"></scales>
<clustering>
<clus scale="   41.710">  1  6  2 -1</clus>
<clus scale="   46.355">  1  5  2 -1</clus>
<clus scale="  114.952">  1  4  2 -1</clus>
<clus scale="   41.710">  1  3  2 -1</clus>
</clustering>
</event>
<event>
 6    0  0.6687079E+002  0.8401947E+02  0.7546771E-02  0.1318017E+00
         21   -1    0    0  505  501  0.00000000000E+00  0.00000000000E+00  0.45293160045E+03  0.45293160045E+03  0.00000000000E+00 0. -1.
         21   -1    0    0  506  502 -0.00000000000E+00 -0.00000000000E+00 -0.43865904445E+03  0.43865904445E+03  0.00000000000E+00 0.  1.
         21    1    1    2  503  502  0.42122155806E+02 -0.78252752883E+02 -0.17343984373E+03  0.19488239720E+03  0.00000000000E+00 0.  1.
         21    1    1    2  504  501 -0.29140832077E+01  0.87215708532E+02 -0.20289029420E+03  0.22086091365E+03  0.00000000000E+00 0.  1.
         21    1    1    2  505  503 -0.25022668684E+02 -0.50591423127E+02  0.41946373570E+03  0.42324396228E+03  0.00000000000E+00 0. -1.
         21    1    1    2  506  504 -0.14185403914E+02  0.41628467478E+02 -0.28861041766E+02  0.52603371760E+02  0.00000000000E+00 0.  1.
<scales pt_clust_3="14000.00000" pt_clust_4="84.01947" pt_clust_5="56.29418" pt_clust_6="43.97903"></scales>
<clustering>
<clus scale="   43.979">  2  6  1 -1</clus>
<clus scale="   56.294">  1  5  2 -1</clus>
<clus scale="   84.019">  1  4  2 -1</clus>
<clus scale="   56.294">  1  3  2 -1</clus>
</clustering>
</event>
<event>
 6    0  0.6687079E+002  0.8577731E+02  0.7546771E-02  0.1313412E+00
         21   -1    0    0  504  501  0.00000000000E+00  0.00000000000E+00  0.84067417202E+03  0.84067417202E+03  0.00000000000E+00 0. -1.
         21   -1    0    0  505  502 -0.00000000000E+00 -0.00000000000E+00 -0.31221896209E+02  0.31221896209E+02  0.00000000000E+00 0. -1.
         21    1    1    2  503  502 -0.27513703500E+02  0.89813044533E+02  0.88933595633E+02  0.12935444051E+03  0.00000000000E+00 0. -1.
         21    1    1    2  504  503  0.34091034199E+02 -0.48123444326E+02  0.39050129200E+03  0.39492951721E+03  0.00000000000E+00 0. -1.
         21    1    1    2  505  506  0.42444465253E+02 -0.33881970421E+02  0.11856989477E+03  0.13041602853E+03  0.00000000000E+00 0. -1.
         21    1    1    2  506  501 -0.49021795953E+02 -0.78076297857E+01  0.21144749340E+03  0.21719608198E+03  0.00000000000E+00 0. -1.
<scales pt_clust_3="14000.00000" pt_clust_4="85.77731" pt_clust_5="48.21729" pt_clust_6="49.63966"></scales>
<clustering>
<clus scale="   49.640">  1  6  2 -1</clus>
<clus scale="   48.217">  1  5  2 -1</clus>
<clus scale="   85.777">  1  4  2 -1</clus>
<clus scale="   49.640">  1  3  2 -1</clus>
</clustering>
</event>
<event>
 6    0  0.6687079E+002  0.1031465E+03  0.7546771E-02  0.1273815E+00
         21   -1    0    0  504  501  0.00000000000E+00  0.00000000000E+00  0.15292666181E+04  0.15292666181E+04  0.00000000000E+00 0. -1.
         21   -1    0    0  505  502 -0.00000000000E+00 -0.00000000000E+00 -0.45805671410E+02  0.45805671410E+02  0.00000000000E+00 0. -1.
         21    1    1    2  503  501 -0.52541790631E+02  0.16390826579E+02  0.27561737522E+03  0.28105913343E+03  0.00000000000E+00 0. -1.
         21    1    1    2  504  506  0.18064037061E+02 -0.32806237764E+02  0.26142573355E+03  0.26409462856E+03  0.00000000000E+00 0.  1.
         21    1    1    2  505  503 -0.60485794944E+02 -0.30265749996E+02  0.91781549075E+03  0.92030420083E+03  0.00000000000E+00 0. -1.
         21    1    1    2  506  502  0.94963548514E+02  0.46681161182E+02  0.28602347191E+02  0.10961432671E+03  0.00000000000E+00 0. -1.
<scales pt_clust_3="49.43197" pt_clust_4="37.45075" pt_clust_5="14000.00000" pt_clust_6="103.14649"></scales>
<clustering>
<clus scale="   37.451">  1  4  2 -1</clus>
<clus scale="   49.432">  1  3  2 -1</clus>
<clus scale="  103.146">  2  6  1 -1</clus>
<clus scale="   37.451">  1  3  2 -1</clus>
</clustering>
</event>
<event>
 6    0  0.6687079E+002  0.1386804E+03  0.7546771E-02  0.1215116E+00
         21   -1    0    0  506  501  0.00000000000E+00  0.00000000000E+00  0.35705387702E+03  0.35705387702E+03  0.00000000000E+00 0.  1.
         21   -1    0    0  505  502 -0.00000000000E+00 -0.00000000000E+00 -0.11319104595E+03  0.11319104595E+03  0.00000000000E+00 0.  1.
         21    1    1    2  503  501 -0.85232371426E+02  0.63712896143E+02  0.41109432122E+02  0.11407837518E+03  0.00000000000E+00 0.  1.
         21    1    1    2  504  502  0.68548109505E+02 -0.82159060859E+02  0.36477623008E+02  0.11304676722E+03  0.00000000000E+00 0.  1.
         21    1    1    2  505  503 -0.58850835352E+02 -0.46883721010E+01  0.60993095497E-02  0.59037290688E+02  0.00000000000E+00 0.  1.
         21    1    1    2  506  504  0.75535097272E+02  0.23134536817E+02  0.16626967664E+03  0.18408248989E+03  0.00000000000E+00 0.  1.
<scales pt_clust_3="47.31174" pt_clust_4="123.27845" pt_clust_5="47.31174" pt_clust_6="78.99847"></scales>
<clustering>
<clus scale="   47.312">  3  5 -1 -1</clus>
<clus scale="   78.998">  1  6  2 -1</clus>
<clus scale="  123.278">  2  4  1 -1</clus>
<clus scale="   78.998">  1  3  2 -1</clus>
</clustering>
</event>
<event>
 6    0  0.6687079E+002  0.9371570E+02  0.7546771E-02  0.1294095E+00
         21   -1    0    0  505  501  0.00000000000E+00  0.00000000000E+00  0.85765815688E+03  0.85765815688E+03  0.00000000000E+00 0. -1.
         21   -1    0    0  506  502 -0.00000000000E+00 -0.00000000000E+00 -0.14840143747E+03  0.14840143747E+03  0.00000000000E+00 0. -1.
         21    1    1    2  503  501 -0.67635410549E+02 -0.93416881428E+02  0.54125175646E+03  0.55340286082E+03  0.00000000000E+00 0. -1.
         21    1    1    2  504  502  0.30846804472E+02  0.81763707022E+01  0.26694415737E+02  0.41604930183E+02  0.00000000000E+00 0. -1.
         21    1    1    2  505  504  0.50522881118E+02  0.56074635950E+02  0.26898301107E+03  0.27937212917E+03  0.00000000000E+00 0. -1.
         21    1    1    2  506  503 -0.13734275041E+02  0.29165874776E+02 -0.12767246385E+03  0.13167967417E+03  0.00000000000E+00 0. -1.
<scales pt_clust_3="14000.00000" pt_clust_4="31.91204" pt_clust_5="93.71570" pt_clust_6="39.50378"></scales>
<clustering>
<clus scale="   31.912">  2  4  1 -1</clus>
<clus scale="   39.504">  2  6  1 -1</clus>
<clus scale="   93.716">  1  5  2 -1</clus>
<clus scale="   93.716">  1  3  2 -1</clus>
</clustering>
</event>
<event>
 6    0  0.6687079E+002  0.1254828E+03  0.7546771E-02  0.1234317E+00
         21   -1    0    0  506  501  0.00000000000E+00  0.00000000000E+00  0.74651791651E+03  0.74651791651E+03  0.00000000000E+00 0. -1.
         21   -1    0    0  505  502 -0.00000000000E+00 -0.00000000000E+00 -0.42836223814E+02  0.42836223814E+02  0.00000000000E+00 0. -1.
         21    1    1    2  503  502 -0.12822729398E+02 -0.34701520485E+02  0.17877699070E+02  0.41088076582E+02  0.00000000000E+00 0. -1.
         21    1    1    2  504  501  0.29737206076E+02  0.10659937567E+03  0.51531726916E+03  0.52706699405E+03  0.00000000000E+00 0. -1.
         21    1    1    2  505  504 -0.33548346804E+02  0.22520270335E+02  0.26878437803E+02  0.48529419613E+02  0.00000000000E+00 0. -1.
         21    1    1    2  506  503  0.16633870126E+02 -0.94418125518E+02  0.14360828666E+03  0.17266965008E+03  0.00000000000E+00 0. -1.
<scales pt_clust_3="33.61455" pt_clust_4="113.21530" pt_clust_5="40.40612" pt_clust_6="33.61455"></scales>
<clustering>
<clus scale="   33.615">  3  6 -1 -1</clus>
<clus scale="   40.406">  2  5  1 -1</clus>
<clus scale="  113.215">  1  4  2 -1</clus>
<clus scale="  113.215">  1  3  2 -1</clus>
</clustering>
</event>
<event>
 6    0  0.6687079E+002  0.1098018E+03  0.7546771E-02  0.1260937E+00
         21   -1    0    0  506  501  0.00000000000E+00  0.00000000000E+00  0.12435895981E+03  0.12435895981E+03  0.00000000000E+00 0. -1.
         21   -1    0    0  504  502 -0.00000000000E+00 -0.00000000000E+00 -0.21319670957E+03  0.21319670957E+03  0.00000000000E+00 0. -1.
         21    1    1    2  503  502  0.12262007989E+03  0.28997805466E+02 -0.86687959456E+02  0.15294233890E+03  0.00000000000E+00 0. -1.
         21    1    1    2  504  501 -0.27609748798E+02 -0.38545676580E+02 -0.50509366466E+02  0.69276716958E+02  0.00000000000E+00 0. -1.
         21    1    1    2  505  503 -0.49440929254E+02  0.14811981529E+02  0.43964546932E+01  0.51798929489E+02  0.00000000000E+00 0. -1.
         21    1    1    2  506  505 -0.45569401838E+02 -0.52641104148E+01  0.43963121466E+02  0.63537684026E+02  0.00000000000E+00 0.  1.
<scales pt_clust_3="101.04785" pt_clust_4="47.41379" pt_clust_5="40.50310" pt_clust_6="40.50310"></scales>
<clustering>
<clus scale="   40.503">  5  6 -1 -1</clus>
<clus scale="   47.414">  2  4  1 -1</clus>
<clus scale="  101.048">  2  3  1 -1</clus>
<clus scale="  109.802">  1  3  2 -1</clus>
</clustering>
</event>
<event>
 6    0  0.6687079E+002  0.1317779E+03  0.7546771E-02  0.1224841E+00
         21   -1    0    0  503  501  0.00000000000E+00  0.00000000000E+00  0.28026185226E+03  0.28026185226E+03  0.00000000000E+00 0. -1.
         21   -1    0    0  506  502 -0.00000000000E+00 -0.00000000000E+00 -0.14913733002E+03  0.14913733002E+03  0.00000000000E+00 0. -1.
         21    1    1    2  503  505  0.41778222915E+02 -0.30038244347E+02  0.56089611805E+02  0.76116756275E+02  0.00000000000E+00 0.  1.
         21    1    1    2  504  501 -0.35478028654E+02  0.29147385197E+02  0.19952560120E+02  0.50063611898E+02  0.00000000000E+00 0. -1.
         21    1    1    2  505  502  0.10788872716E+03  0.15365455006E+02  0.12711518534E+03  0.16743459918E+03  0.00000000000E+00 0. -1.
         21    1    1    2  506  504 -0.11418892142E+03 -0.14474595856E+02 -0.72032835032E+02  0.13578421493E+03  0.00000000000E+00 0. -1.
<scales pt_clust_3="38.49114" pt_clust_4="45.91580" pt_clust_5="38.49114" pt_clust_6="119.27967"></scales>
<clustering>
<clus scale="   38.491">  3  5 -1 -1</clus>
<clus scale="   45.916">  1  4  2 -1</clus>
<clus scale="  119.280">  2  6  1 -1</clus>
<clus scale="   45.916">  1  3  2 -1</clus>
</clustering>
</event>
<event>
 6    0  0.6687079E+002  0.1231979E+03  0.7546771E-02  0.1237913E+00
         21   -1    0    0  506  501  0.00000000000E+00  0.00000000000E+00  0.14130924482E+03  0.14130924482E+03  0.00000000000E+00 0.  1.
         21   -1    0    0  504  502 -0.00000000000E+00 -0.00000000000E+00 -0.10675204684E+04  0.10675204684E+04  0.00000000000E+00 0. -1.
         21    1    1    2  503  501  0.18051240587E+03 -0.29160124267E+02  0.34055846191E+02  0.18599688756E+03  0.00000000000E+00 0.  1.
         21    1    1    2  504  503 -0.14414812866E+03  0.26246687549E+02 -0.51303385029E+03  0.53354597098E+03  0.00000000000E+00 0. -1.
         21    1    1    2  505  502  0.34932207056E+02 -0.35035044377E+01 -0.40428572713E+03  0.40580719904E+03  0.00000000000E+00 0. -1.
         21    1    1    2  506  505 -0.71296484272E+02  0.64169411562E+01 -0.42947492313E+02  0.83479655602E+02  0.00000000000E+00 0.  1.
<scales pt_clust_3="123.19794" pt_clust_4="14000.00000" pt_clust_5="35.10746" pt_clust_6="68.23489"></scales>
<clustering>
<clus scale="   35.107">  2  5  1 -1</clus>
<clus scale="   68.235">  1  6  2 -1</clus>
<clus scale="  123.198">  1  3  2 -1</clus>
<clus scale="   68.235">  1  3  2 -1</clus>
</clustering>
</event>
<event>
 6    0  0.6687079E+002  0.1434672E+03  0.7546771E-02  0.1208738E+00
         21   -1    0    0  505  501  0.00000000000E+00  0.00000000000E+00  0.24206744824E+03  0.24206744824E+03  0.00000000000E+00 0.  1.
         21   -1    0    0  503  502 -0.00000000000E+00 -0.00000000000E+00 -0.12353807325E+04  0.12353807325E+04  0.00000000000E+00 0.  1.
         21    1    1    2  503  504  0.65288449344E+02 -0.17447687455E+03 -0.25722850624E+03  0.31760237057E+03  0.00000000000E+00 0.  1.
         21    1    1    2  504  501 -0.85525793153E+02 -0.83091079775E+01  0.88576005390E+01  0.86383792792E+02  0.00000000000E+00 0.  1.
         21    1    1    2  505  506 -0.27844126789E+02  0.48915841351E+02  0.15367398730E+03  0.16365741445E+03  0.00000000000E+00 0.  1.
         21    1    1    2  506  502  0.48081470598E+02  0.13387014118E+03 -0.89861636589E+03  0.90980460295E+03  0.00000000000E+00 0.  1.
<scales pt_clust_3="143.46717" pt_clust_4="103.30465" pt_clust_5="56.28548" pt_clust_6="14000.00000"></scales>
<clustering>
<clus scale="   56.285">  1  5  2 -1</clus>
<clus scale="  103.305">  1  4  2 -1</clus>
<clus scale="  143.467">  1  3  2 -1</clus>
<clus scale="   56.285">  1  3  2 -1</clus>
</clustering>
</event>
<event>
 6    0  0.6687079E+002  0.1041814E+03  0.7546771E-02  0.1271741E+00
         21   -1    0    0  504  501  0.00000000000E+00  0.00000000000E+00  0.69931755522E+03  0.69931755522E+03  0.00000000000E+00 0. -1.
         21   -1    0    0  503  502 -0.00000000000E+00 -0.00000000000E+00 -0.67844672287E+03  0.67844672287E+03  0.00000000000E+00 0.  1.
         21    1    1    2  503  501  0.12181778179E+03  0.10232396361E+02 -0.57695515416E+03  0.58976395601E+03  0.00000000000E+00 0.  1.
         21    1    1    2  504  505  0.84746176035E+01 -0.46007520128E+02  0.49421882860E+03  0.49642800242E+03  0.00000000000E+00 0. -1.
         21    1    1    2  505  506 -0.62795003514E+02  0.26296946838E+02  0.17806067713E+03  0.19063144184E+03  0.00000000000E+00 0. -1.
         21    1    1    2  506  502 -0.67497395883E+02  0.94781769292E+01 -0.74453519227E+02  0.10094087782E+03  0.00000000000E+00 0.  1.
<scales pt_clust_3="14000.00000" pt_clust_4="46.78152" pt_clust_5="57.21455" pt_clust_6="104.18135"></scales>
<clustering>
<clus scale="   46.782">  1  4  2 -1</clus>
<clus scale="   57.215">  1  5  2 -1</clus>
<clus scale="  104.181">  1  6  2 -1</clus>
<clus scale="   46.782">  1  3  2 -1</clus>
</clustering>
</event>
<event>
 6    0  0.6687079E+002  0.1637388E+03  0.7546771E-02  0.1184539E+00
         21   -1    0    0  503  501  0.00000000000E+00  0.00000000000E+00  0.10913269022E+03  0.10913269022E+03  0.00000000000E+00 0.  1.
         21   -1    0    0  504  502 -0.00000000000E+00 -0.00000000000E+00 -0.16751103548E+04  0.16751103548E+04  0.00000000000E+00 0.  1.
         21    1    1    2  503  506  0.36547956040E+02 -0.31017995187E+02 -0.20738036945E+02  0.52229639980E+02  0.00000000000E+00 0.  1.
         21    1    1    2  504  505  0.98193363253E+02 -0.43050934425E+01  0.19631923022E+02  0.10022915154E+03  0.00000000000E+00 0.  1.
         21    1    1    2  505  501  0.20741715209E+02  0.24592912996E+02  0.20905047247E+02  0.38367318382E+02  0.00000000000E+00 0.  1.
         21    1    1    2  506  502 -0.15548303450E+03  0.10730175633E+02 -0.15857765979E+04  0.15934169352E+04  0.00000000000E+00 0.  1.
<scales pt_clust_3="47.93609" pt_clust_4="31.38123" pt_clust_5="31.38123" pt_clust_6="154.27836"></scales>
<clustering>
<clus scale="   31.381">  4  5 -1 -1</clus>
<clus scale="   47.936">  1  3  2 -1</clus>
<clus scale="  154.278">  2  6  1 -1</clus>
<clus scale="   47.936">  1  3  2 -1</clus>
</clustering>
</event>
<event>
 6    0  0.6687079E+002  0.2395748E+03  0.7546771E-02  0.1120076E+00
         21   -1    0    0  503  501  0.00000000000E+00  0.00000000000E+00  0.26555294181E+03  0.26555294181E+03  0.00000000000E+00 0.  1.
         21   -1    0    0  504  502 -0.00000000000E+00 -0.00000000000E+00 -0.25622608138E+04  0.25622608138E+04  0.00000000000E+00 0.  1.
         21    1    1    2  503  506 -0.37455967500E+02 -0.49719587132E+01  0.19333821866E+03  0.19699577831E+03  0.00000000000E+00 0.  1.
         21    1    1    2  504  505 -0.25208257197E+03  0.12368621049E+02 -0.20678878732E+04  0.20832327912E+04  0.00000000000E+00 0.  1.
         21    1    1    2  505  501  0.15511947051E+03 -0.34859998026E+02 -0.78004853170E+02  0.17709327122E+03  0.00000000000E+00 0.  1.
         21    1    1    2  506  502  0.13441906896E+03  0.27463335690E+02 -0.34415336423E+03  0.37049191492E+03  0.00000000000E+00 0.  1.
<scales pt_clust_3="37.78452" pt_clust_4="239.57480" pt_clust_5="14000.00000" pt_clust_6="130.14443"></scales>
<clustering>
<clus scale="   37.785">  1  3  2 -1</clus>
<clus scale="  130.144">  1  6  2 -1</clus>
<clus scale="  239.575">  2  4  1 -1</clus>
<clus scale="   37.785">  1  3  2 -1</clus>
</clustering>
</event>
<event>
 6    0  0.6687079E+002  0.1594802E+03  0.7546771E-02  0.1189285E+00
         21   -1    0    0  506  501  0.00000000000E+00  0.00000000000E+00  0.69936841202E+03  0.69936841202E+03  0.00000000000E+00 0. -1.
         21   -1    0    0  505  502 -0.00000000000E+00 -0.00000000000E+00 -0.29432460475E+03  0.29432460475E+03  0.00000000000E+00 0. -1.
         21    1    1    2  503  501  0.31471223349E+02 -0.16057573212E+03  0.59629060489E+03  0.61833444763E+03  0.00000000000E+00 0. -1.
         21    1    1    2  504  503 -0.68216819269E+02  0.11753489169E+03 -0.22977452899E+02  0.13782579054E+03  0.00000000000E+00 0. -1.
         21    1    1    2  505  504  0.37304978961E+02  0.87118082361E+02 -0.16864703856E+03  0.19345036921E+03  0.00000000000E+00 0. -1.
         21    1    1    2  506  502 -0.55938304066E+00 -0.44077241932E+02  0.37769384326E+00  0.44082409399E+02  0.00000000000E+00 0.  1.
<scales pt_clust_3="14000.00000" pt_clust_4="159.48025" pt_clust_5="68.61780" pt_clust_6="44.08079"></scales>
<clustering>
<clus scale="   44.081">  2  6  1 -1</clus>
<clus scale="   68.618">  2  5  1 -1</clus>
<clus scale="  159.480">  2  4  1 -1</clus>
<clus scale="  159.480">  1  3  2 -1</clus>
</clustering>
</event>
<event>
 6    0  0.6687079E+002  0.1074298E+03  0.7546771E-02  0.1265405E+00
         21   -1    0    0  504  501  0.00000000000E+00  0.00000000000E+00  0.13388180673E+04  0.13388180673E+04  0.00000000000E+00 0. -1.
         21   -1    0    0  505  502 -0.00000000000E+00 -0.00000000000E+00 -0.30235946883E+03  0.30235946883E+03  0.00000000000E+00 0. -1.
         21    1    1    2  503  506 -0.74100645340E+02 -0.35961638008E+02 -0.20196658738E+02  0.84805955405E+02  0.00000000000E+00 0. -1.
         21    1    1    2  504  502  0.34089701247E+01 -0.40976432552E+02  0.86311131182E+03  0.86409017220E+03  0.00000000000E+00 0. -1.
         21    1    1    2  505  503 -0.35252228830E+02  0.15791539011E+02 -0.23934479989E+03  0.24244179832E+03  0.00000000000E+00 0. -1.
         21    1    1    2  506  501  0.10594390405E+03  0.61146531549E+02  0.43288874523E+03  0.44983961017E+03  0.00000000000E+00 0. -1.
<scales pt_clust_3="14000.00000" pt_clust_4="40.97029" pt_clust_5="38.62761" pt_clust_6="107.42976"></scales>
<clustering>
<clus scale="   38.628">  2  5  1 -1</clus>
<clus scale="   40.970">  1  4  2 -1</clus>
<clus scale="  107.430">  1  6  2 -1</clus>
<clus scale="   40.970">  1  3  2 -1</clus>
</clustering>
</event>
<event>
 6    0  0.6687079E+002  0.1044051E+03  0.7546771E-02  0.1271296E+00
         21   -1    0    0  505  501  0.00000000000E+00  0.00000000000E+00  0.10017648648E+03  0.10017648648E+03  0.00000000000E+00 0.  1.
         21   -1    0    0  506  502 -0.00000000000E+00 -0.00000000000E+00 -0.44188895822E+03  0.44188895822E+03  0.00000000000E+00 0.  1.
         21    1    1    2  503  502  0.87783166878E+02 -0.49657836487E+02 -0.27885787680E+03  0.29653583352E+03  0.00000000000E+00 0.  1.
         21    1    1    2  504  501 -0.45933094225E+02 -0.38212442389E+02 -0.11267383937E+02  0.60802909793E+02  0.00000000000E+00 0.  1.
         21    1    1    2  505  503  0.33016094837E+02 -0.21476088678E+02  0.67042289025E+01  0.39952867086E+02  0.00000000000E+00 0.  1.
         21    1    1    2  506  504 -0.74866167490E+02  0.10934636755E+03 -0.58291439904E+02  0.14477383430E+03  0.00000000000E+00 0.  1.
<scales pt_clust_3="14000.00000" pt_clust_4="57.29417" pt_clust_5="39.38635" pt_clust_6="104.40508"></scales>
<clustering>
<clus scale="   39.386">  1  5  2 -1</clus>
<clus scale="   57.294">  1  4  2 -1</clus>
<clus scale="  104.405">  1  6  2 -1</clus>
<clus scale="   39.386">  1  3  2 -1</clus>
</clustering>
</event>
<event>
 6    0  0.6687079E+002  0.8313293E+02  0.7546771E-02  0.1320389E+00
         21   -1    0    0  505  501  0.00000000000E+00  0.00000000000E+00  0.40221731314E+03  0.40221731314E+03  0.00000000000E+00 0.  1.
         21   -1    0    0  503  502 -0.00000000000E+00 -0.00000000000E+00 -0.63576903230E+02  0.63576903230E+02  0.00000000000E+00 0. -1.
         21    1    1    2  503  504 -0.34940853964E+02  0.46077257864E+02  0.36455655861E+02  0.68359284756E+02  0.00000000000E+00 0. -1.
         21    1    1    2  504  506  0.50961803845E+02  0.44279088874E+02  0.40290279058E+02  0.78619652436E+02  0.00000000000E+00 0. -1.
         21    1    1    2  505  502  0.52829221841E+02 -0.32501751612E+02  0.27667725120E+02  0.67917549658E+02  0.00000000000E+00 0. -1.
         21    1    1    2  506  501 -0.68850171723E+02 -0.57854595126E+02  0.23422674987E+03  0.25089772952E+03  0.00000000000E+00 0.  1.
<scales pt_clust_3="57.82713" pt_clust_4="14000.00000" pt_clust_5="40.23300" pt_clust_6="83.13293"></scales>
<clustering>
<clus scale="   57.827">  2  3  1 -1</clus>
<clus scale="   40.233">  2  5  1 -1</clus>
<clus scale="   83.133">  1  6  2 -1</clus>
<clus scale="   83.133">  1  3  2 -1</clus>
</clustering>
</event>
<event>
 6    0  0.6687079E+002  0.1232887E+03  0.7546771E-02  0.1237768E+00
         21   -1    0    0  505  501  0.00000000000E+00  0.00000000000E+00  0.36121409123E+03  0.36121409123E+03  0.00000000000E+00 0. -1.
         21   -1    0    0  504  502 -0.00000000000E+00 -0.00000000000E+00 -0.47990728856E+03  0.47990728856E+03  0.00000000000E+00 0. -1.
         21    1    1    2  503  501 -0.11367876865E+03  0.36075990223E+01  0.96973551187E+02  0.14946486826E+03  0.00000000000E+00 0. -1.
         21    1    1    2  504  506  0.11087928416E+02  0.29322975147E+02 -0.34828600589E+03  0.34969403902E+03  0.00000000000E+00 0. -1.
         21    1    1    2  505  502 -0.15391894275E+02 -0.27643841628E+02  0.20235218795E+03  0.20481088926E+03  0.00000000000E+00 0. -1.
         21    1    1    2  506  503  0.11798273451E+03 -0.52867325406E+01 -0.69732930580E+02  0.13715158326E+03  0.00000000000E+00 0.  1.
<scales pt_clust_3="123.28872" pt_clust_4="31.34931" pt_clust_5="31.34885" pt_clust_6="14000.00000"></scales>
<clustering>
<clus scale="   31.349">  2  4  1 -1</clus>
<clus scale="   31.349">  1  5  2 -1</clus>
<clus scale="  123.289">  1  3  2 -1</clus>
<clus scale="   31.349">  1  3  2 -1</clus>
</clustering>
</event>
<event>
 6    0  0.6687079E+002  0.1485446E+03  0.7546771E-02  0.1202273E+00
         21   -1    0    0  506  501  0.00000000000E+00  0.00000000000E+00  0.17457461614E+03  0.17457461614E+03  0.00000000000E+00 0. -1.
         21   -1    0    0  503  502 -0.00000000000E+00 -0.00000000000E+00 -0.35423986617E+03  0.35423986617E+03  0.00000000000E+00 0. -1.
         21    1    1    2  503  505 -0.43963631654E+02  0.54120130871E+02 -0.10676892769E+03  0.12752016858E+03  0.00000000000E+00 0. -1.
         21    1    1    2  504  501 -0.13353389252E+02 -0.85054146410E+02  0.89973795587E+02  0.12453033654E+03  0.00000000000E+00 0. -1.
         21    1    1    2  505  504 -0.28962027344E+02  0.10433606810E+03 -0.99019787358E+02  0.14673013468E+03  0.00000000000E+00 0. -1.
         21    1    1    2  506  502  0.86279048251E+02 -0.73402052560E+02 -0.63850330559E+02  0.13003384252E+03  0.00000000000E+00 0. -1.
<scales pt_clust_3="39.61996" pt_clust_4="86.09600" pt_clust_5="39.61996" pt_clust_6="140.09920"></scales>
<clustering>
<clus scale="   39.620">  3  5 -1 -1</clus>
<clus scale="   86.096">  1  4  2 -1</clus>
<clus scale="  140.099">  1  6  2 -1</clus>
<clus scale="   86.096">  1  3  2 -1</clus>
</clustering>
</event>
<event>
 6    0  0.6687079E+002  0.1010804E+03  0.7546771E-02  0.1278040E+00
         21   -1    0    0  502  501  0.00000000000E+00  0.00000000000E+00  0.12396923121E+03  0.12396923121E+03  0.00000000000E+00 0.  1.
         21   -1    0    0  503  502 -0.00000000000E+00 -0.00000000000E+00 -0.39679056173E+03  0.39679056173E+03  0.00000000000E+00 0.  1.
         21    1    1    2  503  506  0.15797458149E+02  0.10213618516E+03 -0.25083776314E+03  0.27129493806E+03  0.00000000000E+00 0.  1.
         21    1    1    2  504  505 -0.63338794564E+02 -0.49771081099E+02 -0.55906229714E+02  0.98053403467E+02  0.00000000000E+00 0.  1.
         21    1    1    2  505  501  0.97451368005E+01  0.36096018651E+02 -0.18654278235E+02  0.41783637350E+02  0.00000000000E+00 0. -1.
         21    1    1    2  506  504  0.37796199615E+02 -0.88461122713E+02  0.52576940558E+02  0.10962781406E+03  0.00000000000E+00 0.  1.
<scales pt_clust_3="101.08038" pt_clust_4="75.05349" pt_clust_5="37.38837" pt_clust_6="14000.00000"></scales>
<clustering>
<clus scale="   37.388">  1  5  2 -1</clus>
<clus scale="   75.053">  1  4  2 -1</clus>
<clus scale="  101.080">  2  3  1 -1</clus>
<clus scale="   37.388">  1  3  2 -1</clus>
</clustering>
</event>
<event>
 6    0  0.6687079E+002  0.1366969E+03  0.7546771E-02  0.1217844E+00
         21   -1    0    0  505  501  0.00000000000E+00  0.00000000000E+00  0.16603173125E+04  0.16603173125E+04  0.00000000000E+00 0. -1.
         21   -1    0    0  506  502 -0.00000000000E+00 -0.00000000000E+00 -0.49898918354E+02  0.49898918354E+02  0.00000000000E+00 0. -1.
         21    1    1    2  503  502 -0.30584269515E+02  0.11705878626E+03  0.78257887111E+02  0.14409182446E+03  0.00000000000E+00 0. -1.
         21    1    1    2  504  501 -0.36816081648E+02 -0.68087697545E+01  0.10542747703E+04  0.10549393700E+04  0.00000000000E+00 0. -1.
         21    1    1    2  505  503  0.42812912820E+02 -0.13739106230E+03  0.40054220090E+03  0.42560933284E+03  0.00000000000E+00 0. -1.
         21    1    1    2  506  504  0.24587438343E+02  0.27141045797E+02  0.77343535849E+02  0.85575703496E+02  0.00000000000E+00 0. -1.
<scales pt_clust_3="14000.00000" pt_clust_4="37.22944" pt_clust_5="136.69691" pt_clust_6="36.62210"></scales>
<clustering>
<clus scale="   36.622">  2  6  1 -1</clus>
<clus scale="   37.229">  1  4  2 -1</clus>
<clus scale="  136.697">  1  5  2 -1</clus>
<clus scale="   37.229">  1  3  2 -1</clus>
</clustering>
</event>
<event>
 6    0  0.6687079E+002  0.2292625E+03  0.7546771E-02  0.1127160E+00
         21   -1    0    0  504  501  0.00000000000E+00  0.00000000000E+00  0.17879990478E+04  0.17879990478E+04  0.00000000000E+00 0. -1.
         21   -1    0    0  503  502 -0.00000000000E+00 -0.00000000000E+00 -0.14195876795E+03  0.14195876795E+03  0.00000000000E+00 0.  1.
         21    1    1    2  503  505  0.13155829543E+02 -0.78508222562E+02  0.59507365666E+03  0.60037427803E+03  0.00000000000E+00 0. -1.
         21    1    1    2  504  502 -0.13008586768E+03  0.15774611981E+03 -0.56438302830E+02  0.21211188866E+03  0.00000000000E+00 0.  1.
         21    1    1    2  505  506  0.64196054134E+02 -0.21505687945E+02  0.64007528569E+03  0.64364586485E+03  0.00000000000E+00 0. -1.
         21    1    1    2  506  501  0.52733984005E+02 -0.57732209302E+02  0.46732964035E+03  0.47382578424E+03  0.00000000000E+00 0. -1.
<scales pt_clust_3="62.75943" pt_clust_4="204.46557" pt_clust_5="46.01992" pt_clust_6="62.75943"></scales>
<clustering>
<clus scale="   46.020">  5  6 -1 -1</clus>
<clus scale="   62.759">  3  5 -1 -1</clus>
<clus scale="  204.466">  2  4  1 -1</clus>
<clus scale="  229.263">  1  3  2 -1</clus>
</clustering>
</event>
<event>
 6    0  0.6687079E+002  0.1543498E+03  0.7546771E-02  0.1195228E+00
         21   -1    0    0  503  501  0.00000000000E+00  0.00000000000E+00  0.35239183578E+03  0.35239183578E+03  0.00000000000E+00 0.  1.
         21   -1    0    0  504  502 -0.00000000000E+00 -0.00000000000E+00 -0.91520843463E+02  0.91520843463E+02  0.00000000000E+00 0.  1.
         21    1    1    2  503  502 -0.89387202700E+02 -0.10954518879E+03  0.70464538515E+02  0.15797300903E+03  0.00000000000E+00 0.  1.
         21    1    1    2  504  506  0.92775763624E+02  0.47073378619E+02  0.91926607407E+02  0.13882991911E+03  0.00000000000E+00 0.  1.
         21    1    1    2  505  501 -0.42313804227E+02  0.92266082698E+01  0.37670239599E+02  0.57398913576E+02  0.00000000000E+00 0. -1.
         21    1    1    2  506  505  0.38925243304E+02  0.53245201898E+02  0.60809606794E+02  0.89710837527E+02  0.00000000000E+00 0.  1.
<scales pt_clust_3="149.43333" pt_clust_4="30.77152" pt_clust_5="43.30806" pt_clust_6="30.77152"></scales>
<clustering>
<clus scale="   30.772">  4  6 -1 -1</clus>
<clus scale="   43.308">  1  5  2 -1</clus>
<clus scale="  149.433">  2  3  1 -1</clus>
<clus scale="   43.308">  1  3  2 -1</clus>
</clustering>
</event>
<event>
 6    0  0.6687079E+002  0.7850249E+02  0.7546771E-02  0.1333356E+00
         21   -1    0    0  502  501  0.00000000000E+00  0.00000000000E+00  0.13806916440E+03  0.13806916440E+03  0.00000000000E+00 0.  1.
         21   -1    0    0  506  502 -0.00000000000E+00 -0.00000000000E+00 -0.20077449183E+03  0.20077449183E+03  0.00000000000E+00 0. -1.
         21    1    1    2  503  501 -0.76743212247E+02  0.11146296974E+02  0.74469954641E+02  0.10751527662E+03  0.00000000000E+00 0.  1.
         21    1    1    2  504  503  0.67692651569E+02 -0.79558950098E+02 -0.52592504650E+02  0.11695252525E+03  0.00000000000E+00 0. -1.
         21    1    1    2  505  504  0.19004551113E+02  0.32445444770E+02 -0.29270421784E+02  0.47651206079E+02  0.00000000000E+00 0. -1.
         21    1    1    2  506  505 -0.99539904343E+01  0.35967208354E+02 -0.55312355639E+02  0.66724648284E+02  0.00000000000E+00 0. -1.
<scales pt_clust_3="78.50249" pt_clust_4="14000.00000" pt_clust_5="76.99084" pt_clust_6="34.00932"></scales>
<clustering>
<clus scale="   34.009">  5  6 -1 -1</clus>
<clus scale="   76.991">  2  5  1 -1</clus>
<clus scale="   78.502">  1  3  2 -1</clus>
<clus scale="   78.502">  1  3  2 -1</clus>
</clustering>
</event>
<event>
 6    0  0.6687079E+002  0.8512229E+02  0.7546771E-02  0.1315113E+00
         21   -1    0    0  503  501  0.00000000000E+00  0.00000000000E+00  0.81040565485E+02  0.81040565485E+02  0.00000000000E+00 0. -1.
         21   -1    0    0  504  502 -0.00000000000E+00 -0.00000000000E+00 -0.30084809296E+03  0.30084809296E+03  0.00000000000E+00 0. -1.
         21    1    1    2  503  506 -0.74415624249E+02 -0.47393054676E+02 -0.26058932310E+02  0.91993775425E+02  0.00000000000E+00 0. -1.
         21    1    1    2  504  505  0.24697684984E+02  0.57908461813E+02 -0.79440148895E+02  0.10136124925E+03  0.00000000000E+00 0. -1.
         21    1    1    2  505  501  0.79929955616E+02  0.24765658539E+02 -0.24118240559E+02  0.87085160477E+02  0.00000000000E+00 0. -1.
         21    1    1    2  506  502 -0.30212016351E+02 -0.35281065677E+02 -0.90190205714E+02  0.10144847330E+03  0.00000000000E+00 0. -1.
<scales pt_clust_3="85.12229" pt_clust_4="43.85382" pt_clust_5="14000.00000" pt_clust_6="46.44911"></scales>
<clustering>
<clus scale="   46.449">  2  6  1 -1</clus>
<clus scale="   43.854">  2  4  1 -1</clus>
<clus scale="   85.122">  2  3  1 -1</clus>
<clus scale="   85.122">  1  3  2 -1</clus>
</clustering>
</event>
<event>
 6    0  0.6687079E+002  0.1106314E+03  0.7546771E-02  0.1259405E+00
         21   -1    0    0  506  501  0.00000000000E+00  0.00000000000E+00  0.18682040876E+03  0.18682040876E+03  0.00000000000E+00 0. -1.
         21   -1    0    0  504  502 -0.00000000000E+00 -0.00000000000E+00 -0.14740065696E+03  0.14740065696E+03  0.00000000000E+00 0. -1.
         21    1    1    2  503  502  0.64409380103E+01 -0.36057425613E+02  0.35164475256E+02  0.50775623524E+02  0.00000000000E+00 0.  1.
         21    1    1    2  504  505 -0.12138474986E+03  0.38791207302E+02 -0.57168374030E+02  0.13966831513E+03  0.00000000000E+00 0. -1.
         21    1    1    2  505  501  0.85196493791E+02 -0.21708362588E+02  0.21525343685E+02  0.90515390853E+02  0.00000000000E+00 0. -1.
         21    1    1    2  506  503  0.29747318054E+02  0.18974580899E+02  0.39898306888E+02  0.53261736212E+02  0.00000000000E+00 0. -1.
<scales pt_clust_3="34.00955" pt_clust_4="14000.00000" pt_clust_5="110.63137" pt_clust_6="35.28367"></scales>
<clustering>
<clus scale="   35.284">  1  6  2 -1</clus>
<clus scale="   34.010">  1  3  2 -1</clus>
<clus scale="  110.631">  1  5  2 -1</clus>
<clus scale="   35.284">  1  3  2 -1</clus>
</clustering>
</event>
<event>
 6    0  0.6687079E+002  0.6171542E+02  0.7546771E-02  0.1390771E+00
         21   -1    0    0  506  501  0.00000000000E+00  0.00000000000E+00  0.55729822548E+03  0.55729822548E+03  0.00000000000E+00 0.  1.
         21   -1    0    0  505  502 -0.00000000000E+00 -0.00000000000E+00 -0.18387385044E+03  0.18387385044E+03  0.00000000000E+00 0.  1.
         21    1    1    2  503  502  0.43257476360E+02 -0.12532065820E+02 -0.36572030324E+02  0.58015302608E+02  0.00000000000E+00 0.  1.
         21    1    1    2  504  501  0.25981481163E+02 -0.54882637094E+02  0.49370301928E+03  0.49742317243E+03  0.00000000000E+00 0.  1.
         21    1    1    2  505  504 -0.39381856404E+02  0.10793335691E+03 -0.65224170698E+02  0.13211636004E+03  0.00000000000E+00 0.  1.
         21    1    1    2  506  503 -0.29857101118E+02 -0.40518653995E+02 -0.18482443214E+02  0.53617240846E+02  0.00000000000E+00 0.  1.
<scales pt_clust_3="45.03623" pt_clust_4="61.71542" pt_clust_5="14000.00000" pt_clust_6="47.54756"></scales>
<clustering>
<clus scale="   45.036">  2  3  1 -1</clus>
<clus scale="   47.548">  2  6  1 -1</clus>
<clus scale="   61.715">  1  4  2 -1</clus>
<clus scale="   61.715">  1  3  2 -1</clus>
</clustering>
</event>
<event>
 6    0  0.6687079E+002  0.8846331E+02  0.7546771E-02  0.1306616E+00
         21   -1    0    0  506  501  0.00000000000E+00  0.00000000000E+00  0.79481280938E+03  0.79481280938E+03  0.00000000000E+00 0. -1.
         21   -1    0    0  503  502 -0.00000000000E+00 -0.00000000000E+00 -0.63464857126E+02  0.63464857126E+02  0.00000000000E+00 0. -1.
         21    1    1    2  503  504  0.47540347307E+02 -0.94752568762E+01 -0.64698158855E+01  0.48905251585E+02  0.00000000000E+00 0. -1.
         21    1    1    2  504  501  0.55144624281E+02  0.32165303827E+02  0.79723860833E+02  0.10213437396E+03  0.00000000000E+00 0. -1.
         21    1    1    2  505  502 -0.13181089547E+03 -0.73941065507E+01  0.15727274118E+03  0.20533752725E+03  0.00000000000E+00 0. -1.
         21    1    1    2  506  505  0.29125923879E+02 -0.15295940401E+02  0.50082116612E+03  0.50190051372E+03  0.00000000000E+00 0. -1.
<scales pt_clust_3="50.76134" pt_clust_4="88.46331" pt_clust_5="14000.00000" pt_clust_6="32.89810"></scales>
<clustering>
<clus scale="   32.898">  1  6  2 -1</clus>
<clus scale="   50.761">  2  3  1 -1</clus>
<clus scale="   88.463">  1  4  2 -1</clus>
<clus scale="   32.898">  1  3  2 -1</clus>
</clustering>
</event>
<event>
 6    0  0.6687079E+002  0.1718129E+03  0.7546771E-02  0.1175970E+00
         21   -1    0    0  503  501  0.00000000000E+00  0.00000000000E+00  0.85117059213E+03  0.85117059213E+03  0.00000000000E+00 0. -1.
         21   -1    0    0  506  502 -0.00000000000E+00 -0.00000000000E+00 -0.34907371217E+02  0.34907371217E+02  0.00000000000E+00 0. -1.
         21    1    1    2  503  505 -0.84354641193E+02  0.91664567804E+02  0.27957832849E+03  0.30607538327E+03  0.00000000000E+00 0. -1.
         21    1    1    2  504  501  0.82051899175E+02 -0.93329145069E+02  0.31850469046E+03  0.34188898977E+03  0.00000000000E+00 0. -1.
         21    1    1    2  505  502 -0.25457624319E+02  0.23660882628E+02  0.18915443561E+03  0.19232089983E+03  0.00000000000E+00 0.  1.
         21    1    1    2  506  504  0.27760366337E+02 -0.21996305363E+02  0.29025766349E+02  0.45792690475E+02  0.00000000000E+00 0. -1.
<scales pt_clust_3="169.37665" pt_clust_4="34.43747" pt_clust_5="30.47944" pt_clust_6="34.43747"></scales>
<clustering>
<clus scale="   30.479">  3  5 -1 -1</clus>
<clus scale="   34.437">  4  6 -1 -1</clus>
<clus scale="  169.377">  1  3  2 -1</clus>
<clus scale="  169.377">  1  3  2 -1</clus>
</clustering>
</event>
<event>
 6    0  0.6687079E+002  0.2132188E+03  0.7546771E-02  0.1139042E+00
         21   -1    0    0  505  501  0.00000000000E+00  0.00000000000E+00  0.37051995592E+03  0.37051995592E+03  0.00000000000E+00 0. -1.
         21   -1    0    0  503  502 -0.00000000000E+00 -0.00000000000E+00 -0.22864809440E+04  0.22864809440E+04  0.00000000000E+00 0. -1.
         21    1    1    2  503  501  0.27920488445E+03  0.22140185353E+03 -0.18688261816E+04  0.19024945323E+04  0.00000000000E+00 0. -1.
         21    1    1    2  504  506 -0.17933232418E+03 -0.16341377937E+01 -0.25506608367E+03  0.31180355986E+03  0.00000000000E+00 0.  1.
         21    1    1    2  505  504 -0.85208983436E+02 -0.19338562589E+03  0.28795343796E+03  0.35717748192E+03  0.00000000000E+00 0. -1.
         21    1    1    2  506  502 -0.14663576830E+02 -0.26382089853E+02 -0.80022160816E+02  0.85525325911E+02  0.00000000000E+00 0. -1.
<scales pt_clust_3="213.21881" pt_clust_4="181.28803" pt_clust_5="14000.00000" pt_clust_6="30.18336"></scales>
<clustering>
<clus scale="   30.183">  2  6  1 -1</clus>
<clus scale="  181.288">  2  4  1 -1</clus>
<clus scale="  213.219">  2  3  1 -1</clus>
<clus scale="  213.219">  1  3  2 -1</clus>
</clustering>
</event>
<event>
 6    0  0.6687079E+002  0.8702633E+02  0.7546771E-02  0.1310217E+00
         21   -1    0    0  503  501  0.00000000000E+00  0.00000000000E+00  0.31691600592E+03  0.31691600592E+03  0.00000000000E+00 0. -1.
         21   -1    0    0  504  502 -0.00000000000E+00 -0.00000000000E+00 -0.14595567790E+03  0.14595567790E+03  0.00000000000E+00 0.  1.
         21    1    1    2  503  505  0.21875731527E+02  0.44208305482E+02  0.81242922592E+02  0.95043855008E+02  0.00000000000E+00 0. -1.
         21    1    1    2  504  506 -0.14715244910E+02 -0.88771102826E+02 -0.10125760819E+03  0.13546198856E+03  0.00000000000E+00 0.  1.
         21    1    1    2  505  502 -0.48151060596E+02  0.66802932179E+02  0.14574301292E+03  0.16739827418E+03  0.00000000000E+00 0. -1.
         21    1    1    2  506  501  0.40990573979E+02 -0.22240134835E+02  0.45232000699E+02  0.64967566061E+02  0.00000000000E+00 0. -1.
<scales pt_clust_3="51.19745" pt_clust_4="14000.00000" pt_clust_5="87.02633" pt_clust_6="46.63530"></scales>
<clustering>
<clus scale="   46.635">  1  6  2 -1</clus>
<clus scale="   51.197">  1  3  2 -1</clus>
<clus scale="   87.026">  1  5  2 -1</clus>
<clus scale="   46.635">  1  3  2 -1</clus>
</clustering>
</event>
<event>
 6    0  0.6687079E+002  0.1218848E+03  0.7546771E-02  0.1240020E+00
         21   -1    0    0  506  501  0.00000000000E+00  0.00000000000E+00  0.52221816382E+03  0.52221816382E+03  0.00000000000E+00 0. -1.
         21   -1    0    0  503  502 -0.00000000000E+00 -0.00000000000E+00 -0.31430278807E+03  0.31430278807E+03  0.00000000000E+00 0. -1.
         21    1    1    2  503  504  0.80129907972E+01 -0.35381609662E+02 -0.18245635978E+03  0.18602792680E+03  0.00000000000E+00 0. -1.
         21    1    1    2  504  505 -0.42091052123E+02  0.70996867418E+02 -0.81526164280E+02  0.11601175507E+03  0.00000000000E+00 0. -1.
         21    1    1    2  505  501 -0.85422745584E+02 -0.84866099598E+02  0.25481257596E+03  0.28183106499E+03  0.00000000000E+00 0. -1.
         21    1    1    2  506  502  0.11950080691E+03  0.49250841842E+02  0.21708532385E+03  0.25265020504E+03  0.00000000000E+00 0. -1.
<scales pt_clust_3="36.27763" pt_clust_4="56.95342" pt_clust_5="14000.00000" pt_clust_6="121.88479"></scales>
<clustering>
<clus scale="   36.278">  2  3  1 -1</clus>
<clus scale="   56.953">  2  4  1 -1</clus>
<clus scale="  121.885">  2  6  1 -1</clus>
<clus scale="  121.885">  1  3  2 -1</clus>
</clustering>
</event>
<event>
 6    0  0.6687079E+002  0.1955641E+03  0.7546771E-02  0.1153536E+00
         21   -1    0    0  503  501  0.00000000000E+00  0.00000000000E+00  0.12881551898E+03  0.12881551898E+03  0.00000000000E+00 0.  1.
         21   -1    0    0  504  502 -0.00000000000E+00 -0.00000000000E+00 -0.61337237215E+03  0.61337237215E+03  0.00000000000E+00 0.  1.
         21    1    1    2  503  505  0.14925377430E+03  0.69610682650E+02  0.34310331069E+02  0.16822465663E+03  0.00000000000E+00 0.  1.
         21    1    1    2  504  501  0.21114487269E+02  0.26668025648E+02 -0.29259262734E+02  0.44867690161E+02  0.00000000000E+00 0.  1.
         21    1    1    2  505  506 -0.64931161321E+02 -0.13221115016E+02 -0.16887931188E+03  0.18141409971E+03  0.00000000000E+00 0.  1.
         21    1    1    2  506  502 -0.10543710025E+03 -0.83057593282E+02 -0.32072860962E+03  0.34768144463E+03  0.00000000000E+00 0.  1.
<scales pt_clust_3="190.56252" pt_clust_4="34.01478" pt_clust_5="30.87763" pt_clust_6="30.87763"></scales>
<clustering>
<clus scale="   30.878">  5  6 -1 -1</clus>
<clus scale="   34.015">  1  4  2 -1</clus>
<clus scale="  190.563">  1  3  2 -1</clus>
<clus scale="   34.015">  1  3  2 -1</clus>
</clustering>
</event>
<event>
 6    0  0.6687079E+002  0.1004254E+03  0.7546771E-02  0.1279404E+00
         21   -1    0    0  504  501  0.00000000000E+00  0.00000000000E+00  0.50257921493E+03  0.50257921493E+03  0.00000000000E+00 0.  1.
         21   -1    0    0  506  502 -0.00000000000E+00 -0.00000000000E+00 -0.88492341108E+02  0.88492341108E+02  0.00000000000E+00 0.  1.
         21    1    1    2  503  501  0.32383117527E+02  0.94879126355E+02  0.25160624254E+03  0.27084389637E+03  0.00000000000E+00 0.  1.
         21    1    1    2  504  505 -0.31023446112E+02  0.17323235903E+01  0.80190094243E+02  0.85999455628E+02  0.00000000000E+00 0.  1.
         21    1    1    2  505  502  0.34311873733E+02  0.37464264905E+01 -0.52256620746E+02  0.62626630137E+02  0.00000000000E+00 0.  1.
         21    1    1    2  506  503 -0.35671545148E+02 -0.10035787644E+03  0.13454715779E+03  0.17160157390E+03  0.00000000000E+00 0.  1.
<scales pt_clust_3="100.42535" pt_clust_4="31.07177" pt_clust_5="34.13698" pt_clust_6="14000.00000"></scales>
<clustering>
<clus scale="   31.072">  1  4  2 -1</clus>
<clus scale="   34.137">  2  5  1 -1</clus>
<clus scale="  100.425">  1  3  2 -1</clus>
<clus scale="   31.072">  1  3  2 -1</clus>
</clustering>
</event>
<event>
 6    0  0.6687079E+002  0.1196344E+03  0.7546771E-02  0.1243701E+00
         21   -1    0    0  503  501  0.00000000000E+00  0.00000000000E+00  0.19956709424E+03  0.19956709424E+03  0.00000000000E+00 0.  1.
         21   -1    0    0  505  502 -0.00000000000E+00 -0.00000000000E+00 -0.35329025549E+03  0.35329025549E+03  0.00000000000E+00 0.  1.
         21    1    1    2  503  506 -0.84911120057E+01  0.47084381303E+02  0.13478999951E+03  0.14302930438E+03  0.00000000000E+00 0.  1.
         21    1    1    2  504  502  0.36004655139E+02  0.10302662172E+03 -0.14443034299E+03  0.18102746740E+03  0.00000000000E+00 0.  1.
         21    1    1    2  505  501  0.26761010945E+02 -0.23062928695E+02 -0.11071025406E+02  0.37021858278E+02  0.00000000000E+00 0. -1.
         21    1    1    2  506  504 -0.54274554079E+02 -0.12704807433E+03 -0.13301179236E+03  0.19177871967E+03  0.00000000000E+00 0.  1.
<scales pt_clust_3="47.50129" pt_clust_4="119.63436" pt_clust_5="35.32776" pt_clust_6="14000.00000"></scales>
<clustering>
<clus scale="   35.328">  2  5  1 -1</clus>
<clus scale="   47.501">  1  3  2 -1</clus>
<clus scale="  119.634">  2  4  1 -1</clus>
<clus scale="   47.501">  1  3  2 -1</clus>
</clustering>
</event>
<event>
 6    0  0.6687079E+002  0.1865680E+03  0.7546771E-02  0.1161594E+00
         21   -1    0    0  505  501  0.00000000000E+00  0.00000000000E+00  0.46502573238E+03  0.46502573238E+03  0.00000000000E+00 0. -1.
         21   -1    0    0  503  502 -0.00000000000E+00 -0.00000000000E+00 -0.12353886466E+03  0.12353886466E+03  0.00000000000E+00 0. -1.
         21    1    1    2  503  501  0.16401783750E+03  0.10435948144E+02  0.36992128606E+02  0.16846120507E+03  0.00000000000E+00 0. -1.
         21    1    1    2  504  506 -0.10817618684E+03 -0.21517038706E+01  0.10719548839E+03  0.15230755057E+03  0.00000000000E+00 0. -1.
         21    1    1    2  505  504  0.12038115733E+02 -0.33998696961E+02  0.19162231985E+03  0.19498702801E+03  0.00000000000E+00 0. -1.
         21    1    1    2  506  502 -0.67879766396E+02  0.25714452688E+02  0.56769308659E+01  0.72808813388E+02  0.00000000000E+00 0. -1.
<scales pt_clust_3="168.58629" pt_clust_4="65.23059" pt_clust_5="36.06699" pt_clust_6="65.23059"></scales>
<clustering>
<clus scale="   36.067">  1  5  2 -1</clus>
<clus scale="   65.231">  4  6 -1 -1</clus>
<clus scale="  168.586">  2  3  1 -1</clus>
<clus scale="   36.067">  1  3  2 -1</clus>
</clustering>
</event>
<event>
 6    0  0.6687079E+002  0.1200064E+03  0.7546771E-02  0.1243087E+00
         21   -1    0    0  506  501  0.00000000000E+00  0.00000000000E+00  0.37708955089E+03  0.37708955089E+03  0.00000000000E+00 0.  1.
         21   -1    0    0  503  502 -0.00000000000E+00 -0.00000000000E+00 -0.93807498059E+02  0.93807498059E+02  0.00000000000E+00 0.  1.
         21    1    1    2  503  505  0.28712676563E+02  0.25903251803E+02  0.26218119109E+02  0.46720295579E+02  0.00000000000E+00 0.  1.
         21    1    1    2  504  502 -0.52134437922E+02 -0.10710291037E+03  0.37951345786E+01  0.11917816945E+03  0.00000000000E+00 0.  1.
         21    1    1    2  505  501 -0.12486525950E+02  0.67542816663E+02  0.24345701286E+02  0.72874265583E+02  0.00000000000E+00 0.  1.
         21    1    1    2  506  504  0.35908287309E+02  0.13656841908E+02  0.22892309785E+03  0.23212431833E+03  0.00000000000E+00 0.  1.
<scales pt_clust_3="42.66971" pt_clust_4="107.93900" pt_clust_5="42.66971" pt_clust_6="38.41763"></scales>
<clustering>
<clus scale="   38.418">  1  6  2 -1</clus>
<clus scale="   42.670">  3  5 -1 -1</clus>
<clus scale="  107.939">  2  4  1 -1</clus>
<clus scale="   38.418">  1  3  2 -1</clus>
</clustering>
</event>
<event>
 6    0  0.6687079E+002  0.1033696E+03  0.7546771E-02  0.1273366E+00
         21   -1    0    0  504  501  0.00000000000E+00  0.00000000000E+00  0.84443951742E+02  0.84443951742E+02  0.00000000000E+00 0.  1.
         21   -1    0    0  503  502 -0.00000000000E+00 -0.00000000000E+00 -0.35732367935E+03  0.35732367935E+03  0.00000000000E+00 0.  1.
         21    1    1    2  503  506  0.47468975905E+02 -0.85806186259E+02 -0.54309902665E+02  0.11209625686E+03  0.00000000000E+00 0.  1.
         21    1    1    2  504  505  0.17373825045E+02  0.31008890905E+02  0.13456975099E+02  0.38006463801E+02  0.00000000000E+00 0.  1.
         21    1    1    2  505  502 -0.41187706848E+02  0.97443315143E+02 -0.21568489341E+03  0.24023238772E+03  0.00000000000E+00 0.  1.
         21    1    1    2  506  501 -0.23655094102E+02 -0.42646019789E+02 -0.16341906630E+02  0.51432522718E+02  0.00000000000E+00 0. -1.
<scales pt_clust_3="103.36957" pt_clust_4="35.54435" pt_clust_5="14000.00000" pt_clust_6="38.14547"></scales>
<clustering>
<clus scale="   35.544">  1  4  2 -1</clus>
<clus scale="   38.145">  1  6  2 -1</clus>
<clus scale="  103.370">  1  3  2 -1</clus>
<clus scale="   35.544">  1  3  2 -1</clus>
</clustering>
</event>
<event>
 6    0  0.6687079E+002  0.1862180E+03  0.7546771E-02  0.1161917E+00
         21   -1    0    0  506  501  0.00000000000E+00  0.00000000000E+00  0.24427510246E+03  0.24427510246E+03  0.00000000000E+00 0. -1.
         21   -1    0    0  504  502 -0.00000000000E+00 -0.00000000000E+00 -0.11558462814E+04  0.11558462814E+04  0.00000000000E+00 0.  1.
         21    1    1    2  503  502 -0.13304378009E+02 -0.17085080806E+03 -0.12783467156E+03  0.21379595025E+03  0.00000000000E+00 0. -1.
         21    1    1    2  504  501 -0.54544950413E+01  0.18982134422E+03 -0.88154346863E+03  0.90176536933E+03  0.00000000000E+00 0.  1.
         21    1    1    2  505  503  0.54106823045E+02 -0.36253464526E+02 -0.79595783514E+02  0.10284624808E+03  0.00000000000E+00 0. -1.
         21    1    1    2  506  505 -0.35347949995E+02  0.17282928366E+02  0.17740274472E+03  0.18171381625E+03  0.00000000000E+00 0. -1.
<scales pt_clust_3="14000.00000" pt_clust_4="186.21804" pt_clust_5="58.13431" pt_clust_6="39.34688"></scales>
<clustering>
<clus scale="   39.347">  1  6  2 -1</clus>
<clus scale="   58.134">  1  5  2 -1</clus>
<clus scale="  186.218">  2  4  1 -1</clus>
<clus scale="   39.347">  1  3  2 -1</clus>
</clustering>
</event>
<event>
 6    0  0.6687079E+002  0.1771368E+03  0.7546771E-02  0.1170603E+00
         21   -1    0    0  503  501  0.00000000000E+00  0.00000000000E+00  0.92232180344E+03  0.92232180344E+03  0.00000000000E+00 0. -1.
         21   -1    0    0  504  502 -0.00000000000E+00 -0.00000000000E+00 -0.20981011203E+03  0.20981011203E+03  0.00000000000E+00 0. -1.
         21    1    1    2  503  502 -0.46181512165E+02  0.77039506736E+02  0.58044938797E+03  0.58735790593E+03  0.00000000000E+00 0. -1.
         21    1    1    2  504  505  0.12583937742E+03 -0.13388279688E+03 -0.15233206213E+03  0.23867385563E+03  0.00000000000E+00 0. -1.
         21    1    1    2  505  506 -0.49317371686E+02  0.59709752913E+02  0.15634440772E+03  0.17447358415E+03  0.00000000000E+00 0.  1.
         21    1    1    2  506  501 -0.30340493573E+02 -0.28664627708E+01  0.12804995784E+03  0.13162656974E+03  0.00000000000E+00 0. -1.
<scales pt_clust_3="177.13684" pt_clust_4="14000.00000" pt_clust_5="81.18558" pt_clust_6="30.47560"></scales>
<clustering>
<clus scale="   30.476">  1  6  2 -1</clus>
<clus scale="   81.186">  1  5  2 -1</clus>
<clus scale="  177.137">  1  3  2 -1</clus>
<clus scale="   30.476">  1  3  2 -1</clus>
</clustering>
</event>
<event>
 6    0  0.6687079E+002  0.1219941E+03  0.7546771E-02  0.1239843E+00
         21   -1    0    0  504  501  0.00000000000E+00  0.00000000000E+00  0.36500693134E+03  0.36500693134E+03  0.00000000000E+00 0.  1.
         21   -1    0    0  501  502 -0.00000000000E+00 -0.00000000000E+00 -0.50430017491E+02  0.50430017491E+02  0.00000000000E+00 0.  1.
         21    1    1    2  503  506 -0.16023773613E+02  0.47675356181E+02  0.17984662517E+02  0.53414876145E+02  0.00000000000E+00 0.  1.
         21    1    1    2  504  505  0.39920884113E+02 -0.11117704126E+03  0.19058615082E+03  0.22422553908E+03  0.00000000000E+00 0.  1.
         21    1    1    2  505  503 -0.41457400600E+02  0.37609542777E+02  0.76504727990E+02  0.94795396393E+02  0.00000000000E+00 0.  1.
         21    1    1    2  506  502  0.17560290100E+02  0.25892142297E+02  0.29501372523E+02  0.43001137216E+02  0.00000000000E+00 0. -1.
<scales pt_clust_3="48.92791" pt_clust_4="111.45452" pt_clust_5="48.92791" pt_clust_6="31.28525"></scales>
<clustering>
<clus scale="   31.285">  2  6  1 -1</clus>
<clus scale="   48.928">  3  5 -1 -1</clus>
<clus scale="  111.455">  1  4  2 -1</clus>
<clus scale="  111.455">  1  3  2 -1</clus>
</clustering>
</event>
<event>
 6    0  0.6687079E+002  0.1112616E+03  0.7546771E-02  0.1258251E+00
         21   -1    0    0  504  501  0.00000000000E+00  0.00000000000E+00  0.13495371502E+03  0.13495371502E+03  0.00000000000E+00 0.  1.
         21   -1    0    0  505  502 -0.00000000000E+00 -0.00000000000E+00 -0.39285739569E+03  0.39285739569E+03  0.00000000000E+00 0.  1.
         21    1    1    2  503  501 -0.99047200124E+02  0.35769636967E+02 -0.56289058697E+02  0.11940801024E+03  0.00000000000E+00 0. -1.
         21    1    1    2  504  506 -0.43496640098E+02  0.18384881292E+02  0.58979410218E+02  0.75554830353E+02  0.00000000000E+00 0.  1.
         21    1    1    2  505  503  0.18323603190E+02 -0.39987587389E+02 -0.17716255098E+03  0.18254131327E+03  0.00000000000E+00 0.  1.
         21    1    1    2  506  502  0.12422023703E+03 -0.14166930870E+02 -0.83431481218E+02  0.15030695685E+03  0.00000000000E+00 0.  1.
<scales pt_clust_3="111.26164" pt_clust_4="45.97457" pt_clust_5="43.98592" pt_clust_6="14000.00000"></scales>
<clustering>
<clus scale="   43.986">  2  5  1 -1</clus>
<clus scale="   45.975">  1  4  2 -1</clus>
<clus scale="  111.262">  2  3  1 -1</clus>
<clus scale="   45.975">  1  3  2 -1</clus>
</clustering>
</event>
<event>
 6    0  0.6687079E+002  0.1349315E+03  0.7546771E-02  0.1220316E+00
         21   -1    0    0  503  501  0.00000000000E+00  0.00000000000E+00  0.16845334968E+03  0.16845334968E+03  0.00000000000E+00 0. -1.
         21   -1    0    0  506  502 -0.00000000000E+00 -0.00000000000E+00 -0.33258585609E+03  0.33258585609E+03  0.00000000000E+00 0. -1.
         21    1    1    2  503  505  0.18066759694E+02  0.56364561391E+02 -0.12357416421E+01  0.59202184453E+02  0.00000000000E+00 0. -1.
         21    1    1    2  504  501  0.46386125221E+02 -0.15316911105E+03  0.36628771776E+02  0.16417708767E+03  0.00000000000E+00 0. -1.
         21    1    1    2  505  502 -0.10023514207E+03  0.11127828027E+03 -0.13082861283E+03  0.19886192521E+03  0.00000000000E+00 0. -1.
         21    1    1    2  506  504  0.35782257150E+02 -0.14473730612E+02 -0.68696923725E+02  0.78798008438E+02  0.00000000000E+00 0. -1.
<scales pt_clust_3="59.02660" pt_clust_4="134.93152" pt_clust_5="14000.00000" pt_clust_6="38.59869"></scales>
<clustering>
<clus scale="   38.599">  2  6  1 -1</clus>
<clus scale="   59.027">  1  3  2 -1</clus>
<clus scale="  134.932">  1  4  2 -1</clus>
<clus scale="   59.027">  1  3  2 -1</clus>
</clustering>
</event>
<event>
 6    0  0.6687079E+002  0.7845494E+02  0.7546771E-02  0.1333494E+00
         21   -1    0    0  503  501  0.00000000000E+00  0.00000000000E+00  0.10600172861E+03  0.10600172861E+03  0.00000000000E+00 0.  1.
         21   -1    0    0  505  502 -0.00000000000E+00 -0.00000000000E+00 -0.63544364076E+03  0.63544364076E+03  0.00000000000E+00 0.  1.
         21    1    1    2  503  504 -0.76386945636E+02 -0.70299154345E+01  0.58550439438E+02  0.96501498086E+02  0.00000000000E+00 0.  1.
         21    1    1    2  504  506  0.92935225116E+02 -0.14668823165E+02 -0.12743574487E+03  0.15840454385E+03  0.00000000000E+00 0.  1.
         21    1    1    2  505  501  0.29158706606E+02  0.68889434764E+02 -0.13425026234E+03  0.15368512397E+03  0.00000000000E+00 0. -1.
         21    1    1    2  506  502 -0.45706986086E+02 -0.47190696164E+02 -0.32630634438E+03  0.33285420346E+03  0.00000000000E+00 0.  1.
<scales pt_clust_3="78.45494" pt_clust_4="14000.00000" pt_clust_5="47.29900" pt_clust_6="65.69696"></scales>
<clustering>
<clus scale="   65.697">  2  6  1 -1</clus>
<clus scale="   47.299">  2  5  1 -1</clus>
<clus scale="   78.455">  1  3  2 -1</clus>
<clus scale="   78.455">  1  3  2 -1</clus>
</clustering>
</event>
<event>
 6    0  0.6687079E+002  0.8301225E+02  0.7546771E-02  0.1320714E+00
         21   -1    0    0  503  501  0.00000000000E+00  0.00000000000E+00  0.10953395279E+04  0.10953395279E+04  0.00000000000E+00 0.  1.
         21   -1    0    0  505  502 -0.00000000000E+00 -0.00000000000E+00 -0.42170206821E+03  0.42170206821E+03  0.00000000000E+00 0. -1.
         21    1    1    2  503  502  0.83500672137E+02 -0.19223105836E+02  0.40480272460E+02  0.94765724308E+02  0.00000000000E+00 0. -1.
         21    1    1    2  504  501 -0.38204362286E+02  0.32511077917E+02  0.86480030259E+03  0.86625406599E+03  0.00000000000E+00 0.  1.
         21    1    1    2  505  506 -0.28469147859E+02 -0.78801063942E+02 -0.38203734378E+03  0.39111715904E+03  0.00000000000E+00 0. -1.
         21    1    1    2  506  504 -0.16827161992E+02  0.65513091860E+02  0.15039422845E+03  0.16490464680E+03  0.00000000000E+00 0. -1.
<scales pt_clust_3="72.90132" pt_clust_4="50.16516" pt_clust_5="14000.00000" pt_clust_6="83.01225"></scales>
<clustering>
<clus scale="   50.165">  1  4  2 -1</clus>
<clus scale="   72.901">  1  3  2 -1</clus>
<clus scale="   83.012">  1  6  2 -1</clus>
<clus scale="   50.165">  1  3  2 -1</clus>
</clustering>
</event>
<event>
 6    0  0.6687079E+002  0.9830465E+02  0.7546771E-02  0.1283902E+00
         21   -1    0    0  504  501  0.00000000000E+00  0.00000000000E+00  0.14994722161E+03  0.14994722161E+03  0.00000000000E+00 0.  1.
         21   -1    0    0  506  502 -0.00000000000E+00 -0.00000000000E+00 -0.54870536605E+03  0.54870536605E+03  0.00000000000E+00 0.  1.
         21    1    1    2  503  501 -0.28349186358E+02  0.89031433079E+02  0.51929801279E+02  0.10689703786E+03  0.00000000000E+00 0.  1.
         21    1    1    2  504  502  0.41643943189E+02 -0.38947015623E+01  0.34640405086E+01  0.41968872766E+02  0.00000000000E+00 0.  1.
         21    1    1    2  505  503  0.12237570265E+02 -0.11078115423E+03 -0.18915931397E+02  0.11304881564E+03  0.00000000000E+00 0.  1.
         21    1    1    2  506  505 -0.25532327096E+02  0.25644422708E+02 -0.43523605483E+03  0.43673786139E+03  0.00000000000E+00 0.  1.
<scales pt_clust_3="14000.00000" pt_clust_4="37.28616" pt_clust_5="98.30465" pt_clust_6="36.18751"></scales>
<clustering>
<clus scale="   36.188">  2  6  1 -1</clus>
<clus scale="   37.286">  2  4  1 -1</clus>
<clus scale="   98.305">  2  5  1 -1</clus>
<clus scale="   98.305">  1  3  2 -1</clus>
</clustering>
</event>
<event>
 6    0  0.6687079E+002  0.1104575E+03  0.7546771E-02  0.1259725E+00
         21   -1    0    0  504  501  0.00000000000E+00  0.00000000000E+00  0.19753531923E+04  0.19753531923E+04  0.00000000000E+00 0. -1.
         21   -1    0    0  506  502 -0.00000000000E+00 -0.00000000000E+00 -0.35030919187E+03  0.35030919187E+03  0.00000000000E+00 0.  1.
         21    1    1    2  503  501  0.91756000736E+02 -0.31148062816E+02  0.14360679788E+04  0.14393333892E+04  0.00000000000E+00 0. -1.
         21    1    1    2  504  505  0.15963363405E+02  0.44829181132E+02  0.34308081459E+03  0.34636531263E+03  0.00000000000E+00 0.  1.
         21    1    1    2  505  502 -0.14128346427E+03 -0.64310506377E+02  0.15829829385E+03  0.22170973895E+03  0.00000000000E+00 0.  1.
         21    1    1    2  506  503  0.33564100133E+02  0.50629388060E+02 -0.31240308689E+03  0.31825394334E+03  0.00000000000E+00 0.  1.
<scales pt_clust_3="110.45749" pt_clust_4="47.58660" pt_clust_5="14000.00000" pt_clust_6="60.82727"></scales>
<clustering>
<clus scale="   47.587">  1  4  2 -1</clus>
<clus scale="   60.827">  2  6  1 -1</clus>
<clus scale="  110.457">  1  3  2 -1</clus>
<clus scale="   47.587">  1  3  2 -1</clus>
</clustering>
</event>
<event>
 6    0  0.6687079E+002  0.8721799E+02  0.7546771E-02  0.1309732E+00
         21   -1    0    0  506  501  0.00000000000E+00  0.00000000000E+00  0.36712258898E+03  0.36712258898E+03  0.00000000000E+00 0. -1.
         21   -1    0    0  503  502 -0.00000000000E+00 -0.00000000000E+00 -0.64255852758E+03  0.64255852758E+03  0.00000000000E+00 0.  1.
         21    1    1    2  503  504  0.11533869460E+02 -0.30712266117E+02 -0.50959671460E+02  0.60606613089E+02  0.00000000000E+00 0. -1.
         21    1    1    2  504  505 -0.76918867188E+02  0.42421413580E+02 -0.13217031065E+03  0.15869807648E+03  0.00000000000E+00 0.  1.
         21    1    1    2  505  501 -0.21229970550E+02 -0.42566087285E+02  0.34258512552E+03  0.34587158262E+03  0.00000000000E+00 0. -1.
         21    1    1    2  506  502  0.86614968277E+02  0.30856939822E+02 -0.43489108200E+03  0.44450484437E+03  0.00000000000E+00 0.  1.
<scales pt_clust_3="32.80661" pt_clust_4="14000.00000" pt_clust_5="47.62922" pt_clust_6="87.21799"></scales>
<clustering>
<clus scale="   32.807">  2  3  1 -1</clus>
<clus scale="   47.629">  1  5  2 -1</clus>
<clus scale="   87.218">  2  6  1 -1</clus>
<clus scale="   47.629">  1  3  2 -1</clus>
</clustering>
</event>
<event>
 6    0  0.6687079E+002  0.1772807E+03  0.7546771E-02  0.1170461E+00
         21   -1    0    0  505  501  0.00000000000E+00  0.00000000000E+00  0.14684076274E+03  0.14684076274E+03  0.00000000000E+00 0. -1.
         21   -1    0    0  504  502 -0.00000000000E+00 -0.00000000000E+00 -0.26583504635E+04  0.26583504635E+04  0.00000000000E+00 0. -1.
         21    1    1    2  503  501 -0.39714588423E+01 -0.82718366228E+02 -0.12460631200E+03  0.14961561947E+03  0.00000000000E+00 0. -1.
         21    1    1    2  504  506  0.36184331692E+01  0.11338278585E+03 -0.14159085771E+04  0.14204456512E+04  0.00000000000E+00 0. -1.
         21    1    1    2  505  502 -0.47726746799E+02 -0.72202287042E+02  0.11686010707E+03  0.14542110314E+03  0.00000000000E+00 0. -1.
         21    1    1    2  506  503  0.48079772472E+02  0.41537867417E+02 -0.10878549188E+04  0.10897088525E+04  0.00000000000E+00 0. -1.
<scales pt_clust_3="82.81365" pt_clust_4="54.84724" pt_clust_5="161.42356" pt_clust_6="54.84724"></scales>
<clustering>
<clus scale="   54.847">  4  6 -1 -1</clus>
<clus scale="   82.814">  1  3  2 -1</clus>
<clus scale="  161.424">  1  5  2 -1</clus>
<clus scale="   82.814">  1  3  2 -1</clus>
</clustering>
</event>
<event>
 6    0  0.6687079E+002  0.5301108E+03  0.7546771E-02  0.1006205E+00
         21   -1    0    0  502  501  0.00000000000E+00  0.00000000000E+00  0.73547203606E+03  0.73547203606E+03  0.00000000000E+00 0. -1.
         21   -1    0    0  505  502 -0.00000000000E+00 -0.00000000000E+00 -0.25386295980E+04  0.25386295980E+04  0.00000000000E+00 0. -1.
         21    1    1    2  503  504 -0.57019187440E+02  0.18754105818E+02 -0.68235569113E+01  0.60410803258E+02  0.00000000000E+00 0.  1.
         21    1    1    2  504  501  0.53890742461E+03  0.71332360497E+02  0.36282154590E+03  0.65356636398E+03  0.00000000000E+00 0. -1.
         21    1    1    2  505  506 -0.56379680431E+02 -0.58222714877E+01 -0.21241895960E+04  0.21249456480E+04  0.00000000000E+00 0. -1.
         21    1    1    2  506  503 -0.42550855674E+03 -0.84264194828E+02 -0.34965954989E+02  0.43517881887E+03  0.00000000000E+00 0. -1.
<scales pt_clust_3="30.53527" pt_clust_4="523.71685" pt_clust_5="56.67951" pt_clust_6="30.53527"></scales>
<clustering>
<clus scale="   30.535">  3  6 -1 -1</clus>
<clus scale="   56.680">  2  5  1 -1</clus>
<clus scale="  523.717">  1  4  2 -1</clus>
<clus scale="  523.717">  1  3  2 -1</clus>
</clustering>
</event>
<event>
 6    0  0.6687079E+002  0.8695315E+02  0.7546771E-02  0.1310402E+00
         21   -1    0    0  504  501  0.00000000000E+00  0.00000000000E+00  0.23180304445E+03  0.23180304445E+03  0.00000000000E+00 0. -1.
         21   -1    0    0  506  502 -0.00000000000E+00 -0.00000000000E+00 -0.42212436146E+03  0.42212436146E+03  0.00000000000E+00 0. -1.
         21    1    1    2  503  502 -0.87377526467E+02  0.18988945565E+02 -0.37508990757E+03  0.38560063660E+03  0.00000000000E+00 0. -1.
         21    1    1    2  504  503  0.17941049761E+02 -0.33674184521E+02  0.74889045614E+01  0.38883359695E+02  0.00000000000E+00 0. -1.
         21    1    1    2  505  501  0.42831722714E+02  0.70201278367E+02  0.82970581350E+02  0.11681991836E+03  0.00000000000E+00 0. -1.
         21    1    1    2  506  505  0.26604753992E+02 -0.55516039412E+02  0.94309104638E+02  0.11262349126E+03  0.00000000000E+00 0. -1.
<scales pt_clust_3="86.95315" pt_clust_4="38.15537" pt_clust_5="74.62284" pt_clust_6="14000.00000"></scales>
<clustering>
<clus scale="   38.155">  1  4  2 -1</clus>
<clus scale="   74.623">  1  5  2 -1</clus>
<clus scale="   86.953">  2  3  1 -1</clus>
<clus scale="   38.155">  1  3  2 -1</clus>
</clustering>
</event>
<event>
 6    0  0.6687079E+002  0.7450389E+02  0.7546771E-02  0.1345414E+00
         21   -1    0    0  506  501  0.00000000000E+00  0.00000000000E+00  0.25001333853E+03  0.25001333853E+03  0.00000000000E+00 0.  1.
         21   -1    0    0  504  502 -0.00000000000E+00 -0.00000000000E+00 -0.68432460115E+03  0.68432460115E+03  0.00000000000E+00 0.  1.
         21    1    1    2  503  505  0.55689682344E+02 -0.68096605853E+02 -0.13144921356E+02  0.88945361912E+02  0.00000000000E+00 0. -1.
         21    1    1    2  504  501 -0.58921986408E+02  0.47412614858E+02 -0.17631122652E+02  0.77657021678E+02  0.00000000000E+00 0. -1.
         21    1    1    2  505  502 -0.11309720357E+02  0.57618602203E+02 -0.58197722305E+03  0.58493187744E+03  0.00000000000E+00 0.  1.
         21    1    1    2  506  503  0.14542024421E+02 -0.36934611209E+02  0.17844200444E+03  0.18280367865E+03  0.00000000000E+00 0.  1.
<scales pt_clust_3="74.50389" pt_clust_4="14000.00000" pt_clust_5="57.88703" pt_clust_6="39.69428"></scales>
<clustering>
<clus scale="   39.694">  1  6  2 -1</clus>
<clus scale="   57.887">  2  5  1 -1</clus>
<clus scale="   74.504">  2  3  1 -1</clus>
<clus scale="   39.694">  1  3  2 -1</clus>
</clustering>
</event>
<event>
 6    0  0.6687079E+002  0.6557432E+02  0.7546771E-02  0.1375824E+00
         21   -1    0    0  505  501  0.00000000000E+00  0.00000000000E+00  0.64465389658E+03  0.64465389658E+03  0.00000000000E+00 0.  1.
         21   -1    0    0  503  502 -0.00000000000E+00 -0.00000000000E+00 -0.31380337390E+02  0.31380337390E+02  0.00000000000E+00 0.  1.
         21    1    1    2  503  506 -0.57537955481E+02 -0.57800600073E+02  0.13366350054E+03  0.15658051305E+03  0.00000000000E+00 0.  1.
         21    1    1    2  504  501 -0.48888452543E+02  0.37141498507E+01  0.21719855984E+03  0.22266362545E+03  0.00000000000E+00 0.  1.
         21    1    1    2  505  502  0.67986188470E+02  0.84944667376E+00  0.93855316995E+02  0.11589505559E+03  0.00000000000E+00 0. -1.
         21    1    1    2  506  504  0.38440219555E+02  0.53237003548E+02  0.16855618181E+03  0.18089503988E+03  0.00000000000E+00 0.  1.
<scales pt_clust_3="65.57432" pt_clust_4="49.02934" pt_clust_5="55.94225" pt_clust_6="14000.00000"></scales>
<clustering>
<clus scale="   49.029">  1  4  2 -1</clus>
<clus scale="   55.942">  2  5  1 -1</clus>
<clus scale="   65.574">  2  3  1 -1</clus>
<clus scale="   49.029">  1  3  2 -1</clus>
</clustering>
</event>
<event>
 6    0  0.6687079E+002  0.8282421E+02  0.7546771E-02  0.1321223E+00
         21   -1    0    0  504  501  0.00000000000E+00  0.00000000000E+00  0.12333374702E+03  0.12333374702E+03  0.00000000000E+00 0. -1.
         21   -1    0    0  503  502 -0.00000000000E+00 -0.00000000000E+00 -0.56479017751E+03  0.56479017751E+03  0.00000000000E+00 0. -1.
         21    1    1    2  503  505  0.12854782635E+03  0.36700293143E+00 -0.23518326083E+03  0.26802209708E+03  0.00000000000E+00 0. -1.
         21    1    1    2  504  506 -0.37596505316E+02 -0.43350893246E+02  0.81921772157E+02  0.10001986758E+03  0.00000000000E+00 0. -1.
         21    1    1    2  505  501 -0.39657587010E+02  0.23647780751E+02 -0.27619848962E+02  0.53803325163E+02  0.00000000000E+00 0. -1.
         21    1    1    2  506  502 -0.51293734026E+02  0.19336109564E+02 -0.26057509286E+03  0.26627863471E+03  0.00000000000E+00 0. -1.
<scales pt_clust_3="82.82421" pt_clust_4="14000.00000" pt_clust_5="46.17295" pt_clust_6="55.99337"></scales>
<clustering>
<clus scale="   46.173">  1  5  2 -1</clus>
<clus scale="   55.993">  2  6  1 -1</clus>
<clus scale="   82.824">  2  3  1 -1</clus>
<clus scale="   46.173">  1  3  2 -1</clus>
</clustering>
</event>
<event>
 6    0  0.6687079E+002  0.1348942E+03  0.7546771E-02  0.1220369E+00
         21   -1    0    0  504  501  0.00000000000E+00  0.00000000000E+00  0.14237847909E+04  0.14237847909E+04  0.00000000000E+00 0.  1.
         21   -1    0    0  503  502 -0.00000000000E+00 -0.00000000000E+00 -0.81247888839E+03  0.81247888839E+03  0.00000000000E+00 0.  1.
         21    1    1    2  503  506 -0.95535564651E+02 -0.60748059483E+02  0.23703046385E+03  0.26268005565E+03  0.00000000000E+00 0.  1.
         21    1    1    2  504  505 -0.81678883372E+01  0.49461471093E+02  0.89313235191E+03  0.89453817669E+03  0.00000000000E+00 0.  1.
         21    1    1    2  505  502  0.13139461470E+03  0.33193969284E+02 -0.79205984150E+03  0.80357026880E+03  0.00000000000E+00 0.  1.
         21    1    1    2  506  501 -0.27691161712E+02 -0.21907380894E+02  0.27320292822E+03  0.27547517812E+03  0.00000000000E+00 0.  1.
<scales pt_clust_3="134.89416" pt_clust_4="43.97262" pt_clust_5="14000.00000" pt_clust_6="35.30912"></scales>
<clustering>
<clus scale="   35.309">  1  6  2 -1</clus>
<clus scale="   43.973">  1  4  2 -1</clus>
<clus scale="  134.894">  1  3  2 -1</clus>
<clus scale="   35.309">  1  3  2 -1</clus>
</clustering>
</event>
<event>
 6    0  0.6687079E+002  0.1512348E+03  0.7546771E-02  0.1198964E+00
         21   -1    0    0  503  501  0.00000000000E+00  0.00000000000E+00  0.11128914308E+04  0.11128914308E+04  0.00000000000E+00 0.  1.
         21   -1    0    0  505  502 -0.00000000000E+00 -0.00000000000E+00 -0.32478747895E+03  0.32478747895E+03  0.00000000000E+00 0.  1.
         21    1    1    2  503  504 -0.25549782581E+02 -0.22562028803E+02  0.50983843157E+03  0.51097657758E+03  0.00000000000E+00 0.  1.
         21    1    1    2  504  502 -0.10725864502E+02 -0.85237437778E+02  0.47865982939E+03  0.48630823275E+03  0.00000000000E+00 0.  1.
         21    1    1    2  505  506  0.74745434251E+02  0.13466776422E+03 -0.29612327793E+03  0.33378328657E+03  0.00000000000E+00 0.  1.
         21    1    1    2  506  501 -0.38469787168E+02 -0.26868297642E+02  0.95728968779E+02  0.10661081280E+03  0.00000000000E+00 0. -1.
<scales pt_clust_3="34.08572" pt_clust_4="14000.00000" pt_clust_5="151.23484" pt_clust_6="52.61443"></scales>
<clustering>
<clus scale="   34.086">  1  3  2 -1</clus>
<clus scale="   52.614">  1  6  2 -1</clus>
<clus scale="  151.235">  2  5  1 -1</clus>
<clus scale="   34.086">  1  3  2 -1</clus>
</clustering>
</event>
<event>
 6    0  0.6687079E+002  0.9575258E+02  0.7546771E-02  0.1289490E+00
         21   -1    0    0  504  501  0.00000000000E+00  0.00000000000E+00  0.40197920446E+03  0.40197920446E+03  0.00000000000E+00 0. -1.
         21   -1    0    0  505  502 -0.00000000000E+00 -0.00000000000E+00 -0.14761977791E+03  0.14761977791E+03  0.00000000000E+00 0.  1.
         21    1    1    2  503  506 -0.80383695904E+02 -0.76979520561E+02  0.19397699301E+03  0.22363912665E+03  0.00000000000E+00 0. -1.
         21    1    1    2  504  503  0.30255088991E+02  0.80941053192E+02  0.12633081574E+03  0.15305652390E+03  0.00000000000E+00 0. -1.
         21    1    1    2  505  501  0.62384159638E+02 -0.47957623904E+02  0.14863235232E+02  0.80078916238E+02  0.00000000000E+00 0.  1.
         21    1    1    2  506  502 -0.12255552725E+02  0.43996091273E+02 -0.80811617418E+02  0.92824415590E+02  0.00000000000E+00 0.  1.
<scales pt_clust_3="14000.00000" pt_clust_4="95.75258" pt_clust_5="60.89717" pt_clust_6="45.67116"></scales>
<clustering>
<clus scale="   45.671">  2  6  1 -1</clus>
<clus scale="   60.897">  2  5  1 -1</clus>
<clus scale="   95.753">  1  4  2 -1</clus>
<clus scale="   95.753">  1  3  2 -1</clus>
</clustering>
</event>
<event>
 6    0  0.6687079E+002  0.6876051E+02  0.7546771E-02  0.1364359E+00
         21   -1    0    0  503  501  0.00000000000E+00  0.00000000000E+00  0.10611932244E+04  0.10611932244E+04  0.00000000000E+00 0.  1.
         21   -1    0    0  504  502 -0.00000000000E+00 -0.00000000000E+00 -0.29562847519E+02  0.29562847519E+02  0.00000000000E+00 0.  1.
         21    1    1    2  503  505 -0.44904898364E+02 -0.15930587838E+02  0.22472642013E+03  0.22972200032E+03  0.00000000000E+00 0. -1.
         21    1    1    2  504  501  0.74450684694E+02  0.43660040390E+02  0.59292836737E+03  0.59917706266E+03  0.00000000000E+00 0.  1.
         21    1    1    2  505  506 -0.22649459690E+02  0.42166701691E+02  0.17521671999E+03  0.18163680167E+03  0.00000000000E+00 0.  1.
         21    1    1    2  506  502 -0.68963266408E+01 -0.69896154243E+02  0.38758869384E+02  0.80220207274E+02  0.00000000000E+00 0.  1.
<scales pt_clust_3="47.64697" pt_clust_4="68.76051" pt_clust_5="50.42532" pt_clust_6="14000.00000"></scales>
<clustering>
<clus scale="   47.647">  1  3  2 -1</clus>
<clus scale="   50.425">  1  5  2 -1</clus>
<clus scale="   68.761">  1  4  2 -1</clus>
<clus scale="   47.647">  1  3  2 -1</clus>
</clustering>
</event>
<event>
 6    0  0.6687079E+002  0.1699679E+03  0.7546771E-02  0.1177881E+00
         21   -1    0    0  503  501  0.00000000000E+00  0.00000000000E+00  0.11875280868E+04  0.11875280868E+04  0.00000000000E+00 0. -1.
         21   -1    0    0  506  502 -0.00000000000E+00 -0.00000000000E+00 -0.16154023930E+03  0.16154023930E+03  0.00000000000E+00 0. -1.
         21    1    1    2  503  504  0.20511744437E+02 -0.39074216499E+02  0.13777165596E+03  0.14466704961E+03  0.00000000000E+00 0. -1.
         21    1    1    2  504  505 -0.16809186601E+02 -0.46578251244E+02  0.70754935274E+02  0.86361699316E+02  0.00000000000E+00 0. -1.
         21    1    1    2  505  502  0.13074323604E+03 -0.10381966613E+03 -0.84162668045E+02  0.18696435900E+03  0.00000000000E+00 0. -1.
         21    1    1    2  506  501 -0.13444579388E+03  0.18947213387E+03  0.90162392435E+03  0.93107521821E+03  0.00000000000E+00 0. -1.
<scales pt_clust_3="44.13078" pt_clust_4="51.81298" pt_clust_5="14000.00000" pt_clust_6="169.96792"></scales>
<clustering>
<clus scale="   44.131">  1  3  2 -1</clus>
<clus scale="   51.813">  1  4  2 -1</clus>
<clus scale="  169.968">  1  6  2 -1</clus>
<clus scale="   44.131">  1  3  2 -1</clus>
</clustering>
</event>
<event>
 6    0  0.6687079E+002  0.7915325E+02  0.7546771E-02  0.1331472E+00
         21   -1    0    0  506  501  0.00000000000E+00  0.00000000000E+00  0.21202245906E+04  0.21202245906E+04  0.00000000000E+00 0.  1.
         21   -1    0    0  503  502 -0.00000000000E+00 -0.00000000000E+00 -0.21104327903E+04  0.21104327903E+04  0.00000000000E+00 0. -1.
         21    1    1    2  503  505  0.25431313976E+02  0.40904218783E+02 -0.26108692800E+02  0.54786592197E+02  0.00000000000E+00 0. -1.
         21    1    1    2  504  502 -0.69467192011E+02 -0.36265895534E+02 -0.79723349704E+03  0.80107562361E+03  0.00000000000E+00 0. -1.
         21    1    1    2  505  501  0.53391444490E+02 -0.58460789458E+02  0.21026321107E+04  0.21041221692E+04  0.00000000000E+00 0.  1.
         21    1    1    2  506  504 -0.93555664553E+01  0.53822466209E+02 -0.12694981205E+04  0.12706729959E+04  0.00000000000E+00 0. -1.
<scales pt_clust_3="48.16541" pt_clust_4="63.06496" pt_clust_5="14000.00000" pt_clust_6="79.15325"></scales>
<clustering>
<clus scale="   48.165">  2  3  1 -1</clus>
<clus scale="   63.065">  2  4  1 -1</clus>
<clus scale="   79.153">  2  6  1 -1</clus>
<clus scale="   79.153">  1  3  2 -1</clus>
</clustering>
</event>
<event>
 6    0  0.6687079E+002  0.1300489E+03  0.7546771E-02  0.1227383E+00
         21   -1    0    0  503  501  0.00000000000E+00  0.00000000000E+00  0.16425498461E+03  0.16425498461E+03  0.00000000000E+00 0. -1.
         21   -1    0    0  504  502 -0.00000000000E+00 -0.00000000000E+00 -0.64389254652E+03  0.64389254652E+03  0.00000000000E+00 0.  1.
         21    1    1    2  503  505  0.60886808816E+02  0.73873725081E+02  0.77999310624E+02  0.12348450592E+03  0.00000000000E+00 0. -1.
         21    1    1    2  504  501  0.31281305268E+02 -0.79989820337E+02 -0.42934438370E+02  0.96022171476E+02  0.00000000000E+00 0.  1.
         21    1    1    2  505  506  0.18366775368E+02  0.50591909160E+02  0.62982719132E+01  0.54189924700E+02  0.00000000000E+00 0.  1.
         21    1    1    2  506  502 -0.11053488945E+03 -0.44475813904E+02 -0.52100070607E+03  0.53445092903E+03  0.00000000000E+00 0.  1.
<scales pt_clust_3="38.88431" pt_clust_4="85.88883" pt_clust_5="38.88431" pt_clust_6="119.26195"></scales>
<clustering>
<clus scale="   38.884">  3  5 -1 -1</clus>
<clus scale="   85.889">  1  4  2 -1</clus>
<clus scale="  119.262">  2  6  1 -1</clus>
<clus scale="   85.889">  1  3  2 -1</clus>
</clustering>
</event>
<event>
 6    0  0.6687079E+002  0.1190749E+03  0.7546771E-02  0.1244631E+00
         21   -1    0    0  505  501  0.00000000000E+00  0.00000000000E+00  0.96812950632E+03  0.96812950632E+03  0.00000000000E+00 0.  1.
         21   -1    0    0  503  502 -0.00000000000E+00 -0.00000000000E+00 -0.27846553521E+03  0.27846553521E+03  0.00000000000E+00 0.  1.
         21    1    1    2  503  501 -0.38094101652E+02 -0.22546869070E+01 -0.29900931663E+02  0.48479994926E+02  0.00000000000E+00 0.  1.
         21    1    1    2  504  502  0.53682573369E+02 -0.43212802099E+02 -0.69743225828E+02  0.98047348244E+02  0.00000000000E+00 0.  1.
         21    1    1    2  505  506 -0.11526887032E+03 -0.30192331977E+02  0.91498507554E+03  0.92271131880E+03  0.00000000000E+00 0.  1.
         21    1    1    2  506  504  0.99680398600E+02  0.75659820983E+02 -0.12567694694E+03  0.17735637955E+03  0.00000000000E+00 0.  1.
<scales pt_clust_3="38.16077" pt_clust_4="59.68646" pt_clust_5="119.07489" pt_clust_6="14000.00000"></scales>
<clustering>
<clus scale="   38.161">  2  3  1 -1</clus>
<clus scale="   59.686">  2  4  1 -1</clus>
<clus scale="  119.075">  1  5  2 -1</clus>
<clus scale="  119.075">  1  3  2 -1</clus>
</clustering>
</event>
<event>
 6    0  0.6687079E+002  0.9371700E+02  0.7546771E-02  0.1294092E+00
         21   -1    0    0  506  501  0.00000000000E+00  0.00000000000E+00  0.10712838415E+04  0.10712838415E+04  0.00000000000E+00 0.  1.
         21   -1    0    0  504  502 -0.00000000000E+00 -0.00000000000E+00 -0.67342902350E+02  0.67342902350E+02  0.00000000000E+00 0.  1.
         21    1    1    2  503  501  0.35753869716E+02  0.35663600155E+02  0.12956943779E+03  0.13906283035E+03  0.00000000000E+00 0.  1.
         21    1    1    2  504  505  0.34522262485E+02 -0.80837353959E+02  0.61160070067E+03  0.61788500667E+03  0.00000000000E+00 0.  1.
         21    1    1    2  505  503 -0.58355557329E+02 -0.48384088506E+02  0.27619970766E+03  0.28641345918E+03  0.00000000000E+00 0.  1.
         21    1    1    2  506  502 -0.11920574872E+02  0.93557842310E+02 -0.13428907016E+02  0.95265447601E+02  0.00000000000E+00 0.  1.
<scales pt_clust_3="50.49982" pt_clust_4="93.71700" pt_clust_5="60.72325" pt_clust_6="14000.00000"></scales>
<clustering>
<clus scale="   50.500">  1  3  2 -1</clus>
<clus scale="   60.723">  1  5  2 -1</clus>
<clus scale="   93.717">  1  4  2 -1</clus>
<clus scale="   50.500">  1  3  2 -1</clus>
</clustering>
</event>
<event>
 6    0  0.6687079E+002  0.1270755E+03  0.7546771E-02  0.1231861E+00
         21   -1    0    0  506  501  0.00000000000E+00  0.00000000000E+00  0.41032383421E+03  0.41032383421E+03  0.00000000000E+00 0. -1.
         21   -1    0    0  505  502 -0.00000000000E+00 -0.00000000000E+00 -0.62600774831E+03  0.62600774831E+03  0.00000000000E+00 0. -1.
         21    1    1    2  503  502 -0.11826719902E+03 -0.58613243813E+02 -0.41265914513E+03  0.43325536669E+03  0.00000000000E+00 0. -1.
         21    1    1    2  504  503  0.61787194475E+02 -0.12539206046E+02 -0.13965654102E+03  0.15322806055E+03  0.00000000000E+00 0. -1.
         21    1    1    2  505  501  0.88889399277E+01  0.84547676342E+02  0.37672259526E+03  0.38619585265E+03  0.00000000000E+00 0. -1.
         21    1    1    2  506  504  0.47591064613E+02 -0.13395226483E+02 -0.40090823211E+02  0.63652302623E+02  0.00000000000E+00 0. -1.
<scales pt_clust_3="118.55969" pt_clust_4="40.50112" pt_clust_5="85.01366" pt_clust_6="40.50112"></scales>
<clustering>
<clus scale="   40.501">  4  6 -1 -1</clus>
<clus scale="   85.014">  1  5  2 -1</clus>
<clus scale="  118.560">  2  3  1 -1</clus>
<clus scale="   85.014">  1  3  2 -1</clus>
</clustering>
</event>
<event>
 6    0  0.6687079E+002  0.1614667E+03  0.7546771E-02  0.1187051E+00
         21   -1    0    0  503  501  0.00000000000E+00  0.00000000000E+00  0.93769993447E+03  0.93769993447E+03  0.00000000000E+00 0. -1.
         21   -1    0    0  504  502 -0.00000000000E+00 -0.00000000000E+00 -0.21269334048E+03  0.21269334048E+03  0.00000000000E+00 0. -1.
         21    1    1    2  503  502 -0.42167369562E+02  0.19799135707E+02  0.75825221604E+03  0.75968185180E+03  0.00000000000E+00 0. -1.
         21    1    1    2  504  505  0.38804921779E+02  0.14592515746E+02  0.39459789322E+01  0.41645338513E+02  0.00000000000E+00 0. -1.
         21    1    1    2  505  506  0.62716910944E+02 -0.16110217739E+03 -0.95472958830E+02  0.19749027405E+03  0.00000000000E+00 0. -1.
         21    1    1    2  506  501 -0.59354463162E+02  0.12671052594E+03  0.58281357838E+02  0.15157581058E+03  0.00000000000E+00 0. -1.
<scales pt_clust_3="46.47773" pt_clust_4="41.45797" pt_clust_5="161.46672" pt_clust_6="14000.00000"></scales>
<clustering>
<clus scale="   41.458">  2  4  1 -1</clus>
<clus scale="   46.478">  1  3  2 -1</clus>
<clus scale="  161.467">  2  5  1 -1</clus>
<clus scale="   46.478">  1  3  2 -1</clus>
</clustering>
</event>
<event>
 6    0  0.6687079E+002  0.9511362E+02  0.7546771E-02  0.1290920E+00
         21   -1    0    0  505  501  0.00000000000E+00  0.00000000000E+00  0.11479972293E+04  0.11479972293E+04  0.00000000000E+00 0. -1.
         21   -1    0    0  506  502 -0.00000000000E+00 -0.00000000000E+00 -0.23838275245E+03  0.23838275245E+03  0.00000000000E+00 0. -1.
         21    1    1    2  503  501  0.27927798825E+02 -0.61929524547E+02  0.97860339777E+02  0.11912965231E+03  0.00000000000E+00 0. -1.
         21    1    1    2  504  502 -0.31485571795E+02  0.11480325131E+03  0.55016121643E+03  0.56289296656E+03  0.00000000000E+00 0. -1.
         21    1    1    2  505  504  0.24925262466E+02 -0.78141587524E+02  0.47822739906E+03  0.48521007989E+03  0.00000000000E+00 0. -1.
         21    1    1    2  506  503 -0.21367489495E+02  0.25267860765E+02 -0.21663447843E+03  0.21914728299E+03  0.00000000000E+00 0. -1.
<scales pt_clust_3="51.63886" pt_clust_4="95.11362" pt_clust_5="14000.00000" pt_clust_6="33.09130"></scales>
<clustering>
<clus scale="   33.091">  2  6  1 -1</clus>
<clus scale="   51.639">  2  3  1 -1</clus>
<clus scale="   95.114">  2  4  1 -1</clus>
<clus scale="   95.114">  1  3  2 -1</clus>
</clustering>
</event>
<event>
 6    0  0.6687079E+002  0.1676352E+03  0.7546771E-02  0.1180337E+00
         21   -1    0    0  503  501  0.00000000000E+00  0.00000000000E+00  0.43911266069E+03  0.43911266069E+03  0.00000000000E+00 0.  1.
         21   -1    0    0  505  502 -0.00000000000E+00 -0.00000000000E+00 -0.23119730919E+03  0.23119730919E+03  0.00000000000E+00 0. -1.
         21    1    1    2  503  506 -0.57040598394E+02 -0.57776944511E+02  0.13760181001E+03  0.15976878075E+03  0.00000000000E+00 0. -1.
         21    1    1    2  504  502  0.49766972514E+02  0.19672814064E+02  0.16373639598E+02  0.55963088193E+02  0.00000000000E+00 0. -1.
         21    1    1    2  505  501 -0.14029219608E+03  0.28409979677E+02 -0.14693927516E+03  0.20513453588E+03  0.00000000000E+00 0. -1.
         21    1    1    2  506  504  0.14756582196E+03  0.96941507691E+01  0.20087917705E+03  0.24944356505E+03  0.00000000000E+00 0.  1.
<scales pt_clust_3="81.18993" pt_clust_4="47.63978" pt_clust_5="147.74905" pt_clust_6="47.63978"></scales>
<clustering>
<clus scale="   47.640">  4  6 -1 -1</clus>
<clus scale="   81.190">  1  3  2 -1</clus>
<clus scale="  147.749">  2  5  1 -1</clus>
<clus scale="   81.190">  1  3  2 -1</clus>
</clustering>
</event>
<event>
 6    0  0.6687079E+002  0.1167742E+03  0.7546771E-02  0.1248516E+00
         21   -1    0    0  504  501  0.00000000000E+00  0.00000000000E+00  0.12766336924E+04  0.12766336924E+04  0.00000000000E+00 0. -1.
         21   -1    0    0  505  502 -0.00000000000E+00 -0.00000000000E+00 -0.31831022594E+03  0.31831022594E+03  0.00000000000E+00 0. -1.
         21    1    1    2  503  501  0.82747779596E+02  0.82288060177E+02  0.11840128525E+04  0.11897499547E+04  0.00000000000E+00 0. -1.
         21    1    1    2  504  502  0.59312063866E+02  0.10389086603E+02  0.37650365312E+02  0.71016927902E+02  0.00000000000E+00 0.  1.
         21    1    1    2  505  506 -0.77411142539E+02  0.15245659720E+02 -0.85531224895E+02  0.11636367802E+03  0.00000000000E+00 0. -1.
         21    1    1    2  506  503 -0.64648700923E+02 -0.10792280650E+03 -0.17780852647E+03  0.21781335767E+03  0.00000000000E+00 0. -1.
<scales pt_clust_3="116.77419" pt_clust_4="60.21506" pt_clust_5="60.52918" pt_clust_6="14000.00000"></scales>
<clustering>
<clus scale="   60.215">  2  4  1 -1</clus>
<clus scale="   60.529">  2  5  1 -1</clus>
<clus scale="  116.774">  1  3  2 -1</clus>
<clus scale="  116.774">  1  3  2 -1</clus>
</clustering>
</event>
<event>
 6    0  0.6687079E+002  0.9016576E+02  0.7546771E-02  0.1302451E+00
         21   -1    0    0  505  501  0.00000000000E+00  0.00000000000E+00  0.29257994275E+02  0.29257994275E+02  0.00000000000E+00 0. -1.
         21   -1    0    0  503  502 -0.00000000000E+00 -0.00000000000E+00 -0.11672695904E+04  0.11672695904E+04  0.00000000000E+00 0. -1.
         21    1    1    2  503  506 -0.41246455596E+02 -0.39528929494E+02 -0.65607302706E+03  0.65855571002E+03  0.00000000000E+00 0. -1.
         21    1    1    2  504  502  0.15638238416E+02  0.54401069363E+02 -0.25774903329E+03  0.26389125603E+03  0.00000000000E+00 0. -1.
         21    1    1    2  505  504  0.44431848445E+01  0.61321816868E+02 -0.16263551365E+03  0.17386896622E+03  0.00000000000E+00 0. -1.
         21    1    1    2  506  501  0.21165032335E+02 -0.76193956736E+02 -0.61554022133E+02  0.10021165240E+03  0.00000000000E+00 0. -1.
<scales pt_clust_3="57.12973" pt_clust_4="32.05091" pt_clust_5="32.05091" pt_clust_6="83.75004"></scales>
<clustering>
<clus scale="   32.051">  4  5 -1 -1</clus>
<clus scale="   57.130">  2  3  1 -1</clus>
<clus scale="   83.750">  1  6  2 -1</clus>
<clus scale="   83.750">  1  3  2 -1</clus>
</clustering>
</event>
<event>
 6    0  0.6687079E+002  0.7816249E+02  0.7546771E-02  0.1334348E+00
         21   -1    0    0  506  501  0.00000000000E+00  0.00000000000E+00  0.30904437575E+02  0.30904437575E+02  0.00000000000E+00 0. -1.
         21   -1    0    0  504  502 -0.00000000000E+00 -0.00000000000E+00 -0.12052775370E+04  0.12052775370E+04  0.00000000000E+00 0.  1.
         21    1    1    2  503  502  0.94819526808E+02 -0.45774969272E+01 -0.63973279886E+03  0.64673777536E+03  0.00000000000E+00 0.  1.
         21    1    1    2  504  505 -0.19375385691E+02  0.53175840834E+02 -0.26187762756E+02  0.62360841376E+02  0.00000000000E+00 0. -1.
         21    1    1    2  505  501 -0.32779301025E+02  0.27119706867E+02 -0.88027703938E+02  0.97769308767E+02  0.00000000000E+00 0. -1.
         21    1    1    2  506  503 -0.42664840092E+02 -0.75718050773E+02 -0.42042483383E+03  0.42931404903E+03  0.00000000000E+00 0.  1.
<scales pt_clust_3="78.16249" pt_clust_4="83.44413" pt_clust_5="42.54364" pt_clust_6="14000.00000"></scales>
<clustering>
<clus scale="   42.544">  1  5  2 -1</clus>
<clus scale="   83.444">  1  4  2 -1</clus>
<clus scale="   78.162">  2  3  1 -1</clus>
<clus scale="   42.544">  1  3  2 -1</clus>
</clustering>
</event>
<event>
 6    0  0.6687079E+002  0.1361564E+03  0.7546771E-02  0.1218596E+00
         21   -1    0    0  504  501  0.00000000000E+00  0.00000000000E+00  0.16265406284E+04  0.16265406284E+04  0.00000000000E+00 0. -1.
         21   -1    0    0  503  502 -0.00000000000E+00 -0.00000000000E+00 -0.52167195689E+02  0.52167195689E+02  0.00000000000E+00 0. -1.
         21    1    1    2  503  506 -0.36073774162E+01 -0.54126630791E+02  0.19915061280E+02  0.57786806438E+02  0.00000000000E+00 0. -1.
         21    1    1    2  504  502  0.40656300318E+02  0.44273022661E+02  0.60802697412E+02  0.85498557319E+02  0.00000000000E+00 0. -1.
         21    1    1    2  505  501  0.19363789305E+02  0.11073334200E+03  0.13317932705E+04  0.13365291410E+04  0.00000000000E+00 0. -1.
         21    1    1    2  506  505 -0.56412712207E+02 -0.10087973387E+03  0.16186240349E+03  0.19889331931E+03  0.00000000000E+00 0. -1.
<scales pt_clust_3="49.46012" pt_clust_4="60.10853" pt_clust_5="115.43965" pt_clust_6="49.46012"></scales>
<clustering>
<clus scale="   49.460">  3  6 -1 -1</clus>
<clus scale="   60.109">  2  4  1 -1</clus>
<clus scale="  115.440">  1  5  2 -1</clus>
<clus scale="  115.440">  1  3  2 -1</clus>
</clustering>
</event>
<event>
 6    0  0.6687079E+002  0.1175254E+03  0.7546771E-02  0.1247236E+00
         21   -1    0    0  505  501  0.00000000000E+00  0.00000000000E+00  0.12179899033E+03  0.12179899033E+03  0.00000000000E+00 0.  1.
         21   -1    0    0  503  502 -0.00000000000E+00 -0.00000000000E+00 -0.10893383176E+04  0.10893383176E+04  0.00000000000E+00 0.  1.
         21    1    1    2  503  506 -0.67192031396E+02 -0.25000697885E+02 -0.11310939366E+03  0.13391616375E+03  0.00000000000E+00 0.  1.
         21    1    1    2  504  501  0.38947596136E+02  0.55277004302E+02  0.89012697352E+02  0.11178426875E+03  0.00000000000E+00 0.  1.
         21    1    1    2  505  502  0.88744257126E+02 -0.54895456965E+02 -0.81181516974E+03  0.81849430309E+03  0.00000000000E+00 0.  1.
         21    1    1    2  506  504 -0.60499821867E+02  0.24619150548E+02 -0.13162746122E+03  0.14694257234E+03  0.00000000000E+00 0.  1.
<scales pt_clust_3="49.41471" pt_clust_4="67.61999" pt_clust_5="105.50869" pt_clust_6="49.41471"></scales>
<clustering>
<clus scale="   49.415">  3  6 -1 -1</clus>
<clus scale="   67.620">  1  4  2 -1</clus>
<clus scale="  105.509">  2  5  1 -1</clus>
<clus scale="   67.620">  1  3  2 -1</clus>
</clustering>
</event>
<event>
 6    0  0.6687079E+002  0.2775977E+03  0.7546771E-02  0.1097008E+00
         21   -1    0    0  506  501  0.00000000000E+00  0.00000000000E+00  0.23595976566E+04  0.23595976566E+04  0.00000000000E+00 0. -1.
         21   -1    0    0  505  502 -0.00000000000E+00 -0.00000000000E+00 -0.18675088442E+03  0.18675088442E+03  0.00000000000E+00 0.  1.
         21    1    1    2  503  502  0.27126469475E+02  0.26711608932E+03  0.10595570821E+03  0.28864071546E+03  0.00000000000E+00 0.  1.
         21    1    1    2  504  501 -0.43730950442E+02 -0.50750911458E+02  0.15861140693E+03  0.17217906217E+03  0.00000000000E+00 0.  1.
         21    1    1    2  505  504  0.98406357658E+02 -0.28893826504E+03  0.18115461254E+03  0.35494524349E+03  0.00000000000E+00 0.  1.
         21    1    1    2  506  503 -0.81801876691E+02  0.72573087182E+02  0.17271250445E+04  0.17305835199E+04  0.00000000000E+00 0. -1.
<scales pt_clust_3="277.59766" pt_clust_4="66.99292" pt_clust_5="14000.00000" pt_clust_6="120.73861"></scales>
<clustering>
<clus scale="   66.993">  1  4  2 -1</clus>
<clus scale="  120.739">  1  6  2 -1</clus>
<clus scale="  277.598">  2  3  1 -1</clus>
<clus scale="   66.993">  1  3  2 -1</clus>
</clustering>
</event>
<event>
 6    0  0.6687079E+002  0.1124848E+03  0.7546771E-02  0.1256036E+00
         21   -1    0    0  506  501  0.00000000000E+00  0.00000000000E+00  0.16721514926E+03  0.16721514926E+03  0.00000000000E+00 0.  1.
         21   -1    0    0  505  502 -0.00000000000E+00 -0.00000000000E+00 -0.27316594193E+03  0.27316594193E+03  0.00000000000E+00 0.  1.
         21    1    1    2  503  502 -0.50418835563E+01  0.59153714737E+02 -0.54847675264E+02  0.80826048022E+02  0.00000000000E+00 0.  1.
         21    1    1    2  504  503 -0.27899924934E+02  0.65537183051E+02 -0.29640008838E+02  0.77149583910E+02  0.00000000000E+00 0.  1.
         21    1    1    2  505  501  0.79572012963E+02 -0.66058235126E+02 -0.12013475751E+03  0.15851736699E+03  0.00000000000E+00 0.  1.
         21    1    1    2  506  504 -0.46630204472E+02 -0.58632662662E+02  0.98671648944E+02  0.12388809227E+03  0.00000000000E+00 0.  1.
<scales pt_clust_3="31.42938" pt_clust_4="31.42938" pt_clust_5="107.08731" pt_clust_6="74.91439"></scales>
<clustering>
<clus scale="   31.429">  3  4 -1 -1</clus>
<clus scale="   74.914">  1  6  2 -1</clus>
<clus scale="  107.087">  2  5  1 -1</clus>
<clus scale="   74.914">  1  3  2 -1</clus>
</clustering>
</event>
<event>
 6    0  0.6687079E+002  0.8607524E+02  0.7546771E-02  0.1312644E+00
         21   -1    0    0  504  501  0.00000000000E+00  0.00000000000E+00  0.12009611590E+03  0.12009611590E+03  0.00000000000E+00 0. -1.
         21   -1    0    0  506  502 -0.00000000000E+00 -0.00000000000E+00 -0.30565350138E+03  0.30565350138E+03  0.00000000000E+00 0.  1.
         21    1    1    2  503  502  0.78457863207E+02 -0.38509060233E+02 -0.20599243799E+03  0.22376654917E+03  0.00000000000E+00 0.  1.
         21    1    1    2  504  503 -0.66260855790E+02  0.43103080418E+02  0.19575444823E+02  0.81434480360E+02  0.00000000000E+00 0. -1.
         21    1    1    2  505  501  0.37553454103E+02 -0.99208884595E+01  0.40944555860E+02  0.56437067584E+02  0.00000000000E+00 0. -1.
         21    1    1    2  506  505 -0.49750461520E+02  0.53268682744E+01 -0.40084948178E+02  0.64111520162E+02  0.00000000000E+00 0. -1.
<scales pt_clust_3="86.07524" pt_clust_4="14000.00000" pt_clust_5="38.84181" pt_clust_6="43.58619"></scales>
<clustering>
<clus scale="   38.842">  1  5  2 -1</clus>
<clus scale="   43.586">  1  6  2 -1</clus>
<clus scale="   86.075">  2  3  1 -1</clus>
<clus scale="   38.842">  1  3  2 -1</clus>
</clustering>
</event>
<event>
 6    0  0.6687079E+002  0.7677633E+02  0.7546771E-02  0.1338457E+00
         21   -1    0    0  506  501  0.00000000000E+00  0.00000000000E+00  0.59007747279E+02  0.59007747279E+02  0.00000000000E+00 0.  1.
         21   -1    0    0  504  502 -0.00000000000E+00 -0.00000000000E+00 -0.59827019156E+03  0.59827019156E+03  0.00000000000E+00 0.  1.
         21    1    1    2  503  501  0.20394295702E+02 -0.29111963424E+02  0.26312038308E+02  0.44223942288E+02  0.00000000000E+00 0.  1.
         21    1    1    2  504  505  0.44236329659E+02 -0.19505173831E+02 -0.22950256546E+03  0.23453940441E+03  0.00000000000E+00 0.  1.
         21    1    1    2  505  503  0.23674029215E+02  0.77611350021E+02 -0.16191132484E+03  0.18110565541E+03  0.00000000000E+00 0.  1.
         21    1    1    2  506  502 -0.88304654576E+02 -0.28994212766E+02 -0.17416059229E+03  0.19740893673E+03  0.00000000000E+00 0.  1.
<scales pt_clust_3="35.54481" pt_clust_4="51.60826" pt_clust_5="76.77633" pt_clust_6="14000.00000"></scales>
<clustering>
<clus scale="   35.545">  1  3  2 -1</clus>
<clus scale="   51.608">  2  4  1 -1</clus>
<clus scale="   76.776">  1  5  2 -1</clus>
<clus scale="   35.545">  1  3  2 -1</clus>
</clustering>
</event>
<event>
 6    0  0.6687079E+002  0.9428954E+02  0.7546771E-02  0.1292784E+00
         21   -1    0    0  505  501  0.00000000000E+00  0.00000000000E+00  0.20823648393E+03  0.20823648393E+03  0.00000000000E+00 0.  1.
         21   -1    0    0  506  502 -0.00000000000E+00 -0.00000000000E+00 -0.82119155682E+03  0.82119155682E+03  0.00000000000E+00 0.  1.
         21    1    1    2  503  501 -0.81791447991E+02 -0.10997844591E+03 -0.45829214214E+03  0.47834797697E+03  0.00000000000E+00 0.  1.
         21    1    1    2  504  502  0.41295345889E+02  0.29481648979E+02 -0.45947509041E+02  0.68451784532E+02  0.00000000000E+00 0.  1.
         21    1    1    2  505  504  0.90452027347E+02  0.25220528113E+02  0.16995441974E+03  0.19417041247E+03  0.00000000000E+00 0.  1.
         21    1    1    2  506  503 -0.49955925245E+02  0.55276268816E+02 -0.27866984146E+03  0.28845786677E+03  0.00000000000E+00 0.  1.
<scales pt_clust_3="94.28954" pt_clust_4="50.73927" pt_clust_5="14000.00000" pt_clust_6="74.72660"></scales>
<clustering>
<clus scale="   50.739">  2  4  1 -1</clus>
<clus scale="   74.727">  2  6  1 -1</clus>
<clus scale="   94.290">  2  3  1 -1</clus>
<clus scale="   94.290">  1  3  2 -1</clus>
</clustering>
</event>
<event>
 6    0  0.6687079E+002  0.3265074E+03  0.7546771E-02  0.1072693E+00
         21   -1    0    0  504  501  0.00000000000E+00  0.00000000000E+00  0.48637906712E+03  0.48637906712E+03  0.00000000000E+00 0. -1.
         21   -1    0    0  505  502 -0.00000000000E+00 -0.00000000000E+00 -0.92311408219E+03  0.92311408219E+03  0.00000000000E+00 0. -1.
         21    1    1    2  503  501 -0.29936072166E+02 -0.38483689475E+02  0.18416501578E+03  0.19050962130E+03  0.00000000000E+00 0. -1.
         21    1    1    2  504  502  0.21986650439E+03 -0.22144375845E+03 -0.78565260984E+03  0.84535710872E+03  0.00000000000E+00 0. -1.
         21    1    1    2  505  506  0.61255715060E+01  0.40315369677E+02  0.16225571143E+02  0.43887592977E+02  0.00000000000E+00 0.  1.
         21    1    1    2  506  503 -0.19605600373E+03  0.21961207825E+03  0.14852700786E+03  0.32973882631E+03  0.00000000000E+00 0. -1.
<scales pt_clust_3="48.75616" pt_clust_4="312.71335" pt_clust_5="34.94787" pt_clust_6="34.94787"></scales>
<clustering>
<clus scale="   34.948">  5  6 -1 -1</clus>
<clus scale="   48.756">  1  3  2 -1</clus>
<clus scale="  312.713">  2  4  1 -1</clus>
<clus scale="   48.756">  1  3  2 -1</clus>
</clustering>
</event>
<event>
 6    0  0.6687079E+002  0.9488119E+02  0.7546771E-02  0.1291444E+00
         21   -1    0    0  506  501  0.00000000000E+00  0.00000000000E+00  0.10793088182E+04  0.10793088182E+04  0.00000000000E+00 0.  1.
         21   -1    0    0  504  502 -0.00000000000E+00 -0.00000000000E+00 -0.19783606583E+03  0.19783606583E+03  0.00000000000E+00 0. -1.
         21    1    1    2  503  502 -0.57406224585E+02  0.81439894834E+02 -0.16344443657E+03  0.19142104100E+03  0.00000000000E+00 0. -1.
         21    1    1    2  504  501  0.33818238014E+02  0.25475871038E+02  0.34051905559E+02  0.54334385979E+02  0.00000000000E+00 0.  1.
         21    1    1    2  505  503 -0.47605963024E+01 -0.68922008123E+02  0.11419416899E+03  0.13346615568E+03  0.00000000000E+00 0.  1.
         21    1    1    2  506  505  0.28348582873E+02 -0.37993757750E+02  0.89667111439E+03  0.89792330138E+03  0.00000000000E+00 0.  1.
<scales pt_clust_3="94.88119" pt_clust_4="42.34021" pt_clust_5="14000.00000" pt_clust_6="47.40386"></scales>
<clustering>
<clus scale="   42.340">  2  4  1 -1</clus>
<clus scale="   47.404">  1  6  2 -1</clus>
<clus scale="   94.881">  2  3  1 -1</clus>
<clus scale="   47.404">  1  3  2 -1</clus>
</clustering>
</event>
<event>
 6    0  0.6687079E+002  0.1806947E+03  0.7546771E-02  0.1167132E+00
         21   -1    0    0  503  501  0.00000000000E+00  0.00000000000E+00  0.87723151265E+03  0.87723151265E+03  0.00000000000E+00 0.  1.
         21   -1    0    0  505  502 -0.00000000000E+00 -0.00000000000E+00 -0.12106838192E+03  0.12106838192E+03  0.00000000000E+00 0. -1.
         21    1    1    2  503  502 -0.24911572946E+02 -0.36235164400E+02  0.88837242082E+02  0.99124311783E+02  0.00000000000E+00 0. -1.
         21    1    1    2  504  506 -0.63334760247E+02  0.17454804892E+01  0.19804547759E+03  0.20793352244E+03  0.00000000000E+00 0.  1.
         21    1    1    2  505  504  0.14203309572E+03  0.87947111617E+02 -0.43706822727E+02  0.17267999616E+03  0.00000000000E+00 0. -1.
         21    1    1    2  506  501 -0.53786762527E+02 -0.53457427707E+02  0.51298723378E+03  0.51856206420E+03  0.00000000000E+00 0.  1.
<scales pt_clust_3="43.97242" pt_clust_4="62.64322" pt_clust_5="163.74929" pt_clust_6="62.64322"></scales>
<clustering>
<clus scale="   43.972">  1  3  2 -1</clus>
<clus scale="   62.643">  4  6 -1 -1</clus>
<clus scale="  163.749">  2  5  1 -1</clus>
<clus scale="   43.972">  1  3  2 -1</clus>
</clustering>
</event>
<event>
 6    0  0.6687079E+002  0.1612659E+03  0.7546771E-02  0.1187275E+00
         21   -1    0    0  506  501  0.00000000000E+00  0.00000000000E+00  0.46034109824E+03  0.46034109824E+03  0.00000000000E+00 0.  1.
         21   -1    0    0  505  502 -0.00000000000E+00 -0.00000000000E+00 -0.27366848095E+03  0.27366848095E+03  0.00000000000E+00 0.  1.
         21    1    1    2  503  502 -0.30210147021E+02 -0.11390482603E+02 -0.16131600360E+03  0.16451519411E+03  0.00000000000E+00 0.  1.
         21    1    1    2  504  503  0.16555634729E+03  0.15762068272E+02  0.45812907088E+02  0.17249976632E+03  0.00000000000E+00 0.  1.
         21    1    1    2  505  501 -0.17818054464E+03 -0.39124720862E+02  0.15349205488E+03  0.23840902077E+03  0.00000000000E+00 0.  1.
         21    1    1    2  506  504  0.42834344375E+02  0.34753135192E+02  0.14868365892E+03  0.15858559800E+03  0.00000000000E+00 0.  1.
<scales pt_clust_3="32.28616" pt_clust_4="14000.00000" pt_clust_5="161.26593" pt_clust_6="53.79181"></scales>
<clustering>
<clus scale="   32.286">  2  3  1 -1</clus>
<clus scale="   53.792">  1  6  2 -1</clus>
<clus scale="  161.266">  1  5  2 -1</clus>
<clus scale="   53.792">  1  3  2 -1</clus>
</clustering>
</event>
<event>
 6    0  0.6687079E+002  0.1135441E+03  0.7546771E-02  0.1254144E+00
         21   -1    0    0  505  501  0.00000000000E+00  0.00000000000E+00  0.14142391238E+03  0.14142391238E+03  0.00000000000E+00 0.  1.
         21   -1    0    0  504  502 -0.00000000000E+00 -0.00000000000E+00 -0.54704747349E+03  0.54704747349E+03  0.00000000000E+00 0. -1.
         21    1    1    2  503  502 -0.18635117490E+02  0.47276837226E+02 -0.38525071175E+03  0.38858779941E+03  0.00000000000E+00 0. -1.
         21    1    1    2  504  506  0.59635273231E+02 -0.13318550014E+03 -0.53295692957E+02  0.15535499396E+03  0.00000000000E+00 0.  1.
         21    1    1    2  505  503 -0.70407414876E+02  0.75609333657E+02  0.62349329396E+01  0.10350289752E+03  0.00000000000E+00 0.  1.
         21    1    1    2  506  501  0.29407259135E+02  0.10299329261E+02  0.26687910663E+02  0.41025694980E+02  0.00000000000E+00 0.  1.
<scales pt_clust_3="50.80064" pt_clust_4="14000.00000" pt_clust_5="113.54412" pt_clust_6="31.15868"></scales>
<clustering>
<clus scale="   31.159">  1  6  2 -1</clus>
<clus scale="   50.801">  2  3  1 -1</clus>
<clus scale="  113.544">  1  5  2 -1</clus>
<clus scale="   31.159">  1  3  2 -1</clus>
</clustering>
</event>
<event>
 6    0  0.6687079E+002  0.1466899E+03  0.7546771E-02  0.1204600E+00
         21   -1    0    0  503  501  0.00000000000E+00  0.00000000000E+00  0.13607691798E+04  0.13607691798E+04  0.00000000000E+00 0.  1.
         21   -1    0    0  504  502 -0.00000000000E+00 -0.00000000000E+00 -0.47261180168E+02  0.47261180168E+02  0.00000000000E+00 0.  1.
         21    1    1    2  503  502  0.86347019324E+01 -0.33243936368E+02  0.23276513588E+01  0.34425794741E+02  0.00000000000E+00 0.  1.
         21    1    1    2  504  505 -0.10012588003E+03 -0.14201920742E+01  0.15210957998E+03  0.18211132068E+03  0.00000000000E+00 0.  1.
         21    1    1    2  505  506 -0.43142768090E+02  0.31397231868E+02  0.46426991391E+02  0.70728708012E+02  0.00000000000E+00 0.  1.
         21    1    1    2  506  501  0.13463394619E+03  0.32668965742E+01  0.11126437769E+04  0.11207645365E+04  0.00000000000E+00 0.  1.
<scales pt_clust_3="34.34701" pt_clust_4="37.25331" pt_clust_5="37.25331" pt_clust_6="135.76135"></scales>
<clustering>
<clus scale="   34.347">  2  3  1 -1</clus>
<clus scale="   37.253">  4  5 -1 -1</clus>
<clus scale="  135.761">  1  6  2 -1</clus>
<clus scale="  135.761">  1  3  2 -1</clus>
</clustering>
</event>
<event>
 6    0  0.6687079E+002  0.1960464E+03  0.7546771E-02  0.1153118E+00
         21   -1    0    0  505  501  0.00000000000E+00  0.00000000000E+00  0.20311376244E+03  0.20311376244E+03  0.00000000000E+00 0. -1.
         21   -1    0    0  506  502 -0.00000000000E+00 -0.00000000000E+00 -0.23262169666E+03  0.23262169666E+03  0.00000000000E+00 0. -1.
         21    1    1    2  503  501  0.43967641553E+02 -0.10590168161E+02 -0.13645705633E+01  0.45245632035E+02  0.00000000000E+00 0. -1.
         21    1    1    2  504  503  0.30003028187E+02 -0.37696270709E+02 -0.22831121650E+02  0.53314638155E+02  0.00000000000E+00 0. -1.
         21    1    1    2  505  502 -0.14899124912E+03  0.92417199126E+02  0.98979053996E+02  0.20133599812E+03  0.00000000000E+00 0. -1.
         21    1    1    2  506  504  0.75020579385E+02 -0.44130760256E+02 -0.10429129600E+03  0.13583919079E+03  0.00000000000E+00 0. -1.
<scales pt_clust_3="42.51374" pt_clust_4="32.37421" pt_clust_5="175.32636" pt_clust_6="42.51374"></scales>
<clustering>
<clus scale="   32.374">  4  6 -1 -1</clus>
<clus scale="   42.514">  3  4 -1 -1</clus>
<clus scale="  175.326">  1  5  2 -1</clus>
<clus scale="  175.326">  1  3  2 -1</clus>
</clustering>
</event>
<event>
 6    0  0.6687079E+002  0.9076279E+02  0.7546771E-02  0.1301015E+00
         21   -1    0    0  503  501  0.00000000000E+00  0.00000000000E+00  0.16847725493E+02  0.16847725493E+02  0.00000000000E+00 0. -1.
         21   -1    0    0  504  502 -0.00000000000E+00 -0.00000000000E+00 -0.17853109512E+04  0.17853109512E+04  0.00000000000E+00 0. -1.
         21    1    1    2  503  506 -0.55676046528E+02  0.25406608716E+00 -0.97844742572E+02  0.11257655331E+03  0.00000000000E+00 0. -1.
         21    1    1    2  504  505  0.75337171670E+02  0.10508302356E+03 -0.91888698306E+03  0.92793934010E+03  0.00000000000E+00 0. -1.
         21    1    1    2  505  501  0.12725402012E+02 -0.40646676525E+02 -0.16259368034E+03  0.16807972232E+03  0.00000000000E+00 0. -1.
         21    1    1    2  506  502 -0.32386527154E+02 -0.64690413119E+02 -0.58913781977E+03  0.59356306099E+03  0.00000000000E+00 0. -1.
<scales pt_clust_3="53.32773" pt_clust_4="90.76279" pt_clust_5="42.59211" pt_clust_6="14000.00000"></scales>
<clustering>
<clus scale="   42.592">  1  5  2 -1</clus>
<clus scale="   53.328">  1  3  2 -1</clus>
<clus scale="   90.763">  1  4  2 -1</clus>
<clus scale="   42.592">  1  3  2 -1</clus>
</clustering>
</event>
<event>
 6    0  0.1981216E+003  0.6066763E+02  0.7546771E-02  0.1395051E+00
         21   -1    0    0  506  501  0.00000000000E+00  0.00000000000E+00  0.19302658838E+04  0.19302658838E+04  0.00000000000E+00 0. -1.
         21   -1    0    0  503  502 -0.00000000000E+00 -0.00000000000E+00 -0.12674700504E+04  0.12674700504E+04  0.00000000000E+00 0.  1.
         21    1    1    2  503  501  0.39176364614E+01 -0.40596096271E+02  0.46727830390E+02  0.62023229848E+02  0.00000000000E+00 0.  1.
         21    1    1    2  504  502  0.60364454861E+02 -0.57823158264E+01 -0.12531200691E+04  0.12545864698E+04  0.00000000000E+00 0.  1.
         21    1    1    2  505  504 -0.11900349341E+03  0.22525904611E+02  0.16339357750E+04  0.16384185560E+04  0.00000000000E+00 0. -1.
         21    1    1    2  506  505  0.54721402087E+02  0.23852507487E+02  0.23525229717E+03  0.24270767867E+03  0.00000000000E+00 0.  1.
<scales pt_clust_3="40.78469" pt_clust_4="14000.00000" pt_clust_5="60.66763" pt_clust_6="58.29471"></scales>
<clustering>
<clus scale="   40.785">  1  3  2 -1</clus>
<clus scale="   58.295">  1  6  2 -1</clus>
<clus scale="   60.668">  1  5  2 -1</clus>
<clus scale="   40.785">  1  3  2 -1</clus>
</clustering>
</event>
<event>
 6    0  0.6687079E+002  0.1307763E+03  0.7546771E-02  0.1226308E+00
         21   -1    0    0  506  501  0.00000000000E+00  0.00000000000E+00  0.59766192643E+03  0.59766192643E+03  0.00000000000E+00 0.  1.
         21   -1    0    0  504  502 -0.00000000000E+00 -0.00000000000E+00 -0.20536246438E+03  0.20536246438E+03  0.00000000000E+00 0.  1.
         21    1    1    2  503  502 -0.75673659860E+02  0.48675435572E+02 -0.25708101116E+02  0.93577279762E+02  0.00000000000E+00 0.  1.
         21    1    1    2  504  505  0.34665635831E+02 -0.67316159434E+02 -0.45451182978E+02  0.88311843275E+02  0.00000000000E+00 0.  1.
         21    1    1    2  505  501  0.10943454079E+03  0.26884072441E+02  0.51994963322E+03  0.53202095180E+03  0.00000000000E+00 0.  1.
         21    1    1    2  506  503 -0.68426516759E+02 -0.82433485789E+01 -0.56490887069E+02  0.89114315985E+02  0.00000000000E+00 0.  1.
<scales pt_clust_3="56.85443" pt_clust_4="75.71771" pt_clust_5="113.50109" pt_clust_6="56.85443"></scales>
<clustering>
<clus scale="   56.854">  3  6 -1 -1</clus>
<clus scale="   75.718">  2  4  1 -1</clus>
<clus scale="  113.501">  1  5  2 -1</clus>
<clus scale="  113.501">  1  3  2 -1</clus>
</clustering>
</event>
<event>
 6    0  0.6687079E+002  0.1402203E+03  0.7546771E-02  0.1213033E+00
         21   -1    0    0  505  501  0.00000000000E+00  0.00000000000E+00  0.23797443368E+03  0.23797443368E+03  0.00000000000E+00 0. -1.
         21   -1    0    0  503  502 -0.00000000000E+00 -0.00000000000E+00 -0.22400222259E+03  0.22400222259E+03  0.00000000000E+00 0. -1.
         21    1    1    2  503  504 -0.46923680304E+02 -0.34075092899E+02 -0.13874717095E+03  0.15037859281E+03  0.00000000000E+00 0. -1.
         21    1    1    2  504  501  0.69410601436E+02 -0.97824869768E+02  0.46661803616E+02  0.12870454791E+03  0.00000000000E+00 0. -1.
         21    1    1    2  505  506 -0.44825545969E+02  0.70077989725E+02  0.62224314229E+02  0.10388512645E+03  0.00000000000E+00 0. -1.
         21    1    1    2  506  502  0.22338624837E+02  0.61821972941E+02  0.43833264198E+02  0.79008389100E+02  0.00000000000E+00 0. -1.
<scales pt_clust_3="57.99089" pt_clust_4="123.94828" pt_clust_5="53.43216" pt_clust_6="53.43216"></scales>
<clustering>
<clus scale="   57.991">  2  3  1 -1</clus>
<clus scale="   53.432">  5  6 -1 -1</clus>
<clus scale="  123.948">  2  4  1 -1</clus>
<clus scale="  140.220">  1  3  2 -1</clus>
</clustering>
</event>
<event>
 6    0  0.6687079E+002  0.8015554E+02  0.7546771E-02  0.1328611E+00
         21   -1    0    0  503  501  0.00000000000E+00  0.00000000000E+00  0.53965199039E+02  0.53965199039E+02  0.00000000000E+00 0. -1.
         21   -1    0    0  504  502 -0.00000000000E+00 -0.00000000000E+00 -0.89871126909E+03  0.89871126909E+03  0.00000000000E+00 0.  1.
         21    1    1    2  503  506 -0.42479659354E+02  0.30255795558E+02 -0.14573332490E+02  0.54150869278E+02  0.00000000000E+00 0. -1.
         21    1    1    2  504  505  0.25512370815E+02 -0.23709209443E+02 -0.11295189659E+03  0.11819957115E+03  0.00000000000E+00 0.  1.
         21    1    1    2  505  501  0.14396267746E+02 -0.10043170914E+03 -0.63062627937E+02  0.11945993373E+03  0.00000000000E+00 0. -1.
         21    1    1    2  506  502  0.25710207940E+01  0.93885123025E+02 -0.65415821303E+03  0.66086609397E+03  0.00000000000E+00 0.  1.
<scales pt_clust_3="50.63807" pt_clust_4="34.82826" pt_clust_5="14000.00000" pt_clust_6="80.15554"></scales>
<clustering>
<clus scale="   34.828">  2  4  1 -1</clus>
<clus scale="   50.638">  1  3  2 -1</clus>
<clus scale="   80.156">  2  6  1 -1</clus>
<clus scale="   50.638">  1  3  2 -1</clus>
</clustering>
</event>
<event>
 6    0  0.6687079E+002  0.1639677E+03  0.7546771E-02  0.1184289E+00
         21   -1    0    0  503  501  0.00000000000E+00  0.00000000000E+00  0.20673557948E+03  0.20673557948E+03  0.00000000000E+00 0.  1.
         21   -1    0    0  501  502 -0.00000000000E+00 -0.00000000000E+00 -0.10877370392E+04  0.10877370392E+04  0.00000000000E+00 0. -1.
         21    1    1    2  503  505 -0.74673243806E+02  0.12114851764E+03  0.95835454845E+02  0.17157357335E+03  0.00000000000E+00 0.  1.
         21    1    1    2  504  502 -0.16497394989E+02  0.97860042048E+02 -0.83772230900E+03  0.84358012001E+03  0.00000000000E+00 0. -1.
         21    1    1    2  505  506  0.50059157566E+02 -0.14075315481E+03 -0.61038974261E+02  0.16137882830E+03  0.00000000000E+00 0.  1.
         21    1    1    2  506  504  0.41111481229E+02 -0.78255404875E+02 -0.78075631284E+02  0.11794009700E+03  0.00000000000E+00 0.  1.
<scales pt_clust_3="156.51216" pt_clust_4="99.24088" pt_clust_5="37.60094" pt_clust_6="37.60094"></scales>
<clustering>
<clus scale="   37.601">  5  6 -1 -1</clus>
<clus scale="   99.241">  2  4  1 -1</clus>
<clus scale="  156.512">  1  3  2 -1</clus>
<clus scale="  156.512">  1  3  2 -1</clus>
</clustering>
</event>
<event>
 6    0  0.6687079E+002  0.1081921E+03  0.7546771E-02  0.1263955E+00
         21   -1    0    0  504  501  0.00000000000E+00  0.00000000000E+00  0.10533634241E+03  0.10533634241E+03  0.00000000000E+00 0. -1.
         21   -1    0    0  505  502 -0.00000000000E+00 -0.00000000000E+00 -0.29545414149E+03  0.29545414149E+03  0.00000000000E+00 0.  1.
         21    1    1    2  503  501  0.31163407924E+02  0.10226100474E+03  0.27752474138E+02  0.11044759347E+03  0.00000000000E+00 0. -1.
         21    1    1    2  504  502  0.33939305884E+02 -0.88486655540E+01 -0.18136393345E+01  0.35120715448E+02  0.00000000000E+00 0. -1.
         21    1    1    2  505  506  0.15887552709E+02 -0.25630870212E+02 -0.51996226211E+02  0.60107931083E+02  0.00000000000E+00 0.  1.
         21    1    1    2  506  503 -0.80990266517E+02 -0.67781468970E+02 -0.16406040767E+03  0.19511424389E+03  0.00000000000E+00 0.  1.
<scales pt_clust_3="108.19211" pt_clust_4="36.79354" pt_clust_5="30.15553" pt_clust_6="14000.00000"></scales>
<clustering>
<clus scale="   30.156">  2  5  1 -1</clus>
<clus scale="   36.794">  1  4  2 -1</clus>
<clus scale="  108.192">  1  3  2 -1</clus>
<clus scale="   36.794">  1  3  2 -1</clus>
</clustering>
</event>
<event>
 6    0  0.6687079E+002  0.7221905E+02  0.7546771E-02  0.1352706E+00
         21   -1    0    0  505  501  0.00000000000E+00  0.00000000000E+00  0.12665760962E+03  0.12665760962E+03  0.00000000000E+00 0. -1.
         21   -1    0    0  506  502 -0.00000000000E+00 -0.00000000000E+00 -0.18579980030E+03  0.18579980030E+03  0.00000000000E+00 0.  1.
         21    1    1    2  503  501 -0.35039289413E+02  0.11573539091E+02  0.96889456413E+01  0.38151989166E+02  0.00000000000E+00 0.  1.
         21    1    1    2  504  503  0.31206821372E+02  0.93504974620E+02  0.23534850612E+02  0.10134562236E+03  0.00000000000E+00 0. -1.
         21    1    1    2  505  502  0.24110487978E+02 -0.40210778343E+02  0.12017489625E+02  0.48400851050E+02  0.00000000000E+00 0.  1.
         21    1    1    2  506  504 -0.20278019936E+02 -0.64867735369E+02 -0.10438347656E+03  0.12455894734E+03  0.00000000000E+00 0.  1.
<scales pt_clust_3="36.90120" pt_clust_4="14000.00000" pt_clust_5="39.31219" pt_clust_6="72.21905"></scales>
<clustering>
<clus scale="   36.901">  1  3  2 -1</clus>
<clus scale="   39.312">  1  5  2 -1</clus>
<clus scale="   72.219">  2  6  1 -1</clus>
<clus scale="   36.901">  1  3  2 -1</clus>
</clustering>
</event>
<event>
 6    0  0.6687079E+002  0.1440999E+03  0.7546771E-02  0.1207916E+00
         21   -1    0    0  505  501  0.00000000000E+00  0.00000000000E+00  0.43056676718E+03  0.43056676718E+03  0.00000000000E+00 0. -1.
         21   -1    0    0  501  502 -0.00000000000E+00 -0.00000000000E+00 -0.16273636995E+03  0.16273636995E+03  0.00000000000E+00 0. -1.
         21    1    1    2  503  502 -0.66166780576E+01  0.40586164782E+02 -0.72883334624E+01  0.41762866340E+02  0.00000000000E+00 0. -1.
         21    1    1    2  504  503  0.74280307731E+02  0.42662504418E+02 -0.41449583821E+02  0.95161554205E+02  0.00000000000E+00 0.  1.
         21    1    1    2  505  506 -0.16394451574E+03 -0.45650892606E+02  0.30897006758E+03  0.35273830370E+03  0.00000000000E+00 0. -1.
         21    1    1    2  506  504  0.96280886065E+02 -0.37597776594E+02  0.75982469331E+01  0.10364041288E+03  0.00000000000E+00 0. -1.
<scales pt_clust_3="41.12198" pt_clust_4="94.74358" pt_clust_5="144.09988" pt_clust_6="14000.00000"></scales>
<clustering>
<clus scale="   41.122">  2  3  1 -1</clus>
<clus scale="   94.744">  2  4  1 -1</clus>
<clus scale="  144.100">  1  5  2 -1</clus>
<clus scale="  144.100">  1  3  2 -1</clus>
</clustering>
</event>
<event>
 6    0  0.6687079E+002  0.7901606E+02  0.7546771E-02  0.1331867E+00
         21   -1    0    0  505  501  0.00000000000E+00  0.00000000000E+00  0.84611658802E+02  0.84611658802E+02  0.00000000000E+00 0.  1.
         21   -1    0    0  506  502 -0.00000000000E+00 -0.00000000000E+00 -0.13186061029E+04  0.13186061029E+04  0.00000000000E+00 0.  1.
         21    1    1    2  503  502 -0.70476710305E+02 -0.26623005680E+02 -0.84336711607E+03  0.84672536492E+03  0.00000000000E+00 0.  1.
         21    1    1    2  504  501  0.32655320901E+02 -0.16201615065E+02  0.64686452243E+02  0.74250921999E+02  0.00000000000E+00 0.  1.
         21    1    1    2  505  503 -0.40405391750E+02 -0.30442454726E+02 -0.17386291940E+03  0.18107361341E+03  0.00000000000E+00 0. -1.
         21    1    1    2  506  504  0.78226781154E+02  0.73267075471E+02 -0.28145086085E+03  0.30116786135E+03  0.00000000000E+00 0.  1.
<scales pt_clust_3="79.01606" pt_clust_4="36.45356" pt_clust_5="47.34168" pt_clust_6="14000.00000"></scales>
<clustering>
<clus scale="   36.454">  1  4  2 -1</clus>
<clus scale="   47.342">  1  5  2 -1</clus>
<clus scale="   79.016">  2  3  1 -1</clus>
<clus scale="   36.454">  1  3  2 -1</clus>
</clustering>
</event>
<event>
 6    0  0.6687079E+002  0.1404426E+03  0.7546771E-02  0.1212735E+00
         21   -1    0    0  506  501  0.00000000000E+00  0.00000000000E+00  0.65737431159E+03  0.65737431159E+03  0.00000000000E+00 0. -1.
         21   -1    0    0  504  502 -0.00000000000E+00 -0.00000000000E+00 -0.25207092065E+04  0.25207092065E+04  0.00000000000E+00 0.  1.
         21    1    1    2  503  501  0.35387229769E+02 -0.27788929695E+02  0.64903848502E+03  0.65059621555E+03  0.00000000000E+00 0. -1.
         21    1    1    2  504  505  0.80166690575E+02 -0.72808124477E+01 -0.82939272662E+03  0.83328986762E+03  0.00000000000E+00 0.  1.
         21    1    1    2  505  503  0.33973910346E+02  0.22015843292E+02 -0.23537719606E+03  0.23883330665E+03  0.00000000000E+00 0.  1.
         21    1    1    2  506  502 -0.14952783069E+03  0.13053898851E+02 -0.14476034573E+04  0.14553641283E+04  0.00000000000E+00 0.  1.
<scales pt_clust_3="44.99423" pt_clust_4="35.23026" pt_clust_5="35.23026" pt_clust_6="131.36288"></scales>
<clustering>
<clus scale="   35.230">  4  5 -1 -1</clus>
<clus scale="   44.994">  1  3  2 -1</clus>
<clus scale="  131.363">  1  6  2 -1</clus>
<clus scale="   44.994">  1  3  2 -1</clus>
</clustering>
</event>
<event>
 6    0  0.6687079E+002  0.7882762E+02  0.7546771E-02  0.1332412E+00
         21   -1    0    0  503  501  0.00000000000E+00  0.00000000000E+00  0.33379162005E+02  0.33379162005E+02  0.00000000000E+00 0. -1.
         21   -1    0    0  505  502 -0.00000000000E+00 -0.00000000000E+00 -0.70359714613E+03  0.70359714613E+03  0.00000000000E+00 0. -1.
         21    1    1    2  503  502  0.78335867614E+02  0.73406703455E+01 -0.18834322096E+03  0.20411654141E+03  0.00000000000E+00 0. -1.
         21    1    1    2  504  501  0.47392643306E+02  0.25017741542E+02 -0.41166363192E+02  0.67576767382E+02  0.00000000000E+00 0. -1.
         21    1    1    2  505  506 -0.34949261676E+02  0.52071975063E+01 -0.23118447435E+03  0.23386925189E+03  0.00000000000E+00 0. -1.
         21    1    1    2  506  504 -0.90779249244E+02 -0.37565609394E+02 -0.20952392562E+03  0.23141374745E+03  0.00000000000E+00 0. -1.
<scales pt_clust_3="78.82762" pt_clust_4="50.36172" pt_clust_5="35.33505" pt_clust_6="14000.00000"></scales>
<clustering>
<clus scale="   35.335">  2  5  1 -1</clus>
<clus scale="   50.362">  1  4  2 -1</clus>
<clus scale="   78.828">  2  3  1 -1</clus>
<clus scale="   50.362">  1  3  2 -1</clus>
</clustering>
</event>
<event>
 6    0  0.6687079E+002  0.9182938E+02  0.7546771E-02  0.1298481E+00
         21   -1    0    0  503  501  0.00000000000E+00  0.00000000000E+00  0.14228689846E+04  0.14228689846E+04  0.00000000000E+00 0.  1.
         21   -1    0    0  505  502 -0.00000000000E+00 -0.00000000000E+00 -0.51567818657E+02  0.51567818657E+02  0.00000000000E+00 0.  1.
         21    1    1    2  503  504 -0.45542091585E+02  0.27483455182E+01  0.36493850342E+03  0.36777948120E+03  0.00000000000E+00 0.  1.
         21    1    1    2  504  506 -0.89045141726E+02  0.55373389474E+02  0.31147898943E+03  0.32865545848E+03  0.00000000000E+00 0.  1.
         21    1    1    2  505  501  0.11464881894E+03 -0.14569218054E+02  0.71627791374E+03  0.72554163458E+03  0.00000000000E+00 0.  1.
         21    1    1    2  506  502  0.19938414371E+02 -0.43552516938E+02 -0.21394240618E+02  0.52460229040E+02  0.00000000000E+00 0.  1.
<scales pt_clust_3="45.62494" pt_clust_4="14000.00000" pt_clust_5="91.82938" pt_clust_6="47.58773"></scales>
<clustering>
<clus scale="   45.625">  1  3  2 -1</clus>
<clus scale="   47.588">  2  6  1 -1</clus>
<clus scale="   91.829">  1  5  2 -1</clus>
<clus scale="   45.625">  1  3  2 -1</clus>
</clustering>
</event>
<event>
 6    0  0.6687079E+002  0.1169201E+03  0.7546771E-02  0.1248266E+00
         21   -1    0    0  506  501  0.00000000000E+00  0.00000000000E+00  0.20716965473E+04  0.20716965473E+04  0.00000000000E+00 0.  1.
         21   -1    0    0  504  502 -0.00000000000E+00 -0.00000000000E+00 -0.21469378085E+02  0.21469378085E+02  0.00000000000E+00 0.  1.
         21    1    1    2  503  501 -0.44770739597E+02  0.83229189321E+02  0.51225947475E+03  0.52090429692E+03  0.00000000000E+00 0.  1.
         21    1    1    2  504  505  0.19495470977E+02 -0.83657428440E+02  0.17291277078E+03  0.19307372949E+03  0.00000000000E+00 0.  1.
         21    1    1    2  505  503 -0.17301136641E+02  0.60155457849E+02  0.15859585385E+03  0.17050118268E+03  0.00000000000E+00 0.  1.
         21    1    1    2  506  502  0.42576405261E+02 -0.59727218730E+02  0.12064590698E+04  0.12086867163E+04  0.00000000000E+00 0.  1.
<scales pt_clust_3="48.71174" pt_clust_4="100.43759" pt_clust_5="48.71174" pt_clust_6="73.34910"></scales>
<clustering>
<clus scale="   48.712">  3  5 -1 -1</clus>
<clus scale="   73.349">  1  6  2 -1</clus>
<clus scale="  100.438">  2  4  1 -1</clus>
<clus scale="   73.349">  1  3  2 -1</clus>
</clustering>
</event>
<event>
 6    0  0.6687079E+002  0.6903728E+02  0.7546771E-02  0.1363398E+00
         21   -1    0    0  504  501  0.00000000000E+00  0.00000000000E+00  0.84602449006E+03  0.84602449006E+03  0.00000000000E+00 0. -1.
         21   -1    0    0  505  502 -0.00000000000E+00 -0.00000000000E+00 -0.10511853656E+03  0.10511853656E+03  0.00000000000E+00 0.  1.
         21    1    1    2  503  506 -0.53318338141E+02  0.68139725634E+02  0.11018549180E+03  0.14009536036E+03  0.00000000000E+00 0. -1.
         21    1    1    2  504  503  0.57360981547E+02 -0.35788611974E+02  0.68894814574E+03  0.69225765035E+03  0.00000000000E+00 0. -1.
         21    1    1    2  505  501  0.17416587208E+02  0.28937142951E+02 -0.36629910359E+01  0.33972242427E+02  0.00000000000E+00 0. -1.
         21    1    1    2  506  502 -0.21459230615E+02 -0.61288256611E+02 -0.54564693001E+02  0.84817773487E+02  0.00000000000E+00 0.  1.
<scales pt_clust_3="14000.00000" pt_clust_4="69.03728" pt_clust_5="33.77419" pt_clust_6="38.63470"></scales>
<clustering>
<clus scale="   33.774">  2  5  1 -1</clus>
<clus scale="   38.635">  2  6  1 -1</clus>
<clus scale="   69.037">  1  4  2 -1</clus>
<clus scale="   69.037">  1  3  2 -1</clus>
</clustering>
</event>
<event>
 6    0  0.6687079E+002  0.1192068E+03  0.7546771E-02  0.1244411E+00
         21   -1    0    0  506  501  0.00000000000E+00  0.00000000000E+00  0.20929895534E+03  0.20929895534E+03  0.00000000000E+00 0. -1.
         21   -1    0    0  501  502 -0.00000000000E+00 -0.00000000000E+00 -0.49187588142E+03  0.49187588142E+03  0.00000000000E+00 0. -1.
         21    1    1    2  503  505 -0.16432547712E+02  0.92287494247E+02  0.46393498039E+01  0.93853789403E+02  0.00000000000E+00 0. -1.
         21    1    1    2  504  503  0.41029949467E+02 -0.22876311991E+02  0.38602138282E+02  0.60802199660E+02  0.00000000000E+00 0.  1.
         21    1    1    2  505  502 -0.51183310741E+02  0.97256160849E+01 -0.41852961810E+03  0.42175983703E+03  0.00000000000E+00 0. -1.
         21    1    1    2  506  504  0.26585908986E+02 -0.79136798340E+02  0.92711203932E+02  0.12475901067E+03  0.00000000000E+00 0. -1.
<scales pt_clust_3="109.54028" pt_clust_4="35.27389" pt_clust_5="52.09913" pt_clust_6="35.27389"></scales>
<clustering>
<clus scale="   35.274">  4  6 -1 -1</clus>
<clus scale="   52.099">  2  5  1 -1</clus>
<clus scale="  109.540">  2  3  1 -1</clus>
<clus scale="  119.207">  1  3  2 -1</clus>
</clustering>
</event>
<event>
 6    0  0.6687079E+002  0.9006031E+02  0.7546771E-02  0.1302706E+00
         21   -1    0    0  506  501  0.00000000000E+00  0.00000000000E+00  0.14625031884E+04  0.14625031884E+04  0.00000000000E+00 0. -1.
         21   -1    0    0  505  502 -0.00000000000E+00 -0.00000000000E+00 -0.14158619883E+03  0.14158619883E+03  0.00000000000E+00 0. -1.
         21    1    1    2  503  501  0.15175374038E+02 -0.30579040297E+02  0.24406401438E+03  0.24643987664E+03  0.00000000000E+00 0.  1.
         21    1    1    2  504  503 -0.11438514062E+03 -0.80219905614E+02  0.42644861051E+03  0.44875116831E+03  0.00000000000E+00 0. -1.
         21    1    1    2  505  504  0.62066526603E+02  0.62953016731E+02 -0.11278834679E+03  0.14330578220E+03  0.00000000000E+00 0. -1.
         21    1    1    2  506  502  0.37143239980E+02  0.47845929180E+02  0.76319271148E+03  0.76559256010E+03  0.00000000000E+00 0. -1.
<scales pt_clust_3="34.13751" pt_clust_4="90.06031" pt_clust_5="14000.00000" pt_clust_6="54.76126"></scales>
<clustering>
<clus scale="   34.138">  1  3  2 -1</clus>
<clus scale="   54.761">  1  6  2 -1</clus>
<clus scale="   90.060">  1  4  2 -1</clus>
<clus scale="   34.138">  1  3  2 -1</clus>
</clustering>
</event>
<event>
 6    0  0.6687079E+002  0.1081198E+03  0.7546771E-02  0.1264092E+00
         21   -1    0    0  504  501  0.00000000000E+00  0.00000000000E+00  0.12451518287E+03  0.12451518287E+03  0.00000000000E+00 0. -1.
         21   -1    0    0  506  502 -0.00000000000E+00 -0.00000000000E+00 -0.17470544587E+03  0.17470544587E+03  0.00000000000E+00 0.  1.
         21    1    1    2  503  502  0.15133674823E+02  0.52554555112E+02 -0.36830495913E+02  0.65935535228E+02  0.00000000000E+00 0.  1.
         21    1    1    2  504  505 -0.36615302081E+02 -0.84953612368E+02  0.13830169962E+02  0.93536464558E+02  0.00000000000E+00 0. -1.
         21    1    1    2  505  503 -0.13046065965E+02  0.58623571878E+02 -0.60367258789E+02  0.85153560998E+02  0.00000000000E+00 0.  1.
         21    1    1    2  506  501  0.34527693224E+02 -0.26224514622E+02  0.33177321746E+02  0.54595067953E+02  0.00000000000E+00 0. -1.
<scales pt_clust_3="30.41072" pt_clust_4="103.31662" pt_clust_5="30.41072" pt_clust_6="43.35766"></scales>
<clustering>
<clus scale="   30.411">  3  5 -1 -1</clus>
<clus scale="   43.358">  1  6  2 -1</clus>
<clus scale="  103.317">  1  4  2 -1</clus>
<clus scale="   43.358">  1  3  2 -1</clus>
</clustering>
</event>
<event>
 6    0  0.6687079E+002  0.9598481E+02  0.7546771E-02  0.1288973E+00
         21   -1    0    0  505  501  0.00000000000E+00  0.00000000000E+00  0.68327331477E+03  0.68327331477E+03  0.00000000000E+00 0.  1.
         21   -1    0    0  503  502 -0.00000000000E+00 -0.00000000000E+00 -0.13852047336E+03  0.13852047336E+03  0.00000000000E+00 0.  1.
         21    1    1    2  503  506  0.23738605843E+02  0.97288199436E+02 -0.93607473671E+02  0.13707980991E+03  0.00000000000E+00 0.  1.
         21    1    1    2  504  502 -0.26781773405E+02 -0.72623382376E+02  0.84314342028E+02  0.11445666134E+03  0.00000000000E+00 0.  1.
         21    1    1    2  505  504 -0.48463085262E+02 -0.47093254240E+02  0.41201585211E+03  0.41752066729E+03  0.00000000000E+00 0.  1.
         21    1    1    2  506  501  0.51506252824E+02  0.22428437181E+02  0.14203012095E+03  0.15273664960E+03  0.00000000000E+00 0.  1.
<scales pt_clust_3="14000.00000" pt_clust_4="95.98481" pt_clust_5="30.95232" pt_clust_6="56.17765"></scales>
<clustering>
<clus scale="   56.178">  1  6  2 -1</clus>
<clus scale="   30.952">  1  5  2 -1</clus>
<clus scale="   95.985">  1  4  2 -1</clus>
<clus scale="   56.178">  1  3  2 -1</clus>
</clustering>
</event>
<event>
 6    0  0.6687079E+002  0.7217468E+02  0.7546771E-02  0.1352850E+00
         21   -1    0    0  505  501  0.00000000000E+00  0.00000000000E+00  0.78639843997E+02  0.78639843997E+02  0.00000000000E+00 0. -1.
         21   -1    0    0  503  502 -0.00000000000E+00 -0.00000000000E+00 -0.15449732756E+04  0.15449732756E+04  0.00000000000E+00 0.  1.
         21    1    1    2  503  506  0.53903844249E+02 -0.42982831529E+01 -0.13553994568E+04  0.13564777135E+04  0.00000000000E+00 0.  1.
         21    1    1    2  504  502 -0.17489717571E+02  0.43022635669E+02 -0.98290451724E+02  0.10870993653E+03  0.00000000000E+00 0.  1.
         21    1    1    2  505  504  0.45376895344E+02  0.26562183202E+02 -0.11220596690E+02  0.53763500608E+02  0.00000000000E+00 0.  1.
         21    1    1    2  506  501 -0.81791022021E+02 -0.65286535718E+02 -0.14229263778E+01  0.10466196897E+03  0.00000000000E+00 0. -1.
<scales pt_clust_3="52.06748" pt_clust_4="46.44176" pt_clust_5="14000.00000" pt_clust_6="72.17468"></scales>
<clustering>
<clus scale="   46.442">  2  4  1 -1</clus>
<clus scale="   52.067">  2  3  1 -1</clus>
<clus scale="   72.175">  2  6  1 -1</clus>
<clus scale="   72.175">  1  3  2 -1</clus>
</clustering>
</event>
<event>
 6    0  0.6687079E+002  0.9583618E+02  0.7546771E-02  0.1289304E+00
         21   -1    0    0  505  501  0.00000000000E+00  0.00000000000E+00  0.28173276988E+03  0.28173276988E+03  0.00000000000E+00 0. -1.
         21   -1    0    0  503  502 -0.00000000000E+00 -0.00000000000E+00 -0.14705912985E+03  0.14705912985E+03  0.00000000000E+00 0. -1.
         21    1    1    2  503  504 -0.41185239799E+02 -0.13784113416E+01 -0.58924271163E+02  0.71904059185E+02  0.00000000000E+00 0. -1.
         21    1    1    2  504  501  0.10016423232E+03  0.70344025380E+02  0.21735731090E+03  0.24945010713E+03  0.00000000000E+00 0. -1.
         21    1    1    2  505  506 -0.45788704926E+02 -0.32392732315E+02  0.87392606583E+01  0.56765035739E+02  0.00000000000E+00 0.  1.
         21    1    1    2  506  502 -0.13190287598E+02 -0.36572881724E+02 -0.32498660366E+02  0.50672697679E+02  0.00000000000E+00 0. -1.
<scales pt_clust_3="54.91723" pt_clust_4="95.83618" pt_clust_5="14000.00000" pt_clust_6="38.87878"></scales>
<clustering>
<clus scale="   38.879">  2  6  1 -1</clus>
<clus scale="   54.917">  2  3  1 -1</clus>
<clus scale="   95.836">  1  4  2 -1</clus>
<clus scale="   95.836">  1  3  2 -1</clus>
</clustering>
</event>
<event>
 6    0  0.6687079E+002  0.1157592E+03  0.7546771E-02  0.1250262E+00
         21   -1    0    0  504  501  0.00000000000E+00  0.00000000000E+00  0.10113961630E+02  0.10113961630E+02  0.00000000000E+00 0. -1.
         21   -1    0    0  503  502 -0.00000000000E+00 -0.00000000000E+00 -0.18087787472E+04  0.18087787472E+04  0.00000000000E+00 0. -1.
         21    1    1    2  503  505 -0.26268417748E+02 -0.46897198307E+02 -0.63143345260E+03  0.63371727295E+03  0.00000000000E+00 0. -1.
         21    1    1    2  504  506  0.38420084146E+02  0.16940599816E+02 -0.21535609402E+03  0.21941133521E+03  0.00000000000E+00 0. -1.
         21    1    1    2  505  501  0.19479904315E+02 -0.61421901715E+02 -0.45807611400E+03  0.46258603837E+03  0.00000000000E+00 0.  1.
         21    1    1    2  506  502 -0.31631570712E+02  0.91378500206E+02 -0.49379912496E+03  0.50317806230E+03  0.00000000000E+00 0. -1.
<scales pt_clust_3="48.46921" pt_clust_4="41.98913" pt_clust_5="48.46921" pt_clust_6="101.63385"></scales>
<clustering>
<clus scale="   41.989">  1  4  2 -1</clus>
<clus scale="   48.469">  3  5 -1 -1</clus>
<clus scale="  101.634">  1  6  2 -1</clus>
<clus scale="   41.989">  1  3  2 -1</clus>
</clustering>
</event>
<event>
 6    0  0.6687079E+002  0.2291831E+03  0.7546771E-02  0.1127216E+00
         21   -1    0    0  506  501  0.00000000000E+00  0.00000000000E+00  0.93655193615E+02  0.93655193615E+02  0.00000000000E+00 0.  1.
         21   -1    0    0  505  502 -0.00000000000E+00 -0.00000000000E+00 -0.94558431054E+03  0.94558431054E+03  0.00000000000E+00 0.  1.
         21    1    1    2  503  502  0.45214992669E+02  0.81473741054E+02 -0.37043089639E+03  0.38197043740E+03  0.00000000000E+00 0.  1.
         21    1    1    2  504  503  0.10490948541E+03 -0.31028270171E+02 -0.14044053944E+03  0.17802330970E+03  0.00000000000E+00 0.  1.
         21    1    1    2  505  501 -0.20674323552E+03  0.54623204858E+02 -0.25093535381E+03  0.32968926542E+03  0.00000000000E+00 0.  1.
         21    1    1    2  506  504  0.56618757443E+02 -0.10506867574E+03 -0.90122327284E+02  0.14955649164E+03  0.00000000000E+00 0.  1.
<scales pt_clust_3="93.17921" pt_clust_4="94.35231" pt_clust_5="207.33880" pt_clust_6="94.35231"></scales>
<clustering>
<clus scale="   93.179">  2  3  1 -1</clus>
<clus scale="   94.352">  4  6 -1 -1</clus>
<clus scale="  207.339">  2  5  1 -1</clus>
<clus scale="  229.183">  1  3  2 -1</clus>
</clustering>
</event>
<event>
 6    0  0.6687079E+002  0.1156740E+03  0.7546771E-02  0.1250409E+00
         21   -1    0    0  505  501  0.00000000000E+00  0.00000000000E+00  0.78937268526E+02  0.78937268526E+02  0.00000000000E+00 0.  1.
         21   -1    0    0  503  502 -0.00000000000E+00 -0.00000000000E+00 -0.59646856685E+03  0.59646856685E+03  0.00000000000E+00 0. -1.
         21    1    1    2  503  504  0.47013093978E+02  0.85320796871E+01 -0.23121720141E+03  0.23610256589E+03  0.00000000000E+00 0. -1.
         21    1    1    2  504  506 -0.77083795799E+02  0.91653300782E+02 -0.21055086262E+03  0.24222696974E+03  0.00000000000E+00 0. -1.
         21    1    1    2  505  502 -0.55049442105E+02 -0.23332661338E+02 -0.53547239392E+02  0.80263073749E+02  0.00000000000E+00 0. -1.
         21    1    1    2  506  501  0.85120143926E+02 -0.76852719131E+02 -0.22215994902E+02  0.11681322600E+03  0.00000000000E+00 0.  1.
<scales pt_clust_3="47.78104" pt_clust_4="115.67396" pt_clust_5="51.23039" pt_clust_6="14000.00000"></scales>
<clustering>
<clus scale="   47.781">  2  3  1 -1</clus>
<clus scale="   51.230">  2  5  1 -1</clus>
<clus scale="  115.674">  2  4  1 -1</clus>
<clus scale="  115.674">  1  3  2 -1</clus>
</clustering>
</event>
<event>
 6    0  0.6687079E+002  0.1258349E+03  0.7546771E-02  0.1233770E+00
         21   -1    0    0  503  501  0.00000000000E+00  0.00000000000E+00  0.36695085384E+02  0.36695085384E+02  0.00000000000E+00 0. -1.
         21   -1    0    0  505  502 -0.00000000000E+00 -0.00000000000E+00 -0.56533055546E+03  0.56533055546E+03  0.00000000000E+00 0. -1.
         21    1    1    2  503  504  0.37794518427E+01 -0.40995417124E+02 -0.38568955712E+02  0.56413409984E+02  0.00000000000E+00 0. -1.
         21    1    1    2  504  502 -0.58867856544E+02 -0.64141434100E+02 -0.13808731584E+03  0.16324109439E+03  0.00000000000E+00 0. -1.
         21    1    1    2  505  506  0.36015797209E+02 -0.33604581217E+01 -0.12405857717E+03  0.12922445936E+03  0.00000000000E+00 0.  1.
         21    1    1    2  506  501  0.19072607492E+02  0.10849730935E+03 -0.22792062135E+03  0.25314667711E+03  0.00000000000E+00 0. -1.
<scales pt_clust_3="39.36021" pt_clust_4="39.36021" pt_clust_5="36.17223" pt_clust_6="113.49996"></scales>
<clustering>
<clus scale="   36.172">  2  5  1 -1</clus>
<clus scale="   39.360">  3  4 -1 -1</clus>
<clus scale="  113.500">  2  6  1 -1</clus>
<clus scale="  125.835">  1  3  2 -1</clus>
</clustering>
</event>
<event>
 6    0  0.6687079E+002  0.5991118E+02  0.7546771E-02  0.1398205E+00
         21   -1    0    0  505  501  0.00000000000E+00  0.00000000000E+00  0.54080645519E+03  0.54080645519E+03  0.00000000000E+00 0. -1.
         21   -1    0    0  503  502 -0.00000000000E+00 -0.00000000000E+00 -0.91155020834E+02  0.91155020834E+02  0.00000000000E+00 0. -1.
         21    1    1    2  503  501 -0.30603780156E+02  0.45732589810E+02 -0.12770999255E+02  0.56490349198E+02  0.00000000000E+00 0. -1.
         21    1    1    2  504  506  0.10245241921E+03  0.29221590029E+02  0.33542229333E+02  0.11169369129E+03  0.00000000000E+00 0. -1.
         21    1    1    2  505  504 -0.49852049275E+02 -0.28884665107E+02  0.40195018384E+03  0.40605849454E+03  0.00000000000E+00 0. -1.
         21    1    1    2  506  502 -0.21996589777E+02 -0.46069514732E+02  0.26930020437E+02  0.57718941000E+02  0.00000000000E+00 0. -1.
<scales pt_clust_3="47.55965" pt_clust_4="14000.00000" pt_clust_5="59.91118" pt_clust_6="51.05145"></scales>
<clustering>
<clus scale="   51.051">  2  6  1 -1</clus>
<clus scale="   47.560">  2  3  1 -1</clus>
<clus scale="   59.911">  1  5  2 -1</clus>
<clus scale="   59.911">  1  3  2 -1</clus>
</clustering>
</event>
<event>
 6    0  0.6687079E+002  0.1363403E+03  0.7546771E-02  0.1218340E+00
         21   -1    0    0  503  501  0.00000000000E+00  0.00000000000E+00  0.29234089885E+03  0.29234089885E+03  0.00000000000E+00 0.  1.
         21   -1    0    0  504  502 -0.00000000000E+00 -0.00000000000E+00 -0.66326125753E+03  0.66326125753E+03  0.00000000000E+00 0.  1.
         21    1    1    2  503  505 -0.45385148313E+02 -0.30279504541E+02  0.14686845047E+03  0.15667482831E+03  0.00000000000E+00 0.  1.
         21    1    1    2  504  501  0.89740365647E+02  0.11491161116E+03 -0.73205215495E+02  0.16314721935E+03  0.00000000000E+00 0. -1.
         21    1    1    2  505  506 -0.87874946939E+02 -0.61441886054E+02  0.63959551880E+02  0.12485165573E+03  0.00000000000E+00 0.  1.
         21    1    1    2  506  502  0.43519729605E+02 -0.23190220561E+02 -0.50854314554E+03  0.51092845299E+03  0.00000000000E+00 0.  1.
<scales pt_clust_3="53.83150" pt_clust_4="136.34030" pt_clust_5="14000.00000" pt_clust_6="49.31281"></scales>
<clustering>
<clus scale="   49.313">  2  6  1 -1</clus>
<clus scale="   53.832">  1  3  2 -1</clus>
<clus scale="  136.340">  2  4  1 -1</clus>
<clus scale="   53.832">  1  3  2 -1</clus>
</clustering>
</event>
<event>
 6    0  0.6687079E+002  0.1054066E+03  0.7546771E-02  0.1269321E+00
         21   -1    0    0  506  501  0.00000000000E+00  0.00000000000E+00  0.37907941816E+03  0.37907941816E+03  0.00000000000E+00 0.  1.
         21   -1    0    0  505  502 -0.00000000000E+00 -0.00000000000E+00 -0.89447844757E+02  0.89447844757E+02  0.00000000000E+00 0.  1.
         21    1    1    2  503  502 -0.58528313303E+02 -0.69696656501E+02  0.32938499075E+02  0.96789111510E+02  0.00000000000E+00 0.  1.
         21    1    1    2  504  503  0.46255310463E+02  0.13223197587E+03  0.20194201064E+03  0.24577515100E+03  0.00000000000E+00 0.  1.
         21    1    1    2  505  501  0.31648861622E+02 -0.26771746815E+02 -0.15934089184E+02  0.44410269845E+02  0.00000000000E+00 0.  1.
         21    1    1    2  506  504 -0.19375858782E+02 -0.35763572553E+02  0.70685152873E+02  0.81552730561E+02  0.00000000000E+00 0.  1.
<scales pt_clust_3="14000.00000" pt_clust_4="105.40664" pt_clust_5="41.88539" pt_clust_6="40.67502"></scales>
<clustering>
<clus scale="   40.675">  1  6  2 -1</clus>
<clus scale="   41.885">  2  5  1 -1</clus>
<clus scale="  105.407">  1  4  2 -1</clus>
<clus scale="   40.675">  1  3  2 -1</clus>
</clustering>
</event>
<event>
 6    0  0.6687079E+002  0.1318671E+03  0.7546771E-02  0.1224711E+00
         21   -1    0    0  504  501  0.00000000000E+00  0.00000000000E+00  0.10628741142E+04  0.10628741142E+04  0.00000000000E+00 0. -1.
         21   -1    0    0  505  502 -0.00000000000E+00 -0.00000000000E+00 -0.97977052762E+02  0.97977052762E+02  0.00000000000E+00 0. -1.
         21    1    1    2  503  501  0.54213344384E+02  0.66440362855E+02  0.48944410890E+03  0.49689933010E+03  0.00000000000E+00 0. -1.
         21    1    1    2  504  506 -0.13427179996E+03 -0.76930486218E+02  0.43686164870E+03  0.46346015587E+03  0.00000000000E+00 0. -1.
         21    1    1    2  505  503  0.10222729366E+03  0.47567160497E+02 -0.32466092308E+02  0.11733329227E+03  0.00000000000E+00 0. -1.
         21    1    1    2  506  502 -0.22168838082E+02 -0.37077037134E+02  0.71057396101E+02  0.83158388664E+02  0.00000000000E+00 0. -1.
<scales pt_clust_3="85.75202" pt_clust_4="30.52893" pt_clust_5="118.53369" pt_clust_6="30.52893"></scales>
<clustering>
<clus scale="   30.529">  4  6 -1 -1</clus>
<clus scale="   85.752">  1  3  2 -1</clus>
<clus scale="  118.534">  2  5  1 -1</clus>
<clus scale="   85.752">  1  3  2 -1</clus>
</clustering>
</event>
<event>
 6    0  0.6687079E+002  0.2062494E+03  0.7546771E-02  0.1144571E+00
         21   -1    0    0  504  501  0.00000000000E+00  0.00000000000E+00  0.12043879879E+03  0.12043879879E+03  0.00000000000E+00 0. -1.
         21   -1    0    0  506  502 -0.00000000000E+00 -0.00000000000E+00 -0.79431454477E+03  0.79431454477E+03  0.00000000000E+00 0. -1.
         21    1    1    2  503  502 -0.96044792408E+02  0.92002061982E+01 -0.37406735937E+03  0.38631028369E+03  0.00000000000E+00 0. -1.
         21    1    1    2  504  503 -0.13781130990E+02  0.17147292236E+03 -0.24348136551E+03  0.29812087821E+03  0.00000000000E+00 0. -1.
         21    1    1    2  505  501  0.31240944211E+02 -0.10228072980E+03 -0.25365695562E+01  0.10697559754E+03  0.00000000000E+00 0. -1.
         21    1    1    2  506  505  0.78584979186E+02 -0.78392398758E+02 -0.53790451544E+02  0.12334658412E+03  0.00000000000E+00 0. -1.
<scales pt_clust_3="96.48443" pt_clust_4="193.30738" pt_clust_5="70.58460" pt_clust_6="70.58460"></scales>
<clustering>
<clus scale="   70.585">  5  6 -1 -1</clus>
<clus scale="   96.484">  2  3  1 -1</clus>
<clus scale="  193.307">  2  4  1 -1</clus>
<clus scale="  206.249">  1  3  2 -1</clus>
</clustering>
</event>
<event>
 6    0  0.6687079E+002  0.9725461E+02  0.7546771E-02  0.1286177E+00
         21   -1    0    0  503  501  0.00000000000E+00  0.00000000000E+00  0.22007223491E+03  0.22007223491E+03  0.00000000000E+00 0.  1.
         21   -1    0    0  506  502 -0.00000000000E+00 -0.00000000000E+00 -0.12227229739E+03  0.12227229739E+03  0.00000000000E+00 0.  1.
         21    1    1    2  503  504 -0.86076302839E+02 -0.47450099779E+02  0.34824011605E+02  0.10427537420E+03  0.00000000000E+00 0.  1.
         21    1    1    2  504  502  0.11237263609E+03 -0.33296895430E+02  0.47257365970E+02  0.12637068974E+03  0.00000000000E+00 0.  1.
         21    1    1    2  505  501  0.17906359296E+02  0.24102479975E+02  0.25233071273E+02  0.39220850705E+02  0.00000000000E+00 0.  1.
         21    1    1    2  506  505 -0.44202692550E+02  0.56644515235E+02 -0.95145113338E+01  0.72477617654E+02  0.00000000000E+00 0.  1.
<scales pt_clust_3="97.25461" pt_clust_4="14000.00000" pt_clust_5="30.02611" pt_clust_6="73.34930"></scales>
<clustering>
<clus scale="   30.026">  1  5  2 -1</clus>
<clus scale="   73.349">  2  6  1 -1</clus>
<clus scale="   97.255">  1  3  2 -1</clus>
<clus scale="   30.026">  1  3  2 -1</clus>
</clustering>
</event>
<event>
 6    0  0.6687079E+002  0.8205785E+02  0.7546771E-02  0.1323311E+00
         21   -1    0    0  506  501  0.00000000000E+00  0.00000000000E+00  0.43870300998E+02  0.43870300998E+02  0.00000000000E+00 0.  1.
         21   -1    0    0  504  502 -0.00000000000E+00 -0.00000000000E+00 -0.18960163890E+04  0.18960163890E+04  0.00000000000E+00 0.  1.
         21    1    1    2  503  501 -0.63605690520E+02 -0.30580694263E+02 -0.22249932841E+02  0.73999474590E+02  0.00000000000E+00 0.  1.
         21    1    1    2  504  503 -0.31206335163E+02  0.79431789370E+02 -0.16187237500E+04  0.16209718762E+04  0.00000000000E+00 0.  1.
         21    1    1    2  505  502  0.54632963104E+02 -0.11668954973E+02 -0.16188463828E+03  0.17125291612E+03  0.00000000000E+00 0. -1.
         21    1    1    2  506  505  0.40179062579E+02 -0.37182140134E+02 -0.49287766856E+02  0.73662423096E+02  0.00000000000E+00 0.  1.
<scales pt_clust_3="82.05785" pt_clust_4="14000.00000" pt_clust_5="62.95862" pt_clust_6="54.74366"></scales>
<clustering>
<clus scale="   54.744">  1  6  2 -1</clus>
<clus scale="   62.959">  1  5  2 -1</clus>
<clus scale="   82.058">  1  3  2 -1</clus>
<clus scale="   54.744">  1  3  2 -1</clus>
</clustering>
</event>
<event>
 6    0  0.6687079E+002  0.8490788E+02  0.7546771E-02  0.1315674E+00
         21   -1    0    0  504  501  0.00000000000E+00  0.00000000000E+00  0.15017767688E+04  0.15017767688E+04  0.00000000000E+00 0. -1.
         21   -1    0    0  503  502 -0.00000000000E+00 -0.00000000000E+00 -0.85912945783E+02  0.85912945783E+02  0.00000000000E+00 0.  1.
         21    1    1    2  503  501  0.34272275024E+02 -0.34681568173E+02 -0.69324980171E+02  0.84754662892E+02  0.00000000000E+00 0.  1.
         21    1    1    2  504  506  0.13306662244E+02 -0.80763353819E+02  0.61157989193E+03  0.61703302245E+03  0.00000000000E+00 0. -1.
         21    1    1    2  505  502 -0.44443484530E+02  0.26953939498E+02  0.20645219845E+03  0.21289492341E+03  0.00000000000E+00 0.  1.
         21    1    1    2  506  505 -0.31354527385E+01  0.88490982494E+02  0.66715671281E+03  0.67300710583E+03  0.00000000000E+00 0. -1.
<scales pt_clust_3="48.75859" pt_clust_4="14000.00000" pt_clust_5="35.07647" pt_clust_6="84.90788"></scales>
<clustering>
<clus scale="   48.759">  2  3  1 -1</clus>
<clus scale="   35.076">  2  5  1 -1</clus>
<clus scale="   84.908">  2  6  1 -1</clus>
<clus scale="   84.908">  1  3  2 -1</clus>
</clustering>
</event>
<event>
 6    0  0.6687079E+002  0.7864912E+02  0.7546771E-02  0.1332929E+00
         21   -1    0    0  503  501  0.00000000000E+00  0.00000000000E+00  0.46244523640E+02  0.46244523640E+02  0.00000000000E+00 0. -1.
         21   -1    0    0  504  502 -0.00000000000E+00 -0.00000000000E+00 -0.90190178945E+03  0.90190178945E+03  0.00000000000E+00 0. -1.
         21    1    1    2  503  505  0.11440061726E+03  0.68007631063E+01 -0.17848183172E+03  0.21210732157E+03  0.00000000000E+00 0. -1.
         21    1    1    2  504  506 -0.80398911013E+02  0.49908521760E+02 -0.48766389998E+03  0.49676042997E+03  0.00000000000E+00 0. -1.
         21    1    1    2  505  502  0.24828288491E+02 -0.42203405817E+02 -0.16798579952E+03  0.17497657047E+03  0.00000000000E+00 0.  1.
         21    1    1    2  506  501 -0.58829994741E+02 -0.14505879050E+02 -0.21525734590E+02  0.64301991088E+02  0.00000000000E+00 0. -1.
<scales pt_clust_3="14000.00000" pt_clust_4="78.64912" pt_clust_5="48.96500" pt_clust_6="59.83283"></scales>
<clustering>
<clus scale="   48.965">  2  5  1 -1</clus>
<clus scale="   59.833">  1  6  2 -1</clus>
<clus scale="   78.649">  2  4  1 -1</clus>
<clus scale="   59.833">  1  3  2 -1</clus>
</clustering>
</event>
<event>
 6    0  0.6687079E+002  0.6683390E+02  0.7546771E-02  0.1371203E+00
         21   -1    0    0  506  501  0.00000000000E+00  0.00000000000E+00  0.41493677571E+02  0.41493677571E+02  0.00000000000E+00 0.  1.
         21   -1    0    0  504  502 -0.00000000000E+00 -0.00000000000E+00 -0.11982448954E+04  0.11982448954E+04  0.00000000000E+00 0. -1.
         21    1    1    2  503  502  0.29699294622E+02  0.52791290097E+02 -0.82633119889E+03  0.82854825972E+03  0.00000000000E+00 0. -1.
         21    1    1    2  504  505 -0.28028403274E+02 -0.89569021781E+02 -0.19961537175E+03  0.22057764549E+03  0.00000000000E+00 0. -1.
         21    1    1    2  505  501 -0.67119295333E+02  0.27117981711E+02 -0.64719321684E+02  0.97102911065E+02  0.00000000000E+00 0.  1.
         21    1    1    2  506  503  0.65448403984E+02  0.96597499732E+01 -0.66085325551E+02  0.93509756747E+02  0.00000000000E+00 0. -1.
<scales pt_clust_3="60.57201" pt_clust_4="60.70012" pt_clust_5="66.83390" pt_clust_6="14000.00000"></scales>
<clustering>
<clus scale="   60.572">  2  3  1 -1</clus>
<clus scale="   60.700">  2  4  1 -1</clus>
<clus scale="   66.834">  2  5  1 -1</clus>
<clus scale="   66.834">  1  3  2 -1</clus>
</clustering>
</event>
<event>
 6    0  0.6687079E+002  0.1307684E+03  0.7546771E-02  0.1226320E+00
         21   -1    0    0  506  501  0.00000000000E+00  0.00000000000E+00  0.10038348122E+04  0.10038348122E+04  0.00000000000E+00 0. -1.
         21   -1    0    0  503  502 -0.00000000000E+00 -0.00000000000E+00 -0.93388249160E+02  0.93388249160E+02  0.00000000000E+00 0. -1.
         21    1    1    2  503  504  0.47468828490E+02  0.55121760227E+02 -0.57942060642E+02  0.92999895270E+02  0.00000000000E+00 0. -1.
         21    1    1    2  504  501  0.69498628992E+02 -0.10869956742E+03  0.52384661428E+03  0.53950063084E+03  0.00000000000E+00 0. -1.
         21    1    1    2  505  502 -0.60990504915E+02  0.40544378258E+02  0.18665915682E+03  0.20051266574E+03  0.00000000000E+00 0. -1.
         21    1    1    2  506  505 -0.55976952567E+02  0.13033428931E+02  0.25788285262E+03  0.26420986955E+03  0.00000000000E+00 0. -1.
<scales pt_clust_3="72.74406" pt_clust_4="123.70494" pt_clust_5="37.55792" pt_clust_6="37.55792"></scales>
<clustering>
<clus scale="   37.558">  5  6 -1 -1</clus>
<clus scale="   72.744">  2  3  1 -1</clus>
<clus scale="  123.705">  1  4  2 -1</clus>
<clus scale="  123.705">  1  3  2 -1</clus>
</clustering>
</event>
<event>
 6    0  0.6687079E+002  0.6365881E+02  0.7546771E-02  0.1383089E+00
         21   -1    0    0  505  501  0.00000000000E+00  0.00000000000E+00  0.42095789559E+03  0.42095789559E+03  0.00000000000E+00 0. -1.
         21   -1    0    0  503  502 -0.00000000000E+00 -0.00000000000E+00 -0.17233102052E+03  0.17233102052E+03  0.00000000000E+00 0. -1.
         21    1    1    2  503  504 -0.47242863950E+02 -0.42901283722E+01 -0.66147701479E+02  0.81399089716E+02  0.00000000000E+00 0. -1.
         21    1    1    2  504  501  0.13189784489E+02 -0.91017330029E+02  0.26195306441E+02  0.95625931943E+02  0.00000000000E+00 0. -1.
         21    1    1    2  505  506 -0.21568238034E+02  0.43384867204E+02  0.32731506417E+03  0.33088152990E+03  0.00000000000E+00 0. -1.
         21    1    1    2  506  502  0.55621317495E+02  0.51922591197E+02 -0.38735794064E+02  0.85382364562E+02  0.00000000000E+00 0. -1.
<scales pt_clust_3="47.43726" pt_clust_4="63.65881" pt_clust_5="48.76791" pt_clust_6="14000.00000"></scales>
<clustering>
<clus scale="   47.437">  2  3  1 -1</clus>
<clus scale="   48.768">  1  5  2 -1</clus>
<clus scale="   63.659">  1  4  2 -1</clus>
<clus scale="   48.768">  1  3  2 -1</clus>
</clustering>
</event>
<event>
 6    0  0.6687079E+002  0.1387947E+03  0.7546771E-02  0.1214960E+00
         21   -1    0    0  503  501  0.00000000000E+00  0.00000000000E+00  0.23828574005E+04  0.23828574005E+04  0.00000000000E+00 0.  1.
         21   -1    0    0  504  502 -0.00000000000E+00 -0.00000000000E+00 -0.31592811326E+03  0.31592811326E+03  0.00000000000E+00 0.  1.
         21    1    1    2  503  506 -0.11871319314E+01 -0.14125753796E+03  0.23133873213E+04  0.23176962700E+04  0.00000000000E+00 0.  1.
         21    1    1    2  504  505 -0.74048582333E+02  0.44995627921E+02 -0.21268243943E+03  0.22965543564E+03  0.00000000000E+00 0.  1.
         21    1    1    2  505  501  0.90128845048E+01  0.77873446198E+02 -0.24186939119E+02  0.82039708274E+02  0.00000000000E+00 0.  1.
         21    1    1    2  506  502  0.66222829760E+02  0.18388463838E+02 -0.95886555488E+01  0.69394099886E+02  0.00000000000E+00 0.  1.
<scales pt_clust_3="138.79469" pt_clust_4="63.31485" pt_clust_5="14000.00000" pt_clust_6="68.72844"></scales>
<clustering>
<clus scale="   68.728">  2  6  1 -1</clus>
<clus scale="   63.315">  2  4  1 -1</clus>
<clus scale="  138.795">  1  3  2 -1</clus>
<clus scale="  138.795">  1  3  2 -1</clus>
</clustering>
</event>
<event>
 6    0  0.6687079E+002  0.1863703E+03  0.7546771E-02  0.1161776E+00
         21   -1    0    0  503  501  0.00000000000E+00  0.00000000000E+00  0.48548562198E+02  0.48548562198E+02  0.00000000000E+00 0.  1.
         21   -1    0    0  506  502 -0.00000000000E+00 -0.00000000000E+00 -0.14172388322E+04  0.14172388322E+04  0.00000000000E+00 0.  1.
         21    1    1    2  503  505  0.11084348565E+03  0.83862470579E+02 -0.32831513495E+03  0.35652492216E+03  0.00000000000E+00 0.  1.
         21    1    1    2  504  501 -0.68097403446E+01 -0.50185587866E+02 -0.90078234052E+01  0.51440321495E+02  0.00000000000E+00 0.  1.
         21    1    1    2  505  502  0.18865063161E+02  0.69106881157E+02 -0.24295533448E+03  0.25329616298E+03  0.00000000000E+00 0.  1.
         21    1    1    2  506  504 -0.12289880847E+03 -0.10278376387E+03 -0.78841197715E+03  0.80452598774E+03  0.00000000000E+00 0.  1.
<scales pt_clust_3="52.00398" pt_clust_4="50.64549" pt_clust_5="52.00398" pt_clust_6="171.54011"></scales>
<clustering>
<clus scale="   50.645">  1  4  2 -1</clus>
<clus scale="   52.004">  3  5 -1 -1</clus>
<clus scale="  171.540">  2  6  1 -1</clus>
<clus scale="   50.645">  1  3  2 -1</clus>
</clustering>
</event>
<event>
 6    0  0.6687079E+002  0.9256499E+02  0.7546771E-02  0.1296756E+00
         21   -1    0    0  502  501  0.00000000000E+00  0.00000000000E+00  0.65518061025E+03  0.65518061025E+03  0.00000000000E+00 0. -1.
         21   -1    0    0  506  502 -0.00000000000E+00 -0.00000000000E+00 -0.23161171509E+03  0.23161171509E+03  0.00000000000E+00 0.  1.
         21    1    1    2  503  504 -0.44963548566E+02  0.11117723748E+03  0.18117099792E+03  0.21726718418E+03  0.00000000000E+00 0. -1.
         21    1    1    2  504  501 -0.74676254461E+01 -0.68680177152E+02  0.30077723071E+03  0.30860925890E+03  0.00000000000E+00 0. -1.
         21    1    1    2  505  503  0.83850214576E+02 -0.34199700272E+02  0.13624649492E+03  0.16359579872E+03  0.00000000000E+00 0. -1.
         21    1    1    2  506  505 -0.31419040564E+02 -0.82973600559E+01 -0.19462582838E+03  0.19732008354E+03  0.00000000000E+00 0.  1.
<scales pt_clust_3="14000.00000" pt_clust_4="70.44344" pt_clust_5="92.56499" pt_clust_6="32.49619"></scales>
<clustering>
<clus scale="   32.496">  2  6  1 -1</clus>
<clus scale="   70.443">  1  4  2 -1</clus>
<clus scale="   92.565">  2  5  1 -1</clus>
<clus scale="   70.443">  1  3  2 -1</clus>
</clustering>
</event>
<event>
 6    0  0.6687079E+002  0.2118037E+03  0.7546771E-02  0.1140146E+00
         21   -1    0    0  503  501  0.00000000000E+00  0.00000000000E+00  0.28407543567E+04  0.28407543567E+04  0.00000000000E+00 0. -1.
         21   -1    0    0  504  502 -0.00000000000E+00 -0.00000000000E+00 -0.16464524237E+03  0.16464524237E+03  0.00000000000E+00 0. -1.
         21    1    1    2  503  506  0.59114207910E+02 -0.70362563338E+02 -0.14444068956E+02  0.93026937090E+02  0.00000000000E+00 0. -1.
         21    1    1    2  504  505  0.28892405660E+02  0.54255646315E+02 -0.50121229896E+02  0.79313201601E+02  0.00000000000E+00 0. -1.
         21    1    1    2  505  501 -0.19044327288E+03  0.90236998170E+01  0.27220304839E+04  0.27286993280E+04  0.00000000000E+00 0. -1.
         21    1    1    2  506  502  0.10243665931E+03  0.70832172057E+01  0.18643929308E+02  0.10436013241E+03  0.00000000000E+00 0. -1.
<scales pt_clust_3="79.66456" pt_clust_4="61.46907" pt_clust_5="189.78867" pt_clust_6="79.66456"></scales>
<clustering>
<clus scale="   61.469">  2  4  1 -1</clus>
<clus scale="   79.665">  3  6 -1 -1</clus>
<clus scale="  189.789">  1  5  2 -1</clus>
<clus scale="  189.789">  1  3  2 -1</clus>
</clustering>
</event>
<event>
 6    0  0.6687079E+002  0.1948794E+03  0.7546771E-02  0.1154133E+00
         21   -1    0    0  503  501  0.00000000000E+00  0.00000000000E+00  0.49995274096E+03  0.49995274096E+03  0.00000000000E+00 0.  1.
         21   -1    0    0  505  502 -0.00000000000E+00 -0.00000000000E+00 -0.19517498519E+03  0.19517498519E+03  0.00000000000E+00 0. -1.
         21    1    1    2  503  506  0.78025449842E+01  0.32188574154E+02  0.14615196940E+03  0.14985787325E+03  0.00000000000E+00 0.  1.
         21    1    1    2  504  501 -0.19865019796E+03  0.28012155213E+02  0.23430154200E+03  0.30845387755E+03  0.00000000000E+00 0.  1.
         21    1    1    2  505  504  0.27557348759E+02  0.24254483708E+02 -0.29946183970E+02  0.47375746801E+02  0.00000000000E+00 0. -1.
         21    1    1    2  506  502  0.16329030422E+03 -0.84455213074E+02 -0.45729571663E+02  0.18944022855E+03  0.00000000000E+00 0. -1.
<scales pt_clust_3="33.12075" pt_clust_4="14000.00000" pt_clust_5="37.38545" pt_clust_6="194.87938"></scales>
<clustering>
<clus scale="   33.121">  1  3  2 -1</clus>
<clus scale="   37.385">  2  5  1 -1</clus>
<clus scale="  194.879">  2  6  1 -1</clus>
<clus scale="   33.121">  1  3  2 -1</clus>
</clustering>
</event>
<event>
 6    0  0.6687079E+002  0.1399090E+03  0.7546771E-02  0.1213451E+00
         21   -1    0    0  506  501  0.00000000000E+00  0.00000000000E+00  0.22431425679E+04  0.22431425679E+04  0.00000000000E+00 0. -1.
         21   -1    0    0  503  502 -0.00000000000E+00 -0.00000000000E+00 -0.28807162202E+03  0.28807162202E+03  0.00000000000E+00 0.  1.
         21    1    1    2  503  504 -0.85242987119E+02  0.92113967143E+02 -0.26472947323E+03  0.29297276971E+03  0.00000000000E+00 0.  1.
         21    1    1    2  504  505  0.56503123598E+02 -0.12406056638E+02  0.32380222412E+03  0.32892916192E+03  0.00000000000E+00 0.  1.
         21    1    1    2  505  501  0.89195893727E+02 -0.10917192098E+03  0.89275860539E+03  0.90382096860E+03  0.00000000000E+00 0. -1.
         21    1    1    2  506  502 -0.60456030206E+02  0.29464010478E+02  0.10032395896E+04  0.10054912897E+04  0.00000000000E+00 0. -1.
<scales pt_clust_3="126.21930" pt_clust_4="38.66495" pt_clust_5="38.66495" pt_clust_6="67.25370"></scales>
<clustering>
<clus scale="   38.665">  4  5 -1 -1</clus>
<clus scale="   67.254">  1  6  2 -1</clus>
<clus scale="  126.219">  2  3  1 -1</clus>
<clus scale="   67.254">  1  3  2 -1</clus>
</clustering>
</event>
<event>
 6    0  0.6687079E+002  0.1703710E+03  0.7546771E-02  0.1177462E+00
         21   -1    0    0  505  501  0.00000000000E+00  0.00000000000E+00  0.85037491009E+03  0.85037491009E+03  0.00000000000E+00 0. -1.
         21   -1    0    0  504  502 -0.00000000000E+00 -0.00000000000E+00 -0.10311778828E+03  0.10311778828E+03  0.00000000000E+00 0. -1.
         21    1    1    2  503  502  0.23802103854E+02 -0.39689411798E+02  0.91967551545E+01  0.47184423935E+02  0.00000000000E+00 0. -1.
         21    1    1    2  504  501  0.16145722088E+02  0.18927227630E+03  0.99015894648E+02  0.21421677411E+03  0.00000000000E+00 0. -1.
         21    1    1    2  505  506  0.30808463269E+02  0.10662022720E+02  0.36753518794E+03  0.36897825751E+03  0.00000000000E+00 0. -1.
         21    1    1    2  506  503 -0.70756289211E+02 -0.16024488723E+03  0.27150928407E+03  0.32311324281E+03  0.00000000000E+00 0. -1.
<scales pt_clust_3="46.70859" pt_clust_4="170.37098" pt_clust_5="32.60123" pt_clust_6="14000.00000"></scales>
<clustering>
<clus scale="   32.601">  1  5  2 -1</clus>
<clus scale="   46.709">  2  3  1 -1</clus>
<clus scale="  170.371">  2  4  1 -1</clus>
<clus scale="   32.601">  1  3  2 -1</clus>
</clustering>
</event>
<event>
 6    0  0.6687079E+002  0.7781024E+02  0.7546771E-02  0.1335383E+00
         21   -1    0    0  506  501  0.00000000000E+00  0.00000000000E+00  0.16348236535E+03  0.16348236535E+03  0.00000000000E+00 0.  1.
         21   -1    0    0  505  502 -0.00000000000E+00 -0.00000000000E+00 -0.13463796736E+03  0.13463796736E+03  0.00000000000E+00 0.  1.
         21    1    1    2  503  504 -0.49259693941E+02 -0.77156170580E+02  0.40973897023E+02  0.10029183587E+03  0.00000000000E+00 0.  1.
         21    1    1    2  504  502 -0.55101469074E+01  0.77684809575E+02 -0.61115578371E+02  0.98996996304E+02  0.00000000000E+00 0.  1.
         21    1    1    2  505  501  0.37927068637E+02  0.31309225836E+02  0.34164343627E+02  0.59882656365E+02  0.00000000000E+00 0.  1.
         21    1    1    2  506  503  0.16842772211E+02 -0.31837864831E+02  0.14821735713E+02  0.38948844172E+02  0.00000000000E+00 0.  1.
<scales pt_clust_3="14000.00000" pt_clust_4="77.81024" pt_clust_5="48.22837" pt_clust_6="36.01845"></scales>
<clustering>
<clus scale="   36.018">  1  6  2 -1</clus>
<clus scale="   48.228">  1  5  2 -1</clus>
<clus scale="   77.810">  2  4  1 -1</clus>
<clus scale="   36.018">  1  3  2 -1</clus>
</clustering>
</event>
<event>
 6    0  0.6687079E+002  0.1386883E+03  0.7546771E-02  0.1215105E+00
         21   -1    0    0  506  501  0.00000000000E+00  0.00000000000E+00  0.41188073575E+02  0.41188073575E+02  0.00000000000E+00 0. -1.
         21   -1    0    0  503  502 -0.00000000000E+00 -0.00000000000E+00 -0.14741266660E+04  0.14741266660E+04  0.00000000000E+00 0. -1.
         21    1    1    2  503  505 -0.29569546813E+02 -0.10866666268E+03 -0.20700041627E+03  0.23565223108E+03  0.00000000000E+00 0. -1.
         21    1    1    2  504  502  0.44133989871E+02  0.56388918080E+02 -0.94629151048E+03  0.94899691356E+03  0.00000000000E+00 0. -1.
         21    1    1    2  505  501  0.25825242330E+02 -0.52438414857E+02 -0.13853797004E+03  0.15036455578E+03  0.00000000000E+00 0. -1.
         21    1    1    2  506  504 -0.40389685388E+02  0.10471615946E+03 -0.14110869568E+03  0.18030103919E+03  0.00000000000E+00 0. -1.
<scales pt_clust_3="43.48579" pt_clust_4="71.60670" pt_clust_5="43.48579" pt_clust_6="124.86446"></scales>
<clustering>
<clus scale="   43.486">  3  5 -1 -1</clus>
<clus scale="   71.607">  2  4  1 -1</clus>
<clus scale="  124.864">  1  6  2 -1</clus>
<clus scale="  124.864">  1  3  2 -1</clus>
</clustering>
</event>
<event>
 6    0  0.6687079E+002  0.8574693E+02  0.7546771E-02  0.1313491E+00
         21   -1    0    0  503  501  0.00000000000E+00  0.00000000000E+00  0.21894675563E+03  0.21894675563E+03  0.00000000000E+00 0. -1.
         21   -1    0    0  504  502 -0.00000000000E+00 -0.00000000000E+00 -0.15580850626E+03  0.15580850626E+03  0.00000000000E+00 0. -1.
         21    1    1    2  503  502 -0.66644766309E+01 -0.80944284709E+02 -0.68790876793E+02  0.10643578912E+03  0.00000000000E+00 0. -1.
         21    1    1    2  504  505  0.23620603166E+02 -0.21716105959E+02 -0.40981496195E+01  0.32346823371E+02  0.00000000000E+00 0. -1.
         21    1    1    2  505  506 -0.74021434057E+02  0.63225218156E+02  0.17892548482E+02  0.98978503737E+02  0.00000000000E+00 0. -1.
         21    1    1    2  506  501  0.57065307522E+02  0.39435172511E+02  0.11813472730E+03  0.13699414567E+03  0.00000000000E+00 0. -1.
<scales pt_clust_3="14000.00000" pt_clust_4="32.08617" pt_clust_5="85.74693" pt_clust_6="69.88415"></scales>
<clustering>
<clus scale="   32.086">  2  4  1 -1</clus>
<clus scale="   69.884">  1  6  2 -1</clus>
<clus scale="   85.747">  1  5  2 -1</clus>
<clus scale="   69.884">  1  3  2 -1</clus>
</clustering>
</event>
<event>
 6    0  0.6687079E+002  0.1105976E+03  0.7546771E-02  0.1259467E+00
         21   -1    0    0  506  501  0.00000000000E+00  0.00000000000E+00  0.21037927907E+03  0.21037927907E+03  0.00000000000E+00 0. -1.
         21   -1    0    0  504  502 -0.00000000000E+00 -0.00000000000E+00 -0.62286349436E+03  0.62286349436E+03  0.00000000000E+00 0. -1.
         21    1    1    2  503  502  0.45193933247E+02  0.34044107522E+02 -0.47677133316E+02  0.73990552779E+02  0.00000000000E+00 0. -1.
         21    1    1    2  504  505 -0.10602567715E+03  0.20903125963E+01 -0.29442305343E+03  0.31293888863E+03  0.00000000000E+00 0. -1.
         21    1    1    2  505  501  0.11360380277E+03 -0.46165064165E+02 -0.23939351989E+03  0.26897266500E+03  0.00000000000E+00 0. -1.
         21    1    1    2  506  503 -0.52772058860E+02  0.10030644047E+02  0.16900949134E+03  0.17734066702E+03  0.00000000000E+00 0. -1.
<scales pt_clust_3="46.01137" pt_clust_4="110.59761" pt_clust_5="14000.00000" pt_clust_6="53.71689"></scales>
<clustering>
<clus scale="   53.717">  1  6  2 -1</clus>
<clus scale="   46.011">  1  3  2 -1</clus>
<clus scale="  110.598">  2  4  1 -1</clus>
<clus scale="   53.717">  1  3  2 -1</clus>
</clustering>
</event>
<event>
 6    0  0.6687079E+002  0.1620877E+03  0.7546771E-02  0.1186360E+00
         21   -1    0    0  506  501  0.00000000000E+00  0.00000000000E+00  0.46902324570E+03  0.46902324570E+03  0.00000000000E+00 0.  1.
         21   -1    0    0  503  502 -0.00000000000E+00 -0.00000000000E+00 -0.21795288486E+03  0.21795288486E+03  0.00000000000E+00 0.  1.
         21    1    1    2  503  505 -0.10040831804E+03 -0.78909990249E+02 -0.57041158948E+02  0.13986533061E+03  0.00000000000E+00 0.  1.
         21    1    1    2  504  502 -0.63779351947E+02  0.32713545176E+02 -0.76337656244E+02  0.10471589914E+03  0.00000000000E+00 0.  1.
         21    1    1    2  505  501 -0.82787923941E+00 -0.34961908378E+02  0.63812391058E+02  0.72767037001E+02  0.00000000000E+00 0. -1.
         21    1    1    2  506  504  0.16501554923E+03  0.81158353450E+02  0.32063678498E+03  0.36962786381E+03  0.00000000000E+00 0.  1.
<scales pt_clust_3="14000.00000" pt_clust_4="71.14956" pt_clust_5="34.97171" pt_clust_6="162.08769"></scales>
<clustering>
<clus scale="   34.972">  1  5  2 -1</clus>
<clus scale="   71.150">  2  4  1 -1</clus>
<clus scale="  162.088">  1  6  2 -1</clus>
<clus scale="   34.972">  1  3  2 -1</clus>
</clustering>
</event>
<event>
 6    0  0.6687079E+002  0.8165118E+02  0.7546771E-02  0.1324430E+00
         21   -1    0    0  503  501  0.00000000000E+00  0.00000000000E+00  0.16804007222E+04  0.16804007222E+04  0.00000000000E+00 0.  1.
         21   -1    0    0  501  502 -0.00000000000E+00 -0.00000000000E+00 -0.69736266214E+02  0.69736266214E+02  0.00000000000E+00 0. -1.
         21    1    1    2  503  504  0.30411905492E+02 -0.52155567055E+02  0.14130237170E+04  0.14143129470E+04  0.00000000000E+00 0.  1.
         21    1    1    2  504  506  0.71250067122E+01  0.10350032244E+03  0.15895472338E+03  0.18981487442E+03  0.00000000000E+00 0. -1.
         21    1    1    2  505  502 -0.56612554642E+00  0.32266783581E+02 -0.19440021450E+02  0.37674663300E+02  0.00000000000E+00 0. -1.
         21    1    1    2  506  505 -0.36970786658E+02 -0.83611538967E+02  0.58126037075E+02  0.10833450374E+03  0.00000000000E+00 0. -1.
<scales pt_clust_3="59.93426" pt_clust_4="14000.00000" pt_clust_5="32.27175" pt_clust_6="81.65118"></scales>
<clustering>
<clus scale="   32.272">  2  5  1 -1</clus>
<clus scale="   59.934">  1  3  2 -1</clus>
<clus scale="   81.651">  2  6  1 -1</clus>
<clus scale="   59.934">  1  3  2 -1</clus>
</clustering>
</event>
<event>
 6    0  0.6687079E+002  0.8817602E+02  0.7546771E-02  0.1307330E+00
         21   -1    0    0  506  501  0.00000000000E+00  0.00000000000E+00  0.29044694822E+03  0.29044694822E+03  0.00000000000E+00 0.  1.
         21   -1    0    0  505  502 -0.00000000000E+00 -0.00000000000E+00 -0.72097097971E+02  0.72097097971E+02  0.00000000000E+00 0.  1.
         21    1    1    2  503  501  0.34044851088E+02 -0.75179898182E+02  0.15668929655E+03  0.17709490289E+03  0.00000000000E+00 0.  1.
         21    1    1    2  504  502 -0.32001769543E+02  0.28864210340E+02  0.84787483987E+01  0.43922033956E+02  0.00000000000E+00 0. -1.
         21    1    1    2  505  503  0.52241762371E+02  0.53082670427E+02  0.42624566640E+02  0.85812734000E+02  0.00000000000E+00 0.  1.
         21    1    1    2  506  504 -0.54284843916E+02 -0.67669825850E+01  0.10557238663E+02  0.55714375348E+02  0.00000000000E+00 0.  1.
<scales pt_clust_3="78.38133" pt_clust_4="35.84939" pt_clust_5="74.47799" pt_clust_6="35.84939"></scales>
<clustering>
<clus scale="   35.849">  4  6 -1 -1</clus>
<clus scale="   74.478">  2  5  1 -1</clus>
<clus scale="   78.381">  1  3  2 -1</clus>
<clus scale="   78.381">  1  3  2 -1</clus>
</clustering>
</event>
<event>
 6    0  0.6687079E+002  0.9104935E+02  0.7546771E-02  0.1300330E+00
         21   -1    0    0  504  501  0.00000000000E+00  0.00000000000E+00  0.25992081921E+03  0.25992081921E+03  0.00000000000E+00 0. -1.
         21   -1    0    0  505  502 -0.00000000000E+00 -0.00000000000E+00 -0.13609468294E+03  0.13609468294E+03  0.00000000000E+00 0. -1.
         21    1    1    2  503  506 -0.92410525491E+02  0.50021992174E+01  0.15294512744E+03  0.17876503916E+03  0.00000000000E+00 0. -1.
         21    1    1    2  504  503 -0.20297590530E+02  0.30666685906E+02  0.33002376773E+02  0.49412495165E+02  0.00000000000E+00 0. -1.
         21    1    1    2  505  501  0.30420920444E+02  0.46870296433E+01  0.26301412046E+02  0.40486601774E+02  0.00000000000E+00 0.  1.
         21    1    1    2  506  502  0.82287195577E+02 -0.40355914767E+02 -0.88422779987E+02  0.12735136604E+03  0.00000000000E+00 0. -1.
<scales pt_clust_3="14000.00000" pt_clust_4="34.80566" pt_clust_5="30.77987" pt_clust_6="91.04935"></scales>
<clustering>
<clus scale="   30.780">  1  5  2 -1</clus>
<clus scale="   34.806">  1  4  2 -1</clus>
<clus scale="   91.049">  2  6  1 -1</clus>
<clus scale="   30.780">  1  3  2 -1</clus>
</clustering>
</event>
<event>
 6    0  0.6687079E+002  0.1002136E+03  0.7546771E-02  0.1279847E+00
         21   -1    0    0  506  501  0.00000000000E+00  0.00000000000E+00  0.44330982136E+03  0.44330982136E+03  0.00000000000E+00 0. -1.
         21   -1    0    0  505  502 -0.00000000000E+00 -0.00000000000E+00 -0.14491142523E+03  0.14491142523E+03  0.00000000000E+00 0. -1.
         21    1    1    2  503  504 -0.14789137338E+02  0.40219527307E+02  0.47305751407E+02  0.63829171044E+02  0.00000000000E+00 0.  1.
         21    1    1    2  504  501  0.35225706260E+02  0.62030227265E+00  0.21234840269E+03  0.21525120042E+03  0.00000000000E+00 0. -1.
         21    1    1    2  505  503 -0.91690647317E+02 -0.50882959558E+02 -0.10499734397E+03  0.14839370815E+03  0.00000000000E+00 0. -1.
         21    1    1    2  506  502  0.71254078394E+02  0.10043129979E+02  0.14374158600E+03  0.16074716698E+03  0.00000000000E+00 0. -1.
<scales pt_clust_3="40.85227" pt_clust_4="35.23117" pt_clust_5="100.21356" pt_clust_6="14000.00000"></scales>
<clustering>
<clus scale="   35.231">  1  4  2 -1</clus>
<clus scale="   40.852">  1  3  2 -1</clus>
<clus scale="  100.214">  2  5  1 -1</clus>
<clus scale="   35.231">  1  3  2 -1</clus>
</clustering>
</event>
<event>
 6    0  0.6687079E+002  0.7820407E+02  0.7546771E-02  0.1334227E+00
         21   -1    0    0  505  501  0.00000000000E+00  0.00000000000E+00  0.15115477012E+03  0.15115477012E+03  0.00000000000E+00 0. -1.
         21   -1    0    0  504  502 -0.00000000000E+00 -0.00000000000E+00 -0.13108205247E+04  0.13108205247E+04  0.00000000000E+00 0.  1.
         21    1    1    2  503  506  0.22612639720E+02  0.96605780905E+02 -0.57504311175E+03  0.58353970623E+03  0.00000000000E+00 0.  1.
         21    1    1    2  504  501 -0.59919787263E+02 -0.57096248061E+02 -0.23783844610E+03  0.25182829248E+03  0.00000000000E+00 0.  1.
         21    1    1    2  505  503  0.30142532602E+02 -0.11025945486E+01  0.13748999054E+03  0.14075967280E+03  0.00000000000E+00 0. -1.
         21    1    1    2  506  502  0.71646149411E+01 -0.38406938295E+02 -0.48427418723E+03  0.48584762327E+03  0.00000000000E+00 0.  1.
<scales pt_clust_3="78.20407" pt_clust_4="14000.00000" pt_clust_5="30.16269" pt_clust_6="39.54871"></scales>
<clustering>
<clus scale="   30.163">  1  5  2 -1</clus>
<clus scale="   39.549">  2  6  1 -1</clus>
<clus scale="   78.204">  2  3  1 -1</clus>
<clus scale="   30.163">  1  3  2 -1</clus>
</clustering>
</event>
<event>
 6    0  0.6687079E+002  0.9777047E+02  0.7546771E-02  0.1285055E+00
         21   -1    0    0  503  501  0.00000000000E+00  0.00000000000E+00  0.39252149172E+03  0.39252149172E+03  0.00000000000E+00 0. -1.
         21   -1    0    0  504  502 -0.00000000000E+00 -0.00000000000E+00 -0.63327468362E+02  0.63327468362E+02  0.00000000000E+00 0. -1.
         21    1    1    2  503  505  0.47353135387E+02  0.88909101570E+02  0.17017420115E+03  0.19775339823E+03  0.00000000000E+00 0. -1.
         21    1    1    2  504  506 -0.47379810274E+02 -0.87625760260E+02  0.11185161210E+03  0.14977951599E+03  0.00000000000E+00 0. -1.
         21    1    1    2  505  502  0.40230926626E+02 -0.47235624626E+01 -0.66513178373E+01  0.41049720200E+02  0.00000000000E+00 0. -1.
         21    1    1    2  506  501 -0.40204251740E+02  0.34402211529E+01  0.53819527949E+02  0.67266325663E+02  0.00000000000E+00 0. -1.
<scales pt_clust_3="97.77047" pt_clust_4="14000.00000" pt_clust_5="38.41785" pt_clust_6="40.35117"></scales>
<clustering>
<clus scale="   40.351">  1  6  2 -1</clus>
<clus scale="   38.418">  2  5  1 -1</clus>
<clus scale="   97.770">  1  3  2 -1</clus>
<clus scale="   40.351">  1  3  2 -1</clus>
</clustering>
</event>
<event>
 6    0  0.6687079E+002  0.1241996E+03  0.7546771E-02  0.1236326E+00
         21   -1    0    0  504  501  0.00000000000E+00  0.00000000000E+00  0.57667517303E+03  0.57667517303E+03  0.00000000000E+00 0.  1.
         21   -1    0    0  506  502 -0.00000000000E+00 -0.00000000000E+00 -0.10709801868E+03  0.10709801868E+03  0.00000000000E+00 0.  1.
         21    1    1    2  503  501  0.19397277516E+02  0.84523964125E+02  0.10495343887E+03  0.13614616857E+03  0.00000000000E+00 0.  1.
         21    1    1    2  504  502  0.24002557020E+01 -0.46077669680E+02  0.32687809467E+03  0.33011846607E+03  0.00000000000E+00 0.  1.
         21    1    1    2  505  503  0.42608166451E+02  0.54328100713E+02  0.71737331010E+02  0.99565270230E+02  0.00000000000E+00 0.  1.
         21    1    1    2  506  505 -0.64405699670E+02 -0.92774395158E+02 -0.33991710202E+02  0.11794328683E+03  0.00000000000E+00 0.  1.
<scales pt_clust_3="31.11064" pt_clust_4="46.14014" pt_clust_5="31.11064" pt_clust_6="119.20508"></scales>
<clustering>
<clus scale="   31.111">  3  5 -1 -1</clus>
<clus scale="   46.140">  1  4  2 -1</clus>
<clus scale="  119.205">  2  6  1 -1</clus>
<clus scale="   46.140">  1  3  2 -1</clus>
</clustering>
</event>
<event>
 6    0  0.6687079E+002  0.1616478E+03  0.7546771E-02  0.1186849E+00
         21   -1    0    0  504  501  0.00000000000E+00  0.00000000000E+00  0.35588291670E+03  0.35588291670E+03  0.00000000000E+00 0.  1.
         21   -1    0    0  505  502 -0.00000000000E+00 -0.00000000000E+00 -0.14671058952E+03  0.14671058952E+03  0.00000000000E+00 0.  1.
         21    1    1    2  503  501 -0.10963930710E+02 -0.38407231866E+02  0.30775156483E+02  0.50422549447E+02  0.00000000000E+00 0.  1.
         21    1    1    2  504  506 -0.13762002940E+03 -0.45786952101E+01  0.11083635811E+03  0.17676236936E+03  0.00000000000E+00 0.  1.
         21    1    1    2  505  503  0.18321048200E+03  0.81753201404E+02  0.88620624328E+02  0.21932460353E+03  0.00000000000E+00 0.  1.
         21    1    1    2  506  502 -0.34626521896E+02 -0.38767274328E+02 -0.21059811743E+02  0.56083983882E+02  0.00000000000E+00 0.  1.
<scales pt_clust_3="39.94150" pt_clust_4="14000.00000" pt_clust_5="161.64778" pt_clust_6="53.98515"></scales>
<clustering>
<clus scale="   39.941">  1  3  2 -1</clus>
<clus scale="   53.985">  2  6  1 -1</clus>
<clus scale="  161.648">  2  5  1 -1</clus>
<clus scale="   39.941">  1  3  2 -1</clus>
</clustering>
</event>
<event>
 6    0  0.6687079E+002  0.1333667E+03  0.7546771E-02  0.1222544E+00
         21   -1    0    0  503  501  0.00000000000E+00  0.00000000000E+00  0.18517246040E+03  0.18517246040E+03  0.00000000000E+00 0.  1.
         21   -1    0    0  505  502 -0.00000000000E+00 -0.00000000000E+00 -0.35431525956E+03  0.35431525956E+03  0.00000000000E+00 0.  1.
         21    1    1    2  503  504 -0.14097740298E+02 -0.26785241537E+02  0.83628589749E+01  0.31402752363E+02  0.00000000000E+00 0. -1.
         21    1    1    2  504  502  0.12102137720E+03  0.22193813509E+01 -0.17961053946E+03  0.21658957795E+03  0.00000000000E+00 0.  1.
         21    1    1    2  505  506 -0.19430066267E+03 -0.13763828387E+02 -0.11445860031E+02  0.19512354598E+03  0.00000000000E+00 0.  1.
         21    1    1    2  506  501  0.87377025768E+02  0.38329688573E+02  0.13550741355E+02  0.96371843654E+02  0.00000000000E+00 0.  1.
<scales pt_clust_3="30.26872" pt_clust_4="14000.00000" pt_clust_5="133.36669" pt_clust_6="87.76814"></scales>
<clustering>
<clus scale="   30.269">  1  3  2 -1</clus>
<clus scale="   87.768">  1  6  2 -1</clus>
<clus scale="  133.367">  1  5  2 -1</clus>
<clus scale="   30.269">  1  3  2 -1</clus>
</clustering>
</event>
<event>
 6    0  0.6687079E+002  0.1281946E+03  0.7546771E-02  0.1230159E+00
         21   -1    0    0  503  501  0.00000000000E+00  0.00000000000E+00  0.79253650357E+03  0.79253650357E+03  0.00000000000E+00 0. -1.
         21   -1    0    0  506  502 -0.00000000000E+00 -0.00000000000E+00 -0.11816267074E+04  0.11816267074E+04  0.00000000000E+00 0.  1.
         21    1    1    2  503  505 -0.57608665823E+02 -0.42200750965E+01  0.52641016143E+02  0.78151417085E+02  0.00000000000E+00 0. -1.
         21    1    1    2  504  501 -0.13794636724E+02  0.81402162596E+02  0.44752422848E+03  0.45507641024E+03  0.00000000000E+00 0. -1.
         21    1    1    2  505  502  0.12779894378E+03 -0.19416679006E+02 -0.11555064678E+04  0.11627143994E+04  0.00000000000E+00 0.  1.
         21    1    1    2  506  504 -0.56395641229E+02 -0.57765408493E+02  0.26625101935E+03  0.27822098424E+03  0.00000000000E+00 0. -1.
<scales pt_clust_3="57.76303" pt_clust_4="93.06938" pt_clust_5="14000.00000" pt_clust_6="128.19459"></scales>
<clustering>
<clus scale="   57.763">  1  3  2 -1</clus>
<clus scale="   93.069">  1  4  2 -1</clus>
<clus scale="  128.195">  1  6  2 -1</clus>
<clus scale="   57.763">  1  3  2 -1</clus>
</clustering>
</event>
<event>
 6    0  0.6687079E+002  0.9426459E+02  0.7546771E-02  0.1292841E+00
         21   -1    0    0  505  501  0.00000000000E+00  0.00000000000E+00  0.98605404768E+03  0.98605404768E+03  0.00000000000E+00 0. -1.
         21   -1    0    0  506  502 -0.00000000000E+00 -0.00000000000E+00 -0.87185061116E+02  0.87185061116E+02  0.00000000000E+00 0. -1.
         21    1    1    2  503  501  0.14421903199E+02  0.63978601431E+02  0.41747833928E+02  0.77744031093E+02  0.00000000000E+00 0. -1.
         21    1    1    2  504  502 -0.25616882165E+02 -0.23939436152E+02  0.20625966423E+02  0.40678639923E+02  0.00000000000E+00 0. -1.
         21    1    1    2  505  504 -0.45354217762E+01 -0.98727576460E+02  0.87650959293E+03  0.88206392676E+03  0.00000000000E+00 0. -1.
         21    1    1    2  506  503  0.15730400742E+02  0.58688411181E+02 -0.40014406714E+02  0.72752511016E+02  0.00000000000E+00 0. -1.
<scales pt_clust_3="14000.00000" pt_clust_4="35.06168" pt_clust_5="94.26459" pt_clust_6="41.30305"></scales>
<clustering>
<clus scale="   35.062">  2  4  1 -1</clus>
<clus scale="   41.303">  2  6  1 -1</clus>
<clus scale="   94.265">  1  5  2 -1</clus>
<clus scale="   94.265">  1  3  2 -1</clus>
</clustering>
</event>
<event>
 6    0  0.6687079E+002  0.7253734E+02  0.7546771E-02  0.1351671E+00
         21   -1    0    0  503  501  0.00000000000E+00  0.00000000000E+00  0.24870148038E+03  0.24870148038E+03  0.00000000000E+00 0.  1.
         21   -1    0    0  505  502 -0.00000000000E+00 -0.00000000000E+00 -0.24304384689E+04  0.24304384689E+04  0.00000000000E+00 0.  1.
         21    1    1    2  503  504 -0.36888483178E+02  0.69142736995E+02 -0.43400334752E+03  0.44102197670E+03  0.00000000000E+00 0.  1.
         21    1    1    2  504  502 -0.32947095857E+02 -0.24943484478E+01 -0.28623956541E+03  0.28814028130E+03  0.00000000000E+00 0.  1.
         21    1    1    2  505  506  0.92434115724E+02 -0.28036013226E+02 -0.17023064241E+04  0.17050446461E+04  0.00000000000E+00 0.  1.
         21    1    1    2  506  501 -0.22598536689E+02 -0.38612375322E+02  0.24081234853E+03  0.24493304513E+03  0.00000000000E+00 0.  1.
<scales pt_clust_3="14000.00000" pt_clust_4="33.04138" pt_clust_5="72.53734" pt_clust_6="44.75742"></scales>
<clustering>
<clus scale="   33.041">  2  4  1 -1</clus>
<clus scale="   44.757">  1  6  2 -1</clus>
<clus scale="   72.537">  2  5  1 -1</clus>
<clus scale="   44.757">  1  3  2 -1</clus>
</clustering>
</event>
<event>
 6    0  0.6687079E+002  0.1128372E+03  0.7546771E-02  0.1255404E+00
         21   -1    0    0  504  501  0.00000000000E+00  0.00000000000E+00  0.12223999656E+04  0.12223999656E+04  0.00000000000E+00 0.  1.
         21   -1    0    0  506  502 -0.00000000000E+00 -0.00000000000E+00 -0.86252199217E+02  0.86252199217E+02  0.00000000000E+00 0.  1.
         21    1    1    2  503  501  0.20264889975E+02 -0.11317452349E+03  0.11237231505E+04  0.11295896855E+04  0.00000000000E+00 0.  1.
         21    1    1    2  504  502 -0.37618457704E+02 -0.52671386921E+01 -0.27184582844E+01  0.38082556709E+02  0.00000000000E+00 0.  1.
         21    1    1    2  505  503 -0.69761248933E+00  0.92080431008E+02  0.40102883376E+02  0.10043671486E+03  0.00000000000E+00 0.  1.
         21    1    1    2  506  505  0.18051180219E+02  0.26361231172E+02 -0.24959809250E+02  0.40543207741E+02  0.00000000000E+00 0.  1.
<scales pt_clust_3="14000.00000" pt_clust_4="31.10551" pt_clust_5="112.83724" pt_clust_6="31.94933"></scales>
<clustering>
<clus scale="   31.949">  2  6  1 -1</clus>
<clus scale="   31.106">  2  4  1 -1</clus>
<clus scale="  112.837">  2  5  1 -1</clus>
<clus scale="  112.837">  1  3  2 -1</clus>
</clustering>
</event>
<event>
 6    0  0.6687079E+002  0.1000507E+03  0.7546771E-02  0.1280189E+00
         21   -1    0    0  505  501  0.00000000000E+00  0.00000000000E+00  0.45490118224E+03  0.45490118224E+03  0.00000000000E+00 0.  1.
         21   -1    0    0  506  502 -0.00000000000E+00 -0.00000000000E+00 -0.21988079288E+03  0.21988079288E+03  0.00000000000E+00 0.  1.
         21    1    1    2  503  502 -0.68295583547E+02  0.25928565117E+02 -0.42554158111E+02  0.84542495785E+02  0.00000000000E+00 0. -1.
         21    1    1    2  504  501 -0.18808303619E+02  0.27546496429E+02  0.32172379952E+03  0.32344824150E+03  0.00000000000E+00 0.  1.
         21    1    1    2  505  503  0.72240654638E+02  0.65576759219E+02  0.54241923676E+02  0.11162978911E+03  0.00000000000E+00 0.  1.
         21    1    1    2  506  504  0.14863232528E+02 -0.11905182076E+03 -0.98391175730E+02  0.15516144872E+03  0.00000000000E+00 0.  1.
<scales pt_clust_3="77.45235" pt_clust_4="33.35509" pt_clust_5="14000.00000" pt_clust_6="100.05072"></scales>
<clustering>
<clus scale="   33.355">  1  4  2 -1</clus>
<clus scale="   77.452">  2  3  1 -1</clus>
<clus scale="  100.051">  2  6  1 -1</clus>
<clus scale="   33.355">  1  3  2 -1</clus>
</clustering>
</event>
<event>
 6    0  0.6687079E+002  0.8512890E+02  0.7546771E-02  0.1315096E+00
         21   -1    0    0  503  501  0.00000000000E+00  0.00000000000E+00  0.17289033428E+03  0.17289033428E+03  0.00000000000E+00 0.  1.
         21   -1    0    0  505  502 -0.00000000000E+00 -0.00000000000E+00 -0.73082114026E+03  0.73082114026E+03  0.00000000000E+00 0. -1.
         21    1    1    2  503  504 -0.22626486383E+02 -0.29139127613E+02  0.11230666016E+03  0.11821096632E+03  0.00000000000E+00 0.  1.
         21    1    1    2  504  506 -0.72048324869E+02 -0.70769895205E+02 -0.31998787527E+02  0.10593989611E+03  0.00000000000E+00 0.  1.
         21    1    1    2  505  501  0.12615558657E+02  0.78456484862E+02 -0.72717851154E+02  0.10771470751E+03  0.00000000000E+00 0.  1.
         21    1    1    2  506  502  0.82059252595E+02  0.21452537955E+02 -0.56552082746E+03  0.57184590460E+03  0.00000000000E+00 0. -1.
<scales pt_clust_3="36.89237" pt_clust_4="85.12890" pt_clust_5="69.84581" pt_clust_6="14000.00000"></scales>
<clustering>
<clus scale="   36.892">  1  3  2 -1</clus>
<clus scale="   69.846">  1  5  2 -1</clus>
<clus scale="   85.129">  1  4  2 -1</clus>
<clus scale="   36.892">  1  3  2 -1</clus>
</clustering>
</event>
<event>
 6    0  0.6687079E+002  0.1263686E+03  0.7546771E-02  0.1232946E+00
         21   -1    0    0  505  501  0.00000000000E+00  0.00000000000E+00  0.75480640050E+03  0.75480640050E+03  0.00000000000E+00 0.  1.
         21   -1    0    0  504  502 -0.00000000000E+00 -0.00000000000E+00 -0.15108739281E+03  0.15108739281E+03  0.00000000000E+00 0. -1.
         21    1    1    2  503  506  0.41876475262E+02  0.61563676881E+01 -0.18706105367E+02  0.46275894605E+02  0.00000000000E+00 0. -1.
         21    1    1    2  504  501 -0.27621562444E+02 -0.53246799348E+02  0.11395552046E+02  0.61057603614E+02  0.00000000000E+00 0.  1.
         21    1    1    2  505  503 -0.65539747164E+02 -0.75855492859E+02  0.65163090617E+03  0.65929686192E+03  0.00000000000E+00 0.  1.
         21    1    1    2  506  502  0.51284834346E+02  0.12294592452E+03 -0.40601345167E+02  0.13926343317E+03  0.00000000000E+00 0. -1.
<scales pt_clust_3="42.03494" pt_clust_4="59.98477" pt_clust_5="102.01955" pt_clust_6="42.03494"></scales>
<clustering>
<clus scale="   42.035">  3  6 -1 -1</clus>
<clus scale="   59.985">  2  4  1 -1</clus>
<clus scale="  102.020">  1  5  2 -1</clus>
<clus scale="  102.020">  1  3  2 -1</clus>
</clustering>
</event>
<event>
 6    0  0.6687079E+002  0.1540281E+03  0.7546771E-02  0.1195609E+00
         21   -1    0    0  504  501  0.00000000000E+00  0.00000000000E+00  0.16485965189E+04  0.16485965189E+04  0.00000000000E+00 0. -1.
         21   -1    0    0  505  502 -0.00000000000E+00 -0.00000000000E+00 -0.49874306254E+02  0.49874306254E+02  0.00000000000E+00 0. -1.
         21    1    1    2  503  502  0.96472727358E+02  0.30666921186E+02  0.19947578945E+03  0.22369183659E+03  0.00000000000E+00 0. -1.
         21    1    1    2  504  506 -0.28772124082E+02 -0.13089128379E+03  0.10718995862E+04  0.10802449196E+04  0.00000000000E+00 0. -1.
         21    1    1    2  505  501 -0.11205120785E+03  0.12576962933E+03  0.26294315895E+03  0.31227003968E+03  0.00000000000E+00 0. -1.
         21    1    1    2  506  503  0.44350604572E+02 -0.25545266730E+02  0.64403678029E+02  0.82264029332E+02  0.00000000000E+00 0. -1.
<scales pt_clust_3="45.63598" pt_clust_4="134.01628" pt_clust_5="140.01953" pt_clust_6="45.63598"></scales>
<clustering>
<clus scale="   45.636">  3  6 -1 -1</clus>
<clus scale="  134.016">  1  4  2 -1</clus>
<clus scale="  140.020">  1  5  2 -1</clus>
<clus scale="  134.016">  1  3  2 -1</clus>
</clustering>
</event>
<event>
 6    0  0.6687079E+002  0.6650382E+02  0.7546771E-02  0.1372402E+00
         21   -1    0    0  504  501  0.00000000000E+00  0.00000000000E+00  0.10378860058E+04  0.10378860058E+04  0.00000000000E+00 0.  1.
         21   -1    0    0  505  502 -0.00000000000E+00 -0.00000000000E+00 -0.14539452998E+03  0.14539452998E+03  0.00000000000E+00 0.  1.
         21    1    1    2  503  506 -0.25255031910E+02  0.60542702149E+02  0.48316909582E+02  0.81472444249E+02  0.00000000000E+00 0.  1.
         21    1    1    2  504  502 -0.66225326928E+02 -0.96817019347E+02  0.85199621322E+03  0.86003306710E+03  0.00000000000E+00 0.  1.
         21    1    1    2  505  503  0.61588014946E+02 -0.72130161759E+00 -0.11168303165E+03  0.12754098721E+03  0.00000000000E+00 0.  1.
         21    1    1    2  506  501  0.29892343892E+02  0.36995618816E+02  0.10386138467E+03  0.11423403723E+03  0.00000000000E+00 0. -1.
<scales pt_clust_3="14000.00000" pt_clust_4="66.50382" pt_clust_5="61.84452" pt_clust_6="47.56289"></scales>
<clustering>
<clus scale="   47.563">  1  6  2 -1</clus>
<clus scale="   61.845">  2  5  1 -1</clus>
<clus scale="   66.504">  1  4  2 -1</clus>
<clus scale="   47.563">  1  3  2 -1</clus>
</clustering>
</event>
<event>
 6    0  0.6687079E+002  0.9220448E+02  0.7546771E-02  0.1297599E+00
         21   -1    0    0  503  501  0.00000000000E+00  0.00000000000E+00  0.16699519690E+03  0.16699519690E+03  0.00000000000E+00 0. -1.
         21   -1    0    0  506  502 -0.00000000000E+00 -0.00000000000E+00 -0.20330343798E+03  0.20330343798E+03  0.00000000000E+00 0.  1.
         21    1    1    2  503  505 -0.33389790969E+02  0.43361038017E+02  0.55949625738E+02  0.78265052093E+02  0.00000000000E+00 0. -1.
         21    1    1    2  504  501 -0.60586666016E+02 -0.88223762378E+02  0.33774416339E+02  0.11222694661E+03  0.00000000000E+00 0. -1.
         21    1    1    2  505  502  0.19300116878E+02  0.36796234990E+02 -0.11979909401E+02  0.43243215078E+02  0.00000000000E+00 0. -1.
         21    1    1    2  506  504  0.74676340106E+02  0.80664893708E+01 -0.11405237376E+03  0.13656342110E+03  0.00000000000E+00 0.  1.
<scales pt_clust_3="55.88223" pt_clust_4="14000.00000" pt_clust_5="41.55066" pt_clust_6="92.20448"></scales>
<clustering>
<clus scale="   41.551">  2  5  1 -1</clus>
<clus scale="   55.882">  1  3  2 -1</clus>
<clus scale="   92.204">  2  6  1 -1</clus>
<clus scale="   55.882">  1  3  2 -1</clus>
</clustering>
</event>
<event>
 6    0  0.6687079E+002  0.4500970E+03  0.7546771E-02  0.1027693E+00
         21   -1    0    0  505  501  0.00000000000E+00  0.00000000000E+00  0.10584143240E+04  0.10584143240E+04  0.00000000000E+00 0. -1.
         21   -1    0    0  503  502 -0.00000000000E+00 -0.00000000000E+00 -0.22779894214E+03  0.22779894214E+03  0.00000000000E+00 0. -1.
         21    1    1    2  503  501  0.42819434938E+03 -0.62088263910E+02  0.51310296389E+03  0.67117807242E+03  0.00000000000E+00 0. -1.
         21    1    1    2  504  506 -0.14031610693E+03  0.16362385795E+02  0.34491225592E+02  0.14541658151E+03  0.00000000000E+00 0. -1.
         21    1    1    2  505  504  0.23747372603E+02  0.25463723124E+02  0.10397108114E+03  0.10964636161E+03  0.00000000000E+00 0. -1.
         21    1    1    2  506  502 -0.31162561504E+03  0.20262154991E+02  0.17905011125E+03  0.35997225062E+03  0.00000000000E+00 0. -1.
<scales pt_clust_3="445.37846" pt_clust_4="43.85423" pt_clust_5="34.81866" pt_clust_6="43.85423"></scales>
<clustering>
<clus scale="   34.819">  1  5  2 -1</clus>
<clus scale="   43.854">  4  6 -1 -1</clus>
<clus scale="  445.378">  1  3  2 -1</clus>
<clus scale="   34.819">  1  3  2 -1</clus>
</clustering>
</event>
<event>
 6    0  0.6687079E+002  0.8296800E+02  0.7546771E-02  0.1320834E+00
         21   -1    0    0  504  501  0.00000000000E+00  0.00000000000E+00  0.11599200022E+03  0.11599200022E+03  0.00000000000E+00 0. -1.
         21   -1    0    0  505  502 -0.00000000000E+00 -0.00000000000E+00 -0.33108691553E+03  0.33108691553E+03  0.00000000000E+00 0. -1.
         21    1    1    2  503  502 -0.15210509297E+02 -0.29369772737E+02 -0.17657632313E+03  0.17964726837E+03  0.00000000000E+00 0. -1.
         21    1    1    2  504  506 -0.79209976414E+02  0.37365298331E+01  0.52734233279E+01  0.79473209400E+02  0.00000000000E+00 0. -1.
         21    1    1    2  505  501  0.42765075758E+02  0.87195959324E+02 -0.14640673653E+01  0.97129452384E+02  0.00000000000E+00 0. -1.
         21    1    1    2  506  503  0.51655409953E+02 -0.61562716421E+02 -0.42327948138E+02  0.90828985594E+02  0.00000000000E+00 0. -1.
<scales pt_clust_3="33.07481" pt_clust_4="82.96800" pt_clust_5="14000.00000" pt_clust_6="76.36563"></scales>
<clustering>
<clus scale="   33.075">  2  3  1 -1</clus>
<clus scale="   82.968">  1  4  2 -1</clus>
<clus scale="   76.366">  2  6  1 -1</clus>
<clus scale="   82.968">  1  3  2 -1</clus>
</clustering>
</event>
<event>
 6    0  0.6687079E+002  0.8560242E+02  0.7546771E-02  0.1313865E+00
         21   -1    0    0  506  501  0.00000000000E+00  0.00000000000E+00  0.38057487128E+03  0.38057487128E+03  0.00000000000E+00 0. -1.
         21   -1    0    0  505  502 -0.00000000000E+00 -0.00000000000E+00 -0.13661828420E+03  0.13661828420E+03  0.00000000000E+00 0. -1.
         21    1    1    2  503  501 -0.36159985167E+02  0.19292136054E+02  0.22599900249E+03  0.22968517620E+03  0.00000000000E+00 0. -1.
         21    1    1    2  504  502 -0.36674631635E+02 -0.94136267055E+02 -0.57704009191E+02  0.11634611320E+03  0.00000000000E+00 0. -1.
         21    1    1    2  505  503 -0.81090165588E+00  0.42174634795E+02  0.80041397836E+02  0.90476420956E+02  0.00000000000E+00 0. -1.
         21    1    1    2  506  504  0.73645518459E+02  0.32669496205E+02 -0.43798040499E+01  0.80685445124E+02  0.00000000000E+00 0. -1.
<scales pt_clust_3="40.98452" pt_clust_4="14000.00000" pt_clust_5="56.95527" pt_clust_6="85.60242"></scales>
<clustering>
<clus scale="   40.985">  1  3  2 -1</clus>
<clus scale="   56.955">  1  5  2 -1</clus>
<clus scale="   85.602">  1  6  2 -1</clus>
<clus scale="   40.985">  1  3  2 -1</clus>
</clustering>
</event>
<event>
 6    0  0.6687079E+002  0.9274609E+02  0.7546771E-02  0.1296335E+00
         21   -1    0    0  506  501  0.00000000000E+00  0.00000000000E+00  0.77758091597E+02  0.77758091597E+02  0.00000000000E+00 0.  1.
         21   -1    0    0  504  502 -0.00000000000E+00 -0.00000000000E+00 -0.10995599051E+04  0.10995599051E+04  0.00000000000E+00 0.  1.
         21    1    1    2  503  501  0.28731383960E+02  0.31802571151E+02 -0.95821852885E+01  0.43917129130E+02  0.00000000000E+00 0.  1.
         21    1    1    2  504  503  0.69185847291E+02 -0.40018198838E+02 -0.89755830402E+01  0.80428221381E+02  0.00000000000E+00 0.  1.
         21    1    1    2  505  502 -0.78375956316E+02  0.51048244343E+02 -0.10015024729E+04  0.10058607841E+04  0.00000000000E+00 0.  1.
         21    1    1    2  506  505 -0.19541274935E+02 -0.42832616657E+02 -0.17415722868E+01  0.47111862092E+02  0.00000000000E+00 0.  1.
<scales pt_clust_3="42.85902" pt_clust_4="14000.00000" pt_clust_5="92.74609" pt_clust_6="32.14908"></scales>
<clustering>
<clus scale="   42.859">  1  3  2 -1</clus>
<clus scale="   32.149">  1  6  2 -1</clus>
<clus scale="   92.746">  2  5  1 -1</clus>
<clus scale="   42.859">  1  3  2 -1</clus>
</clustering>
</event>
<event>
 6    0  0.6687079E+002  0.1076876E+03  0.7546771E-02  0.1264913E+00
         21   -1    0    0  506  501  0.00000000000E+00  0.00000000000E+00  0.90860976001E+02  0.90860976001E+02  0.00000000000E+00 0. -1.
         21   -1    0    0  503  502 -0.00000000000E+00 -0.00000000000E+00 -0.23175956260E+03  0.23175956260E+03  0.00000000000E+00 0. -1.
         21    1    1    2  503  505 -0.48644434553E+01  0.48865613834E+02 -0.44204657537E+02  0.66072405537E+02  0.00000000000E+00 0. -1.
         21    1    1    2  504  501 -0.42645977824E+02  0.16864843733E+01  0.10003426430E+02  0.43835969186E+02  0.00000000000E+00 0. -1.
         21    1    1    2  505  504 -0.38532114426E+02  0.39256094030E+02 -0.11772231467E+02  0.56252557225E+02  0.00000000000E+00 0. -1.
         21    1    1    2  506  502  0.86042535705E+02 -0.89808192237E+02 -0.94925124029E+02  0.15645960666E+03  0.00000000000E+00 0. -1.
<scales pt_clust_3="49.10714" pt_clust_4="36.83165" pt_clust_5="36.83165" pt_clust_6="99.23814"></scales>
<clustering>
<clus scale="   36.832">  4  5 -1 -1</clus>
<clus scale="   49.107">  2  3  1 -1</clus>
<clus scale="   99.238">  2  6  1 -1</clus>
<clus scale="  107.688">  1  3  2 -1</clus>
</clustering>
</event>
<event>
 6    0  0.6687079E+002  0.1949985E+03  0.7546771E-02  0.1154029E+00
         21   -1    0    0  504  501  0.00000000000E+00  0.00000000000E+00  0.77057288162E+02  0.77057288162E+02  0.00000000000E+00 0. -1.
         21   -1    0    0  503  502 -0.00000000000E+00 -0.00000000000E+00 -0.88672893240E+03  0.88672893240E+03  0.00000000000E+00 0. -1.
         21    1    1    2  503  505  0.28189533735E+02  0.32524318170E+02 -0.94802036694E+02  0.10411487524E+03  0.00000000000E+00 0.  1.
         21    1    1    2  504  506 -0.49845493790E+02 -0.18317746408E+03 -0.51221978712E+03  0.54626702895E+03  0.00000000000E+00 0. -1.
         21    1    1    2  505  501  0.54826340115E+02  0.16444685396E+03 -0.90309151372E+02  0.19545955635E+03  0.00000000000E+00 0. -1.
         21    1    1    2  506  502 -0.33170380061E+02 -0.13793708047E+02 -0.11234066905E+03  0.11794476003E+03  0.00000000000E+00 0. -1.
<scales pt_clust_3="43.04046" pt_clust_4="32.00298" pt_clust_5="180.58838" pt_clust_6="32.00298"></scales>
<clustering>
<clus scale="   32.003">  4  6 -1 -1</clus>
<clus scale="   43.040">  2  3  1 -1</clus>
<clus scale="  180.588">  1  5  2 -1</clus>
<clus scale="  180.588">  1  3  2 -1</clus>
</clustering>
</event>
<event>
 6    0  0.6687079E+002  0.1589872E+03  0.7546771E-02  0.1189845E+00
         21   -1    0    0  503  501  0.00000000000E+00  0.00000000000E+00  0.98282224960E+03  0.98282224960E+03  0.00000000000E+00 0.  1.
         21   -1    0    0  504  502 -0.00000000000E+00 -0.00000000000E+00 -0.24231524981E+03  0.24231524981E+03  0.00000000000E+00 0.  1.
         21    1    1    2  503  506  0.15175853185E+03  0.16146857860E+02  0.79551642824E+03  0.81002330868E+03  0.00000000000E+00 0.  1.
         21    1    1    2  504  505 -0.73907980057E+02 -0.38050581084E+02  0.59997588611E+02  0.10251803196E+03  0.00000000000E+00 0.  1.
         21    1    1    2  505  501 -0.48524928067E+02  0.75367974084E+01  0.91327890582E+02  0.10369308346E+03  0.00000000000E+00 0.  1.
         21    1    1    2  506  502 -0.29325623725E+02  0.14366925816E+02 -0.20633490765E+03  0.20890307532E+03  0.00000000000E+00 0.  1.
<scales pt_clust_3="146.88161" pt_clust_4="45.82820" pt_clust_5="45.82820" pt_clust_6="32.65579"></scales>
<clustering>
<clus scale="   32.656">  2  6  1 -1</clus>
<clus scale="   45.828">  4  5 -1 -1</clus>
<clus scale="  146.882">  1  3  2 -1</clus>
<clus scale="  146.882">  1  3  2 -1</clus>
</clustering>
</event>
<event>
 6    0  0.6687079E+002  0.5587720E+02  0.7546771E-02  0.1415996E+00
         21   -1    0    0  506  501  0.00000000000E+00  0.00000000000E+00  0.16871684558E+04  0.16871684558E+04  0.00000000000E+00 0.  1.
         21   -1    0    0  505  502 -0.00000000000E+00 -0.00000000000E+00 -0.77060421900E+03  0.77060421900E+03  0.00000000000E+00 0. -1.
         21    1    1    2  503  502  0.53964862247E+02  0.14056923782E+02 -0.75710568790E+03  0.75915665453E+03  0.00000000000E+00 0. -1.
         21    1    1    2  504  501 -0.42781002853E+02  0.29712767211E+02  0.19227083638E+03  0.19920124814E+03  0.00000000000E+00 0. -1.
         21    1    1    2  505  504 -0.71619292466E+02 -0.58082722724E+02  0.25021981717E+03  0.26666998826E+03  0.00000000000E+00 0. -1.
         21    1    1    2  506  503  0.60435433072E+02  0.14313031731E+02  0.12311792712E+04  0.12327447839E+04  0.00000000000E+00 0.  1.
<scales pt_clust_3="14000.00000" pt_clust_4="52.08707" pt_clust_5="55.87720" pt_clust_6="46.25691"></scales>
<clustering>
<clus scale="   52.087">  1  4  2 -1</clus>
<clus scale="   46.257">  1  6  2 -1</clus>
<clus scale="   55.877">  1  5  2 -1</clus>
<clus scale="   52.087">  1  3  2 -1</clus>
</clustering>
</event>
<event>
 6    0  0.6687079E+002  0.8048070E+02  0.7546771E-02  0.1327693E+00
         21   -1    0    0  503  501  0.00000000000E+00  0.00000000000E+00  0.11594133926E+04  0.11594133926E+04  0.00000000000E+00 0.  1.
         21   -1    0    0  506  502 -0.00000000000E+00 -0.00000000000E+00 -0.31433064512E+03  0.31433064512E+03  0.00000000000E+00 0.  1.
         21    1    1    2  503  504 -0.45986545762E+02 -0.30736523028E+01  0.65807816185E+03  0.65969013698E+03  0.00000000000E+00 0.  1.
         21    1    1    2  504  505  0.12042895176E+03  0.33127169756E+02  0.48483240898E+03  0.50066256760E+03  0.00000000000E+00 0.  1.
         21    1    1    2  505  502 -0.60102857585E+02 -0.25933389987E+01 -0.24379654767E+03  0.25110921041E+03  0.00000000000E+00 0.  1.
         21    1    1    2  506  501 -0.14339548417E+02 -0.27460178455E+02 -0.54031275726E+02  0.62282122685E+02  0.00000000000E+00 0.  1.
<scales pt_clust_3="46.14000" pt_clust_4="14000.00000" pt_clust_5="80.48070" pt_clust_6="30.97877"></scales>
<clustering>
<clus scale="   30.979">  2  6  1 -1</clus>
<clus scale="   46.140">  1  3  2 -1</clus>
<clus scale="   80.481">  2  5  1 -1</clus>
<clus scale="   46.140">  1  3  2 -1</clus>
</clustering>
</event>
<event>
 6    0  0.6687079E+002  0.1484900E+03  0.7546771E-02  0.1202341E+00
         21   -1    0    0  504  501  0.00000000000E+00  0.00000000000E+00  0.70374017803E+03  0.70374017803E+03  0.00000000000E+00 0.  1.
         21   -1    0    0  506  502 -0.00000000000E+00 -0.00000000000E+00 -0.77150871783E+03  0.77150871783E+03  0.00000000000E+00 0.  1.
         21    1    1    2  503  501 -0.73184879399E+02  0.28234640679E+02  0.64769987727E+03  0.65243264213E+03  0.00000000000E+00 0.  1.
         21    1    1    2  504  505  0.64290794268E+02  0.67544661655E+02 -0.16099531795E+03  0.18605128311E+03  0.00000000000E+00 0.  1.
         21    1    1    2  505  502  0.98552199418E+02 -0.15858869624E+03 -0.44196936970E+03  0.47979144880E+03  0.00000000000E+00 0.  1.
         21    1    1    2  506  503 -0.89658114287E+02  0.62809393910E+02 -0.11250372942E+03  0.15697352183E+03  0.00000000000E+00 0.  1.
<scales pt_clust_3="78.44247" pt_clust_4="87.88999" pt_clust_5="14000.00000" pt_clust_6="148.48998"></scales>
<clustering>
<clus scale="   78.442">  1  3  2 -1</clus>
<clus scale="   87.890">  1  4  2 -1</clus>
<clus scale="  148.490">  1  6  2 -1</clus>
<clus scale="   78.442">  1  3  2 -1</clus>
</clustering>
</event>
<event>
 6    0  0.6687079E+002  0.4261097E+03  0.7546771E-02  0.1035096E+00
         21   -1    0    0  505  501  0.00000000000E+00  0.00000000000E+00  0.13378827761E+04  0.13378827761E+04  0.00000000000E+00 0.  1.
         21   -1    0    0  503  502 -0.00000000000E+00 -0.00000000000E+00 -0.22089547343E+03  0.22089547343E+03  0.00000000000E+00 0.  1.
         21    1    1    2  503  501  0.44414412727E+02  0.11059819011E+03  0.37367561905E+03  0.39222196265E+03  0.00000000000E+00 0.  1.
         21    1    1    2  504  502  0.53728548439E+02  0.75616537502E+02  0.60213326054E+02  0.11059051630E+03  0.00000000000E+00 0.  1.
         21    1    1    2  505  506 -0.35544604889E+03 -0.33645242919E+03  0.52841392596E+03  0.72025232240E+03  0.00000000000E+00 0.  1.
         21    1    1    2  506  504  0.25730308772E+03  0.15023770157E+03  0.15468443166E+03  0.33571344823E+03  0.00000000000E+00 0.  1.
<scales pt_clust_3="119.18305" pt_clust_4="40.44922" pt_clust_5="419.89769" pt_clust_6="40.44922"></scales>
<clustering>
<clus scale="   40.449">  4  6 -1 -1</clus>
<clus scale="  119.183">  1  3  2 -1</clus>
<clus scale="  419.898">  1  5  2 -1</clus>
<clus scale="  119.183">  1  3  2 -1</clus>
</clustering>
</event>
<event>
 6    0  0.6687079E+002  0.2025061E+03  0.7546771E-02  0.1147642E+00
         21   -1    0    0  506  501  0.00000000000E+00  0.00000000000E+00  0.17527914639E+04  0.17527914639E+04  0.00000000000E+00 0. -1.
         21   -1    0    0  503  502 -0.00000000000E+00 -0.00000000000E+00 -0.10730104831E+04  0.10730104831E+04  0.00000000000E+00 0.  1.
         21    1    1    2  503  505 -0.27090551001E+02  0.33700469199E+02 -0.14864380556E+02  0.45722744746E+02  0.00000000000E+00 0. -1.
         21    1    1    2  504  502  0.21462939079E+02 -0.55236592149E+02 -0.80094279971E+02  0.99633491107E+02  0.00000000000E+00 0.  1.
         21    1    1    2  505  501  0.19066645980E+03  0.68461273965E+02  0.17119990034E+04  0.17239435120E+04  0.00000000000E+00 0. -1.
         21    1    1    2  506  504 -0.18503884788E+03 -0.46925151015E+02 -0.93725936213E+03  0.95650219912E+03  0.00000000000E+00 0.  1.
<scales pt_clust_3="43.23910" pt_clust_4="55.71847" pt_clust_5="202.50613" pt_clust_6="14000.00000"></scales>
<clustering>
<clus scale="   43.239">  2  3  1 -1</clus>
<clus scale="   55.718">  2  4  1 -1</clus>
<clus scale="  202.506">  1  5  2 -1</clus>
<clus scale="  202.506">  1  3  2 -1</clus>
</clustering>
</event>
<event>
 6    0  0.6687079E+002  0.1900098E+03  0.7546771E-02  0.1158452E+00
         21   -1    0    0  502  501  0.00000000000E+00  0.00000000000E+00  0.15344277372E+04  0.15344277372E+04  0.00000000000E+00 0. -1.
         21   -1    0    0  506  502 -0.00000000000E+00 -0.00000000000E+00 -0.28557048535E+02  0.28557048535E+02  0.00000000000E+00 0. -1.
         21    1    1    2  503  501  0.97428557313E+01 -0.33140581821E+02  0.21081787993E+03  0.21362911763E+03  0.00000000000E+00 0.  1.
         21    1    1    2  504  505  0.96997786731E+02  0.17682133231E+01  0.35594872914E+03  0.36893250736E+03  0.00000000000E+00 0. -1.
         21    1    1    2  505  503  0.84551340794E+02  0.31615434091E+02  0.31097371326E+03  0.32381030750E+03  0.00000000000E+00 0. -1.
         21    1    1    2  506  504 -0.19129198326E+03 -0.24306559298E+00  0.62813036630E+03  0.65661285321E+03  0.00000000000E+00 0. -1.
<scales pt_clust_3="34.54304" pt_clust_4="30.99553" pt_clust_5="30.99553" pt_clust_6="187.27313"></scales>
<clustering>
<clus scale="   30.996">  4  5 -1 -1</clus>
<clus scale="   34.543">  1  3  2 -1</clus>
<clus scale="  187.273">  2  6  1 -1</clus>
<clus scale="   34.543">  1  3  2 -1</clus>
</clustering>
</event>
<event>
 6    0  0.6687079E+002  0.1436936E+03  0.7546771E-02  0.1208444E+00
         21   -1    0    0  504  501  0.00000000000E+00  0.00000000000E+00  0.11383840969E+04  0.11383840969E+04  0.00000000000E+00 0.  1.
         21   -1    0    0  503  502 -0.00000000000E+00 -0.00000000000E+00 -0.15878411985E+03  0.15878411985E+03  0.00000000000E+00 0. -1.
         21    1    1    2  503  505 -0.12150767215E+03 -0.66773172374E+02 -0.52130040942E+02  0.14812262524E+03  0.00000000000E+00 0. -1.
         21    1    1    2  504  506  0.17037823024E+02  0.26553741087E+02  0.89997361267E+03  0.90052645274E+03  0.00000000000E+00 0.  1.
         21    1    1    2  505  501 -0.48519827017E+02 -0.10243991185E+02  0.29215471916E+02  0.57555684067E+02  0.00000000000E+00 0. -1.
         21    1    1    2  506  502  0.15298967614E+03  0.50463422472E+02  0.10254093341E+03  0.19096345472E+03  0.00000000000E+00 0. -1.
<scales pt_clust_3="143.69356" pt_clust_4="31.54978" pt_clust_5="45.73635" pt_clust_6="14000.00000"></scales>
<clustering>
<clus scale="   31.550">  1  4  2 -1</clus>
<clus scale="   45.736">  1  5  2 -1</clus>
<clus scale="  143.694">  2  3  1 -1</clus>
<clus scale="   31.550">  1  3  2 -1</clus>
</clustering>
</event>
<event>
 6    0  0.6687079E+002  0.9241976E+02  0.7546771E-02  0.1297095E+00
         21   -1    0    0  504  501  0.00000000000E+00  0.00000000000E+00  0.11574657223E+03  0.11574657223E+03  0.00000000000E+00 0.  1.
         21   -1    0    0  501  502 -0.00000000000E+00 -0.00000000000E+00 -0.71324207768E+03  0.71324207768E+03  0.00000000000E+00 0.  1.
         21    1    1    2  503  505 -0.38935432375E+02 -0.79458982910E+02 -0.10058556957E+03  0.13396699095E+03  0.00000000000E+00 0.  1.
         21    1    1    2  504  503 -0.41438861582E+02  0.18224899529E+01  0.86458678329E+02  0.95893710832E+02  0.00000000000E+00 0.  1.
         21    1    1    2  505  506  0.25432153528E+02  0.77071704992E+02 -0.32484534318E+03  0.33483031394E+03  0.00000000000E+00 0.  1.
         21    1    1    2  506  502  0.54942140429E+02  0.56478796497E+00 -0.25852327102E+03  0.26429763419E+03  0.00000000000E+00 0.  1.
<scales pt_clust_3="14000.00000" pt_clust_4="41.47892" pt_clust_5="92.41976" pt_clust_6="50.07886"></scales>
<clustering>
<clus scale="   41.479">  1  4  2 -1</clus>
<clus scale="   50.079">  2  6  1 -1</clus>
<clus scale="   92.420">  2  5  1 -1</clus>
<clus scale="   41.479">  1  3  2 -1</clus>
</clustering>
</event>
<event>
 6    0  0.6687079E+002  0.1802285E+03  0.7546771E-02  0.1167582E+00
         21   -1    0    0  505  501  0.00000000000E+00  0.00000000000E+00  0.47127993985E+03  0.47127993985E+03  0.00000000000E+00 0. -1.
         21   -1    0    0  506  502 -0.00000000000E+00 -0.00000000000E+00 -0.25219508904E+03  0.25219508904E+03  0.00000000000E+00 0. -1.
         21    1    1    2  503  502 -0.14351659751E+03 -0.45451875714E+02 -0.13048610308E+03  0.19922226247E+03  0.00000000000E+00 0. -1.
         21    1    1    2  504  501  0.47196868299E+02  0.91813037668E+02  0.76082967061E+02  0.12824116398E+03  0.00000000000E+00 0. -1.
         21    1    1    2  505  503  0.22092349176E+02 -0.99028603718E+02  0.28662559646E+03  0.30405422016E+03  0.00000000000E+00 0. -1.
         21    1    1    2  506  504  0.74227380032E+02  0.52667441764E+02 -0.13137609639E+02  0.91957382278E+02  0.00000000000E+00 0.  1.
<scales pt_clust_3="153.54308" pt_clust_4="88.61458" pt_clust_5="101.46298" pt_clust_6="88.61458"></scales>
<clustering>
<clus scale="   88.615">  4  6 -1 -1</clus>
<clus scale="  101.463">  1  5  2 -1</clus>
<clus scale="  153.543">  2  3  1 -1</clus>
<clus scale="  101.463">  1  3  2 -1</clus>
</clustering>
</event>
<event>
 6    0  0.6687079E+002  0.1024128E+03  0.7546771E-02  0.1275302E+00
         21   -1    0    0  505  501  0.00000000000E+00  0.00000000000E+00  0.23244835014E+02  0.23244835014E+02  0.00000000000E+00 0. -1.
         21   -1    0    0  506  502 -0.00000000000E+00 -0.00000000000E+00 -0.12984216686E+04  0.12984216686E+04  0.00000000000E+00 0. -1.
         21    1    1    2  503  502  0.39525527156E+02 -0.47515406155E+01 -0.40445033208E+03  0.40640486655E+03  0.00000000000E+00 0.  1.
         21    1    1    2  504  501 -0.14106709954E+01  0.37548098198E+02 -0.11374736362E+03  0.11979278944E+03  0.00000000000E+00 0.  1.
         21    1    1    2  505  503  0.77606848620E+02 -0.73487001968E+02 -0.21908795571E+03  0.24376770653E+03  0.00000000000E+00 0. -1.
         21    1    1    2  506  504 -0.11572170478E+03  0.40690444386E+02 -0.53789118217E+03  0.55170114108E+03  0.00000000000E+00 0. -1.
<scales pt_clust_3="39.56651" pt_clust_4="37.57459" pt_clust_5="14000.00000" pt_clust_6="102.41282"></scales>
<clustering>
<clus scale="   37.575">  1  4  2 -1</clus>
<clus scale="   39.567">  2  3  1 -1</clus>
<clus scale="  102.413">  2  6  1 -1</clus>
<clus scale="   37.575">  1  3  2 -1</clus>
</clustering>
</event>
<event>
 6    0  0.6687079E+002  0.6677724E+02  0.7546771E-02  0.1371408E+00
         21   -1    0    0  502  501  0.00000000000E+00  0.00000000000E+00  0.71420593634E+03  0.71420593634E+03  0.00000000000E+00 0.  1.
         21   -1    0    0  506  502 -0.00000000000E+00 -0.00000000000E+00 -0.14759600029E+04  0.14759600029E+04  0.00000000000E+00 0.  1.
         21    1    1    2  503  501  0.42923910831E+01  0.37315141683E+02  0.67733232149E+03  0.67837299339E+03  0.00000000000E+00 0.  1.
         21    1    1    2  504  505 -0.65794423899E+02 -0.47933736720E+02 -0.28487304358E+03  0.29627554792E+03  0.00000000000E+00 0.  1.
         21    1    1    2  505  503  0.50488184634E+02 -0.56156090013E+02 -0.18446072789E+02  0.77735582808E+02  0.00000000000E+00 0.  1.
         21    1    1    2  506  504  0.11013848182E+02  0.66774685050E+02 -0.11357672716E+04  0.11377818151E+04  0.00000000000E+00 0.  1.
<scales pt_clust_3="37.56121" pt_clust_4="66.77724" pt_clust_5="59.80495" pt_clust_6="14000.00000"></scales>
<clustering>
<clus scale="   37.561">  1  3  2 -1</clus>
<clus scale="   59.805">  1  5  2 -1</clus>
<clus scale="   66.777">  1  4  2 -1</clus>
<clus scale="   37.561">  1  3  2 -1</clus>
</clustering>
</event>
<event>
 6    0  0.6687079E+002  0.1198168E+03  0.7546771E-02  0.1243400E+00
         21   -1    0    0  504  501  0.00000000000E+00  0.00000000000E+00  0.56234163264E+02  0.56234163264E+02  0.00000000000E+00 0.  1.
         21   -1    0    0  506  502 -0.00000000000E+00 -0.00000000000E+00 -0.58854555351E+03  0.58854555351E+03  0.00000000000E+00 0.  1.
         21    1    1    2  503  502 -0.13949838681E+02  0.11076012985E+03 -0.44830997285E+03  0.46200025554E+03  0.00000000000E+00 0.  1.
         21    1    1    2  504  505 -0.29316688431E+02 -0.59967992065E+02 -0.46408179592E+02  0.81297893121E+02  0.00000000000E+00 0.  1.
         21    1    1    2  505  503  0.13113914531E+02 -0.57615913708E+02 -0.38548350587E+02  0.70551708694E+02  0.00000000000E+00 0.  1.
         21    1    1    2  506  501  0.30152612581E+02  0.68237759224E+01  0.95511278108E+00  0.30929859419E+02  0.00000000000E+00 0.  1.
<scales pt_clust_3="112.26699" pt_clust_4="41.48327" pt_clust_5="41.48327" pt_clust_6="30.91511"></scales>
<clustering>
<clus scale="   30.915">  1  6  2 -1</clus>
<clus scale="   41.483">  4  5 -1 -1</clus>
<clus scale="  112.267">  2  3  1 -1</clus>
<clus scale="   30.915">  1  3  2 -1</clus>
</clustering>
</event>
<event>
 6    0  0.6687079E+002  0.8820258E+02  0.7546771E-02  0.1307264E+00
         21   -1    0    0  503  501  0.00000000000E+00  0.00000000000E+00  0.32399172520E+03  0.32399172520E+03  0.00000000000E+00 0.  1.
         21   -1    0    0  504  502 -0.00000000000E+00 -0.00000000000E+00 -0.37483321326E+03  0.37483321326E+03  0.00000000000E+00 0.  1.
         21    1    1    2  503  505  0.11946845841E+03 -0.40197666235E+02 -0.16135095897E+03  0.20475032817E+03  0.00000000000E+00 0.  1.
         21    1    1    2  504  501 -0.78744953366E+02  0.36651561451E+02  0.27747276079E+03  0.29074944130E+03  0.00000000000E+00 0.  1.
         21    1    1    2  505  506 -0.34599442064E+02  0.53616140155E+02 -0.75319850840E+02  0.98716218560E+02  0.00000000000E+00 0.  1.
         21    1    1    2  506  502 -0.61240629842E+01 -0.50070035371E+02 -0.91643439038E+02  0.10460895042E+03  0.00000000000E+00 0.  1.
<scales pt_clust_3="14000.00000" pt_clust_4="88.20258" pt_clust_5="52.61421" pt_clust_6="50.44316"></scales>
<clustering>
<clus scale="   50.443">  2  6  1 -1</clus>
<clus scale="   52.614">  2  5  1 -1</clus>
<clus scale="   88.203">  1  4  2 -1</clus>
<clus scale="   88.203">  1  3  2 -1</clus>
</clustering>
</event>
<event>
 6    0  0.6687079E+002  0.2303406E+03  0.7546771E-02  0.1126400E+00
         21   -1    0    0  503  501  0.00000000000E+00  0.00000000000E+00  0.13182415902E+03  0.13182415902E+03  0.00000000000E+00 0. -1.
         21   -1    0    0  505  502 -0.00000000000E+00 -0.00000000000E+00 -0.62618182246E+03  0.62618182246E+03  0.00000000000E+00 0. -1.
         21    1    1    2  503  502 -0.50559927529E+02  0.23804778211E+03 -0.31614186430E+03  0.39895956086E+03  0.00000000000E+00 0. -1.
         21    1    1    2  504  506  0.78493004711E+01 -0.14541783021E+03 -0.82115955247E+01  0.14586084862E+03  0.00000000000E+00 0. -1.
         21    1    1    2  505  504  0.14912574578E+02 -0.28426052240E+02 -0.12715293790E+03  0.13114226986E+03  0.00000000000E+00 0. -1.
         21    1    1    2  506  501  0.27798052480E+02 -0.64203899662E+02 -0.42851265721E+02  0.82043302149E+02  0.00000000000E+00 0. -1.
<scales pt_clust_3="221.21466" pt_clust_4="45.05895" pt_clust_5="32.10024" pt_clust_6="45.05895"></scales>
<clustering>
<clus scale="   32.100">  2  5  1 -1</clus>
<clus scale="   45.059">  4  6 -1 -1</clus>
<clus scale="  221.215">  2  3  1 -1</clus>
<clus scale="  230.341">  1  3  2 -1</clus>
</clustering>
</event>
<event>
 6    0  0.6687079E+002  0.1012935E+03  0.7546771E-02  0.1277599E+00
         21   -1    0    0  503  501  0.00000000000E+00  0.00000000000E+00  0.19516715642E+04  0.19516715642E+04  0.00000000000E+00 0.  1.
         21   -1    0    0  506  502 -0.00000000000E+00 -0.00000000000E+00 -0.15807469966E+03  0.15807469966E+03  0.00000000000E+00 0. -1.
         21    1    1    2  503  504  0.24712793726E+02 -0.98359602583E+02  0.18650732669E+04  0.18678285855E+04  0.00000000000E+00 0.  1.
         21    1    1    2  504  502 -0.32806996603E+02  0.83356670386E+02 -0.12482888625E+03  0.15364532003E+03  0.00000000000E+00 0. -1.
         21    1    1    2  505  501  0.34176232576E+02 -0.24884915500E+01  0.11914807253E+02  0.36279058631E+02  0.00000000000E+00 0.  1.
         21    1    1    2  506  505 -0.26082029699E+02  0.17491423747E+02  0.41437676638E+02  0.51993299791E+02  0.00000000000E+00 0.  1.
<scales pt_clust_3="101.29346" pt_clust_4="14000.00000" pt_clust_5="32.11541" pt_clust_6="31.40417"></scales>
<clustering>
<clus scale="   31.404">  2  6  1 -1</clus>
<clus scale="   32.115">  2  5  1 -1</clus>
<clus scale="  101.293">  1  3  2 -1</clus>
<clus scale="  101.293">  1  3  2 -1</clus>
</clustering>
</event>
<event>
 6    0  0.6687079E+002  0.1796264E+03  0.7546771E-02  0.1168165E+00
         21   -1    0    0  503  501  0.00000000000E+00  0.00000000000E+00  0.96735951347E+03  0.96735951347E+03  0.00000000000E+00 0. -1.
         21   -1    0    0  506  502 -0.00000000000E+00 -0.00000000000E+00 -0.18469263397E+03  0.18469263397E+03  0.00000000000E+00 0. -1.
         21    1    1    2  503  502 -0.51601478383E+02 -0.83108917219E+02 -0.10178112254E+03  0.14117082417E+03  0.00000000000E+00 0. -1.
         21    1    1    2  504  501  0.13574675519E+03 -0.12767722428E+03  0.61874675307E+03  0.64620136148E+03  0.00000000000E+00 0. -1.
         21    1    1    2  505  504 -0.82617468518E+02  0.15115574904E+03  0.24892343768E+03  0.30271535210E+03  0.00000000000E+00 0. -1.
         21    1    1    2  506  505 -0.15278082879E+01  0.59630392462E+02  0.16777811296E+02  0.61964609700E+02  0.00000000000E+00 0. -1.
<scales pt_clust_3="65.25687" pt_clust_4="179.62641" pt_clust_5="14000.00000" pt_clust_6="59.64996"></scales>
<clustering>
<clus scale="   59.650">  2  6  1 -1</clus>
<clus scale="   65.257">  2  3  1 -1</clus>
<clus scale="  179.626">  1  4  2 -1</clus>
<clus scale="  179.626">  1  3  2 -1</clus>
</clustering>
</event>
<event>
 6    0  0.6687079E+002  0.8614536E+02  0.7546771E-02  0.1312464E+00
         21   -1    0    0  504  501  0.00000000000E+00  0.00000000000E+00  0.78175380849E+03  0.78175380849E+03  0.00000000000E+00 0.  1.
         21   -1    0    0  505  502 -0.00000000000E+00 -0.00000000000E+00 -0.64992362051E+02  0.64992362051E+02  0.00000000000E+00 0. -1.
         21    1    1    2  503  502  0.23819464454E+02  0.33469298001E+02 -0.21839660688E+02  0.46524526591E+02  0.00000000000E+00 0.  1.
         21    1    1    2  504  506  0.11379515950E+01 -0.61205968135E+02  0.33444882138E+03  0.34000511701E+03  0.00000000000E+00 0.  1.
         21    1    1    2  505  501 -0.44061910233E+02  0.11281945586E+03  0.30502961470E+03  0.32819620260E+03  0.00000000000E+00 0. -1.
         21    1    1    2  506  503  0.19104494184E+02 -0.85082785728E+02  0.99122671051E+02  0.13202032435E+03  0.00000000000E+00 0.  1.
<scales pt_clust_3="41.07993" pt_clust_4="58.28075" pt_clust_5="14000.00000" pt_clust_6="86.14536"></scales>
<clustering>
<clus scale="   41.080">  2  3  1 -1</clus>
<clus scale="   58.281">  1  4  2 -1</clus>
<clus scale="   86.145">  2  6  1 -1</clus>
<clus scale="   58.281">  1  3  2 -1</clus>
</clustering>
</event>
<event>
 6    0  0.6687079E+002  0.1120835E+03  0.7546771E-02  0.1256759E+00
         21   -1    0    0  504  501  0.00000000000E+00  0.00000000000E+00  0.27950759722E+03  0.27950759722E+03  0.00000000000E+00 0.  1.
         21   -1    0    0  503  502 -0.00000000000E+00 -0.00000000000E+00 -0.96165790898E+03  0.96165790898E+03  0.00000000000E+00 0.  1.
         21    1    1    2  503  501  0.30232916458E+02  0.33498709090E+01 -0.58526402790E+02  0.65959007696E+02  0.00000000000E+00 0.  1.
         21    1    1    2  504  506 -0.10174303840E+03 -0.48013460300E+02  0.25434681886E+03  0.27811731786E+03  0.00000000000E+00 0.  1.
         21    1    1    2  505  502  0.19168002200E+02 -0.61805392658E+02 -0.35269555849E+03  0.35858259278E+03  0.00000000000E+00 0. -1.
         21    1    1    2  506  505  0.52342119747E+02  0.10646898205E+03 -0.52527516934E+03  0.53850658786E+03  0.00000000000E+00 0.  1.
<scales pt_clust_3="30.41794" pt_clust_4="112.08350" pt_clust_5="68.01864" pt_clust_6="14000.00000"></scales>
<clustering>
<clus scale="   30.418">  2  3  1 -1</clus>
<clus scale="   68.019">  2  5  1 -1</clus>
<clus scale="  112.084">  1  4  2 -1</clus>
<clus scale="  112.084">  1  3  2 -1</clus>
</clustering>
</event>
<event>
 6    0  0.6687079E+002  0.9977449E+02  0.7546771E-02  0.1280771E+00
         21   -1    0    0  503  501  0.00000000000E+00  0.00000000000E+00  0.30030730522E+02  0.30030730522E+02  0.00000000000E+00 0. -1.
         21   -1    0    0  506  502 -0.00000000000E+00 -0.00000000000E+00 -0.19911513326E+04  0.19911513326E+04  0.00000000000E+00 0. -1.
         21    1    1    2  503  504  0.36633045095E+01 -0.10253491512E+03 -0.52539444024E+03  0.53531873351E+03  0.00000000000E+00 0. -1.
         21    1    1    2  504  502 -0.20371355673E+02  0.97644212826E+02 -0.10225802082E+04  0.10274335339E+04  0.00000000000E+00 0. -1.
         21    1    1    2  505  501  0.62137243419E+02  0.16941858281E+02 -0.27667768057E+02  0.70096854216E+02  0.00000000000E+00 0. -1.
         21    1    1    2  506  505 -0.45429192256E+02 -0.12051155992E+02 -0.38547818562E+03  0.38833294150E+03  0.00000000000E+00 0. -1.
<scales pt_clust_3="14000.00000" pt_clust_4="99.77449" pt_clust_5="62.97337" pt_clust_6="47.00045"></scales>
<clustering>
<clus scale="   47.000">  2  6  1 -1</clus>
<clus scale="   62.973">  1  5  2 -1</clus>
<clus scale="   99.774">  2  4  1 -1</clus>
<clus scale="   62.973">  1  3  2 -1</clus>
</clustering>
</event>
<event>
 6    0  0.6687079E+002  0.9433518E+02  0.7546771E-02  0.1292680E+00
         21   -1    0    0  505  501  0.00000000000E+00  0.00000000000E+00  0.32040025212E+03  0.32040025212E+03  0.00000000000E+00 0. -1.
         21   -1    0    0  504  502 -0.00000000000E+00 -0.00000000000E+00 -0.38738177629E+03  0.38738177629E+03  0.00000000000E+00 0.  1.
         21    1    1    2  503  506  0.14171680817E+01  0.75844689942E+02  0.12485146769E+03  0.14609008982E+03  0.00000000000E+00 0. -1.
         21    1    1    2  504  503 -0.36933206846E+02  0.80275983523E+01 -0.34141971424E+03  0.34350534985E+03  0.00000000000E+00 0.  1.
         21    1    1    2  505  502  0.63878400060E+02 -0.10535639537E+03  0.11826659826E+03  0.17078468404E+03  0.00000000000E+00 0. -1.
         21    1    1    2  506  501 -0.28362361295E+02  0.21484107073E+02  0.31320124116E+02  0.47401904705E+02  0.00000000000E+00 0. -1.
<scales pt_clust_3="94.33518" pt_clust_4="37.91537" pt_clust_5="14000.00000" pt_clust_6="35.58076"></scales>
<clustering>
<clus scale="   35.581">  1  6  2 -1</clus>
<clus scale="   37.915">  2  4  1 -1</clus>
<clus scale="   94.335">  1  3  2 -1</clus>
<clus scale="   35.581">  1  3  2 -1</clus>
</clustering>
</event>
<event>
 6    0  0.6687079E+002  0.1421194E+03  0.7546771E-02  0.1210505E+00
         21   -1    0    0  504  501  0.00000000000E+00  0.00000000000E+00  0.17288633332E+03  0.17288633332E+03  0.00000000000E+00 0.  1.
         21   -1    0    0  505  502 -0.00000000000E+00 -0.00000000000E+00 -0.65896677818E+03  0.65896677818E+03  0.00000000000E+00 0.  1.
         21    1    1    2  503  506  0.40103103038E+02 -0.64066173002E+02 -0.41558528514E+02  0.86254534308E+02  0.00000000000E+00 0.  1.
         21    1    1    2  504  503  0.42435222798E+02 -0.40398453525E+02 -0.66595475696E+02  0.88700285030E+02  0.00000000000E+00 0. -1.
         21    1    1    2  505  501  0.20757092942E+01  0.14595861541E+03  0.95333482528E+02  0.17434649085E+03  0.00000000000E+00 0.  1.
         21    1    1    2  506  502 -0.84614035130E+02 -0.41493988883E+02 -0.47325992318E+03  0.48255180131E+03  0.00000000000E+00 0.  1.
<scales pt_clust_3="30.32693" pt_clust_4="30.32693" pt_clust_5="137.88205" pt_clust_6="94.24058"></scales>
<clustering>
<clus scale="   30.327">  3  4 -1 -1</clus>
<clus scale="   94.241">  2  6  1 -1</clus>
<clus scale="  137.882">  1  5  2 -1</clus>
<clus scale="  137.882">  1  3  2 -1</clus>
</clustering>
</event>
<event>
 6    0  0.6687079E+002  0.1621673E+03  0.7546771E-02  0.1186271E+00
         21   -1    0    0  503  501  0.00000000000E+00  0.00000000000E+00  0.27229427230E+04  0.27229427230E+04  0.00000000000E+00 0. -1.
         21   -1    0    0  506  502 -0.00000000000E+00 -0.00000000000E+00 -0.83329203342E+02  0.83329203342E+02  0.00000000000E+00 0.  1.
         21    1    1    2  503  504  0.51791451260E+02  0.11235613149E+01  0.12111360785E+04  0.12122434646E+04  0.00000000000E+00 0. -1.
         21    1    1    2  504  502  0.29886454282E+02 -0.85352653295E+02  0.11701971749E+04  0.11736863737E+04  0.00000000000E+00 0. -1.
         21    1    1    2  505  501  0.11640719083E+02 -0.55379842400E+02  0.24549216858E+03  0.25193022470E+03  0.00000000000E+00 0.  1.
         21    1    1    2  506  505 -0.93318624625E+02  0.13960893438E+03  0.12788097598E+02  0.16841186330E+03  0.00000000000E+00 0.  1.
<scales pt_clust_3="51.80364" pt_clust_4="162.16729" pt_clust_5="58.76287" pt_clust_6="14000.00000"></scales>
<clustering>
<clus scale="   51.804">  1  3  2 -1</clus>
<clus scale="   58.763">  1  5  2 -1</clus>
<clus scale="  162.167">  1  4  2 -1</clus>
<clus scale="   51.804">  1  3  2 -1</clus>
</clustering>
</event>
<event>
 6    0  0.6687079E+002  0.1024822E+03  0.7546771E-02  0.1275161E+00
         21   -1    0    0  506  501  0.00000000000E+00  0.00000000000E+00  0.84568151619E+03  0.84568151619E+03  0.00000000000E+00 0. -1.
         21   -1    0    0  501  502 -0.00000000000E+00 -0.00000000000E+00 -0.18209563762E+04  0.18209563762E+04  0.00000000000E+00 0. -1.
         21    1    1    2  503  504 -0.65580340131E+02 -0.68391381393E+02  0.18735524760E+03  0.20995273484E+03  0.00000000000E+00 0. -1.
         21    1    1    2  504  502  0.82929053476E+02  0.60326091528E+02 -0.18006036699E+04  0.18035215666E+04  0.00000000000E+00 0. -1.
         21    1    1    2  505  503 -0.24865110845E+02  0.40349160014E+02  0.71872342419E+02  0.86092752633E+02  0.00000000000E+00 0. -1.
         21    1    1    2  506  505  0.75163975000E+01 -0.32283870149E+02  0.56610121987E+03  0.56707083829E+03  0.00000000000E+00 0. -1.
<scales pt_clust_3="14000.00000" pt_clust_4="102.48220" pt_clust_5="38.61694" pt_clust_6="33.14732"></scales>
<clustering>
<clus scale="   33.147">  1  6  2 -1</clus>
<clus scale="   38.617">  1  5  2 -1</clus>
<clus scale="  102.482">  2  4  1 -1</clus>
<clus scale="   33.147">  1  3  2 -1</clus>
</clustering>
</event>
<event>
 6    0  0.6687079E+002  0.1156052E+03  0.7546771E-02  0.1250528E+00
         21   -1    0    0  504  501  0.00000000000E+00  0.00000000000E+00  0.96631538100E+02  0.96631538100E+02  0.00000000000E+00 0.  1.
         21   -1    0    0  506  502 -0.00000000000E+00 -0.00000000000E+00 -0.10475401906E+04  0.10475401906E+04  0.00000000000E+00 0.  1.
         21    1    1    2  503  505  0.10510958909E+03 -0.30627524569E+02 -0.34020393483E+02  0.11464492206E+03  0.00000000000E+00 0.  1.
         21    1    1    2  504  502  0.35026028022E+02  0.27650951869E+02 -0.86419118383E+03  0.86534259111E+03  0.00000000000E+00 0.  1.
         21    1    1    2  505  501 -0.19317875034E+02 -0.23073176499E+02 -0.20671030967E+02  0.36508126367E+02  0.00000000000E+00 0.  1.
         21    1    1    2  506  503 -0.12081774208E+03  0.26049749199E+02 -0.32026044208E+02  0.12767608916E+03  0.00000000000E+00 0.  1.
<scales pt_clust_3="14000.00000" pt_clust_4="44.43392" pt_clust_5="30.09239" pt_clust_6="115.60524"></scales>
<clustering>
<clus scale="   30.092">  1  5  2 -1</clus>
<clus scale="   44.434">  2  4  1 -1</clus>
<clus scale="  115.605">  2  6  1 -1</clus>
<clus scale="   30.092">  1  3  2 -1</clus>
</clustering>
</event>
<event>
 6    0  0.6687079E+002  0.9069196E+02  0.7546771E-02  0.1301185E+00
         21   -1    0    0  506  501  0.00000000000E+00  0.00000000000E+00  0.92957664350E+02  0.92957664350E+02  0.00000000000E+00 0. -1.
         21   -1    0    0  504  502 -0.00000000000E+00 -0.00000000000E+00 -0.37972095144E+03  0.37972095144E+03  0.00000000000E+00 0. -1.
         21    1    1    2  503  505  0.72621559362E+02  0.39585133497E+02 -0.20534696112E+02  0.85220580980E+02  0.00000000000E+00 0. -1.
         21    1    1    2  504  501 -0.39052773295E+02  0.21928639079E+02 -0.26260601793E+02  0.51919201847E+02  0.00000000000E+00 0. -1.
         21    1    1    2  505  502 -0.67220686187E+02 -0.64521576646E+02 -0.27289406518E+03  0.28836231605E+03  0.00000000000E+00 0. -1.
         21    1    1    2  506  503  0.33651900119E+02  0.30078040705E+01  0.32926076002E+02  0.47176516911E+02  0.00000000000E+00 0.  1.
<scales pt_clust_3="90.69196" pt_clust_4="38.31099" pt_clust_5="14000.00000" pt_clust_6="33.78605"></scales>
<clustering>
<clus scale="   33.786">  1  6  2 -1</clus>
<clus scale="   38.311">  1  4  2 -1</clus>
<clus scale="   90.692">  1  3  2 -1</clus>
<clus scale="   33.786">  1  3  2 -1</clus>
</clustering>
</event>
<event>
 6    0  0.6687079E+002  0.1913620E+03  0.7546771E-02  0.1157239E+00
         21   -1    0    0  503  501  0.00000000000E+00  0.00000000000E+00  0.10653534184E+04  0.10653534184E+04  0.00000000000E+00 0. -1.
         21   -1    0    0  504  502 -0.00000000000E+00 -0.00000000000E+00 -0.93458560952E+03  0.93458560952E+03  0.00000000000E+00 0. -1.
         21    1    1    2  503  502 -0.47852757407E+02 -0.89362216030E+02  0.55238326201E+02  0.11544160743E+03  0.00000000000E+00 0.  1.
         21    1    1    2  504  506 -0.18388246231E+03  0.46805168574E+02 -0.84100561474E+03  0.86214495752E+03  0.00000000000E+00 0. -1.
         21    1    1    2  505  501 -0.61078464849E+02  0.12667732929E+03  0.20784621352E+03  0.25095372701E+03  0.00000000000E+00 0. -1.
         21    1    1    2  506  505  0.29281368457E+03 -0.84120281838E+02  0.70868888389E+03  0.77139873596E+03  0.00000000000E+00 0. -1.
<scales pt_clust_3="101.36810" pt_clust_4="191.36200" pt_clust_5="128.09937" pt_clust_6="14000.00000"></scales>
<clustering>
<clus scale="  101.368">  1  3  2 -1</clus>
<clus scale="  128.099">  1  5  2 -1</clus>
<clus scale="  191.362">  2  4  1 -1</clus>
<clus scale="  101.368">  1  3  2 -1</clus>
</clustering>
</event>
<event>
 6    0  0.6687079E+002  0.1554663E+03  0.7546771E-02  0.1193913E+00
         21   -1    0    0  506  501  0.00000000000E+00  0.00000000000E+00  0.89297708917E+02  0.89297708917E+02  0.00000000000E+00 0.  1.
         21   -1    0    0  503  502 -0.00000000000E+00 -0.00000000000E+00 -0.25543506785E+04  0.25543506785E+04  0.00000000000E+00 0.  1.
         21    1    1    2  503  505  0.16007130203E+02  0.42516225789E+02 -0.20236824462E+04  0.20241923082E+04  0.00000000000E+00 0.  1.
         21    1    1    2  504  502  0.11162092040E+03 -0.13111446257E+03 -0.36064854054E+03  0.39964684655E+03  0.00000000000E+00 0.  1.
         21    1    1    2  505  501 -0.14716965403E+03  0.40891112543E+02 -0.63998111265E+02  0.16561023035E+03  0.00000000000E+00 0.  1.
         21    1    1    2  506  504  0.19541603425E+02  0.47707124238E+02 -0.16723871584E+02  0.54199002281E+02  0.00000000000E+00 0. -1.
<scales pt_clust_3="45.42970" pt_clust_4="155.46627" pt_clust_5="14000.00000" pt_clust_6="54.59036"></scales>
<clustering>
<clus scale="   45.430">  2  3  1 -1</clus>
<clus scale="   54.590">  1  6  2 -1</clus>
<clus scale="  155.466">  2  4  1 -1</clus>
<clus scale="   54.590">  1  3  2 -1</clus>
</clustering>
</event>
<event>
 6    0  0.6687079E+002  0.1207530E+03  0.7546771E-02  0.1241860E+00
         21   -1    0    0  503  501  0.00000000000E+00  0.00000000000E+00  0.12342801812E+04  0.12342801812E+04  0.00000000000E+00 0. -1.
         21   -1    0    0  504  502 -0.00000000000E+00 -0.00000000000E+00 -0.11591392680E+03  0.11591392680E+03  0.00000000000E+00 0.  1.
         21    1    1    2  503  505 -0.29709298128E+02  0.50221984712E+02  0.43236666122E+03  0.43628639663E+03  0.00000000000E+00 0. -1.
         21    1    1    2  504  501  0.10098912092E+03  0.24654176679E+02  0.33341158991E+03  0.34924192082E+03  0.00000000000E+00 0. -1.
         21    1    1    2  505  506 -0.14181789353E+03 -0.56536620448E+02  0.43122149348E+03  0.45745019490E+03  0.00000000000E+00 0. -1.
         21    1    1    2  506  502  0.70538070739E+02 -0.18339540943E+02 -0.78633490163E+02  0.10721559570E+03  0.00000000000E+00 0.  1.
<scales pt_clust_3="58.35144" pt_clust_4="120.75298" pt_clust_5="14000.00000" pt_clust_6="72.14749"></scales>
<clustering>
<clus scale="   58.351">  1  3  2 -1</clus>
<clus scale="   72.147">  2  6  1 -1</clus>
<clus scale="  120.753">  1  4  2 -1</clus>
<clus scale="   58.351">  1  3  2 -1</clus>
</clustering>
</event>
<event>
 6    0  0.6687079E+002  0.2541777E+03  0.7546771E-02  0.1110693E+00
         21   -1    0    0  503  501  0.00000000000E+00  0.00000000000E+00  0.17386585920E+03  0.17386585920E+03  0.00000000000E+00 0.  1.
         21   -1    0    0  505  502 -0.00000000000E+00 -0.00000000000E+00 -0.85106085076E+03  0.85106085076E+03  0.00000000000E+00 0.  1.
         21    1    1    2  503  506  0.11917761679E+03  0.11134409226E+03  0.83539994034E+01  0.16331136069E+03  0.00000000000E+00 0.  1.
         21    1    1    2  504  502  0.76264436049E+02 -0.47175492683E+02 -0.15831642631E+03  0.18195021889E+03  0.00000000000E+00 0. -1.
         21    1    1    2  505  501 -0.27376684247E+03 -0.94544889227E+02 -0.52015890417E+03  0.59535897213E+03  0.00000000000E+00 0.  1.
         21    1    1    2  506  504  0.78324789634E+02  0.30376289650E+02 -0.70736604952E+01  0.84306158239E+02  0.00000000000E+00 0.  1.
<scales pt_clust_3="33.82254" pt_clust_4="89.67604" pt_clust_5="249.77068" pt_clust_6="33.82254"></scales>
<clustering>
<clus scale="   33.823">  3  6 -1 -1</clus>
<clus scale="   89.676">  2  4  1 -1</clus>
<clus scale="  249.771">  2  5  1 -1</clus>
<clus scale="  254.178">  1  3  2 -1</clus>
</clustering>
</event>
<event>
 6    0  0.6687079E+002  0.1639313E+03  0.7546771E-02  0.1184328E+00
         21   -1    0    0  505  501  0.00000000000E+00  0.00000000000E+00  0.12655708647E+04  0.12655708647E+04  0.00000000000E+00 0.  1.
         21   -1    0    0  503  502 -0.00000000000E+00 -0.00000000000E+00 -0.12246118768E+03  0.12246118768E+03  0.00000000000E+00 0. -1.
         21    1    1    2  503  504 -0.14705557884E+03 -0.43006701909E+02 -0.59600934999E+02  0.16439948640E+03  0.00000000000E+00 0. -1.
         21    1    1    2  504  506  0.45006579765E+02  0.61428034236E+01  0.17916269600E+03  0.18483126872E+03  0.00000000000E+00 0. -1.
         21    1    1    2  505  502  0.58756080144E+01  0.49728110934E+02  0.11958247282E+03  0.12964326281E+03  0.00000000000E+00 0.  1.
         21    1    1    2  506  501  0.96173391057E+02 -0.12864212449E+02  0.90396544320E+03  0.90915803446E+03  0.00000000000E+00 0.  1.
<scales pt_clust_3="152.32993" pt_clust_4="41.44451" pt_clust_5="50.07402" pt_clust_6="41.44451"></scales>
<clustering>
<clus scale="   41.445">  4  6 -1 -1</clus>
<clus scale="   50.074">  1  5  2 -1</clus>
<clus scale="  152.330">  2  3  1 -1</clus>
<clus scale="   50.074">  1  3  2 -1</clus>
</clustering>
</event>
<event>
 6    0  0.6687079E+002  0.8490249E+02  0.7546771E-02  0.1315688E+00
         21   -1    0    0  505  501  0.00000000000E+00  0.00000000000E+00  0.64538165605E+03  0.64538165605E+03  0.00000000000E+00 0. -1.
         21   -1    0    0  506  502 -0.00000000000E+00 -0.00000000000E+00 -0.41224197401E+02  0.41224197401E+02  0.00000000000E+00 0. -1.
         21    1    1    2  503  504  0.62880189524E+02 -0.25589629971E+02  0.19089354135E+03  0.20260575394E+03  0.00000000000E+00 0. -1.
         21    1    1    2  504  501  0.58239292477E+02  0.24820207980E+02  0.29618051009E+03  0.30287085114E+03  0.00000000000E+00 0. -1.
         21    1    1    2  505  502 -0.29541915413E+02 -0.84974816941E+01  0.72721252547E+02  0.78951330156E+02  0.00000000000E+00 0. -1.
         21    1    1    2  506  503 -0.91577566588E+02  0.92669036858E+01  0.44362154658E+02  0.10217791822E+03  0.00000000000E+00 0. -1.
<scales pt_clust_3="84.90249" pt_clust_4="47.30468" pt_clust_5="30.73975" pt_clust_6="14000.00000"></scales>
<clustering>
<clus scale="   30.740">  1  5  2 -1</clus>
<clus scale="   47.305">  1  4  2 -1</clus>
<clus scale="   84.902">  1  3  2 -1</clus>
<clus scale="   30.740">  1  3  2 -1</clus>
</clustering>
</event>
<event>
 6    0  0.6687079E+002  0.1468954E+03  0.7546771E-02  0.1204341E+00
         21   -1    0    0  505  501  0.00000000000E+00  0.00000000000E+00  0.19173278854E+04  0.19173278854E+04  0.00000000000E+00 0. -1.
         21   -1    0    0  504  502 -0.00000000000E+00 -0.00000000000E+00 -0.16271216549E+03  0.16271216549E+03  0.00000000000E+00 0.  1.
         21    1    1    2  503  501  0.78171015838E+02  0.11207769166E+03  0.18629630159E+04  0.18679676965E+04  0.00000000000E+00 0. -1.
         21    1    1    2  504  503  0.20316153296E+02 -0.23285756238E+02  0.23989177491E+01  0.30995601860E+02  0.00000000000E+00 0. -1.
         21    1    1    2  505  506 -0.67165730797E+02 -0.67970997083E+02 -0.45662298858E+02  0.10590721116E+03  0.00000000000E+00 0.  1.
         21    1    1    2  506  502 -0.31321438337E+02 -0.20820938334E+02 -0.65083914870E+02  0.75169541354E+02  0.00000000000E+00 0. -1.
<scales pt_clust_3="136.52083" pt_clust_4="30.90263" pt_clust_5="34.00137" pt_clust_6="34.00137"></scales>
<clustering>
<clus scale="   30.903">  2  4  1 -1</clus>
<clus scale="   34.001">  5  6 -1 -1</clus>
<clus scale="  136.521">  1  3  2 -1</clus>
<clus scale="  136.521">  1  3  2 -1</clus>
</clustering>
</event>
<event>
 6    0  0.6687079E+002  0.2218119E+03  0.7546771E-02  0.1132539E+00
         21   -1    0    0  502  501  0.00000000000E+00  0.00000000000E+00  0.45825116484E+03  0.45825116484E+03  0.00000000000E+00 0. -1.
         21   -1    0    0  504  502 -0.00000000000E+00 -0.00000000000E+00 -0.11702698315E+04  0.11702698315E+04  0.00000000000E+00 0. -1.
         21    1    1    2  503  506 -0.15297391702E+02  0.17578431802E+03 -0.55285832262E+03  0.58033306088E+03  0.00000000000E+00 0. -1.
         21    1    1    2  504  503 -0.29909691723E+02  0.44341237022E+02 -0.55197949463E+03  0.55456478202E+03  0.00000000000E+00 0.  1.
         21    1    1    2  505  501 -0.38680188124E+02  0.75254551649E+01  0.13045245964E+03  0.13627411220E+03  0.00000000000E+00 0. -1.
         21    1    1    2  506  505  0.83887271549E+02 -0.22765101020E+03  0.26236669093E+03  0.35734904126E+03  0.00000000000E+00 0. -1.
<scales pt_clust_3="14000.00000" pt_clust_4="53.59684" pt_clust_5="39.40545" pt_clust_6="221.81192"></scales>
<clustering>
<clus scale="   39.405">  1  5  2 -1</clus>
<clus scale="   53.597">  2  4  1 -1</clus>
<clus scale="  221.812">  1  6  2 -1</clus>
<clus scale="   39.405">  1  3  2 -1</clus>
</clustering>
</event>
<event>
 6    0  0.6687079E+002  0.1749202E+03  0.7546771E-02  0.1172812E+00
         21   -1    0    0  505  501  0.00000000000E+00  0.00000000000E+00  0.42506622645E+03  0.42506622645E+03  0.00000000000E+00 0.  1.
         21   -1    0    0  503  502 -0.00000000000E+00 -0.00000000000E+00 -0.14996184267E+03  0.14996184267E+03  0.00000000000E+00 0.  1.
         21    1    1    2  503  504  0.12191397561E+02 -0.28118629276E+02 -0.71051035169E+02  0.77379177337E+02  0.00000000000E+00 0.  1.
         21    1    1    2  504  501 -0.58740600697E+02 -0.13966850621E+03  0.22961520592E+03  0.27510160411E+03  0.00000000000E+00 0.  1.
         21    1    1    2  505  506 -0.63476225215E+01  0.11381915953E+03  0.68179545444E+02  0.13282900212E+03  0.00000000000E+00 0.  1.
         21    1    1    2  506  502  0.52896825657E+02  0.53967975954E+02  0.48360667585E+02  0.89718285552E+02  0.00000000000E+00 0.  1.
<scales pt_clust_3="30.64780" pt_clust_4="158.02135" pt_clust_5="63.43622" pt_clust_6="63.43622"></scales>
<clustering>
<clus scale="   30.648">  2  3  1 -1</clus>
<clus scale="   63.436">  5  6 -1 -1</clus>
<clus scale="  158.021">  1  4  2 -1</clus>
<clus scale="  158.021">  1  3  2 -1</clus>
</clustering>
</event>
<event>
 6    0  0.6687079E+002  0.6470101E+02  0.7546771E-02  0.1379100E+00
         21   -1    0    0  504  501  0.00000000000E+00  0.00000000000E+00  0.25766231301E+03  0.25766231301E+03  0.00000000000E+00 0. -1.
         21   -1    0    0  503  502 -0.00000000000E+00 -0.00000000000E+00 -0.67421700854E+03  0.67421700854E+03  0.00000000000E+00 0.  1.
         21    1    1    2  503  506 -0.52364473599E+02 -0.81631915436E+01 -0.60751861407E+03  0.60982582942E+03  0.00000000000E+00 0.  1.
         21    1    1    2  504  505  0.49504501604E+02  0.66564731156E+02  0.13570819505E+03  0.15905430933E+03  0.00000000000E+00 0. -1.
         21    1    1    2  505  502  0.51421387277E+02 -0.58727949838E+02 -0.13099046332E+02  0.79149960053E+02  0.00000000000E+00 0.  1.
         21    1    1    2  506  501 -0.48561415281E+02  0.32641022591E+00  0.68354769816E+02  0.83849222741E+02  0.00000000000E+00 0. -1.
<scales pt_clust_3="53.30151" pt_clust_4="64.70101" pt_clust_5="14000.00000" pt_clust_6="48.56251"></scales>
<clustering>
<clus scale="   48.563">  1  6  2 -1</clus>
<clus scale="   53.302">  2  3  1 -1</clus>
<clus scale="   64.701">  1  4  2 -1</clus>
<clus scale="   48.563">  1  3  2 -1</clus>
</clustering>
</event>
<event>
 6    0  0.6687079E+002  0.1716669E+03  0.7546771E-02  0.1176121E+00
         21   -1    0    0  505  501  0.00000000000E+00  0.00000000000E+00  0.27592795601E+03  0.27592795601E+03  0.00000000000E+00 0.  1.
         21   -1    0    0  506  502 -0.00000000000E+00 -0.00000000000E+00 -0.87595967691E+03  0.87595967691E+03  0.00000000000E+00 0. -1.
         21    1    1    2  503  502 -0.19528101083E+03  0.61770161773E+01  0.11108331056E+03  0.22474948410E+03  0.00000000000E+00 0.  1.
         21    1    1    2  504  501  0.18351919400E+03  0.22742801652E+02 -0.12708372475E+03  0.22438093210E+03  0.00000000000E+00 0.  1.
         21    1    1    2  505  503  0.40342416346E+02  0.37334067225E+02  0.44114929633E+02  0.70480281985E+02  0.00000000000E+00 0.  1.
         21    1    1    2  506  504 -0.28580599517E+02 -0.66253885055E+02 -0.62814623635E+03  0.63227693473E+03  0.00000000000E+00 0. -1.
<scales pt_clust_3="14000.00000" pt_clust_4="171.66690" pt_clust_5="54.96675" pt_clust_6="71.68110"></scales>
<clustering>
<clus scale="   54.967">  1  5  2 -1</clus>
<clus scale="   71.681">  2  6  1 -1</clus>
<clus scale="  171.667">  2  4  1 -1</clus>
<clus scale="   54.967">  1  3  2 -1</clus>
</clustering>
</event>
<event>
 6    0  0.6687079E+002  0.9815143E+02  0.7546771E-02  0.1284232E+00
         21   -1    0    0  506  501  0.00000000000E+00  0.00000000000E+00  0.57377289140E+03  0.57377289140E+03  0.00000000000E+00 0. -1.
         21   -1    0    0  503  502 -0.00000000000E+00 -0.00000000000E+00 -0.16442988714E+03  0.16442988714E+03  0.00000000000E+00 0.  1.
         21    1    1    2  503  505  0.41481993166E+02  0.56925080029E+02 -0.66277118266E+01  0.70747063949E+02  0.00000000000E+00 0.  1.
         21    1    1    2  504  502 -0.12008521611E+02  0.40131956272E+02 -0.99204110438E+02  0.10768581166E+03  0.00000000000E+00 0.  1.
         21    1    1    2  505  501 -0.74100283520E+02 -0.12532382270E+03  0.24931297017E+03  0.28871070235E+03  0.00000000000E+00 0. -1.
         21    1    1    2  506  504  0.44626811964E+02  0.28266786401E+02  0.26586185635E+03  0.27105920059E+03  0.00000000000E+00 0.  1.
<scales pt_clust_3="14000.00000" pt_clust_4="41.89008" pt_clust_5="98.15143" pt_clust_6="53.33625"></scales>
<clustering>
<clus scale="   41.890">  2  4  1 -1</clus>
<clus scale="   53.336">  1  6  2 -1</clus>
<clus scale="   98.151">  1  5  2 -1</clus>
<clus scale="   53.336">  1  3  2 -1</clus>
</clustering>
</event>
<event>
 6    0  0.6687079E+002  0.1507058E+03  0.7546771E-02  0.1199608E+00
         21   -1    0    0  503  501  0.00000000000E+00  0.00000000000E+00  0.21377689638E+03  0.21377689638E+03  0.00000000000E+00 0.  1.
         21   -1    0    0  506  502 -0.00000000000E+00 -0.00000000000E+00 -0.40904884262E+03  0.40904884262E+03  0.00000000000E+00 0.  1.
         21    1    1    2  503  504  0.42024416332E+02 -0.44716594912E+02 -0.55534994795E+01  0.61615475208E+02  0.00000000000E+00 0.  1.
         21    1    1    2  504  502 -0.48700674513E+02  0.11490814641E+03 -0.31230012964E+03  0.33631385458E+03  0.00000000000E+00 0.  1.
         21    1    1    2  505  501  0.31790599613E+02 -0.10332868921E+03  0.14243891410E+03  0.17881919496E+03  0.00000000000E+00 0.  1.
         21    1    1    2  506  505 -0.25114341431E+02  0.33137137713E+02 -0.19857231221E+02  0.46077214251E+02  0.00000000000E+00 0. -1.
<scales pt_clust_3="57.67377" pt_clust_4="14000.00000" pt_clust_5="150.70584" pt_clust_6="41.57884"></scales>
<clustering>
<clus scale="   41.579">  2  6  1 -1</clus>
<clus scale="   57.674">  1  3  2 -1</clus>
<clus scale="  150.706">  1  5  2 -1</clus>
<clus scale="   57.674">  1  3  2 -1</clus>
</clustering>
</event>
<event>
 6    0  0.6687079E+002  0.1320832E+03  0.7546771E-02  0.1224397E+00
         21   -1    0    0  506  501  0.00000000000E+00  0.00000000000E+00  0.27559570682E+03  0.27559570682E+03  0.00000000000E+00 0.  1.
         21   -1    0    0  501  502 -0.00000000000E+00 -0.00000000000E+00 -0.25646677177E+03  0.25646677177E+03  0.00000000000E+00 0. -1.
         21    1    1    2  503  504 -0.81893419381E+02  0.51194179822E+02  0.12167614472E+03  0.15534625963E+03  0.00000000000E+00 0.  1.
         21    1    1    2  504  502  0.12632495331E+03 -0.57291152930E+02 -0.16472889053E+03  0.21535059184E+03  0.00000000000E+00 0. -1.
         21    1    1    2  505  503 -0.32647467422E+02  0.59575654501E+02 -0.12177864045E+02  0.69017505830E+02  0.00000000000E+00 0.  1.
         21    1    1    2  506  505 -0.11784066503E+02 -0.53478681393E+02  0.74359544900E+02  0.92348121284E+02  0.00000000000E+00 0.  1.
<scales pt_clust_3="132.08317" pt_clust_4="14000.00000" pt_clust_5="62.06770" pt_clust_6="54.76161"></scales>
<clustering>
<clus scale="   54.762">  1  6  2 -1</clus>
<clus scale="   62.068">  1  5  2 -1</clus>
<clus scale="  132.083">  1  3  2 -1</clus>
<clus scale="   54.762">  1  3  2 -1</clus>
</clustering>
</event>
<event>
 6    0  0.6687079E+002  0.2512944E+03  0.7546771E-02  0.1112490E+00
         21   -1    0    0  505  501  0.00000000000E+00  0.00000000000E+00  0.74472366453E+03  0.74472366453E+03  0.00000000000E+00 0. -1.
         21   -1    0    0  501  502 -0.00000000000E+00 -0.00000000000E+00 -0.30722778723E+03  0.30722778723E+03  0.00000000000E+00 0. -1.
         21    1    1    2  503  502  0.12910658714E+03  0.30181297967E+02 -0.17508027168E+03  0.21961904089E+03  0.00000000000E+00 0. -1.
         21    1    1    2  504  506  0.23698808971E+02 -0.79305178843E+02  0.14793168774E+03  0.16951321239E+03  0.00000000000E+00 0. -1.
         21    1    1    2  505  504 -0.50835036362E+02 -0.17044359682E+03  0.35498365830E+03  0.39704989395E+03  0.00000000000E+00 0. -1.
         21    1    1    2  506  503 -0.10197035975E+03  0.21956747770E+03  0.10966080294E+03  0.26576930453E+03  0.00000000000E+00 0. -1.
<scales pt_clust_3="132.58741" pt_clust_4="48.03918" pt_clust_5="48.03918" pt_clust_6="241.22555"></scales>
<clustering>
<clus scale="   48.039">  4  5 -1 -1</clus>
<clus scale="  132.587">  2  3  1 -1</clus>
<clus scale="  241.226">  2  6  1 -1</clus>
<clus scale="  251.294">  1  3  2 -1</clus>
</clustering>
</event>
<event>
 6    0  0.6687079E+002  0.1568547E+03  0.7546771E-02  0.1192294E+00
         21   -1    0    0  503  501  0.00000000000E+00  0.00000000000E+00  0.93523204022E+03  0.93523204022E+03  0.00000000000E+00 0. -1.
         21   -1    0    0  501  502 -0.00000000000E+00 -0.00000000000E+00 -0.37735474242E+02  0.37735474242E+02  0.00000000000E+00 0. -1.
         21    1    1    2  503  506  0.31232611091E+02  0.20413585229E+02  0.95189752674E+02  0.10224128066E+03  0.00000000000E+00 0. -1.
         21    1    1    2  504  505 -0.30761262743E+02  0.32404954250E+02  0.35854397629E+02  0.57287644173E+02  0.00000000000E+00 0. -1.
         21    1    1    2  505  502 -0.10392085202E+03  0.40900256527E+02  0.19059662348E+03  0.22090596948E+03  0.00000000000E+00 0. -1.
         21    1    1    2  506  504  0.10344950367E+03 -0.93718796007E+02  0.57585579219E+03  0.59253262015E+03  0.00000000000E+00 0. -1.
<scales pt_clust_3="37.31207" pt_clust_4="32.24400" pt_clust_5="32.24400" pt_clust_6="148.33982"></scales>
<clustering>
<clus scale="   32.244">  4  5 -1 -1</clus>
<clus scale="   37.312">  1  3  2 -1</clus>
<clus scale="  148.340">  1  6  2 -1</clus>
<clus scale="   37.312">  1  3  2 -1</clus>
</clustering>
</event>
<event>
 6    0  0.6687079E+002  0.1078289E+03  0.7546771E-02  0.1264644E+00
         21   -1    0    0  505  501  0.00000000000E+00  0.00000000000E+00  0.15433358579E+03  0.15433358579E+03  0.00000000000E+00 0. -1.
         21   -1    0    0  506  502 -0.00000000000E+00 -0.00000000000E+00 -0.22694474467E+03  0.22694474467E+03  0.00000000000E+00 0. -1.
         21    1    1    2  503  502  0.10509003231E+03 -0.75748053525E+02 -0.12262578622E+03  0.17837815435E+03  0.00000000000E+00 0. -1.
         21    1    1    2  504  501 -0.21815288928E+02  0.65841615240E+02  0.51411090665E+02  0.86337276838E+02  0.00000000000E+00 0. -1.
         21    1    1    2  505  503 -0.12505401113E+02 -0.29867013299E+02  0.11507640599E+02  0.34363488364E+02  0.00000000000E+00 0. -1.
         21    1    1    2  506  504 -0.70769342267E+02  0.39773451584E+02 -0.12904103934E+02  0.82199410911E+02  0.00000000000E+00 0. -1.
<scales pt_clust_3="107.82885" pt_clust_4="57.65015" pt_clust_5="32.37937" pt_clust_6="14000.00000"></scales>
<clustering>
<clus scale="   32.379">  1  5  2 -1</clus>
<clus scale="   57.650">  1  4  2 -1</clus>
<clus scale="  107.829">  2  3  1 -1</clus>
<clus scale="   32.379">  1  3  2 -1</clus>
</clustering>
</event>
<event>
 6    0  0.6687079E+002  0.3683981E+03  0.7546771E-02  0.1055307E+00
         21   -1    0    0  506  501  0.00000000000E+00  0.00000000000E+00  0.61419792196E+03  0.61419792196E+03  0.00000000000E+00 0. -1.
         21   -1    0    0  505  502 -0.00000000000E+00 -0.00000000000E+00 -0.15067126274E+04  0.15067126274E+04  0.00000000000E+00 0.  1.
         21    1    1    2  503  501 -0.35179868598E+03 -0.69205320019E+02  0.42188048370E+03  0.55365588076E+03  0.00000000000E+00 0. -1.
         21    1    1    2  504  503  0.42467350990E+03  0.52870032902E+02 -0.27542721763E+03  0.50892335631E+03  0.00000000000E+00 0.  1.
         21    1    1    2  505  504 -0.34721848045E+02 -0.92006755663E+01 -0.99200786865E+03  0.99265798270E+03  0.00000000000E+00 0.  1.
         21    1    1    2  506  502 -0.38152975875E+02  0.25535962683E+02 -0.46960102854E+02  0.65673329582E+02  0.00000000000E+00 0.  1.
<scales pt_clust_3="368.39814" pt_clust_4="14000.00000" pt_clust_5="35.92018" pt_clust_6="48.59869"></scales>
<clustering>
<clus scale="   35.920">  2  5  1 -1</clus>
<clus scale="   48.599">  2  6  1 -1</clus>
<clus scale="  368.398">  1  3  2 -1</clus>
<clus scale="  368.398">  1  3  2 -1</clus>
</clustering>
</event>
<event>
 6    0  0.6687079E+002  0.2577773E+03  0.7546771E-02  0.1108486E+00
         21   -1    0    0  503  501  0.00000000000E+00  0.00000000000E+00  0.10781969583E+04  0.10781969583E+04  0.00000000000E+00 0. -1.
         21   -1    0    0  504  502 -0.00000000000E+00 -0.00000000000E+00 -0.17213340832E+03  0.17213340832E+03  0.00000000000E+00 0. -1.
         21    1    1    2  503  506 -0.12963614987E+03  0.12223587763E+03  0.20727822365E+03  0.27333386752E+03  0.00000000000E+00 0. -1.
         21    1    1    2  504  505  0.26921993923E+02 -0.38268030759E+02  0.68876374013E+02  0.83265784282E+02  0.00000000000E+00 0.  1.
         21    1    1    2  505  501  0.27224364690E+03 -0.69211244046E+02  0.66328764656E+03  0.72031750059E+03  0.00000000000E+00 0. -1.
         21    1    1    2  506  502 -0.16952949095E+03 -0.14756602830E+02 -0.33378694269E+02  0.17341321420E+03  0.00000000000E+00 0. -1.
<scales pt_clust_3="240.45593" pt_clust_4="37.91418" pt_clust_5="37.91418" pt_clust_6="170.17052"></scales>
<clustering>
<clus scale="   37.914">  4  5 -1 -1</clus>
<clus scale="  170.171">  2  6  1 -1</clus>
<clus scale="  240.456">  1  3  2 -1</clus>
<clus scale="  240.456">  1  3  2 -1</clus>
</clustering>
</event>
<event>
 6    0  0.6687079E+002  0.7212597E+02  0.7546771E-02  0.1353009E+00
         21   -1    0    0  503  501  0.00000000000E+00  0.00000000000E+00  0.26949180773E+03  0.26949180773E+03  0.00000000000E+00 0. -1.
         21   -1    0    0  505  502 -0.00000000000E+00 -0.00000000000E+00 -0.58085395423E+03  0.58085395423E+03  0.00000000000E+00 0. -1.
         21    1    1    2  503  502 -0.37435547811E+01 -0.67157357850E+02 -0.40809105009E+03  0.41359694157E+03  0.00000000000E+00 0. -1.
         21    1    1    2  504  501  0.35585045621E+02 -0.17807452282E+02  0.22195833436E+03  0.22549701333E+03  0.00000000000E+00 0. -1.
         21    1    1    2  505  506  0.49863479731E+01  0.10286319722E+03 -0.13437155385E+03  0.16929682659E+03  0.00000000000E+00 0. -1.
         21    1    1    2  506  504 -0.36827838813E+02 -0.17898387091E+02  0.91421230737E+01  0.41954980472E+02  0.00000000000E+00 0. -1.
<scales pt_clust_3="14000.00000" pt_clust_4="39.79197" pt_clust_5="72.12597" pt_clust_6="32.59992"></scales>
<clustering>
<clus scale="   39.792">  1  4  2 -1</clus>
<clus scale="   32.600">  1  6  2 -1</clus>
<clus scale="   72.126">  1  5  2 -1</clus>
<clus scale="   39.792">  1  3  2 -1</clus>
</clustering>
</event>
<event>
 6    0  0.6687079E+002  0.2076507E+03  0.7546771E-02  0.1143440E+00
         21   -1    0    0  505  501  0.00000000000E+00  0.00000000000E+00  0.61497563570E+03  0.61497563570E+03  0.00000000000E+00 0.  1.
         21   -1    0    0  504  502 -0.00000000000E+00 -0.00000000000E+00 -0.33315718355E+03  0.33315718355E+03  0.00000000000E+00 0.  1.
         21    1    1    2  503  501  0.69240228425E+02 -0.15705349388E+03  0.22249652831E+03  0.28100660897E+03  0.00000000000E+00 0.  1.
         21    1    1    2  504  503  0.26393697488E+02 -0.45921669650E+02 -0.26264795368E+03  0.26793539255E+03  0.00000000000E+00 0.  1.
         21    1    1    2  505  506 -0.74246413732E+02  0.12425307768E+03  0.14784587915E+03  0.20690519869E+03  0.00000000000E+00 0.  1.
         21    1    1    2  506  502 -0.21387512181E+02  0.78722085846E+02  0.17412399837E+03  0.19228561903E+03  0.00000000000E+00 0.  1.
<scales pt_clust_3="194.35753" pt_clust_4="52.96628" pt_clust_5="57.28773" pt_clust_6="57.28773"></scales>
<clustering>
<clus scale="   52.966">  2  4  1 -1</clus>
<clus scale="   57.288">  5  6 -1 -1</clus>
<clus scale="  194.358">  1  3  2 -1</clus>
<clus scale="  194.358">  1  3  2 -1</clus>
</clustering>
</event>
<event>
 6    0  0.6687079E+002  0.9117645E+02  0.7546771E-02  0.1300028E+00
         21   -1    0    0  505  501  0.00000000000E+00  0.00000000000E+00  0.17921493930E+04  0.17921493930E+04  0.00000000000E+00 0.  1.
         21   -1    0    0  503  502 -0.00000000000E+00 -0.00000000000E+00 -0.27691963604E+02  0.27691963604E+02  0.00000000000E+00 0.  1.
         21    1    1    2  503  506  0.83847634514E+02  0.49950309922E+02  0.86001819303E+02  0.13008371227E+03  0.00000000000E+00 0.  1.
         21    1    1    2  504  501 -0.14411943312E+02 -0.43020673879E+02  0.52831263719E+03  0.53025722542E+03  0.00000000000E+00 0.  1.
         21    1    1    2  505  502 -0.12637087760E+02  0.38732784975E+02  0.83691508051E+03  0.83790618604E+03  0.00000000000E+00 0.  1.
         21    1    1    2  506  504 -0.56798603442E+02 -0.45662421017E+02  0.31322789235E+03  0.32159423283E+03  0.00000000000E+00 0.  1.
<scales pt_clust_3="91.17645" pt_clust_4="30.38153" pt_clust_5="40.74217" pt_clust_6="14000.00000"></scales>
<clustering>
<clus scale="   40.742">  1  5  2 -1</clus>
<clus scale="   30.382">  1  4  2 -1</clus>
<clus scale="   91.176">  2  3  1 -1</clus>
<clus scale="   40.742">  1  3  2 -1</clus>
</clustering>
</event>
<event>
 6    0  0.6687079E+002  0.1736816E+03  0.7546771E-02  0.1174062E+00
         21   -1    0    0  505  501  0.00000000000E+00  0.00000000000E+00  0.36908744699E+03  0.36908744699E+03  0.00000000000E+00 0.  1.
         21   -1    0    0  504  502 -0.00000000000E+00 -0.00000000000E+00 -0.40690489563E+03  0.40690489563E+03  0.00000000000E+00 0. -1.
         21    1    1    2  503  502 -0.12030713463E+02 -0.49323162006E+02 -0.10200428701E+03  0.11394027798E+03  0.00000000000E+00 0. -1.
         21    1    1    2  504  501 -0.59548608214E+02  0.58428916385E+02  0.17919374553E+02  0.85329238802E+02  0.00000000000E+00 0.  1.
         21    1    1    2  505  506 -0.46026650125E+01  0.93400098747E+02  0.28828580653E+03  0.30307337266E+03  0.00000000000E+00 0.  1.
         21    1    1    2  506  503  0.76181986690E+02 -0.10250585313E+03 -0.24201834271E+03  0.27364945318E+03  0.00000000000E+00 0. -1.
<scales pt_clust_3="43.25553" pt_clust_4="83.42646" pt_clust_5="159.55723" pt_clust_6="43.25553"></scales>
<clustering>
<clus scale="   43.256">  3  6 -1 -1</clus>
<clus scale="   83.426">  1  4  2 -1</clus>
<clus scale="  159.557">  1  5  2 -1</clus>
<clus scale="   83.426">  1  3  2 -1</clus>
</clustering>
</event>
<event>
 6    0  0.6687079E+002  0.1740736E+03  0.7546771E-02  0.1173665E+00
         21   -1    0    0  505  501  0.00000000000E+00  0.00000000000E+00  0.17794675528E+03  0.17794675528E+03  0.00000000000E+00 0.  1.
         21   -1    0    0  504  502 -0.00000000000E+00 -0.00000000000E+00 -0.16031462519E+04  0.16031462519E+04  0.00000000000E+00 0. -1.
         21    1    1    2  503  501  0.49961967166E+02  0.16017066015E+02  0.12842639728E+03  0.13873025656E+03  0.00000000000E+00 0.  1.
         21    1    1    2  504  503 -0.27247842025E+02  0.18055640307E+02 -0.12727014485E+03  0.13140068802E+03  0.00000000000E+00 0.  1.
         21    1    1    2  505  506 -0.78233654088E+01 -0.18777689323E+03 -0.19820898942E+03  0.27314496181E+03  0.00000000000E+00 0. -1.
         21    1    1    2  506  502 -0.14890759732E+02  0.15370418690E+03 -0.12281467597E+04  0.12378171008E+04  0.00000000000E+00 0. -1.
<scales pt_clust_3="52.39525" pt_clust_4="32.68717" pt_clust_5="14000.00000" pt_clust_6="174.07357"></scales>
<clustering>
<clus scale="   32.687">  2  4  1 -1</clus>
<clus scale="   52.395">  1  3  2 -1</clus>
<clus scale="  174.074">  2  6  1 -1</clus>
<clus scale="   52.395">  1  3  2 -1</clus>
</clustering>
</event>
<event>
 6    0  0.6687079E+002  0.1965070E+03  0.7546771E-02  0.1152720E+00
         21   -1    0    0  502  501  0.00000000000E+00  0.00000000000E+00  0.41244414496E+03  0.41244414496E+03  0.00000000000E+00 0.  1.
         21   -1    0    0  504  502 -0.00000000000E+00 -0.00000000000E+00 -0.30345954477E+03  0.30345954477E+03  0.00000000000E+00 0.  1.
         21    1    1    2  503  506  0.44775150424E+02  0.74014191934E+01 -0.35781569343E+02  0.57792004692E+02  0.00000000000E+00 0.  1.
         21    1    1    2  504  503  0.63979285945E+02 -0.22901727265E+02 -0.12280052161E+03  0.14034887335E+03  0.00000000000E+00 0.  1.
         21    1    1    2  505  501 -0.18512087128E+03 -0.70449006446E+02  0.33153063608E+03  0.38619342583E+03  0.00000000000E+00 0.  1.
         21    1    1    2  506  505  0.76366434914E+02  0.85949314518E+02 -0.63963944925E+02  0.13156938587E+03  0.00000000000E+00 0.  1.
<scales pt_clust_3="31.53207" pt_clust_4="67.95468" pt_clust_5="189.98962" pt_clust_6="31.53207"></scales>
<clustering>
<clus scale="   31.532">  3  6 -1 -1</clus>
<clus scale="   67.955">  2  4  1 -1</clus>
<clus scale="  189.990">  1  5  2 -1</clus>
<clus scale="  189.990">  1  3  2 -1</clus>
</clustering>
</event>
<event>
 6    0  0.6687079E+002  0.1414911E+03  0.7546771E-02  0.1211337E+00
         21   -1    0    0  506  501  0.00000000000E+00  0.00000000000E+00  0.81988940932E+02  0.81988940932E+02  0.00000000000E+00 0. -1.
         21   -1    0    0  503  502 -0.00000000000E+00 -0.00000000000E+00 -0.33867208263E+04  0.33867208263E+04  0.00000000000E+00 0.  1.
         21    1    1    2  503  505 -0.54690032131E+02  0.47824230498E+02 -0.18204271549E+04  0.18218762809E+04  0.00000000000E+00 0.  1.
         21    1    1    2  504  501  0.49607150564E+02 -0.12748654913E+03  0.21143863178E+02  0.13842237010E+03  0.00000000000E+00 0. -1.
         21    1    1    2  505  504 -0.11640322676E+02  0.49896475728E+02 -0.11935894012E+04  0.11946885846E+04  0.00000000000E+00 0.  1.
         21    1    1    2  506  502  0.16723204244E+02  0.29765842900E+02 -0.31185919247E+03  0.31372253169E+03  0.00000000000E+00 0. -1.
<scales pt_clust_3="31.63143" pt_clust_4="136.38543" pt_clust_5="31.63143" pt_clust_6="34.14192"></scales>
<clustering>
<clus scale="   31.631">  3  5 -1 -1</clus>
<clus scale="   34.142">  2  6  1 -1</clus>
<clus scale="  136.385">  1  4  2 -1</clus>
<clus scale="  136.385">  1  3  2 -1</clus>
</clustering>
</event>
<event>
 6    0  0.6687079E+002  0.1013783E+03  0.7546771E-02  0.1277424E+00
         21   -1    0    0  505  501  0.00000000000E+00  0.00000000000E+00  0.40519615213E+03  0.40519615213E+03  0.00000000000E+00 0.  1.
         21   -1    0    0  506  502 -0.00000000000E+00 -0.00000000000E+00 -0.25747445451E+03  0.25747445451E+03  0.00000000000E+00 0.  1.
         21    1    1    2  503  504 -0.23999326198E+02  0.77848693787E+02 -0.18183110043E+02  0.83468630474E+02  0.00000000000E+00 0.  1.
         21    1    1    2  504  502  0.12268385258E+03  0.22533130519E+02 -0.61393546173E+01  0.12488699424E+03  0.00000000000E+00 0.  1.
         21    1    1    2  505  503 -0.13778189008E+02 -0.55566039181E+02  0.29376286499E+03  0.29928923143E+03  0.00000000000E+00 0.  1.
         21    1    1    2  506  501 -0.84906337378E+02 -0.44815785125E+02 -0.12171870271E+03  0.15502575049E+03  0.00000000000E+00 0.  1.
<scales pt_clust_3="67.32010" pt_clust_4="101.37830" pt_clust_5="57.24878" pt_clust_6="14000.00000"></scales>
<clustering>
<clus scale="   57.249">  1  5  2 -1</clus>
<clus scale="   67.320">  1  3  2 -1</clus>
<clus scale="  101.378">  1  4  2 -1</clus>
<clus scale="   57.249">  1  3  2 -1</clus>
</clustering>
</event>
<event>
 6    0  0.6687079E+002  0.1345931E+03  0.7546771E-02  0.1220795E+00
         21   -1    0    0  506  501  0.00000000000E+00  0.00000000000E+00  0.64457755159E+03  0.64457755159E+03  0.00000000000E+00 0.  1.
         21   -1    0    0  504  502 -0.00000000000E+00 -0.00000000000E+00 -0.99217149048E+02  0.99217149048E+02  0.00000000000E+00 0.  1.
         21    1    1    2  503  505  0.24588031091E+02 -0.12412957612E+03  0.16420673397E+03  0.20730792176E+03  0.00000000000E+00 0.  1.
         21    1    1    2  504  501 -0.10336933735E+02 -0.59783575154E+02  0.30044209862E+03  0.30650674166E+03  0.00000000000E+00 0.  1.
         21    1    1    2  505  502 -0.57304680463E+02  0.12709556013E+03  0.30306597030E+02  0.14267304452E+03  0.00000000000E+00 0.  1.
         21    1    1    2  506  503  0.43053583107E+02  0.56817591137E+02  0.50404972921E+02  0.87306992711E+02  0.00000000000E+00 0.  1.
<scales pt_clust_3="14000.00000" pt_clust_4="60.67065" pt_clust_5="134.59307" pt_clust_6="60.66968"></scales>
<clustering>
<clus scale="   60.671">  1  4  2 -1</clus>
<clus scale="   60.670">  1  6  2 -1</clus>
<clus scale="  134.593">  2  5  1 -1</clus>
<clus scale="   60.671">  1  3  2 -1</clus>
</clustering>
</event>
<event>
 6    0  0.6687079E+002  0.1103397E+03  0.7546771E-02  0.1259942E+00
         21   -1    0    0  505  501  0.00000000000E+00  0.00000000000E+00  0.43456392896E+03  0.43456392896E+03  0.00000000000E+00 0. -1.
         21   -1    0    0  503  502 -0.00000000000E+00 -0.00000000000E+00 -0.36480701844E+03  0.36480701844E+03  0.00000000000E+00 0.  1.
         21    1    1    2  503  501 -0.40977325068E+02  0.43088604328E+02  0.84013387567E+02  0.10292724753E+03  0.00000000000E+00 0. -1.
         21    1    1    2  504  506  0.93241404854E+02 -0.10352221546E+03  0.29912086805E+03  0.32997591181E+03  0.00000000000E+00 0. -1.
         21    1    1    2  505  504  0.10320457444E+02 -0.29446053868E+02  0.33093599087E+01  0.31377281483E+02  0.00000000000E+00 0.  1.
         21    1    1    2  506  502 -0.62584537230E+02  0.89879664996E+02 -0.31668670500E+03  0.33509050658E+03  0.00000000000E+00 0.  1.
<scales pt_clust_3="53.16624" pt_clust_4="110.33974" pt_clust_5="31.20227" pt_clust_6="14000.00000"></scales>
<clustering>
<clus scale="   31.202">  1  5  2 -1</clus>
<clus scale="   53.166">  1  3  2 -1</clus>
<clus scale="  110.340">  1  4  2 -1</clus>
<clus scale="   31.202">  1  3  2 -1</clus>
</clustering>
</event>
<event>
 6    0  0.7031338E+002  0.1653899E+03  0.7546771E-02  0.1182743E+00
         21   -1    0    0  503  501  0.00000000000E+00  0.00000000000E+00  0.47894528268E+03  0.47894528268E+03  0.00000000000E+00 0. -1.
         21   -1    0    0  504  502 -0.00000000000E+00 -0.00000000000E+00 -0.37266554034E+04  0.37266554034E+04  0.00000000000E+00 0. -1.
         21    1    1    2  503  502  0.17349056964E+02 -0.46905596781E+02 -0.26301877678E+01  0.50080362165E+02  0.00000000000E+00 0. -1.
         21    1    1    2  504  506  0.51090871654E+02  0.67366986075E+01 -0.34843343168E+04  0.34847153817E+04  0.00000000000E+00 0. -1.
         21    1    1    2  505  501 -0.14103210269E+03 -0.75027523114E+02  0.41720183562E+03  0.44673991859E+03  0.00000000000E+00 0. -1.
         21    1    1    2  506  505  0.72592174071E+02  0.11519642129E+03 -0.17794745177E+03  0.22406502361E+03  0.00000000000E+00 0. -1.
<scales pt_clust_3="50.01125" pt_clust_4="51.53774" pt_clust_5="165.38990" pt_clust_6="14000.00000"></scales>
<clustering>
<clus scale="   50.011">  1  3  2 -1</clus>
<clus scale="   51.538">  2  4  1 -1</clus>
<clus scale="  165.390">  1  5  2 -1</clus>
<clus scale="   50.011">  1  3  2 -1</clus>
</clustering>
</event>
<event>
 6    0  0.6687079E+002  0.2344767E+03  0.7546771E-02  0.1123528E+00
         21   -1    0    0  505  501  0.00000000000E+00  0.00000000000E+00  0.36772813201E+03  0.36772813201E+03  0.00000000000E+00 0.  1.
         21   -1    0    0  504  502 -0.00000000000E+00 -0.00000000000E+00 -0.13292143078E+04  0.13292143078E+04  0.00000000000E+00 0.  1.
         21    1    1    2  503  506 -0.12710979185E+03  0.23239873899E+03 -0.24853029465E+03  0.36322634875E+03  0.00000000000E+00 0.  1.
         21    1    1    2  504  503  0.58165863951E+02  0.34750058071E+00 -0.23344873755E+03  0.24058616243E+03  0.00000000000E+00 0. -1.
         21    1    1    2  505  502  0.55758628255E+02 -0.20440493810E+03 -0.77119598503E+03  0.79977099889E+03  0.00000000000E+00 0.  1.
         21    1    1    2  506  501  0.13185299643E+02 -0.28341301469E+02  0.29168884139E+03  0.29335892979E+03  0.00000000000E+00 0.  1.
<scales pt_clust_3="234.47667" pt_clust_4="58.80001" pt_clust_5="14000.00000" pt_clust_6="31.25830"></scales>
<clustering>
<clus scale="   31.258">  1  6  2 -1</clus>
<clus scale="   58.800">  2  4  1 -1</clus>
<clus scale="  234.477">  1  3  2 -1</clus>
<clus scale="   31.258">  1  3  2 -1</clus>
</clustering>
</event>
<event>
 6    0  0.6687079E+002  0.1100138E+03  0.7546771E-02  0.1260544E+00
         21   -1    0    0  504  501  0.00000000000E+00  0.00000000000E+00  0.43028676140E+02  0.43028676140E+02  0.00000000000E+00 0.  1.
         21   -1    0    0  505  502 -0.00000000000E+00 -0.00000000000E+00 -0.11240859299E+04  0.11240859299E+04  0.00000000000E+00 0.  1.
         21    1    1    2  503  502  0.36219503401E+02  0.87195102902E+02 -0.92470210843E+03  0.92950999334E+03  0.00000000000E+00 0.  1.
         21    1    1    2  504  503 -0.30269582736E+02  0.32192812879E+02 -0.61049257766E+02  0.75363364534E+02  0.00000000000E+00 0.  1.
         21    1    1    2  505  506  0.95411116218E+01 -0.47055249151E+02 -0.68311877664E+02  0.83496957511E+02  0.00000000000E+00 0.  1.
         21    1    1    2  506  501 -0.15491032288E+02 -0.72332666630E+02 -0.26994009938E+02  0.78744290686E+02  0.00000000000E+00 0.  1.
<scales pt_clust_3="95.67076" pt_clust_4="44.18851" pt_clust_5="43.75858" pt_clust_6="43.75858"></scales>
<clustering>
<clus scale="   43.759">  5  6 -1 -1</clus>
<clus scale="   44.189">  1  4  2 -1</clus>
<clus scale="   95.671">  2  3  1 -1</clus>
<clus scale="   44.189">  1  3  2 -1</clus>
</clustering>
</event>
<event>
 6    0  0.6687079E+002  0.7574792E+02  0.7546771E-02  0.1341570E+00
         21   -1    0    0  504  501  0.00000000000E+00  0.00000000000E+00  0.21947352095E+04  0.21947352095E+04  0.00000000000E+00 0.  1.
         21   -1    0    0  503  502 -0.00000000000E+00 -0.00000000000E+00 -0.48061931165E+02  0.48061931165E+02  0.00000000000E+00 0. -1.
         21    1    1    2  503  506  0.29853879259E+02  0.46886609447E+01 -0.88670739150E+01  0.31493850957E+02  0.00000000000E+00 0.  1.
         21    1    1    2  504  505  0.45999141392E+02 -0.57524502104E+02  0.18203550200E+04  0.18218445017E+04  0.00000000000E+00 0.  1.
         21    1    1    2  505  502 -0.19434337957E+02 -0.64827236360E+02  0.12167294997E+03  0.13922848423E+03  0.00000000000E+00 0.  1.
         21    1    1    2  506  501 -0.56418682694E+02  0.11766307752E+03  0.21351238227E+03  0.25023030382E+03  0.00000000000E+00 0. -1.
<scales pt_clust_3="30.21982" pt_clust_4="75.74792" pt_clust_5="64.14109" pt_clust_6="14000.00000"></scales>
<clustering>
<clus scale="   30.220">  2  3  1 -1</clus>
<clus scale="   64.141">  2  5  1 -1</clus>
<clus scale="   75.748">  1  4  2 -1</clus>
<clus scale="   75.748">  1  3  2 -1</clus>
</clustering>
</event>
<event>
 6    0  0.6687079E+002  0.1225438E+03  0.7546771E-02  0.1238959E+00
         21   -1    0    0  503  501  0.00000000000E+00  0.00000000000E+00  0.27054397448E+04  0.27054397448E+04  0.00000000000E+00 0. -1.
         21   -1    0    0  506  502 -0.00000000000E+00 -0.00000000000E+00 -0.15910006591E+03  0.15910006591E+03  0.00000000000E+00 0.  1.
         21    1    1    2  503  502  0.83159450633E+02  0.92180305228E+02 -0.75516698874E+02  0.14531164685E+03  0.00000000000E+00 0.  1.
         21    1    1    2  504  505 -0.13264946621E+03 -0.45216158315E+02  0.94048877687E+02  0.16877669641E+03  0.00000000000E+00 0.  1.
         21    1    1    2  505  501  0.35292545536E+02 -0.18264696931E+02  0.25160164918E+04  0.25163302943E+04  0.00000000000E+00 0. -1.
         21    1    1    2  506  504  0.14197470040E+02 -0.28699449982E+02  0.11791008345E+02  0.34121173230E+02  0.00000000000E+00 0.  1.
<scales pt_clust_3="14000.00000" pt_clust_4="122.54376" pt_clust_5="39.76605" pt_clust_6="32.01916"></scales>
<clustering>
<clus scale="   32.019">  2  6  1 -1</clus>
<clus scale="   39.766">  1  5  2 -1</clus>
<clus scale="  122.544">  1  4  2 -1</clus>
<clus scale="   39.766">  1  3  2 -1</clus>
</clustering>
</event>
<event>
 6    0  0.6687079E+002  0.1260299E+03  0.7546771E-02  0.1233468E+00
         21   -1    0    0  504  501  0.00000000000E+00  0.00000000000E+00  0.66755985393E+03  0.66755985393E+03  0.00000000000E+00 0. -1.
         21   -1    0    0  503  502 -0.00000000000E+00 -0.00000000000E+00 -0.49797369252E+02  0.49797369252E+02  0.00000000000E+00 0. -1.
         21    1    1    2  503  501  0.11363938654E+03 -0.22775619105E+02  0.15559928527E+03  0.19402004169E+03  0.00000000000E+00 0. -1.
         21    1    1    2  504  506 -0.28204883212E+02 -0.20372531415E+02  0.10469170804E+03  0.11032184374E+03  0.00000000000E+00 0. -1.
         21    1    1    2  505  502  0.21144289178E+02 -0.41098773164E+02  0.22219067293E+02  0.51282327090E+02  0.00000000000E+00 0. -1.
         21    1    1    2  506  505 -0.10657879250E+03  0.84246923684E+02  0.33525242407E+03  0.36173301067E+03  0.00000000000E+00 0. -1.
<scales pt_clust_3="14000.00000" pt_clust_4="34.79304" pt_clust_5="46.61567" pt_clust_6="126.02990"></scales>
<clustering>
<clus scale="   34.793">  1  4  2 -1</clus>
<clus scale="   46.616">  2  5  1 -1</clus>
<clus scale="  126.030">  1  6  2 -1</clus>
<clus scale="   34.793">  1  3  2 -1</clus>
</clustering>
</event>
<event>
 6    0  0.6687079E+002  0.1287863E+03  0.7546771E-02  0.1229268E+00
         21   -1    0    0  505  501  0.00000000000E+00  0.00000000000E+00  0.86275365783E+03  0.86275365783E+03  0.00000000000E+00 0. -1.
         21   -1    0    0  506  502 -0.00000000000E+00 -0.00000000000E+00 -0.69361673906E+03  0.69361673906E+03  0.00000000000E+00 0.  1.
         21    1    1    2  503  502 -0.32183349144E+02 -0.13440691689E+02 -0.89989484132E+01  0.36019456239E+02  0.00000000000E+00 0.  1.
         21    1    1    2  504  503  0.70301185986E+01 -0.82519548153E+02 -0.13639357732E+02  0.83934084103E+02  0.00000000000E+00 0.  1.
         21    1    1    2  505  504 -0.23502902482E+02 -0.69103975901E+02  0.80050735120E+03  0.80382819385E+03  0.00000000000E+00 0. -1.
         21    1    1    2  506  501  0.48656133027E+02  0.16506421574E+03 -0.60873212628E+03  0.63258866269E+03  0.00000000000E+00 0.  1.
<scales pt_clust_3="34.87722" pt_clust_4="14000.00000" pt_clust_5="73.04856" pt_clust_6="128.78631"></scales>
<clustering>
<clus scale="   34.877">  2  3  1 -1</clus>
<clus scale="   73.049">  1  5  2 -1</clus>
<clus scale="  128.786">  2  6  1 -1</clus>
<clus scale="   73.049">  1  3  2 -1</clus>
</clustering>
</event>
<event>
 6    0  0.6687079E+002  0.2414295E+03  0.7546771E-02  0.1118844E+00
         21   -1    0    0  504  501  0.00000000000E+00  0.00000000000E+00  0.11818591378E+04  0.11818591378E+04  0.00000000000E+00 0. -1.
         21   -1    0    0  505  502 -0.00000000000E+00 -0.00000000000E+00 -0.25424609168E+03  0.25424609168E+03  0.00000000000E+00 0.  1.
         21    1    1    2  503  502 -0.42320845065E+02  0.12772066255E+02 -0.23275689217E+02  0.49959356601E+02  0.00000000000E+00 0. -1.
         21    1    1    2  504  506 -0.44945306720E+02  0.19248639367E+03  0.78978629079E+03  0.81414585761E+03  0.00000000000E+00 0. -1.
         21    1    1    2  505  501  0.24073942018E+03  0.52601432607E+02  0.46405073249E+02  0.25075049344E+03  0.00000000000E+00 0.  1.
         21    1    1    2  506  503 -0.15347326839E+03 -0.25785989253E+03  0.11469737128E+03  0.32124952181E+03  0.00000000000E+00 0.  1.
<scales pt_clust_3="44.20610" pt_clust_4="198.91028" pt_clust_5="14000.00000" pt_clust_6="241.42948"></scales>
<clustering>
<clus scale="   44.206">  2  3  1 -1</clus>
<clus scale="  198.910">  1  4  2 -1</clus>
<clus scale="  241.429">  1  6  2 -1</clus>
<clus scale="  198.910">  1  3  2 -1</clus>
</clustering>
</event>
<event>
 6    0  0.6687079E+002  0.1556342E+03  0.7546771E-02  0.1193716E+00
         21   -1    0    0  505  501  0.00000000000E+00  0.00000000000E+00  0.32292669439E+03  0.32292669439E+03  0.00000000000E+00 0.  1.
         21   -1    0    0  506  502 -0.00000000000E+00 -0.00000000000E+00 -0.24987960026E+04  0.24987960026E+04  0.00000000000E+00 0.  1.
         21    1    1    2  503  501  0.23951166738E+03  0.10585629179E+03 -0.23566759221E+03  0.35229335410E+03  0.00000000000E+00 0.  1.
         21    1    1    2  504  503 -0.93074964155E+02 -0.40756399444E+02 -0.78977004502E+03  0.79627932100E+03  0.00000000000E+00 0.  1.
         21    1    1    2  505  502 -0.14547158337E+03 -0.29367671068E+02  0.24004373809E+03  0.28221523323E+03  0.00000000000E+00 0.  1.
         21    1    1    2  506  504 -0.96511985440E+00 -0.35732221278E+02 -0.13904754091E+04  0.13909347887E+04  0.00000000000E+00 0.  1.
<scales pt_clust_3="155.63420" pt_clust_4="114.85430" pt_clust_5="14000.00000" pt_clust_6="35.74525"></scales>
<clustering>
<clus scale="   35.745">  2  6  1 -1</clus>
<clus scale="  114.854">  2  4  1 -1</clus>
<clus scale="  155.634">  2  3  1 -1</clus>
<clus scale="  155.634">  1  3  2 -1</clus>
</clustering>
</event>
<event>
 6    0  0.6687079E+002  0.1535104E+03  0.7546771E-02  0.1196225E+00
         21   -1    0    0  503  501  0.00000000000E+00  0.00000000000E+00  0.15891397007E+03  0.15891397007E+03  0.00000000000E+00 0.  1.
         21   -1    0    0  504  502 -0.00000000000E+00 -0.00000000000E+00 -0.27271340990E+03  0.27271340990E+03  0.00000000000E+00 0.  1.
         21    1    1    2  503  502 -0.34414863516E+02  0.13033464722E+03 -0.63114320867E+02  0.14884529081E+03  0.00000000000E+00 0.  1.
         21    1    1    2  504  506  0.18505532910E+02 -0.58070365372E+02 -0.37069926416E+02  0.71335836206E+02  0.00000000000E+00 0.  1.
         21    1    1    2  505  501  0.38634790362E+02  0.34006882840E+02  0.60856913452E+02  0.79703695157E+02  0.00000000000E+00 0.  1.
         21    1    1    2  506  505 -0.22725459756E+02 -0.10627116469E+03 -0.74472106000E+02  0.13174255781E+03  0.00000000000E+00 0.  1.
<scales pt_clust_3="147.62170" pt_clust_4="31.53571" pt_clust_5="51.46956" pt_clust_6="31.53571"></scales>
<clustering>
<clus scale="   31.536">  4  6 -1 -1</clus>
<clus scale="   51.470">  1  5  2 -1</clus>
<clus scale="  147.622">  2  3  1 -1</clus>
<clus scale="   51.470">  1  3  2 -1</clus>
</clustering>
</event>
<event>
 6    0  0.6687079E+002  0.1330646E+03  0.7546771E-02  0.1222978E+00
         21   -1    0    0  506  501  0.00000000000E+00  0.00000000000E+00  0.18427460855E+04  0.18427460855E+04  0.00000000000E+00 0. -1.
         21   -1    0    0  505  502 -0.00000000000E+00 -0.00000000000E+00 -0.15180817261E+02  0.15180817261E+02  0.00000000000E+00 0. -1.
         21    1    1    2  503  502 -0.19247164070E+02 -0.28270353642E+02  0.68594813226E+02  0.76647991632E+02  0.00000000000E+00 0. -1.
         21    1    1    2  504  501 -0.54483626666E+02 -0.16333007579E+02  0.59600554666E+03  0.59871349104E+03  0.00000000000E+00 0.  1.
         21    1    1    2  505  504 -0.44264140962E+02 -0.45612423450E+02  0.43323751514E+03  0.43787504139E+03  0.00000000000E+00 0. -1.
         21    1    1    2  506  503  0.11799493170E+03  0.90215784671E+02  0.72972739321E+03  0.74469037868E+03  0.00000000000E+00 0. -1.
<scales pt_clust_3="34.20038" pt_clust_4="36.77063" pt_clust_5="36.77063" pt_clust_6="126.96471"></scales>
<clustering>
<clus scale="   34.200">  2  3  1 -1</clus>
<clus scale="   36.771">  4  5 -1 -1</clus>
<clus scale="  126.965">  2  6  1 -1</clus>
<clus scale="  133.065">  1  3  2 -1</clus>
</clustering>
</event>
<event>
 6    0  0.6687079E+002  0.1667961E+03  0.7546771E-02  0.1181231E+00
         21   -1    0    0  504  501  0.00000000000E+00  0.00000000000E+00  0.16990293588E+04  0.16990293588E+04  0.00000000000E+00 0.  1.
         21   -1    0    0  503  502 -0.00000000000E+00 -0.00000000000E+00 -0.79278708403E+02  0.79278708403E+02  0.00000000000E+00 0.  1.
         21    1    1    2  503  506 -0.27933799574E+02 -0.43783620946E+02 -0.22220740366E+02  0.56489502779E+02  0.00000000000E+00 0.  1.
         21    1    1    2  504  502 -0.31050366404E+02  0.11981916894E+03  0.11728054332E+03  0.17051534929E+03  0.00000000000E+00 0.  1.
         21    1    1    2  505  501  0.11787688828E+03 -0.13541626641E+03  0.12841214677E+04  0.12966111482E+04  0.00000000000E+00 0.  1.
         21    1    1    2  506  505 -0.58892722304E+02  0.59380718409E+02  0.24056937978E+03  0.25469206691E+03  0.00000000000E+00 0.  1.
<scales pt_clust_3="51.93556" pt_clust_4="14000.00000" pt_clust_5="166.79614" pt_clust_6="82.10388"></scales>
<clustering>
<clus scale="   51.936">  2  3  1 -1</clus>
<clus scale="   82.104">  2  6  1 -1</clus>
<clus scale="  166.796">  1  5  2 -1</clus>
<clus scale="  166.796">  1  3  2 -1</clus>
</clustering>
</event>
<event>
 6    0  0.6687079E+002  0.1046636E+03  0.7546771E-02  0.1270784E+00
         21   -1    0    0  503  501  0.00000000000E+00  0.00000000000E+00  0.47374081524E+03  0.47374081524E+03  0.00000000000E+00 0. -1.
         21   -1    0    0  505  502 -0.00000000000E+00 -0.00000000000E+00 -0.12721607356E+03  0.12721607356E+03  0.00000000000E+00 0.  1.
         21    1    1    2  503  502 -0.13590027704E+03  0.52063806526E+02  0.74521686651E+02  0.16350231506E+03  0.00000000000E+00 0.  1.
         21    1    1    2  504  506  0.78475843606E+02  0.14475176245E+02  0.20322382206E+03  0.21832982070E+03  0.00000000000E+00 0. -1.
         21    1    1    2  505  504  0.31044998386E+02 -0.33326656909E+02 -0.64669100249E+02  0.79098359734E+02  0.00000000000E+00 0.  1.
         21    1    1    2  506  501  0.26379435044E+02 -0.33212325862E+02  0.13344833322E+03  0.14002639331E+03  0.00000000000E+00 0. -1.
<scales pt_clust_3="104.66359" pt_clust_4="14000.00000" pt_clust_5="46.45146" pt_clust_6="42.41383"></scales>
<clustering>
<clus scale="   42.414">  1  6  2 -1</clus>
<clus scale="   46.451">  2  5  1 -1</clus>
<clus scale="  104.664">  2  3  1 -1</clus>
<clus scale="   42.414">  1  3  2 -1</clus>
</clustering>
</event>
<event>
 6    0  0.6687079E+002  0.1314063E+03  0.7546771E-02  0.1225384E+00
         21   -1    0    0  503  501  0.00000000000E+00  0.00000000000E+00  0.96174602714E+02  0.96174602714E+02  0.00000000000E+00 0.  1.
         21   -1    0    0  506  502 -0.00000000000E+00 -0.00000000000E+00 -0.89548526899E+03  0.89548526899E+03  0.00000000000E+00 0.  1.
         21    1    1    2  503  504  0.33922620228E+02  0.21874524836E+02 -0.41648568748E+02  0.57998640317E+02  0.00000000000E+00 0. -1.
         21    1    1    2  504  502  0.46774589076E+02  0.30515429448E+02 -0.16248521082E+03  0.17181530011E+03  0.00000000000E+00 0. -1.
         21    1    1    2  505  501  0.45080131890E+02  0.93850925308E+01  0.69051986368E+02  0.82996837737E+02  0.00000000000E+00 0.  1.
         21    1    1    2  506  505 -0.12577734119E+03 -0.61775046815E+02 -0.66422887308E+03  0.67884909354E+03  0.00000000000E+00 0.  1.
<scales pt_clust_3="36.93074" pt_clust_4="36.93074" pt_clust_5="46.04670" pt_clust_6="124.01819"></scales>
<clustering>
<clus scale="   36.931">  3  4 -1 -1</clus>
<clus scale="   46.047">  1  5  2 -1</clus>
<clus scale="  124.018">  2  6  1 -1</clus>
<clus scale="   46.047">  1  3  2 -1</clus>
</clustering>
</event>
<event>
 6    0  0.6687079E+002  0.1275653E+03  0.7546771E-02  0.1231114E+00
         21   -1    0    0  503  501  0.00000000000E+00  0.00000000000E+00  0.31630419107E+03  0.31630419107E+03  0.00000000000E+00 0.  1.
         21   -1    0    0  504  502 -0.00000000000E+00 -0.00000000000E+00 -0.26532425203E+03  0.26532425203E+03  0.00000000000E+00 0. -1.
         21    1    1    2  503  502 -0.11877090735E+03  0.20009799391E+02 -0.22090748702E+03  0.25160889953E+03  0.00000000000E+00 0. -1.
         21    1    1    2  504  505  0.59832363099E+02 -0.49419154434E+02  0.57159948498E+02  0.96381659102E+02  0.00000000000E+00 0.  1.
         21    1    1    2  505  506  0.43355445927E+02 -0.10757754072E+02  0.73745589679E+02  0.86219695901E+02  0.00000000000E+00 0.  1.
         21    1    1    2  506  501  0.15583098324E+02  0.40167109115E+02  0.14098188788E+03  0.14741818856E+03  0.00000000000E+00 0.  1.
<scales pt_clust_3="119.72844" pt_clust_4="33.40017" pt_clust_5="33.40017" pt_clust_6="43.08398"></scales>
<clustering>
<clus scale="   33.400">  4  5 -1 -1</clus>
<clus scale="   43.084">  1  6  2 -1</clus>
<clus scale="  119.728">  2  3  1 -1</clus>
<clus scale="   43.084">  1  3  2 -1</clus>
</clustering>
</event>
<event>
 6    0  0.6687079E+002  0.1330426E+03  0.7546771E-02  0.1223010E+00
         21   -1    0    0  506  501  0.00000000000E+00  0.00000000000E+00  0.19953318279E+04  0.19953318279E+04  0.00000000000E+00 0.  1.
         21   -1    0    0  504  502 -0.00000000000E+00 -0.00000000000E+00 -0.31423146528E+02  0.31423146528E+02  0.00000000000E+00 0.  1.
         21    1    1    2  503  502  0.85871639439E+02 -0.43582560190E+02  0.18632202475E+03  0.20973620317E+03  0.00000000000E+00 0.  1.
         21    1    1    2  504  505 -0.24310357287E+02 -0.12147429224E+03  0.43920413465E+03  0.45634117614E+03  0.00000000000E+00 0.  1.
         21    1    1    2  505  501 -0.61950177791E+02  0.18644560183E+02  0.80405707214E+03  0.80665557670E+03  0.00000000000E+00 0.  1.
         21    1    1    2  506  503  0.38889563920E+00  0.14641229225E+03  0.53432544979E+03  0.55402201838E+03  0.00000000000E+00 0.  1.
<scales pt_clust_3="85.72204" pt_clust_4="14000.00000" pt_clust_5="64.69501" pt_clust_6="133.04259"></scales>
<clustering>
<clus scale="   64.695">  1  5  2 -1</clus>
<clus scale="   85.722">  2  3  1 -1</clus>
<clus scale="  133.043">  2  6  1 -1</clus>
<clus scale="   64.695">  1  3  2 -1</clus>
</clustering>
</event>
<event>
 6    0  0.6687079E+002  0.9716514E+02  0.7546771E-02  0.1286373E+00
         21   -1    0    0  504  501  0.00000000000E+00  0.00000000000E+00  0.97484571257E+02  0.97484571257E+02  0.00000000000E+00 0. -1.
         21   -1    0    0  503  502 -0.00000000000E+00 -0.00000000000E+00 -0.70171471800E+03  0.70171471800E+03  0.00000000000E+00 0. -1.
         21    1    1    2  503  501  0.88789255810E+02 -0.19481125339E+01 -0.24661449460E+03  0.26211836264E+03  0.00000000000E+00 0. -1.
         21    1    1    2  504  506  0.13882238755E+02  0.49515820408E+02  0.69528420314E+02  0.86479675386E+02  0.00000000000E+00 0. -1.
         21    1    1    2  505  502  0.29411414339E+01 -0.35730808868E+02 -0.82743522402E+02  0.90176668350E+02  0.00000000000E+00 0. -1.
         21    1    1    2  506  505 -0.10561263600E+03 -0.11836899007E+02 -0.34440055006E+03  0.36042458287E+03  0.00000000000E+00 0. -1.
<scales pt_clust_3="97.16514" pt_clust_4="50.96230" pt_clust_5="35.85165" pt_clust_6="14000.00000"></scales>
<clustering>
<clus scale="   35.852">  2  5  1 -1</clus>
<clus scale="   50.962">  1  4  2 -1</clus>
<clus scale="   97.165">  1  3  2 -1</clus>
<clus scale="   50.962">  1  3  2 -1</clus>
</clustering>
</event>
<event>
 6    0  0.6687079E+002  0.8403039E+02  0.7546771E-02  0.1317988E+00
         21   -1    0    0  505  501  0.00000000000E+00  0.00000000000E+00  0.11826827742E+03  0.11826827742E+03  0.00000000000E+00 0.  1.
         21   -1    0    0  506  502 -0.00000000000E+00 -0.00000000000E+00 -0.45139223660E+03  0.45139223660E+03  0.00000000000E+00 0. -1.
         21    1    1    2  503  502  0.28314046133E+02 -0.29372231554E+02 -0.31248518864E+03  0.31513712304E+03  0.00000000000E+00 0. -1.
         21    1    1    2  504  503 -0.86400039121E+02  0.46604176514E+02  0.15088050225E+02  0.99320517962E+02  0.00000000000E+00 0.  1.
         21    1    1    2  505  504 -0.16882983365E+02 -0.58487627237E+02  0.36955963497E+01  0.60987663502E+02  0.00000000000E+00 0.  1.
         21    1    1    2  506  501  0.74968976353E+02  0.41255682276E+02 -0.39422417112E+02  0.94215209528E+02  0.00000000000E+00 0. -1.
<scales pt_clust_3="40.79722" pt_clust_4="84.03039" pt_clust_5="65.53100" pt_clust_6="14000.00000"></scales>
<clustering>
<clus scale="   40.797">  2  3  1 -1</clus>
<clus scale="   65.531">  1  5  2 -1</clus>
<clus scale="   84.030">  1  4  2 -1</clus>
<clus scale="   65.531">  1  3  2 -1</clus>
</clustering>
</event>
<event>
 6    0  0.6687079E+002  0.1699974E+03  0.7546771E-02  0.1177851E+00
         21   -1    0    0  504  501  0.00000000000E+00  0.00000000000E+00  0.11290180154E+04  0.11290180154E+04  0.00000000000E+00 0. -1.
         21   -1    0    0  506  502 -0.00000000000E+00 -0.00000000000E+00 -0.68206365604E+02  0.68206365604E+02  0.00000000000E+00 0. -1.
         21    1    1    2  503  502 -0.11140100687E+03  0.92105594530E+02  0.65380290400E+02  0.15864490931E+03  0.00000000000E+00 0. -1.
         21    1    1    2  504  503 -0.51387409440E+02  0.10495836163E+02  0.48742969482E+03  0.49024334347E+03  0.00000000000E+00 0. -1.
         21    1    1    2  505  501  0.55558761743E+02 -0.44292686374E+01  0.20210576966E+03  0.20965003352E+03  0.00000000000E+00 0. -1.
         21    1    1    2  506  505  0.10722965457E+03 -0.98172162056E+02  0.30589589497E+03  0.33868609476E+03  0.00000000000E+00 0. -1.
<scales pt_clust_3="152.70693" pt_clust_4="52.44834" pt_clust_5="46.25023" pt_clust_6="46.25023"></scales>
<clustering>
<clus scale="   46.250">  5  6 -1 -1</clus>
<clus scale="   52.448">  1  4  2 -1</clus>
<clus scale="  152.707">  2  3  1 -1</clus>
<clus scale="   52.448">  1  3  2 -1</clus>
</clustering>
</event>
<event>
 6    0  0.6687079E+002  0.7216579E+02  0.7546771E-02  0.1352879E+00
         21   -1    0    0  503  501  0.00000000000E+00  0.00000000000E+00  0.52181906739E+03  0.52181906739E+03  0.00000000000E+00 0. -1.
         21   -1    0    0  506  502 -0.00000000000E+00 -0.00000000000E+00 -0.32104167019E+03  0.32104167019E+03  0.00000000000E+00 0.  1.
         21    1    1    2  503  505 -0.19743153203E+02  0.28451088521E+02  0.45890841494E+03  0.46021320042E+03  0.00000000000E+00 0. -1.
         21    1    1    2  504  502  0.63235722906E+02  0.80779036642E+02 -0.13685390508E+03  0.17103508631E+03  0.00000000000E+00 0.  1.
         21    1    1    2  505  504  0.75029909460E+01 -0.84845624335E+02 -0.86731029067E+01  0.85617156902E+02  0.00000000000E+00 0.  1.
         21    1    1    2  506  501 -0.50995560649E+02 -0.24384500828E+02 -0.11260400975E+03  0.12599529395E+03  0.00000000000E+00 0.  1.
<scales pt_clust_3="34.63028" pt_clust_4="14000.00000" pt_clust_5="72.16579" pt_clust_6="57.23946"></scales>
<clustering>
<clus scale="   34.630">  1  3  2 -1</clus>
<clus scale="   57.239">  2  6  1 -1</clus>
<clus scale="   72.166">  1  5  2 -1</clus>
<clus scale="   34.630">  1  3  2 -1</clus>
</clustering>
</event>
<event>
 6    0  0.6687079E+002  0.8289472E+02  0.7546771E-02  0.1321032E+00
         21   -1    0    0  503  501  0.00000000000E+00  0.00000000000E+00  0.68980854993E+02  0.68980854993E+02  0.00000000000E+00 0.  1.
         21   -1    0    0  501  502 -0.00000000000E+00 -0.00000000000E+00 -0.71032457637E+03  0.71032457637E+03  0.00000000000E+00 0.  1.
         21    1    1    2  503  505  0.97282192751E+01 -0.78692930426E+02  0.22247015475E+02  0.82353781011E+02  0.00000000000E+00 0.  1.
         21    1    1    2  504  502  0.10082837448E+02 -0.34198312634E+02 -0.11321398697E+03  0.11869538763E+03  0.00000000000E+00 0.  1.
         21    1    1    2  505  506  0.18467153902E+02  0.13054991461E+03 -0.36321321192E+03  0.38640413208E+03  0.00000000000E+00 0.  1.
         21    1    1    2  506  504 -0.38278210626E+02 -0.17658671551E+02 -0.18716353796E+03  0.19185213064E+03  0.00000000000E+00 0.  1.
<scales pt_clust_3="82.89472" pt_clust_4="35.65373" pt_clust_5="14000.00000" pt_clust_6="45.22448"></scales>
<clustering>
<clus scale="   35.654">  2  4  1 -1</clus>
<clus scale="   45.224">  2  6  1 -1</clus>
<clus scale="   82.895">  1  3  2 -1</clus>
<clus scale="   82.895">  1  3  2 -1</clus>
</clustering>
</event>
<event>
 6    0  0.6687079E+002  0.1373448E+03  0.7546771E-02  0.1216947E+00
         21   -1    0    0  506  501  0.00000000000E+00  0.00000000000E+00  0.53651569617E+02  0.53651569617E+02  0.00000000000E+00 0. -1.
         21   -1    0    0  503  502 -0.00000000000E+00 -0.00000000000E+00 -0.12069073913E+04  0.12069073913E+04  0.00000000000E+00 0. -1.
         21    1    1    2  503  504  0.19653621917E+02  0.24295616020E+02 -0.52461328483E+02  0.61063350698E+02  0.00000000000E+00 0.  1.
         21    1    1    2  504  505 -0.75654456205E+01  0.13337930193E+03 -0.93437586609E+02  0.16302716566E+03  0.00000000000E+00 0. -1.
         21    1    1    2  505  501  0.97677855032E+01 -0.40700796484E+02 -0.29047286085E+02  0.50948103959E+02  0.00000000000E+00 0.  1.
         21    1    1    2  506  502 -0.21855961800E+02 -0.11697412147E+03 -0.97830962046E+03  0.98552034055E+03  0.00000000000E+00 0. -1.
<scales pt_clust_3="30.29107" pt_clust_4="30.29107" pt_clust_5="41.85647" pt_clust_6="122.23348"></scales>
<clustering>
<clus scale="   30.291">  3  4 -1 -1</clus>
<clus scale="   41.856">  1  5  2 -1</clus>
<clus scale="  122.233">  2  6  1 -1</clus>
<clus scale="   41.856">  1  3  2 -1</clus>
</clustering>
</event>
<event>
 6    0  0.6687079E+002  0.8295056E+02  0.7546771E-02  0.1320881E+00
         21   -1    0    0  506  501  0.00000000000E+00  0.00000000000E+00  0.74426976790E+03  0.74426976790E+03  0.00000000000E+00 0. -1.
         21   -1    0    0  503  502 -0.00000000000E+00 -0.00000000000E+00 -0.32786458116E+02  0.32786458116E+02  0.00000000000E+00 0. -1.
         21    1    1    2  503  504  0.33901093989E+02  0.83725521249E+01  0.48975007498E+02  0.60149273995E+02  0.00000000000E+00 0.  1.
         21    1    1    2  504  505  0.32431228137E+02  0.68364959656E+02  0.22978608574E+03  0.24192394976E+03  0.00000000000E+00 0. -1.
         21    1    1    2  505  501 -0.66574590423E+02  0.18679736043E+02  0.31959225686E+03  0.32698672645E+03  0.00000000000E+00 0. -1.
         21    1    1    2  506  502  0.24226829695E+00 -0.95417247824E+02  0.11312995969E+03  0.14799627581E+03  0.00000000000E+00 0. -1.
<scales pt_clust_3="34.91968" pt_clust_4="82.95056" pt_clust_5="65.05827" pt_clust_6="14000.00000"></scales>
<clustering>
<clus scale="   34.920">  2  3  1 -1</clus>
<clus scale="   65.058">  1  5  2 -1</clus>
<clus scale="   82.951">  1  4  2 -1</clus>
<clus scale="   65.058">  1  3  2 -1</clus>
</clustering>
</event>
<event>
 6    0  0.6687079E+002  0.1891101E+03  0.7546771E-02  0.1159266E+00
         21   -1    0    0  505  501  0.00000000000E+00  0.00000000000E+00  0.22293077819E+03  0.22293077819E+03  0.00000000000E+00 0.  1.
         21   -1    0    0  503  502 -0.00000000000E+00 -0.00000000000E+00 -0.86068872632E+03  0.86068872632E+03  0.00000000000E+00 0.  1.
         21    1    1    2  503  501  0.33558573276E+02  0.75438848836E+00  0.17821083970E+03  0.18134456244E+03  0.00000000000E+00 0.  1.
         21    1    1    2  504  506  0.92077416819E+00  0.46030025405E+02 -0.85898041118E+02  0.97458116808E+02  0.00000000000E+00 0.  1.
         21    1    1    2  505  504  0.10213021536E+03  0.73010520375E+02 -0.14308508260E+03  0.19035350756E+03  0.00000000000E+00 0.  1.
         21    1    1    2  506  502 -0.13660956281E+03 -0.11979493427E+03 -0.58698566411E+03  0.61446331770E+03  0.00000000000E+00 0.  1.
<scales pt_clust_3="33.56705" pt_clust_4="42.97918" pt_clust_5="42.97918" pt_clust_6="173.63911"></scales>
<clustering>
<clus scale="   33.567">  1  3  2 -1</clus>
<clus scale="   42.979">  4  5 -1 -1</clus>
<clus scale="  173.639">  2  6  1 -1</clus>
<clus scale="   33.567">  1  3  2 -1</clus>
</clustering>
</event>
<event>
 6    0  0.6687079E+002  0.9357458E+02  0.7546771E-02  0.1294419E+00
         21   -1    0    0  504  501  0.00000000000E+00  0.00000000000E+00  0.84340934636E+03  0.84340934636E+03  0.00000000000E+00 0.  1.
         21   -1    0    0  506  502 -0.00000000000E+00 -0.00000000000E+00 -0.29720513859E+02  0.29720513859E+02  0.00000000000E+00 0.  1.
         21    1    1    2  503  502 -0.58549103220E+02  0.16875875030E+02  0.10797010329E+03  0.12397715859E+03  0.00000000000E+00 0.  1.
         21    1    1    2  504  505  0.58538754282E+02 -0.59735105933E+02  0.15909732843E+03  0.17974156043E+03  0.00000000000E+00 0.  1.
         21    1    1    2  505  503 -0.43503900658E+02 -0.11067287598E+02  0.46945612318E+02  0.64953558356E+02  0.00000000000E+00 0.  1.
         21    1    1    2  506  501  0.43514249597E+02  0.53926518501E+02  0.49967578846E+03  0.50445758285E+03  0.00000000000E+00 0.  1.
<scales pt_clust_3="30.31428" pt_clust_4="86.65345" pt_clust_5="30.31428" pt_clust_6="69.29328"></scales>
<clustering>
<clus scale="   30.314">  3  5 -1 -1</clus>
<clus scale="   69.293">  1  6  2 -1</clus>
<clus scale="   86.653">  1  4  2 -1</clus>
<clus scale="   69.293">  1  3  2 -1</clus>
</clustering>
</event>
<event>
 6    0  0.6687079E+002  0.2332627E+03  0.7546771E-02  0.1124364E+00
         21   -1    0    0  504  501  0.00000000000E+00  0.00000000000E+00  0.17858586267E+03  0.17858586267E+03  0.00000000000E+00 0.  1.
         21   -1    0    0  503  502 -0.00000000000E+00 -0.00000000000E+00 -0.56603345010E+03  0.56603345010E+03  0.00000000000E+00 0.  1.
         21    1    1    2  503  505  0.10957463528E+03  0.12887691958E+03 -0.47035725034E+02  0.17557967003E+03  0.00000000000E+00 0.  1.
         21    1    1    2  504  506 -0.62744617809E+02 -0.15456718660E+02  0.45322165062E+02  0.78929689354E+02  0.00000000000E+00 0.  1.
         21    1    1    2  505  501  0.87066770152E+02  0.37944835811E+02 -0.83064149318E+02  0.12617482289E+03  0.00000000000E+00 0.  1.
         21    1    1    2  506  502 -0.13389678763E+03 -0.15136503673E+03 -0.30266987814E+03  0.36393513050E+03  0.00000000000E+00 0.  1.
<scales pt_clust_3="66.93020" pt_clust_4="64.62041" pt_clust_5="66.93020" pt_clust_6="216.28459"></scales>
<clustering>
<clus scale="   64.620">  1  4  2 -1</clus>
<clus scale="   66.930">  3  5 -1 -1</clus>
<clus scale="  216.285">  2  6  1 -1</clus>
<clus scale="   64.620">  1  3  2 -1</clus>
</clustering>
</event>
<event>
 6    0  0.6687079E+002  0.1259941E+03  0.7546771E-02  0.1233524E+00
         21   -1    0    0  505  501  0.00000000000E+00  0.00000000000E+00  0.52997506123E+03  0.52997506123E+03  0.00000000000E+00 0. -1.
         21   -1    0    0  506  502 -0.00000000000E+00 -0.00000000000E+00 -0.57121987517E+03  0.57121987517E+03  0.00000000000E+00 0. -1.
         21    1    1    2  503  501  0.95093772912E+01  0.68391464985E+02 -0.30240500948E+02  0.75381089384E+02  0.00000000000E+00 0. -1.
         21    1    1    2  504  502 -0.98639141879E+02 -0.68204002779E+02 -0.46697751963E+03  0.48213013818E+03  0.00000000000E+00 0. -1.
         21    1    1    2  505  504  0.12625443759E+03  0.61553365317E+01  0.48174176219E+03  0.49804939174E+03  0.00000000000E+00 0. -1.
         21    1    1    2  506  503 -0.37124673004E+02 -0.63427987375E+01 -0.25768555544E+02  0.45634317090E+02  0.00000000000E+00 0. -1.
<scales pt_clust_3="68.01785" pt_clust_4="125.99405" pt_clust_5="14000.00000" pt_clust_6="37.66261"></scales>
<clustering>
<clus scale="   37.663">  2  6  1 -1</clus>
<clus scale="   68.018">  2  3  1 -1</clus>
<clus scale="  125.994">  2  4  1 -1</clus>
<clus scale="  125.994">  1  3  2 -1</clus>
</clustering>
</event>
<event>
 6    0  0.6687079E+002  0.8446840E+02  0.7546771E-02  0.1316829E+00
         21   -1    0    0  506  501  0.00000000000E+00  0.00000000000E+00  0.99545516031E+02  0.99545516031E+02  0.00000000000E+00 0.  1.
         21   -1    0    0  505  502 -0.00000000000E+00 -0.00000000000E+00 -0.95961367574E+03  0.95961367574E+03  0.00000000000E+00 0. -1.
         21    1    1    2  503  502 -0.66962406638E+02  0.51212831886E+02 -0.79451164913E+03  0.79897151304E+03  0.00000000000E+00 0. -1.
         21    1    1    2  504  501 -0.24259163015E+01  0.39867447218E+02 -0.54068081532E+02  0.67220948061E+02  0.00000000000E+00 0. -1.
         21    1    1    2  505  504  0.13741428418E+02 -0.12590970107E+03 -0.22953166063E+01  0.12667812817E+03  0.00000000000E+00 0.  1.
         21    1    1    2  506  503  0.55646894522E+02  0.34829421970E+02 -0.91931124450E+01  0.66288602497E+02  0.00000000000E+00 0.  1.
<scales pt_clust_3="14000.00000" pt_clust_4="39.94119" pt_clust_5="84.46840" pt_clust_6="72.31835"></scales>
<clustering>
<clus scale="   39.941">  1  4  2 -1</clus>
<clus scale="   72.318">  1  6  2 -1</clus>
<clus scale="   84.468">  1  5  2 -1</clus>
<clus scale="   39.941">  1  3  2 -1</clus>
</clustering>
</event>
<event>
 6    0  0.6687079E+002  0.1315657E+03  0.7546771E-02  0.1225151E+00
         21   -1    0    0  504  501  0.00000000000E+00  0.00000000000E+00  0.79921182841E+03  0.79921182841E+03  0.00000000000E+00 0. -1.
         21   -1    0    0  503  502 -0.00000000000E+00 -0.00000000000E+00 -0.43201956790E+03  0.43201956790E+03  0.00000000000E+00 0. -1.
         21    1    1    2  503  501 -0.11673843077E+02 -0.37098849065E+02  0.67887678058E+03  0.67998991642E+03  0.00000000000E+00 0. -1.
         21    1    1    2  504  505 -0.11035247136E+03  0.53168876011E+01  0.80706135714E+02  0.13681892256E+03  0.00000000000E+00 0. -1.
         21    1    1    2  505  506  0.58287000544E+02  0.33183462953E+01 -0.12327164084E+03  0.13639751937E+03  0.00000000000E+00 0. -1.
         21    1    1    2  506  502  0.63739313894E+02  0.28463615168E+02 -0.26911901494E+03  0.27802503795E+03  0.00000000000E+00 0. -1.
<scales pt_clust_3="38.89220" pt_clust_4="124.23529" pt_clust_5="39.62664" pt_clust_6="39.62664"></scales>
<clustering>
<clus scale="   38.892">  1  3  2 -1</clus>
<clus scale="   39.627">  5  6 -1 -1</clus>
<clus scale="  124.235">  1  4  2 -1</clus>
<clus scale="   38.892">  1  3  2 -1</clus>
</clustering>
</event>
<event>
 6    0  0.6687079E+002  0.1006898E+03  0.7546771E-02  0.1278852E+00
         21   -1    0    0  503  501  0.00000000000E+00  0.00000000000E+00  0.42803158670E+02  0.42803158670E+02  0.00000000000E+00 0. -1.
         21   -1    0    0  505  502 -0.00000000000E+00 -0.00000000000E+00 -0.27942871131E+04  0.27942871131E+04  0.00000000000E+00 0.  1.
         21    1    1    2  503  504 -0.64544357673E+02  0.80140805950E+02 -0.34906815574E+02  0.10866006009E+03  0.00000000000E+00 0. -1.
         21    1    1    2  504  502  0.28375978829E+02 -0.85072444212E+02 -0.51719908245E+03  0.52491657225E+03  0.00000000000E+00 0.  1.
         21    1    1    2  505  506 -0.22543393566E+02  0.26903535122E+02 -0.16799170297E+04  0.16802836759E+04  0.00000000000E+00 0.  1.
         21    1    1    2  506  501  0.58711772410E+02 -0.21971896860E+02 -0.51946102671E+03  0.52322996353E+03  0.00000000000E+00 0.  1.
<scales pt_clust_3="14000.00000" pt_clust_4="100.68981" pt_clust_5="35.09993" pt_clust_6="49.06889"></scales>
<clustering>
<clus scale="   35.100">  2  5  1 -1</clus>
<clus scale="   49.069">  2  6  1 -1</clus>
<clus scale="  100.690">  2  4  1 -1</clus>
<clus scale="  100.690">  1  3  2 -1</clus>
</clustering>
</event>
<event>
 6    0  0.6687079E+002  0.1545611E+03  0.7546771E-02  0.1194978E+00
         21   -1    0    0  506  501  0.00000000000E+00  0.00000000000E+00  0.33189235778E+03  0.33189235778E+03  0.00000000000E+00 0.  1.
         21   -1    0    0  503  502 -0.00000000000E+00 -0.00000000000E+00 -0.35508987438E+03  0.35508987438E+03  0.00000000000E+00 0.  1.
         21    1    1    2  503  504 -0.35965015529E+02 -0.89553418390E+00 -0.13729878387E+03  0.14193392961E+03  0.00000000000E+00 0.  1.
         21    1    1    2  504  505 -0.63739188553E+02  0.11402970745E+03 -0.10359385551E+03  0.16672475893E+03  0.00000000000E+00 0.  1.
         21    1    1    2  505  501 -0.12690275090E+02  0.49406793590E+02  0.16656380556E+03  0.17419981532E+03  0.00000000000E+00 0.  1.
         21    1    1    2  506  502  0.11239447917E+03 -0.16254096686E+03  0.51131317224E+02  0.20412372831E+03  0.00000000000E+00 0.  1.
<scales pt_clust_3="35.97616" pt_clust_4="154.56112" pt_clust_5="51.15747" pt_clust_6="14000.00000"></scales>
<clustering>
<clus scale="   35.976">  2  3  1 -1</clus>
<clus scale="   51.157">  1  5  2 -1</clus>
<clus scale="  154.561">  2  4  1 -1</clus>
<clus scale="   51.157">  1  3  2 -1</clus>
</clustering>
</event>
<event>
 6    0  0.6687079E+002  0.9823639E+02  0.7546771E-02  0.1284049E+00
         21   -1    0    0  503  501  0.00000000000E+00  0.00000000000E+00  0.62028323012E+03  0.62028323012E+03  0.00000000000E+00 0. -1.
         21   -1    0    0  506  502 -0.00000000000E+00 -0.00000000000E+00 -0.17999211303E+04  0.17999211303E+04  0.00000000000E+00 0.  1.
         21    1    1    2  503  505 -0.83316304923E+01 -0.34862137837E+02  0.58141694423E+03  0.58252077024E+03  0.00000000000E+00 0. -1.
         21    1    1    2  504  501  0.71766839463E+02 -0.64044526188E+02 -0.42304435929E+03  0.43384180355E+03  0.00000000000E+00 0.  1.
         21    1    1    2  505  502 -0.87605546551E+02  0.60932139248E+02 -0.55018486254E+02  0.12006036486E+03  0.00000000000E+00 0. -1.
         21    1    1    2  506  504  0.24170337580E+02  0.37974524777E+02 -0.12829919988E+04  0.12837814218E+04  0.00000000000E+00 0.  1.
<scales pt_clust_3="35.84389" pt_clust_4="14000.00000" pt_clust_5="98.23639" pt_clust_6="44.66520"></scales>
<clustering>
<clus scale="   35.844">  1  3  2 -1</clus>
<clus scale="   44.665">  2  6  1 -1</clus>
<clus scale="   98.236">  1  5  2 -1</clus>
<clus scale="   35.844">  1  3  2 -1</clus>
</clustering>
</event>
<event>
 6    0  0.6687079E+002  0.1035538E+03  0.7546771E-02  0.1272995E+00
         21   -1    0    0  503  501  0.00000000000E+00  0.00000000000E+00  0.88749955710E+03  0.88749955710E+03  0.00000000000E+00 0. -1.
         21   -1    0    0  506  502 -0.00000000000E+00 -0.00000000000E+00 -0.62812422449E+02  0.62812422449E+02  0.00000000000E+00 0. -1.
         21    1    1    2  503  502 -0.73262326748E+02 -0.14746437475E+03  0.52940178261E+03  0.55441803522E+03  0.00000000000E+00 0.  1.
         21    1    1    2  504  501 -0.18392462909E+02  0.28813888802E+02  0.14913142172E+03  0.15299903211E+03  0.00000000000E+00 0. -1.
         21    1    1    2  505  504  0.25187156378E+02  0.46778070928E+02  0.13412358789E+03  0.14426266875E+03  0.00000000000E+00 0.  1.
         21    1    1    2  506  505  0.66467633279E+02  0.71872415025E+02  0.12030342430E+02  0.98632243482E+02  0.00000000000E+00 0. -1.
<scales pt_clust_3="103.55379" pt_clust_4="34.18366" pt_clust_5="56.55726" pt_clust_6="14000.00000"></scales>
<clustering>
<clus scale="   34.184">  1  4  2 -1</clus>
<clus scale="   56.557">  1  5  2 -1</clus>
<clus scale="  103.554">  1  3  2 -1</clus>
<clus scale="   34.184">  1  3  2 -1</clus>
</clustering>
</event>
<event>
 6    0  0.6687079E+002  0.1299195E+03  0.7546771E-02  0.1227575E+00
         21   -1    0    0  504  501  0.00000000000E+00  0.00000000000E+00  0.35013058237E+03  0.35013058237E+03  0.00000000000E+00 0. -1.
         21   -1    0    0  506  502 -0.00000000000E+00 -0.00000000000E+00 -0.34673435021E+03  0.34673435021E+03  0.00000000000E+00 0.  1.
         21    1    1    2  503  502  0.35824088229E+02  0.19862843199E+02 -0.24815470849E+03  0.25151273761E+03  0.00000000000E+00 0.  1.
         21    1    1    2  504  503 -0.18766571864E+02 -0.26529148124E+02  0.12840409937E+02  0.34940750522E+02  0.00000000000E+00 0. -1.
         21    1    1    2  505  501  0.99235392144E+02 -0.74292763368E+02  0.23841035954E+03  0.26871281562E+03  0.00000000000E+00 0. -1.
         21    1    1    2  506  505 -0.11629290851E+03  0.80959068294E+02  0.30017116636E+00  0.14169862883E+03  0.00000000000E+00 0.  1.
<scales pt_clust_3="40.81154" pt_clust_4="32.49584" pt_clust_5="129.91950" pt_clust_6="14000.00000"></scales>
<clustering>
<clus scale="   32.496">  1  4  2 -1</clus>
<clus scale="   40.812">  2  3  1 -1</clus>
<clus scale="  129.920">  1  5  2 -1</clus>
<clus scale="   32.496">  1  3  2 -1</clus>
</clustering>
</event>
<event>
 6    0  0.6687079E+002  0.1538048E+03  0.7546771E-02  0.1195874E+00
         21   -1    0    0  503  501  0.00000000000E+00  0.00000000000E+00  0.79474971648E+03  0.79474971648E+03  0.00000000000E+00 0.  1.
         21   -1    0    0  505  502 -0.00000000000E+00 -0.00000000000E+00 -0.70150617701E+02  0.70150617701E+02  0.00000000000E+00 0.  1.
         21    1    1    2  503  504 -0.15689239142E+03  0.43844898966E+01  0.13321579999E+03  0.20586620802E+03  0.00000000000E+00 0.  1.
         21    1    1    2  504  502  0.13379890127E+02  0.46205157397E+02  0.22777235831E+02  0.53223495770E+02  0.00000000000E+00 0.  1.
         21    1    1    2  505  506 -0.91080725638E+01 -0.42143099390E+02  0.54674893152E+02  0.69630034850E+02  0.00000000000E+00 0.  1.
         21    1    1    2  506  501  0.15262057386E+03 -0.84465479035E+01  0.51393116980E+03  0.53618059554E+03  0.00000000000E+00 0.  1.
<scales pt_clust_3="153.80480" pt_clust_4="37.66247" pt_clust_5="43.11610" pt_clust_6="14000.00000"></scales>
<clustering>
<clus scale="   43.116">  2  5  1 -1</clus>
<clus scale="   37.662">  2  4  1 -1</clus>
<clus scale="  153.805">  2  3  1 -1</clus>
<clus scale="  153.805">  1  3  2 -1</clus>
</clustering>
</event>
<event>
 6    0  0.6687079E+002  0.1547480E+03  0.7546771E-02  0.1194757E+00
         21   -1    0    0  505  501  0.00000000000E+00  0.00000000000E+00  0.11744510842E+04  0.11744510842E+04  0.00000000000E+00 0.  1.
         21   -1    0    0  504  502 -0.00000000000E+00 -0.00000000000E+00 -0.72232358413E+02  0.72232358413E+02  0.00000000000E+00 0.  1.
         21    1    1    2  503  506 -0.29894925319E+01  0.79234161706E+02  0.21871699717E+02  0.82251812717E+02  0.00000000000E+00 0.  1.
         21    1    1    2  504  501 -0.61713454291E+02 -0.92333744342E+01  0.46730739209E+02  0.77958755961E+02  0.00000000000E+00 0.  1.
         21    1    1    2  505  503  0.44113016329E+02 -0.14453274242E+03  0.98187283314E+03  0.99343340607E+03  0.00000000000E+00 0.  1.
         21    1    1    2  506  502  0.20589930493E+02  0.74531955146E+02  0.51743453702E+02  0.93039467844E+02  0.00000000000E+00 0.  1.
<scales pt_clust_3="36.33814" pt_clust_4="62.40037" pt_clust_5="150.30928" pt_clust_6="36.33814"></scales>
<clustering>
<clus scale="   36.338">  3  6 -1 -1</clus>
<clus scale="   62.400">  2  4  1 -1</clus>
<clus scale="  150.309">  1  5  2 -1</clus>
<clus scale="  150.309">  1  3  2 -1</clus>
</clustering>
</event>
<event>
 6    0  0.6687079E+002  0.1346560E+03  0.7546771E-02  0.1220706E+00
         21   -1    0    0  505  501  0.00000000000E+00  0.00000000000E+00  0.33899264318E+02  0.33899264318E+02  0.00000000000E+00 0. -1.
         21   -1    0    0  506  502 -0.00000000000E+00 -0.00000000000E+00 -0.10768402971E+04  0.10768402971E+04  0.00000000000E+00 0. -1.
         21    1    1    2  503  504  0.10082606477E+03  0.18411934027E+02 -0.64312128130E+03  0.65123718960E+03  0.00000000000E+00 0. -1.
         21    1    1    2  504  502  0.29287147743E+02 -0.28348304415E+02 -0.20210575749E+03  0.20617492718E+03  0.00000000000E+00 0.  1.
         21    1    1    2  505  503 -0.78704527717E+02  0.29554341578E+02 -0.55234065673E+02  0.10059156923E+03  0.00000000000E+00 0. -1.
         21    1    1    2  506  501 -0.51408684795E+02 -0.19617971190E+02 -0.14247992835E+03  0.15273587544E+03  0.00000000000E+00 0.  1.
<scales pt_clust_3="38.45551" pt_clust_4="38.45551" pt_clust_5="120.05678" pt_clust_6="55.02470"></scales>
<clustering>
<clus scale="   38.456">  3  4 -1 -1</clus>
<clus scale="   55.025">  1  6  2 -1</clus>
<clus scale="  120.057">  1  5  2 -1</clus>
<clus scale="   55.025">  1  3  2 -1</clus>
</clustering>
</event>
<event>
 6    0  0.6687079E+002  0.1091881E+03  0.7546771E-02  0.1262081E+00
         21   -1    0    0  505  501  0.00000000000E+00  0.00000000000E+00  0.32979078598E+02  0.32979078598E+02  0.00000000000E+00 0. -1.
         21   -1    0    0  503  502 -0.00000000000E+00 -0.00000000000E+00 -0.16922895095E+04  0.16922895095E+04  0.00000000000E+00 0. -1.
         21    1    1    2  503  506 -0.10528592757E+03 -0.83227731954E+01 -0.10748102360E+04  0.10799867770E+04  0.00000000000E+00 0. -1.
         21    1    1    2  504  502  0.12506695186E+03  0.42060971683E+02 -0.29352716829E+03  0.32182148205E+03  0.00000000000E+00 0. -1.
         21    1    1    2  505  504  0.30304194381E+02  0.47375764505E+01 -0.55967356634E+01  0.31178715140E+02  0.00000000000E+00 0. -1.
         21    1    1    2  506  501 -0.50085218674E+02 -0.38475774938E+02 -0.28537629094E+03  0.29228161389E+03  0.00000000000E+00 0. -1.
<scales pt_clust_3="14000.00000" pt_clust_4="109.18808" pt_clust_5="30.67228" pt_clust_6="58.60821"></scales>
<clustering>
<clus scale="   30.672">  1  5  2 -1</clus>
<clus scale="   58.608">  1  6  2 -1</clus>
<clus scale="  109.188">  1  4  2 -1</clus>
<clus scale="   30.672">  1  3  2 -1</clus>
</clustering>
</event>
<event>
 6    0  0.6687079E+002  0.7140859E+02  0.7546771E-02  0.1355368E+00
         21   -1    0    0  505  501  0.00000000000E+00  0.00000000000E+00  0.27262223716E+03  0.27262223716E+03  0.00000000000E+00 0.  1.
         21   -1    0    0  506  502 -0.00000000000E+00 -0.00000000000E+00 -0.29512139790E+03  0.29512139790E+03  0.00000000000E+00 0.  1.
         21    1    1    2  503  504 -0.53549448426E+02  0.18336939355E+02 -0.20441426479E+02  0.60180052245E+02  0.00000000000E+00 0.  1.
         21    1    1    2  504  502  0.27915354672E+02  0.39460298100E+02 -0.21924598622E+03  0.22451098999E+03  0.00000000000E+00 0.  1.
         21    1    1    2  505  503  0.64321727350E+02  0.27800609745E+02  0.15581307287E+03  0.17084458489E+03  0.00000000000E+00 0.  1.
         21    1    1    2  506  501 -0.38687633596E+02 -0.85597847201E+02  0.61375179090E+02  0.11220800795E+03  0.00000000000E+00 0.  1.
<scales pt_clust_3="55.34009" pt_clust_4="48.33614" pt_clust_5="14000.00000" pt_clust_6="71.40859"></scales>
<clustering>
<clus scale="   48.336">  2  4  1 -1</clus>
<clus scale="   55.340">  2  3  1 -1</clus>
<clus scale="   71.409">  2  6  1 -1</clus>
<clus scale="   71.409">  1  3  2 -1</clus>
</clustering>
</event>
<event>
 6    0  0.6687079E+002  0.1969510E+03  0.7546771E-02  0.1152337E+00
         21   -1    0    0  503  501  0.00000000000E+00  0.00000000000E+00  0.93090987639E+03  0.93090987639E+03  0.00000000000E+00 0.  1.
         21   -1    0    0  504  502 -0.00000000000E+00 -0.00000000000E+00 -0.24714801204E+03  0.24714801204E+03  0.00000000000E+00 0. -1.
         21    1    1    2  503  502  0.30734854353E+02  0.29544479641E+02  0.63522875495E+03  0.63665774060E+03  0.00000000000E+00 0.  1.
         21    1    1    2  504  505  0.36477492394E+01 -0.12063172633E+03 -0.15216544080E+03  0.19421544956E+03  0.00000000000E+00 0. -1.
         21    1    1    2  505  506  0.21872989769E+02 -0.63922190851E+02 -0.21121081692E+02  0.70785409912E+02  0.00000000000E+00 0. -1.
         21    1    1    2  506  501 -0.56255593361E+02  0.15500943754E+03  0.22181963189E+03  0.27639928835E+03  0.00000000000E+00 0.  1.
<scales pt_clust_3="42.63224" pt_clust_4="55.28836" pt_clust_5="55.28836" pt_clust_6="182.49357"></scales>
<clustering>
<clus scale="   42.632">  1  3  2 -1</clus>
<clus scale="   55.288">  4  5 -1 -1</clus>
<clus scale="  182.494">  1  6  2 -1</clus>
<clus scale="   42.632">  1  3  2 -1</clus>
</clustering>
</event>
<event>
 6    0  0.6687079E+002  0.7505430E+02  0.7546771E-02  0.1343703E+00
         21   -1    0    0  506  501  0.00000000000E+00  0.00000000000E+00  0.47677875407E+03  0.47677875407E+03  0.00000000000E+00 0. -1.
         21   -1    0    0  504  502 -0.00000000000E+00 -0.00000000000E+00 -0.27114186506E+03  0.27114186506E+03  0.00000000000E+00 0. -1.
         21    1    1    2  503  505 -0.75280117661E+01 -0.68687510800E+02 -0.26301236877E+01  0.69148844182E+02  0.00000000000E+00 0.  1.
         21    1    1    2  504  503 -0.29933887529E+02 -0.39423453839E+01 -0.13618576459E+02  0.33121674693E+02  0.00000000000E+00 0.  1.
         21    1    1    2  505  501  0.65085189239E+02 -0.37241503502E+02  0.41502009540E+03  0.42174007519E+03  0.00000000000E+00 0. -1.
         21    1    1    2  506  502 -0.27623289944E+02  0.10987135969E+03 -0.19313450624E+03  0.22391002507E+03  0.00000000000E+00 0. -1.
<scales pt_clust_3="70.26734" pt_clust_4="30.19238" pt_clust_5="75.05430" pt_clust_6="14000.00000"></scales>
<clustering>
<clus scale="   30.192">  2  4  1 -1</clus>
<clus scale="   70.267">  2  3  1 -1</clus>
<clus scale="   75.054">  1  5  2 -1</clus>
<clus scale="   75.054">  1  3  2 -1</clus>
</clustering>
</event>
<event>
 6    0  0.6687079E+002  0.1594905E+03  0.7546771E-02  0.1189273E+00
         21   -1    0    0  506  501  0.00000000000E+00  0.00000000000E+00  0.37384241272E+03  0.37384241272E+03  0.00000000000E+00 0. -1.
         21   -1    0    0  504  502 -0.00000000000E+00 -0.00000000000E+00 -0.98612181773E+03  0.98612181773E+03  0.00000000000E+00 0.  1.
         21    1    1    2  503  501 -0.21806048168E+02 -0.43162429392E+02  0.92803998758E+02  0.10464741389E+03  0.00000000000E+00 0.  1.
         21    1    1    2  504  503 -0.88090884982E+02  0.83523489073E+02  0.21615960099E+03  0.24791359452E+03  0.00000000000E+00 0. -1.
         21    1    1    2  505  502  0.15293115555E+03 -0.50149559370E+02 -0.94408757295E+03  0.95770781663E+03  0.00000000000E+00 0.  1.
         21    1    1    2  506  505 -0.43034222400E+02  0.97884996891E+01  0.22844568190E+02  0.49695405416E+02  0.00000000000E+00 0.  1.
<scales pt_clust_3="52.97979" pt_clust_4="159.49049" pt_clust_5="14000.00000" pt_clust_6="44.13342"></scales>
<clustering>
<clus scale="   44.133">  1  6  2 -1</clus>
<clus scale="   52.980">  1  3  2 -1</clus>
<clus scale="  159.490">  1  4  2 -1</clus>
<clus scale="   44.133">  1  3  2 -1</clus>
</clustering>
</event>
<event>
 6    0  0.6687079E+002  0.1409122E+03  0.7546771E-02  0.1212107E+00
         21   -1    0    0  503  501  0.00000000000E+00  0.00000000000E+00  0.11886402085E+04  0.11886402085E+04  0.00000000000E+00 0.  1.
         21   -1    0    0  505  502 -0.00000000000E+00 -0.00000000000E+00 -0.63093436629E+02  0.63093436629E+02  0.00000000000E+00 0.  1.
         21    1    1    2  503  504 -0.86716010846E+02  0.46807241171E+02  0.41681957039E+03  0.42830962938E+03  0.00000000000E+00 0.  1.
         21    1    1    2  504  506 -0.55121241701E+02  0.11715881962E+03  0.13651937596E+03  0.18815440551E+03  0.00000000000E+00 0.  1.
         21    1    1    2  505  501  0.10524670762E+03 -0.16927968000E+03  0.56288718404E+03  0.59713856137E+03  0.00000000000E+00 0.  1.
         21    1    1    2  506  502  0.36590544930E+02  0.53136192056E+01  0.93206414468E+01  0.38131048823E+02  0.00000000000E+00 0.  1.
<scales pt_clust_3="95.07635" pt_clust_4="14000.00000" pt_clust_5="140.91218" pt_clust_6="36.97435"></scales>
<clustering>
<clus scale="   36.974">  2  6  1 -1</clus>
<clus scale="   95.076">  1  3  2 -1</clus>
<clus scale="  140.912">  1  5  2 -1</clus>
<clus scale="   95.076">  1  3  2 -1</clus>
</clustering>
</event>
<event>
 6    0  0.6687079E+002  0.1481963E+03  0.7546771E-02  0.1202707E+00
         21   -1    0    0  503  501  0.00000000000E+00  0.00000000000E+00  0.59241605915E+03  0.59241605915E+03  0.00000000000E+00 0. -1.
         21   -1    0    0  505  502 -0.00000000000E+00 -0.00000000000E+00 -0.53746121432E+02  0.53746121432E+02  0.00000000000E+00 0. -1.
         21    1    1    2  503  506  0.29077058559E+02  0.18039300053E+02 -0.42971646048E+01  0.34487059957E+02  0.00000000000E+00 0. -1.
         21    1    1    2  504  501 -0.77913541583E+02 -0.37259670936E+02  0.33828382776E+03  0.34913428815E+03  0.00000000000E+00 0. -1.
         21    1    1    2  505  504 -0.27597771892E+02 -0.47926954984E+02  0.11201568136E+03  0.12492454882E+03  0.00000000000E+00 0. -1.
         21    1    1    2  506  502  0.76434254916E+02  0.67147325868E+02  0.92667593203E+02  0.13761628365E+03  0.00000000000E+00 0. -1.
<scales pt_clust_3="33.91953" pt_clust_4="47.83159" pt_clust_5="47.83159" pt_clust_6="147.68286"></scales>
<clustering>
<clus scale="   33.920">  3  6 -1 -1</clus>
<clus scale="   47.832">  4  5 -1 -1</clus>
<clus scale="  147.683">  2  3  1 -1</clus>
<clus scale="  148.196">  1  3  2 -1</clus>
</clustering>
</event>
<event>
 6    0  0.6687079E+002  0.1487854E+03  0.7546771E-02  0.1201973E+00
         21   -1    0    0  505  501  0.00000000000E+00  0.00000000000E+00  0.58480257162E+03  0.58480257162E+03  0.00000000000E+00 0.  1.
         21   -1    0    0  504  502 -0.00000000000E+00 -0.00000000000E+00 -0.27803844817E+03  0.27803844817E+03  0.00000000000E+00 0.  1.
         21    1    1    2  503  506 -0.88943178061E+02  0.14149148865E+03  0.13033795014E+03  0.21194034899E+03  0.00000000000E+00 0.  1.
         21    1    1    2  504  501 -0.18130563564E+02 -0.48561665385E+02  0.10076742430E+02  0.52806187309E+02  0.00000000000E+00 0.  1.
         21    1    1    2  505  503  0.85350504635E+01 -0.14727523537E+03  0.35162754016E+03  0.38131977268E+03  0.00000000000E+00 0.  1.
         21    1    1    2  506  502  0.98538691162E+02  0.54345412106E+02 -0.18527810927E+03  0.21677471081E+03  0.00000000000E+00 0.  1.
<scales pt_clust_3="148.78541" pt_clust_4="51.83582" pt_clust_5="14000.00000" pt_clust_6="85.90184"></scales>
<clustering>
<clus scale="   51.836">  2  4  1 -1</clus>
<clus scale="   85.902">  2  6  1 -1</clus>
<clus scale="  148.785">  2  3  1 -1</clus>
<clus scale="  148.785">  1  3  2 -1</clus>
</clustering>
</event>
<event>
 6    0  0.6687079E+002  0.7589215E+02  0.7546771E-02  0.1341130E+00
         21   -1    0    0  504  501  0.00000000000E+00  0.00000000000E+00  0.56628295180E+03  0.56628295180E+03  0.00000000000E+00 0.  1.
         21   -1    0    0  503  502 -0.00000000000E+00 -0.00000000000E+00 -0.34484761571E+03  0.34484761571E+03  0.00000000000E+00 0.  1.
         21    1    1    2  503  506  0.71632495812E+02 -0.47357728074E+02  0.27737414420E+03  0.29036250573E+03  0.00000000000E+00 0.  1.
         21    1    1    2  504  505 -0.48272157507E+02  0.30187043557E+01  0.71769873042E+02  0.86546105879E+02  0.00000000000E+00 0.  1.
         21    1    1    2  505  502 -0.73537612235E+02  0.18429847324E+02 -0.32256154531E+03  0.33135085665E+03  0.00000000000E+00 0.  1.
         21    1    1    2  506  501  0.50177273930E+02  0.25909176395E+02  0.19485286416E+03  0.20287109926E+03  0.00000000000E+00 0.  1.
<scales pt_clust_3="14000.00000" pt_clust_4="48.36645" pt_clust_5="75.89215" pt_clust_6="40.80605"></scales>
<clustering>
<clus scale="   48.366">  1  4  2 -1</clus>
<clus scale="   40.806">  1  6  2 -1</clus>
<clus scale="   75.892">  2  5  1 -1</clus>
<clus scale="   48.366">  1  3  2 -1</clus>
</clustering>
</event>
<event>
 6    0  0.6687079E+002  0.1642461E+03  0.7546771E-02  0.1183985E+00
         21   -1    0    0  505  501  0.00000000000E+00  0.00000000000E+00  0.43290031084E+03  0.43290031084E+03  0.00000000000E+00 0.  1.
         21   -1    0    0  504  502 -0.00000000000E+00 -0.00000000000E+00 -0.68905294491E+03  0.68905294491E+03  0.00000000000E+00 0.  1.
         21    1    1    2  503  506  0.15336335190E+03  0.60731444045E+02  0.27554088162E+03  0.32114078446E+03  0.00000000000E+00 0.  1.
         21    1    1    2  504  503 -0.96417561112E+02 -0.11141524681E+03 -0.59831014048E+03  0.61618562748E+03  0.00000000000E+00 0.  1.
         21    1    1    2  505  502  0.18146655441E+02 -0.39118662083E+02 -0.10581924282E+02  0.44402116486E+02  0.00000000000E+00 0.  1.
         21    1    1    2  506  501 -0.75092446224E+02  0.89802464850E+02  0.77198549071E+02  0.14022472732E+03  0.00000000000E+00 0.  1.
<scales pt_clust_3="164.24612" pt_clust_4="14000.00000" pt_clust_5="43.12274" pt_clust_6="115.07859"></scales>
<clustering>
<clus scale="   43.123">  2  5  1 -1</clus>
<clus scale="  115.079">  1  6  2 -1</clus>
<clus scale="  164.246">  1  3  2 -1</clus>
<clus scale="  115.079">  1  3  2 -1</clus>
</clustering>
</event>
<event>
 6    0  0.6687079E+002  0.2555668E+03  0.7546771E-02  0.1109836E+00
         21   -1    0    0  504  501  0.00000000000E+00  0.00000000000E+00  0.75727790130E+03  0.75727790130E+03  0.00000000000E+00 0. -1.
         21   -1    0    0  506  502 -0.00000000000E+00 -0.00000000000E+00 -0.69038473691E+03  0.69038473691E+03  0.00000000000E+00 0. -1.
         21    1    1    2  503  505 -0.14789577799E+03  0.87782388364E+02 -0.43032265406E+03  0.46341827268E+03  0.00000000000E+00 0. -1.
         21    1    1    2  504  503  0.15087624029E+03 -0.12035679631E+03  0.65775478799E+03  0.68548578353E+03  0.00000000000E+00 0. -1.
         21    1    1    2  505  502 -0.37631434882E+02  0.76740390901E+02 -0.20823641296E+03  0.22509468268E+03  0.00000000000E+00 0. -1.
         21    1    1    2  506  501  0.34650972586E+02 -0.44165982959E+02  0.47697443433E+02  0.73663899312E+02  0.00000000000E+00 0.  1.
<scales pt_clust_3="48.86281" pt_clust_4="245.98792" pt_clust_5="48.86281" pt_clust_6="56.13665"></scales>
<clustering>
<clus scale="   48.863">  3  5 -1 -1</clus>
<clus scale="   56.137">  1  6  2 -1</clus>
<clus scale="  245.988">  1  4  2 -1</clus>
<clus scale="   56.137">  1  3  2 -1</clus>
</clustering>
</event>
<event>
 6    0  0.6687079E+002  0.1380776E+03  0.7546771E-02  0.1215939E+00
         21   -1    0    0  506  501  0.00000000000E+00  0.00000000000E+00  0.82673038435E+03  0.82673038435E+03  0.00000000000E+00 0.  1.
         21   -1    0    0  505  502 -0.00000000000E+00 -0.00000000000E+00 -0.21889100018E+03  0.21889100018E+03  0.00000000000E+00 0.  1.
         21    1    1    2  503  502  0.55864806189E+02  0.11307802488E+03 -0.14567371698E+03  0.19268717679E+03  0.00000000000E+00 0.  1.
         21    1    1    2  504  501 -0.22635573320E+02 -0.81719045864E+02  0.69963817786E+02  0.10993319533E+03  0.00000000000E+00 0.  1.
         21    1    1    2  505  504 -0.48900794827E+02 -0.71712948884E+02  0.35938121510E+02  0.93944575948E+02  0.00000000000E+00 0.  1.
         21    1    1    2  506  503  0.15671561959E+02  0.40353969867E+02  0.64761116186E+03  0.64905643646E+03  0.00000000000E+00 0.  1.
<scales pt_clust_3="131.80788" pt_clust_4="40.65776" pt_clust_5="40.65776" pt_clust_6="43.29019"></scales>
<clustering>
<clus scale="   40.658">  4  5 -1 -1</clus>
<clus scale="   43.290">  1  6  2 -1</clus>
<clus scale="  131.808">  2  3  1 -1</clus>
<clus scale="   43.290">  1  3  2 -1</clus>
</clustering>
</event>
<event>
 6    0  0.6687079E+002  0.7896812E+02  0.7546771E-02  0.1332006E+00
         21   -1    0    0  505  501  0.00000000000E+00  0.00000000000E+00  0.33508956541E+04  0.33508956541E+04  0.00000000000E+00 0. -1.
         21   -1    0    0  503  502 -0.00000000000E+00 -0.00000000000E+00 -0.67789353800E+01  0.67789353800E+01  0.00000000000E+00 0. -1.
         21    1    1    2  503  504  0.68643854395E+02  0.44034047673E+02  0.51158163166E+03  0.51804125507E+03  0.00000000000E+00 0. -1.
         21    1    1    2  504  506 -0.20195218928E+02 -0.88973153131E+02  0.11023422805E+04  0.11061114646E+04  0.00000000000E+00 0. -1.
         21    1    1    2  505  502 -0.54398061074E+02  0.67596241161E+01  0.55651662863E+03  0.55920979919E+03  0.00000000000E+00 0. -1.
         21    1    1    2  506  501  0.59494256076E+01  0.38179481342E+02  0.11736761780E+04  0.11743120706E+04  0.00000000000E+00 0. -1.
<scales pt_clust_3="78.96812" pt_clust_4="14000.00000" pt_clust_5="55.40120" pt_clust_6="38.64024"></scales>
<clustering>
<clus scale="   38.640">  1  6  2 -1</clus>
<clus scale="   55.401">  1  5  2 -1</clus>
<clus scale="   78.968">  2  3  1 -1</clus>
<clus scale="   38.640">  1  3  2 -1</clus>
</clustering>
</event>
<event>
 6    0  0.6687079E+002  0.9194389E+02  0.7546771E-02  0.1298211E+00
         21   -1    0    0  504  501  0.00000000000E+00  0.00000000000E+00  0.11333856644E+03  0.11333856644E+03  0.00000000000E+00 0. -1.
         21   -1    0    0  506  502 -0.00000000000E+00 -0.00000000000E+00 -0.50556705132E+03  0.50556705132E+03  0.00000000000E+00 0. -1.
         21    1    1    2  503  505  0.84327533345E+01  0.10197503680E+03 -0.15960605582E+02  0.10356041903E+03  0.00000000000E+00 0. -1.
         21    1    1    2  504  503  0.40961803916E+02 -0.80384174074E+02 -0.45007065048E+01  0.90331285725E+02  0.00000000000E+00 0. -1.
         21    1    1    2  505  502 -0.18360287693E+02  0.57361093100E+02 -0.32003348119E+03  0.32565138453E+03  0.00000000000E+00 0. -1.
         21    1    1    2  506  501 -0.31034269558E+02 -0.78951955827E+02 -0.51733691607E+02  0.99362528466E+02  0.00000000000E+00 0. -1.
<scales pt_clust_3="14000.00000" pt_clust_4="91.94389" pt_clust_5="60.22786" pt_clust_6="67.40116"></scales>
<clustering>
<clus scale="   60.228">  2  5  1 -1</clus>
<clus scale="   67.401">  2  6  1 -1</clus>
<clus scale="   91.944">  1  4  2 -1</clus>
<clus scale="   91.944">  1  3  2 -1</clus>
</clustering>
</event>
<event>
 6    0  0.6687079E+002  0.1277359E+03  0.7546771E-02  0.1230854E+00
         21   -1    0    0  506  501  0.00000000000E+00  0.00000000000E+00  0.70093217656E+03  0.70093217656E+03  0.00000000000E+00 0. -1.
         21   -1    0    0  503  502 -0.00000000000E+00 -0.00000000000E+00 -0.27589081608E+03  0.27589081608E+03  0.00000000000E+00 0.  1.
         21    1    1    2  503  501 -0.24050069515E+02 -0.65177721108E+02 -0.19933301686E+03  0.21109285346E+03  0.00000000000E+00 0.  1.
         21    1    1    2  504  502 -0.35579333964E+02  0.72338709108E+02  0.30936037269E+02  0.86347068524E+02  0.00000000000E+00 0. -1.
         21    1    1    2  505  504 -0.47212392416E+02  0.44792967257E+02 -0.86796729852E+01  0.65656352598E+02  0.00000000000E+00 0. -1.
         21    1    1    2  506  505  0.10684179589E+03 -0.51953955257E+02  0.60211801305E+03  0.61372671806E+03  0.00000000000E+00 0. -1.
<scales pt_clust_3="69.47331" pt_clust_4="40.53597" pt_clust_5="40.53597" pt_clust_6="119.50345"></scales>
<clustering>
<clus scale="   40.536">  4  5 -1 -1</clus>
<clus scale="   69.473">  2  3  1 -1</clus>
<clus scale="  119.503">  1  6  2 -1</clus>
<clus scale="  119.503">  1  3  2 -1</clus>
</clustering>
</event>
<event>
 6    0  0.6687079E+002  0.1626462E+03  0.7546771E-02  0.1185741E+00
         21   -1    0    0  503  501  0.00000000000E+00  0.00000000000E+00  0.38154774666E+03  0.38154774666E+03  0.00000000000E+00 0. -1.
         21   -1    0    0  505  502 -0.00000000000E+00 -0.00000000000E+00 -0.15611970873E+04  0.15611970873E+04  0.00000000000E+00 0.  1.
         21    1    1    2  503  502 -0.77626671791E+02 -0.14376372224E+01 -0.78626337149E+03  0.79008737259E+03  0.00000000000E+00 0.  1.
         21    1    1    2  504  501  0.14041131269E+03  0.86388033155E+02  0.35461474812E+03  0.39106246124E+03  0.00000000000E+00 0. -1.
         21    1    1    2  505  506 -0.38852091020E+02  0.57500606158E+01 -0.11141149942E+03  0.11813158078E+03  0.00000000000E+00 0.  1.
         21    1    1    2  506  504 -0.23932549885E+02 -0.90700456548E+02 -0.63658921786E+03  0.64346341936E+03  0.00000000000E+00 0.  1.
<scales pt_clust_3="14000.00000" pt_clust_4="162.64618" pt_clust_5="39.27529" pt_clust_6="97.27640"></scales>
<clustering>
<clus scale="   39.275">  2  5  1 -1</clus>
<clus scale="   97.276">  2  6  1 -1</clus>
<clus scale="  162.646">  1  4  2 -1</clus>
<clus scale="  162.646">  1  3  2 -1</clus>
</clustering>
</event>
<event>
 6    0  0.6687079E+002  0.8045587E+02  0.7546771E-02  0.1327763E+00
         21   -1    0    0  504  501  0.00000000000E+00  0.00000000000E+00  0.13038506184E+03  0.13038506184E+03  0.00000000000E+00 0.  1.
         21   -1    0    0  505  502 -0.00000000000E+00 -0.00000000000E+00 -0.22868066702E+03  0.22868066702E+03  0.00000000000E+00 0. -1.
         21    1    1    2  503  502 -0.21043403660E+02 -0.37056202103E+02 -0.77055376236E+02  0.88054062705E+02  0.00000000000E+00 0. -1.
         21    1    1    2  504  503  0.21993388484E+02 -0.76108491067E+02  0.58564831898E+02  0.98519292957E+02  0.00000000000E+00 0.  1.
         21    1    1    2  505  506  0.36052143904E+02  0.37503958084E+02 -0.70700807252E+02  0.87777605903E+02  0.00000000000E+00 0. -1.
         21    1    1    2  506  501 -0.37002128728E+02  0.75660735086E+02 -0.91042535907E+01  0.84714767294E+02  0.00000000000E+00 0.  1.
<scales pt_clust_3="42.61440" pt_clust_4="80.45587" pt_clust_5="30.17075" pt_clust_6="14000.00000"></scales>
<clustering>
<clus scale="   42.614">  2  3  1 -1</clus>
<clus scale="   30.171">  2  5  1 -1</clus>
<clus scale="   80.456">  1  4  2 -1</clus>
<clus scale="   80.456">  1  3  2 -1</clus>
</clustering>
</event>
<event>
 6    0  0.6687079E+002  0.6974703E+02  0.7546771E-02  0.1360955E+00
         21   -1    0    0  505  501  0.00000000000E+00  0.00000000000E+00  0.37440306024E+03  0.37440306024E+03  0.00000000000E+00 0. -1.
         21   -1    0    0  504  502 -0.00000000000E+00 -0.00000000000E+00 -0.42835740398E+03  0.42835740398E+03  0.00000000000E+00 0. -1.
         21    1    1    2  503  506 -0.62794549198E+02 -0.65133255026E+01  0.18208253175E+02  0.65704789032E+02  0.00000000000E+00 0. -1.
         21    1    1    2  504  501  0.75214588969E+02  0.16908024406E+02 -0.78839081882E+02  0.11026657025E+03  0.00000000000E+00 0. -1.
         21    1    1    2  505  503 -0.49421742609E+01  0.55434243381E+02  0.31069253253E+03  0.31563781490E+03  0.00000000000E+00 0. -1.
         21    1    1    2  506  502 -0.74778655105E+01 -0.65828942285E+02 -0.30401604756E+03  0.31115129003E+03  0.00000000000E+00 0. -1.
<scales pt_clust_3="14000.00000" pt_clust_4="69.74703" pt_clust_5="55.65411" pt_clust_6="63.07929"></scales>
<clustering>
<clus scale="   55.654">  1  5  2 -1</clus>
<clus scale="   63.079">  2  6  1 -1</clus>
<clus scale="   69.747">  2  4  1 -1</clus>
<clus scale="   55.654">  1  3  2 -1</clus>
</clustering>
</event>
<event>
 6    0  0.6687079E+002  0.1704430E+03  0.7546771E-02  0.1177387E+00
         21   -1    0    0  505  501  0.00000000000E+00  0.00000000000E+00  0.96077606356E+02  0.96077606356E+02  0.00000000000E+00 0. -1.
         21   -1    0    0  504  502 -0.00000000000E+00 -0.00000000000E+00 -0.11886116316E+04  0.11886116316E+04  0.00000000000E+00 0.  1.
         21    1    1    2  503  506  0.35021335227E+01 -0.93424627303E+02 -0.74233663508E+03  0.74820057853E+03  0.00000000000E+00 0.  1.
         21    1    1    2  504  503  0.35018805643E+02 -0.42997225437E+02 -0.25739524662E+03  0.26330095163E+03  0.00000000000E+00 0.  1.
         21    1    1    2  505  502 -0.19016897416E+02 -0.23419500364E+02 -0.10734668457E+03  0.11150527374E+03  0.00000000000E+00 0. -1.
         21    1    1    2  506  501 -0.19504041750E+02  0.15984135310E+03  0.14544541035E+02  0.16168243405E+03  0.00000000000E+00 0. -1.
<scales pt_clust_3="43.19079" pt_clust_4="43.19079" pt_clust_5="30.16812" pt_clust_6="159.60603"></scales>
<clustering>
<clus scale="   30.168">  2  5  1 -1</clus>
<clus scale="   43.191">  3  4 -1 -1</clus>
<clus scale="  159.606">  1  6  2 -1</clus>
<clus scale="  159.606">  1  3  2 -1</clus>
</clustering>
</event>
<event>
 6    0  0.6687079E+002  0.9741251E+02  0.7546771E-02  0.1285833E+00
         21   -1    0    0  504  501  0.00000000000E+00  0.00000000000E+00  0.27053651810E+03  0.27053651810E+03  0.00000000000E+00 0. -1.
         21   -1    0    0  505  502 -0.00000000000E+00 -0.00000000000E+00 -0.99923262094E+02  0.99923262094E+02  0.00000000000E+00 0.  1.
         21    1    1    2  503  501  0.10283494162E+03  0.12078986579E+01  0.16123014408E+03  0.19123713969E+03  0.00000000000E+00 0. -1.
         21    1    1    2  504  502  0.32021541584E+02  0.58720851940E+01  0.84526192287E+00  0.32566470145E+02  0.00000000000E+00 0.  1.
         21    1    1    2  505  506 -0.48582343965E+02  0.22152526481E+01 -0.23684081370E+02  0.54093319363E+02  0.00000000000E+00 0.  1.
         21    1    1    2  506  503 -0.86274139239E+02 -0.92952365000E+01  0.32221931372E+02  0.92562850995E+02  0.00000000000E+00 0.  1.
<scales pt_clust_3="97.41251" pt_clust_4="32.55550" pt_clust_5="34.12691" pt_clust_6="14000.00000"></scales>
<clustering>
<clus scale="   32.555">  2  4  1 -1</clus>
<clus scale="   34.127">  2  5  1 -1</clus>
<clus scale="   97.413">  1  3  2 -1</clus>
<clus scale="   97.413">  1  3  2 -1</clus>
</clustering>
</event>
<event>
 6    0  0.6687079E+002  0.1834386E+03  0.7546771E-02  0.1164516E+00
         21   -1    0    0  503  501  0.00000000000E+00  0.00000000000E+00  0.72644021286E+03  0.72644021286E+03  0.00000000000E+00 0. -1.
         21   -1    0    0  506  502 -0.00000000000E+00 -0.00000000000E+00 -0.85087587976E+02  0.85087587976E+02  0.00000000000E+00 0. -1.
         21    1    1    2  503  502  0.17428813556E+03  0.22440421124E+02  0.58903235619E+02  0.18533622923E+03  0.00000000000E+00 0. -1.
         21    1    1    2  504  505 -0.12450185497E+03 -0.35422768789E+02  0.41703217706E+03  0.43665927351E+03  0.00000000000E+00 0. -1.
         21    1    1    2  505  501  0.16540356594E+01  0.36088059881E+02  0.64150752014E+02  0.73623385442E+02  0.00000000000E+00 0.  1.
         21    1    1    2  506  504 -0.51440316252E+02 -0.23105712216E+02  0.10126646019E+03  0.11590891265E+03  0.00000000000E+00 0.  1.
<scales pt_clust_3="177.01079" pt_clust_4="31.77019" pt_clust_5="36.12594" pt_clust_6="31.77019"></scales>
<clustering>
<clus scale="   31.770">  4  6 -1 -1</clus>
<clus scale="   36.126">  1  5  2 -1</clus>
<clus scale="  177.011">  2  3  1 -1</clus>
<clus scale="   36.126">  1  3  2 -1</clus>
</clustering>
</event>
<event>
 6    0  0.6687079E+002  0.8825988E+02  0.7546771E-02  0.1307121E+00
         21   -1    0    0  504  501  0.00000000000E+00  0.00000000000E+00  0.16717681620E+03  0.16717681620E+03  0.00000000000E+00 0. -1.
         21   -1    0    0  503  502 -0.00000000000E+00 -0.00000000000E+00 -0.19057087525E+03  0.19057087525E+03  0.00000000000E+00 0.  1.
         21    1    1    2  503  506  0.75790169658E+02 -0.62901274121E+02 -0.12796917028E+03  0.16148321475E+03  0.00000000000E+00 0.  1.
         21    1    1    2  504  502  0.20990352831E+02  0.35469868425E+02  0.50633615684E+02  0.65287590821E+02  0.00000000000E+00 0. -1.
         21    1    1    2  505  501 -0.22962485458E+02  0.38314829312E+02  0.22357604469E+02  0.49951620206E+02  0.00000000000E+00 0. -1.
         21    1    1    2  506  505 -0.73818037032E+02 -0.10883423616E+02  0.31583891083E+02  0.81025265669E+02  0.00000000000E+00 0.  1.
<scales pt_clust_3="88.25988" pt_clust_4="41.21537" pt_clust_5="52.55583" pt_clust_6="14000.00000"></scales>
<clustering>
<clus scale="   41.215">  1  4  2 -1</clus>
<clus scale="   52.556">  1  5  2 -1</clus>
<clus scale="   88.260">  2  3  1 -1</clus>
<clus scale="   41.215">  1  3  2 -1</clus>
</clustering>
</event>
<event>
 6    0  0.6687079E+002  0.1507157E+03  0.7546771E-02  0.1199596E+00
         21   -1    0    0  504  501  0.00000000000E+00  0.00000000000E+00  0.24363183273E+03  0.24363183273E+03  0.00000000000E+00 0. -1.
         21   -1    0    0  503  502 -0.00000000000E+00 -0.00000000000E+00 -0.59269818688E+03  0.59269818688E+03  0.00000000000E+00 0. -1.
         21    1    1    2  503  506 -0.85846779328E+02  0.11889426011E+03 -0.29244066101E+03  0.32714989656E+03  0.00000000000E+00 0. -1.
         21    1    1    2  504  505 -0.12360760702E+03 -0.45527348689E+02 -0.12346361951E+03  0.18054042577E+03  0.00000000000E+00 0. -1.
         21    1    1    2  505  502  0.69998579332E+02 -0.10537384070E+02 -0.86692039475E+02  0.11192116547E+03  0.00000000000E+00 0.  1.
         21    1    1    2  506  501  0.13945580702E+03 -0.62829527353E+02  0.15352996585E+03  0.21671853182E+03  0.00000000000E+00 0. -1.
<scales pt_clust_3="14000.00000" pt_clust_4="113.09991" pt_clust_5="70.78727" pt_clust_6="150.71573"></scales>
<clustering>
<clus scale="   70.787">  2  5  1 -1</clus>
<clus scale="  113.100">  2  4  1 -1</clus>
<clus scale="  150.716">  1  6  2 -1</clus>
<clus scale="  150.716">  1  3  2 -1</clus>
</clustering>
</event>
<event>
 6    0  0.6687079E+002  0.1637820E+03  0.7546771E-02  0.1184492E+00
         21   -1    0    0  503  501  0.00000000000E+00  0.00000000000E+00  0.56832980818E+03  0.56832980818E+03  0.00000000000E+00 0.  1.
         21   -1    0    0  506  502 -0.00000000000E+00 -0.00000000000E+00 -0.20030407009E+03  0.20030407009E+03  0.00000000000E+00 0.  1.
         21    1    1    2  503  504 -0.15916724503E+03  0.52757670187E+02  0.43137647358E+03  0.46282096496E+03  0.00000000000E+00 0.  1.
         21    1    1    2  504  502  0.52748313792E+01  0.32186568511E+02  0.11058032432E+02  0.34439499413E+02  0.00000000000E+00 0. -1.
         21    1    1    2  505  501  0.10658982978E+03 -0.12596600125E+03  0.11108525760E+02  0.16538507982E+03  0.00000000000E+00 0.  1.
         21    1    1    2  506  505  0.47302583868E+02  0.41021762547E+02 -0.85517293674E+02  0.10598833408E+03  0.00000000000E+00 0.  1.
<scales pt_clust_3="14000.00000" pt_clust_4="32.61593" pt_clust_5="163.78197" pt_clust_6="76.08169"></scales>
<clustering>
<clus scale="   32.616">  2  4  1 -1</clus>
<clus scale="   76.082">  2  6  1 -1</clus>
<clus scale="  163.782">  2  5  1 -1</clus>
<clus scale="  163.782">  1  3  2 -1</clus>
</clustering>
</event>
<event>
 6    0  0.6687079E+002  0.9910239E+02  0.7546771E-02  0.1282195E+00
         21   -1    0    0  505  501  0.00000000000E+00  0.00000000000E+00  0.29808784558E+02  0.29808784558E+02  0.00000000000E+00 0. -1.
         21   -1    0    0  503  502 -0.00000000000E+00 -0.00000000000E+00 -0.97259783384E+03  0.97259783384E+03  0.00000000000E+00 0. -1.
         21    1    1    2  503  504 -0.74138094373E+01  0.29624927092E+02 -0.25887837315E+03  0.26067338368E+03  0.00000000000E+00 0. -1.
         21    1    1    2  504  501  0.79413888568E+02  0.72792664311E+02 -0.15761091520E+03  0.19090976472E+03  0.00000000000E+00 0. -1.
         21    1    1    2  505  506 -0.32751098355E+02 -0.89255783481E+02 -0.19495230597E+03  0.21690004825E+03  0.00000000000E+00 0. -1.
         21    1    1    2  506  502 -0.39248980776E+02 -0.13161807921E+02 -0.33134745497E+03  0.33392342175E+03  0.00000000000E+00 0. -1.
<scales pt_clust_3="30.53851" pt_clust_4="99.10239" pt_clust_5="14000.00000" pt_clust_6="42.71374"></scales>
<clustering>
<clus scale="   30.539">  2  3  1 -1</clus>
<clus scale="   42.714">  2  6  1 -1</clus>
<clus scale="   99.102">  1  4  2 -1</clus>
<clus scale="   99.102">  1  3  2 -1</clus>
</clustering>
</event>
<event>
 6    0  0.6687079E+002  0.1184067E+03  0.7546771E-02  0.1245749E+00
         21   -1    0    0  503  501  0.00000000000E+00  0.00000000000E+00  0.27991233041E+03  0.27991233041E+03  0.00000000000E+00 0. -1.
         21   -1    0    0  504  502 -0.00000000000E+00 -0.00000000000E+00 -0.39801622348E+03  0.39801622348E+03  0.00000000000E+00 0. -1.
         21    1    1    2  503  506 -0.30726243963E+02  0.41321518028E+02  0.14880883635E+03  0.15746631289E+03  0.00000000000E+00 0. -1.
         21    1    1    2  504  505  0.44012257157E+02  0.28040407780E+02 -0.24670266178E+03  0.25216174686E+03  0.00000000000E+00 0. -1.
         21    1    1    2  505  501 -0.75064504913E+02 -0.14103511616E+03 -0.52731031474E+02  0.16824430322E+03  0.00000000000E+00 0. -1.
         21    1    1    2  506  502  0.61778491719E+02  0.71673190349E+02  0.32520963834E+02  0.10005619093E+03  0.00000000000E+00 0. -1.
<scales pt_clust_3="51.49340" pt_clust_4="52.11749" pt_clust_5="118.40672" pt_clust_6="14000.00000"></scales>
<clustering>
<clus scale="   51.493">  1  3  2 -1</clus>
<clus scale="   52.117">  2  4  1 -1</clus>
<clus scale="  118.407">  2  5  1 -1</clus>
<clus scale="   51.493">  1  3  2 -1</clus>
</clustering>
</event>
<event>
 6    0  0.6687079E+002  0.1831498E+03  0.7546771E-02  0.1164789E+00
         21   -1    0    0  504  501  0.00000000000E+00  0.00000000000E+00  0.53833558072E+03  0.53833558072E+03  0.00000000000E+00 0. -1.
         21   -1    0    0  505  502 -0.00000000000E+00 -0.00000000000E+00 -0.20854316992E+03  0.20854316992E+03  0.00000000000E+00 0. -1.
         21    1    1    2  503  502 -0.31815029841E+02  0.12433110513E+02 -0.98411495788E+02  0.10417101739E+03  0.00000000000E+00 0.  1.
         21    1    1    2  504  506 -0.43533197062E+02  0.15379189144E+02  0.19404834697E+03  0.19946533450E+03  0.00000000000E+00 0. -1.
         21    1    1    2  505  501  0.15335294270E+03  0.12891210637E+03  0.14055836637E+03  0.24472864680E+03  0.00000000000E+00 0. -1.
         21    1    1    2  506  503 -0.78004715801E+02 -0.15672440603E+03  0.93597193249E+02  0.19851375196E+03  0.00000000000E+00 0. -1.
<scales pt_clust_3="34.15814" pt_clust_4="47.03204" pt_clust_5="183.14975" pt_clust_6="14000.00000"></scales>
<clustering>
<clus scale="   34.158">  2  3  1 -1</clus>
<clus scale="   47.032">  1  4  2 -1</clus>
<clus scale="  183.150">  1  5  2 -1</clus>
<clus scale="   47.032">  1  3  2 -1</clus>
</clustering>
</event>
<event>
 6    0  0.6687079E+002  0.2226026E+03  0.7546771E-02  0.1131957E+00
         21   -1    0    0  504  501  0.00000000000E+00  0.00000000000E+00  0.69646770094E+03  0.69646770094E+03  0.00000000000E+00 0. -1.
         21   -1    0    0  505  502 -0.00000000000E+00 -0.00000000000E+00 -0.13481014939E+04  0.13481014939E+04  0.00000000000E+00 0.  1.
         21    1    1    2  503  501  0.13677785515E+03  0.16379710078E+03 -0.93731419901E+03  0.96129890230E+03  0.00000000000E+00 0.  1.
         21    1    1    2  504  506 -0.14828508919E+03 -0.16626306053E+03  0.65999266937E+03  0.69657892345E+03  0.00000000000E+00 0. -1.
         21    1    1    2  505  503 -0.39551034985E+02  0.79760827576E+01 -0.10416302785E+03  0.11170424627E+03  0.00000000000E+00 0.  1.
         21    1    1    2  506  502  0.51058269022E+02 -0.55101230047E+01 -0.27014923543E+03  0.27498712278E+03  0.00000000000E+00 0.  1.
<scales pt_clust_3="14000.00000" pt_clust_4="222.60256" pt_clust_5="40.34727" pt_clust_6="42.53188"></scales>
<clustering>
<clus scale="   40.347">  2  5  1 -1</clus>
<clus scale="   42.532">  2  6  1 -1</clus>
<clus scale="  222.603">  1  4  2 -1</clus>
<clus scale="  222.603">  1  3  2 -1</clus>
</clustering>
</event>
<event>
 6    0  0.6687079E+002  0.7458903E+02  0.7546771E-02  0.1345148E+00
         21   -1    0    0  504  501  0.00000000000E+00  0.00000000000E+00  0.18811681695E+04  0.18811681695E+04  0.00000000000E+00 0.  1.
         21   -1    0    0  501  502 -0.00000000000E+00 -0.00000000000E+00 -0.22225995802E+03  0.22225995802E+03  0.00000000000E+00 0.  1.
         21    1    1    2  503  502 -0.59151876652E+02  0.44624958672E+02 -0.20035244211E+03  0.21361515046E+03  0.00000000000E+00 0.  1.
         21    1    1    2  504  505 -0.42520948586E+02 -0.12523283820E+00  0.15423964664E+04  0.15429824712E+04  0.00000000000E+00 0.  1.
         21    1    1    2  505  506  0.42343813861E+02  0.24094250987E+02  0.13680579947E+03  0.14522175550E+03  0.00000000000E+00 0. -1.
         21    1    1    2  506  503  0.59329011377E+02 -0.68593976821E+02  0.18005838771E+03  0.20160875038E+03  0.00000000000E+00 0.  1.
<scales pt_clust_3="74.58903" pt_clust_4="42.52113" pt_clust_5="34.41825" pt_clust_6="14000.00000"></scales>
<clustering>
<clus scale="   42.521">  1  4  2 -1</clus>
<clus scale="   34.418">  1  5  2 -1</clus>
<clus scale="   74.589">  2  3  1 -1</clus>
<clus scale="   42.521">  1  3  2 -1</clus>
</clustering>
</event>
<event>
 6    0  0.6687079E+002  0.9056173E+02  0.7546771E-02  0.1301497E+00
         21   -1    0    0  506  501  0.00000000000E+00  0.00000000000E+00  0.12015032761E+03  0.12015032761E+03  0.00000000000E+00 0. -1.
         21   -1    0    0  504  502 -0.00000000000E+00 -0.00000000000E+00 -0.43339766902E+03  0.43339766902E+03  0.00000000000E+00 0. -1.
         21    1    1    2  503  501 -0.58003374375E+02 -0.88692820522E+02  0.41528377033E+02  0.11382185181E+03  0.00000000000E+00 0. -1.
         21    1    1    2  504  505  0.59467177765E+02  0.19973815408E+02 -0.65976387164E+02  0.91039454066E+02  0.00000000000E+00 0. -1.
         21    1    1    2  505  503 -0.41881133111E+02  0.82671489892E+02 -0.48472379120E+02  0.10458573559E+03  0.00000000000E+00 0. -1.
         21    1    1    2  506  502  0.40417329720E+02 -0.13952484777E+02 -0.24032695216E+03  0.24410095516E+03  0.00000000000E+00 0. -1.
<scales pt_clust_3="14000.00000" pt_clust_4="77.38646" pt_clust_5="90.56173" pt_clust_6="42.75783"></scales>
<clustering>
<clus scale="   42.758">  2  6  1 -1</clus>
<clus scale="   77.386">  2  4  1 -1</clus>
<clus scale="   90.562">  2  5  1 -1</clus>
<clus scale="   90.562">  1  3  2 -1</clus>
</clustering>
</event>
<event>
 6    0  0.6687079E+002  0.7871213E+02  0.7546771E-02  0.1332746E+00
         21   -1    0    0  503  501  0.00000000000E+00  0.00000000000E+00  0.49862319236E+03  0.49862319236E+03  0.00000000000E+00 0.  1.
         21   -1    0    0  504  502 -0.00000000000E+00 -0.00000000000E+00 -0.15020004382E+04  0.15020004382E+04  0.00000000000E+00 0.  1.
         21    1    1    2  503  506  0.19225021764E+02 -0.57012031040E+02  0.12252658261E+03  0.13650178238E+03  0.00000000000E+00 0. -1.
         21    1    1    2  504  505 -0.77538388940E+02  0.86871930228E+02  0.34258049784E+03  0.36182914687E+03  0.00000000000E+00 0.  1.
         21    1    1    2  505  501  0.12451712660E+01 -0.33470144906E+02 -0.80819283290E+00  0.33503048028E+02  0.00000000000E+00 0.  1.
         21    1    1    2  506  502  0.57068195910E+02  0.36102457177E+01 -0.14676761334E+04  0.14687896533E+04  0.00000000000E+00 0.  1.
<scales pt_clust_3="14000.00000" pt_clust_4="78.71213" pt_clust_5="33.49330" pt_clust_6="57.18129"></scales>
<clustering>
<clus scale="   33.493">  1  5  2 -1</clus>
<clus scale="   57.181">  2  6  1 -1</clus>
<clus scale="   78.712">  1  4  2 -1</clus>
<clus scale="   33.493">  1  3  2 -1</clus>
</clustering>
</event>
<event>
 6    0  0.6687079E+002  0.1057091E+03  0.7546771E-02  0.1268729E+00
         21   -1    0    0  504  501  0.00000000000E+00  0.00000000000E+00  0.15254330700E+03  0.15254330700E+03  0.00000000000E+00 0. -1.
         21   -1    0    0  505  502 -0.00000000000E+00 -0.00000000000E+00 -0.35088573173E+03  0.35088573173E+03  0.00000000000E+00 0.  1.
         21    1    1    2  503  506  0.67557549517E+02  0.98972968679E+02 -0.14631070883E+03  0.18912031764E+03  0.00000000000E+00 0.  1.
         21    1    1    2  504  502 -0.10896851999E+03  0.21814100424E+02  0.38956423153E+02  0.11776075845E+03  0.00000000000E+00 0. -1.
         21    1    1    2  505  503 -0.24433684707E+02 -0.22355084778E+02 -0.68390106634E+02  0.75986587298E+02  0.00000000000E+00 0.  1.
         21    1    1    2  506  501  0.65844655183E+02 -0.98431984325E+02 -0.22598032415E+02  0.12056137534E+03  0.00000000000E+00 0. -1.
<scales pt_clust_3="100.53456" pt_clust_4="14000.00000" pt_clust_5="33.11729" pt_clust_6="105.70909"></scales>
<clustering>
<clus scale="   33.117">  2  5  1 -1</clus>
<clus scale="  100.535">  2  3  1 -1</clus>
<clus scale="  105.709">  2  6  1 -1</clus>
<clus scale="  105.709">  1  3  2 -1</clus>
</clustering>
</event>
<event>
 6    0  0.6687079E+002  0.6890158E+02  0.7546771E-02  0.1363869E+00
         21   -1    0    0  505  501  0.00000000000E+00  0.00000000000E+00  0.83671871299E+02  0.83671871299E+02  0.00000000000E+00 0.  1.
         21   -1    0    0  503  502 -0.00000000000E+00 -0.00000000000E+00 -0.13930092163E+04  0.13930092163E+04  0.00000000000E+00 0. -1.
         21    1    1    2  503  506  0.11364600825E+02 -0.57190365961E+02 -0.95208048909E+03  0.95386432464E+03  0.00000000000E+00 0. -1.
         21    1    1    2  504  502 -0.48768086230E+02 -0.80948825598E+01 -0.10700165867E+03  0.11786945455E+03  0.00000000000E+00 0. -1.
         21    1    1    2  505  504 -0.32536427343E+02 -0.15690945003E+02  0.63716851107E+02  0.73243852809E+02  0.00000000000E+00 0.  1.
         21    1    1    2  506  501  0.69939912748E+02  0.80976193524E+02 -0.31397204837E+03  0.33170345562E+03  0.00000000000E+00 0. -1.
<scales pt_clust_3="58.87566" pt_clust_4="14000.00000" pt_clust_5="36.12236" pt_clust_6="68.90158"></scales>
<clustering>
<clus scale="   36.122">  1  5  2 -1</clus>
<clus scale="   58.876">  2  3  1 -1</clus>
<clus scale="   68.902">  2  6  1 -1</clus>
<clus scale="   36.122">  1  3  2 -1</clus>
</clustering>
</event>
<event>
 6    0  0.6687079E+002  0.1489821E+03  0.7546771E-02  0.1201729E+00
         21   -1    0    0  506  501  0.00000000000E+00  0.00000000000E+00  0.17107958489E+03  0.17107958489E+03  0.00000000000E+00 0. -1.
         21   -1    0    0  503  502 -0.00000000000E+00 -0.00000000000E+00 -0.11723701755E+04  0.11723701755E+04  0.00000000000E+00 0.  1.
         21    1    1    2  503  501 -0.40705138730E+02 -0.50086722626E+02 -0.62972518552E+02  0.90172757500E+02  0.00000000000E+00 0. -1.
         21    1    1    2  504  502  0.92139774367E+02 -0.97142380936E+02 -0.10449757894E+04  0.10535182868E+04  0.00000000000E+00 0.  1.
         21    1    1    2  505  504 -0.40408831379E+02  0.29062759855E+02  0.24999817749E+02  0.55700166528E+02  0.00000000000E+00 0. -1.
         21    1    1    2  506  505 -0.11025804258E+02  0.11816634371E+03  0.81657899568E+02  0.14405854958E+03  0.00000000000E+00 0. -1.
<scales pt_clust_3="64.54137" pt_clust_4="134.12653" pt_clust_5="41.99887" pt_clust_6="41.99887"></scales>
<clustering>
<clus scale="   41.999">  5  6 -1 -1</clus>
<clus scale="   64.541">  1  3  2 -1</clus>
<clus scale="  134.127">  2  4  1 -1</clus>
<clus scale="   64.541">  1  3  2 -1</clus>
</clustering>
</event>
<event>
 6    0  0.6687079E+002  0.1343242E+03  0.7546771E-02  0.1221177E+00
         21   -1    0    0  506  501  0.00000000000E+00  0.00000000000E+00  0.39954784496E+03  0.39954784496E+03  0.00000000000E+00 0. -1.
         21   -1    0    0  503  502 -0.00000000000E+00 -0.00000000000E+00 -0.80531498779E+02  0.80531498779E+02  0.00000000000E+00 0.  1.
         21    1    1    2  503  505 -0.66474705807E+01 -0.35689176874E+02  0.29023275081E+02  0.46478561805E+02  0.00000000000E+00 0. -1.
         21    1    1    2  504  501 -0.37057255432E+02  0.20999236606E+02  0.48723611327E+02  0.64716291759E+02  0.00000000000E+00 0.  1.
         21    1    1    2  505  504  0.17615318782E+02 -0.91491295705E+02 -0.11116196021E+02  0.93832438205E+02  0.00000000000E+00 0.  1.
         21    1    1    2  506  502  0.26089407230E+02  0.10618123597E+03  0.25238565579E+03  0.27505205197E+03  0.00000000000E+00 0. -1.
<scales pt_clust_3="34.59343" pt_clust_4="42.59352" pt_clust_5="34.59343" pt_clust_6="122.35868"></scales>
<clustering>
<clus scale="   34.593">  3  5 -1 -1</clus>
<clus scale="   42.594">  1  4  2 -1</clus>
<clus scale="  122.359">  1  6  2 -1</clus>
<clus scale="   42.594">  1  3  2 -1</clus>
</clustering>
</event>
<event>
 6    0  0.6687079E+002  0.1005436E+03  0.7546771E-02  0.1279157E+00
         21   -1    0    0  504  501  0.00000000000E+00  0.00000000000E+00  0.95493017786E+03  0.95493017786E+03  0.00000000000E+00 0.  1.
         21   -1    0    0  503  502 -0.00000000000E+00 -0.00000000000E+00 -0.11397398954E+03  0.11397398954E+03  0.00000000000E+00 0.  1.
         21    1    1    2  503  505 -0.31162519104E+02  0.42244916020E+00 -0.73001146044E+02  0.79375363835E+02  0.00000000000E+00 0.  1.
         21    1    1    2  504  502  0.69104165226E+02 -0.84758575541E+02  0.53811780279E+03  0.54911762989E+03  0.00000000000E+00 0.  1.
         21    1    1    2  505  506 -0.63995142667E+01  0.94614763937E+02  0.39974854369E+02  0.10291208053E+03  0.00000000000E+00 0.  1.
         21    1    1    2  506  501 -0.31542131855E+02 -0.10278637556E+02  0.33586467721E+03  0.33749909314E+03  0.00000000000E+00 0.  1.
<scales pt_clust_3="31.16538" pt_clust_4="100.54361" pt_clust_5="14000.00000" pt_clust_6="33.81330"></scales>
<clustering>
<clus scale="   31.165">  2  3  1 -1</clus>
<clus scale="   33.813">  1  6  2 -1</clus>
<clus scale="  100.544">  1  4  2 -1</clus>
<clus scale="   33.813">  1  3  2 -1</clus>
</clustering>
</event>
<event>
 6    0  0.6687079E+002  0.9473883E+02  0.7546771E-02  0.1291765E+00
         21   -1    0    0  503  501  0.00000000000E+00  0.00000000000E+00  0.17930839250E+03  0.17930839250E+03  0.00000000000E+00 0. -1.
         21   -1    0    0  506  502 -0.00000000000E+00 -0.00000000000E+00 -0.27968443947E+03  0.27968443947E+03  0.00000000000E+00 0. -1.
         21    1    1    2  503  502 -0.10437649142E+03 -0.68883527141E+02  0.42000394090E+02  0.13192204280E+03  0.00000000000E+00 0. -1.
         21    1    1    2  504  505  0.72639177186E+02  0.19465301148E+02  0.13267797128E+02  0.76363488996E+02  0.00000000000E+00 0. -1.
         21    1    1    2  505  501 -0.15869813758E+02  0.26961972828E+02  0.38468351925E+02  0.49584403468E+02  0.00000000000E+00 0. -1.
         21    1    1    2  506  504  0.47607127992E+02  0.22456253164E+02 -0.19411259011E+03  0.20112289671E+03  0.00000000000E+00 0. -1.
<scales pt_clust_3="14000.00000" pt_clust_4="94.73883" pt_clust_5="31.28576" pt_clust_6="52.56999"></scales>
<clustering>
<clus scale="   31.286">  1  5  2 -1</clus>
<clus scale="   52.570">  2  6  1 -1</clus>
<clus scale="   94.739">  1  4  2 -1</clus>
<clus scale="   31.286">  1  3  2 -1</clus>
</clustering>
</event>
<event>
 6    0  0.6687079E+002  0.1610881E+03  0.7546771E-02  0.1187474E+00
         21   -1    0    0  503  501  0.00000000000E+00  0.00000000000E+00  0.62203208454E+03  0.62203208454E+03  0.00000000000E+00 0. -1.
         21   -1    0    0  504  502 -0.00000000000E+00 -0.00000000000E+00 -0.17173309260E+03  0.17173309260E+03  0.00000000000E+00 0. -1.
         21    1    1    2  503  506  0.16813477913E+03 -0.64349613656E+02  0.21201481920E+03  0.27813748451E+03  0.00000000000E+00 0. -1.
         21    1    1    2  504  505 -0.55945825328E+02  0.10309069170E+03  0.62117318618E+02  0.13272598600E+03  0.00000000000E+00 0.  1.
         21    1    1    2  505  501 -0.15448217898E+03 -0.11058474254E+02  0.24960376597E+03  0.29375001866E+03  0.00000000000E+00 0. -1.
         21    1    1    2  506  502  0.42293225178E+02 -0.27682603786E+02 -0.73436911843E+02  0.89151687978E+02  0.00000000000E+00 0.  1.
<scales pt_clust_3="161.08808" pt_clust_4="100.35730" pt_clust_5="14000.00000" pt_clust_6="50.54744"></scales>
<clustering>
<clus scale="   50.547">  2  6  1 -1</clus>
<clus scale="  100.357">  2  4  1 -1</clus>
<clus scale="  161.088">  2  3  1 -1</clus>
<clus scale="  161.088">  1  3  2 -1</clus>
</clustering>
</event>
<event>
 6    0  0.6687079E+002  0.7778434E+02  0.7546771E-02  0.1335459E+00
         21   -1    0    0  504  501  0.00000000000E+00  0.00000000000E+00  0.20229471003E+03  0.20229471003E+03  0.00000000000E+00 0.  1.
         21   -1    0    0  506  502 -0.00000000000E+00 -0.00000000000E+00 -0.91767241594E+03  0.91767241594E+03  0.00000000000E+00 0. -1.
         21    1    1    2  503  502 -0.14946291700E+01  0.98834255623E+02 -0.56232874380E+03  0.57095013802E+03  0.00000000000E+00 0. -1.
         21    1    1    2  504  503  0.94017869896E+02 -0.34549041366E+01 -0.21479803639E+03  0.23449838520E+03  0.00000000000E+00 0. -1.
         21    1    1    2  505  501 -0.55872152618E+02 -0.54760427187E+02  0.17337376115E+03  0.19020742067E+03  0.00000000000E+00 0.  1.
         21    1    1    2  506  505 -0.36651088108E+02 -0.40618924299E+02 -0.11162468687E+03  0.12431118208E+03  0.00000000000E+00 0. -1.
<scales pt_clust_3="75.24454" pt_clust_4="14000.00000" pt_clust_5="77.78434" pt_clust_6="54.71014"></scales>
<clustering>
<clus scale="   54.710">  2  6  1 -1</clus>
<clus scale="   75.245">  2  3  1 -1</clus>
<clus scale="   77.784">  1  5  2 -1</clus>
<clus scale="   77.784">  1  3  2 -1</clus>
</clustering>
</event>
<event>
 6    0  0.6687079E+002  0.9295763E+02  0.7546771E-02  0.1295843E+00
         21   -1    0    0  504  501  0.00000000000E+00  0.00000000000E+00  0.14752978383E+04  0.14752978383E+04  0.00000000000E+00 0.  1.
         21   -1    0    0  506  502 -0.00000000000E+00 -0.00000000000E+00 -0.32469280370E+03  0.32469280370E+03  0.00000000000E+00 0.  1.
         21    1    1    2  503  502 -0.38793452468E+02  0.29110211072E+02 -0.16081433276E+02  0.51097444547E+02  0.00000000000E+00 0.  1.
         21    1    1    2  504  505 -0.29893115315E+01 -0.74429378514E+02  0.14210859449E+04  0.14230368692E+04  0.00000000000E+00 0.  1.
         21    1    1    2  505  503  0.97782856445E+02 -0.76983102481E+01 -0.55883380698E+02  0.11288801191E+03  0.00000000000E+00 0.  1.
         21    1    1    2  506  501 -0.56000092445E+02  0.53017477689E+02 -0.19851609628E+03  0.21296831636E+03  0.00000000000E+00 0.  1.
<scales pt_clust_3="48.50089" pt_clust_4="74.39725" pt_clust_5="92.95763" pt_clust_6="14000.00000"></scales>
<clustering>
<clus scale="   48.501">  2  3  1 -1</clus>
<clus scale="   74.397">  1  4  2 -1</clus>
<clus scale="   92.958">  1  5  2 -1</clus>
<clus scale="   74.397">  1  3  2 -1</clus>
</clustering>
</event>
<event>
 6    0  0.6687079E+002  0.8176752E+02  0.7546771E-02  0.1324109E+00
         21   -1    0    0  505  501  0.00000000000E+00  0.00000000000E+00  0.65887534168E+03  0.65887534168E+03  0.00000000000E+00 0. -1.
         21   -1    0    0  503  502 -0.00000000000E+00 -0.00000000000E+00 -0.15043870566E+03  0.15043870566E+03  0.00000000000E+00 0. -1.
         21    1    1    2  503  506 -0.72478225335E+01 -0.46717404605E+02 -0.39562653627E+02  0.61646170899E+02  0.00000000000E+00 0. -1.
         21    1    1    2  504  502 -0.57999394075E+01  0.13307821648E+03 -0.21457156236E+02  0.13492168303E+03  0.00000000000E+00 0. -1.
         21    1    1    2  505  504  0.56122485737E+02 -0.58426055564E+02  0.55289833807E+03  0.55880220974E+03  0.00000000000E+00 0. -1.
         21    1    1    2  506  501 -0.43074723796E+02 -0.27934756309E+02  0.16558107820E+02  0.53943983675E+02  0.00000000000E+00 0. -1.
<scales pt_clust_3="47.27628" pt_clust_4="14000.00000" pt_clust_5="81.76752" pt_clust_6="57.61738"></scales>
<clustering>
<clus scale="   47.276">  2  3  1 -1</clus>
<clus scale="   57.617">  2  6  1 -1</clus>
<clus scale="   81.768">  1  5  2 -1</clus>
<clus scale="   81.768">  1  3  2 -1</clus>
</clustering>
</event>
<event>
 6    0  0.6687079E+002  0.1356663E+03  0.7546771E-02  0.1219282E+00
         21   -1    0    0  505  501  0.00000000000E+00  0.00000000000E+00  0.55839812176E+03  0.55839812176E+03  0.00000000000E+00 0.  1.
         21   -1    0    0  504  502 -0.00000000000E+00 -0.00000000000E+00 -0.35392733954E+03  0.35392733954E+03  0.00000000000E+00 0.  1.
         21    1    1    2  503  502 -0.12485830936E+03 -0.87739295562E+02 -0.21222909585E+03  0.26139810735E+03  0.00000000000E+00 0.  1.
         21    1    1    2  504  506  0.13082386678E+02  0.27772245748E+02  0.56990885078E+01  0.31223806381E+02  0.00000000000E+00 0.  1.
         21    1    1    2  505  503  0.15611332313E+03 -0.30691132393E+02 -0.34597656593E+02  0.16281987934E+03  0.00000000000E+00 0.  1.
         21    1    1    2  506  501 -0.44337400449E+02  0.90658182207E+02  0.44559844615E+03  0.45688366823E+03  0.00000000000E+00 0.  1.
<scales pt_clust_3="135.66632" pt_clust_4="30.69929" pt_clust_5="14000.00000" pt_clust_6="101.23767"></scales>
<clustering>
<clus scale="   30.699">  2  4  1 -1</clus>
<clus scale="  101.238">  1  6  2 -1</clus>
<clus scale="  135.666">  2  3  1 -1</clus>
<clus scale="  101.238">  1  3  2 -1</clus>
</clustering>
</event>
<event>
 6    0  0.6687079E+002  0.1009253E+03  0.7546771E-02  0.1278362E+00
         21   -1    0    0  506  501  0.00000000000E+00  0.00000000000E+00  0.61272796075E+03  0.61272796075E+03  0.00000000000E+00 0. -1.
         21   -1    0    0  503  502 -0.00000000000E+00 -0.00000000000E+00 -0.13065447334E+03  0.13065447334E+03  0.00000000000E+00 0. -1.
         21    1    1    2  503  505  0.18230434946E+02 -0.85768004603E+02 -0.12628651689E+02  0.88588837984E+02  0.00000000000E+00 0. -1.
         21    1    1    2  504  502 -0.58588916930E+02  0.17605412771E+02  0.59676735440E+01  0.61467266682E+02  0.00000000000E+00 0. -1.
         21    1    1    2  505  501 -0.82502200637E+01 -0.72495936705E+02  0.42536176057E+03  0.43157427441E+03  0.00000000000E+00 0. -1.
         21    1    1    2  506  504  0.48608702048E+02  0.14065852854E+03  0.63372704975E+02  0.16175205501E+03  0.00000000000E+00 0. -1.
<scales pt_clust_3="14000.00000" pt_clust_4="61.17689" pt_clust_5="72.65855" pt_clust_6="100.92531"></scales>
<clustering>
<clus scale="   61.177">  2  4  1 -1</clus>
<clus scale="   72.659">  1  5  2 -1</clus>
<clus scale="  100.925">  1  6  2 -1</clus>
<clus scale="   72.659">  1  3  2 -1</clus>
</clustering>
</event>
<event>
 6    0  0.6687079E+002  0.9224594E+02  0.7546771E-02  0.1297502E+00
         21   -1    0    0  505  501  0.00000000000E+00  0.00000000000E+00  0.18551458061E+04  0.18551458061E+04  0.00000000000E+00 0. -1.
         21   -1    0    0  504  502 -0.00000000000E+00 -0.00000000000E+00 -0.99571837331E+02  0.99571837331E+02  0.00000000000E+00 0. -1.
         21    1    1    2  503  501 -0.49407286850E+02  0.41487563785E+02  0.61958238347E+02  0.89448986813E+02  0.00000000000E+00 0. -1.
         21    1    1    2  504  503 -0.33650454907E+02  0.16536694899E+02 -0.50024899887E+02  0.62516445855E+02  0.00000000000E+00 0. -1.
         21    1    1    2  505  506  0.20113110471E+02 -0.94077070984E+02  0.17252348529E+04  0.17279150240E+04  0.00000000000E+00 0. -1.
         21    1    1    2  506  502  0.62944631287E+02  0.36052812299E+02  0.18405777424E+02  0.74837186780E+02  0.00000000000E+00 0. -1.
<scales pt_clust_3="92.24594" pt_clust_4="37.49420" pt_clust_5="14000.00000" pt_clust_6="62.25215"></scales>
<clustering>
<clus scale="   37.494">  2  4  1 -1</clus>
<clus scale="   62.252">  2  6  1 -1</clus>
<clus scale="   92.246">  2  3  1 -1</clus>
<clus scale="   92.246">  1  3  2 -1</clus>
</clustering>
</event>
<event>
 6    0  0.6687079E+002  0.1330581E+03  0.7546771E-02  0.1222987E+00
         21   -1    0    0  506  501  0.00000000000E+00  0.00000000000E+00  0.11326237734E+03  0.11326237734E+03  0.00000000000E+00 0. -1.
         21   -1    0    0  504  502 -0.00000000000E+00 -0.00000000000E+00 -0.80619358625E+03  0.80619358625E+03  0.00000000000E+00 0. -1.
         21    1    1    2  503  501  0.13884892810E+02 -0.14051578908E+03 -0.20335517837E+03  0.24756979985E+03  0.00000000000E+00 0. -1.
         21    1    1    2  504  503  0.86019378925E+02  0.11335401180E+03 -0.41514913870E+03  0.43885905813E+03  0.00000000000E+00 0. -1.
         21    1    1    2  505  502 -0.74971824318E+02 -0.40266549154E+02 -0.12058785429E+03  0.14759268283E+03  0.00000000000E+00 0. -1.
         21    1    1    2  506  505 -0.24932447417E+02  0.67428326431E+02  0.46160962458E+02  0.85434422773E+02  0.00000000000E+00 0. -1.
<scales pt_clust_3="133.05806" pt_clust_4="14000.00000" pt_clust_5="84.72986" pt_clust_6="71.89024"></scales>
<clustering>
<clus scale="   71.890">  1  6  2 -1</clus>
<clus scale="   84.730">  1  5  2 -1</clus>
<clus scale="  133.058">  1  3  2 -1</clus>
<clus scale="   71.890">  1  3  2 -1</clus>
</clustering>
</event>
<event>
 6    0  0.6687079E+002  0.1026212E+03  0.7546771E-02  0.1274878E+00
         21   -1    0    0  503  501  0.00000000000E+00  0.00000000000E+00  0.17347451912E+03  0.17347451912E+03  0.00000000000E+00 0. -1.
         21   -1    0    0  506  502 -0.00000000000E+00 -0.00000000000E+00 -0.30784576064E+03  0.30784576064E+03  0.00000000000E+00 0. -1.
         21    1    1    2  503  505  0.86091978745E+01  0.36913930223E+02  0.13571369558E+02  0.40260881811E+02  0.00000000000E+00 0.  1.
         21    1    1    2  504  501 -0.18536458325E+02 -0.66623232201E+02  0.92681889865E+02  0.11563817737E+03  0.00000000000E+00 0. -1.
         21    1    1    2  505  502  0.81491752698E+02  0.76597638753E+02 -0.20339409214E+03  0.23211475769E+03  0.00000000000E+00 0. -1.
         21    1    1    2  506  504 -0.71564492247E+02 -0.46888336774E+02 -0.37230408806E+02  0.93306462884E+02  0.00000000000E+00 0. -1.
<scales pt_clust_3="37.90457" pt_clust_4="42.25416" pt_clust_5="102.62124" pt_clust_6="14000.00000"></scales>
<clustering>
<clus scale="   37.905">  1  3  2 -1</clus>
<clus scale="   42.254">  1  4  2 -1</clus>
<clus scale="  102.621">  2  5  1 -1</clus>
<clus scale="   37.905">  1  3  2 -1</clus>
</clustering>
</event>
<event>
 6    0  0.6687079E+002  0.9440696E+02  0.7546771E-02  0.1292517E+00
         21   -1    0    0  506  501  0.00000000000E+00  0.00000000000E+00  0.43071196330E+03  0.43071196330E+03  0.00000000000E+00 0.  1.
         21   -1    0    0  505  502 -0.00000000000E+00 -0.00000000000E+00 -0.79947412544E+03  0.79947412544E+03  0.00000000000E+00 0.  1.
         21    1    1    2  503  501  0.70203493925E+02 -0.62814526169E+02  0.40930376388E+03  0.42000448377E+03  0.00000000000E+00 0.  1.
         21    1    1    2  504  503 -0.87284077202E+02  0.75097732932E+02 -0.53718699886E+03  0.54938879800E+03  0.00000000000E+00 0.  1.
         21    1    1    2  505  504 -0.34336997688E+02 -0.16994845716E+02 -0.16235466620E+03  0.16681394375E+03  0.00000000000E+00 0.  1.
         21    1    1    2  506  502  0.51417580964E+02  0.47116389527E+01 -0.78524260953E+02  0.93978863219E+02  0.00000000000E+00 0.  1.
<scales pt_clust_3="94.40696" pt_clust_4="14000.00000" pt_clust_5="38.31259" pt_clust_6="46.81451"></scales>
<clustering>
<clus scale="   38.313">  2  5  1 -1</clus>
<clus scale="   46.815">  2  6  1 -1</clus>
<clus scale="   94.407">  1  3  2 -1</clus>
<clus scale="   94.407">  1  3  2 -1</clus>
</clustering>
</event>
<event>
 6    0  0.6687079E+002  0.1337860E+03  0.7546771E-02  0.1221944E+00
         21   -1    0    0  505  501  0.00000000000E+00  0.00000000000E+00  0.10141168115E+04  0.10141168115E+04  0.00000000000E+00 0.  1.
         21   -1    0    0  504  502 -0.00000000000E+00 -0.00000000000E+00 -0.16562130236E+04  0.16562130236E+04  0.00000000000E+00 0. -1.
         21    1    1    2  503  506 -0.10643028981E+03  0.11776885916E+03 -0.26123012184E+03  0.30567644223E+03  0.00000000000E+00 0. -1.
         21    1    1    2  504  501  0.41849698408E+02 -0.74290644828E+01 -0.63366057273E+02  0.76301018802E+02  0.00000000000E+00 0. -1.
         21    1    1    2  505  503 -0.59943216733E+01 -0.44164807331E+02  0.98312464641E+03  0.98413440773E+03  0.00000000000E+00 0.  1.
         21    1    1    2  506  502  0.70574913071E+02 -0.66174987350E+02 -0.13006246793E+04  0.13042179664E+04  0.00000000000E+00 0. -1.
<scales pt_clust_3="14000.00000" pt_clust_4="42.50398" pt_clust_5="44.57030" pt_clust_6="133.78599"></scales>
<clustering>
<clus scale="   42.504">  2  4  1 -1</clus>
<clus scale="   44.570">  1  5  2 -1</clus>
<clus scale="  133.786">  2  6  1 -1</clus>
<clus scale="   44.570">  1  3  2 -1</clus>
</clustering>
</event>
<event>
 6    0  0.6687079E+002  0.1715848E+03  0.7546771E-02  0.1176205E+00
         21   -1    0    0  502  501  0.00000000000E+00  0.00000000000E+00  0.12736830328E+03  0.12736830328E+03  0.00000000000E+00 0.  1.
         21   -1    0    0  506  502 -0.00000000000E+00 -0.00000000000E+00 -0.12591142096E+04  0.12591142096E+04  0.00000000000E+00 0.  1.
         21    1    1    2  503  505 -0.25790428030E+02  0.30740994449E+02 -0.23742951124E+03  0.24079644458E+03  0.00000000000E+00 0.  1.
         21    1    1    2  504  501 -0.14946081464E+02  0.53115670838E+02  0.96496685593E+02  0.11115876110E+03  0.00000000000E+00 0.  1.
         21    1    1    2  505  504  0.11555326661E+03 -0.15424454789E+03 -0.70267149699E+03  0.72862279038E+03  0.00000000000E+00 0.  1.
         21    1    1    2  506  503 -0.74816757111E+02  0.70387882605E+02 -0.28814158367E+03  0.30590451681E+03  0.00000000000E+00 0.  1.
<scales pt_clust_3="30.02697" pt_clust_4="55.17844" pt_clust_5="164.72173" pt_clust_6="30.02697"></scales>
<clustering>
<clus scale="   30.027">  3  6 -1 -1</clus>
<clus scale="   55.178">  1  4  2 -1</clus>
<clus scale="  164.722">  1  5  2 -1</clus>
<clus scale="   55.178">  1  3  2 -1</clus>
</clustering>
</event>
<event>
 6    0  0.6687079E+002  0.6803272E+02  0.7546771E-02  0.1366914E+00
         21   -1    0    0  504  501  0.00000000000E+00  0.00000000000E+00  0.42586869132E+03  0.42586869132E+03  0.00000000000E+00 0.  1.
         21   -1    0    0  503  502 -0.00000000000E+00 -0.00000000000E+00 -0.93689729493E+03  0.93689729493E+03  0.00000000000E+00 0. -1.
         21    1    1    2  503  505  0.41070493164E+02  0.17854856754E+02 -0.14867982859E+03  0.15527804979E+03  0.00000000000E+00 0.  1.
         21    1    1    2  504  506 -0.12183234227E+03 -0.26984412752E+02 -0.46598916818E+02  0.13320186637E+03  0.00000000000E+00 0.  1.
         21    1    1    2  505  501  0.55223433296E+02  0.36965974387E+02  0.37583771577E+03  0.38166752474E+03  0.00000000000E+00 0.  1.
         21    1    1    2  506  502  0.25538415814E+02 -0.27836418389E+02 -0.69158757398E+03  0.69261854535E+03  0.00000000000E+00 0. -1.
<scales pt_clust_3="56.92874" pt_clust_4="68.03272" pt_clust_5="14000.00000" pt_clust_6="37.77667"></scales>
<clustering>
<clus scale="   37.777">  2  6  1 -1</clus>
<clus scale="   56.929">  2  3  1 -1</clus>
<clus scale="   68.033">  2  4  1 -1</clus>
<clus scale="   68.033">  1  3  2 -1</clus>
</clustering>
</event>
<event>
 6    0  0.6687079E+002  0.1610489E+03  0.7546771E-02  0.1187518E+00
         21   -1    0    0  503  501  0.00000000000E+00  0.00000000000E+00  0.72186843482E+03  0.72186843482E+03  0.00000000000E+00 0. -1.
         21   -1    0    0  504  502 -0.00000000000E+00 -0.00000000000E+00 -0.19745234724E+03  0.19745234724E+03  0.00000000000E+00 0. -1.
         21    1    1    2  503  505  0.60508722112E+02  0.41221558522E+02  0.94410551521E+02  0.11947332161E+03  0.00000000000E+00 0.  1.
         21    1    1    2  504  506 -0.15690919911E+03 -0.37855467415E+02 -0.13216541491E+03  0.20861742515E+03  0.00000000000E+00 0. -1.
         21    1    1    2  505  502  0.49389189391E+02 -0.83740581919E+01  0.33079584847E+02  0.60030623959E+02  0.00000000000E+00 0.  1.
         21    1    1    2  506  501  0.47011287605E+02  0.50079670856E+01  0.52909136613E+03  0.53119941134E+03  0.00000000000E+00 0. -1.
<scales pt_clust_3="43.85857" pt_clust_4="152.07010" pt_clust_5="43.85857" pt_clust_6="47.27728"></scales>
<clustering>
<clus scale="   43.859">  3  5 -1 -1</clus>
<clus scale="   47.277">  1  6  2 -1</clus>
<clus scale="  152.070">  2  4  1 -1</clus>
<clus scale="   47.277">  1  3  2 -1</clus>
</clustering>
</event>
<event>
 6    0  0.6687079E+002  0.1214895E+03  0.7546771E-02  0.1240660E+00
         21   -1    0    0  504  501  0.00000000000E+00  0.00000000000E+00  0.12400448685E+03  0.12400448685E+03  0.00000000000E+00 0.  1.
         21   -1    0    0  503  502 -0.00000000000E+00 -0.00000000000E+00 -0.32374263816E+03  0.32374263816E+03  0.00000000000E+00 0.  1.
         21    1    1    2  503  505  0.38655003470E+02 -0.11261074766E+02 -0.75465922686E+02  0.85534359090E+02  0.00000000000E+00 0.  1.
         21    1    1    2  504  506  0.10508816520E+03  0.51029472712E+02  0.18585103544E+02  0.11829173946E+03  0.00000000000E+00 0.  1.
         21    1    1    2  505  501 -0.38940968502E+02  0.47193745823E+02 -0.51007500593E+02  0.79658105610E+02  0.00000000000E+00 0.  1.
         21    1    1    2  506  502 -0.10480220017E+03 -0.86962143770E+02 -0.91849831572E+02  0.16426292086E+03  0.00000000000E+00 0.  1.
<scales pt_clust_3="40.26191" pt_clust_4="121.48952" pt_clust_5="52.59756" pt_clust_6="14000.00000"></scales>
<clustering>
<clus scale="   40.262">  2  3  1 -1</clus>
<clus scale="   52.598">  2  5  1 -1</clus>
<clus scale="  121.490">  1  4  2 -1</clus>
<clus scale="  121.490">  1  3  2 -1</clus>
</clustering>
</event>
<event>
 6    0  0.6687079E+002  0.1788364E+03  0.7546771E-02  0.1168934E+00
         21   -1    0    0  505  501  0.00000000000E+00  0.00000000000E+00  0.17646878214E+03  0.17646878214E+03  0.00000000000E+00 0.  1.
         21   -1    0    0  506  502 -0.00000000000E+00 -0.00000000000E+00 -0.51446598863E+03  0.51446598863E+03  0.00000000000E+00 0.  1.
         21    1    1    2  503  502 -0.39203408519E+02  0.12584564063E+03 -0.75676544997E+02  0.15199003904E+03  0.00000000000E+00 0.  1.
         21    1    1    2  504  501  0.31144252057E+02 -0.15478662344E+03  0.51984597232E+02  0.16622653694E+03  0.00000000000E+00 0.  1.
         21    1    1    2  505  503 -0.61045246643E+02  0.38319435020E+02 -0.26833743178E+02  0.76908718692E+02  0.00000000000E+00 0.  1.
         21    1    1    2  506  504  0.69104403105E+02 -0.93784522099E+01 -0.28747151556E+03  0.29580947610E+03  0.00000000000E+00 0.  1.
<scales pt_clust_3="51.69041" pt_clust_4="164.60907" pt_clust_5="51.69041" pt_clust_6="69.73789"></scales>
<clustering>
<clus scale="   51.690">  3  5 -1 -1</clus>
<clus scale="   69.738">  2  6  1 -1</clus>
<clus scale="  164.609">  1  4  2 -1</clus>
<clus scale="  164.609">  1  3  2 -1</clus>
</clustering>
</event>
<event>
 6    0  0.6687079E+002  0.7619184E+02  0.7546771E-02  0.1340220E+00
         21   -1    0    0  503  501  0.00000000000E+00  0.00000000000E+00  0.12121825363E+03  0.12121825363E+03  0.00000000000E+00 0.  1.
         21   -1    0    0  504  502 -0.00000000000E+00 -0.00000000000E+00 -0.27269849208E+03  0.27269849208E+03  0.00000000000E+00 0.  1.
         21    1    1    2  503  505  0.12941722451E+01  0.30117571851E+02  0.44417538071E+02  0.53681101929E+02  0.00000000000E+00 0.  1.
         21    1    1    2  504  501  0.10830064577E+03  0.24209109584E+02 -0.78457456306E+02  0.13590689207E+03  0.00000000000E+00 0.  1.
         21    1    1    2  505  506 -0.52817125406E+02 -0.55713730611E+02 -0.33025218362E+01  0.76841233496E+02  0.00000000000E+00 0.  1.
         21    1    1    2  506  502 -0.56777692611E+02  0.13870491753E+01 -0.11413779837E+03  0.12748751822E+03  0.00000000000E+00 0.  1.
<scales pt_clust_3="30.14536" pt_clust_4="14000.00000" pt_clust_5="76.19184" pt_clust_6="56.81143"></scales>
<clustering>
<clus scale="   30.145">  1  3  2 -1</clus>
<clus scale="   56.811">  2  6  1 -1</clus>
<clus scale="   76.192">  1  5  2 -1</clus>
<clus scale="   30.145">  1  3  2 -1</clus>
</clustering>
</event>
<event>
 6    0  0.6687079E+002  0.7590583E+02  0.7546771E-02  0.1341089E+00
         21   -1    0    0  505  501  0.00000000000E+00  0.00000000000E+00  0.62395297664E+02  0.62395297664E+02  0.00000000000E+00 0.  1.
         21   -1    0    0  506  502 -0.00000000000E+00 -0.00000000000E+00 -0.13528899269E+04  0.13528899269E+04  0.00000000000E+00 0.  1.
         21    1    1    2  503  502  0.61550298246E+02 -0.41100161271E+02 -0.11150399887E+04  0.11174935521E+04  0.00000000000E+00 0.  1.
         21    1    1    2  504  503 -0.12738106607E+03  0.74809289379E+01 -0.15369775711E+03  0.19976211060E+03  0.00000000000E+00 0.  1.
         21    1    1    2  505  504  0.45117767259E+02 -0.23360012192E+01  0.93924710373E+01  0.46144212381E+02  0.00000000000E+00 0.  1.
         21    1    1    2  506  501  0.20713000570E+02  0.35955233552E+02 -0.31149354461E+02  0.51885349529E+02  0.00000000000E+00 0.  1.
<scales pt_clust_3="75.90583" pt_clust_4="14000.00000" pt_clust_5="58.64686" pt_clust_6="41.49466"></scales>
<clustering>
<clus scale="   41.495">  1  6  2 -1</clus>
<clus scale="   58.647">  1  5  2 -1</clus>
<clus scale="   75.906">  2  3  1 -1</clus>
<clus scale="   41.495">  1  3  2 -1</clus>
</clustering>
</event>
<event>
 6    0  0.6687079E+002  0.7202009E+02  0.7546771E-02  0.1353355E+00
         21   -1    0    0  506  501  0.00000000000E+00  0.00000000000E+00  0.19812881402E+03  0.19812881402E+03  0.00000000000E+00 0. -1.
         21   -1    0    0  504  502 -0.00000000000E+00 -0.00000000000E+00 -0.93308974082E+03  0.93308974082E+03  0.00000000000E+00 0. -1.
         21    1    1    2  503  505  0.57327689318E+02  0.34835970174E+02 -0.13465782304E+03  0.15044180963E+03  0.00000000000E+00 0. -1.
         21    1    1    2  504  501 -0.72462363997E+02 -0.73922023107E+02 -0.16115002346E+03  0.19153221598E+03  0.00000000000E+00 0. -1.
         21    1    1    2  505  502  0.69590183823E+02  0.96649886310E+01 -0.60663578117E+03  0.61069073735E+03  0.00000000000E+00 0. -1.
         21    1    1    2  506  503 -0.54455509144E+02  0.29421064301E+02  0.16748270087E+03  0.17855379187E+03  0.00000000000E+00 0. -1.
<scales pt_clust_3="59.66876" pt_clust_4="14000.00000" pt_clust_5="72.02009" pt_clust_6="61.89508"></scales>
<clustering>
<clus scale="   61.895">  1  6  2 -1</clus>
<clus scale="   59.669">  1  3  2 -1</clus>
<clus scale="   72.020">  2  5  1 -1</clus>
<clus scale="   61.895">  1  3  2 -1</clus>
</clustering>
</event>
<event>
 6    0  0.6687079E+002  0.1253069E+03  0.7546771E-02  0.1234590E+00
         21   -1    0    0  503  501  0.00000000000E+00  0.00000000000E+00  0.46845003918E+03  0.46845003918E+03  0.00000000000E+00 0.  1.
         21   -1    0    0  506  502 -0.00000000000E+00 -0.00000000000E+00 -0.68435867315E+02  0.68435867315E+02  0.00000000000E+00 0. -1.
         21    1    1    2  503  504  0.93046228893E+02 -0.26448439300E+02  0.21435522725E+03  0.23517075520E+03  0.00000000000E+00 0.  1.
         21    1    1    2  504  502  0.36178063212E+02  0.19476060297E+02  0.98308428222E+02  0.10654912596E+03  0.00000000000E+00 0.  1.
         21    1    1    2  505  501 -0.94721467863E+02 -0.36166787828E+02  0.95551518556E+02  0.13932080144E+03  0.00000000000E+00 0. -1.
         21    1    1    2  506  505 -0.34502824242E+02  0.43139166831E+02 -0.82010021633E+01  0.55845223896E+02  0.00000000000E+00 0. -1.
<scales pt_clust_3="31.02667" pt_clust_4="31.02667" pt_clust_5="115.91137" pt_clust_6="55.23977"></scales>
<clustering>
<clus scale="   31.027">  3  4 -1 -1</clus>
<clus scale="   55.240">  2  6  1 -1</clus>
<clus scale="  115.911">  2  5  1 -1</clus>
<clus scale="  125.307">  1  3  2 -1</clus>
</clustering>
</event>
<event>
 6    0  0.6687079E+002  0.1232414E+03  0.7546771E-02  0.1237844E+00
         21   -1    0    0  504  501  0.00000000000E+00  0.00000000000E+00  0.17207875766E+03  0.17207875766E+03  0.00000000000E+00 0.  1.
         21   -1    0    0  503  502 -0.00000000000E+00 -0.00000000000E+00 -0.54093750273E+03  0.54093750273E+03  0.00000000000E+00 0.  1.
         21    1    1    2  503  501  0.13312942349E+03 -0.40432318145E+02 -0.15922973279E+03  0.21145288732E+03  0.00000000000E+00 0.  1.
         21    1    1    2  504  506  0.23910327089E+02 -0.20891361897E+02  0.47610765877E+02  0.57227072010E+02  0.00000000000E+00 0.  1.
         21    1    1    2  505  502 -0.21235787478E+02  0.26587889968E+02 -0.29675317344E+03  0.29869770757E+03  0.00000000000E+00 0.  1.
         21    1    1    2  506  505 -0.13580396310E+03  0.34735790074E+02  0.39513395291E+02  0.14563859349E+03  0.00000000000E+00 0.  1.
<scales pt_clust_3="14000.00000" pt_clust_4="31.75142" pt_clust_5="33.77371" pt_clust_6="123.24139"></scales>
<clustering>
<clus scale="   31.751">  1  4  2 -1</clus>
<clus scale="   33.774">  2  5  1 -1</clus>
<clus scale="  123.241">  1  6  2 -1</clus>
<clus scale="   31.751">  1  3  2 -1</clus>
</clustering>
</event>
<event>
 6    0  0.6687079E+002  0.1095341E+03  0.7546771E-02  0.1261435E+00
         21   -1    0    0  505  501  0.00000000000E+00  0.00000000000E+00  0.31693152580E+02  0.31693152580E+02  0.00000000000E+00 0. -1.
         21   -1    0    0  504  502 -0.00000000000E+00 -0.00000000000E+00 -0.93480613922E+03  0.93480613922E+03  0.00000000000E+00 0. -1.
         21    1    1    2  503  501 -0.48539893727E+02 -0.64613240425E+02 -0.15581785796E+03  0.17552833669E+03  0.00000000000E+00 0. -1.
         21    1    1    2  504  503 -0.59547898155E+02 -0.20582514109E+02 -0.50969597576E+03  0.51357529124E+03  0.00000000000E+00 0. -1.
         21    1    1    2  505  506  0.52190711528E+02  0.58126462916E+02 -0.10404783710E+03  0.13010960174E+03  0.00000000000E+00 0. -1.
         21    1    1    2  506  502  0.55897080355E+02  0.27069291618E+02 -0.13355131582E+03  0.14728606213E+03  0.00000000000E+00 0. -1.
<scales pt_clust_3="102.19592" pt_clust_4="63.00470" pt_clust_5="35.14600" pt_clust_6="35.14600"></scales>
<clustering>
<clus scale="   35.146">  5  6 -1 -1</clus>
<clus scale="   63.005">  2  4  1 -1</clus>
<clus scale="  102.196">  1  3  2 -1</clus>
<clus scale="  102.196">  1  3  2 -1</clus>
</clustering>
</event>
<event>
 6    0  0.6687079E+002  0.1705728E+03  0.7546771E-02  0.1177252E+00
         21   -1    0    0  506  501  0.00000000000E+00  0.00000000000E+00  0.66985673826E+03  0.66985673826E+03  0.00000000000E+00 0.  1.
         21   -1    0    0  505  502 -0.00000000000E+00 -0.00000000000E+00 -0.32065978200E+03  0.32065978200E+03  0.00000000000E+00 0. -1.
         21    1    1    2  503  501 -0.45311055269E+02 -0.16013838318E+03  0.56114892743E+03  0.58530804902E+03  0.00000000000E+00 0.  1.
         21    1    1    2  504  503  0.74693106024E+02  0.43385139598E+02 -0.15811010040E+02  0.87814113125E+02  0.00000000000E+00 0. -1.
         21    1    1    2  505  504  0.73236738125E+02  0.88862322714E+02 -0.28099548067E+02  0.11853150134E+03  0.00000000000E+00 0. -1.
         21    1    1    2  506  502 -0.10261878888E+03  0.27890920869E+02 -0.16804141306E+03  0.19886285676E+03  0.00000000000E+00 0. -1.
<scales pt_clust_3="166.78528" pt_clust_4="30.95917" pt_clust_5="30.95917" pt_clust_6="106.34152"></scales>
<clustering>
<clus scale="   30.959">  4  5 -1 -1</clus>
<clus scale="  106.342">  2  6  1 -1</clus>
<clus scale="  166.785">  1  3  2 -1</clus>
<clus scale="  166.785">  1  3  2 -1</clus>
</clustering>
</event>
<event>
 6    0  0.6687079E+002  0.1450984E+03  0.7546771E-02  0.1206629E+00
         21   -1    0    0  503  501  0.00000000000E+00  0.00000000000E+00  0.14512674954E+03  0.14512674954E+03  0.00000000000E+00 0. -1.
         21   -1    0    0  504  502 -0.00000000000E+00 -0.00000000000E+00 -0.80432731011E+03  0.80432731011E+03  0.00000000000E+00 0. -1.
         21    1    1    2  503  506 -0.13905513823E+03 -0.50215342071E+02  0.38312228723E+02  0.15272766258E+03  0.00000000000E+00 0. -1.
         21    1    1    2  504  501 -0.75390922577E+02 -0.17469813522E+02 -0.11390508955E+03  0.13770749804E+03  0.00000000000E+00 0. -1.
         21    1    1    2  505  502  0.10806972262E+03 -0.32026655966E+02 -0.44060214370E+03  0.45479118359E+03  0.00000000000E+00 0. -1.
         21    1    1    2  506  505  0.10637633819E+03  0.99711811559E+02 -0.14300555604E+03  0.20422771543E+03  0.00000000000E+00 0. -1.
<scales pt_clust_3="145.09840" pt_clust_4="77.38854" pt_clust_5="72.79291" pt_clust_6="14000.00000"></scales>
<clustering>
<clus scale="   77.389">  2  4  1 -1</clus>
<clus scale="   72.793">  2  5  1 -1</clus>
<clus scale="  145.098">  1  3  2 -1</clus>
<clus scale="  145.098">  1  3  2 -1</clus>
</clustering>
</event>
<event>
 6    0  0.6687079E+002  0.8845758E+02  0.7546771E-02  0.1306630E+00
         21   -1    0    0  506  501  0.00000000000E+00  0.00000000000E+00  0.21286889305E+03  0.21286889305E+03  0.00000000000E+00 0. -1.
         21   -1    0    0  505  502 -0.00000000000E+00 -0.00000000000E+00 -0.77340535849E+03  0.77340535849E+03  0.00000000000E+00 0. -1.
         21    1    1    2  503  501 -0.56707215269E+02  0.54806762621E+02  0.19163518219E+03  0.20722821368E+03  0.00000000000E+00 0. -1.
         21    1    1    2  504  502  0.36365552006E+02 -0.56595927267E+02 -0.29941641056E+03  0.30688065965E+03  0.00000000000E+00 0. -1.
         21    1    1    2  505  503 -0.33031352964E+02  0.49131895581E+02 -0.25933029252E+03  0.26600228206E+03  0.00000000000E+00 0. -1.
         21    1    1    2  506  504  0.53373016227E+02 -0.47342730935E+02 -0.19342494455E+03  0.20616309614E+03  0.00000000000E+00 0. -1.
<scales pt_clust_3="79.74775" pt_clust_4="37.16745" pt_clust_5="59.20315" pt_clust_6="37.16745"></scales>
<clustering>
<clus scale="   37.167">  4  6 -1 -1</clus>
<clus scale="   59.203">  2  5  1 -1</clus>
<clus scale="   79.748">  1  3  2 -1</clus>
<clus scale="   79.748">  1  3  2 -1</clus>
</clustering>
</event>
<event>
 6    0  0.6687079E+002  0.1269500E+03  0.7546771E-02  0.1232053E+00
         21   -1    0    0  504  501  0.00000000000E+00  0.00000000000E+00  0.12002802035E+04  0.12002802035E+04  0.00000000000E+00 0. -1.
         21   -1    0    0  506  502 -0.00000000000E+00 -0.00000000000E+00 -0.64121584895E+03  0.64121584895E+03  0.00000000000E+00 0. -1.
         21    1    1    2  503  502 -0.46216853077E+02 -0.93765437394E+02  0.15613386861E+03  0.18789821629E+03  0.00000000000E+00 0. -1.
         21    1    1    2  504  503  0.66381960867E+02 -0.35577110555E+02  0.10120731132E+04  0.10148715594E+04  0.00000000000E+00 0. -1.
         21    1    1    2  505  501 -0.56482836612E+02  0.11951588525E+03 -0.30700386002E+03  0.33425398685E+03  0.00000000000E+00 0. -1.
         21    1    1    2  506  505  0.36317728822E+02  0.98266626943E+01 -0.30213876720E+03  0.30447228999E+03  0.00000000000E+00 0.  1.
<scales pt_clust_3="14000.00000" pt_clust_4="75.42805" pt_clust_5="126.95002" pt_clust_6="37.62367"></scales>
<clustering>
<clus scale="   37.624">  2  6  1 -1</clus>
<clus scale="   75.428">  1  4  2 -1</clus>
<clus scale="  126.950">  2  5  1 -1</clus>
<clus scale="   75.428">  1  3  2 -1</clus>
</clustering>
</event>
<event>
 6    0  0.6687079E+002  0.1016994E+03  0.7546771E-02  0.1276762E+00
         21   -1    0    0  506  501  0.00000000000E+00  0.00000000000E+00  0.66844327472E+02  0.66844327472E+02  0.00000000000E+00 0. -1.
         21   -1    0    0  503  502 -0.00000000000E+00 -0.00000000000E+00 -0.10957682876E+04  0.10957682876E+04  0.00000000000E+00 0. -1.
         21    1    1    2  503  505  0.68441815766E+02 -0.78112134023E+02 -0.90856777587E+03  0.91448411193E+03  0.00000000000E+00 0. -1.
         21    1    1    2  504  501 -0.10555729680E+02  0.49618322786E+02 -0.34974893926E+02  0.61616918052E+02  0.00000000000E+00 0. -1.
         21    1    1    2  505  504 -0.10906547310E+03  0.41477713524E+01 -0.56594639542E+02  0.12294484395E+03  0.00000000000E+00 0. -1.
         21    1    1    2  506  502  0.51179387011E+02  0.24346039885E+02 -0.28786650761E+02  0.63566741107E+02  0.00000000000E+00 0. -1.
<scales pt_clust_3="14000.00000" pt_clust_4="50.72870" pt_clust_5="101.69942" pt_clust_6="62.59109"></scales>
<clustering>
<clus scale="   50.729">  1  4  2 -1</clus>
<clus scale="   62.591">  1  6  2 -1</clus>
<clus scale="  101.699">  1  5  2 -1</clus>
<clus scale="   50.729">  1  3  2 -1</clus>
</clustering>
</event>
<event>
 6    0  0.6687079E+002  0.1245445E+03  0.7546771E-02  0.1235783E+00
         21   -1    0    0  503  501  0.00000000000E+00  0.00000000000E+00  0.21480126985E+03  0.21480126985E+03  0.00000000000E+00 0. -1.
         21   -1    0    0  504  502 -0.00000000000E+00 -0.00000000000E+00 -0.37549274270E+03  0.37549274270E+03  0.00000000000E+00 0.  1.
         21    1    1    2  503  502  0.24831388718E+02 -0.70627823777E+02  0.50208479507E+02  0.90143101630E+02  0.00000000000E+00 0. -1.
         21    1    1    2  504  505 -0.11949153060E+03  0.39229263871E+02 -0.29228422836E+03  0.31819370072E+03  0.00000000000E+00 0.  1.
         21    1    1    2  505  506  0.12109974644E+03  0.63403416992E-02  0.53843202540E+02  0.13253014407E+03  0.00000000000E+00 0. -1.
         21    1    1    2  506  501 -0.26439604557E+02  0.31392219564E+02  0.27541073467E+02  0.49427066128E+02  0.00000000000E+00 0. -1.
<scales pt_clust_3="59.86837" pt_clust_4="124.54445" pt_clust_5="14000.00000" pt_clust_6="41.04295"></scales>
<clustering>
<clus scale="   41.043">  1  6  2 -1</clus>
<clus scale="   59.868">  1  3  2 -1</clus>
<clus scale="  124.544">  2  4  1 -1</clus>
<clus scale="   41.043">  1  3  2 -1</clus>
</clustering>
</event>
<event>
 6    0  0.6687079E+002  0.1631209E+03  0.7546771E-02  0.1185218E+00
         21   -1    0    0  502  501  0.00000000000E+00  0.00000000000E+00  0.91965765060E+03  0.91965765060E+03  0.00000000000E+00 0. -1.
         21   -1    0    0  506  502 -0.00000000000E+00 -0.00000000000E+00 -0.12814757950E+03  0.12814757950E+03  0.00000000000E+00 0. -1.
         21    1    1    2  503  505 -0.36097502914E+02  0.39209480661E+02 -0.11678269716E+02  0.54560013507E+02  0.00000000000E+00 0. -1.
         21    1    1    2  504  501  0.96788267558E+02 -0.12844138682E+03  0.83066150950E+03  0.84608728979E+03  0.00000000000E+00 0. -1.
         21    1    1    2  505  504 -0.26231634645E+02  0.74572755244E+02  0.24804306266E+02  0.82851964915E+02  0.00000000000E+00 0. -1.
         21    1    1    2  506  503 -0.34459129999E+02  0.14659150912E+02 -0.52277474960E+02  0.64305961885E+02  0.00000000000E+00 0. -1.
<scales pt_clust_3="35.58673" pt_clust_4="157.25769" pt_clust_5="35.58673" pt_clust_6="37.44759"></scales>
<clustering>
<clus scale="   35.587">  3  5 -1 -1</clus>
<clus scale="   37.448">  2  6  1 -1</clus>
<clus scale="  157.258">  1  4  2 -1</clus>
<clus scale="  157.258">  1  3  2 -1</clus>
</clustering>
</event>
<event>
 6    0  0.6687079E+002  0.2017437E+03  0.7546771E-02  0.1148276E+00
         21   -1    0    0  505  501  0.00000000000E+00  0.00000000000E+00  0.11549008920E+04  0.11549008920E+04  0.00000000000E+00 0. -1.
         21   -1    0    0  504  502 -0.00000000000E+00 -0.00000000000E+00 -0.96459053870E+02  0.96459053870E+02  0.00000000000E+00 0.  1.
         21    1    1    2  503  501 -0.80088633299E+02  0.76589765376E+02  0.27745928805E+02  0.11423667498E+03  0.00000000000E+00 0.  1.
         21    1    1    2  504  503 -0.50806719397E+02 -0.83001531128E+01  0.34225875604E+01  0.51593889010E+02  0.00000000000E+00 0.  1.
         21    1    1    2  505  506  0.13705188932E+03 -0.14117209130E+03  0.97738717783E+03  0.99699472171E+03  0.00000000000E+00 0. -1.
         21    1    1    2  506  502 -0.61565366219E+01  0.72882479039E+02  0.49886143914E+02  0.88534660154E+02  0.00000000000E+00 0.  1.
<scales pt_clust_3="46.88202" pt_clust_4="46.88202" pt_clust_5="189.65568" pt_clust_6="73.14204"></scales>
<clustering>
<clus scale="   46.882">  3  4 -1 -1</clus>
<clus scale="   73.142">  2  6  1 -1</clus>
<clus scale="  189.656">  1  5  2 -1</clus>
<clus scale="  189.656">  1  3  2 -1</clus>
</clustering>
</event>
<event>
 6    0  0.6687079E+002  0.1821047E+03  0.7546771E-02  0.1165781E+00
         21   -1    0    0  505  501  0.00000000000E+00  0.00000000000E+00  0.29894319786E+03  0.29894319786E+03  0.00000000000E+00 0. -1.
         21   -1    0    0  506  502 -0.00000000000E+00 -0.00000000000E+00 -0.56765626812E+03  0.56765626812E+03  0.00000000000E+00 0. -1.
         21    1    1    2  503  501 -0.90832927120E+02  0.51339177117E+02  0.20378065678E+03  0.22893861150E+03  0.00000000000E+00 0. -1.
         21    1    1    2  504  503 -0.50473688494E+02  0.10577056536E+02  0.30349795037E+02  0.59837926217E+02  0.00000000000E+00 0. -1.
         21    1    1    2  505  502 -0.26115743064E+02 -0.35494146657E+02  0.31665076107E+01  0.44180236002E+02  0.00000000000E+00 0.  1.
         21    1    1    2  506  504  0.16742235868E+03 -0.26422086996E+02 -0.50601002968E+03  0.53364269226E+03  0.00000000000E+00 0. -1.
<scales pt_clust_3="48.01440" pt_clust_4="48.01440" pt_clust_5="44.06661" pt_clust_6="168.48885"></scales>
<clustering>
<clus scale="   44.067">  1  5  2 -1</clus>
<clus scale="   48.014">  3  4 -1 -1</clus>
<clus scale="  168.489">  2  6  1 -1</clus>
<clus scale="   44.067">  1  3  2 -1</clus>
</clustering>
</event>
<event>
 6    0  0.6687079E+002  0.2881745E+03  0.7546771E-02  0.1091306E+00
         21   -1    0    0  502  501  0.00000000000E+00  0.00000000000E+00  0.50046412178E+03  0.50046412178E+03  0.00000000000E+00 0. -1.
         21   -1    0    0  504  502 -0.00000000000E+00 -0.00000000000E+00 -0.42554037943E+03  0.42554037943E+03  0.00000000000E+00 0. -1.
         21    1    1    2  503  506  0.66048043991E+02  0.69123700808E+02 -0.76090023576E+02  0.12218887763E+03  0.00000000000E+00 0. -1.
         21    1    1    2  504  503  0.10522336882E+03  0.11089808863E+03 -0.22624097958E+03  0.27304820865E+03  0.00000000000E+00 0. -1.
         21    1    1    2  505  501 -0.20364323245E+03 -0.17382997293E+03  0.40646668501E+03  0.48672640326E+03  0.00000000000E+00 0. -1.
         21    1    1    2  506  505  0.32371819636E+02 -0.61918165119E+01 -0.29211939505E+02  0.44041011659E+02  0.00000000000E+00 0. -1.
<scales pt_clust_3="51.79437" pt_clust_4="51.79437" pt_clust_5="267.74508" pt_clust_6="31.60210"></scales>
<clustering>
<clus scale="   31.602">  3  6 -1 -1</clus>
<clus scale="   51.794">  3  4 -1 -1</clus>
<clus scale="  267.745">  1  5  2 -1</clus>
<clus scale="  267.745">  1  3  2 -1</clus>
</clustering>
</event>
<event>
 6    0  0.6687079E+002  0.8424426E+02  0.7546771E-02  0.1317421E+00
         21   -1    0    0  505  501  0.00000000000E+00  0.00000000000E+00  0.14516802410E+04  0.14516802410E+04  0.00000000000E+00 0.  1.
         21   -1    0    0  504  502 -0.00000000000E+00 -0.00000000000E+00 -0.80569830322E+02  0.80569830322E+02  0.00000000000E+00 0.  1.
         21    1    1    2  503  501  0.49363751337E+02 -0.34801797071E+02  0.11561738718E+04  0.11577503906E+04  0.00000000000E+00 0.  1.
         21    1    1    2  504  503 -0.89362308951E+02  0.69024114869E+02  0.58654465622E+02  0.12724109805E+03  0.00000000000E+00 0.  1.
         21    1    1    2  505  506 -0.37148336556E+02 -0.26352400108E+02  0.16316859915E+03  0.16940613816E+03  0.00000000000E+00 0.  1.
         21    1    1    2  506  502  0.77146894170E+02 -0.78699176900E+01 -0.68865258794E+01  0.77852444555E+02  0.00000000000E+00 0.  1.
<scales pt_clust_3="60.64983" pt_clust_4="84.24426" pt_clust_5="45.54611" pt_clust_6="14000.00000"></scales>
<clustering>
<clus scale="   45.546">  1  5  2 -1</clus>
<clus scale="   60.650">  1  3  2 -1</clus>
<clus scale="   84.244">  1  4  2 -1</clus>
<clus scale="   45.546">  1  3  2 -1</clus>
</clustering>
</event>
<event>
 6    0  0.6687079E+002  0.3330610E+03  0.7546771E-02  0.1069790E+00
         21   -1    0    0  505  501  0.00000000000E+00  0.00000000000E+00  0.13047753957E+03  0.13047753957E+03  0.00000000000E+00 0. -1.
         21   -1    0    0  504  502 -0.00000000000E+00 -0.00000000000E+00 -0.13060418362E+04  0.13060418362E+04  0.00000000000E+00 0. -1.
         21    1    1    2  503  501  0.38971341372E+02  0.26199851872E+03 -0.22390525535E+03  0.34683649265E+03  0.00000000000E+00 0. -1.
         21    1    1    2  504  503  0.74069626926E+01  0.82816621335E+02 -0.21210310556E+02  0.85809866213E+02  0.00000000000E+00 0. -1.
         21    1    1    2  505  506  0.25259239157E+01 -0.31592615351E+02 -0.14955288119E+02  0.35044746811E+02  0.00000000000E+00 0. -1.
         21    1    1    2  506  502 -0.48904227980E+02 -0.31322252471E+03 -0.91549344259E+03  0.96882827009E+03  0.00000000000E+00 0. -1.
<scales pt_clust_3="42.62328" pt_clust_4="42.62328" pt_clust_5="31.69343" pt_clust_6="323.84695"></scales>
<clustering>
<clus scale="   31.693">  1  5  2 -1</clus>
<clus scale="   42.623">  3  4 -1 -1</clus>
<clus scale="  323.847">  2  6  1 -1</clus>
<clus scale="   31.693">  1  3  2 -1</clus>
</clustering>
</event>
<event>
 6    0  0.6687079E+002  0.1000474E+03  0.7546771E-02  0.1280196E+00
         21   -1    0    0  503  501  0.00000000000E+00  0.00000000000E+00  0.18901576620E+04  0.18901576620E+04  0.00000000000E+00 0. -1.
         21   -1    0    0  505  502 -0.00000000000E+00 -0.00000000000E+00 -0.18943347763E+03  0.18943347763E+03  0.00000000000E+00 0.  1.
         21    1    1    2  503  502  0.41391765498E+02  0.65096689854E+02  0.30295534675E+03  0.31262245505E+03  0.00000000000E+00 0. -1.
         21    1    1    2  504  506  0.89267472787E+02 -0.77959846977E+02  0.31867551122E+03  0.34000073660E+03  0.00000000000E+00 0. -1.
         21    1    1    2  505  504 -0.94969339820E+02 -0.36852452300E+02 -0.15820060390E+03  0.18816139301E+03  0.00000000000E+00 0.  1.
         21    1    1    2  506  501 -0.35689898465E+02  0.49715609423E+02  0.12372939303E+04  0.12388065550E+04  0.00000000000E+00 0. -1.
<scales pt_clust_3="14000.00000" pt_clust_4="88.70642" pt_clust_5="100.04743" pt_clust_6="61.19976"></scales>
<clustering>
<clus scale="   61.200">  1  6  2 -1</clus>
<clus scale="   88.706">  1  4  2 -1</clus>
<clus scale="  100.047">  2  5  1 -1</clus>
<clus scale="   61.200">  1  3  2 -1</clus>
</clustering>
</event>
<event>
 6    0  0.6687079E+002  0.2004833E+03  0.7546771E-02  0.1149332E+00
         21   -1    0    0  504  501  0.00000000000E+00  0.00000000000E+00  0.13497025164E+04  0.13497025164E+04  0.00000000000E+00 0.  1.
         21   -1    0    0  503  502 -0.00000000000E+00 -0.00000000000E+00 -0.27637622934E+03  0.27637622934E+03  0.00000000000E+00 0.  1.
         21    1    1    2  503  505 -0.10683996326E+03  0.70740234381E+02 -0.44012894489E+02  0.13548466109E+03  0.00000000000E+00 0.  1.
         21    1    1    2  504  502  0.53155828192E+02 -0.37829543228E+02  0.12022439485E+04  0.12040129269E+04  0.00000000000E+00 0.  1.
         21    1    1    2  505  506 -0.85782722627E+02  0.47027955174E+02 -0.78962428729E+02  0.12571940670E+03  0.00000000000E+00 0.  1.
         21    1    1    2  506  501  0.13946685769E+03 -0.79938646326E+02 -0.59423382289E+01  0.16086175106E+03  0.00000000000E+00 0.  1.
<scales pt_clust_3="40.34291" pt_clust_4="65.24275" pt_clust_5="40.34291" pt_clust_6="195.09424"></scales>
<clustering>
<clus scale="   40.343">  3  5 -1 -1</clus>
<clus scale="   65.243">  1  4  2 -1</clus>
<clus scale="  195.094">  1  6  2 -1</clus>
<clus scale="   65.243">  1  3  2 -1</clus>
</clustering>
</event>
<event>
 6    0  0.6687079E+002  0.1285095E+03  0.7546771E-02  0.1229684E+00
         21   -1    0    0  505  501  0.00000000000E+00  0.00000000000E+00  0.14413374162E+04  0.14413374162E+04  0.00000000000E+00 0. -1.
         21   -1    0    0  503  502 -0.00000000000E+00 -0.00000000000E+00 -0.31652756845E+02  0.31652756845E+02  0.00000000000E+00 0. -1.
         21    1    1    2  503  506  0.58821024506E+02 -0.10457025927E+03  0.22596158739E+03  0.25583879890E+03  0.00000000000E+00 0. -1.
         21    1    1    2  504  502 -0.56522819729E+02  0.13140507253E+03  0.38439353973E+03  0.41014694394E+03  0.00000000000E+00 0. -1.
         21    1    1    2  505  504 -0.44867447552E+02  0.49770963345E+01  0.18693824706E+03  0.19231164175E+03  0.00000000000E+00 0.  1.
         21    1    1    2  506  501  0.42569242776E+02 -0.31811909602E+02  0.61239128516E+03  0.61469278844E+03  0.00000000000E+00 0. -1.
<scales pt_clust_3="14000.00000" pt_clust_4="128.50953" pt_clust_5="45.14266" pt_clust_6="35.86284"></scales>
<clustering>
<clus scale="   45.143">  1  5  2 -1</clus>
<clus scale="   35.863">  1  6  2 -1</clus>
<clus scale="  128.510">  1  4  2 -1</clus>
<clus scale="   45.143">  1  3  2 -1</clus>
</clustering>
</event>
<event>
 6    0  0.6687079E+002  0.1124798E+03  0.7546771E-02  0.1256045E+00
         21   -1    0    0  502  501  0.00000000000E+00  0.00000000000E+00  0.45041536783E+03  0.45041536783E+03  0.00000000000E+00 0. -1.
         21   -1    0    0  504  502 -0.00000000000E+00 -0.00000000000E+00 -0.11834706652E+03  0.11834706652E+03  0.00000000000E+00 0.  1.
         21    1    1    2  503  501  0.23952139849E+02  0.24935420107E+02  0.13952523498E+03  0.14374550907E+03  0.00000000000E+00 0. -1.
         21    1    1    2  504  505 -0.60470750780E+02 -0.95146102751E+02 -0.56804707614E+02  0.12623892972E+03  0.00000000000E+00 0.  1.
         21    1    1    2  505  506  0.23415055632E+02  0.11527945368E+03  0.17546751212E+03  0.21124976942E+03  0.00000000000E+00 0. -1.
         21    1    1    2  506  503  0.13103555298E+02 -0.45068771039E+02  0.73880261824E+02  0.87528226143E+02  0.00000000000E+00 0.  1.
<scales pt_clust_3="34.57572" pt_clust_4="112.47980" pt_clust_5="14000.00000" pt_clust_6="43.14136"></scales>
<clustering>
<clus scale="   34.576">  1  3  2 -1</clus>
<clus scale="   43.141">  1  6  2 -1</clus>
<clus scale="  112.480">  2  4  1 -1</clus>
<clus scale="   34.576">  1  3  2 -1</clus>
</clustering>
</event>
<event>
 6    0  0.6687079E+002  0.2906044E+03  0.7546771E-02  0.1090034E+00
         21   -1    0    0  505  501  0.00000000000E+00  0.00000000000E+00  0.60049592126E+03  0.60049592126E+03  0.00000000000E+00 0. -1.
         21   -1    0    0  503  502 -0.00000000000E+00 -0.00000000000E+00 -0.22869002615E+04  0.22869002615E+04  0.00000000000E+00 0. -1.
         21    1    1    2  503  501 -0.22304701126E+03 -0.25071275135E+02 -0.20145611056E+03  0.30160089945E+03  0.00000000000E+00 0. -1.
         21    1    1    2  504  502  0.16250608493E+03  0.37491162724E+02 -0.80466385647E+03  0.82176501315E+03  0.00000000000E+00 0. -1.
         21    1    1    2  505  506 -0.45909380287E+02  0.16393114701E+01  0.53853476250E+03  0.54049056325E+03  0.00000000000E+00 0. -1.
         21    1    1    2  506  504  0.10645030661E+03 -0.14059199059E+02 -0.12188191357E+04  0.12235397069E+04  0.00000000000E+00 0. -1.
<scales pt_clust_3="261.81965" pt_clust_4="102.26737" pt_clust_5="45.93864" pt_clust_6="102.26737"></scales>
<clustering>
<clus scale="   45.939">  1  5  2 -1</clus>
<clus scale="  102.267">  4  6 -1 -1</clus>
<clus scale="  261.820">  1  3  2 -1</clus>
<clus scale="   45.939">  1  3  2 -1</clus>
</clustering>
</event>
<event>
 6    0  0.6687079E+002  0.9510384E+02  0.7546771E-02  0.1290942E+00
         21   -1    0    0  503  501  0.00000000000E+00  0.00000000000E+00  0.45388801826E+02  0.45388801826E+02  0.00000000000E+00 0. -1.
         21   -1    0    0  505  502 -0.00000000000E+00 -0.00000000000E+00 -0.18421123940E+04  0.18421123940E+04  0.00000000000E+00 0. -1.
         21    1    1    2  503  506 -0.27891023013E+02 -0.17735286488E+02 -0.44052710457E+02  0.55073504066E+02  0.00000000000E+00 0. -1.
         21    1    1    2  504  501 -0.70123674258E+02  0.23388849718E+02 -0.20071681119E+02  0.76597913585E+02  0.00000000000E+00 0. -1.
         21    1    1    2  505  504 -0.18399188745E+02 -0.43484922392E+02 -0.14099672818E+04  0.14107576703E+04  0.00000000000E+00 0. -1.
         21    1    1    2  506  502  0.11641388602E+03  0.37831359162E+02 -0.32263191885E+03  0.34507210791E+03  0.00000000000E+00 0. -1.
<scales pt_clust_3="33.05222" pt_clust_4="95.10384" pt_clust_5="47.48718" pt_clust_6="14000.00000"></scales>
<clustering>
<clus scale="   33.052">  1  3  2 -1</clus>
<clus scale="   47.487">  2  5  1 -1</clus>
<clus scale="   95.104">  1  4  2 -1</clus>
<clus scale="   33.052">  1  3  2 -1</clus>
</clustering>
</event>
<event>
 6    0  0.6687079E+002  0.1218677E+03  0.7546771E-02  0.1240047E+00
         21   -1    0    0  503  501  0.00000000000E+00  0.00000000000E+00  0.47366866277E+03  0.47366866277E+03  0.00000000000E+00 0.  1.
         21   -1    0    0  505  502 -0.00000000000E+00 -0.00000000000E+00 -0.71752921821E+03  0.71752921821E+03  0.00000000000E+00 0. -1.
         21    1    1    2  503  506  0.32241865126E+01 -0.16051773315E+03 -0.30023985818E+03  0.34047071897E+03  0.00000000000E+00 0. -1.
         21    1    1    2  504  501 -0.71395890506E+01  0.70915605222E+02  0.42310268045E+03  0.42906395211E+03  0.00000000000E+00 0.  1.
         21    1    1    2  505  504  0.73798250910E+02  0.84370898980E+02 -0.31561128603E+03  0.33492553546E+03  0.00000000000E+00 0. -1.
         21    1    1    2  506  502 -0.69882848372E+02  0.52312289495E+01 -0.51112091670E+02  0.86737674443E+02  0.00000000000E+00 0. -1.
<scales pt_clust_3="121.86767" pt_clust_4="71.33089" pt_clust_5="14000.00000" pt_clust_6="70.07837"></scales>
<clustering>
<clus scale="   70.078">  2  6  1 -1</clus>
<clus scale="   71.331">  1  4  2 -1</clus>
<clus scale="  121.868">  1  3  2 -1</clus>
<clus scale="   71.331">  1  3  2 -1</clus>
</clustering>
</event>
<event>
 6    0  0.6687079E+002  0.1283989E+03  0.7546771E-02  0.1229851E+00
         21   -1    0    0  504  501  0.00000000000E+00  0.00000000000E+00  0.36544817191E+03  0.36544817191E+03  0.00000000000E+00 0.  1.
         21   -1    0    0  503  502 -0.00000000000E+00 -0.00000000000E+00 -0.24394847683E+04  0.24394847683E+04  0.00000000000E+00 0. -1.
         21    1    1    2  503  506 -0.10957965765E+03  0.68325713234E+02 -0.23560785426E+04  0.23596148422E+04  0.00000000000E+00 0. -1.
         21    1    1    2  504  502  0.64897773749E+02  0.11997999739E+02 -0.34031972437E+02  0.74255290608E+02  0.00000000000E+00 0. -1.
         21    1    1    2  505  501  0.72790599781E+02  0.30168493135E+02  0.10644201415E+03  0.13243304637E+03  0.00000000000E+00 0.  1.
         21    1    1    2  506  505 -0.28108715876E+02 -0.11049220611E+03  0.20963190445E+03  0.23862976110E+03  0.00000000000E+00 0.  1.
<scales pt_clust_3="128.39893" pt_clust_4="65.99752" pt_clust_5="101.23060" pt_clust_6="14000.00000"></scales>
<clustering>
<clus scale="   65.998">  1  4  2 -1</clus>
<clus scale="  101.231">  1  5  2 -1</clus>
<clus scale="  128.399">  2  3  1 -1</clus>
<clus scale="   65.998">  1  3  2 -1</clus>
</clustering>
</event>
<event>
 6    0  0.6687079E+002  0.9322574E+02  0.7546771E-02  0.1295223E+00
         21   -1    0    0  504  501  0.00000000000E+00  0.00000000000E+00  0.13304293936E+03  0.13304293936E+03  0.00000000000E+00 0. -1.
         21   -1    0    0  503  502 -0.00000000000E+00 -0.00000000000E+00 -0.42876124602E+03  0.42876124602E+03  0.00000000000E+00 0. -1.
         21    1    1    2  503  505  0.27730963632E+02  0.27118807875E+02 -0.74643737906E+02  0.84119698604E+02  0.00000000000E+00 0. -1.
         21    1    1    2  504  502  0.68570820537E+02 -0.48872334960E+02 -0.28238840532E+03  0.29467554023E+03  0.00000000000E+00 0. -1.
         21    1    1    2  505  506 -0.76154017912E+02  0.54530108211E+02 -0.17519201884E+02  0.95288454601E+02  0.00000000000E+00 0. -1.
         21    1    1    2  506  501 -0.20147766256E+02 -0.32776581125E+02  0.78833038448E+02  0.87720491940E+02  0.00000000000E+00 0. -1.
<scales pt_clust_3="35.24514" pt_clust_4="93.22574" pt_clust_5="14000.00000" pt_clust_6="38.47385"></scales>
<clustering>
<clus scale="   38.474">  1  6  2 -1</clus>
<clus scale="   35.245">  2  3  1 -1</clus>
<clus scale="   93.226">  2  4  1 -1</clus>
<clus scale="   38.474">  1  3  2 -1</clus>
</clustering>
</event>
<event>
 6    0  0.6687079E+002  0.1852330E+03  0.7546771E-02  0.1162832E+00
         21   -1    0    0  504  501  0.00000000000E+00  0.00000000000E+00  0.33609677933E+03  0.33609677933E+03  0.00000000000E+00 0.  1.
         21   -1    0    0  505  502 -0.00000000000E+00 -0.00000000000E+00 -0.13643742383E+03  0.13643742383E+03  0.00000000000E+00 0.  1.
         21    1    1    2  503  502 -0.43360086247E+02  0.40549084788E+01 -0.23782305770E+02  0.49619929765E+02  0.00000000000E+00 0.  1.
         21    1    1    2  504  503  0.53205756403E+02 -0.16877085843E+03  0.13179363906E+03  0.22064455232E+03  0.00000000000E+00 0.  1.
         21    1    1    2  505  506 -0.40118108412E+02  0.11805095188E+03  0.62397326087E+02  0.13942351367E+03  0.00000000000E+00 0.  1.
         21    1    1    2  506  501  0.30272438256E+02  0.46664998075E+02  0.29250696119E+02  0.62846207417E+02  0.00000000000E+00 0.  1.
<scales pt_clust_3="43.54928" pt_clust_4="170.36980" pt_clust_5="45.82690" pt_clust_6="45.82690"></scales>
<clustering>
<clus scale="   43.549">  2  3  1 -1</clus>
<clus scale="   45.827">  5  6 -1 -1</clus>
<clus scale="  170.370">  1  4  2 -1</clus>
<clus scale="  170.370">  1  3  2 -1</clus>
</clustering>
</event>
<event>
 6    0  0.6687079E+002  0.1234301E+03  0.7546771E-02  0.1237543E+00
         21   -1    0    0  505  501  0.00000000000E+00  0.00000000000E+00  0.20835586577E+04  0.20835586577E+04  0.00000000000E+00 0. -1.
         21   -1    0    0  506  502 -0.00000000000E+00 -0.00000000000E+00 -0.76729732417E+02  0.76729732417E+02  0.00000000000E+00 0.  1.
         21    1    1    2  503  502  0.17278011371E+02 -0.63805140887E+02  0.85285833228E+02  0.10790411961E+03  0.00000000000E+00 0.  1.
         21    1    1    2  504  503  0.72691838665E+01  0.51900416258E+02 -0.76975660520E+01  0.52969300212E+02  0.00000000000E+00 0.  1.
         21    1    1    2  505  504 -0.33546014961E+02  0.11405266925E+03  0.71256339446E+02  0.13860307498E+03  0.00000000000E+00 0.  1.
         21    1    1    2  506  501  0.89988197243E+01 -0.10214794462E+03  0.18579843186E+04  0.18608118953E+04  0.00000000000E+00 0. -1.
<scales pt_clust_3="66.10314" pt_clust_4="44.18795" pt_clust_5="44.18795" pt_clust_6="103.95019"></scales>
<clustering>
<clus scale="   44.188">  4  5 -1 -1</clus>
<clus scale="   66.103">  2  3  1 -1</clus>
<clus scale="  103.950">  1  6  2 -1</clus>
<clus scale="  103.950">  1  3  2 -1</clus>
</clustering>
</event>
<event>
 6    0  0.6687079E+002  0.2793176E+03  0.7546771E-02  0.1096062E+00
         21   -1    0    0  504  501  0.00000000000E+00  0.00000000000E+00  0.77647435613E+03  0.77647435613E+03  0.00000000000E+00 0.  1.
         21   -1    0    0  503  502 -0.00000000000E+00 -0.00000000000E+00 -0.33556518932E+03  0.33556518932E+03  0.00000000000E+00 0.  1.
         21    1    1    2  503  506  0.30739425525E+03 -0.94464453779E+02 -0.10524658151E+03  0.33836608002E+03  0.00000000000E+00 0.  1.
         21    1    1    2  504  505 -0.52830080382E+02  0.37919906855E+02  0.48453465329E+03  0.48887909238E+03  0.00000000000E+00 0.  1.
         21    1    1    2  505  502 -0.17229780927E+02  0.34157559237E+02 -0.11721621411E+01  0.38275033219E+02  0.00000000000E+00 0. -1.
         21    1    1    2  506  501 -0.23733439394E+03  0.22386987687E+02  0.62793257175E+02  0.24651933983E+03  0.00000000000E+00 0.  1.
<scales pt_clust_3="279.31764" pt_clust_4="65.26364" pt_clust_5="38.25708" pt_clust_6="14000.00000"></scales>
<clustering>
<clus scale="   38.257">  2  5  1 -1</clus>
<clus scale="   65.264">  1  4  2 -1</clus>
<clus scale="  279.318">  2  3  1 -1</clus>
<clus scale="   65.264">  1  3  2 -1</clus>
</clustering>
</event>
<event>
 6    0  0.6687079E+002  0.1753512E+03  0.7546771E-02  0.1172380E+00
         21   -1    0    0  504  501  0.00000000000E+00  0.00000000000E+00  0.10938953192E+04  0.10938953192E+04  0.00000000000E+00 0.  1.
         21   -1    0    0  503  502 -0.00000000000E+00 -0.00000000000E+00 -0.30124624721E+03  0.30124624721E+03  0.00000000000E+00 0. -1.
         21    1    1    2  503  506 -0.94488494086E+02  0.88948234143E+02  0.45813145909E+02  0.13761797924E+03  0.00000000000E+00 0. -1.
         21    1    1    2  504  502 -0.55199812716E+02  0.36786486049E+02 -0.23936516057E+03  0.24838668438E+03  0.00000000000E+00 0. -1.
         21    1    1    2  505  501  0.36225128769E+02 -0.21629954769E+02  0.85227628781E+02  0.95099230309E+02  0.00000000000E+00 0.  1.
         21    1    1    2  506  505  0.11346317803E+03 -0.10410476542E+03  0.90097345789E+03  0.91403767252E+03  0.00000000000E+00 0.  1.
<scales pt_clust_3="14000.00000" pt_clust_4="66.14512" pt_clust_5="42.19141" pt_clust_6="175.35120"></scales>
<clustering>
<clus scale="   42.191">  1  5  2 -1</clus>
<clus scale="   66.145">  2  4  1 -1</clus>
<clus scale="  175.351">  1  6  2 -1</clus>
<clus scale="   42.191">  1  3  2 -1</clus>
</clustering>
</event>
<event>
 6    0  0.6687079E+002  0.8986125E+02  0.7546771E-02  0.1303188E+00
         21   -1    0    0  505  501  0.00000000000E+00  0.00000000000E+00  0.91128156188E+03  0.91128156188E+03  0.00000000000E+00 0.  1.
         21   -1    0    0  504  502 -0.00000000000E+00 -0.00000000000E+00 -0.25002686506E+04  0.25002686506E+04  0.00000000000E+00 0.  1.
         21    1    1    2  503  501 -0.53725629652E+02 -0.65205354831E+02  0.63941929891E+03  0.64497691540E+03  0.00000000000E+00 0.  1.
         21    1    1    2  504  503 -0.59415620729E+02 -0.98311535473E+02 -0.23786519320E+03  0.26415000308E+03  0.00000000000E+00 0. -1.
         21    1    1    2  505  506  0.93787787738E+02  0.13900972473E+03  0.22835227128E+03  0.28331009953E+03  0.00000000000E+00 0.  1.
         21    1    1    2  506  502  0.19353462642E+02  0.24507165571E+02 -0.22188934658E+04  0.22191131945E+04  0.00000000000E+00 0.  1.
<scales pt_clust_3="84.17931" pt_clust_4="14000.00000" pt_clust_5="89.86125" pt_clust_6="31.22751"></scales>
<clustering>
<clus scale="   31.228">  2  6  1 -1</clus>
<clus scale="   84.179">  1  3  2 -1</clus>
<clus scale="   89.861">  1  5  2 -1</clus>
<clus scale="   84.179">  1  3  2 -1</clus>
</clustering>
</event>
<event>
 6    0  0.6687079E+002  0.1068212E+03  0.7546771E-02  0.1266572E+00
         21   -1    0    0  504  501  0.00000000000E+00  0.00000000000E+00  0.80759959187E+03  0.80759959187E+03  0.00000000000E+00 0. -1.
         21   -1    0    0  506  502 -0.00000000000E+00 -0.00000000000E+00 -0.55692515419E+02  0.55692515419E+02  0.00000000000E+00 0. -1.
         21    1    1    2  503  502 -0.19085357802E+02  0.36998483982E+02  0.18919442844E+02  0.45728372122E+02  0.00000000000E+00 0. -1.
         21    1    1    2  504  505  0.31900750272E+02  0.54664101410E+00  0.48303293313E+03  0.48408549986E+03  0.00000000000E+00 0. -1.
         21    1    1    2  505  503  0.94340773620E+02  0.23214970092E+02  0.10017283475E+03  0.13954824694E+03  0.00000000000E+00 0. -1.
         21    1    1    2  506  501 -0.10715616609E+03 -0.60760095088E+02  0.14978186573E+03  0.19392998837E+03  0.00000000000E+00 0. -1.
<scales pt_clust_3="40.32166" pt_clust_4="31.90543" pt_clust_5="14000.00000" pt_clust_6="106.82121"></scales>
<clustering>
<clus scale="   31.905">  1  4  2 -1</clus>
<clus scale="   40.322">  2  3  1 -1</clus>
<clus scale="  106.821">  1  6  2 -1</clus>
<clus scale="   31.905">  1  3  2 -1</clus>
</clustering>
</event>
<event>
 6    0  0.6687079E+002  0.1067600E+03  0.7546771E-02  0.1266690E+00
         21   -1    0    0  505  501  0.00000000000E+00  0.00000000000E+00  0.14677967948E+04  0.14677967948E+04  0.00000000000E+00 0.  1.
         21   -1    0    0  504  502 -0.00000000000E+00 -0.00000000000E+00 -0.21105535854E+03  0.21105535854E+03  0.00000000000E+00 0.  1.
         21    1    1    2  503  502 -0.22107129060E+02 -0.25714421023E+02 -0.85231935493E+02  0.91730253634E+02  0.00000000000E+00 0.  1.
         21    1    1    2  504  506  0.43049930624E+01 -0.96528832313E+02 -0.71678980414E+02  0.12030887194E+03  0.00000000000E+00 0.  1.
         21    1    1    2  505  503 -0.42837063194E+02  0.88885670634E+02  0.69050207773E+02  0.12043092469E+03  0.00000000000E+00 0.  1.
         21    1    1    2  506  501  0.60639199192E+02  0.33357582702E+02  0.13446021444E+04  0.13463821031E+04  0.00000000000E+00 0.  1.
<scales pt_clust_3="33.91101" pt_clust_4="14000.00000" pt_clust_5="106.76003" pt_clust_6="68.97810"></scales>
<clustering>
<clus scale="   33.911">  2  3  1 -1</clus>
<clus scale="   68.978">  1  6  2 -1</clus>
<clus scale="  106.760">  1  5  2 -1</clus>
<clus scale="   68.978">  1  3  2 -1</clus>
</clustering>
</event>
<event>
 6    0  0.6687079E+002  0.2272241E+03  0.7546771E-02  0.1128609E+00
         21   -1    0    0  504  501  0.00000000000E+00  0.00000000000E+00  0.47412764417E+02  0.47412764417E+02  0.00000000000E+00 0. -1.
         21   -1    0    0  506  502 -0.00000000000E+00 -0.00000000000E+00 -0.11353807566E+04  0.11353807566E+04  0.00000000000E+00 0. -1.
         21    1    1    2  503  502  0.16573735715E+02 -0.39402534579E+02 -0.27757734359E+03  0.28084947948E+03  0.00000000000E+00 0. -1.
         21    1    1    2  504  505  0.56516475469E+02 -0.59281856612E+01 -0.15018851216E+03  0.16057971407E+03  0.00000000000E+00 0. -1.
         21    1    1    2  505  503  0.75498384872E+02 -0.89532155414E+02 -0.37337943700E+03  0.39131600651E+03  0.00000000000E+00 0. -1.
         21    1    1    2  506  501 -0.14858859606E+03  0.13486287565E+03 -0.28682269944E+03  0.35004832098E+03  0.00000000000E+00 0. -1.
<scales pt_clust_3="32.87069" pt_clust_4="51.79394" pt_clust_5="51.79394" pt_clust_6="200.66531"></scales>
<clustering>
<clus scale="   32.871">  3  5 -1 -1</clus>
<clus scale="   51.794">  3  4 -1 -1</clus>
<clus scale="  200.665">  1  6  2 -1</clus>
<clus scale="  200.665">  1  3  2 -1</clus>
</clustering>
</event>
<event>
 6    0  0.6687079E+002  0.1306915E+03  0.7546771E-02  0.1226433E+00
         21   -1    0    0  506  501  0.00000000000E+00  0.00000000000E+00  0.12009795490E+04  0.12009795490E+04  0.00000000000E+00 0.  1.
         21   -1    0    0  505  502 -0.00000000000E+00 -0.00000000000E+00 -0.16328972864E+03  0.16328972864E+03  0.00000000000E+00 0.  1.
         21    1    1    2  503  501 -0.52536288776E+02 -0.91933988558E+02  0.24000938476E+03  0.26232884833E+03  0.00000000000E+00 0.  1.
         21    1    1    2  504  502  0.36387798304E+02 -0.31753871661E+02 -0.13110742122E+03  0.13971949087E+03  0.00000000000E+00 0.  1.
         21    1    1    2  505  503 -0.39514339061E+02 -0.86743912364E+01  0.26010131265E+02  0.48095269863E+02  0.00000000000E+00 0.  1.
         21    1    1    2  506  504  0.55662829533E+02  0.13236225146E+03  0.90277772555E+03  0.91412566858E+03  0.00000000000E+00 0.  1.
<scales pt_clust_3="130.69147" pt_clust_4="39.48870" pt_clust_5="40.45526" pt_clust_6="14000.00000"></scales>
<clustering>
<clus scale="   40.455">  2  5  1 -1</clus>
<clus scale="   39.489">  2  4  1 -1</clus>
<clus scale="  130.691">  2  3  1 -1</clus>
<clus scale="  130.691">  1  3  2 -1</clus>
</clustering>
</event>
<event>
 6    0  0.6687079E+002  0.2536401E+03  0.7546771E-02  0.1111026E+00
         21   -1    0    0  506  501  0.00000000000E+00  0.00000000000E+00  0.11124813130E+04  0.11124813130E+04  0.00000000000E+00 0.  1.
         21   -1    0    0  503  502 -0.00000000000E+00 -0.00000000000E+00 -0.47307402487E+03  0.47307402487E+03  0.00000000000E+00 0.  1.
         21    1    1    2  503  504  0.33812365884E+02  0.75413930558E+02 -0.38353954471E+03  0.39234311433E+03  0.00000000000E+00 0.  1.
         21    1    1    2  504  505  0.20141526446E+02  0.20577050915E+03  0.18343896837E+03  0.27640014225E+03  0.00000000000E+00 0.  1.
         21    1    1    2  505  501  0.49700477681E+02 -0.11235048504E+02  0.34741281601E+02  0.61671066505E+02  0.00000000000E+00 0. -1.
         21    1    1    2  506  502 -0.10365437001E+03 -0.26994939120E+03  0.80476658289E+03  0.85514101479E+03  0.00000000000E+00 0.  1.
<scales pt_clust_3="82.68902" pt_clust_4="14000.00000" pt_clust_5="50.95453" pt_clust_6="253.64012"></scales>
<clustering>
<clus scale="   50.955">  1  5  2 -1</clus>
<clus scale="   82.689">  2  3  1 -1</clus>
<clus scale="  253.640">  1  6  2 -1</clus>
<clus scale="   50.955">  1  3  2 -1</clus>
</clustering>
</event>
<event>
 6    0  0.6687079E+002  0.9600600E+02  0.7546771E-02  0.1288926E+00
         21   -1    0    0  506  501  0.00000000000E+00  0.00000000000E+00  0.49206450457E+02  0.49206450457E+02  0.00000000000E+00 0.  1.
         21   -1    0    0  505  502 -0.00000000000E+00 -0.00000000000E+00 -0.25825724758E+04  0.25825724758E+04  0.00000000000E+00 0.  1.
         21    1    1    2  503  504 -0.31825726953E+02 -0.20075091504E+02 -0.11766055667E+03  0.12353093860E+03  0.00000000000E+00 0. -1.
         21    1    1    2  504  502 -0.80195238504E+02  0.53628795480E+02 -0.23619312861E+04  0.23639007433E+04  0.00000000000E+00 0.  1.
         21    1    1    2  505  501  0.83124777905E+02 -0.14152396313E+02 -0.50544684257E+01  0.84472283468E+02  0.00000000000E+00 0.  1.
         21    1    1    2  506  503  0.28896187552E+02 -0.19401307662E+02 -0.48719714167E+02  0.59874960898E+02  0.00000000000E+00 0.  1.
<scales pt_clust_3="36.74282" pt_clust_4="96.00600" pt_clust_5="14000.00000" pt_clust_6="34.80518"></scales>
<clustering>
<clus scale="   34.805">  1  6  2 -1</clus>
<clus scale="   36.743">  1  3  2 -1</clus>
<clus scale="   96.006">  2  4  1 -1</clus>
<clus scale="   34.805">  1  3  2 -1</clus>
</clustering>
</event>
<event>
 6    0  0.6687079E+002  0.1647329E+03  0.7546771E-02  0.1183455E+00
         21   -1    0    0  503  501  0.00000000000E+00  0.00000000000E+00  0.12229270534E+03  0.12229270534E+03  0.00000000000E+00 0.  1.
         21   -1    0    0  504  502 -0.00000000000E+00 -0.00000000000E+00 -0.47191880300E+03  0.47191880300E+03  0.00000000000E+00 0.  1.
         21    1    1    2  503  502 -0.12564422717E+03  0.52725322606E+02 -0.11276395118E+03  0.17686757801E+03  0.00000000000E+00 0. -1.
         21    1    1    2  504  505 -0.11709927404E+02  0.40438917918E+02 -0.23775988214E+03  0.24145846442E+03  0.00000000000E+00 0.  1.
         21    1    1    2  505  506  0.87635086058E+02 -0.65175480817E+02  0.27960845280E+02  0.11273668647E+03  0.00000000000E+00 0.  1.
         21    1    1    2  506  501  0.49719068513E+02 -0.27988759707E+02 -0.27063109609E+02  0.63148779445E+02  0.00000000000E+00 0.  1.
<scales pt_clust_3="154.10311" pt_clust_4="42.10022" pt_clust_5="42.07804" pt_clust_6="42.07804"></scales>
<clustering>
<clus scale="   42.078">  5  6 -1 -1</clus>
<clus scale="   42.100">  2  4  1 -1</clus>
<clus scale="  154.103">  2  3  1 -1</clus>
<clus scale="  164.733">  1  3  2 -1</clus>
</clustering>
</event>
<event>
 6    0  0.6687079E+002  0.1523939E+03  0.7546771E-02  0.1197562E+00
         21   -1    0    0  504  501  0.00000000000E+00  0.00000000000E+00  0.67244892854E+03  0.67244892854E+03  0.00000000000E+00 0.  1.
         21   -1    0    0  505  502 -0.00000000000E+00 -0.00000000000E+00 -0.80494574600E+02  0.80494574600E+02  0.00000000000E+00 0.  1.
         21    1    1    2  503  501  0.32300332046E+02 -0.17487368520E+02  0.26344891474E+03  0.26599708680E+03  0.00000000000E+00 0.  1.
         21    1    1    2  504  502 -0.12686952373E+03 -0.62790620918E+02  0.13585953103E+02  0.14220800346E+03  0.00000000000E+00 0.  1.
         21    1    1    2  505  506  0.48422542179E+02  0.59382401423E+02  0.11276789695E+03  0.13633638829E+03  0.00000000000E+00 0.  1.
         21    1    1    2  506  503  0.46146649503E+02  0.20895588016E+02  0.20215158915E+03  0.20840202459E+03  0.00000000000E+00 0.  1.
<scales pt_clust_3="36.73036" pt_clust_4="137.62817" pt_clust_5="58.52237" pt_clust_6="58.52237"></scales>
<clustering>
<clus scale="   36.730">  1  3  2 -1</clus>
<clus scale="   58.522">  5  6 -1 -1</clus>
<clus scale="  137.628">  2  4  1 -1</clus>
<clus scale="   36.730">  1  3  2 -1</clus>
</clustering>
</event>
<event>
 6    0  0.6687079E+002  0.7376385E+02  0.7546771E-02  0.1347742E+00
         21   -1    0    0  505  501  0.00000000000E+00  0.00000000000E+00  0.13273130542E+03  0.13273130542E+03  0.00000000000E+00 0. -1.
         21   -1    0    0  504  502 -0.00000000000E+00 -0.00000000000E+00 -0.64512610173E+03  0.64512610173E+03  0.00000000000E+00 0. -1.
         21    1    1    2  503  501 -0.45159884750E+02 -0.35268658166E+02 -0.15668008970E+03  0.16682908604E+03  0.00000000000E+00 0. -1.
         21    1    1    2  504  503  0.32045945223E+01 -0.73970536186E+02 -0.30465058413E+03  0.31351856095E+03  0.00000000000E+00 0. -1.
         21    1    1    2  505  506  0.38163970185E+02  0.35858795502E+02  0.10925351206E+03  0.12115556831E+03  0.00000000000E+00 0. -1.
         21    1    1    2  506  502  0.37913200430E+01  0.73380398850E+02 -0.16031763453E+03  0.17635419186E+03  0.00000000000E+00 0. -1.
<scales pt_clust_3="42.22384" pt_clust_4="73.76385" pt_clust_5="52.36737" pt_clust_6="14000.00000"></scales>
<clustering>
<clus scale="   52.367">  1  5  2 -1</clus>
<clus scale="   42.224">  1  3  2 -1</clus>
<clus scale="   73.764">  2  4  1 -1</clus>
<clus scale="   52.367">  1  3  2 -1</clus>
</clustering>
</event>
<event>
 6    0  0.6687079E+002  0.9542459E+02  0.7546771E-02  0.1290223E+00
         21   -1    0    0  503  501  0.00000000000E+00  0.00000000000E+00  0.12094081577E+04  0.12094081577E+04  0.00000000000E+00 0.  1.
         21   -1    0    0  505  502 -0.00000000000E+00 -0.00000000000E+00 -0.32589157218E+03  0.32589157218E+03  0.00000000000E+00 0. -1.
         21    1    1    2  503  502 -0.17570831043E+03  0.82594178497E+00  0.95194304350E+03  0.96802357957E+03  0.00000000000E+00 0.  1.
         21    1    1    2  504  501  0.47088534357E+02  0.81557363611E+01  0.15613431603E+03  0.16328432486E+03  0.00000000000E+00 0.  1.
         21    1    1    2  505  506  0.71082438339E+02 -0.63220981683E+02 -0.28756281338E+03  0.30288938114E+03  0.00000000000E+00 0. -1.
         21    1    1    2  506  504  0.57537337739E+02  0.54239303537E+02  0.63002039413E+02  0.10110244434E+03  0.00000000000E+00 0.  1.
<scales pt_clust_3="14000.00000" pt_clust_4="47.78960" pt_clust_5="95.42459" pt_clust_6="82.21389"></scales>
<clustering>
<clus scale="   47.790">  1  4  2 -1</clus>
<clus scale="   82.214">  1  6  2 -1</clus>
<clus scale="   95.425">  2  5  1 -1</clus>
<clus scale="   47.790">  1  3  2 -1</clus>
</clustering>
</event>
<event>
 6    0  0.6687079E+002  0.1189123E+03  0.7546771E-02  0.1244902E+00
         21   -1    0    0  504  501  0.00000000000E+00  0.00000000000E+00  0.10096837319E+03  0.10096837319E+03  0.00000000000E+00 0. -1.
         21   -1    0    0  506  502 -0.00000000000E+00 -0.00000000000E+00 -0.48986427936E+03  0.48986427936E+03  0.00000000000E+00 0. -1.
         21    1    1    2  503  501  0.11904197732E+02  0.50689992121E+02  0.31234102719E+02  0.60718649504E+02  0.00000000000E+00 0. -1.
         21    1    1    2  504  505  0.96455180962E+02 -0.11282902204E+01 -0.16077080332E+03  0.18748900280E+03  0.00000000000E+00 0. -1.
         21    1    1    2  505  502  0.31325825638E+02 -0.98508557196E+01 -0.16772833495E+03  0.17091267084E+03  0.00000000000E+00 0. -1.
         21    1    1    2  506  503 -0.13968520433E+03 -0.39710846181E+02 -0.91630870625E+02  0.17171232939E+03  0.00000000000E+00 0. -1.
<scales pt_clust_3="51.97919" pt_clust_4="14000.00000" pt_clust_5="32.83819" pt_clust_6="118.91226"></scales>
<clustering>
<clus scale="   32.838">  2  5  1 -1</clus>
<clus scale="   51.979">  1  3  2 -1</clus>
<clus scale="  118.912">  1  6  2 -1</clus>
<clus scale="   51.979">  1  3  2 -1</clus>
</clustering>
</event>
<event>
 6    0  0.6687079E+002  0.8009597E+02  0.7546771E-02  0.1328779E+00
         21   -1    0    0  506  501  0.00000000000E+00  0.00000000000E+00  0.12223533209E+03  0.12223533209E+03  0.00000000000E+00 0. -1.
         21   -1    0    0  503  502 -0.00000000000E+00 -0.00000000000E+00 -0.34981846901E+03  0.34981846901E+03  0.00000000000E+00 0. -1.
         21    1    1    2  503  505 -0.10091147600E+03 -0.80535901506E+02 -0.19144010123E+03  0.23090792489E+03  0.00000000000E+00 0. -1.
         21    1    1    2  504  502  0.67596584232E+02  0.22854553610E+02 -0.69080702408E+02  0.99316525643E+02  0.00000000000E+00 0. -1.
         21    1    1    2  505  501 -0.44458334505E+02  0.25928896935E+02  0.25661016523E+02  0.57509468544E+02  0.00000000000E+00 0. -1.
         21    1    1    2  506  504  0.77773226271E+02  0.31752450962E+02  0.72766501917E+01  0.84319882025E+02  0.00000000000E+00 0. -1.
<scales pt_clust_3="80.09597" pt_clust_4="65.42325" pt_clust_5="51.46699" pt_clust_6="14000.00000"></scales>
<clustering>
<clus scale="   51.467">  1  5  2 -1</clus>
<clus scale="   65.423">  2  4  1 -1</clus>
<clus scale="   80.096">  2  3  1 -1</clus>
<clus scale="   51.467">  1  3  2 -1</clus>
</clustering>
</event>
<event>
 6    0  0.6687079E+002  0.1045468E+03  0.7546771E-02  0.1271015E+00
         21   -1    0    0  503  501  0.00000000000E+00  0.00000000000E+00  0.44716747480E+03  0.44716747480E+03  0.00000000000E+00 0.  1.
         21   -1    0    0  505  502 -0.00000000000E+00 -0.00000000000E+00 -0.25304221646E+03  0.25304221646E+03  0.00000000000E+00 0.  1.
         21    1    1    2  503  504  0.43946344832E+02 -0.69861202638E+01 -0.12983711759E+02  0.46353682394E+02  0.00000000000E+00 0. -1.
         21    1    1    2  504  502 -0.27565857209E+02 -0.24891001465E+02 -0.92931824805E+02  0.10007878146E+03  0.00000000000E+00 0.  1.
         21    1    1    2  505  506  0.88511565766E+02  0.40713177685E+02 -0.10030039702E+03  0.13982857274E+03  0.00000000000E+00 0.  1.
         21    1    1    2  506  501 -0.10489205339E+03 -0.88360559563E+01  0.40034119193E+03  0.41394865467E+03  0.00000000000E+00 0.  1.
<scales pt_clust_3="40.45184" pt_clust_4="37.14079" pt_clust_5="104.54682" pt_clust_6="14000.00000"></scales>
<clustering>
<clus scale="   37.141">  2  4  1 -1</clus>
<clus scale="   40.452">  2  3  1 -1</clus>
<clus scale="  104.547">  2  5  1 -1</clus>
<clus scale="  104.547">  1  3  2 -1</clus>
</clustering>
</event>
<event>
 6    0  0.6687079E+002  0.9195249E+02  0.7546771E-02  0.1298191E+00
         21   -1    0    0  503  501  0.00000000000E+00  0.00000000000E+00  0.13273217815E+03  0.13273217815E+03  0.00000000000E+00 0. -1.
         21   -1    0    0  504  502 -0.00000000000E+00 -0.00000000000E+00 -0.35446012327E+03  0.35446012327E+03  0.00000000000E+00 0.  1.
         21    1    1    2  503  506  0.36261212115E+02  0.11498897875E+03  0.62834971906E+02  0.13596166531E+03  0.00000000000E+00 0. -1.
         21    1    1    2  504  501 -0.10571648927E+02 -0.59982683903E+02 -0.17005681867E+02  0.63236661400E+02  0.00000000000E+00 0.  1.
         21    1    1    2  505  502  0.22892434592E+02 -0.38365917147E+02 -0.18850097664E+03  0.19372306355E+03  0.00000000000E+00 0.  1.
         21    1    1    2  506  505 -0.48581997780E+02 -0.16640377705E+02 -0.79056258524E+02  0.94270911157E+02  0.00000000000E+00 0. -1.
<scales pt_clust_3="91.95249" pt_clust_4="14000.00000" pt_clust_5="44.67670" pt_clust_6="51.92560"></scales>
<clustering>
<clus scale="   44.677">  2  5  1 -1</clus>
<clus scale="   51.926">  2  6  1 -1</clus>
<clus scale="   91.952">  1  3  2 -1</clus>
<clus scale="   91.952">  1  3  2 -1</clus>
</clustering>
</event>
<event>
 6    0  0.6687079E+002  0.1229265E+03  0.7546771E-02  0.1238346E+00
         21   -1    0    0  503  501  0.00000000000E+00  0.00000000000E+00  0.20166839838E+03  0.20166839838E+03  0.00000000000E+00 0.  1.
         21   -1    0    0  506  502 -0.00000000000E+00 -0.00000000000E+00 -0.14485084866E+03  0.14485084866E+03  0.00000000000E+00 0. -1.
         21    1    1    2  503  505  0.23978037768E+02  0.51524895155E+02  0.63864070618E+02  0.85489067323E+02  0.00000000000E+00 0.  1.
         21    1    1    2  504  501 -0.48306232036E+01 -0.10091237752E+03  0.49996542060E+02  0.11272221198E+03  0.00000000000E+00 0. -1.
         21    1    1    2  505  502  0.15058216637E+02  0.67431042897E+02  0.11078449352E+02  0.69974477308E+02  0.00000000000E+00 0. -1.
         21    1    1    2  506  504 -0.34205631202E+02 -0.18043560535E+02 -0.68121512309E+02  0.78333490424E+02  0.00000000000E+00 0. -1.
<scales pt_clust_3="50.08052" pt_clust_4="110.60173" pt_clust_5="50.08052" pt_clust_6="38.67293"></scales>
<clustering>
<clus scale="   38.673">  2  6  1 -1</clus>
<clus scale="   50.081">  3  5 -1 -1</clus>
<clus scale="  110.602">  1  4  2 -1</clus>
<clus scale="  110.602">  1  3  2 -1</clus>
</clustering>
</event>
<event>
 6    0  0.6687079E+002  0.1496989E+03  0.7546771E-02  0.1200843E+00
         21   -1    0    0  506  501  0.00000000000E+00  0.00000000000E+00  0.18493749799E+03  0.18493749799E+03  0.00000000000E+00 0.  1.
         21   -1    0    0  504  502 -0.00000000000E+00 -0.00000000000E+00 -0.20218966316E+04  0.20218966316E+04  0.00000000000E+00 0. -1.
         21    1    1    2  503  505 -0.39651607007E+02  0.84534799039E+02 -0.54808060546E+03  0.55597727675E+03  0.00000000000E+00 0. -1.
         21    1    1    2  504  501  0.22627999668E+03 -0.72031627424E+02 -0.12469410784E+04  0.12693515058E+04  0.00000000000E+00 0. -1.
         21    1    1    2  505  502 -0.38959249376E+02 -0.68397312299E+01 -0.17696313251E+03  0.18132996250E+03  0.00000000000E+00 0. -1.
         21    1    1    2  506  503 -0.14766914030E+03 -0.56634403848E+01  0.13502568279E+03  0.20017538451E+03  0.00000000000E+00 0.  1.
<scales pt_clust_3="97.14894" pt_clust_4="149.69889" pt_clust_5="39.55509" pt_clust_6="14000.00000"></scales>
<clustering>
<clus scale="   39.555">  2  5  1 -1</clus>
<clus scale="   97.149">  2  3  1 -1</clus>
<clus scale="  149.699">  2  4  1 -1</clus>
<clus scale="  149.699">  1  3  2 -1</clus>
</clustering>
</event>
<event>
 6    0  0.6687079E+002  0.3790946E+03  0.7546771E-02  0.1051269E+00
         21   -1    0    0  504  501  0.00000000000E+00  0.00000000000E+00  0.20157058631E+04  0.20157058631E+04  0.00000000000E+00 0. -1.
         21   -1    0    0  505  502 -0.00000000000E+00 -0.00000000000E+00 -0.13323520736E+03  0.13323520736E+03  0.00000000000E+00 0. -1.
         21    1    1    2  503  502 -0.29766329926E+03 -0.26565045029E+03  0.12100312784E+04  0.12741072546E+04  0.00000000000E+00 0. -1.
         21    1    1    2  504  503  0.24011192387E+02 -0.37606746497E+02  0.91397452692E+02  0.10170692750E+03  0.00000000000E+00 0.  1.
         21    1    1    2  505  506  0.27521516396E+03  0.25201729584E+03  0.27686787093E+03  0.46466323486E+03  0.00000000000E+00 0. -1.
         21    1    1    2  506  501 -0.15630570886E+01  0.51239900937E+02  0.30417405374E+03  0.30846365356E+03  0.00000000000E+00 0. -1.
<scales pt_clust_3="14000.00000" pt_clust_4="44.61844" pt_clust_5="379.09459" pt_clust_6="45.29432"></scales>
<clustering>
<clus scale="   44.618">  1  4  2 -1</clus>
<clus scale="   45.294">  1  6  2 -1</clus>
<clus scale="  379.095">  2  5  1 -1</clus>
<clus scale="   44.618">  1  3  2 -1</clus>
</clustering>
</event>
<event>
 6    0  0.6687079E+002  0.9598353E+02  0.7546771E-02  0.1288976E+00
         21   -1    0    0  504  501  0.00000000000E+00  0.00000000000E+00  0.93522805062E+03  0.93522805062E+03  0.00000000000E+00 0. -1.
         21   -1    0    0  505  502 -0.00000000000E+00 -0.00000000000E+00 -0.21285608148E+03  0.21285608148E+03  0.00000000000E+00 0. -1.
         21    1    1    2  503  506 -0.73675620099E+01 -0.12617031506E+03  0.16029947961E+03  0.20413023425E+03  0.00000000000E+00 0. -1.
         21    1    1    2  504  503 -0.33589047455E+02  0.86627782258E+02  0.66473191586E+03  0.67119379968E+03  0.00000000000E+00 0. -1.
         21    1    1    2  505  501  0.10669488787E+03  0.39932826279E+02 -0.15243523005E+03  0.19030220459E+03  0.00000000000E+00 0. -1.
         21    1    1    2  506  502 -0.65738278402E+02 -0.39029347578E+00  0.49775803719E+02  0.82457893571E+02  0.00000000000E+00 0. -1.
<scales pt_clust_3="95.98353" pt_clust_4="14000.00000" pt_clust_5="63.28364" pt_clust_6="65.73944"></scales>
<clustering>
<clus scale="   65.739">  2  6  1 -1</clus>
<clus scale="   63.284">  2  5  1 -1</clus>
<clus scale="   95.984">  2  3  1 -1</clus>
<clus scale="   95.984">  1  3  2 -1</clus>
</clustering>
</event>
<event>
 6    0  0.6687079E+002  0.1209984E+03  0.7546771E-02  0.1241459E+00
         21   -1    0    0  505  501  0.00000000000E+00  0.00000000000E+00  0.41497477150E+03  0.41497477150E+03  0.00000000000E+00 0.  1.
         21   -1    0    0  504  502 -0.00000000000E+00 -0.00000000000E+00 -0.70563119748E+02  0.70563119748E+02  0.00000000000E+00 0. -1.
         21    1    1    2  503  501 -0.89165920377E+02  0.88638406581E+01  0.49410543925E+02  0.10232561204E+03  0.00000000000E+00 0. -1.
         21    1    1    2  504  506  0.48372619284E+02 -0.58691978346E+02  0.67558871444E+02  0.10172934547E+03  0.00000000000E+00 0. -1.
         21    1    1    2  505  502  0.67985423618E+02  0.83343710898E+02  0.20796666987E+03  0.23413314107E+03  0.00000000000E+00 0.  1.
         21    1    1    2  506  503 -0.27192122524E+02 -0.33515573210E+02  0.19475566511E+02  0.47349792670E+02  0.00000000000E+00 0.  1.
<scales pt_clust_3="41.12020" pt_clust_4="76.05694" pt_clust_5="105.49924" pt_clust_6="41.12020"></scales>
<clustering>
<clus scale="   41.120">  3  6 -1 -1</clus>
<clus scale="   76.057">  2  4  1 -1</clus>
<clus scale="  105.499">  1  5  2 -1</clus>
<clus scale="  105.499">  1  3  2 -1</clus>
</clustering>
</event>
<event>
 6    0  0.6687079E+002  0.1142759E+03  0.7546771E-02  0.1252850E+00
         21   -1    0    0  503  501  0.00000000000E+00  0.00000000000E+00  0.66054552218E+03  0.66054552218E+03  0.00000000000E+00 0. -1.
         21   -1    0    0  506  502 -0.00000000000E+00 -0.00000000000E+00 -0.12543121179E+04  0.12543121179E+04  0.00000000000E+00 0. -1.
         21    1    1    2  503  504 -0.73575374898E+02 -0.72352615951E+02 -0.15271698911E+03  0.18431146354E+03  0.00000000000E+00 0. -1.
         21    1    1    2  504  502  0.32234012804E+01 -0.98996197863E+02 -0.58330412767E+03  0.59165390463E+03  0.00000000000E+00 0. -1.
         21    1    1    2  505  501  0.91864479576E+02  0.78533713619E+01  0.62344696178E+03  0.63022763523E+03  0.00000000000E+00 0. -1.
         21    1    1    2  506  505 -0.21512505958E+02  0.16349544245E+03 -0.48119244075E+03  0.50866463672E+03  0.00000000000E+00 0. -1.
<scales pt_clust_3="75.15015" pt_clust_4="114.27588" pt_clust_5="92.19956" pt_clust_6="14000.00000"></scales>
<clustering>
<clus scale="   92.200">  1  5  2 -1</clus>
<clus scale="   75.150">  1  3  2 -1</clus>
<clus scale="  114.276">  2  4  1 -1</clus>
<clus scale="   92.200">  1  3  2 -1</clus>
</clustering>
</event>
<event>
 6    0  0.6687079E+002  0.1212591E+03  0.7546771E-02  0.1241034E+00
         21   -1    0    0  502  501  0.00000000000E+00  0.00000000000E+00  0.26629001030E+03  0.26629001030E+03  0.00000000000E+00 0.  1.
         21   -1    0    0  504  502 -0.00000000000E+00 -0.00000000000E+00 -0.88901068553E+02  0.88901068553E+02  0.00000000000E+00 0. -1.
         21    1    1    2  503  505  0.33871256184E+02  0.49817472876E+02 -0.18993750247E+02  0.63164904399E+02  0.00000000000E+00 0. -1.
         21    1    1    2  504  503 -0.16455976071E+02  0.28168597714E+02  0.25259044345E+01  0.32720776868E+02  0.00000000000E+00 0. -1.
         21    1    1    2  505  506  0.33101237535E+02  0.29306577926E+02  0.19216530494E+02  0.48206249391E+02  0.00000000000E+00 0. -1.
         21    1    1    2  506  501 -0.50516517649E+02 -0.10729264852E+03  0.17464025706E+03  0.21109914819E+03  0.00000000000E+00 0.  1.
<scales pt_clust_3="32.96369" pt_clust_4="32.62314" pt_clust_5="32.96369" pt_clust_6="114.22004"></scales>
<clustering>
<clus scale="   32.623">  2  4  1 -1</clus>
<clus scale="   32.964">  3  5 -1 -1</clus>
<clus scale="  114.220">  1  6  2 -1</clus>
<clus scale="  114.220">  1  3  2 -1</clus>
</clustering>
</event>
<event>
 6    0  0.6687079E+002  0.6866803E+02  0.7546771E-02  0.1364682E+00
         21   -1    0    0  504  501  0.00000000000E+00  0.00000000000E+00  0.26978448231E+03  0.26978448231E+03  0.00000000000E+00 0.  1.
         21   -1    0    0  505  502 -0.00000000000E+00 -0.00000000000E+00 -0.79223281187E+03  0.79223281187E+03  0.00000000000E+00 0.  1.
         21    1    1    2  503  501  0.66529888497E+02 -0.32825270072E+01  0.22369103345E+03  0.23339811373E+03  0.00000000000E+00 0.  1.
         21    1    1    2  504  506 -0.36755845461E+02 -0.53717113874E+02 -0.82337385454E+01  0.65607278170E+02  0.00000000000E+00 0.  1.
         21    1    1    2  505  503  0.48607007924E+02  0.52510436916E+02 -0.60058584757E+03  0.60483332209E+03  0.00000000000E+00 0.  1.
         21    1    1    2  506  502 -0.78381050960E+02  0.44892039649E+01 -0.13731977690E+03  0.15817858019E+03  0.00000000000E+00 0.  1.
<scales pt_clust_3="62.78580" pt_clust_4="65.08856" pt_clust_5="68.66803" pt_clust_6="14000.00000"></scales>
<clustering>
<clus scale="   65.089">  1  4  2 -1</clus>
<clus scale="   62.786">  1  3  2 -1</clus>
<clus scale="   68.668">  2  5  1 -1</clus>
<clus scale="   65.089">  1  3  2 -1</clus>
</clustering>
</event>
<event>
 6    0  0.6687079E+002  0.1223721E+03  0.7546771E-02  0.1239234E+00
         21   -1    0    0  506  501  0.00000000000E+00  0.00000000000E+00  0.13923732282E+04  0.13923732282E+04  0.00000000000E+00 0.  1.
         21   -1    0    0  503  502 -0.00000000000E+00 -0.00000000000E+00 -0.11987039906E+03  0.11987039906E+03  0.00000000000E+00 0.  1.
         21    1    1    2  503  501  0.19611933743E+03  0.88027855535E+02  0.58206605526E+03  0.62049382797E+03  0.00000000000E+00 0.  1.
         21    1    1    2  504  505 -0.62540376422E+02 -0.47176477388E+02  0.32951570730E+02  0.84986614918E+02  0.00000000000E+00 0. -1.
         21    1    1    2  505  502 -0.49981372997E+02 -0.12962552495E+02 -0.62689451380E+02  0.81216579146E+02  0.00000000000E+00 0.  1.
         21    1    1    2  506  504 -0.83597588011E+02 -0.27888825653E+02  0.72017465455E+03  0.72554660523E+03  0.00000000000E+00 0.  1.
<scales pt_clust_3="122.37213" pt_clust_4="14000.00000" pt_clust_5="51.63492" pt_clust_6="91.01470"></scales>
<clustering>
<clus scale="   51.635">  2  5  1 -1</clus>
<clus scale="   91.015">  1  6  2 -1</clus>
<clus scale="  122.372">  1  3  2 -1</clus>
<clus scale="   91.015">  1  3  2 -1</clus>
</clustering>
</event>
<event>
 6    0  0.6687079E+002  0.8808927E+02  0.7546771E-02  0.1307546E+00
         21   -1    0    0  503  501  0.00000000000E+00  0.00000000000E+00  0.38955949396E+03  0.38955949396E+03  0.00000000000E+00 0.  1.
         21   -1    0    0  504  502 -0.00000000000E+00 -0.00000000000E+00 -0.70968997642E+03  0.70968997642E+03  0.00000000000E+00 0. -1.
         21    1    1    2  503  502  0.25130038756E+02  0.27269187957E+02  0.98242056831E+01  0.38361992611E+02  0.00000000000E+00 0.  1.
         21    1    1    2  504  505 -0.50807757551E+02 -0.42920086497E+02 -0.66752901254E+03  0.67083421547E+03  0.00000000000E+00 0. -1.
         21    1    1    2  505  506  0.10224292563E+03 -0.17456295121E+02  0.12974776771E+03  0.16611087053E+03  0.00000000000E+00 0.  1.
         21    1    1    2  506  501 -0.76565206838E+02  0.33107193660E+02  0.20782655669E+03  0.22394239178E+03  0.00000000000E+00 0.  1.
<scales pt_clust_3="37.08271" pt_clust_4="66.34349" pt_clust_5="14000.00000" pt_clust_6="88.08927"></scales>
<clustering>
<clus scale="   37.083">  1  3  2 -1</clus>
<clus scale="   66.343">  2  4  1 -1</clus>
<clus scale="   88.089">  1  6  2 -1</clus>
<clus scale="   37.083">  1  3  2 -1</clus>
</clustering>
</event>
<event>
 6    0  0.6687079E+002  0.1339764E+03  0.7546771E-02  0.1221672E+00
         21   -1    0    0  504  501  0.00000000000E+00  0.00000000000E+00  0.64833358631E+03  0.64833358631E+03  0.00000000000E+00 0.  1.
         21   -1    0    0  506  502 -0.00000000000E+00 -0.00000000000E+00 -0.40965030759E+03  0.40965030759E+03  0.00000000000E+00 0.  1.
         21    1    1    2  503  502 -0.75126397422E+00 -0.11222720695E+03 -0.55865971736E+02  0.12536553424E+03  0.00000000000E+00 0. -1.
         21    1    1    2  504  503 -0.11185593376E+02  0.72497845211E+02  0.48574702228E+03  0.49125474523E+03  0.00000000000E+00 0.  1.
         21    1    1    2  505  501  0.98428831765E+01  0.73545386294E+02  0.11305494383E+03  0.13523027220E+03  0.00000000000E+00 0. -1.
         21    1    1    2  506  505  0.20939741737E+01 -0.33816024557E+02 -0.30425271565E+03  0.30613334223E+03  0.00000000000E+00 0.  1.
<scales pt_clust_3="14000.00000" pt_clust_4="133.97637" pt_clust_5="70.67634" pt_clust_6="33.88079"></scales>
<clustering>
<clus scale="   33.881">  2  6  1 -1</clus>
<clus scale="   70.676">  1  5  2 -1</clus>
<clus scale="  133.976">  1  4  2 -1</clus>
<clus scale="   70.676">  1  3  2 -1</clus>
</clustering>
</event>
<event>
 6    0  0.6687079E+002  0.7839293E+02  0.7546771E-02  0.1333675E+00
         21   -1    0    0  506  501  0.00000000000E+00  0.00000000000E+00  0.30692489198E+02  0.30692489198E+02  0.00000000000E+00 0.  1.
         21   -1    0    0  503  502 -0.00000000000E+00 -0.00000000000E+00 -0.25531955354E+04  0.25531955354E+04  0.00000000000E+00 0.  1.
         21    1    1    2  503  505  0.11192062033E+02 -0.70559249671E+02 -0.14208218058E+04  0.14226167699E+04  0.00000000000E+00 0.  1.
         21    1    1    2  504  502  0.20388899239E+02 -0.44807784388E+02 -0.31611041802E+03  0.31992067945E+03  0.00000000000E+00 0.  1.
         21    1    1    2  505  501  0.46976279108E+01  0.10840174507E+03 -0.79568568853E+03  0.80304963793E+03  0.00000000000E+00 0.  1.
         21    1    1    2  506  504 -0.36278589183E+02  0.69652889889E+01  0.10114866196E+02  0.38300937351E+02  0.00000000000E+00 0.  1.
<scales pt_clust_3="78.39293" pt_clust_4="43.85455" pt_clust_5="14000.00000" pt_clust_6="36.94119"></scales>
<clustering>
<clus scale="   36.941">  1  6  2 -1</clus>
<clus scale="   43.855">  1  4  2 -1</clus>
<clus scale="   78.393">  2  3  1 -1</clus>
<clus scale="   36.941">  1  3  2 -1</clus>
</clustering>
</event>
<event>
 6    0  0.6687079E+002  0.8238571E+02  0.7546771E-02  0.1322414E+00
         21   -1    0    0  506  501  0.00000000000E+00  0.00000000000E+00  0.61117982052E+02  0.61117982052E+02  0.00000000000E+00 0.  1.
         21   -1    0    0  503  502 -0.00000000000E+00 -0.00000000000E+00 -0.50941839705E+03  0.50941839705E+03  0.00000000000E+00 0.  1.
         21    1    1    2  503  501 -0.25840634219E+02 -0.57701074796E+02 -0.61676361272E+02  0.88323982865E+02  0.00000000000E+00 0.  1.
         21    1    1    2  504  505 -0.95823755042E+02 -0.28817741042E+01 -0.14104193158E+03  0.17053833327E+03  0.00000000000E+00 0.  1.
         21    1    1    2  505  502  0.45754513098E+02  0.41231085838E+02 -0.22122239276E+03  0.22963628844E+03  0.00000000000E+00 0.  1.
         21    1    1    2  506  504  0.75909876163E+02  0.19351763063E+02 -0.24359729380E+02  0.82037774520E+02  0.00000000000E+00 0.  1.
<scales pt_clust_3="48.79174" pt_clust_4="14000.00000" pt_clust_5="61.59122" pt_clust_6="82.38571"></scales>
<clustering>
<clus scale="   61.591">  2  5  1 -1</clus>
<clus scale="   48.792">  2  3  1 -1</clus>
<clus scale="   82.386">  1  6  2 -1</clus>
<clus scale="   82.386">  1  3  2 -1</clus>
</clustering>
</event>
<event>
 6    0  0.6687079E+002  0.1158986E+03  0.7546771E-02  0.1250021E+00
         21   -1    0    0  503  501  0.00000000000E+00  0.00000000000E+00  0.18109982008E+04  0.18109982008E+04  0.00000000000E+00 0. -1.
         21   -1    0    0  504  502 -0.00000000000E+00 -0.00000000000E+00 -0.31803173043E+03  0.31803173043E+03  0.00000000000E+00 0. -1.
         21    1    1    2  503  502  0.36738547770E+02  0.14142919490E+03 -0.42648312082E+02  0.15221963272E+03  0.00000000000E+00 0. -1.
         21    1    1    2  504  505 -0.31563915109E+02 -0.54726319816E+01 -0.20063218073E+03  0.20317357698E+03  0.00000000000E+00 0. -1.
         21    1    1    2  505  506 -0.79280153264E+02 -0.46043510765E+02  0.10989454300E+03  0.14311589068E+03  0.00000000000E+00 0.  1.
         21    1    1    2  506  501  0.74105520603E+02 -0.89913052157E+02  0.16263524202E+04  0.16305208308E+04  0.00000000000E+00 0. -1.
<scales pt_clust_3="115.89864" pt_clust_4="32.03483" pt_clust_5="95.99112" pt_clust_6="14000.00000"></scales>
<clustering>
<clus scale="   32.035">  2  4  1 -1</clus>
<clus scale="   95.991">  2  5  1 -1</clus>
<clus scale="  115.899">  2  3  1 -1</clus>
<clus scale="  115.899">  1  3  2 -1</clus>
</clustering>
</event>
<event>
 6    0  0.6687079E+002  0.9455265E+02  0.7546771E-02  0.1292187E+00
         21   -1    0    0  506  501  0.00000000000E+00  0.00000000000E+00  0.26467519637E+04  0.26467519637E+04  0.00000000000E+00 0.  1.
         21   -1    0    0  503  502 -0.00000000000E+00 -0.00000000000E+00 -0.72786295779E+03  0.72786295779E+03  0.00000000000E+00 0.  1.
         21    1    1    2  503  505  0.85500788278E+02 -0.40540492458E+02 -0.71733071782E+03  0.72354493644E+03  0.00000000000E+00 0.  1.
         21    1    1    2  504  502 -0.30723902439E+02 -0.73870384113E+02  0.41861974735E+03  0.42619629832E+03  0.00000000000E+00 0. -1.
         21    1    1    2  505  501 -0.16247644476E+02  0.78720469979E+02  0.19758642145E+04  0.19774984937E+04  0.00000000000E+00 0.  1.
         21    1    1    2  506  504 -0.38529241363E+02  0.35690406592E+02  0.24173576184E+03  0.24737519301E+03  0.00000000000E+00 0.  1.
<scales pt_clust_3="14000.00000" pt_clust_4="77.29935" pt_clust_5="94.55265" pt_clust_6="52.51959"></scales>
<clustering>
<clus scale="   52.520">  1  6  2 -1</clus>
<clus scale="   77.299">  1  4  2 -1</clus>
<clus scale="   94.553">  1  5  2 -1</clus>
<clus scale="   52.520">  1  3  2 -1</clus>
</clustering>
</event>
<event>
 6    0  0.6687079E+002  0.7103533E+02  0.7546771E-02  0.1356607E+00
         21   -1    0    0  506  501  0.00000000000E+00  0.00000000000E+00  0.21391616746E+04  0.21391616746E+04  0.00000000000E+00 0.  1.
         21   -1    0    0  504  502 -0.00000000000E+00 -0.00000000000E+00 -0.77598460779E+02  0.77598460779E+02  0.00000000000E+00 0.  1.
         21    1    1    2  503  501  0.40999925011E+02 -0.39802225777E+02  0.17805979135E+04  0.17815145637E+04  0.00000000000E+00 0.  1.
         21    1    1    2  504  505 -0.14550753563E+02 -0.63012930203E+02  0.15152518302E+03  0.16474900574E+03  0.00000000000E+00 0.  1.
         21    1    1    2  505  503 -0.75724780187E+02  0.48944007115E+02  0.16595421484E+03  0.18886651262E+03  0.00000000000E+00 0.  1.
         21    1    1    2  506  502  0.49275608739E+02  0.53871148865E+02 -0.36514097511E+02  0.81630053373E+02  0.00000000000E+00 0.  1.
<scales pt_clust_3="57.14203" pt_clust_4="14000.00000" pt_clust_5="62.64751" pt_clust_6="71.03533"></scales>
<clustering>
<clus scale="   57.142">  1  3  2 -1</clus>
<clus scale="   62.648">  1  5  2 -1</clus>
<clus scale="   71.035">  2  6  1 -1</clus>
<clus scale="   57.142">  1  3  2 -1</clus>
</clustering>
</event>
<event>
 6    0  0.6687079E+002  0.8455399E+02  0.7546771E-02  0.1316603E+00
         21   -1    0    0  503  501  0.00000000000E+00  0.00000000000E+00  0.81496237566E+03  0.81496237566E+03  0.00000000000E+00 0. -1.
         21   -1    0    0  504  502 -0.00000000000E+00 -0.00000000000E+00 -0.22663984242E+03  0.22663984242E+03  0.00000000000E+00 0. -1.
         21    1    1    2  503  506  0.51484647796E+02  0.68673991001E+02  0.54264261847E+03  0.54938856685E+03  0.00000000000E+00 0. -1.
         21    1    1    2  504  505 -0.33090824860E+02 -0.11955293224E+02 -0.15820342862E+03  0.16206867851E+03  0.00000000000E+00 0. -1.
         21    1    1    2  505  501  0.11952201453E+02 -0.10071246046E+03  0.24339564426E+03  0.26368028833E+03  0.00000000000E+00 0. -1.
         21    1    1    2  506  502 -0.30346024389E+02  0.43993762679E+02 -0.39512300869E+02  0.66464684388E+02  0.00000000000E+00 0.  1.
<scales pt_clust_3="14000.00000" pt_clust_4="35.18425" pt_clust_5="84.55399" pt_clust_6="66.36485"></scales>
<clustering>
<clus scale="   35.184">  2  4  1 -1</clus>
<clus scale="   66.365">  2  6  1 -1</clus>
<clus scale="   84.554">  2  5  1 -1</clus>
<clus scale="   84.554">  1  3  2 -1</clus>
</clustering>
</event>
<event>
 6    0  0.6687079E+002  0.8635209E+02  0.7546771E-02  0.1311934E+00
         21   -1    0    0  506  501  0.00000000000E+00  0.00000000000E+00  0.16536380120E+03  0.16536380120E+03  0.00000000000E+00 0. -1.
         21   -1    0    0  504  502 -0.00000000000E+00 -0.00000000000E+00 -0.48380850272E+03  0.48380850272E+03  0.00000000000E+00 0.  1.
         21    1    1    2  503  502 -0.41050965676E+02  0.15735232667E+02 -0.53842858483E+02  0.69511385683E+02  0.00000000000E+00 0.  1.
         21    1    1    2  504  505  0.35382576579E+02 -0.30381884164E+02 -0.60622028045E+02  0.76485396613E+02  0.00000000000E+00 0.  1.
         21    1    1    2  505  501 -0.84326536365E+02  0.18162027044E+02  0.13069448153E+03  0.15659460867E+03  0.00000000000E+00 0. -1.
         21    1    1    2  506  503  0.89994925462E+02 -0.35153755468E+01 -0.33467429652E+03  0.34658091295E+03  0.00000000000E+00 0.  1.
<scales pt_clust_3="43.96339" pt_clust_4="39.98649" pt_clust_5="86.35209" pt_clust_6="14000.00000"></scales>
<clustering>
<clus scale="   43.963">  2  3  1 -1</clus>
<clus scale="   39.986">  2  4  1 -1</clus>
<clus scale="   86.352">  1  5  2 -1</clus>
<clus scale="   86.352">  1  3  2 -1</clus>
</clustering>
</event>
<event>
 6    0  0.6687079E+002  0.1009743E+03  0.7546771E-02  0.1278260E+00
         21   -1    0    0  502  501  0.00000000000E+00  0.00000000000E+00  0.44817983607E+03  0.44817983607E+03  0.00000000000E+00 0.  1.
         21   -1    0    0  506  502 -0.00000000000E+00 -0.00000000000E+00 -0.16446008450E+04  0.16446008450E+04  0.00000000000E+00 0. -1.
         21    1    1    2  503  504 -0.36576836537E+02  0.78539399720E+02 -0.11711082638E+03  0.14567514522E+03  0.00000000000E+00 0. -1.
         21    1    1    2  504  505 -0.40079219296E+02 -0.12186716433E+02 -0.65566145175E+02  0.77806036205E+02  0.00000000000E+00 0. -1.
         21    1    1    2  505  501 -0.21114932162E+02 -0.26043721004E+02  0.42517728505E+03  0.42649717407E+03  0.00000000000E+00 0.  1.
         21    1    1    2  506  503  0.97770987996E+02 -0.40308962284E+02 -0.14389213225E+04  0.14428023256E+04  0.00000000000E+00 0. -1.
<scales pt_clust_3="14000.00000" pt_clust_4="49.76630" pt_clust_5="33.52784" pt_clust_6="100.97425"></scales>
<clustering>
<clus scale="   33.528">  1  5  2 -1</clus>
<clus scale="   49.766">  1  4  2 -1</clus>
<clus scale="  100.974">  2  6  1 -1</clus>
<clus scale="   33.528">  1  3  2 -1</clus>
</clustering>
</event>
<event>
 6    0  0.6687079E+002  0.1080274E+03  0.7546771E-02  0.1264267E+00
         21   -1    0    0  503  501  0.00000000000E+00  0.00000000000E+00  0.46328534710E+03  0.46328534710E+03  0.00000000000E+00 0. -1.
         21   -1    0    0  506  502 -0.00000000000E+00 -0.00000000000E+00 -0.29960284152E+03  0.29960284152E+03  0.00000000000E+00 0. -1.
         21    1    1    2  503  504 -0.69963018462E+02  0.66410595830E+02  0.11817433487E+02  0.97184581725E+02  0.00000000000E+00 0. -1.
         21    1    1    2  504  502 -0.99480939679E+02  0.27584627569E+02 -0.18945772742E+03  0.21575819687E+03  0.00000000000E+00 0. -1.
         21    1    1    2  505  501  0.25262738714E+02 -0.62293305761E+02  0.28356466057E+03  0.29142336666E+03  0.00000000000E+00 0. -1.
         21    1    1    2  506  505  0.14418121943E+03 -0.31701917638E+02  0.57758138943E+02  0.15852204336E+03  0.00000000000E+00 0. -1.
<scales pt_clust_3="77.96422" pt_clust_4="108.02744" pt_clust_5="67.22099" pt_clust_6="14000.00000"></scales>
<clustering>
<clus scale="   67.221">  1  5  2 -1</clus>
<clus scale="   77.964">  1  3  2 -1</clus>
<clus scale="  108.027">  2  4  1 -1</clus>
<clus scale="   67.221">  1  3  2 -1</clus>
</clustering>
</event>
<event>
 6    0  0.6687079E+002  0.1159653E+03  0.7546771E-02  0.1249906E+00
         21   -1    0    0  506  501  0.00000000000E+00  0.00000000000E+00  0.31235978815E+02  0.31235978815E+02  0.00000000000E+00 0. -1.
         21   -1    0    0  505  502 -0.00000000000E+00 -0.00000000000E+00 -0.31272225862E+04  0.31272225862E+04  0.00000000000E+00 0. -1.
         21    1    1    2  503  501 -0.11055869883E+03  0.15685449050E+02 -0.10714864959E+03  0.15475817364E+03  0.00000000000E+00 0. -1.
         21    1    1    2  504  502  0.14283275236E+02 -0.26780838580E+02 -0.26035261891E+03  0.26211583591E+03  0.00000000000E+00 0.  1.
         21    1    1    2  505  503 -0.70092467008E+02 -0.32339809219E+02 -0.13836713939E+04  0.13858229842E+04  0.00000000000E+00 0. -1.
         21    1    1    2  506  504  0.16636789061E+03  0.43435198750E+02 -0.13448139450E+04  0.13557615713E+04  0.00000000000E+00 0. -1.
<scales pt_clust_3="115.96526" pt_clust_4="30.35169" pt_clust_5="77.73906" pt_clust_6="14000.00000"></scales>
<clustering>
<clus scale="   30.352">  2  4  1 -1</clus>
<clus scale="   77.739">  2  5  1 -1</clus>
<clus scale="  115.965">  1  3  2 -1</clus>
<clus scale="  115.965">  1  3  2 -1</clus>
</clustering>
</event>
<event>
 6    0  0.6687079E+002  0.5099612E+03  0.7546771E-02  0.1011211E+00
         21   -1    0    0  505  501  0.00000000000E+00  0.00000000000E+00  0.29925319242E+04  0.29925319242E+04  0.00000000000E+00 0.  1.
         21   -1    0    0  504  502 -0.00000000000E+00 -0.00000000000E+00 -0.98552264579E+02  0.98552264579E+02  0.00000000000E+00 0.  1.
         21    1    1    2  503  502 -0.16698531270E+03 -0.41148409958E+02  0.26098326426E+03  0.31255327630E+03  0.00000000000E+00 0. -1.
         21    1    1    2  504  501  0.45660838137E+03  0.14507475904E+03  0.20479533108E+04  0.21032476466E+04  0.00000000000E+00 0.  1.
         21    1    1    2  505  506 -0.62419385917E+02 -0.80385116354E+02  0.12132419338E+03  0.15835879063E+03  0.00000000000E+00 0.  1.
         21    1    1    2  506  503 -0.22720368275E+03 -0.23541232732E+02  0.46371889118E+03  0.51692447527E+03  0.00000000000E+00 0.  1.
<scales pt_clust_3="49.62194" pt_clust_4="479.10114" pt_clust_5="81.82338" pt_clust_6="81.82338"></scales>
<clustering>
<clus scale="   49.622">  3  6 -1 -1</clus>
<clus scale="   81.823">  3  5 -1 -1</clus>
<clus scale="  479.101">  1  4  2 -1</clus>
<clus scale="  479.101">  1  3  2 -1</clus>
</clustering>
</event>
<event>
 6    0  0.6687079E+002  0.8795598E+02  0.7546771E-02  0.1307878E+00
         21   -1    0    0  504  501  0.00000000000E+00  0.00000000000E+00  0.38820913313E+03  0.38820913313E+03  0.00000000000E+00 0. -1.
         21   -1    0    0  505  502 -0.00000000000E+00 -0.00000000000E+00 -0.17902732608E+03  0.17902732608E+03  0.00000000000E+00 0. -1.
         21    1    1    2  503  502  0.62635458726E+02 -0.97335417263E+02  0.15340666741E+03  0.19217437329E+03  0.00000000000E+00 0. -1.
         21    1    1    2  504  503  0.17452156226E+02  0.81592452121E+02  0.16381512843E+03  0.18384042619E+03  0.00000000000E+00 0. -1.
         21    1    1    2  505  506 -0.42912509152E+02  0.33719671381E+02 -0.13244975543E+03  0.14325305369E+03  0.00000000000E+00 0. -1.
         21    1    1    2  506  501 -0.37175105800E+02 -0.17976706239E+02  0.24409766643E+02  0.47968606046E+02  0.00000000000E+00 0. -1.
<scales pt_clust_3="14000.00000" pt_clust_4="87.95598" pt_clust_5="54.85669" pt_clust_6="41.29347"></scales>
<clustering>
<clus scale="   41.293">  1  6  2 -1</clus>
<clus scale="   54.857">  2  5  1 -1</clus>
<clus scale="   87.956">  1  4  2 -1</clus>
<clus scale="   41.293">  1  3  2 -1</clus>
</clustering>
</event>
<event>
 6    0  0.6687079E+002  0.8417366E+02  0.7546771E-02  0.1317608E+00
         21   -1    0    0  506  501  0.00000000000E+00  0.00000000000E+00  0.13755187980E+03  0.13755187980E+03  0.00000000000E+00 0.  1.
         21   -1    0    0  504  502 -0.00000000000E+00 -0.00000000000E+00 -0.56451830933E+03  0.56451830933E+03  0.00000000000E+00 0.  1.
         21    1    1    2  503  505 -0.18843519600E+02 -0.84697521726E+02 -0.12454909727E+03  0.15179336629E+03  0.00000000000E+00 0.  1.
         21    1    1    2  504  501 -0.14110812388E+02 -0.45606253580E+02  0.94238377959E+02  0.10564050962E+03  0.00000000000E+00 0.  1.
         21    1    1    2  505  502 -0.49654119445E+02  0.74860492415E+02 -0.26368075103E+03  0.27856267404E+03  0.00000000000E+00 0.  1.
         21    1    1    2  506  503  0.82608451432E+02  0.55443282890E+02 -0.13297495918E+03  0.16607363919E+03  0.00000000000E+00 0.  1.
<scales pt_clust_3="82.48717" pt_clust_4="47.73935" pt_clust_5="84.17366" pt_clust_6="14000.00000"></scales>
<clustering>
<clus scale="   47.739">  1  4  2 -1</clus>
<clus scale="   84.174">  2  5  1 -1</clus>
<clus scale="   82.487">  2  3  1 -1</clus>
<clus scale="   47.739">  1  3  2 -1</clus>
</clustering>
</event>
<event>
 6    0  0.6687079E+002  0.1883320E+03  0.7546771E-02  0.1159974E+00
         21   -1    0    0  505  501  0.00000000000E+00  0.00000000000E+00  0.22038468778E+03  0.22038468778E+03  0.00000000000E+00 0. -1.
         21   -1    0    0  506  502 -0.00000000000E+00 -0.00000000000E+00 -0.11715336506E+04  0.11715336506E+04  0.00000000000E+00 0.  1.
         21    1    1    2  503  501 -0.59626327816E+02 -0.10009124681E+03  0.73413756912E+02  0.13770670413E+03  0.00000000000E+00 0. -1.
         21    1    1    2  504  502 -0.35523095963E+02  0.16489194045E+02 -0.70677142919E+03  0.70785566112E+03  0.00000000000E+00 0.  1.
         21    1    1    2  505  504 -0.13966670143E+03  0.78303068452E+02 -0.25856433455E+03  0.30412772501E+03  0.00000000000E+00 0. -1.
         21    1    1    2  506  503  0.23481612521E+03  0.52989843158E+01 -0.59226956036E+02  0.24222824817E+03  0.00000000000E+00 0. -1.
<scales pt_clust_3="116.81475" pt_clust_4="39.16355" pt_clust_5="188.33197" pt_clust_6="14000.00000"></scales>
<clustering>
<clus scale="   39.164">  2  4  1 -1</clus>
<clus scale="  116.815">  1  3  2 -1</clus>
<clus scale="  188.332">  2  5  1 -1</clus>
<clus scale="  116.815">  1  3  2 -1</clus>
</clustering>
</event>
<event>
 6    0  0.6687079E+002  0.8176007E+02  0.7546771E-02  0.1324130E+00
         21   -1    0    0  505  501  0.00000000000E+00  0.00000000000E+00  0.28319143924E+03  0.28319143924E+03  0.00000000000E+00 0.  1.
         21   -1    0    0  504  502 -0.00000000000E+00 -0.00000000000E+00 -0.30908551139E+03  0.30908551139E+03  0.00000000000E+00 0.  1.
         21    1    1    2  503  506  0.71751685950E+02 -0.10380170022E+03  0.67667924760E+02  0.14318535347E+03  0.00000000000E+00 0.  1.
         21    1    1    2  504  503 -0.54641986281E+02  0.57023809925E+02 -0.22164133000E+03  0.23529203286E+03  0.00000000000E+00 0.  1.
         21    1    1    2  505  502  0.60378175490E+02  0.26287802109E+01  0.34309409219E+01  0.60532684696E+02  0.00000000000E+00 0.  1.
         21    1    1    2  506  501 -0.77487875159E+02  0.44149110088E+02  0.12464839216E+03  0.15326687961E+03  0.00000000000E+00 0.  1.
<scales pt_clust_3="14000.00000" pt_clust_4="81.76007" pt_clust_5="60.43538" pt_clust_6="63.43133"></scales>
<clustering>
<clus scale="   60.435">  1  5  2 -1</clus>
<clus scale="   63.431">  1  6  2 -1</clus>
<clus scale="   81.760">  2  4  1 -1</clus>
<clus scale="   60.435">  1  3  2 -1</clus>
</clustering>
</event>
<event>
 6    0  0.6687079E+002  0.1248321E+03  0.7546771E-02  0.1235332E+00
         21   -1    0    0  505  501  0.00000000000E+00  0.00000000000E+00  0.23268037478E+03  0.23268037478E+03  0.00000000000E+00 0.  1.
         21   -1    0    0  504  502 -0.00000000000E+00 -0.00000000000E+00 -0.35927963771E+03  0.35927963771E+03  0.00000000000E+00 0.  1.
         21    1    1    2  503  502 -0.30479295321E+02  0.25257153575E+02 -0.26508660434E+02  0.47640532407E+02  0.00000000000E+00 0.  1.
         21    1    1    2  504  506  0.50512941840E+02 -0.14487123524E+03 -0.26348735474E+03  0.30490132535E+03  0.00000000000E+00 0.  1.
         21    1    1    2  505  503 -0.50365631478E+02  0.11486175699E+03  0.16661966935E+03  0.20854743889E+03  0.00000000000E+00 0.  1.
         21    1    1    2  506  501  0.30331984959E+02  0.47523246790E+01 -0.32229171029E+01  0.30870715834E+02  0.00000000000E+00 0.  1.
<scales pt_clust_3="38.61907" pt_clust_4="124.83213" pt_clust_5="14000.00000" pt_clust_6="30.70202"></scales>
<clustering>
<clus scale="   30.702">  1  6  2 -1</clus>
<clus scale="   38.619">  2  3  1 -1</clus>
<clus scale="  124.832">  2  4  1 -1</clus>
<clus scale="   30.702">  1  3  2 -1</clus>
</clustering>
</event>
<event>
 6    0  0.6687079E+002  0.1074318E+03  0.7546771E-02  0.1265401E+00
         21   -1    0    0  506  501  0.00000000000E+00  0.00000000000E+00  0.52421082441E+03  0.52421082441E+03  0.00000000000E+00 0.  1.
         21   -1    0    0  505  502 -0.00000000000E+00 -0.00000000000E+00 -0.17484056244E+03  0.17484056244E+03  0.00000000000E+00 0.  1.
         21    1    1    2  503  502  0.37055021385E+02 -0.45665434487E+02 -0.12887386178E+03  0.14165761105E+03  0.00000000000E+00 0.  1.
         21    1    1    2  504  501 -0.14718777604E+03  0.54974189676E+02  0.29552567224E+03  0.33469661770E+03  0.00000000000E+00 0.  1.
         21    1    1    2  505  504  0.78737620431E+02  0.21305248488E+02  0.13628577285E+03  0.15883116308E+03  0.00000000000E+00 0.  1.
         21    1    1    2  506  503  0.31395134220E+02 -0.30614003677E+02  0.46432678653E+02  0.63865995027E+02  0.00000000000E+00 0.  1.
<scales pt_clust_3="59.40177" pt_clust_4="107.43177" pt_clust_5="14000.00000" pt_clust_6="43.85056"></scales>
<clustering>
<clus scale="   43.851">  1  6  2 -1</clus>
<clus scale="   59.402">  2  3  1 -1</clus>
<clus scale="  107.432">  1  4  2 -1</clus>
<clus scale="   43.851">  1  3  2 -1</clus>
</clustering>
</event>
<event>
 6    0  0.6687079E+002  0.8497680E+02  0.7546771E-02  0.1315493E+00
         21   -1    0    0  506  501  0.00000000000E+00  0.00000000000E+00  0.22630539956E+03  0.22630539956E+03  0.00000000000E+00 0. -1.
         21   -1    0    0  505  502 -0.00000000000E+00 -0.00000000000E+00 -0.58652762492E+03  0.58652762492E+03  0.00000000000E+00 0.  1.
         21    1    1    2  503  504 -0.41717902016E+02  0.65599831952E+02  0.12139113054E+02  0.78683412270E+02  0.00000000000E+00 0.  1.
         21    1    1    2  504  502 -0.74050397188E+02 -0.41535433180E+02 -0.50963883624E+03  0.51666274971E+03  0.00000000000E+00 0.  1.
         21    1    1    2  505  501  0.77538993889E+02  0.40506607159E+02  0.10256981394E+03  0.13480967149E+03  0.00000000000E+00 0. -1.
         21    1    1    2  506  503  0.38229305314E+02 -0.64571005931E+02  0.34707683879E+02  0.82677191002E+02  0.00000000000E+00 0. -1.
<scales pt_clust_3="57.42502" pt_clust_4="84.97680" pt_clust_5="14000.00000" pt_clust_6="75.03929"></scales>
<clustering>
<clus scale="   75.039">  1  6  2 -1</clus>
<clus scale="   57.425">  1  3  2 -1</clus>
<clus scale="   84.977">  2  4  1 -1</clus>
<clus scale="   75.039">  1  3  2 -1</clus>
</clustering>
</event>
<event>
 6    0  0.1958750E+003  0.1156317E+03  0.7546771E-02  0.1250483E+00
         21   -1    0    0  503  501  0.00000000000E+00  0.00000000000E+00  0.14302186849E+04  0.14302186849E+04  0.00000000000E+00 0.  1.
         21   -1    0    0  504  502 -0.00000000000E+00 -0.00000000000E+00 -0.48046469914E+03  0.48046469914E+03  0.00000000000E+00 0. -1.
         21    1    1    2  503  506 -0.37769982032E+01  0.34285377127E+02  0.76897866315E+02  0.84279503107E+02  0.00000000000E+00 0.  1.
         21    1    1    2  504  505  0.42268533495E+02  0.87662108182E+01 -0.44738057684E+03  0.44945840287E+03  0.00000000000E+00 0. -1.
         21    1    1    2  505  501 -0.91022319130E+02 -0.11136564821E+03  0.12680887673E+04  0.12762196096E+04  0.00000000000E+00 0.  1.
         21    1    1    2  506  502  0.52530783838E+02  0.68314060268E+02  0.52147928975E+02  0.10072586846E+03  0.00000000000E+00 0.  1.
<scales pt_clust_3="34.49279" pt_clust_4="43.17051" pt_clust_5="14000.00000" pt_clust_6="115.63166"></scales>
<clustering>
<clus scale="   34.493">  1  3  2 -1</clus>
<clus scale="   43.171">  2  4  1 -1</clus>
<clus scale="  115.632">  2  6  1 -1</clus>
<clus scale="   34.493">  1  3  2 -1</clus>
</clustering>
</event>
<event>
 6    0  0.6687079E+002  0.7032795E+02  0.7546771E-02  0.1358981E+00
         21   -1    0    0  505  501  0.00000000000E+00  0.00000000000E+00  0.52235003636E+03  0.52235003636E+03  0.00000000000E+00 0. -1.
         21   -1    0    0  506  502 -0.00000000000E+00 -0.00000000000E+00 -0.12562969532E+03  0.12562969532E+03  0.00000000000E+00 0. -1.
         21    1    1    2  503  501  0.72997131935E+02  0.14325434642E+02  0.23312469748E+03  0.24470579054E+03  0.00000000000E+00 0. -1.
         21    1    1    2  504  503 -0.65445654337E+02  0.76705799623E+01  0.10845473287E+03  0.12690311482E+03  0.00000000000E+00 0. -1.
         21    1    1    2  505  502  0.33317799017E+02 -0.72206686339E+02  0.14514426358E+03  0.16550147592E+03  0.00000000000E+00 0. -1.
         21    1    1    2  506  504 -0.40869276615E+02  0.50210671735E+02 -0.90003352884E+02  0.11086935040E+03  0.00000000000E+00 0. -1.
<scales pt_clust_3="14000.00000" pt_clust_4="70.32795" pt_clust_5="54.57273" pt_clust_6="64.74109"></scales>
<clustering>
<clus scale="   64.741">  2  6  1 -1</clus>
<clus scale="   54.573">  2  5  1 -1</clus>
<clus scale="   70.328">  2  4  1 -1</clus>
<clus scale="   70.328">  1  3  2 -1</clus>
</clustering>
</event>
<event>
 6    0  0.6687079E+002  0.9344393E+02  0.7546771E-02  0.1294720E+00
         21   -1    0    0  505  501  0.00000000000E+00  0.00000000000E+00  0.57439481360E+02  0.57439481360E+02  0.00000000000E+00 0. -1.
         21   -1    0    0  506  502 -0.00000000000E+00 -0.00000000000E+00 -0.10281308447E+04  0.10281308447E+04  0.00000000000E+00 0.  1.
         21    1    1    2  503  504  0.82981056847E+02 -0.52379977486E+01 -0.40770718824E+03  0.41609907926E+03  0.00000000000E+00 0.  1.
         21    1    1    2  504  501  0.12040682868E+02 -0.36029606946E+02  0.34034814187E+02  0.51004697797E+02  0.00000000000E+00 0. -1.
         21    1    1    2  505  502 -0.10436723512E+03 -0.39058409070E+01 -0.29493852324E+03  0.31288417641E+03  0.00000000000E+00 0.  1.
         21    1    1    2  506  503  0.93454954045E+01  0.45173445602E+02 -0.30208046606E+03  0.30558237261E+03  0.00000000000E+00 0.  1.
<scales pt_clust_3="93.44393" pt_clust_4="37.98830" pt_clust_5="14000.00000" pt_clust_6="42.33492"></scales>
<clustering>
<clus scale="   37.988">  1  4  2 -1</clus>
<clus scale="   42.335">  2  6  1 -1</clus>
<clus scale="   93.444">  2  3  1 -1</clus>
<clus scale="   37.988">  1  3  2 -1</clus>
</clustering>
</event>
<event>
 6    0  0.6687079E+002  0.8349853E+02  0.7546771E-02  0.1319406E+00
         21   -1    0    0  503  501  0.00000000000E+00  0.00000000000E+00  0.83150284183E+03  0.83150284183E+03  0.00000000000E+00 0.  1.
         21   -1    0    0  506  502 -0.00000000000E+00 -0.00000000000E+00 -0.31548602147E+03  0.31548602147E+03  0.00000000000E+00 0.  1.
         21    1    1    2  503  505  0.47268797819E+02 -0.31082132548E+02  0.52076257819E+03  0.52382640355E+03  0.00000000000E+00 0.  1.
         21    1    1    2  504  502  0.82035127510E+02 -0.55867212578E+02  0.16709125878E+03  0.19434607367E+03  0.00000000000E+00 0.  1.
         21    1    1    2  505  504 -0.46974034051E+02  0.74384283947E+02  0.10658648522E+03  0.13820369172E+03  0.00000000000E+00 0.  1.
         21    1    1    2  506  501 -0.82329891278E+02  0.12565061179E+02 -0.27842350183E+03  0.29061269437E+03  0.00000000000E+00 0.  1.
<scales pt_clust_3="56.57242" pt_clust_4="14000.00000" pt_clust_5="68.21191" pt_clust_6="83.49853"></scales>
<clustering>
<clus scale="   56.572">  1  3  2 -1</clus>
<clus scale="   68.212">  1  5  2 -1</clus>
<clus scale="   83.499">  2  6  1 -1</clus>
<clus scale="   56.572">  1  3  2 -1</clus>
</clustering>
</event>
<event>
 6    0  0.6687079E+002  0.1273283E+03  0.7546771E-02  0.1231475E+00
         21   -1    0    0  503  501  0.00000000000E+00  0.00000000000E+00  0.63805269048E+03  0.63805269048E+03  0.00000000000E+00 0. -1.
         21   -1    0    0  505  502 -0.00000000000E+00 -0.00000000000E+00 -0.53104538487E+03  0.53104538487E+03  0.00000000000E+00 0. -1.
         21    1    1    2  503  502  0.16002168308E+03  0.11558226877E+02  0.57392553547E+03  0.59592873057E+03  0.00000000000E+00 0. -1.
         21    1    1    2  504  506 -0.98503195455E+02  0.38784352672E+02 -0.10696839358E+03  0.15049698586E+03  0.00000000000E+00 0. -1.
         21    1    1    2  505  504 -0.31006767878E+02 -0.35241033138E+02 -0.38018267122E+03  0.38306946311E+03  0.00000000000E+00 0. -1.
         21    1    1    2  506  501 -0.30511719752E+02 -0.15101546411E+02  0.20232834944E+02  0.39602895805E+02  0.00000000000E+00 0. -1.
<scales pt_clust_3="127.32830" pt_clust_4="14000.00000" pt_clust_5="47.01461" pt_clust_6="34.04441"></scales>
<clustering>
<clus scale="   34.044">  1  6  2 -1</clus>
<clus scale="   47.015">  2  5  1 -1</clus>
<clus scale="  127.328">  1  3  2 -1</clus>
<clus scale="   34.044">  1  3  2 -1</clus>
</clustering>
</event>
<event>
 6    0  0.6687079E+002  0.1663012E+03  0.7546771E-02  0.1181761E+00
         21   -1    0    0  505  501  0.00000000000E+00  0.00000000000E+00  0.24853262369E+04  0.24853262369E+04  0.00000000000E+00 0. -1.
         21   -1    0    0  503  502 -0.00000000000E+00 -0.00000000000E+00 -0.58293483007E+03  0.58293483007E+03  0.00000000000E+00 0.  1.
         21    1    1    2  503  506 -0.55295269773E+01  0.65431271398E+02 -0.39391505468E+03  0.39935059440E+03  0.00000000000E+00 0.  1.
         21    1    1    2  504  501 -0.16438826911E+03 -0.58878242561E+00  0.21820143718E+04  0.21881980186E+04  0.00000000000E+00 0. -1.
         21    1    1    2  505  502  0.26311579039E+03  0.38816194785E+02 -0.44233561702E+02  0.26961680977E+03  0.00000000000E+00 0.  1.
         21    1    1    2  506  504 -0.93197994299E+02 -0.10365868376E+03  0.15852565142E+03  0.21109564424E+03  0.00000000000E+00 0. -1.
<scales pt_clust_3="65.66450" pt_clust_4="166.30116" pt_clust_5="14000.00000" pt_clust_6="133.22301"></scales>
<clustering>
<clus scale="   65.665">  2  3  1 -1</clus>
<clus scale="  133.223">  2  6  1 -1</clus>
<clus scale="  166.301">  1  4  2 -1</clus>
<clus scale="  166.301">  1  3  2 -1</clus>
</clustering>
</event>
<event>
 6    0  0.6687079E+002  0.2027957E+03  0.7546771E-02  0.1147402E+00
         21   -1    0    0  504  501  0.00000000000E+00  0.00000000000E+00  0.48519344295E+03  0.48519344295E+03  0.00000000000E+00 0.  1.
         21   -1    0    0  506  502 -0.00000000000E+00 -0.00000000000E+00 -0.11502857259E+04  0.11502857259E+04  0.00000000000E+00 0. -1.
         21    1    1    2  503  505 -0.19253841651E+03  0.59467217412E+02 -0.38503789510E+03  0.43458206641E+03  0.00000000000E+00 0.  1.
         21    1    1    2  504  503 -0.55448125730E+01 -0.38153876915E+02  0.14901934053E+02  0.41334379258E+02  0.00000000000E+00 0. -1.
         21    1    1    2  505  502 -0.83930001989E+01 -0.29663162177E+02 -0.70220744813E+03  0.70288380680E+03  0.00000000000E+00 0. -1.
         21    1    1    2  506  501  0.20647622928E+03  0.83498216806E+01  0.40725112628E+03  0.45667891634E+03  0.00000000000E+00 0.  1.
<scales pt_clust_3="202.79568" pt_clust_4="39.45697" pt_clust_5="30.82768" pt_clust_6="14000.00000"></scales>
<clustering>
<clus scale="   30.828">  2  5  1 -1</clus>
<clus scale="   39.457">  1  4  2 -1</clus>
<clus scale="  202.796">  2  3  1 -1</clus>
<clus scale="   39.457">  1  3  2 -1</clus>
</clustering>
</event>
<event>
 6    0  0.6687079E+002  0.2471757E+03  0.7546771E-02  0.1115103E+00
         21   -1    0    0  504  501  0.00000000000E+00  0.00000000000E+00  0.58747691526E+03  0.58747691526E+03  0.00000000000E+00 0.  1.
         21   -1    0    0  505  502 -0.00000000000E+00 -0.00000000000E+00 -0.30896231567E+03  0.30896231567E+03  0.00000000000E+00 0.  1.
         21    1    1    2  503  506  0.41020338207E+02 -0.31147084881E+02  0.17236440236E+02  0.54313017917E+02  0.00000000000E+00 0. -1.
         21    1    1    2  504  503 -0.20611920539E+03  0.10581222637E+03 -0.29663941214E+02  0.23358361134E+03  0.00000000000E+00 0.  1.
         21    1    1    2  505  501  0.20116016943E+02  0.31544354462E+02  0.39773100609E+03  0.39948673776E+03  0.00000000000E+00 0.  1.
         21    1    1    2  506  502  0.14498285024E+03 -0.10620949595E+03 -0.10678890552E+03  0.20905586391E+03  0.00000000000E+00 0.  1.
<scales pt_clust_3="47.52635" pt_clust_4="230.68663" pt_clust_5="37.41257" pt_clust_6="47.52635"></scales>
<clustering>
<clus scale="   37.413">  1  5  2 -1</clus>
<clus scale="   47.526">  3  6 -1 -1</clus>
<clus scale="  230.687">  1  4  2 -1</clus>
<clus scale="   37.413">  1  3  2 -1</clus>
</clustering>
</event>
<event>
 6    0  0.6687079E+002  0.8261069E+02  0.7546771E-02  0.1321802E+00
         21   -1    0    0  505  501  0.00000000000E+00  0.00000000000E+00  0.22432126749E+04  0.22432126749E+04  0.00000000000E+00 0.  1.
         21   -1    0    0  503  502 -0.00000000000E+00 -0.00000000000E+00 -0.15298843377E+02  0.15298843377E+02  0.00000000000E+00 0.  1.
         21    1    1    2  503  506 -0.19073281915E+01  0.59092164384E+02  0.83549373168E+02  0.10235242815E+03  0.00000000000E+00 0.  1.
         21    1    1    2  504  502  0.77794058449E+02 -0.36608803084E+02  0.73504594233E+03  0.74005719869E+03  0.00000000000E+00 0.  1.
         21    1    1    2  505  504 -0.77172637359E+02  0.30861904280E+02  0.73785177293E+03  0.74251822329E+03  0.00000000000E+00 0.  1.
         21    1    1    2  506  501  0.12859071013E+01 -0.53345265580E+02  0.67146674313E+03  0.67358366819E+03  0.00000000000E+00 0.  1.
<scales pt_clust_3="55.96524" pt_clust_4="82.61069" pt_clust_5="14000.00000" pt_clust_6="53.36076"></scales>
<clustering>
<clus scale="   53.361">  1  6  2 -1</clus>
<clus scale="   55.965">  2  3  1 -1</clus>
<clus scale="   82.611">  2  4  1 -1</clus>
<clus scale="   53.361">  1  3  2 -1</clus>
</clustering>
</event>
<event>
 6    0  0.6687079E+002  0.1049930E+03  0.7546771E-02  0.1270133E+00
         21   -1    0    0  505  501  0.00000000000E+00  0.00000000000E+00  0.85045700035E+02  0.85045700035E+02  0.00000000000E+00 0.  1.
         21   -1    0    0  506  502 -0.00000000000E+00 -0.00000000000E+00 -0.67884258057E+03  0.67884258057E+03  0.00000000000E+00 0.  1.
         21    1    1    2  503  501  0.70838425756E+02  0.71510885663E+02  0.16377017915E+02  0.10198086118E+03  0.00000000000E+00 0.  1.
         21    1    1    2  504  503  0.24697701508E+02 -0.23081444215E+02 -0.81655396012E+02  0.88376089667E+02  0.00000000000E+00 0.  1.
         21    1    1    2  505  502 -0.15241267725E+03 -0.56880892357E+02 -0.42571708611E+03  0.45574126158E+03  0.00000000000E+00 0.  1.
         21    1    1    2  506  504  0.56876549990E+02  0.84514509100E+01 -0.10280141632E+03  0.11779006817E+03  0.00000000000E+00 0.  1.
<scales pt_clust_3="104.99298" pt_clust_4="30.78223" pt_clust_5="14000.00000" pt_clust_6="92.08783"></scales>
<clustering>
<clus scale="   30.782">  4  6 -1 -1</clus>
<clus scale="   92.088">  2  4  1 -1</clus>
<clus scale="  104.993">  1  3  2 -1</clus>
<clus scale="  104.993">  1  3  2 -1</clus>
</clustering>
</event>
<event>
 6    0  0.6687079E+002  0.1077482E+03  0.7546771E-02  0.1264798E+00
         21   -1    0    0  503  501  0.00000000000E+00  0.00000000000E+00  0.17730897444E+03  0.17730897444E+03  0.00000000000E+00 0.  1.
         21   -1    0    0  505  502 -0.00000000000E+00 -0.00000000000E+00 -0.28608313915E+03  0.28608313915E+03  0.00000000000E+00 0.  1.
         21    1    1    2  503  506 -0.31275897185E+02 -0.12060380671E+02  0.66684334147E+01  0.34177514989E+02  0.00000000000E+00 0.  1.
         21    1    1    2  504  502  0.12851676130E+03 -0.36778215121E+02  0.31780105020E+02  0.13740149241E+03  0.00000000000E+00 0.  1.
         21    1    1    2  505  501 -0.35938607870E+02 -0.22883985204E+02 -0.18525058728E+03  0.19008692854E+03  0.00000000000E+00 0.  1.
         21    1    1    2  506  504 -0.61302256246E+02  0.71722580996E+02  0.38027884140E+02  0.10172617764E+03  0.00000000000E+00 0.  1.
<scales pt_clust_3="33.52066" pt_clust_4="107.74823" pt_clust_5="43.11247" pt_clust_6="14000.00000"></scales>
<clustering>
<clus scale="   33.521">  1  3  2 -1</clus>
<clus scale="   43.112">  2  5  1 -1</clus>
<clus scale="  107.748">  2  4  1 -1</clus>
<clus scale="   33.521">  1  3  2 -1</clus>
</clustering>
</event>
<event>
 6    0  0.6687079E+002  0.1159548E+03  0.7546771E-02  0.1249924E+00
         21   -1    0    0  506  501  0.00000000000E+00  0.00000000000E+00  0.10963418967E+04  0.10963418967E+04  0.00000000000E+00 0. -1.
         21   -1    0    0  503  502 -0.00000000000E+00 -0.00000000000E+00 -0.20608331697E+03  0.20608331697E+03  0.00000000000E+00 0.  1.
         21    1    1    2  503  501  0.36414943550E+02 -0.58283223978E+02  0.12639368025E+03  0.14386919309E+03  0.00000000000E+00 0.  1.
         21    1    1    2  504  502  0.13540199101E+02  0.51118153140E+02 -0.13995303060E+02  0.54701655184E+02  0.00000000000E+00 0. -1.
         21    1    1    2  505  504  0.49099578926E+02  0.52053765642E+02 -0.15181833113E+03  0.16783673268E+03  0.00000000000E+00 0.  1.
         21    1    1    2  506  505 -0.99054721577E+02 -0.44888694805E+02  0.92967853367E+03  0.93601763271E+03  0.00000000000E+00 0. -1.
<scales pt_clust_3="66.91205" pt_clust_4="52.88102" pt_clust_5="14000.00000" pt_clust_6="115.95484"></scales>
<clustering>
<clus scale="   52.881">  2  4  1 -1</clus>
<clus scale="   66.912">  1  3  2 -1</clus>
<clus scale="  115.955">  1  6  2 -1</clus>
<clus scale="   66.912">  1  3  2 -1</clus>
</clustering>
</event>
<event>
 6    0  0.6687079E+002  0.1668928E+03  0.7546771E-02  0.1181127E+00
         21   -1    0    0  505  501  0.00000000000E+00  0.00000000000E+00  0.13253286502E+04  0.13253286502E+04  0.00000000000E+00 0. -1.
         21   -1    0    0  501  502 -0.00000000000E+00 -0.00000000000E+00 -0.48564557094E+03  0.48564557094E+03  0.00000000000E+00 0.  1.
         21    1    1    2  503  502 -0.16556307118E+02 -0.14371118004E+03 -0.45075863435E+03  0.47340295839E+03  0.00000000000E+00 0.  1.
         21    1    1    2  504  503  0.60180558017E+02  0.15328438328E+03  0.46111873700E+03  0.48964098208E+03  0.00000000000E+00 0. -1.
         21    1    1    2  505  506 -0.36840592014E+02 -0.50715148780E+02  0.78339007383E+03  0.78589392624E+03  0.00000000000E+00 0. -1.
         21    1    1    2  506  504 -0.67836588848E+01  0.41141945538E+02  0.45932902775E+02  0.62036354405E+02  0.00000000000E+00 0.  1.
<scales pt_clust_3="145.80646" pt_clust_4="40.86067" pt_clust_5="62.68377" pt_clust_6="40.86067"></scales>
<clustering>
<clus scale="   40.861">  4  6 -1 -1</clus>
<clus scale="   62.684">  1  5  2 -1</clus>
<clus scale="  145.806">  2  3  1 -1</clus>
<clus scale="   62.684">  1  3  2 -1</clus>
</clustering>
</event>
<event>
 6    0  0.6687079E+002  0.7079121E+02  0.7546771E-02  0.1357423E+00
         21   -1    0    0  504  501  0.00000000000E+00  0.00000000000E+00  0.87593436192E+03  0.87593436192E+03  0.00000000000E+00 0. -1.
         21   -1    0    0  505  502 -0.00000000000E+00 -0.00000000000E+00 -0.58743995735E+02  0.58743995735E+02  0.00000000000E+00 0.  1.
         21    1    1    2  503  506  0.21701310006E+02 -0.60965695416E+02  0.92312668411E+02  0.11273593758E+03  0.00000000000E+00 0.  1.
         21    1    1    2  504  503 -0.19365711026E+02  0.30954785921E+02  0.41879422107E+03  0.42038295534E+03  0.00000000000E+00 0. -1.
         21    1    1    2  505  501 -0.59025325527E+01  0.98244767988E+02  0.31739293235E+03  0.33230279540E+03  0.00000000000E+00 0. -1.
         21    1    1    2  506  502  0.35669335724E+01 -0.68233858493E+02 -0.11309455645E+02  0.69256669332E+02  0.00000000000E+00 0.  1.
<scales pt_clust_3="56.72971" pt_clust_4="36.51342" pt_clust_5="70.79121" pt_clust_6="14000.00000"></scales>
<clustering>
<clus scale="   36.513">  1  4  2 -1</clus>
<clus scale="   56.730">  1  3  2 -1</clus>
<clus scale="   70.791">  1  5  2 -1</clus>
<clus scale="   36.513">  1  3  2 -1</clus>
</clustering>
</event>
<event>
 6    0  0.6687079E+002  0.1150884E+03  0.7546771E-02  0.1251427E+00
         21   -1    0    0  504  501  0.00000000000E+00  0.00000000000E+00  0.38820247300E+03  0.38820247300E+03  0.00000000000E+00 0.  1.
         21   -1    0    0  503  502 -0.00000000000E+00 -0.00000000000E+00 -0.31518113276E+03  0.31518113276E+03  0.00000000000E+00 0.  1.
         21    1    1    2  503  506  0.45703575164E+02 -0.18412939014E+02 -0.15831372062E+02  0.51754086285E+02  0.00000000000E+00 0.  1.
         21    1    1    2  504  505 -0.10671705074E+03 -0.15253833471E+02  0.31055801165E+03  0.32873619660E+03  0.00000000000E+00 0.  1.
         21    1    1    2  505  502  0.14854596210E+02  0.57162658445E+02 -0.25471584468E+03  0.26147349785E+03  0.00000000000E+00 0.  1.
         21    1    1    2  506  501  0.46158879371E+02 -0.23495885961E+02  0.33010545331E+02  0.61419825016E+02  0.00000000000E+00 0.  1.
<scales pt_clust_3="46.96057" pt_clust_4="104.53318" pt_clust_5="59.06123" pt_clust_6="46.96057"></scales>
<clustering>
<clus scale="   46.961">  3  6 -1 -1</clus>
<clus scale="   59.061">  2  5  1 -1</clus>
<clus scale="  104.533">  1  4  2 -1</clus>
<clus scale="  104.533">  1  3  2 -1</clus>
</clustering>
</event>
<event>
 6    0  0.6687079E+002  0.1081318E+03  0.7546771E-02  0.1264069E+00
         21   -1    0    0  504  501  0.00000000000E+00  0.00000000000E+00  0.98795038567E+02  0.98795038567E+02  0.00000000000E+00 0.  1.
         21   -1    0    0  503  502 -0.00000000000E+00 -0.00000000000E+00 -0.50538696426E+03  0.50538696426E+03  0.00000000000E+00 0.  1.
         21    1    1    2  503  505 -0.68307454423E+02 -0.72614774344E+02  0.41300605340E+02  0.10790993367E+03  0.00000000000E+00 0.  1.
         21    1    1    2  504  506  0.85575007694E+02  0.18359846536E+02 -0.35804764060E+03  0.36858958049E+03  0.00000000000E+00 0.  1.
         21    1    1    2  505  501 -0.34625692689E+02  0.19902332192E+02 -0.13454087527E+02  0.42143254408E+02  0.00000000000E+00 0. -1.
         21    1    1    2  506  502  0.17358139418E+02  0.34352595616E+02 -0.76390802911E+02  0.85539234267E+02  0.00000000000E+00 0. -1.
<scales pt_clust_3="108.13184" pt_clust_4="14000.00000" pt_clust_5="40.15252" pt_clust_6="38.48904"></scales>
<clustering>
<clus scale="   38.489">  2  6  1 -1</clus>
<clus scale="   40.153">  1  5  2 -1</clus>
<clus scale="  108.132">  1  3  2 -1</clus>
<clus scale="   40.153">  1  3  2 -1</clus>
</clustering>
</event>
<event>
 6    0  0.6687079E+002  0.7158091E+02  0.7546771E-02  0.1354798E+00
         21   -1    0    0  506  501  0.00000000000E+00  0.00000000000E+00  0.27717110882E+03  0.27717110882E+03  0.00000000000E+00 0. -1.
         21   -1    0    0  504  502 -0.00000000000E+00 -0.00000000000E+00 -0.12590154441E+03  0.12590154441E+03  0.00000000000E+00 0.  1.
         21    1    1    2  503  502  0.12060225086E+02 -0.48812911634E+02 -0.78803750399E+02  0.93478235157E+02  0.00000000000E+00 0.  1.
         21    1    1    2  504  505  0.52909055553E+02 -0.13929938232E+02  0.42543821570E+02  0.69306479441E+02  0.00000000000E+00 0. -1.
         21    1    1    2  505  501  0.28128208090E+02  0.48009670635E+02  0.77498165060E+02  0.95404874889E+02  0.00000000000E+00 0. -1.
         21    1    1    2  506  503 -0.93097488729E+02  0.14733179230E+02  0.11003132818E+03  0.14488306374E+03  0.00000000000E+00 0. -1.
<scales pt_clust_3="50.28071" pt_clust_4="71.58091" pt_clust_5="48.18375" pt_clust_6="14000.00000"></scales>
<clustering>
<clus scale="   50.281">  2  3  1 -1</clus>
<clus scale="   48.184">  1  5  2 -1</clus>
<clus scale="   71.581">  2  4  1 -1</clus>
<clus scale="   48.184">  1  3  2 -1</clus>
</clustering>
</event>
<event>
 6    0  0.6687079E+002  0.1243125E+03  0.7546771E-02  0.1236148E+00
         21   -1    0    0  506  501  0.00000000000E+00  0.00000000000E+00  0.63600238232E+02  0.63600238232E+02  0.00000000000E+00 0.  1.
         21   -1    0    0  505  502 -0.00000000000E+00 -0.00000000000E+00 -0.64967188362E+03  0.64967188362E+03  0.00000000000E+00 0. -1.
         21    1    1    2  503  502  0.53769257053E+02 -0.11839685393E+02 -0.24856877797E+03  0.25459330025E+03  0.00000000000E+00 0. -1.
         21    1    1    2  504  501 -0.10434578355E+03 -0.28108119508E+02 -0.12725290758E+02  0.10881195684E+03  0.00000000000E+00 0.  1.
         21    1    1    2  505  504 -0.35701003684E+02  0.54510909025E+01 -0.71945185350E+02  0.80500843171E+02  0.00000000000E+00 0. -1.
         21    1    1    2  506  503  0.86277530176E+02  0.34496713999E+02 -0.25283239131E+03  0.26936602159E+03  0.00000000000E+00 0. -1.
<scales pt_clust_3="38.59105" pt_clust_4="111.57874" pt_clust_5="36.11476" pt_clust_6="38.59105"></scales>
<clustering>
<clus scale="   36.115">  2  5  1 -1</clus>
<clus scale="   38.591">  3  6 -1 -1</clus>
<clus scale="  111.579">  1  4  2 -1</clus>
<clus scale="  111.579">  1  3  2 -1</clus>
</clustering>
</event>
<event>
 6    0  0.6687079E+002  0.8302873E+02  0.7546771E-02  0.1320670E+00
         21   -1    0    0  506  501  0.00000000000E+00  0.00000000000E+00  0.21970306473E+03  0.21970306473E+03  0.00000000000E+00 0. -1.
         21   -1    0    0  504  502 -0.00000000000E+00 -0.00000000000E+00 -0.30085479870E+03  0.30085479870E+03  0.00000000000E+00 0. -1.
         21    1    1    2  503  501  0.30828199761E+02 -0.22769776495E+02  0.28880011763E+02  0.47988495513E+02  0.00000000000E+00 0. -1.
         21    1    1    2  504  503 -0.47687411355E+02 -0.82932681176E+02 -0.18783794725E+03  0.21079614141E+03  0.00000000000E+00 0. -1.
         21    1    1    2  505  502 -0.38890045835E+02  0.77455302780E+02 -0.63380558909E+02  0.10737250505E+03  0.00000000000E+00 0. -1.
         21    1    1    2  506  505  0.55749257428E+02  0.28247154891E+02  0.14118676043E+03  0.15440072145E+03  0.00000000000E+00 0. -1.
<scales pt_clust_3="38.32546" pt_clust_4="14000.00000" pt_clust_5="83.02873" pt_clust_6="81.46184"></scales>
<clustering>
<clus scale="   38.325">  1  3  2 -1</clus>
<clus scale="   81.462">  1  6  2 -1</clus>
<clus scale="   83.029">  1  5  2 -1</clus>
<clus scale="   38.325">  1  3  2 -1</clus>
</clustering>
</event>
<event>
 6    0  0.6687079E+002  0.7510188E+02  0.7546771E-02  0.1343556E+00
         21   -1    0    0  506  501  0.00000000000E+00  0.00000000000E+00  0.28979338844E+03  0.28979338844E+03  0.00000000000E+00 0. -1.
         21   -1    0    0  504  502 -0.00000000000E+00 -0.00000000000E+00 -0.15416138309E+03  0.15416138309E+03  0.00000000000E+00 0. -1.
         21    1    1    2  503  502  0.37397665233E+02  0.60354357043E+02 -0.52824084325E+02  0.88496427406E+02  0.00000000000E+00 0. -1.
         21    1    1    2  504  501 -0.24635069849E+02  0.59698076069E+02 -0.40568792395E+02  0.76266466217E+02  0.00000000000E+00 0. -1.
         21    1    1    2  505  503 -0.11057871875E+02 -0.60932675181E+02  0.25028064001E+02  0.66794246928E+02  0.00000000000E+00 0. -1.
         21    1    1    2  506  505 -0.17047235090E+01 -0.59119757932E+02  0.20399681807E+03  0.21239763097E+03  0.00000000000E+00 0. -1.
<scales pt_clust_3="75.10188" pt_clust_4="53.03249" pt_clust_5="14000.00000" pt_clust_6="59.14433"></scales>
<clustering>
<clus scale="   59.144">  1  6  2 -1</clus>
<clus scale="   53.032">  2  4  1 -1</clus>
<clus scale="   75.102">  2  3  1 -1</clus>
<clus scale="   59.144">  1  3  2 -1</clus>
</clustering>
</event>
<event>
 6    0  0.6687079E+002  0.1431177E+03  0.7546771E-02  0.1209194E+00
         21   -1    0    0  505  501  0.00000000000E+00  0.00000000000E+00  0.22120754589E+04  0.22120754589E+04  0.00000000000E+00 0.  1.
         21   -1    0    0  504  502 -0.00000000000E+00 -0.00000000000E+00 -0.35081629967E+03  0.35081629967E+03  0.00000000000E+00 0. -1.
         21    1    1    2  503  502  0.11912803655E+03 -0.14425875598E+03  0.17668494219E+02  0.18792087020E+03  0.00000000000E+00 0. -1.
         21    1    1    2  504  506 -0.98591078056E+01  0.46419562709E+02 -0.25627203760E+03  0.26062873031E+03  0.00000000000E+00 0. -1.
         21    1    1    2  505  503 -0.95171549400E+02  0.46081106928E+02  0.40330119975E+03  0.41693278829E+03  0.00000000000E+00 0. -1.
         21    1    1    2  506  501 -0.14097379349E+02  0.51758086344E+02  0.16965615029E+04  0.16974093698E+04  0.00000000000E+00 0.  1.
<scales pt_clust_3="143.11770" pt_clust_4="47.45501" pt_clust_5="14000.00000" pt_clust_6="53.86106"></scales>
<clustering>
<clus scale="   47.455">  2  4  1 -1</clus>
<clus scale="   53.861">  1  6  2 -1</clus>
<clus scale="  143.118">  2  3  1 -1</clus>
<clus scale="   53.861">  1  3  2 -1</clus>
</clustering>
</event>
<event>
 6    0  0.6687079E+002  0.6737414E+02  0.7546771E-02  0.1369257E+00
         21   -1    0    0  503  501  0.00000000000E+00  0.00000000000E+00  0.16106105747E+04  0.16106105747E+04  0.00000000000E+00 0.  1.
         21   -1    0    0  504  502 -0.00000000000E+00 -0.00000000000E+00 -0.65681725565E+02  0.65681725565E+02  0.00000000000E+00 0. -1.
         21    1    1    2  503  505  0.69641977621E+02 -0.12783596303E+02  0.81661021682E+02  0.10808305993E+03  0.00000000000E+00 0. -1.
         21    1    1    2  504  506  0.35102219649E+02  0.50107540522E+02  0.16745112547E+02  0.63429726751E+02  0.00000000000E+00 0. -1.
         21    1    1    2  505  502 -0.60234762877E+02 -0.47864399750E+02  0.22690460873E+02  0.80212744854E+02  0.00000000000E+00 0. -1.
         21    1    1    2  506  501 -0.44509434393E+02  0.10540455532E+02  0.14238322540E+04  0.14245667687E+04  0.00000000000E+00 0.  1.
<scales pt_clust_3="47.57144" pt_clust_4="67.37414" pt_clust_5="14000.00000" pt_clust_6="45.74047"></scales>
<clustering>
<clus scale="   45.740">  1  6  2 -1</clus>
<clus scale="   47.571">  1  3  2 -1</clus>
<clus scale="   67.374">  2  4  1 -1</clus>
<clus scale="   45.740">  1  3  2 -1</clus>
</clustering>
</event>
<event>
 6    0  0.6687079E+002  0.7407031E+02  0.7546771E-02  0.1346774E+00
         21   -1    0    0  506  501  0.00000000000E+00  0.00000000000E+00  0.18216732626E+03  0.18216732626E+03  0.00000000000E+00 0. -1.
         21   -1    0    0  503  502 -0.00000000000E+00 -0.00000000000E+00 -0.43227490549E+03  0.43227490549E+03  0.00000000000E+00 0.  1.
         21    1    1    2  503  505  0.31857401004E+02 -0.10322771321E+03 -0.34619198757E+03  0.36265651384E+03  0.00000000000E+00 0.  1.
         21    1    1    2  504  502  0.66635840422E+01  0.46524510590E+02 -0.33682948955E+02  0.57822785199E+02  0.00000000000E+00 0.  1.
         21    1    1    2  505  501 -0.15089005055E+02 -0.38734747951E+02  0.18468938883E+02  0.45488025632E+02  0.00000000000E+00 0. -1.
         21    1    1    2  506  504 -0.23431979991E+02  0.95437950568E+02  0.11129841840E+03  0.14847490709E+03  0.00000000000E+00 0. -1.
<scales pt_clust_3="74.07031" pt_clust_4="43.75248" pt_clust_5="41.56993" pt_clust_6="14000.00000"></scales>
<clustering>
<clus scale="   41.570">  1  5  2 -1</clus>
<clus scale="   43.752">  2  4  1 -1</clus>
<clus scale="   74.070">  2  3  1 -1</clus>
<clus scale="   41.570">  1  3  2 -1</clus>
</clustering>
</event>
<event>
 6    0  0.6687079E+002  0.8630711E+02  0.7546771E-02  0.1312049E+00
         21   -1    0    0  504  501  0.00000000000E+00  0.00000000000E+00  0.23407350117E+03  0.23407350117E+03  0.00000000000E+00 0.  1.
         21   -1    0    0  503  502 -0.00000000000E+00 -0.00000000000E+00 -0.17022375646E+03  0.17022375646E+03  0.00000000000E+00 0. -1.
         21    1    1    2  503  501  0.67506196666E+02  0.68625189549E+02  0.44290761904E+02  0.10596308234E+03  0.00000000000E+00 0.  1.
         21    1    1    2  504  506  0.21930824189E+02  0.37231233351E+02  0.91708474179E+02  0.10137835086E+03  0.00000000000E+00 0.  1.
         21    1    1    2  505  502 -0.22818484285E+02 -0.83203738509E+02 -0.89677311401E+02  0.12444101216E+03  0.00000000000E+00 0. -1.
         21    1    1    2  506  505 -0.66618536570E+02 -0.22652684391E+02  0.17527820028E+02  0.72514812278E+02  0.00000000000E+00 0. -1.
<scales pt_clust_3="86.30711" pt_clust_4="43.21025" pt_clust_5="14000.00000" pt_clust_6="60.35353"></scales>
<clustering>
<clus scale="   43.210">  1  4  2 -1</clus>
<clus scale="   60.354">  1  6  2 -1</clus>
<clus scale="   86.307">  1  3  2 -1</clus>
<clus scale="   43.210">  1  3  2 -1</clus>
</clustering>
</event>
<event>
 6    0  0.6687079E+002  0.1922829E+03  0.7546771E-02  0.1156418E+00
         21   -1    0    0  506  501  0.00000000000E+00  0.00000000000E+00  0.61101510136E+03  0.61101510136E+03  0.00000000000E+00 0.  1.
         21   -1    0    0  505  502 -0.00000000000E+00 -0.00000000000E+00 -0.37948818406E+03  0.37948818406E+03  0.00000000000E+00 0. -1.
         21    1    1    2  503  501 -0.11228491136E+02  0.79258856567E+02 -0.13739840652E+03  0.15901687794E+03  0.00000000000E+00 0. -1.
         21    1    1    2  504  502 -0.52668510698E+02 -0.14358342123E+02  0.35121655194E+01  0.54703467114E+02  0.00000000000E+00 0. -1.
         21    1    1    2  505  503 -0.63832489609E+02  0.70841109083E+02 -0.17819694069E+03  0.20210690027E+03  0.00000000000E+00 0. -1.
         21    1    1    2  506  504  0.12772949144E+03 -0.13574162353E+03  0.54361009898E+03  0.57467604009E+03  0.00000000000E+00 0.  1.
<scales pt_clust_3="47.12846" pt_clust_4="54.59060" pt_clust_5="47.12846" pt_clust_6="185.27519"></scales>
<clustering>
<clus scale="   47.128">  3  5 -1 -1</clus>
<clus scale="   54.591">  2  4  1 -1</clus>
<clus scale="  185.275">  1  6  2 -1</clus>
<clus scale="  185.275">  1  3  2 -1</clus>
</clustering>
</event>
<event>
 6    0  0.6687079E+002  0.7213025E+02  0.7546771E-02  0.1352995E+00
         21   -1    0    0  505  501  0.00000000000E+00  0.00000000000E+00  0.22305725384E+03  0.22305725384E+03  0.00000000000E+00 0. -1.
         21   -1    0    0  503  502 -0.00000000000E+00 -0.00000000000E+00 -0.51808684936E+03  0.51808684936E+03  0.00000000000E+00 0.  1.
         21    1    1    2  503  504 -0.43862648782E+02  0.27472106364E+02 -0.11274914344E+03  0.12406054140E+03  0.00000000000E+00 0.  1.
         21    1    1    2  504  501  0.11492894640E+03  0.14100867530E+02 -0.22816930467E+03  0.25586857717E+03  0.00000000000E+00 0.  1.
         21    1    1    2  505  506 -0.52280969082E+02  0.19060321320E+02  0.19306982747E+03  0.20092922599E+03  0.00000000000E+00 0. -1.
         21    1    1    2  506  502 -0.18785328535E+02 -0.60633295215E+02 -0.14718097489E+03  0.16028575865E+03  0.00000000000E+00 0.  1.
<scales pt_clust_3="51.75566" pt_clust_4="72.13025" pt_clust_5="56.14485" pt_clust_6="14000.00000"></scales>
<clustering>
<clus scale="   51.756">  2  3  1 -1</clus>
<clus scale="   56.145">  1  5  2 -1</clus>
<clus scale="   72.130">  1  4  2 -1</clus>
<clus scale="   56.145">  1  3  2 -1</clus>
</clustering>
</event>
<event>
 6    0  0.6687079E+002  0.1143152E+03  0.7546771E-02  0.1252781E+00
         21   -1    0    0  506  501  0.00000000000E+00  0.00000000000E+00  0.65336777323E+02  0.65336777323E+02  0.00000000000E+00 0. -1.
         21   -1    0    0  505  502 -0.00000000000E+00 -0.00000000000E+00 -0.49402850735E+03  0.49402850735E+03  0.00000000000E+00 0.  1.
         21    1    1    2  503  501  0.15709381633E+02 -0.10982469900E+03 -0.80697519831E+02  0.13718724025E+03  0.00000000000E+00 0.  1.
         21    1    1    2  504  502 -0.14050203897E+02  0.37444261187E+02 -0.11363411836E+03  0.12046656707E+03  0.00000000000E+00 0. -1.
         21    1    1    2  505  503  0.35542041369E+02 -0.40758419904E+02 -0.13897188898E+03  0.14912300770E+03  0.00000000000E+00 0.  1.
         21    1    1    2  506  504 -0.37201219105E+02  0.11313885771E+03 -0.95388202849E+02  0.15258846965E+03  0.00000000000E+00 0. -1.
<scales pt_clust_3="114.31523" pt_clust_4="39.99351" pt_clust_5="40.12556" pt_clust_6="14000.00000"></scales>
<clustering>
<clus scale="   39.994">  2  4  1 -1</clus>
<clus scale="   40.126">  2  5  1 -1</clus>
<clus scale="  114.315">  1  3  2 -1</clus>
<clus scale="  114.315">  1  3  2 -1</clus>
</clustering>
</event>
<event>
 6    0  0.6687079E+002  0.2935918E+03  0.7546771E-02  0.1088489E+00
         21   -1    0    0  504  501  0.00000000000E+00  0.00000000000E+00  0.16435413239E+03  0.16435413239E+03  0.00000000000E+00 0.  1.
         21   -1    0    0  505  502 -0.00000000000E+00 -0.00000000000E+00 -0.86153512005E+03  0.86153512005E+03  0.00000000000E+00 0.  1.
         21    1    1    2  503  501 -0.16905111866E+03 -0.14703835283E+03 -0.20662778640E+03  0.30478451410E+03  0.00000000000E+00 0.  1.
         21    1    1    2  504  502  0.17111346920E+03  0.21284329903E+03 -0.10002619468E+03  0.29083900857E+03  0.00000000000E+00 0.  1.
         21    1    1    2  505  506  0.71817631357E+02 -0.72447161242E+00 -0.23902452424E+03  0.24958169048E+03  0.00000000000E+00 0.  1.
         21    1    1    2  506  503 -0.73879981905E+02 -0.65080474592E+02 -0.15150248233E+03  0.18068403929E+03  0.00000000000E+00 0.  1.
<scales pt_clust_3="38.72459" pt_clust_4="287.72143" pt_clust_5="71.82129" pt_clust_6="38.72459"></scales>
<clustering>
<clus scale="   38.725">  3  6 -1 -1</clus>
<clus scale="   71.821">  2  5  1 -1</clus>
<clus scale="  287.721">  1  4  2 -1</clus>
<clus scale="  287.721">  1  3  2 -1</clus>
</clustering>
</event>
<event>
 6    0  0.6687079E+002  0.9342479E+02  0.7546771E-02  0.1294764E+00
         21   -1    0    0  506  501  0.00000000000E+00  0.00000000000E+00  0.60844571847E+03  0.60844571847E+03  0.00000000000E+00 0.  1.
         21   -1    0    0  504  502 -0.00000000000E+00 -0.00000000000E+00 -0.77280414830E+03  0.77280414830E+03  0.00000000000E+00 0. -1.
         21    1    1    2  503  501  0.43546868745E+02 -0.75993975693E+01  0.54914815319E+03  0.55092447284E+03  0.00000000000E+00 0.  1.
         21    1    1    2  504  503  0.56866256300E+02  0.69198873450E+02 -0.15473928286E+01  0.89580408667E+02  0.00000000000E+00 0. -1.
         21    1    1    2  505  502 -0.96501952153E+02  0.38810828146E+01 -0.62175366951E+03  0.62921007233E+03  0.00000000000E+00 0. -1.
         21    1    1    2  506  505 -0.39111728923E+01 -0.65480558695E+02 -0.90205520679E+02  0.11153491293E+03  0.00000000000E+00 0.  1.
<scales pt_clust_3="44.20498" pt_clust_4="93.42479" pt_clust_5="14000.00000" pt_clust_6="66.99002"></scales>
<clustering>
<clus scale="   44.205">  1  3  2 -1</clus>
<clus scale="   66.990">  1  6  2 -1</clus>
<clus scale="   93.425">  1  4  2 -1</clus>
<clus scale="   44.205">  1  3  2 -1</clus>
</clustering>
</event>
<event>
 6    0  0.6687079E+002  0.8805922E+02  0.7546771E-02  0.1307621E+00
         21   -1    0    0  503  501  0.00000000000E+00  0.00000000000E+00  0.42184596103E+04  0.42184596103E+04  0.00000000000E+00 0.  1.
         21   -1    0    0  506  502 -0.00000000000E+00 -0.00000000000E+00 -0.61715182326E+02  0.61715182326E+02  0.00000000000E+00 0.  1.
         21    1    1    2  503  505  0.29243391664E+02  0.40368527578E+02  0.80546494248E+03  0.80700592782E+03  0.00000000000E+00 0.  1.
         21    1    1    2  504  501  0.46747847732E+02  0.19320375511E+02  0.23656328562E+04  0.23661735880E+04  0.00000000000E+00 0.  1.
         21    1    1    2  505  502 -0.12121506260E+03 -0.18976191178E+02  0.10264335446E+04  0.10337403004E+04  0.00000000000E+00 0.  1.
         21    1    1    2  506  504  0.45223823203E+02 -0.40712711911E+02 -0.40786915349E+02  0.73254976350E+02  0.00000000000E+00 0.  1.
<scales pt_clust_3="49.84771" pt_clust_4="14000.00000" pt_clust_5="88.05922" pt_clust_6="60.82533"></scales>
<clustering>
<clus scale="   49.848">  1  3  2 -1</clus>
<clus scale="   60.825">  2  6  1 -1</clus>
<clus scale="   88.059">  2  5  1 -1</clus>
<clus scale="   49.848">  1  3  2 -1</clus>
</clustering>
</event>
<event>
 6    0  0.6687079E+002  0.1613266E+03  0.7546771E-02  0.1187207E+00
         21   -1    0    0  503  501  0.00000000000E+00  0.00000000000E+00  0.51249720403E+03  0.51249720403E+03  0.00000000000E+00 0.  1.
         21   -1    0    0  506  502 -0.00000000000E+00 -0.00000000000E+00 -0.60556633193E+03  0.60556633193E+03  0.00000000000E+00 0.  1.
         21    1    1    2  503  505 -0.36392719953E+02  0.17974894831E+01  0.20165255983E+03  0.20491807124E+03  0.00000000000E+00 0.  1.
         21    1    1    2  504  502  0.47639996382E+02 -0.29188074809E+02 -0.66023437680E+02  0.86490504042E+02  0.00000000000E+00 0.  1.
         21    1    1    2  505  504 -0.10911926626E+03  0.42499844638E+02  0.28257509408E+03  0.30587895459E+03  0.00000000000E+00 0.  1.
         21    1    1    2  506  501  0.97871989829E+02 -0.15109259313E+02 -0.51127334413E+03  0.52077600610E+03  0.00000000000E+00 0.  1.
<scales pt_clust_3="32.04955" pt_clust_4="55.87050" pt_clust_5="32.04955" pt_clust_6="150.74842"></scales>
<clustering>
<clus scale="   32.050">  3  5 -1 -1</clus>
<clus scale="   55.871">  2  4  1 -1</clus>
<clus scale="  150.748">  2  6  1 -1</clus>
<clus scale="  161.327">  1  3  2 -1</clus>
</clustering>
</event>
<event>
 6    0  0.6687079E+002  0.1682300E+03  0.7546771E-02  0.1179706E+00
         21   -1    0    0  504  501  0.00000000000E+00  0.00000000000E+00  0.13310715380E+03  0.13310715380E+03  0.00000000000E+00 0.  1.
         21   -1    0    0  503  502 -0.00000000000E+00 -0.00000000000E+00 -0.97671859298E+03  0.97671859298E+03  0.00000000000E+00 0.  1.
         21    1    1    2  503  506  0.63472136741E+02 -0.11763508553E+03 -0.49195182383E+01  0.13375697047E+03  0.00000000000E+00 0.  1.
         21    1    1    2  504  505  0.60888311431E+02  0.41772439850E+02 -0.26935819392E+02  0.78599373829E+02  0.00000000000E+00 0.  1.
         21    1    1    2  505  502 -0.15969070917E+03  0.75345374943E+02 -0.83611266356E+03  0.85455393879E+03  0.00000000000E+00 0.  1.
         21    1    1    2  506  501  0.35330261000E+02  0.51727073891E+00  0.24356562015E+02  0.42915463700E+02  0.00000000000E+00 0. -1.
<scales pt_clust_3="168.22996" pt_clust_4="81.63969" pt_clust_5="14000.00000" pt_clust_6="35.33405"></scales>
<clustering>
<clus scale="   35.334">  1  6  2 -1</clus>
<clus scale="   81.640">  1  4  2 -1</clus>
<clus scale="  168.230">  1  3  2 -1</clus>
<clus scale="   35.334">  1  3  2 -1</clus>
</clustering>
</event>
<event>
 6    0  0.6687079E+002  0.1041176E+03  0.7546771E-02  0.1271868E+00
         21   -1    0    0  506  501  0.00000000000E+00  0.00000000000E+00  0.28182446743E+03  0.28182446743E+03  0.00000000000E+00 0. -1.
         21   -1    0    0  503  502 -0.00000000000E+00 -0.00000000000E+00 -0.26559800987E+04  0.26559800987E+04  0.00000000000E+00 0.  1.
         21    1    1    2  503  505  0.32575914388E+02 -0.14253460771E+02 -0.11031623465E+03  0.11590523271E+03  0.00000000000E+00 0.  1.
         21    1    1    2  504  502  0.47132872432E+02 -0.30201280056E+01 -0.81988574073E+03  0.82124494318E+03  0.00000000000E+00 0.  1.
         21    1    1    2  505  501 -0.81119285039E+01  0.10393418837E+03  0.26667933860E+03  0.28633195514E+03  0.00000000000E+00 0. -1.
         21    1    1    2  506  504 -0.71596858316E+02 -0.86660599598E+02 -0.17106329945E+04  0.17143224351E+04  0.00000000000E+00 0.  1.
<scales pt_clust_3="35.55772" pt_clust_4="58.14629" pt_clust_5="14000.00000" pt_clust_6="104.11759"></scales>
<clustering>
<clus scale="   35.558">  2  3  1 -1</clus>
<clus scale="   58.146">  2  4  1 -1</clus>
<clus scale="  104.118">  2  6  1 -1</clus>
<clus scale="  104.118">  1  3  2 -1</clus>
</clustering>
</event>
<event>
 6    0  0.6687079E+002  0.1976886E+03  0.7546771E-02  0.1151704E+00
         21   -1    0    0  504  501  0.00000000000E+00  0.00000000000E+00  0.16922021790E+04  0.16922021790E+04  0.00000000000E+00 0.  1.
         21   -1    0    0  503  502 -0.00000000000E+00 -0.00000000000E+00 -0.19767755006E+03  0.19767755006E+03  0.00000000000E+00 0.  1.
         21    1    1    2  503  501  0.45270472692E+02 -0.63509699342E+00 -0.14307102027E+03  0.15006377274E+03  0.00000000000E+00 0.  1.
         21    1    1    2  504  505 -0.40123895060E+01  0.73036657143E+02  0.85279195026E+03  0.85592322260E+03  0.00000000000E+00 0.  1.
         21    1    1    2  505  506  0.40269264273E+02  0.15076212558E+03  0.42481099357E+03  0.45256514715E+03  0.00000000000E+00 0.  1.
         21    1    1    2  506  502 -0.81527347459E+02 -0.22316368573E+03  0.35999270536E+03  0.43132758656E+03  0.00000000000E+00 0.  1.
<scales pt_clust_3="45.27493" pt_clust_4="73.06440" pt_clust_5="14000.00000" pt_clust_6="197.68859"></scales>
<clustering>
<clus scale="   45.275">  2  3  1 -1</clus>
<clus scale="   73.064">  1  4  2 -1</clus>
<clus scale="  197.689">  2  6  1 -1</clus>
<clus scale="   73.064">  1  3  2 -1</clus>
</clustering>
</event>
<event>
 6    0  0.6687079E+002  0.1256792E+03  0.7546771E-02  0.1234012E+00
         21   -1    0    0  503  501  0.00000000000E+00  0.00000000000E+00  0.26042555573E+03  0.26042555573E+03  0.00000000000E+00 0.  1.
         21   -1    0    0  504  502 -0.00000000000E+00 -0.00000000000E+00 -0.29728865164E+03  0.29728865164E+03  0.00000000000E+00 0. -1.
         21    1    1    2  503  505 -0.47493314561E+02 -0.53102372309E+01  0.97697087204E+02  0.10875906581E+03  0.00000000000E+00 0. -1.
         21    1    1    2  504  501  0.30699730719E+01 -0.11812078400E+03  0.13151579470E+02  0.11889032085E+03  0.00000000000E+00 0.  1.
         21    1    1    2  505  506 -0.26701455353E+02  0.13155501683E+03  0.30807234559E+02  0.13772717913E+03  0.00000000000E+00 0.  1.
         21    1    1    2  506  502  0.71124796842E+02 -0.81239955897E+01 -0.17851899714E+03  0.19233764159E+03  0.00000000000E+00 0. -1.
<scales pt_clust_3="47.78926" pt_clust_4="125.67917" pt_clust_5="14000.00000" pt_clust_6="69.54133"></scales>
<clustering>
<clus scale="   47.789">  1  3  2 -1</clus>
<clus scale="   69.541">  2  6  1 -1</clus>
<clus scale="  125.679">  1  4  2 -1</clus>
<clus scale="   47.789">  1  3  2 -1</clus>
</clustering>
</event>
<event>
 6    0  0.6687079E+002  0.9571210E+02  0.7546771E-02  0.1289580E+00
         21   -1    0    0  503  501  0.00000000000E+00  0.00000000000E+00  0.38635588806E+03  0.38635588806E+03  0.00000000000E+00 0.  1.
         21   -1    0    0  504  502 -0.00000000000E+00 -0.00000000000E+00 -0.23782069205E+03  0.23782069205E+03  0.00000000000E+00 0.  1.
         21    1    1    2  503  502 -0.66197394011E+02 -0.37244125066E+02 -0.70022223006E+02  0.10330697721E+03  0.00000000000E+00 0.  1.
         21    1    1    2  504  506  0.15570943675E+03 -0.16482156458E+02 -0.80999373733E+02  0.17628950258E+03  0.00000000000E+00 0.  1.
         21    1    1    2  505  501 -0.35990490494E+02  0.12350787192E+02  0.26665047276E+03  0.26935168827E+03  0.00000000000E+00 0.  1.
         21    1    1    2  506  505 -0.53521552243E+02  0.41375494333E+02  0.32906319990E+02  0.75228412060E+02  0.00000000000E+00 0.  1.
<scales pt_clust_3="79.61472" pt_clust_4="95.71210" pt_clust_5="38.05072" pt_clust_6="14000.00000"></scales>
<clustering>
<clus scale="   38.051">  1  5  2 -1</clus>
<clus scale="   79.615">  2  3  1 -1</clus>
<clus scale="   95.712">  2  4  1 -1</clus>
<clus scale="   38.051">  1  3  2 -1</clus>
</clustering>
</event>
<event>
 6    0  0.6687079E+002  0.1151356E+03  0.7546771E-02  0.1251345E+00
         21   -1    0    0  505  501  0.00000000000E+00  0.00000000000E+00  0.10386171237E+03  0.10386171237E+03  0.00000000000E+00 0.  1.
         21   -1    0    0  504  502 -0.00000000000E+00 -0.00000000000E+00 -0.31733006850E+03  0.31733006850E+03  0.00000000000E+00 0. -1.
         21    1    1    2  503  502  0.12791662001E+03 -0.51066820962E+02 -0.36322766615E+02  0.14244235765E+03  0.00000000000E+00 0.  1.
         21    1    1    2  504  501 -0.91534133495E+02 -0.35517787347E+02 -0.13314169580E+03  0.16542890308E+03  0.00000000000E+00 0. -1.
         21    1    1    2  505  506  0.44389743990E+00  0.52026025762E+02 -0.33069295955E+02  0.61648055416E+02  0.00000000000E+00 0. -1.
         21    1    1    2  506  503 -0.36826383956E+02  0.34558582546E+02 -0.10934597759E+02  0.51672464728E+02  0.00000000000E+00 0. -1.
<scales pt_clust_3="105.69570" pt_clust_4="98.18356" pt_clust_5="44.98321" pt_clust_6="44.98321"></scales>
<clustering>
<clus scale="   44.983">  5  6 -1 -1</clus>
<clus scale="   98.184">  2  4  1 -1</clus>
<clus scale="  105.696">  2  3  1 -1</clus>
<clus scale="  115.136">  1  3  2 -1</clus>
</clustering>
</event>
<event>
 6    0  0.6687079E+002  0.8839078E+02  0.7546771E-02  0.1306796E+00
         21   -1    0    0  504  501  0.00000000000E+00  0.00000000000E+00  0.57575567961E+03  0.57575567961E+03  0.00000000000E+00 0.  1.
         21   -1    0    0  506  502 -0.00000000000E+00 -0.00000000000E+00 -0.46093475856E+02  0.46093475856E+02  0.00000000000E+00 0.  1.
         21    1    1    2  503  501 -0.42347433721E+02 -0.83437759005E+02  0.17031780354E+03  0.19432786463E+03  0.00000000000E+00 0.  1.
         21    1    1    2  504  505  0.43695751765E+02 -0.12587324984E+01  0.15317752060E+03  0.15929298776E+03  0.00000000000E+00 0.  1.
         21    1    1    2  505  502  0.36500224804E+02  0.72745547705E+02  0.21293994058E+03  0.22796403097E+03  0.00000000000E+00 0.  1.
         21    1    1    2  506  503 -0.37848542848E+02  0.11950943799E+02 -0.67730609692E+01  0.40264272107E+02  0.00000000000E+00 0.  1.
<scales pt_clust_3="88.39078" pt_clust_4="38.57089" pt_clust_5="14000.00000" pt_clust_6="39.69052"></scales>
<clustering>
<clus scale="   39.691">  2  6  1 -1</clus>
<clus scale="   38.571">  1  4  2 -1</clus>
<clus scale="   88.391">  2  3  1 -1</clus>
<clus scale="   38.571">  1  3  2 -1</clus>
</clustering>
</event>
<event>
 6    0  0.6687079E+002  0.1514857E+03  0.7546771E-02  0.1198659E+00
         21   -1    0    0  506  501  0.00000000000E+00  0.00000000000E+00  0.11321444804E+03  0.11321444804E+03  0.00000000000E+00 0.  1.
         21   -1    0    0  504  502 -0.00000000000E+00 -0.00000000000E+00 -0.70189131551E+03  0.70189131551E+03  0.00000000000E+00 0.  1.
         21    1    1    2  503  505 -0.10903705612E+03 -0.52560563254E+01 -0.25781785377E+02  0.11216686763E+03  0.00000000000E+00 0.  1.
         21    1    1    2  504  501  0.11935203617E+03 -0.41441438539E+02 -0.90108496706E+02  0.15518325472E+03  0.00000000000E+00 0.  1.
         21    1    1    2  505  502  0.40757748256E+02  0.37934749481E+02 -0.48999928554E+03  0.49315265293E+03  0.00000000000E+00 0.  1.
         21    1    1    2  506  503 -0.51072728301E+02  0.87627453834E+01  0.17212700146E+02  0.54602988280E+02  0.00000000000E+00 0. -1.
<scales pt_clust_3="31.50760" pt_clust_4="144.41810" pt_clust_5="55.67979" pt_clust_6="31.50760"></scales>
<clustering>
<clus scale="   31.508">  3  6 -1 -1</clus>
<clus scale="   55.680">  2  5  1 -1</clus>
<clus scale="  144.418">  2  4  1 -1</clus>
<clus scale="  151.486">  1  3  2 -1</clus>
</clustering>
</event>
<event>
 6    0  0.6687079E+002  0.1038385E+03  0.7546771E-02  0.1272425E+00
         21   -1    0    0  506  501  0.00000000000E+00  0.00000000000E+00  0.61363212986E+03  0.61363212986E+03  0.00000000000E+00 0. -1.
         21   -1    0    0  503  502 -0.00000000000E+00 -0.00000000000E+00 -0.20030249288E+03  0.20030249288E+03  0.00000000000E+00 0.  1.
         21    1    1    2  503  505  0.20757884611E+02 -0.10101772866E+03 -0.16673470597E+03  0.19605084404E+03  0.00000000000E+00 0.  1.
         21    1    1    2  504  502 -0.50868451158E+02  0.10986840457E+03  0.28054856200E+03  0.30555876896E+03  0.00000000000E+00 0. -1.
         21    1    1    2  505  501  0.41384922734E+02  0.27925004177E+02  0.17775108746E+03  0.18462926848E+03  0.00000000000E+00 0. -1.
         21    1    1    2  506  504 -0.11274356187E+02 -0.36775680094E+02  0.12176469348E+03  0.12769574125E+03  0.00000000000E+00 0. -1.
<scales pt_clust_3="103.83850" pt_clust_4="14000.00000" pt_clust_5="39.85845" pt_clust_6="38.46507"></scales>
<clustering>
<clus scale="   38.465">  1  6  2 -1</clus>
<clus scale="   39.858">  1  5  2 -1</clus>
<clus scale="  103.838">  2  3  1 -1</clus>
<clus scale="   38.465">  1  3  2 -1</clus>
</clustering>
</event>
<event>
 6    0  0.6687079E+002  0.8441327E+02  0.7546771E-02  0.1316974E+00
         21   -1    0    0  504  501  0.00000000000E+00  0.00000000000E+00  0.49564846651E+02  0.49564846651E+02  0.00000000000E+00 0. -1.
         21   -1    0    0  503  502 -0.00000000000E+00 -0.00000000000E+00 -0.87131664509E+03  0.87131664509E+03  0.00000000000E+00 0. -1.
         21    1    1    2  503  506 -0.20568102667E+02 -0.27651311392E+02 -0.29197738824E+03  0.29400414472E+03  0.00000000000E+00 0. -1.
         21    1    1    2  504  505  0.60127652539E+02  0.77931343540E+01  0.46102042282E+01  0.60805604396E+02  0.00000000000E+00 0. -1.
         21    1    1    2  505  502  0.66897335834E+02  0.40533766133E+02 -0.21627471935E+03  0.22998476899E+03  0.00000000000E+00 0. -1.
         21    1    1    2  506  501 -0.10645688571E+03 -0.20675589095E+02 -0.31810989507E+03  0.33608697363E+03  0.00000000000E+00 0. -1.
<scales pt_clust_3="34.46218" pt_clust_4="59.47909" pt_clust_5="14000.00000" pt_clust_6="84.41327"></scales>
<clustering>
<clus scale="   34.462">  2  3  1 -1</clus>
<clus scale="   59.479">  1  4  2 -1</clus>
<clus scale="   84.413">  1  6  2 -1</clus>
<clus scale="   59.479">  1  3  2 -1</clus>
</clustering>
</event>
<event>
 6    0  0.6687079E+002  0.9441725E+02  0.7546771E-02  0.1292494E+00
         21   -1    0    0  504  501  0.00000000000E+00  0.00000000000E+00  0.20770425229E+03  0.20770425229E+03  0.00000000000E+00 0. -1.
         21   -1    0    0  501  502 -0.00000000000E+00 -0.00000000000E+00 -0.28950855860E+03  0.28950855860E+03  0.00000000000E+00 0.  1.
         21    1    1    2  503  506  0.34223794844E+02  0.12574653803E+02 -0.11761494125E+03  0.12313677134E+03  0.00000000000E+00 0.  1.
         21    1    1    2  504  505  0.19456738086E+02 -0.68614036790E+02  0.15545321256E+03  0.17103260507E+03  0.00000000000E+00 0. -1.
         21    1    1    2  505  503 -0.91104255888E+02  0.12076908344E+02 -0.30485472930E+02  0.96825622724E+02  0.00000000000E+00 0. -1.
         21    1    1    2  506  502  0.37423722958E+02  0.43962474643E+02 -0.89157104688E+02  0.10621781175E+03  0.00000000000E+00 0.  1.
<scales pt_clust_3="30.97278" pt_clust_4="71.31936" pt_clust_5="85.99759" pt_clust_6="30.97278"></scales>
<clustering>
<clus scale="   30.973">  3  6 -1 -1</clus>
<clus scale="   71.319">  1  4  2 -1</clus>
<clus scale="   85.998">  1  5  2 -1</clus>
<clus scale="   71.319">  1  3  2 -1</clus>
</clustering>
</event>
<event>
 6    0  0.6687079E+002  0.1465639E+03  0.7546771E-02  0.1204760E+00
         21   -1    0    0  503  501  0.00000000000E+00  0.00000000000E+00  0.18245345073E+03  0.18245345073E+03  0.00000000000E+00 0. -1.
         21   -1    0    0  504  502 -0.00000000000E+00 -0.00000000000E+00 -0.73734866937E+03  0.73734866937E+03  0.00000000000E+00 0. -1.
         21    1    1    2  503  506 -0.72346490238E+02 -0.41680056898E+01  0.11304219078E+01  0.72475270092E+02  0.00000000000E+00 0. -1.
         21    1    1    2  504  501  0.66258798598E+02 -0.84129886988E+02  0.68064338757E+02  0.12688900853E+03  0.00000000000E+00 0. -1.
         21    1    1    2  505  502  0.11937435788E+03  0.72643496575E+02 -0.58205460195E+03  0.59859408163E+03  0.00000000000E+00 0. -1.
         21    1    1    2  506  505 -0.11328666624E+03  0.15654396102E+02 -0.42035377358E+02  0.12184375985E+03  0.00000000000E+00 0. -1.
<scales pt_clust_3="30.77906" pt_clust_4="107.08906" pt_clust_5="141.37150" pt_clust_6="30.77906"></scales>
<clustering>
<clus scale="   30.779">  3  6 -1 -1</clus>
<clus scale="  107.089">  1  4  2 -1</clus>
<clus scale="  141.372">  2  5  1 -1</clus>
<clus scale="  107.089">  1  3  2 -1</clus>
</clustering>
</event>
<event>
 6    0  0.6687079E+002  0.2345247E+03  0.7546771E-02  0.1123495E+00
         21   -1    0    0  503  501  0.00000000000E+00  0.00000000000E+00  0.18812789782E+04  0.18812789782E+04  0.00000000000E+00 0.  1.
         21   -1    0    0  506  502 -0.00000000000E+00 -0.00000000000E+00 -0.92232204969E+03  0.92232204969E+03  0.00000000000E+00 0.  1.
         21    1    1    2  503  504  0.10892778701E+03 -0.86274049500E+02 -0.20769098099E+03  0.24988801089E+03  0.00000000000E+00 0.  1.
         21    1    1    2  504  502 -0.11410342510E+02 -0.13517401785E+03 -0.12528556957E+03  0.18465829243E+03  0.00000000000E+00 0.  1.
         21    1    1    2  505  501 -0.12243973819E+03  0.20415405499E+03  0.18223191166E+04  0.18378023100E+04  0.00000000000E+00 0.  1.
         21    1    1    2  506  505  0.24922293688E+02  0.17294012358E+02 -0.53038563752E+03  0.53125241465E+03  0.00000000000E+00 0.  1.
<scales pt_clust_3="14000.00000" pt_clust_4="128.33769" pt_clust_5="234.52468" pt_clust_6="30.33486"></scales>
<clustering>
<clus scale="   30.335">  2  6  1 -1</clus>
<clus scale="  128.338">  2  4  1 -1</clus>
<clus scale="  234.525">  1  5  2 -1</clus>
<clus scale="  234.525">  1  3  2 -1</clus>
</clustering>
</event>
<event>
 6    0  0.6687079E+002  0.1346854E+03  0.7546771E-02  0.1220664E+00
         21   -1    0    0  505  501  0.00000000000E+00  0.00000000000E+00  0.58379914125E+03  0.58379914125E+03  0.00000000000E+00 0.  1.
         21   -1    0    0  506  502 -0.00000000000E+00 -0.00000000000E+00 -0.50946198505E+03  0.50946198505E+03  0.00000000000E+00 0.  1.
         21    1    1    2  503  501  0.41538560315E+02 -0.17425725500E+02  0.24441962070E+03  0.24853583019E+03  0.00000000000E+00 0.  1.
         21    1    1    2  504  502  0.51636504889E+02  0.32319055174E+02 -0.41534676547E+03  0.41979016848E+03  0.00000000000E+00 0.  1.
         21    1    1    2  505  504 -0.15356114611E+03 -0.77526008774E+02  0.28213627606E+03  0.33044240936E+03  0.00000000000E+00 0.  1.
         21    1    1    2  506  503  0.60386080908E+02  0.62632679099E+02 -0.36871975093E+02  0.94492718269E+02  0.00000000000E+00 0. -1.
<scales pt_clust_3="45.04562" pt_clust_4="61.08824" pt_clust_5="14000.00000" pt_clust_6="134.68542"></scales>
<clustering>
<clus scale="   45.046">  1  3  2 -1</clus>
<clus scale="   61.088">  2  4  1 -1</clus>
<clus scale="  134.685">  2  6  1 -1</clus>
<clus scale="   45.046">  1  3  2 -1</clus>
</clustering>
</event>
<event>
 6    0  0.6687079E+002  0.1333164E+03  0.7546771E-02  0.1222616E+00
         21   -1    0    0  504  501  0.00000000000E+00  0.00000000000E+00  0.42125687805E+03  0.42125687805E+03  0.00000000000E+00 0. -1.
         21   -1    0    0  505  502 -0.00000000000E+00 -0.00000000000E+00 -0.70415881158E+03  0.70415881158E+03  0.00000000000E+00 0.  1.
         21    1    1    2  503  501 -0.46942148155E+02 -0.26670583240E+02  0.31976133541E+03  0.32428721360E+03  0.00000000000E+00 0. -1.
         21    1    1    2  504  506 -0.41520925021E+01  0.38008234109E+02  0.35191826772E+02  0.51964703442E+02  0.00000000000E+00 0. -1.
         21    1    1    2  505  503  0.50258758251E+02 -0.11119262746E+03 -0.63773626108E+03  0.64930523013E+03  0.00000000000E+00 0.  1.
         21    1    1    2  506  502  0.83548240612E+00  0.99854976590E+02 -0.11883463597E+00  0.99858542460E+02  0.00000000000E+00 0.  1.
<scales pt_clust_3="53.98968" pt_clust_4="32.75968" pt_clust_5="122.35332" pt_clust_6="32.75968"></scales>
<clustering>
<clus scale="   32.760">  4  6 -1 -1</clus>
<clus scale="   53.990">  1  3  2 -1</clus>
<clus scale="  122.353">  2  5  1 -1</clus>
<clus scale="   53.990">  1  3  2 -1</clus>
</clustering>
</event>
<event>
 6    0  0.6687079E+002  0.1953402E+03  0.7546771E-02  0.1153731E+00
         21   -1    0    0  505  501  0.00000000000E+00  0.00000000000E+00  0.93876300098E+03  0.93876300098E+03  0.00000000000E+00 0. -1.
         21   -1    0    0  503  502 -0.00000000000E+00 -0.00000000000E+00 -0.99623953352E+02  0.99623953352E+02  0.00000000000E+00 0. -1.
         21    1    1    2  503  501  0.20474675695E+02  0.29552156052E+02  0.12501480729E+03  0.13008168324E+03  0.00000000000E+00 0.  1.
         21    1    1    2  504  502  0.25184249101E+02  0.19429675937E+03  0.52621805331E+02  0.20286579677E+03  0.00000000000E+00 0. -1.
         21    1    1    2  505  506 -0.33186966093E+02 -0.31335416217E+02  0.72717825204E+02  0.85855489809E+02  0.00000000000E+00 0. -1.
         21    1    1    2  506  504 -0.12471958703E+02 -0.19251349920E+03  0.58878460981E+03  0.61958398452E+03  0.00000000000E+00 0. -1.
<scales pt_clust_3="35.95194" pt_clust_4="195.34022" pt_clust_5="42.21124" pt_clust_6="14000.00000"></scales>
<clustering>
<clus scale="   35.952">  1  3  2 -1</clus>
<clus scale="   42.211">  1  5  2 -1</clus>
<clus scale="  195.340">  2  4  1 -1</clus>
<clus scale="   35.952">  1  3  2 -1</clus>
</clustering>
</event>
<event>
 6    0  0.6687079E+002  0.7943705E+02  0.7546771E-02  0.1330657E+00
         21   -1    0    0  503  501  0.00000000000E+00  0.00000000000E+00  0.27357829221E+03  0.27357829221E+03  0.00000000000E+00 0.  1.
         21   -1    0    0  505  502 -0.00000000000E+00 -0.00000000000E+00 -0.13666705516E+03  0.13666705516E+03  0.00000000000E+00 0.  1.
         21    1    1    2  503  506 -0.42588470817E+02 -0.34316744808E+02  0.14133347661E+03  0.15154724818E+03  0.00000000000E+00 0.  1.
         21    1    1    2  504  502  0.63976934259E+02 -0.37541482073E+01 -0.56667561000E+02  0.85547379946E+02  0.00000000000E+00 0.  1.
         21    1    1    2  505  501 -0.14842772040E+02 -0.60040096101E+02  0.40948529175E+02  0.74174814211E+02  0.00000000000E+00 0.  1.
         21    1    1    2  506  504 -0.65456914019E+01  0.98110989117E+02  0.11296792266E+02  0.98975905032E+02  0.00000000000E+00 0.  1.
<scales pt_clust_3="54.69385" pt_clust_4="59.63283" pt_clust_5="14000.00000" pt_clust_6="79.43705"></scales>
<clustering>
<clus scale="   54.694">  1  3  2 -1</clus>
<clus scale="   59.633">  2  4  1 -1</clus>
<clus scale="   79.437">  2  6  1 -1</clus>
<clus scale="   54.694">  1  3  2 -1</clus>
</clustering>
</event>
<event>
 6    0  0.6687079E+002  0.9615859E+02  0.7546771E-02  0.1288588E+00
         21   -1    0    0  502  501  0.00000000000E+00  0.00000000000E+00  0.19146267364E+04  0.19146267364E+04  0.00000000000E+00 0.  1.
         21   -1    0    0  505  502 -0.00000000000E+00 -0.00000000000E+00 -0.72929133857E+02  0.72929133857E+02  0.00000000000E+00 0. -1.
         21    1    1    2  503  504  0.10076634400E+02  0.39896962470E+02  0.29931401306E+03  0.30212941695E+03  0.00000000000E+00 0. -1.
         21    1    1    2  504  501 -0.26790546924E+02  0.20923218912E+02  0.74991865290E+03  0.75068868411E+03  0.00000000000E+00 0.  1.
         21    1    1    2  505  506 -0.80737910800E+02 -0.53607791384E+02 -0.33856828702E+02  0.10265812382E+03  0.00000000000E+00 0. -1.
         21    1    1    2  506  503  0.97451823324E+02 -0.72123899981E+01  0.82632176533E+03  0.83207964541E+03  0.00000000000E+00 0.  1.
<scales pt_clust_3="45.41090" pt_clust_4="33.99286" pt_clust_5="96.15859" pt_clust_6="14000.00000"></scales>
<clustering>
<clus scale="   33.993">  1  4  2 -1</clus>
<clus scale="   45.411">  1  3  2 -1</clus>
<clus scale="   96.159">  2  5  1 -1</clus>
<clus scale="   33.993">  1  3  2 -1</clus>
</clustering>
</event>
<event>
 6    0  0.6687079E+002  0.1795681E+03  0.7546771E-02  0.1168222E+00
         21   -1    0    0  504  501  0.00000000000E+00  0.00000000000E+00  0.40372901597E+03  0.40372901597E+03  0.00000000000E+00 0.  1.
         21   -1    0    0  506  502 -0.00000000000E+00 -0.00000000000E+00 -0.83478382970E+02  0.83478382970E+02  0.00000000000E+00 0.  1.
         21    1    1    2  503  502 -0.77478804694E+02 -0.97303708337E+02  0.13479059763E+03  0.18341069228E+03  0.00000000000E+00 0.  1.
         21    1    1    2  504  503 -0.54245632652E+02  0.26526101863E+00  0.78225964863E+02  0.95194330735E+02  0.00000000000E+00 0.  1.
         21    1    1    2  505  501  0.98876248585E+02  0.52117804818E+02  0.34406528413E+02  0.11694694229E+03  0.00000000000E+00 0.  1.
         21    1    1    2  506  505  0.32848188761E+02  0.44920642500E+02  0.72827542095E+02  0.91655433637E+02  0.00000000000E+00 0.  1.
<scales pt_clust_3="48.87351" pt_clust_4="48.87351" pt_clust_5="178.92961" pt_clust_6="51.11679"></scales>
<clustering>
<clus scale="   48.874">  3  4 -1 -1</clus>
<clus scale="   51.117">  5  6 -1 -1</clus>
<clus scale="  178.930">  2  5  1 -1</clus>
<clus scale="  179.568">  1  3  2 -1</clus>
</clustering>
</event>
<event>
 6    0  0.6687079E+002  0.1238433E+03  0.7546771E-02  0.1236888E+00
         21   -1    0    0  504  501  0.00000000000E+00  0.00000000000E+00  0.90703906010E+03  0.90703906010E+03  0.00000000000E+00 0.  1.
         21   -1    0    0  505  502 -0.00000000000E+00 -0.00000000000E+00 -0.30893633439E+02  0.30893633439E+02  0.00000000000E+00 0.  1.
         21    1    1    2  503  501 -0.36204097287E+02  0.58306860975E+02  0.11053617429E+03  0.13011023220E+03  0.00000000000E+00 0.  1.
         21    1    1    2  504  506 -0.10719976231E+02 -0.29174281577E+02  0.29033678431E+03  0.29199572757E+03  0.00000000000E+00 0.  1.
         21    1    1    2  505  503 -0.28928980933E+02  0.47902883975E+02  0.43934519910E+02  0.71146428376E+02  0.00000000000E+00 0.  1.
         21    1    1    2  506  502  0.75853054451E+02 -0.77035463374E+02  0.43133794815E+03  0.44468030539E+03  0.00000000000E+00 0.  1.
<scales pt_clust_3="30.22228" pt_clust_4="31.08145" pt_clust_5="30.22228" pt_clust_6="119.23486"></scales>
<clustering>
<clus scale="   30.222">  3  5 -1 -1</clus>
<clus scale="   31.081">  1  4  2 -1</clus>
<clus scale="  119.235">  1  6  2 -1</clus>
<clus scale="   31.081">  1  3  2 -1</clus>
</clustering>
</event>
<event>
 6    0  0.6687079E+002  0.9315316E+02  0.7546771E-02  0.1295391E+00
         21   -1    0    0  506  501  0.00000000000E+00  0.00000000000E+00  0.44338232063E+03  0.44338232063E+03  0.00000000000E+00 0. -1.
         21   -1    0    0  505  502 -0.00000000000E+00 -0.00000000000E+00 -0.36758701286E+03  0.36758701286E+03  0.00000000000E+00 0. -1.
         21    1    1    2  503  501 -0.13392500328E+02  0.35624520841E+02  0.83860025587E+02  0.92092179047E+02  0.00000000000E+00 0. -1.
         21    1    1    2  504  502  0.79284554808E+02 -0.42646503469E+02 -0.30066680030E+03  0.31385552359E+03  0.00000000000E+00 0. -1.
         21    1    1    2  505  503 -0.13085397936E+03  0.71905972808E+02  0.71362250443E+02  0.16548656631E+03  0.00000000000E+00 0. -1.
         21    1    1    2  506  504  0.64961924885E+02 -0.64883990180E+02  0.22123983204E+03  0.23953506454E+03  0.00000000000E+00 0. -1.
<scales pt_clust_3="38.05871" pt_clust_4="93.15316" pt_clust_5="14000.00000" pt_clust_6="70.09965"></scales>
<clustering>
<clus scale="   38.059">  1  3  2 -1</clus>
<clus scale="   70.100">  1  6  2 -1</clus>
<clus scale="   93.153">  2  4  1 -1</clus>
<clus scale="   38.059">  1  3  2 -1</clus>
</clustering>
</event>
<event>
 6    0  0.6687079E+002  0.1494583E+03  0.7546771E-02  0.1201140E+00
         21   -1    0    0  506  501  0.00000000000E+00  0.00000000000E+00  0.95765650826E+02  0.95765650826E+02  0.00000000000E+00 0.  1.
         21   -1    0    0  505  502 -0.00000000000E+00 -0.00000000000E+00 -0.99992085472E+03  0.99992085472E+03  0.00000000000E+00 0. -1.
         21    1    1    2  503  504  0.37493138719E+02 -0.28717567160E+02 -0.14719377403E+02  0.49468112818E+02  0.00000000000E+00 0. -1.
         21    1    1    2  504  502 -0.10835032607E+03  0.17213966130E+02 -0.31567420128E+03  0.33419502561E+03  0.00000000000E+00 0. -1.
         21    1    1    2  505  501 -0.30440420307E+02  0.11262520054E+02 -0.60511453222E+03  0.60598437327E+03  0.00000000000E+00 0. -1.
         21    1    1    2  506  503  0.10129760766E+03  0.24108097610E+00  0.31352907010E+02  0.10603899384E+03  0.00000000000E+00 0.  1.
<scales pt_clust_3="41.72214" pt_clust_4="136.03591" pt_clust_5="32.45710" pt_clust_6="41.72214"></scales>
<clustering>
<clus scale="   32.457">  2  5  1 -1</clus>
<clus scale="   41.722">  3  6 -1 -1</clus>
<clus scale="  136.036">  2  4  1 -1</clus>
<clus scale="  149.458">  1  3  2 -1</clus>
</clustering>
</event>
<event>
 6    0  0.6687079E+002  0.1234229E+03  0.7546771E-02  0.1237555E+00
         21   -1    0    0  503  501  0.00000000000E+00  0.00000000000E+00  0.11500899854E+03  0.11500899854E+03  0.00000000000E+00 0.  1.
         21   -1    0    0  506  502 -0.00000000000E+00 -0.00000000000E+00 -0.68757048667E+03  0.68757048667E+03  0.00000000000E+00 0. -1.
         21    1    1    2  503  502  0.89887547920E+02 -0.10666055152E+03 -0.42256273313E+03  0.44498933465E+03  0.00000000000E+00 0. -1.
         21    1    1    2  504  505 -0.32338509864E+02 -0.13208390157E+02 -0.52953324650E+02  0.63437334294E+02  0.00000000000E+00 0. -1.
         21    1    1    2  505  501  0.48117881447E+01  0.84572599101E+02  0.71599905019E+02  0.11091539218E+03  0.00000000000E+00 0.  1.
         21    1    1    2  506  504 -0.62360826200E+02  0.35296342572E+02 -0.16864533537E+03  0.18323742409E+03  0.00000000000E+00 0. -1.
<scales pt_clust_3="113.78310" pt_clust_4="33.38722" pt_clust_5="84.70937" pt_clust_6="33.38722"></scales>
<clustering>
<clus scale="   33.387">  4  6 -1 -1</clus>
<clus scale="   84.709">  1  5  2 -1</clus>
<clus scale="  113.783">  2  3  1 -1</clus>
<clus scale="   84.709">  1  3  2 -1</clus>
</clustering>
</event>
<event>
 6    0  0.6687079E+002  0.9662859E+02  0.7546771E-02  0.1287550E+00
         21   -1    0    0  504  501  0.00000000000E+00  0.00000000000E+00  0.19579135989E+04  0.19579135989E+04  0.00000000000E+00 0.  1.
         21   -1    0    0  505  502 -0.00000000000E+00 -0.00000000000E+00 -0.13957894750E+03  0.13957894750E+03  0.00000000000E+00 0.  1.
         21    1    1    2  503  502 -0.45548565688E+02  0.90198676513E+01 -0.12508298459E+03  0.13342332211E+03  0.00000000000E+00 0.  1.
         21    1    1    2  504  506  0.12323438388E+03  0.59840174570E+02  0.12996287412E+04  0.13068291491E+04  0.00000000000E+00 0.  1.
         21    1    1    2  505  501 -0.46224097057E+02  0.54639314083E+01  0.32867918993E+03  0.33195862933E+03  0.00000000000E+00 0.  1.
         21    1    1    2  506  503 -0.31461721135E+02 -0.74323973629E+02  0.31510970486E+03  0.32528144590E+03  0.00000000000E+00 0.  1.
<scales pt_clust_3="46.43307" pt_clust_4="14000.00000" pt_clust_5="53.90013" pt_clust_6="96.62859"></scales>
<clustering>
<clus scale="   46.433">  2  3  1 -1</clus>
<clus scale="   53.900">  1  5  2 -1</clus>
<clus scale="   96.629">  2  6  1 -1</clus>
<clus scale="   53.900">  1  3  2 -1</clus>
</clustering>
</event>
<event>
 6    0  0.6687079E+002  0.1205733E+03  0.7546771E-02  0.1242154E+00
         21   -1    0    0  504  501  0.00000000000E+00  0.00000000000E+00  0.48156000582E+03  0.48156000582E+03  0.00000000000E+00 0.  1.
         21   -1    0    0  505  502 -0.00000000000E+00 -0.00000000000E+00 -0.51738826328E+03  0.51738826328E+03  0.00000000000E+00 0.  1.
         21    1    1    2  503  501  0.11031375865E+02  0.32651406091E+02 -0.53486609568E+02  0.63628790467E+02  0.00000000000E+00 0.  1.
         21    1    1    2  504  506 -0.55198272795E+02 -0.92439423745E+02  0.45195070994E+03  0.46459804196E+03  0.00000000000E+00 0.  1.
         21    1    1    2  505  503  0.53699347963E+02  0.94826280641E+02 -0.41604942474E+03  0.43008460481E+03  0.00000000000E+00 0.  1.
         21    1    1    2  506  502 -0.95324510327E+01 -0.35038262987E+02 -0.18242933085E+02  0.40636831857E+02  0.00000000000E+00 0.  1.
<scales pt_clust_3="30.01286" pt_clust_4="108.11895" pt_clust_5="30.01286" pt_clust_6="36.31181"></scales>
<clustering>
<clus scale="   30.013">  3  5 -1 -1</clus>
<clus scale="   36.312">  2  6  1 -1</clus>
<clus scale="  108.119">  1  4  2 -1</clus>
<clus scale="  108.119">  1  3  2 -1</clus>
</clustering>
</event>
<event>
 6    0  0.6687079E+002  0.1373269E+03  0.7546771E-02  0.1216972E+00
         21   -1    0    0  503  501  0.00000000000E+00  0.00000000000E+00  0.30894735249E+03  0.30894735249E+03  0.00000000000E+00 0.  1.
         21   -1    0    0  505  502 -0.00000000000E+00 -0.00000000000E+00 -0.25890826977E+03  0.25890826977E+03  0.00000000000E+00 0. -1.
         21    1    1    2  503  506  0.22113084632E+02  0.84044242595E+02  0.14986884123E+03  0.17324287228E+03  0.00000000000E+00 0.  1.
         21    1    1    2  504  501 -0.16815837118E+02 -0.36448402217E+02  0.33879799529E+02  0.52527128403E+02  0.00000000000E+00 0. -1.
         21    1    1    2  505  504  0.47631522725E+01 -0.12437518243E+03 -0.20303647172E+03  0.23815054582E+03  0.00000000000E+00 0. -1.
         21    1    1    2  506  502 -0.10060399787E+02  0.76779342055E+02  0.69326913691E+02  0.10393507576E+03  0.00000000000E+00 0.  1.
<scales pt_clust_3="51.15732" pt_clust_4="40.14048" pt_clust_5="126.83583" pt_clust_6="51.15732"></scales>
<clustering>
<clus scale="   40.140">  1  4  2 -1</clus>
<clus scale="   51.157">  3  6 -1 -1</clus>
<clus scale="  126.836">  2  5  1 -1</clus>
<clus scale="   40.140">  1  3  2 -1</clus>
</clustering>
</event>
<event>
 6    0  0.6687079E+002  0.1137178E+03  0.7546771E-02  0.1253836E+00
         21   -1    0    0  504  501  0.00000000000E+00  0.00000000000E+00  0.10497685802E+04  0.10497685802E+04  0.00000000000E+00 0. -1.
         21   -1    0    0  501  502 -0.00000000000E+00 -0.00000000000E+00 -0.32485497792E+03  0.32485497792E+03  0.00000000000E+00 0. -1.
         21    1    1    2  503  505 -0.54945405171E+02 -0.38854589666E+02  0.62819633520E+02  0.92059671100E+02  0.00000000000E+00 0. -1.
         21    1    1    2  504  506  0.52796410224E+02  0.66528617072E+02  0.81496026390E+03  0.81937399858E+03  0.00000000000E+00 0. -1.
         21    1    1    2  505  502  0.98352704679E+02 -0.22203829614E+02 -0.28348061011E+03  0.30087791690E+03  0.00000000000E+00 0. -1.
         21    1    1    2  506  503 -0.96203709731E+02 -0.54701977916E+01  0.13061431499E+03  0.16231197156E+03  0.00000000000E+00 0. -1.
<scales pt_clust_3="41.59615" pt_clust_4="84.93243" pt_clust_5="102.24603" pt_clust_6="41.59615"></scales>
<clustering>
<clus scale="   41.596">  3  6 -1 -1</clus>
<clus scale="   84.932">  1  4  2 -1</clus>
<clus scale="  102.246">  2  5  1 -1</clus>
<clus scale="   84.932">  1  3  2 -1</clus>
</clustering>
</event>
<event>
 6    0  0.6687079E+002  0.1562239E+03  0.7546771E-02  0.1193027E+00
         21   -1    0    0  506  501  0.00000000000E+00  0.00000000000E+00  0.22942377267E+03  0.22942377267E+03  0.00000000000E+00 0.  1.
         21   -1    0    0  505  502 -0.00000000000E+00 -0.00000000000E+00 -0.14641276112E+03  0.14641276112E+03  0.00000000000E+00 0. -1.
         21    1    1    2  503  501  0.94232197271E+02 -0.17680723241E+02 -0.14754382533E+02  0.97005189453E+02  0.00000000000E+00 0. -1.
         21    1    1    2  504  503  0.33800375482E+02 -0.33728985065E+02  0.56885727354E+01  0.48088144860E+02  0.00000000000E+00 0. -1.
         21    1    1    2  505  504  0.33785046605E+01 -0.34982898810E+02 -0.17308708132E+02  0.39176636917E+02  0.00000000000E+00 0. -1.
         21    1    1    2  506  502 -0.13141107741E+03  0.86392607117E+02  0.10938552948E+03  0.19156656256E+03  0.00000000000E+00 0.  1.
<scales pt_clust_3="31.04038" pt_clust_4="31.04038" pt_clust_5="35.14566" pt_clust_6="149.90438"></scales>
<clustering>
<clus scale="   31.040">  3  4 -1 -1</clus>
<clus scale="   35.146">  2  5  1 -1</clus>
<clus scale="  149.904">  1  6  2 -1</clus>
<clus scale="  149.904">  1  3  2 -1</clus>
</clustering>
</event>
<event>
 6    0  0.6687079E+002  0.9343322E+02  0.7546771E-02  0.1294744E+00
         21   -1    0    0  506  501  0.00000000000E+00  0.00000000000E+00  0.18715707353E+03  0.18715707353E+03  0.00000000000E+00 0. -1.
         21   -1    0    0  504  502 -0.00000000000E+00 -0.00000000000E+00 -0.33902428571E+03  0.33902428571E+03  0.00000000000E+00 0. -1.
         21    1    1    2  503  505 -0.30130930945E+02  0.15030267058E+03 -0.45002364833E+01  0.15335911421E+03  0.00000000000E+00 0. -1.
         21    1    1    2  504  501 -0.27985407981E+02 -0.40170868740E+02 -0.15938975694E+03  0.16673924665E+03  0.00000000000E+00 0. -1.
         21    1    1    2  505  502  0.54526687807E+02 -0.46849079076E+02 -0.71394009513E+02  0.10131683220E+03  0.00000000000E+00 0. -1.
         21    1    1    2  506  503  0.35896511189E+01 -0.63282722766E+02  0.83416790755E+02  0.10476616618E+03  0.00000000000E+00 0. -1.
<scales pt_clust_3="93.43322" pt_clust_4="48.95796" pt_clust_5="14000.00000" pt_clust_6="65.74693"></scales>
<clustering>
<clus scale="   48.958">  2  4  1 -1</clus>
<clus scale="   65.747">  1  6  2 -1</clus>
<clus scale="   93.433">  1  3  2 -1</clus>
<clus scale="   65.747">  1  3  2 -1</clus>
</clustering>
</event>
<event>
 6    0  0.6687079E+002  0.1714815E+03  0.7546771E-02  0.1176312E+00
         21   -1    0    0  503  501  0.00000000000E+00  0.00000000000E+00  0.29337216943E+03  0.29337216943E+03  0.00000000000E+00 0. -1.
         21   -1    0    0  505  502 -0.00000000000E+00 -0.00000000000E+00 -0.32311192806E+04  0.32311192806E+04  0.00000000000E+00 0. -1.
         21    1    1    2  503  504  0.14754147341E+03  0.15569161844E+03  0.12816753615E+03  0.24987053398E+03  0.00000000000E+00 0. -1.
         21    1    1    2  504  502 -0.15167064297E+02 -0.10167893127E+03 -0.29887878619E+04  0.29905553879E+04  0.00000000000E+00 0. -1.
         21    1    1    2  505  506 -0.13506012723E+03 -0.58585293474E+01 -0.14664865734E+03  0.19945272381E+03  0.00000000000E+00 0. -1.
         21    1    1    2  506  501  0.26857181231E+01 -0.48154157827E+02  0.69521871851E+02  0.84612804371E+02  0.00000000000E+00 0. -1.
<scales pt_clust_3="14000.00000" pt_clust_4="102.99690" pt_clust_5="171.48151" pt_clust_6="48.22900"></scales>
<clustering>
<clus scale="   48.229">  1  6  2 -1</clus>
<clus scale="  102.997">  2  4  1 -1</clus>
<clus scale="  171.482">  2  5  1 -1</clus>
<clus scale="   48.229">  1  3  2 -1</clus>
</clustering>
</event>
<event>
 6    0  0.6687079E+002  0.1290092E+03  0.7546771E-02  0.1228933E+00
         21   -1    0    0  506  501  0.00000000000E+00  0.00000000000E+00  0.82291246706E+03  0.82291246706E+03  0.00000000000E+00 0. -1.
         21   -1    0    0  504  502 -0.00000000000E+00 -0.00000000000E+00 -0.43095751514E+02  0.43095751514E+02  0.00000000000E+00 0. -1.
         21    1    1    2  503  501  0.84393930669E+02  0.13665441984E+02  0.51776114337E+03  0.52477202805E+03  0.00000000000E+00 0. -1.
         21    1    1    2  504  505 -0.86956991242E+02 -0.40671759431E+02  0.11340868647E+03  0.14858411930E+03  0.00000000000E+00 0. -1.
         21    1    1    2  505  503  0.33159336798E+02  0.32236325063E+02  0.15431762742E+03  0.16109826939E+03  0.00000000000E+00 0. -1.
         21    1    1    2  506  502 -0.30596276226E+02 -0.52300076158E+01 -0.56707417095E+01  0.31553801832E+02  0.00000000000E+00 0. -1.
<scales pt_clust_3="38.45734" pt_clust_4="117.64748" pt_clust_5="38.45734" pt_clust_6="31.04006"></scales>
<clustering>
<clus scale="   31.040">  2  6  1 -1</clus>
<clus scale="   38.457">  3  5 -1 -1</clus>
<clus scale="  117.647">  2  4  1 -1</clus>
<clus scale="  129.009">  1  3  2 -1</clus>
</clustering>
</event>
<event>
 6    0  0.6687079E+002  0.3045710E+03  0.7546771E-02  0.1082978E+00
         21   -1    0    0  505  501  0.00000000000E+00  0.00000000000E+00  0.56145651860E+03  0.56145651860E+03  0.00000000000E+00 0. -1.
         21   -1    0    0  506  502 -0.00000000000E+00 -0.00000000000E+00 -0.48477763226E+03  0.48477763226E+03  0.00000000000E+00 0.  1.
         21    1    1    2  503  504  0.94260632896E+02 -0.26035186756E+03  0.82019718268E+02  0.28878261035E+03  0.00000000000E+00 0. -1.
         21    1    1    2  504  501  0.12138014881E+03  0.12397194673E+02  0.27889474258E+03  0.30441601206E+03  0.00000000000E+00 0. -1.
         21    1    1    2  505  502 -0.18222478645E+03  0.25277532413E+03 -0.28014700081E+03  0.41902694346E+03  0.00000000000E+00 0.  1.
         21    1    1    2  506  503 -0.33415995259E+02 -0.48206512358E+01 -0.40885736920E+01  0.34008584980E+02  0.00000000000E+00 0. -1.
<scales pt_clust_3="304.57104" pt_clust_4="121.08735" pt_clust_5="14000.00000" pt_clust_6="33.76192"></scales>
<clustering>
<clus scale="   33.762">  2  6  1 -1</clus>
<clus scale="  121.087">  1  4  2 -1</clus>
<clus scale="  304.571">  1  3  2 -1</clus>
<clus scale="  121.087">  1  3  2 -1</clus>
</clustering>
</event>
<event>
 6    0  0.6687079E+002  0.1608638E+03  0.7546771E-02  0.1187725E+00
         21   -1    0    0  505  501  0.00000000000E+00  0.00000000000E+00  0.14508149762E+04  0.14508149762E+04  0.00000000000E+00 0. -1.
         21   -1    0    0  504  502 -0.00000000000E+00 -0.00000000000E+00 -0.13273931636E+03  0.13273931636E+03  0.00000000000E+00 0. -1.
         21    1    1    2  503  502 -0.75352931548E+02 -0.58259547461E+02 -0.91216030716E+02  0.13188101995E+03  0.00000000000E+00 0. -1.
         21    1    1    2  504  506  0.18107004578E+03  0.21110129674E+02  0.58421698442E+03  0.61199794439E+03  0.00000000000E+00 0.  1.
         21    1    1    2  505  503 -0.12094963233E+03  0.67154527730E+01  0.67572405169E+03  0.68649610698E+03  0.00000000000E+00 0. -1.
         21    1    1    2  506  501  0.15232518093E+02  0.30433965014E+02  0.14935065442E+03  0.15317922120E+03  0.00000000000E+00 0.  1.
<scales pt_clust_3="95.24830" pt_clust_4="33.97551" pt_clust_5="140.33547" pt_clust_6="33.97551"></scales>
<clustering>
<clus scale="   33.976">  4  6 -1 -1</clus>
<clus scale="   95.248">  2  3  1 -1</clus>
<clus scale="  140.335">  1  5  2 -1</clus>
<clus scale="  140.335">  1  3  2 -1</clus>
</clustering>
</event>
<event>
 6    0  0.6687079E+002  0.7463311E+02  0.7546771E-02  0.1345011E+00
         21   -1    0    0  504  501  0.00000000000E+00  0.00000000000E+00  0.11869595354E+02  0.11869595354E+02  0.00000000000E+00 0.  1.
         21   -1    0    0  503  502 -0.00000000000E+00 -0.00000000000E+00 -0.19559230210E+04  0.19559230210E+04  0.00000000000E+00 0.  1.
         21    1    1    2  503  506 -0.44986024756E+02  0.38058661851E+02 -0.43010582409E+03  0.43412351248E+03  0.00000000000E+00 0.  1.
         21    1    1    2  504  505 -0.40070025705E+02 -0.26814699885E+02 -0.12354991247E+03  0.13262434151E+03  0.00000000000E+00 0.  1.
         21    1    1    2  505  502  0.32117167107E+02 -0.78381377492E+02 -0.58068378000E+03  0.58682945147E+03  0.00000000000E+00 0.  1.
         21    1    1    2  506  501  0.52938883354E+02  0.67137415527E+02 -0.80971390913E+03  0.81421531094E+03  0.00000000000E+00 0.  1.
<scales pt_clust_3="63.83736" pt_clust_4="48.21447" pt_clust_5="14000.00000" pt_clust_6="74.63311"></scales>
<clustering>
<clus scale="   48.214">  1  4  2 -1</clus>
<clus scale="   63.837">  2  3  1 -1</clus>
<clus scale="   74.633">  1  6  2 -1</clus>
<clus scale="   48.214">  1  3  2 -1</clus>
</clustering>
</event>
<event>
 6    0  0.6687079E+002  0.1076913E+03  0.7546771E-02  0.1264906E+00
         21   -1    0    0  506  501  0.00000000000E+00  0.00000000000E+00  0.13303791058E+04  0.13303791058E+04  0.00000000000E+00 0.  1.
         21   -1    0    0  505  502 -0.00000000000E+00 -0.00000000000E+00 -0.30987372424E+03  0.30987372424E+03  0.00000000000E+00 0. -1.
         21    1    1    2  503  502 -0.29627598892E+02  0.41396823862E+02  0.11107767806E+03  0.12218732424E+03  0.00000000000E+00 0.  1.
         21    1    1    2  504  501 -0.29321532065E+02  0.64541303103E+02  0.90644573618E+03  0.90921350886E+03  0.00000000000E+00 0.  1.
         21    1    1    2  505  504  0.23310661086E+02 -0.10555671057E+03 -0.29218513367E+03  0.31154094178E+03  0.00000000000E+00 0. -1.
         21    1    1    2  506  503  0.35638469871E+02 -0.38141639176E+00  0.29516710099E+03  0.29731105516E+03  0.00000000000E+00 0.  1.
<scales pt_clust_3="48.64070" pt_clust_4="107.69131" pt_clust_5="14000.00000" pt_clust_6="35.64051"></scales>
<clustering>
<clus scale="   35.641">  1  6  2 -1</clus>
<clus scale="   48.641">  1  3  2 -1</clus>
<clus scale="  107.691">  1  4  2 -1</clus>
<clus scale="   35.641">  1  3  2 -1</clus>
</clustering>
</event>
<event>
 6    0  0.6687079E+002  0.1472084E+03  0.7546771E-02  0.1203946E+00
         21   -1    0    0  505  501  0.00000000000E+00  0.00000000000E+00  0.93372701977E+03  0.93372701977E+03  0.00000000000E+00 0.  1.
         21   -1    0    0  506  502 -0.00000000000E+00 -0.00000000000E+00 -0.22489336478E+03  0.22489336478E+03  0.00000000000E+00 0.  1.
         21    1    1    2  503  501 -0.60699672145E+02  0.80328295262E+02 -0.19417952916E+03  0.21872991282E+03  0.00000000000E+00 0.  1.
         21    1    1    2  504  502  0.12739466132E+02 -0.45578522445E+02  0.27792114213E+03  0.28192172131E+03  0.00000000000E+00 0. -1.
         21    1    1    2  505  504  0.89012608079E+02 -0.47597765127E+02  0.59945193109E+03  0.60789095184E+03  0.00000000000E+00 0.  1.
         21    1    1    2  506  503 -0.41052402066E+02  0.12847992310E+02  0.25640110922E+02  0.50077798572E+02  0.00000000000E+00 0. -1.
<scales pt_clust_3="136.83033" pt_clust_4="37.17612" pt_clust_5="37.17612" pt_clust_6="43.01593"></scales>
<clustering>
<clus scale="   37.176">  4  5 -1 -1</clus>
<clus scale="   43.016">  2  6  1 -1</clus>
<clus scale="  136.830">  2  3  1 -1</clus>
<clus scale="  147.208">  1  3  2 -1</clus>
</clustering>
</event>
<event>
 6    0  0.6687079E+002  0.1603677E+03  0.7546771E-02  0.1188282E+00
         21   -1    0    0  503  501  0.00000000000E+00  0.00000000000E+00  0.43670051306E+02  0.43670051306E+02  0.00000000000E+00 0. -1.
         21   -1    0    0  504  502 -0.00000000000E+00 -0.00000000000E+00 -0.91272596247E+03  0.91272596247E+03  0.00000000000E+00 0. -1.
         21    1    1    2  503  505 -0.39917365086E+02 -0.82609642515E+02 -0.20426611083E+03  0.22392497205E+03  0.00000000000E+00 0. -1.
         21    1    1    2  504  506 -0.42372256731E+02  0.17699645763E+02 -0.27977787626E+03  0.28352133191E+03  0.00000000000E+00 0.  1.
         21    1    1    2  505  502 -0.48017747999E+02 -0.35017925865E+02 -0.15771071580E+03  0.16853672933E+03  0.00000000000E+00 0. -1.
         21    1    1    2  506  501  0.13030736982E+03  0.99927922617E+02 -0.22730120826E+03  0.28041298049E+03  0.00000000000E+00 0. -1.
<scales pt_clust_3="30.43641" pt_clust_4="45.92043" pt_clust_5="30.43641" pt_clust_6="155.84500"></scales>
<clustering>
<clus scale="   30.436">  3  5 -1 -1</clus>
<clus scale="   45.920">  2  4  1 -1</clus>
<clus scale="  155.845">  1  6  2 -1</clus>
<clus scale="  155.845">  1  3  2 -1</clus>
</clustering>
</event>
<event>
 6    0  0.6687079E+002  0.1188142E+03  0.7546771E-02  0.1245066E+00
         21   -1    0    0  506  501  0.00000000000E+00  0.00000000000E+00  0.37811438042E+02  0.37811438042E+02  0.00000000000E+00 0.  1.
         21   -1    0    0  503  502 -0.00000000000E+00 -0.00000000000E+00 -0.86436888185E+03  0.86436888185E+03  0.00000000000E+00 0.  1.
         21    1    1    2  503  504  0.76056494867E+02  0.54015810511E+02 -0.34283460974E+03  0.35529968735E+03  0.00000000000E+00 0.  1.
         21    1    1    2  504  501  0.47890327665E+02 -0.61843623504E+01 -0.14606447332E+03  0.15383939738E+03  0.00000000000E+00 0. -1.
         21    1    1    2  505  502 -0.83103181383E+02 -0.40111976380E+02 -0.33911826968E+03  0.35144887286E+03  0.00000000000E+00 0.  1.
         21    1    1    2  506  505 -0.40843641150E+02 -0.77194717810E+01  0.14599089332E+01  0.41592362292E+02  0.00000000000E+00 0.  1.
<scales pt_clust_3="36.32870" pt_clust_4="36.32870" pt_clust_5="107.55081" pt_clust_6="41.56673"></scales>
<clustering>
<clus scale="   36.329">  3  4 -1 -1</clus>
<clus scale="   41.567">  1  6  2 -1</clus>
<clus scale="  107.551">  2  5  1 -1</clus>
<clus scale="   41.567">  1  3  2 -1</clus>
</clustering>
</event>
<event>
 6    0  0.6687079E+002  0.1461713E+03  0.7546771E-02  0.1205258E+00
         21   -1    0    0  504  501  0.00000000000E+00  0.00000000000E+00  0.24626004549E+03  0.24626004549E+03  0.00000000000E+00 0. -1.
         21   -1    0    0  506  502 -0.00000000000E+00 -0.00000000000E+00 -0.62289298133E+03  0.62289298133E+03  0.00000000000E+00 0. -1.
         21    1    1    2  503  501  0.56420887593E+02 -0.34811402416E+02  0.13546862959E+03  0.15082075420E+03  0.00000000000E+00 0. -1.
         21    1    1    2  504  505  0.95996190000E+01  0.42544998090E+02  0.26051093418E+01  0.43692289275E+02  0.00000000000E+00 0. -1.
         21    1    1    2  505  502  0.55975990550E+02  0.13003302259E+03 -0.46202699977E+03  0.48322960071E+03  0.00000000000E+00 0. -1.
         21    1    1    2  506  503 -0.12199649714E+03 -0.13776661826E+03 -0.52679675000E+02  0.19141038264E+03  0.00000000000E+00 0. -1.
<scales pt_clust_3="63.02949" pt_clust_4="43.61456" pt_clust_5="146.17127" pt_clust_6="14000.00000"></scales>
<clustering>
<clus scale="   43.615">  1  4  2 -1</clus>
<clus scale="   63.029">  1  3  2 -1</clus>
<clus scale="  146.171">  2  5  1 -1</clus>
<clus scale="   43.615">  1  3  2 -1</clus>
</clustering>
</event>
<event>
 6    0  0.6687079E+002  0.7069132E+02  0.7546771E-02  0.1357758E+00
         21   -1    0    0  503  501  0.00000000000E+00  0.00000000000E+00  0.87583136383E+03  0.87583136383E+03  0.00000000000E+00 0. -1.
         21   -1    0    0  504  502 -0.00000000000E+00 -0.00000000000E+00 -0.23937496867E+02  0.23937496867E+02  0.00000000000E+00 0. -1.
         21    1    1    2  503  506  0.64837798730E+02  0.70374119131E+02  0.26642144590E+03  0.28308451675E+03  0.00000000000E+00 0. -1.
         21    1    1    2  504  505  0.56479998785E+01 -0.61442086759E+02  0.13396506296E+03  0.14749124727E+03  0.00000000000E+00 0. -1.
         21    1    1    2  505  501  0.13438642199E+01 -0.40162494203E+02  0.24609522093E+03  0.24935454613E+03  0.00000000000E+00 0. -1.
         21    1    1    2  506  502 -0.71829662829E+02  0.31230461831E+02  0.20541213718E+03  0.21983855055E+03  0.00000000000E+00 0. -1.
<scales pt_clust_3="70.58691" pt_clust_4="70.69132" pt_clust_5="40.18497" pt_clust_6="14000.00000"></scales>
<clustering>
<clus scale="   40.185">  1  5  2 -1</clus>
<clus scale="   70.691">  2  4  1 -1</clus>
<clus scale="   70.587">  1  3  2 -1</clus>
<clus scale="   40.185">  1  3  2 -1</clus>
</clustering>
</event>
<event>
 6    0  0.6687079E+002  0.1038657E+03  0.7546771E-02  0.1272371E+00
         21   -1    0    0  506  501  0.00000000000E+00  0.00000000000E+00  0.11423844737E+04  0.11423844737E+04  0.00000000000E+00 0. -1.
         21   -1    0    0  504  502 -0.00000000000E+00 -0.00000000000E+00 -0.35697178790E+03  0.35697178790E+03  0.00000000000E+00 0.  1.
         21    1    1    2  503  501 -0.21738408873E+02 -0.70844570004E+02  0.42278155811E+01  0.74225237918E+02  0.00000000000E+00 0. -1.
         21    1    1    2  504  505  0.12574029861E+02 -0.34314764559E+02 -0.31900997478E+02  0.48510647634E+02  0.00000000000E+00 0. -1.
         21    1    1    2  505  503  0.74981571932E+02  0.11309979657E+03 -0.26435138411E+03  0.29714551047E+03  0.00000000000E+00 0.  1.
         21    1    1    2  506  502 -0.65817192920E+02 -0.79404620091E+01  0.10774372518E+04  0.10794748656E+04  0.00000000000E+00 0. -1.
<scales pt_clust_3="14000.00000" pt_clust_4="36.54599" pt_clust_5="103.86569" pt_clust_6="66.26762"></scales>
<clustering>
<clus scale="   36.546">  2  4  1 -1</clus>
<clus scale="   66.268">  1  6  2 -1</clus>
<clus scale="  103.866">  2  5  1 -1</clus>
<clus scale="   66.268">  1  3  2 -1</clus>
</clustering>
</event>
<event>
 6    0  0.6687079E+002  0.9824244E+02  0.7546771E-02  0.1284036E+00
         21   -1    0    0  505  501  0.00000000000E+00  0.00000000000E+00  0.13954096646E+04  0.13954096646E+04  0.00000000000E+00 0.  1.
         21   -1    0    0  503  502 -0.00000000000E+00 -0.00000000000E+00 -0.27857825333E+02  0.27857825333E+02  0.00000000000E+00 0.  1.
         21    1    1    2  503  506 -0.37544572176E+02 -0.66024758825E+02  0.46564887142E+03  0.47180264426E+03  0.00000000000E+00 0.  1.
         21    1    1    2  504  502  0.76280788526E+02  0.36428286908E+02  0.60671935428E+02  0.10405221061E+03  0.00000000000E+00 0.  1.
         21    1    1    2  505  504  0.88817830272E+01  0.44695509251E+02  0.55391003744E+03  0.55578134567E+03  0.00000000000E+00 0.  1.
         21    1    1    2  506  501 -0.47617999378E+02 -0.15099037334E+02  0.28732099494E+03  0.29163128935E+03  0.00000000000E+00 0.  1.
<scales pt_clust_3="36.57566" pt_clust_4="87.27863" pt_clust_5="45.56945" pt_clust_6="36.57566"></scales>
<clustering>
<clus scale="   36.576">  3  6 -1 -1</clus>
<clus scale="   45.569">  1  5  2 -1</clus>
<clus scale="   87.279">  2  4  1 -1</clus>
<clus scale="   45.569">  1  3  2 -1</clus>
</clustering>
</event>
<event>
 6    0  0.6687079E+002  0.2417481E+03  0.7546771E-02  0.1118634E+00
         21   -1    0    0  503  501  0.00000000000E+00  0.00000000000E+00  0.58176902626E+02  0.58176902626E+02  0.00000000000E+00 0.  1.
         21   -1    0    0  504  502 -0.00000000000E+00 -0.00000000000E+00 -0.13693228265E+04  0.13693228265E+04  0.00000000000E+00 0.  1.
         21    1    1    2  503  506  0.21696314546E+01 -0.79255300224E+02 -0.23485396386E+03  0.24787596547E+03  0.00000000000E+00 0.  1.
         21    1    1    2  504  501 -0.52173227190E+02  0.20984409809E+03 -0.21469282897E+03  0.30471232654E+03  0.00000000000E+00 0.  1.
         21    1    1    2  505  502  0.55170589531E+02 -0.92765375063E+02 -0.51317873542E+03  0.52440597179E+03  0.00000000000E+00 0.  1.
         21    1    1    2  506  505 -0.51669937958E+01 -0.37823422801E+02 -0.34842039563E+03  0.35050546534E+03  0.00000000000E+00 0.  1.
<scales pt_clust_3="61.73570" pt_clust_4="216.23272" pt_clust_5="61.73570" pt_clust_6="35.50029"></scales>
<clustering>
<clus scale="   35.500">  5  6 -1 -1</clus>
<clus scale="   61.736">  3  5 -1 -1</clus>
<clus scale="  216.233">  1  4  2 -1</clus>
<clus scale="  216.233">  1  3  2 -1</clus>
</clustering>
</event>
<event>
 6    0  0.6687079E+002  0.1395603E+03  0.7546771E-02  0.1213922E+00
         21   -1    0    0  505  501  0.00000000000E+00  0.00000000000E+00  0.27352059233E+03  0.27352059233E+03  0.00000000000E+00 0.  1.
         21   -1    0    0  504  502 -0.00000000000E+00 -0.00000000000E+00 -0.38757601418E+03  0.38757601418E+03  0.00000000000E+00 0.  1.
         21    1    1    2  503  501 -0.13193281932E+02 -0.32856648513E+02 -0.37707887448E+01  0.35606753396E+02  0.00000000000E+00 0. -1.
         21    1    1    2  504  503 -0.35370174834E+02 -0.12815961182E+03 -0.14227675244E+03  0.19472701316E+03  0.00000000000E+00 0.  1.
         21    1    1    2  505  506  0.19582414064E+02  0.12152510651E+03  0.21148868737E+03  0.24470244653E+03  0.00000000000E+00 0.  1.
         21    1    1    2  506  502  0.28981042701E+02  0.39491153824E+02 -0.17949656803E+03  0.18606039343E+03  0.00000000000E+00 0.  1.
<scales pt_clust_3="30.26351" pt_clust_4="30.26351" pt_clust_5="126.64107" pt_clust_6="48.98420"></scales>
<clustering>
<clus scale="   30.264">  3  4 -1 -1</clus>
<clus scale="   48.984">  2  6  1 -1</clus>
<clus scale="  126.641">  1  5  2 -1</clus>
<clus scale="  126.641">  1  3  2 -1</clus>
</clustering>
</event>
<event>
 6    0  0.6687079E+002  0.1678793E+03  0.7546771E-02  0.1180078E+00
         21   -1    0    0  505  501  0.00000000000E+00  0.00000000000E+00  0.11944161561E+03  0.11944161561E+03  0.00000000000E+00 0.  1.
         21   -1    0    0  504  502 -0.00000000000E+00 -0.00000000000E+00 -0.23576644611E+03  0.23576644611E+03  0.00000000000E+00 0.  1.
         21    1    1    2  503  501 -0.41742963416E+02 -0.31720431481E+02 -0.15777685083E+02  0.54750306982E+02  0.00000000000E+00 0.  1.
         21    1    1    2  504  503 -0.11518266088E+03 -0.46522912306E+01 -0.46742666639E+02  0.12439278944E+03  0.00000000000E+00 0.  1.
         21    1    1    2  505  506  0.95624493710E+02  0.39764713328E+02 -0.18374149255E+02  0.10518025282E+03  0.00000000000E+00 0.  1.
         21    1    1    2  506  502  0.61301130587E+02 -0.33919906164E+01 -0.35430329527E+02  0.70884712470E+02  0.00000000000E+00 0.  1.
<scales pt_clust_3="31.88099" pt_clust_4="31.88099" pt_clust_5="167.64233" pt_clust_6="35.74541"></scales>
<clustering>
<clus scale="   31.881">  3  4 -1 -1</clus>
<clus scale="   35.745">  5  6 -1 -1</clus>
<clus scale="  167.642">  1  5  2 -1</clus>
<clus scale="  167.642">  1  3  2 -1</clus>
</clustering>
</event>
<event>
 6    0  0.6687079E+002  0.1897522E+03  0.7546771E-02  0.1158685E+00
         21   -1    0    0  503  501  0.00000000000E+00  0.00000000000E+00  0.30771181197E+03  0.30771181197E+03  0.00000000000E+00 0. -1.
         21   -1    0    0  505  502 -0.00000000000E+00 -0.00000000000E+00 -0.20243548853E+03  0.20243548853E+03  0.00000000000E+00 0. -1.
         21    1    1    2  503  502 -0.16439305304E+03  0.40988011939E+02  0.73775740825E+02  0.18479164739E+03  0.00000000000E+00 0. -1.
         21    1    1    2  504  506  0.86081758818E+02 -0.52590664708E+02 -0.71815783008E+01  0.10113071879E+03  0.00000000000E+00 0. -1.
         21    1    1    2  505  504  0.71928029223E+02 -0.76639624440E+02 -0.33207215223E+02  0.11022700470E+03  0.00000000000E+00 0. -1.
         21    1    1    2  506  501  0.63832649976E+01  0.88242277209E+02  0.71889376136E+02  0.11399792963E+03  0.00000000000E+00 0. -1.
<scales pt_clust_3="186.09841" pt_clust_4="36.30422" pt_clust_5="36.30422" pt_clust_6="88.47285"></scales>
<clustering>
<clus scale="   36.304">  4  5 -1 -1</clus>
<clus scale="   88.473">  1  6  2 -1</clus>
<clus scale="  186.098">  1  3  2 -1</clus>
<clus scale="   88.473">  1  3  2 -1</clus>
</clustering>
</event>
<event>
 6    0  0.6687079E+002  0.2308888E+03  0.7546771E-02  0.1126016E+00
         21   -1    0    0  506  501  0.00000000000E+00  0.00000000000E+00  0.79248519794E+03  0.79248519794E+03  0.00000000000E+00 0. -1.
         21   -1    0    0  504  502 -0.00000000000E+00 -0.00000000000E+00 -0.53313986896E+03  0.53313986896E+03  0.00000000000E+00 0. -1.
         21    1    1    2  503  501 -0.82634761425E+02 -0.20441605016E+03  0.73560728423E+03  0.76794042866E+03  0.00000000000E+00 0. -1.
         21    1    1    2  504  505  0.89644084807E+02  0.16929758072E+03 -0.32692033088E+03  0.37891243780E+03  0.00000000000E+00 0. -1.
         21    1    1    2  505  503  0.37508934006E+02  0.23843212942E+02 -0.38531156700E+02  0.58822350942E+02  0.00000000000E+00 0. -1.
         21    1    1    2  506  502 -0.44518257388E+02  0.11275256499E+02 -0.11081046767E+03  0.11994984950E+03  0.00000000000E+00 0. -1.
<scales pt_clust_3="220.73495" pt_clust_4="32.61803" pt_clust_5="32.61803" pt_clust_6="45.92392"></scales>
<clustering>
<clus scale="   32.618">  4  5 -1 -1</clus>
<clus scale="   45.924">  2  6  1 -1</clus>
<clus scale="  220.735">  1  3  2 -1</clus>
<clus scale="  220.735">  1  3  2 -1</clus>
</clustering>
</event>
<event>
 6    0  0.6687079E+002  0.1225361E+03  0.7546771E-02  0.1238971E+00
         21   -1    0    0  504  501  0.00000000000E+00  0.00000000000E+00  0.58168114661E+03  0.58168114661E+03  0.00000000000E+00 0.  1.
         21   -1    0    0  503  502 -0.00000000000E+00 -0.00000000000E+00 -0.68837451094E+03  0.68837451094E+03  0.00000000000E+00 0.  1.
         21    1    1    2  503  506  0.60249983841E+01 -0.12494546991E+03 -0.64411007557E+03  0.65614438999E+03  0.00000000000E+00 0.  1.
         21    1    1    2  504  502 -0.19302639051E+02  0.70147412896E+02  0.11037646280E+03  0.13219763595E+03  0.00000000000E+00 0. -1.
         21    1    1    2  505  501 -0.48184427650E+02 -0.40051257449E+01  0.21561769121E+01  0.48398648732E+02  0.00000000000E+00 0.  1.
         21    1    1    2  506  505  0.61462068317E+02  0.58803182763E+02  0.42488407153E+03  0.43331498288E+03  0.00000000000E+00 0.  1.
<scales pt_clust_3="122.53611" pt_clust_4="14000.00000" pt_clust_5="48.35060" pt_clust_6="60.78397"></scales>
<clustering>
<clus scale="   48.351">  1  5  2 -1</clus>
<clus scale="   60.784">  1  6  2 -1</clus>
<clus scale="  122.536">  2  3  1 -1</clus>
<clus scale="   48.351">  1  3  2 -1</clus>
</clustering>
</event>
<event>
 6    0  0.6687079E+002  0.8002784E+02  0.7546771E-02  0.1328972E+00
         21   -1    0    0  505  501  0.00000000000E+00  0.00000000000E+00  0.27233320582E+03  0.27233320582E+03  0.00000000000E+00 0. -1.
         21   -1    0    0  506  502 -0.00000000000E+00 -0.00000000000E+00 -0.46769876757E+03  0.46769876757E+03  0.00000000000E+00 0. -1.
         21    1    1    2  503  504 -0.10363907404E+03 -0.15502622181E+02  0.16991734750E+03  0.19963289795E+03  0.00000000000E+00 0. -1.
         21    1    1    2  504  501  0.14029488275E+02 -0.29049860607E+02  0.34025416815E+02  0.46887630906E+02  0.00000000000E+00 0. -1.
         21    1    1    2  505  502  0.10598083118E+02  0.35350927550E+02  0.35666196613E+02  0.51323338017E+02  0.00000000000E+00 0. -1.
         21    1    1    2  506  503  0.79011502650E+02  0.92015552386E+01 -0.43497452268E+03  0.44218810652E+03  0.00000000000E+00 0. -1.
<scales pt_clust_3="80.02784" pt_clust_4="32.26021" pt_clust_5="32.69778" pt_clust_6="14000.00000"></scales>
<clustering>
<clus scale="   32.260">  1  4  2 -1</clus>
<clus scale="   32.698">  1  5  2 -1</clus>
<clus scale="   80.028">  1  3  2 -1</clus>
<clus scale="   32.260">  1  3  2 -1</clus>
</clustering>
</event>
<event>
 6    0  0.6687079E+002  0.1108179E+03  0.7546771E-02  0.1259063E+00
         21   -1    0    0  503  501  0.00000000000E+00  0.00000000000E+00  0.86750237887E+03  0.86750237887E+03  0.00000000000E+00 0. -1.
         21   -1    0    0  504  502 -0.00000000000E+00 -0.00000000000E+00 -0.83254561501E+02  0.83254561501E+02  0.00000000000E+00 0. -1.
         21    1    1    2  503  502  0.12258866868E+02 -0.55303933677E+02  0.29850376536E+02  0.64030070095E+02  0.00000000000E+00 0.  1.
         21    1    1    2  504  505  0.30946830733E+02  0.23742439308E+02  0.43947596235E+02  0.58760539238E+02  0.00000000000E+00 0. -1.
         21    1    1    2  505  506  0.28988655883E+02 -0.57530411829E+02 -0.35295282739E+02  0.73456432249E+02  0.00000000000E+00 0. -1.
         21    1    1    2  506  501 -0.72194353483E+02  0.89091906198E+02  0.74574512733E+03  0.75450989879E+03  0.00000000000E+00 0. -1.
<scales pt_clust_3="53.52847" pt_clust_4="39.00525" pt_clust_5="110.81786" pt_clust_6="14000.00000"></scales>
<clustering>
<clus scale="   39.005">  2  4  1 -1</clus>
<clus scale="   53.528">  2  3  1 -1</clus>
<clus scale="  110.818">  2  5  1 -1</clus>
<clus scale="  110.818">  1  3  2 -1</clus>
</clustering>
</event>
<event>
 6    0  0.6687079E+002  0.2821977E+03  0.7546771E-02  0.1094495E+00
         21   -1    0    0  505  501  0.00000000000E+00  0.00000000000E+00  0.18403096766E+04  0.18403096766E+04  0.00000000000E+00 0. -1.
         21   -1    0    0  506  502 -0.00000000000E+00 -0.00000000000E+00 -0.14261866054E+03  0.14261866054E+03  0.00000000000E+00 0. -1.
         21    1    1    2  503  502  0.40040204452E+02  0.40532119449E+01  0.40375716688E+02  0.57007411779E+02  0.00000000000E+00 0. -1.
         21    1    1    2  504  503  0.22466171798E+03 -0.18976508723E+01  0.26777817615E+02  0.22625989508E+03  0.00000000000E+00 0. -1.
         21    1    1    2  505  504 -0.29899484747E+03 -0.40042693668E+02  0.63709653857E+03  0.70490661480E+03  0.00000000000E+00 0. -1.
         21    1    1    2  506  501  0.34292925037E+02  0.37887132595E+02  0.99344094321E+03  0.99475441551E+03  0.00000000000E+00 0. -1.
<scales pt_clust_3="31.83855" pt_clust_4="31.83855" pt_clust_5="271.98626" pt_clust_6="51.10225"></scales>
<clustering>
<clus scale="   31.839">  3  4 -1 -1</clus>
<clus scale="   51.102">  1  6  2 -1</clus>
<clus scale="  271.986">  1  5  2 -1</clus>
<clus scale="   51.102">  1  3  2 -1</clus>
</clustering>
</event>
<event>
 6    0  0.6687079E+002  0.1275944E+03  0.7546771E-02  0.1231069E+00
         21   -1    0    0  505  501  0.00000000000E+00  0.00000000000E+00  0.48104914766E+03  0.48104914766E+03  0.00000000000E+00 0.  1.
         21   -1    0    0  504  502 -0.00000000000E+00 -0.00000000000E+00 -0.48840026899E+02  0.48840026899E+02  0.00000000000E+00 0.  1.
         21    1    1    2  503  506 -0.18096648729E+02 -0.36449641556E+02  0.73280290633E+02  0.83821632411E+02  0.00000000000E+00 0.  1.
         21    1    1    2  504  501  0.55965825694E+02  0.12184378348E+03  0.21168003150E+03  0.25057237867E+03  0.00000000000E+00 0.  1.
         21    1    1    2  505  503  0.24075014303E+02 -0.41162069621E+02  0.83734771047E+02  0.96360957713E+02  0.00000000000E+00 0.  1.
         21    1    1    2  506  502 -0.61944191268E+02 -0.44232072305E+02  0.63514027585E+02  0.99134205763E+02  0.00000000000E+00 0.  1.
<scales pt_clust_3="31.39949" pt_clust_4="120.15098" pt_clust_5="47.68566" pt_clust_6="31.39949"></scales>
<clustering>
<clus scale="   31.399">  3  6 -1 -1</clus>
<clus scale="   47.686">  1  5  2 -1</clus>
<clus scale="  120.151">  1  4  2 -1</clus>
<clus scale="   47.686">  1  3  2 -1</clus>
</clustering>
</event>
<event>
 6    0  0.6687079E+002  0.8284123E+02  0.7546771E-02  0.1321176E+00
         21   -1    0    0  502  501  0.00000000000E+00  0.00000000000E+00  0.19865971179E+04  0.19865971179E+04  0.00000000000E+00 0.  1.
         21   -1    0    0  505  502 -0.00000000000E+00 -0.00000000000E+00 -0.28869270625E+03  0.28869270625E+03  0.00000000000E+00 0.  1.
         21    1    1    2  503  506 -0.11087092605E+03 -0.33755120456E+02 -0.18205856339E+03  0.21581726276E+03  0.00000000000E+00 0.  1.
         21    1    1    2  504  501  0.15639344908E+02 -0.28862791966E+02  0.19205137474E+04  0.19207942899E+04  0.00000000000E+00 0.  1.
         21    1    1    2  505  503  0.53176829854E+02  0.24000749331E+02 -0.54571491767E+02  0.79886537761E+02  0.00000000000E+00 0.  1.
         21    1    1    2  506  504  0.42054751291E+02  0.38617163091E+02  0.14020719417E+02  0.58791733809E+02  0.00000000000E+00 0.  1.
<scales pt_clust_3="82.84123" pt_clust_4="32.82758" pt_clust_5="14000.00000" pt_clust_6="55.53259"></scales>
<clustering>
<clus scale="   32.828">  1  4  2 -1</clus>
<clus scale="   55.533">  1  6  2 -1</clus>
<clus scale="   82.841">  1  3  2 -1</clus>
<clus scale="   32.828">  1  3  2 -1</clus>
</clustering>
</event>
<event>
 6    0  0.6687079E+002  0.1037684E+03  0.7546771E-02  0.1272565E+00
         21   -1    0    0  506  501  0.00000000000E+00  0.00000000000E+00  0.86247868700E+03  0.86247868700E+03  0.00000000000E+00 0.  1.
         21   -1    0    0  505  502 -0.00000000000E+00 -0.00000000000E+00 -0.51399994324E+02  0.51399994324E+02  0.00000000000E+00 0. -1.
         21    1    1    2  503  502 -0.12766479954E+02 -0.10720502552E+03  0.15543174717E+03  0.18924832505E+03  0.00000000000E+00 0.  1.
         21    1    1    2  504  501  0.64864086453E+02  0.91816508384E+02  0.14617792645E+03  0.18440609292E+03  0.00000000000E+00 0. -1.
         21    1    1    2  505  504 -0.28714600469E+02  0.51347277252E+02  0.45750870721E+02  0.74526594803E+02  0.00000000000E+00 0. -1.
         21    1    1    2  506  503 -0.23383006030E+02 -0.35958760117E+02  0.46371814833E+03  0.46569766855E+03  0.00000000000E+00 0.  1.
<scales pt_clust_3="103.76842" pt_clust_4="14000.00000" pt_clust_5="56.10566" pt_clust_6="42.89286"></scales>
<clustering>
<clus scale="   42.893">  1  6  2 -1</clus>
<clus scale="   56.106">  2  5  1 -1</clus>
<clus scale="  103.768">  2  3  1 -1</clus>
<clus scale="   42.893">  1  3  2 -1</clus>
</clustering>
</event>
<event>
 6    0  0.6687079E+002  0.1220049E+03  0.7546771E-02  0.1239826E+00
         21   -1    0    0  506  501  0.00000000000E+00  0.00000000000E+00  0.85719377712E+03  0.85719377712E+03  0.00000000000E+00 0.  1.
         21   -1    0    0  505  502 -0.00000000000E+00 -0.00000000000E+00 -0.81477176433E+02  0.81477176433E+02  0.00000000000E+00 0. -1.
         21    1    1    2  503  504 -0.15362594179E+02 -0.11096323980E+03  0.28484524068E+03  0.30608113472E+03  0.00000000000E+00 0.  1.
         21    1    1    2  504  501 -0.34951755686E+02  0.14190566963E+02  0.31207873929E+03  0.31435034107E+03  0.00000000000E+00 0.  1.
         21    1    1    2  505  503  0.40178502389E+02 -0.71544978423E+02  0.15492585934E+02  0.83504587962E+02  0.00000000000E+00 0. -1.
         21    1    1    2  506  502  0.10135847476E+02  0.16831765126E+03  0.16330003478E+03  0.23473488980E+03  0.00000000000E+00 0.  1.
<scales pt_clust_3="122.00488" pt_clust_4="37.72264" pt_clust_5="79.40055" pt_clust_6="14000.00000"></scales>
<clustering>
<clus scale="   37.723">  1  4  2 -1</clus>
<clus scale="   79.401">  2  5  1 -1</clus>
<clus scale="  122.005">  1  3  2 -1</clus>
<clus scale="   37.723">  1  3  2 -1</clus>
</clustering>
</event>
<event>
 6    0  0.6687079E+002  0.1065727E+03  0.7546771E-02  0.1267052E+00
         21   -1    0    0  503  501  0.00000000000E+00  0.00000000000E+00  0.10815151583E+04  0.10815151583E+04  0.00000000000E+00 0.  1.
         21   -1    0    0  505  502 -0.00000000000E+00 -0.00000000000E+00 -0.32144225348E+03  0.32144225348E+03  0.00000000000E+00 0.  1.
         21    1    1    2  503  504 -0.28406508252E+02 -0.12541681728E+02  0.17805612119E+03  0.18074348062E+03  0.00000000000E+00 0.  1.
         21    1    1    2  504  502  0.46874349981E+01 -0.10735896796E+03 -0.30515263778E+03  0.32352133221E+03  0.00000000000E+00 0.  1.
         21    1    1    2  505  506 -0.25661984650E+02  0.63190132106E+02  0.43429224531E+03  0.43961492763E+03  0.00000000000E+00 0.  1.
         21    1    1    2  506  501  0.49381057904E+02  0.56710517578E+02  0.45287717610E+03  0.45907767134E+03  0.00000000000E+00 0.  1.
<scales pt_clust_3="31.05195" pt_clust_4="14000.00000" pt_clust_5="106.57272" pt_clust_6="61.35037"></scales>
<clustering>
<clus scale="   31.052">  1  3  2 -1</clus>
<clus scale="   61.350">  1  6  2 -1</clus>
<clus scale="  106.573">  1  5  2 -1</clus>
<clus scale="   31.052">  1  3  2 -1</clus>
</clustering>
</event>
<event>
 6    0  0.6687079E+002  0.1321899E+03  0.7546771E-02  0.1224242E+00
         21   -1    0    0  506  501  0.00000000000E+00  0.00000000000E+00  0.14385700584E+04  0.14385700584E+04  0.00000000000E+00 0.  1.
         21   -1    0    0  504  502 -0.00000000000E+00 -0.00000000000E+00 -0.11379531422E+03  0.11379531422E+03  0.00000000000E+00 0.  1.
         21    1    1    2  503  501 -0.22927787942E+02  0.51092519917E+02  0.42471693716E+03  0.42839305055E+03  0.00000000000E+00 0.  1.
         21    1    1    2  504  503 -0.87641658592E+02  0.61794872262E+02  0.11361660562E+03  0.15623187777E+03  0.00000000000E+00 0. -1.
         21    1    1    2  505  502 -0.50860230870E+02 -0.56124969911E+02 -0.64672222588E+02  0.99595540594E+02  0.00000000000E+00 0.  1.
         21    1    1    2  506  505  0.16142967740E+03 -0.56762422269E+02  0.85111342399E+03  0.86814490370E+03  0.00000000000E+00 0.  1.
<scales pt_clust_3="56.00115" pt_clust_4="14000.00000" pt_clust_5="75.35910" pt_clust_6="132.18989"></scales>
<clustering>
<clus scale="   56.001">  1  3  2 -1</clus>
<clus scale="   75.359">  2  5  1 -1</clus>
<clus scale="  132.190">  1  6  2 -1</clus>
<clus scale="   56.001">  1  3  2 -1</clus>
</clustering>
</event>
<event>
 6    0  0.6687079E+002  0.6836095E+02  0.7546771E-02  0.1365757E+00
         21   -1    0    0  504  501  0.00000000000E+00  0.00000000000E+00  0.40778959500E+03  0.40778959500E+03  0.00000000000E+00 0. -1.
         21   -1    0    0  505  502 -0.00000000000E+00 -0.00000000000E+00 -0.80210763035E+03  0.80210763035E+03  0.00000000000E+00 0. -1.
         21    1    1    2  503  502 -0.29530896057E+02 -0.28394092599E+02 -0.55995872533E+03  0.56145531647E+03  0.00000000000E+00 0. -1.
         21    1    1    2  504  506  0.42199585809E+02  0.53683188617E+02  0.36963416378E+03  0.37588842070E+03  0.00000000000E+00 0. -1.
         21    1    1    2  505  501  0.65658906671E+02  0.59452069771E+01 -0.18005530980E+02  0.68342056284E+02  0.00000000000E+00 0. -1.
         21    1    1    2  506  503 -0.78327596423E+02 -0.31234302995E+02 -0.18598794282E+03  0.20421143190E+03  0.00000000000E+00 0. -1.
<scales pt_clust_3="40.96704" pt_clust_4="68.36095" pt_clust_5="60.38362" pt_clust_6="14000.00000"></scales>
<clustering>
<clus scale="   40.967">  2  3  1 -1</clus>
<clus scale="   60.384">  2  5  1 -1</clus>
<clus scale="   68.361">  1  4  2 -1</clus>
<clus scale="   68.361">  1  3  2 -1</clus>
</clustering>
</event>
<event>
 6    0  0.6687079E+002  0.1801328E+03  0.7546771E-02  0.1167675E+00
         21   -1    0    0  505  501  0.00000000000E+00  0.00000000000E+00  0.20526567490E+04  0.20526567490E+04  0.00000000000E+00 0. -1.
         21   -1    0    0  503  502 -0.00000000000E+00 -0.00000000000E+00 -0.25972468278E+03  0.25972468278E+03  0.00000000000E+00 0.  1.
         21    1    1    2  503  504  0.32115793964E+02  0.20919566094E+02 -0.20122845831E+03  0.20484614935E+03  0.00000000000E+00 0.  1.
         21    1    1    2  504  501 -0.10232855213E+03 -0.40959799477E+02  0.16320743684E+04  0.16357920350E+04  0.00000000000E+00 0. -1.
         21    1    1    2  505  506 -0.72785965647E+02 -0.42206087408E+02  0.28618185778E+03  0.29829382550E+03  0.00000000000E+00 0. -1.
         21    1    1    2  506  502  0.14299872382E+03  0.62246320791E+02  0.75904298345E+02  0.17344942194E+03  0.00000000000E+00 0. -1.
<scales pt_clust_3="38.32822" pt_clust_4="180.13282" pt_clust_5="80.04882" pt_clust_6="14000.00000"></scales>
<clustering>
<clus scale="   38.328">  2  3  1 -1</clus>
<clus scale="   80.049">  1  5  2 -1</clus>
<clus scale="  180.133">  1  4  2 -1</clus>
<clus scale="   80.049">  1  3  2 -1</clus>
</clustering>
</event>
<event>
 6    0  0.6687079E+002  0.7326844E+02  0.7546771E-02  0.1349319E+00
         21   -1    0    0  504  501  0.00000000000E+00  0.00000000000E+00  0.27307437518E+03  0.27307437518E+03  0.00000000000E+00 0.  1.
         21   -1    0    0  503  502 -0.00000000000E+00 -0.00000000000E+00 -0.47099788033E+03  0.47099788033E+03  0.00000000000E+00 0. -1.
         21    1    1    2  503  506  0.71406044991E+02  0.25909274181E+01  0.90893895442E+02  0.11561676520E+03  0.00000000000E+00 0.  1.
         21    1    1    2  504  505 -0.12722887108E+02  0.47666307365E+02  0.35395759195E+02  0.60719094881E+02  0.00000000000E+00 0.  1.
         21    1    1    2  505  502 -0.65034133680E+02  0.34476568939E+02 -0.42761292491E+03  0.43390193120E+03  0.00000000000E+00 0. -1.
         21    1    1    2  506  501  0.63509757966E+01 -0.84733803722E+02  0.10339976513E+03  0.13383446423E+03  0.00000000000E+00 0.  1.
<scales pt_clust_3="14000.00000" pt_clust_4="49.33507" pt_clust_5="73.26844" pt_clust_6="59.60769"></scales>
<clustering>
<clus scale="   49.335">  1  4  2 -1</clus>
<clus scale="   59.608">  1  6  2 -1</clus>
<clus scale="   73.268">  2  5  1 -1</clus>
<clus scale="   49.335">  1  3  2 -1</clus>
</clustering>
</event>
<event>
 6    0  0.6687079E+002  0.1165244E+03  0.7546771E-02  0.1248943E+00
         21   -1    0    0  506  501  0.00000000000E+00  0.00000000000E+00  0.47418035752E+03  0.47418035752E+03  0.00000000000E+00 0. -1.
         21   -1    0    0  505  502 -0.00000000000E+00 -0.00000000000E+00 -0.19279363664E+03  0.19279363664E+03  0.00000000000E+00 0. -1.
         21    1    1    2  503  502 -0.28540845350E+01 -0.37517396764E+02 -0.10108240360E+03  0.10785802324E+03  0.00000000000E+00 0. -1.
         21    1    1    2  504  503  0.10127088261E+02  0.75123862425E+02 -0.22232242700E+02  0.78996362180E+02  0.00000000000E+00 0. -1.
         21    1    1    2  505  501  0.14747834527E+02 -0.12639345482E+03  0.35256923568E+03  0.37483045500E+03  0.00000000000E+00 0. -1.
         21    1    1    2  506  504 -0.22020838252E+02  0.88786989160E+02  0.52132131504E+02  0.10528915375E+03  0.00000000000E+00 0. -1.
<scales pt_clust_3="37.62580" pt_clust_4="54.29244" pt_clust_5="14000.00000" pt_clust_6="116.52441"></scales>
<clustering>
<clus scale="   37.626">  2  3  1 -1</clus>
<clus scale="   54.292">  2  4  1 -1</clus>
<clus scale="  116.524">  2  6  1 -1</clus>
<clus scale="  116.524">  1  3  2 -1</clus>
</clustering>
</event>
<event>
 6    0  0.6687079E+002  0.1574963E+03  0.7546771E-02  0.1191553E+00
         21   -1    0    0  504  501  0.00000000000E+00  0.00000000000E+00  0.13577755802E+04  0.13577755802E+04  0.00000000000E+00 0. -1.
         21   -1    0    0  503  502 -0.00000000000E+00 -0.00000000000E+00 -0.32064389637E+02  0.32064389637E+02  0.00000000000E+00 0. -1.
         21    1    1    2  503  501  0.20197132410E+01  0.39850635782E+02  0.18022651996E+03  0.18459076605E+03  0.00000000000E+00 0. -1.
         21    1    1    2  504  505  0.14128904567E+03 -0.37874437923E+01  0.90892114730E+03  0.91984487343E+03  0.00000000000E+00 0. -1.
         21    1    1    2  505  506 -0.18220901438E+02 -0.29141479532E+02  0.49175663830E+02  0.59995608103E+02  0.00000000000E+00 0. -1.
         21    1    1    2  506  502 -0.12508785748E+03 -0.69217124576E+01  0.18738785945E+03  0.22540872223E+03  0.00000000000E+00 0. -1.
<scales pt_clust_3="39.90178" pt_clust_4="145.42935" pt_clust_5="31.66722" pt_clust_6="31.66722"></scales>
<clustering>
<clus scale="   31.667">  5  6 -1 -1</clus>
<clus scale="   39.902">  1  3  2 -1</clus>
<clus scale="  145.429">  1  4  2 -1</clus>
<clus scale="   39.902">  1  3  2 -1</clus>
</clustering>
</event>
<event>
 6    0  0.6687079E+002  0.1749347E+03  0.7546771E-02  0.1172797E+00
         21   -1    0    0  502  501  0.00000000000E+00  0.00000000000E+00  0.20315983315E+04  0.20315983315E+04  0.00000000000E+00 0.  1.
         21   -1    0    0  506  502 -0.00000000000E+00 -0.00000000000E+00 -0.75439846915E+02  0.75439846915E+02  0.00000000000E+00 0.  1.
         21    1    1    2  503  504  0.19910930272E+02  0.38776138088E+02  0.21022759270E+02  0.48394115723E+02  0.00000000000E+00 0.  1.
         21    1    1    2  504  505 -0.81243917480E+02  0.11134977317E+03  0.22567338349E+03  0.26443869257E+03  0.00000000000E+00 0.  1.
         21    1    1    2  505  501  0.49137670142E+02 -0.17982504350E+03  0.17399634628E+04  0.17499212579E+04  0.00000000000E+00 0.  1.
         21    1    1    2  506  503  0.12195317066E+02  0.29699132247E+02 -0.30501120988E+02  0.44284112231E+02  0.00000000000E+00 0.  1.
<scales pt_clust_3="55.10504" pt_clust_4="174.93468" pt_clust_5="14000.00000" pt_clust_6="32.10552"></scales>
<clustering>
<clus scale="   32.106">  2  6  1 -1</clus>
<clus scale="   55.105">  2  3  1 -1</clus>
<clus scale="  174.935">  2  4  1 -1</clus>
<clus scale="  174.935">  1  3  2 -1</clus>
</clustering>
</event>
<event>
 6    0  0.6687079E+002  0.1284544E+03  0.7546771E-02  0.1229767E+00
         21   -1    0    0  505  501  0.00000000000E+00  0.00000000000E+00  0.45683960706E+03  0.45683960706E+03  0.00000000000E+00 0.  1.
         21   -1    0    0  504  502 -0.00000000000E+00 -0.00000000000E+00 -0.11804667449E+03  0.11804667449E+03  0.00000000000E+00 0.  1.
         21    1    1    2  503  501 -0.21872949880E+02  0.96913325662E+02  0.94918867153E+02  0.13740527635E+03  0.00000000000E+00 0.  1.
         21    1    1    2  504  506  0.54343779461E+01 -0.68747635159E+02 -0.19222115655E+02  0.71590917957E+02  0.00000000000E+00 0.  1.
         21    1    1    2  505  502 -0.24153917795E+02  0.27941330738E+02  0.28944763760E+03  0.29179455893E+03  0.00000000000E+00 0.  1.
         21    1    1    2  506  503  0.40592489729E+02 -0.56107021241E+02 -0.26351456523E+02  0.74095528312E+02  0.00000000000E+00 0.  1.
<scales pt_clust_3="122.71962" pt_clust_4="37.83543" pt_clust_5="36.93413" pt_clust_6="37.83543"></scales>
<clustering>
<clus scale="   36.934">  1  5  2 -1</clus>
<clus scale="   37.835">  4  6 -1 -1</clus>
<clus scale="  122.720">  1  3  2 -1</clus>
<clus scale="   36.934">  1  3  2 -1</clus>
</clustering>
</event>
<event>
 6    0  0.6687079E+002  0.1208172E+03  0.7546771E-02  0.1241755E+00
         21   -1    0    0  505  501  0.00000000000E+00  0.00000000000E+00  0.23267105268E+03  0.23267105268E+03  0.00000000000E+00 0.  1.
         21   -1    0    0  503  502 -0.00000000000E+00 -0.00000000000E+00 -0.59981039278E+03  0.59981039278E+03  0.00000000000E+00 0.  1.
         21    1    1    2  503  506 -0.60093940369E+02  0.25752671578E+02 -0.32355129500E+03  0.33009077882E+03  0.00000000000E+00 0.  1.
         21    1    1    2  504  502  0.12549429739E+03 -0.12355747016E+03 -0.20766746789E+03  0.27228853140E+03  0.00000000000E+00 0.  1.
         21    1    1    2  505  504  0.78987789326E+01  0.41954761593E+02  0.90140815131E+00  0.42701349693E+02  0.00000000000E+00 0.  1.
         21    1    1    2  506  501 -0.73299135953E+02  0.55850036993E+02  0.16317801465E+03  0.18740078556E+03  0.00000000000E+00 0.  1.
<scales pt_clust_3="65.52638" pt_clust_4="14000.00000" pt_clust_5="42.69183" pt_clust_6="120.81722"></scales>
<clustering>
<clus scale="   42.692">  1  5  2 -1</clus>
<clus scale="   65.526">  2  3  1 -1</clus>
<clus scale="  120.817">  1  6  2 -1</clus>
<clus scale="   42.692">  1  3  2 -1</clus>
</clustering>
</event>
<event>
 6    0  0.6687079E+002  0.1036142E+03  0.7546771E-02  0.1272874E+00
         21   -1    0    0  504  501  0.00000000000E+00  0.00000000000E+00  0.16732128504E+04  0.16732128504E+04  0.00000000000E+00 0.  1.
         21   -1    0    0  506  502 -0.00000000000E+00 -0.00000000000E+00 -0.11818473254E+03  0.11818473254E+03  0.00000000000E+00 0.  1.
         21    1    1    2  503  502  0.83467611436E+02  0.66353339283E+02  0.23516929551E+01  0.10665429317E+03  0.00000000000E+00 0.  1.
         21    1    1    2  504  503 -0.92876212282E+02  0.26846008836E+02  0.48419947298E+02  0.10812580772E+03  0.00000000000E+00 0.  1.
         21    1    1    2  505  501  0.91591675857E+01  0.36963519526E+02  0.14222828053E+04  0.14227925254E+04  0.00000000000E+00 0.  1.
         21    1    1    2  506  505  0.24943326002E+00 -0.13016286764E+03  0.81973672314E+02  0.15382495663E+03  0.00000000000E+00 0.  1.
<scales pt_clust_3="103.61423" pt_clust_4="97.85987" pt_clust_5="38.08139" pt_clust_6="14000.00000"></scales>
<clustering>
<clus scale="   38.081">  1  5  2 -1</clus>
<clus scale="   97.860">  1  4  2 -1</clus>
<clus scale="  103.614">  2  3  1 -1</clus>
<clus scale="   38.081">  1  3  2 -1</clus>
</clustering>
</event>
<event>
 6    0  0.6687079E+002  0.7071246E+02  0.7546771E-02  0.1357687E+00
         21   -1    0    0  504  501  0.00000000000E+00  0.00000000000E+00  0.45973194001E+03  0.45973194001E+03  0.00000000000E+00 0. -1.
         21   -1    0    0  505  502 -0.00000000000E+00 -0.00000000000E+00 -0.28071728986E+03  0.28071728986E+03  0.00000000000E+00 0. -1.
         21    1    1    2  503  502  0.39543223372E+02 -0.14140015954E+02 -0.19434142625E+03  0.19882705179E+03  0.00000000000E+00 0. -1.
         21    1    1    2  504  506 -0.69937779544E+02  0.38634740111E+02  0.24185989708E+02  0.83479927223E+02  0.00000000000E+00 0.  1.
         21    1    1    2  505  501  0.68572003862E+02  0.23033600307E+02  0.38207749673E+03  0.38886486080E+03  0.00000000000E+00 0. -1.
         21    1    1    2  506  503 -0.38177447690E+02 -0.47528324464E+02 -0.32907410030E+02  0.69277390059E+02  0.00000000000E+00 0.  1.
<scales pt_clust_3="41.99532" pt_clust_4="14000.00000" pt_clust_5="70.71246" pt_clust_6="57.87515"></scales>
<clustering>
<clus scale="   41.995">  2  3  1 -1</clus>
<clus scale="   57.875">  2  6  1 -1</clus>
<clus scale="   70.712">  1  5  2 -1</clus>
<clus scale="   70.712">  1  3  2 -1</clus>
</clustering>
</event>
<event>
 6    0  0.6687079E+002  0.1371073E+03  0.7546771E-02  0.1217275E+00
         21   -1    0    0  503  501  0.00000000000E+00  0.00000000000E+00  0.10079075715E+04  0.10079075715E+04  0.00000000000E+00 0. -1.
         21   -1    0    0  504  502 -0.00000000000E+00 -0.00000000000E+00 -0.37687866672E+03  0.37687866672E+03  0.00000000000E+00 0.  1.
         21    1    1    2  503  506 -0.74668585290E+02 -0.12568460433E+02  0.36189490765E+03  0.36973137277E+03  0.00000000000E+00 0. -1.
         21    1    1    2  504  505  0.78951485211E+02  0.79886636054E+02 -0.34965609766E+03  0.36725277163E+03  0.00000000000E+00 0.  1.
         21    1    1    2  505  501 -0.13956713748E+02 -0.96981146786E+02  0.60634616519E+03  0.61421153093E+03  0.00000000000E+00 0. -1.
         21    1    1    2  506  502  0.96738138268E+01  0.29662971165E+02  0.12443929645E+02  0.33590562920E+02  0.00000000000E+00 0. -1.
<scales pt_clust_3="75.56485" pt_clust_4="14000.00000" pt_clust_5="137.10729" pt_clust_6="31.20055"></scales>
<clustering>
<clus scale="   31.201">  2  6  1 -1</clus>
<clus scale="   75.565">  1  3  2 -1</clus>
<clus scale="  137.107">  1  5  2 -1</clus>
<clus scale="   75.565">  1  3  2 -1</clus>
</clustering>
</event>
<event>
 6    0  0.6687079E+002  0.1125775E+03  0.7546771E-02  0.1255870E+00
         21   -1    0    0  502  501  0.00000000000E+00  0.00000000000E+00  0.15815368692E+03  0.15815368692E+03  0.00000000000E+00 0.  1.
         21   -1    0    0  505  502 -0.00000000000E+00 -0.00000000000E+00 -0.40456395420E+03  0.40456395420E+03  0.00000000000E+00 0. -1.
         21    1    1    2  503  506  0.88801105478E+02 -0.88989051011E+02 -0.54761148942E+02  0.13712574874E+03  0.00000000000E+00 0. -1.
         21    1    1    2  504  503 -0.95583843822E+02  0.50281224348E+02 -0.16684626321E+03  0.19875147363E+03  0.00000000000E+00 0. -1.
         21    1    1    2  505  504  0.40624917724E+02  0.47946632657E+02 -0.11445308167E+03  0.13057094404E+03  0.00000000000E+00 0. -1.
         21    1    1    2  506  501 -0.33842179380E+02 -0.92388059938E+01  0.89650226549E+02  0.96269474714E+02  0.00000000000E+00 0.  1.
<scales pt_clust_3="112.57747" pt_clust_4="14000.00000" pt_clust_5="59.31823" pt_clust_6="35.08060"></scales>
<clustering>
<clus scale="   35.081">  1  6  2 -1</clus>
<clus scale="   59.318">  2  5  1 -1</clus>
<clus scale="  112.577">  1  3  2 -1</clus>
<clus scale="   35.081">  1  3  2 -1</clus>
</clustering>
</event>
<event>
 6    0  0.6687079E+002  0.6498246E+02  0.7546771E-02  0.1378037E+00
         21   -1    0    0  503  501  0.00000000000E+00  0.00000000000E+00  0.22107146337E+04  0.22107146337E+04  0.00000000000E+00 0. -1.
         21   -1    0    0  505  502 -0.00000000000E+00 -0.00000000000E+00 -0.11146157858E+04  0.11146157858E+04  0.00000000000E+00 0. -1.
         21    1    1    2  503  502 -0.61148347651E+02 -0.25644937096E+01 -0.55655287160E+03  0.55990784593E+03  0.00000000000E+00 0. -1.
         21    1    1    2  504  501 -0.61464042581E+02 -0.21018382612E+02  0.21863919009E+04  0.21873566571E+04  0.00000000000E+00 0. -1.
         21    1    1    2  505  506  0.22843340748E+02  0.32521258864E+02 -0.51572632479E+01  0.40075526932E+02  0.00000000000E+00 0.  1.
         21    1    1    2  506  504  0.99769049484E+02 -0.89383825431E+01 -0.52858291810E+03  0.53799038953E+03  0.00000000000E+00 0. -1.
<scales pt_clust_3="51.43012" pt_clust_4="14000.00000" pt_clust_5="39.74230" pt_clust_6="64.98246"></scales>
<clustering>
<clus scale="   39.742">  2  5  1 -1</clus>
<clus scale="   51.430">  2  3  1 -1</clus>
<clus scale="   64.982">  2  6  1 -1</clus>
<clus scale="   64.982">  1  3  2 -1</clus>
</clustering>
</event>
<event>
 6    0  0.6687079E+002  0.1441770E+03  0.7546771E-02  0.1207817E+00
         21   -1    0    0  505  501  0.00000000000E+00  0.00000000000E+00  0.54896015599E+03  0.54896015599E+03  0.00000000000E+00 0.  1.
         21   -1    0    0  506  502 -0.00000000000E+00 -0.00000000000E+00 -0.55508445988E+03  0.55508445988E+03  0.00000000000E+00 0. -1.
         21    1    1    2  503  502 -0.47647033518E+02 -0.58114558528E+02 -0.41297829412E+03  0.41976018527E+03  0.00000000000E+00 0. -1.
         21    1    1    2  504  501 -0.92666101373E+02  0.16937015373E+03  0.34696468932E+03  0.39706139444E+03  0.00000000000E+00 0. -1.
         21    1    1    2  505  503  0.28848787456E+02 -0.41199524607E+02  0.12905429217E+03  0.13850871342E+03  0.00000000000E+00 0.  1.
         21    1    1    2  506  504  0.11146434744E+03 -0.70056070590E+02 -0.69164991262E+02  0.14871432275E+03  0.00000000000E+00 0. -1.
<scales pt_clust_3="75.26199" pt_clust_4="144.17696" pt_clust_5="50.29566" pt_clust_6="14000.00000"></scales>
<clustering>
<clus scale="   50.296">  1  5  2 -1</clus>
<clus scale="   75.262">  2  3  1 -1</clus>
<clus scale="  144.177">  1  4  2 -1</clus>
<clus scale="   50.296">  1  3  2 -1</clus>
</clustering>
</event>
<event>
 6    0  0.6687079E+002  0.9359054E+02  0.7546771E-02  0.1294382E+00
         21   -1    0    0  503  501  0.00000000000E+00  0.00000000000E+00  0.38338515836E+03  0.38338515836E+03  0.00000000000E+00 0.  1.
         21   -1    0    0  504  502 -0.00000000000E+00 -0.00000000000E+00 -0.76669485101E+02  0.76669485101E+02  0.00000000000E+00 0.  1.
         21    1    1    2  503  505  0.14236703062E+02  0.30822596539E+02  0.10774204020E+03  0.11296487684E+03  0.00000000000E+00 0.  1.
         21    1    1    2  504  506 -0.24443876761E+02  0.52389000495E+02 -0.23892176183E+02  0.62553549594E+02  0.00000000000E+00 0.  1.
         21    1    1    2  505  502  0.16873029009E+01  0.44243477452E+02  0.31047639706E+02  0.54076688319E+02  0.00000000000E+00 0. -1.
         21    1    1    2  506  501  0.85198707983E+01 -0.12745507449E+03  0.19181816953E+03  0.23045952871E+03  0.00000000000E+00 0.  1.
<scales pt_clust_3="33.95167" pt_clust_4="93.59054" pt_clust_5="49.20366" pt_clust_6="14000.00000"></scales>
<clustering>
<clus scale="   33.952">  1  3  2 -1</clus>
<clus scale="   49.204">  2  5  1 -1</clus>
<clus scale="   93.591">  2  4  1 -1</clus>
<clus scale="   33.952">  1  3  2 -1</clus>
</clustering>
</event>
<event>
 6    0  0.6687079E+002  0.1076152E+03  0.7546771E-02  0.1265051E+00
         21   -1    0    0  504  501  0.00000000000E+00  0.00000000000E+00  0.14961631339E+03  0.14961631339E+03  0.00000000000E+00 0.  1.
         21   -1    0    0  503  502 -0.00000000000E+00 -0.00000000000E+00 -0.49579309434E+03  0.49579309434E+03  0.00000000000E+00 0. -1.
         21    1    1    2  503  506 -0.82104483902E+02  0.47964075600E+02 -0.38981744529E+03  0.40124722987E+03  0.00000000000E+00 0. -1.
         21    1    1    2  504  502 -0.58923499960E+02 -0.83276215179E+01  0.67278808793E+02  0.89820745044E+02  0.00000000000E+00 0.  1.
         21    1    1    2  505  501  0.87702574258E+02 -0.37967016796E+02 -0.31032074828E+02  0.10047997593E+03  0.00000000000E+00 0.  1.
         21    1    1    2  506  505  0.53325409604E+02 -0.16694372862E+01  0.73939303781E+01  0.53861456875E+02  0.00000000000E+00 0.  1.
<scales pt_clust_3="98.88603" pt_clust_4="59.50906" pt_clust_5="31.72225" pt_clust_6="31.72225"></scales>
<clustering>
<clus scale="   31.722">  5  6 -1 -1</clus>
<clus scale="   59.509">  1  4  2 -1</clus>
<clus scale="   98.886">  2  3  1 -1</clus>
<clus scale="   59.509">  1  3  2 -1</clus>
</clustering>
</event>
<event>
 6    0  0.6687079E+002  0.1576908E+03  0.7546771E-02  0.1191329E+00
         21   -1    0    0  506  501  0.00000000000E+00  0.00000000000E+00  0.13434091379E+03  0.13434091379E+03  0.00000000000E+00 0. -1.
         21   -1    0    0  504  502 -0.00000000000E+00 -0.00000000000E+00 -0.10885768532E+04  0.10885768532E+04  0.00000000000E+00 0. -1.
         21    1    1    2  503  505  0.12484866451E+03 -0.94023312130E+02 -0.21115303081E+03  0.26270358710E+03  0.00000000000E+00 0. -1.
         21    1    1    2  504  501 -0.18686708922E+03  0.58545952808E+02 -0.53300672310E+02  0.20294802116E+03  0.00000000000E+00 0. -1.
         21    1    1    2  505  502  0.16963704629E+01  0.33314676598E+02 -0.69580633650E+03  0.69660548610E+03  0.00000000000E+00 0. -1.
         21    1    1    2  506  503  0.60322054251E+02  0.21626827243E+01  0.60241001721E+01  0.60660672668E+02  0.00000000000E+00 0. -1.
<scales pt_clust_3="157.69081" pt_clust_4="14000.00000" pt_clust_5="33.35784" pt_clust_6="60.60613"></scales>
<clustering>
<clus scale="   33.358">  2  5  1 -1</clus>
<clus scale="   60.606">  1  6  2 -1</clus>
<clus scale="  157.691">  2  3  1 -1</clus>
<clus scale="   60.606">  1  3  2 -1</clus>
</clustering>
</event>
<event>
 6    0  0.6687079E+002  0.1826376E+03  0.7546771E-02  0.1165275E+00
         21   -1    0    0  506  501  0.00000000000E+00  0.00000000000E+00  0.58565032355E+03  0.58565032355E+03  0.00000000000E+00 0.  1.
         21   -1    0    0  505  502 -0.00000000000E+00 -0.00000000000E+00 -0.70750213876E+03  0.70750213876E+03  0.00000000000E+00 0.  1.
         21    1    1    2  503  501  0.10169048725E+03  0.36902878677E+02  0.21645709024E+03  0.24198439943E+03  0.00000000000E+00 0.  1.
         21    1    1    2  504  502 -0.15113761081E+03 -0.80816279377E+02 -0.66384966358E+03  0.68561667443E+03  0.00000000000E+00 0.  1.
         21    1    1    2  505  503  0.71584431538E+02  0.78382916234E+02  0.29759738161E+03  0.31596267807E+03  0.00000000000E+00 0.  1.
         21    1    1    2  506  504 -0.22137307982E+02 -0.34469515534E+02  0.27943376524E+02  0.49588710383E+02  0.00000000000E+00 0.  1.
<scales pt_clust_3="57.31901" pt_clust_4="172.10043" pt_clust_5="57.31901" pt_clust_6="40.96594"></scales>
<clustering>
<clus scale="   40.966">  1  6  2 -1</clus>
<clus scale="   57.319">  3  5 -1 -1</clus>
<clus scale="  172.100">  2  4  1 -1</clus>
<clus scale="   40.966">  1  3  2 -1</clus>
</clustering>
</event>
<event>
 6    0  0.6687079E+002  0.1891525E+03  0.7546771E-02  0.1159228E+00
         21   -1    0    0  506  501  0.00000000000E+00  0.00000000000E+00  0.19742893857E+03  0.19742893857E+03  0.00000000000E+00 0.  1.
         21   -1    0    0  501  502 -0.00000000000E+00 -0.00000000000E+00 -0.14881588100E+04  0.14881588100E+04  0.00000000000E+00 0. -1.
         21    1    1    2  503  504 -0.13892900717E+03  0.17880089213E+02 -0.15194923052E+03  0.20666285413E+03  0.00000000000E+00 0.  1.
         21    1    1    2  504  502  0.17327938917E+02  0.27873701819E+02 -0.11777526680E+04  0.11782098912E+04  0.00000000000E+00 0. -1.
         21    1    1    2  505  503 -0.37210326331E+02  0.37850986759E+02 -0.72190807394E+02  0.89603673230E+02  0.00000000000E+00 0.  1.
         21    1    1    2  506  505  0.15881139458E+03 -0.83604777790E+02  0.11116283445E+03  0.21111133006E+03  0.00000000000E+00 0.  1.
<scales pt_clust_3="37.71857" pt_clust_4="32.82074" pt_clust_5="37.71857" pt_clust_6="179.92943"></scales>
<clustering>
<clus scale="   32.821">  2  4  1 -1</clus>
<clus scale="   37.719">  3  5 -1 -1</clus>
<clus scale="  179.929">  1  6  2 -1</clus>
<clus scale="  179.929">  1  3  2 -1</clus>
</clustering>
</event>
<event>
 6    0  0.6687079E+002  0.1246857E+03  0.7546771E-02  0.1235561E+00
         21   -1    0    0  506  501  0.00000000000E+00  0.00000000000E+00  0.77181391128E+02  0.77181391128E+02  0.00000000000E+00 0. -1.
         21   -1    0    0  504  502 -0.00000000000E+00 -0.00000000000E+00 -0.51049232244E+03  0.51049232244E+03  0.00000000000E+00 0. -1.
         21    1    1    2  503  501 -0.28628670928E+02 -0.21329102493E+02  0.25201038910E+02  0.43699242264E+02  0.00000000000E+00 0. -1.
         21    1    1    2  504  505  0.56425222333E+02  0.85401209091E+02 -0.83577096247E+02  0.13214500841E+03  0.00000000000E+00 0. -1.
         21    1    1    2  505  503 -0.69570685980E+01  0.43207014858E+02 -0.39189230563E+02  0.58745576246E+02  0.00000000000E+00 0.  1.
         21    1    1    2  506  502 -0.20839482807E+02 -0.10727912146E+03 -0.33574564341E+03  0.35308388665E+03  0.00000000000E+00 0. -1.
<scales pt_clust_3="35.70058" pt_clust_4="31.90264" pt_clust_5="31.90264" pt_clust_6="114.74342"></scales>
<clustering>
<clus scale="   31.903">  4  5 -1 -1</clus>
<clus scale="   35.701">  1  3  2 -1</clus>
<clus scale="  114.743">  2  6  1 -1</clus>
<clus scale="   35.701">  1  3  2 -1</clus>
</clustering>
</event>
<event>
 6    0  0.6687079E+002  0.1427339E+03  0.7546771E-02  0.1209697E+00
         21   -1    0    0  503  501  0.00000000000E+00  0.00000000000E+00  0.58817364790E+03  0.58817364790E+03  0.00000000000E+00 0. -1.
         21   -1    0    0  504  502 -0.00000000000E+00 -0.00000000000E+00 -0.35236090292E+03  0.35236090292E+03  0.00000000000E+00 0.  1.
         21    1    1    2  503  505 -0.45718867559E+02 -0.13856410512E+02 -0.20980339457E+02  0.52176523522E+02  0.00000000000E+00 0.  1.
         21    1    1    2  504  501  0.12057590290E+03  0.74465464484E+02  0.55354964244E+03  0.57140253798E+03  0.00000000000E+00 0. -1.
         21    1    1    2  505  506 -0.41941748637E+02 -0.12493134959E+02 -0.67827207102E+02  0.80720002001E+02  0.00000000000E+00 0. -1.
         21    1    1    2  506  502 -0.32915286706E+02 -0.48115919013E+02 -0.22892935091E+03  0.23623548732E+03  0.00000000000E+00 0.  1.
<scales pt_clust_3="35.76104" pt_clust_4="137.75683" pt_clust_5="35.76104" pt_clust_6="58.29715"></scales>
<clustering>
<clus scale="   35.761">  3  5 -1 -1</clus>
<clus scale="   58.297">  2  6  1 -1</clus>
<clus scale="  137.757">  1  4  2 -1</clus>
<clus scale="  137.757">  1  3  2 -1</clus>
</clustering>
</event>
<event>
 6    0  0.6687079E+002  0.1520306E+03  0.7546771E-02  0.1198000E+00
         21   -1    0    0  505  501  0.00000000000E+00  0.00000000000E+00  0.77638309174E+03  0.77638309174E+03  0.00000000000E+00 0.  1.
         21   -1    0    0  506  502 -0.00000000000E+00 -0.00000000000E+00 -0.16379534419E+03  0.16379534419E+03  0.00000000000E+00 0.  1.
         21    1    1    2  503  504  0.90656969946E+02 -0.97814245462E+02  0.22311479903E+03  0.25993561965E+03  0.00000000000E+00 0.  1.
         21    1    1    2  504  501 -0.15954448333E+03  0.66099512634E+02  0.50151735191E+03  0.53041798800E+03  0.00000000000E+00 0.  1.
         21    1    1    2  505  502  0.30752550953E+02  0.53583533221E+01 -0.30288370811E+01  0.31362480681E+02  0.00000000000E+00 0.  1.
         21    1    1    2  506  503  0.38134962436E+02  0.26356379506E+02 -0.10901556631E+03  0.11846234759E+03  0.00000000000E+00 0.  1.
<scales pt_clust_3="152.03065" pt_clust_4="14000.00000" pt_clust_5="31.21588" pt_clust_6="69.09681"></scales>
<clustering>
<clus scale="   31.216">  2  5  1 -1</clus>
<clus scale="   69.097">  2  6  1 -1</clus>
<clus scale="  152.031">  2  3  1 -1</clus>
<clus scale="  152.031">  1  3  2 -1</clus>
</clustering>
</event>
<event>
 6    0  0.6687079E+002  0.8330301E+02  0.7546771E-02  0.1319931E+00
         21   -1    0    0  505  501  0.00000000000E+00  0.00000000000E+00  0.35297686584E+03  0.35297686584E+03  0.00000000000E+00 0. -1.
         21   -1    0    0  506  502 -0.00000000000E+00 -0.00000000000E+00 -0.15034468190E+03  0.15034468190E+03  0.00000000000E+00 0.  1.
         21    1    1    2  503  504  0.23692215528E+02  0.50198328410E+02 -0.47655286628E+02  0.73158865460E+02  0.00000000000E+00 0.  1.
         21    1    1    2  504  502 -0.18578628818E+01  0.54744814420E+02  0.22395978289E+02  0.59177919902E+02  0.00000000000E+00 0.  1.
         21    1    1    2  505  503 -0.57421795065E+02 -0.64709956787E+02  0.28186192711E+03  0.29484027372E+03  0.00000000000E+00 0. -1.
         21    1    1    2  506  501  0.35587442419E+02 -0.40233186042E+02 -0.53970434834E+02  0.76144488659E+02  0.00000000000E+00 0.  1.
<scales pt_clust_3="14000.00000" pt_clust_4="46.43478" pt_clust_5="83.30301" pt_clust_6="53.71383"></scales>
<clustering>
<clus scale="   53.714">  2  6  1 -1</clus>
<clus scale="   46.435">  2  4  1 -1</clus>
<clus scale="   83.303">  1  5  2 -1</clus>
<clus scale="   83.303">  1  3  2 -1</clus>
</clustering>
</event>
<event>
 6    0  0.6687079E+002  0.2231565E+03  0.7546771E-02  0.1131551E+00
         21   -1    0    0  506  501  0.00000000000E+00  0.00000000000E+00  0.27203822540E+03  0.27203822540E+03  0.00000000000E+00 0. -1.
         21   -1    0    0  503  502 -0.00000000000E+00 -0.00000000000E+00 -0.13690758855E+04  0.13690758855E+04  0.00000000000E+00 0.  1.
         21    1    1    2  503  504  0.11699711155E+03  0.46550163675E+02 -0.85369350220E+03  0.86292979873E+03  0.00000000000E+00 0.  1.
         21    1    1    2  504  501 -0.20664696201E+03 -0.15883347201E+03 -0.14861076106E+03  0.30002699386E+03  0.00000000000E+00 0.  1.
         21    1    1    2  505  502  0.89788802646E+02  0.15798810707E+03 -0.25408522941E+03  0.31238049693E+03  0.00000000000E+00 0.  1.
         21    1    1    2  506  505 -0.13895218029E+00 -0.45704798735E+02  0.15935183261E+03  0.16577682133E+03  0.00000000000E+00 0. -1.
<scales pt_clust_3="125.21216" pt_clust_4="223.15651" pt_clust_5="14000.00000" pt_clust_6="45.70501"></scales>
<clustering>
<clus scale="   45.705">  1  6  2 -1</clus>
<clus scale="  125.212">  2  3  1 -1</clus>
<clus scale="  223.157">  2  4  1 -1</clus>
<clus scale="   45.705">  1  3  2 -1</clus>
</clustering>
</event>
<event>
 6    0  0.6687079E+002  0.1206729E+03  0.7546771E-02  0.1241991E+00
         21   -1    0    0  505  501  0.00000000000E+00  0.00000000000E+00  0.30621120788E+03  0.30621120788E+03  0.00000000000E+00 0. -1.
         21   -1    0    0  504  502 -0.00000000000E+00 -0.00000000000E+00 -0.18035209355E+03  0.18035209355E+03  0.00000000000E+00 0.  1.
         21    1    1    2  503  506  0.64814757156E+02 -0.85957872894E+02 -0.53901275117E+02  0.12039541568E+03  0.00000000000E+00 0.  1.
         21    1    1    2  504  503 -0.36441963877E+02 -0.31633471718E+02 -0.52508072205E+02  0.71314731373E+02  0.00000000000E+00 0.  1.
         21    1    1    2  505  502 -0.59067616048E+02  0.13380133738E+03  0.19710270352E+03  0.24544094379E+03  0.00000000000E+00 0. -1.
         21    1    1    2  506  501  0.30694822769E+02 -0.16209992772E+02  0.35165758130E+02  0.49412210590E+02  0.00000000000E+00 0.  1.
<scales pt_clust_3="120.67288" pt_clust_4="47.82316" pt_clust_5="14000.00000" pt_clust_6="34.71219"></scales>
<clustering>
<clus scale="   34.712">  1  6  2 -1</clus>
<clus scale="   47.823">  2  4  1 -1</clus>
<clus scale="  120.673">  2  3  1 -1</clus>
<clus scale="   34.712">  1  3  2 -1</clus>
</clustering>
</event>
<event>
 6    0  0.6687079E+002  0.1236945E+03  0.7546771E-02  0.1237124E+00
         21   -1    0    0  506  501  0.00000000000E+00  0.00000000000E+00  0.52594492657E+03  0.52594492657E+03  0.00000000000E+00 0. -1.
         21   -1    0    0  503  502 -0.00000000000E+00 -0.00000000000E+00 -0.23335462013E+03  0.23335462013E+03  0.00000000000E+00 0. -1.
         21    1    1    2  503  501 -0.11489766435E+03 -0.11216123579E+03  0.42905913038E+03  0.45811936594E+03  0.00000000000E+00 0. -1.
         21    1    1    2  504  505  0.11841938209E+02  0.84058088020E+02 -0.35679306463E+02  0.92081521338E+02  0.00000000000E+00 0. -1.
         21    1    1    2  505  502  0.56189714619E+02  0.34637442313E+02 -0.13529253134E+03  0.15053606038E+03  0.00000000000E+00 0. -1.
         21    1    1    2  506  504  0.46866011526E+02 -0.65342945448E+01  0.34503013862E+02  0.58562599047E+02  0.00000000000E+00 0. -1.
<scales pt_clust_3="14000.00000" pt_clust_4="123.69453" pt_clust_5="66.58932" pt_clust_6="47.31934"></scales>
<clustering>
<clus scale="   47.319">  1  6  2 -1</clus>
<clus scale="   66.589">  2  5  1 -1</clus>
<clus scale="  123.695">  2  4  1 -1</clus>
<clus scale="   47.319">  1  3  2 -1</clus>
</clustering>
</event>
<event>
 6    0  0.6687079E+002  0.7542555E+02  0.7546771E-02  0.1342558E+00
         21   -1    0    0  503  501  0.00000000000E+00  0.00000000000E+00  0.41451053620E+02  0.41451053620E+02  0.00000000000E+00 0. -1.
         21   -1    0    0  506  502 -0.00000000000E+00 -0.00000000000E+00 -0.63624165640E+03  0.63624165640E+03  0.00000000000E+00 0.  1.
         21    1    1    2  503  505 -0.45764857584E+02 -0.21977546127E+02 -0.94746024047E+02  0.10749066841E+03  0.00000000000E+00 0. -1.
         21    1    1    2  504  501  0.10229149724E+02 -0.31348205235E+02 -0.36970458398E+02  0.49539481928E+02  0.00000000000E+00 0. -1.
         21    1    1    2  505  502 -0.55430596561E+02  0.52527946805E+02 -0.40633467392E+03  0.41344842902E+03  0.00000000000E+00 0.  1.
         21    1    1    2  506  504  0.90966304421E+02  0.79780455720E+00 -0.56739446410E+02  0.10721413065E+03  0.00000000000E+00 0. -1.
<scales pt_clust_3="51.89571" pt_clust_4="32.97492" pt_clust_5="75.42555" pt_clust_6="14000.00000"></scales>
<clustering>
<clus scale="   32.975">  1  4  2 -1</clus>
<clus scale="   51.896">  1  3  2 -1</clus>
<clus scale="   75.426">  2  5  1 -1</clus>
<clus scale="   32.975">  1  3  2 -1</clus>
</clustering>
</event>
<event>
 6    0  0.6687079E+002  0.1685669E+03  0.7546771E-02  0.1179351E+00
         21   -1    0    0  506  501  0.00000000000E+00  0.00000000000E+00  0.14259856321E+04  0.14259856321E+04  0.00000000000E+00 0. -1.
         21   -1    0    0  504  502 -0.00000000000E+00 -0.00000000000E+00 -0.69408651357E+03  0.69408651357E+03  0.00000000000E+00 0.  1.
         21    1    1    2  503  501 -0.38615083908E+02  0.24033967584E+02 -0.81159811140E+02  0.93035860007E+02  0.00000000000E+00 0.  1.
         21    1    1    2  504  503 -0.10436371513E+03  0.26947478568E+02 -0.37507415388E+03  0.39025449715E+03  0.00000000000E+00 0.  1.
         21    1    1    2  505  502  0.17563912839E+03 -0.72431488055E+02 -0.18376941438E+03  0.26432294933E+03  0.00000000000E+00 0.  1.
         21    1    1    2  506  505 -0.32660329359E+02  0.21450041904E+02  0.13719024980E+04  0.13724588392E+04  0.00000000000E+00 0. -1.
<scales pt_clust_3="31.67812" pt_clust_4="31.67812" pt_clust_5="161.35890" pt_clust_6="39.07431"></scales>
<clustering>
<clus scale="   31.678">  3  4 -1 -1</clus>
<clus scale="   39.074">  1  6  2 -1</clus>
<clus scale="  161.359">  1  5  2 -1</clus>
<clus scale="   39.074">  1  3  2 -1</clus>
</clustering>
</event>
<event>
 6    0  0.6687079E+002  0.1265843E+03  0.7546771E-02  0.1232614E+00
         21   -1    0    0  505  501  0.00000000000E+00  0.00000000000E+00  0.80481411493E+03  0.80481411493E+03  0.00000000000E+00 0. -1.
         21   -1    0    0  504  502 -0.00000000000E+00 -0.00000000000E+00 -0.19796827173E+03  0.19796827173E+03  0.00000000000E+00 0.  1.
         21    1    1    2  503  506 -0.46667117058E+02 -0.74377349981E+02  0.12536341467E+03  0.15305487820E+03  0.00000000000E+00 0. -1.
         21    1    1    2  504  503 -0.53299117988E+02 -0.47805518928E+02 -0.15809846327E+03  0.17355485504E+03  0.00000000000E+00 0.  1.
         21    1    1    2  505  502  0.34026386741E+02 -0.34823814176E+02  0.12506066774E+03  0.13420381382E+03  0.00000000000E+00 0.  1.
         21    1    1    2  506  501  0.65939848305E+02  0.15700668309E+03  0.51452022406E+03  0.54196883959E+03  0.00000000000E+00 0. -1.
<scales pt_clust_3="14000.00000" pt_clust_4="71.57561" pt_clust_5="48.68771" pt_clust_6="126.58431"></scales>
<clustering>
<clus scale="   48.688">  1  5  2 -1</clus>
<clus scale="   71.576">  2  4  1 -1</clus>
<clus scale="  126.584">  1  6  2 -1</clus>
<clus scale="   48.688">  1  3  2 -1</clus>
</clustering>
</event>
<event>
 6    0  0.6687079E+002  0.1910721E+03  0.7546771E-02  0.1157498E+00
         21   -1    0    0  506  501  0.00000000000E+00  0.00000000000E+00  0.61044865309E+02  0.61044865309E+02  0.00000000000E+00 0.  1.
         21   -1    0    0  503  502 -0.00000000000E+00 -0.00000000000E+00 -0.36132158051E+04  0.36132158051E+04  0.00000000000E+00 0.  1.
         21    1    1    2  503  501 -0.72346601228E+02  0.24556128803E+02 -0.21889170914E+04  0.21902500011E+04  0.00000000000E+00 0.  1.
         21    1    1    2  504  502  0.15252109262E+02  0.46384960710E+02 -0.62519681526E+03  0.62710066913E+03  0.00000000000E+00 0.  1.
         21    1    1    2  505  504  0.20397776084E+02  0.11015035658E+03 -0.63607136459E+03  0.64586062829E+03  0.00000000000E+00 0.  1.
         21    1    1    2  506  505  0.36696715883E+02 -0.18109144610E+03 -0.10198566858E+03  0.21104937195E+03  0.00000000000E+00 0.  1.
<scales pt_clust_3="76.40049" pt_clust_4="41.01181" pt_clust_5="41.01181" pt_clust_6="180.69239"></scales>
<clustering>
<clus scale="   41.012">  4  5 -1 -1</clus>
<clus scale="   76.400">  2  3  1 -1</clus>
<clus scale="  180.692">  1  6  2 -1</clus>
<clus scale="  180.692">  1  3  2 -1</clus>
</clustering>
</event>
<event>
 6    0  0.6687079E+002  0.2889683E+03  0.7546771E-02  0.1090889E+00
         21   -1    0    0  503  501  0.00000000000E+00  0.00000000000E+00  0.16834749657E+04  0.16834749657E+04  0.00000000000E+00 0.  1.
         21   -1    0    0  506  502 -0.00000000000E+00 -0.00000000000E+00 -0.17350368783E+03  0.17350368783E+03  0.00000000000E+00 0.  1.
         21    1    1    2  503  502  0.10097009301E+02 -0.29255787267E+03  0.10862754052E+04  0.11250272505E+04  0.00000000000E+00 0.  1.
         21    1    1    2  504  501  0.10144761884E+03  0.27730832809E+03  0.42156874672E+03  0.51469577073E+03  0.00000000000E+00 0.  1.
         21    1    1    2  505  504 -0.11895997034E+03  0.45283052006E+02  0.68122118403E+02  0.14436984574E+03  0.00000000000E+00 0.  1.
         21    1    1    2  506  505  0.74153421975E+01 -0.30033507432E+02 -0.65994992392E+02  0.72885786607E+02  0.00000000000E+00 0.  1.
<scales pt_clust_3="288.96827" pt_clust_4="14000.00000" pt_clust_5="121.19260" pt_clust_6="30.93540"></scales>
<clustering>
<clus scale="   30.935">  2  6  1 -1</clus>
<clus scale="  121.193">  2  5  1 -1</clus>
<clus scale="  288.968">  1  3  2 -1</clus>
<clus scale="  288.968">  1  3  2 -1</clus>
</clustering>
</event>
<event>
 6    0  0.6687079E+002  0.2342817E+03  0.7546771E-02  0.1123662E+00
         21   -1    0    0  506  501  0.00000000000E+00  0.00000000000E+00  0.50109158686E+03  0.50109158686E+03  0.00000000000E+00 0.  1.
         21   -1    0    0  505  502 -0.00000000000E+00 -0.00000000000E+00 -0.34310204880E+03  0.34310204880E+03  0.00000000000E+00 0. -1.
         21    1    1    2  503  504  0.52272132199E+01 -0.63994969047E+02 -0.39940216688E+02  0.75616801906E+02  0.00000000000E+00 0. -1.
         21    1    1    2  504  502  0.93533573054E+02 -0.12797859681E+03 -0.16240163276E+03  0.22693906859E+03  0.00000000000E+00 0. -1.
         21    1    1    2  505  501 -0.14819768288E+03  0.26323160091E+03  0.33543131166E+03  0.45140624029E+03  0.00000000000E+00 0.  1.
         21    1    1    2  506  503  0.49436896609E+02 -0.71258035053E+02  0.24900075844E+02  0.90231524885E+02  0.00000000000E+00 0. -1.
<scales pt_clust_3="40.20329" pt_clust_4="40.20329" pt_clust_5="225.60501" pt_clust_6="86.72782"></scales>
<clustering>
<clus scale="   40.203">  3  4 -1 -1</clus>
<clus scale="   86.728">  1  6  2 -1</clus>
<clus scale="  225.605">  1  5  2 -1</clus>
<clus scale="   86.728">  1  3  2 -1</clus>
</clustering>
</event>
<event>
 6    0  0.6687079E+002  0.1320190E+03  0.7546771E-02  0.1224490E+00
         21   -1    0    0  505  501  0.00000000000E+00  0.00000000000E+00  0.24661738494E+03  0.24661738494E+03  0.00000000000E+00 0. -1.
         21   -1    0    0  506  502 -0.00000000000E+00 -0.00000000000E+00 -0.18148824819E+03  0.18148824819E+03  0.00000000000E+00 0. -1.
         21    1    1    2  503  501  0.53308073071E+02  0.84916103883E+02  0.59968796747E+02  0.11682787312E+03  0.00000000000E+00 0. -1.
         21    1    1    2  504  502 -0.80780870724E+02 -0.78794688642E+02  0.43261594042E+02  0.12085411682E+03  0.00000000000E+00 0. -1.
         21    1    1    2  505  504 -0.25771590034E+02 -0.45740466921E+02  0.55034736966E+02  0.76060419667E+02  0.00000000000E+00 0.  1.
         21    1    1    2  506  503  0.53244387687E+02  0.39619051680E+02 -0.93135991002E+02  0.11436322353E+03  0.00000000000E+00 0. -1.
<scales pt_clust_3="123.20016" pt_clust_4="32.35965" pt_clust_5="32.35965" pt_clust_6="66.36742"></scales>
<clustering>
<clus scale="   32.360">  4  5 -1 -1</clus>
<clus scale="   66.367">  2  6  1 -1</clus>
<clus scale="  123.200">  1  3  2 -1</clus>
<clus scale="  123.200">  1  3  2 -1</clus>
</clustering>
</event>
<event>
 6    0  0.6687079E+002  0.9169965E+02  0.7546771E-02  0.1298787E+00
         21   -1    0    0  503  501  0.00000000000E+00  0.00000000000E+00  0.18650601036E+04  0.18650601036E+04  0.00000000000E+00 0. -1.
         21   -1    0    0  505  502 -0.00000000000E+00 -0.00000000000E+00 -0.40089683528E+02  0.40089683528E+02  0.00000000000E+00 0. -1.
         21    1    1    2  503  502 -0.61713382851E+02  0.34286738026E+02  0.39182091306E+02  0.80742543350E+02  0.00000000000E+00 0. -1.
         21    1    1    2  504  501 -0.27148215785E+02 -0.99086511720E+02  0.15059742177E+04  0.15094745797E+04  0.00000000000E+00 0. -1.
         21    1    1    2  505  506  0.12443274744E+02  0.37127353217E+02  0.22660753297E+02  0.45241410049E+02  0.00000000000E+00 0. -1.
         21    1    1    2  506  504  0.76418323892E+02  0.27672420477E+02  0.25715335778E+03  0.26969125403E+03  0.00000000000E+00 0.  1.
<scales pt_clust_3="80.69235" pt_clust_4="14000.00000" pt_clust_5="39.15706" pt_clust_6="91.69965"></scales>
<clustering>
<clus scale="   39.157">  2  5  1 -1</clus>
<clus scale="   80.692">  2  3  1 -1</clus>
<clus scale="   91.700">  2  6  1 -1</clus>
<clus scale="   91.700">  1  3  2 -1</clus>
</clustering>
</event>
<event>
 6    0  0.6687079E+002  0.1537684E+03  0.7546771E-02  0.1195917E+00
         21   -1    0    0  503  501  0.00000000000E+00  0.00000000000E+00  0.32536050869E+02  0.32536050869E+02  0.00000000000E+00 0.  1.
         21   -1    0    0  504  502 -0.00000000000E+00 -0.00000000000E+00 -0.20314658717E+04  0.20314658717E+04  0.00000000000E+00 0.  1.
         21    1    1    2  503  506  0.11501781220E+03 -0.94465739215E+02 -0.17840236531E+03  0.23233655967E+03  0.00000000000E+00 0.  1.
         21    1    1    2  504  501  0.35616874103E+01  0.62513579491E+02 -0.40258982698E+03  0.40742999648E+03  0.00000000000E+00 0.  1.
         21    1    1    2  505  502 -0.85542752326E+02  0.42750991262E+02 -0.11654168369E+04  0.11693338332E+04  0.00000000000E+00 0.  1.
         21    1    1    2  506  505 -0.33036747285E+02 -0.10798831538E+02 -0.25252079168E+03  0.25490153327E+03  0.00000000000E+00 0. -1.
<scales pt_clust_3="144.31740" pt_clust_4="62.61496" pt_clust_5="31.99872" pt_clust_6="31.99872"></scales>
<clustering>
<clus scale="   31.999">  5  6 -1 -1</clus>
<clus scale="   62.615">  2  4  1 -1</clus>
<clus scale="  144.317">  1  3  2 -1</clus>
<clus scale="  144.317">  1  3  2 -1</clus>
</clustering>
</event>
<event>
 6    0  0.6687079E+002  0.8051198E+02  0.7546771E-02  0.1327605E+00
         21   -1    0    0  503  501  0.00000000000E+00  0.00000000000E+00  0.11746093306E+03  0.11746093306E+03  0.00000000000E+00 0. -1.
         21   -1    0    0  506  502 -0.00000000000E+00 -0.00000000000E+00 -0.76212108930E+03  0.76212108930E+03  0.00000000000E+00 0.  1.
         21    1    1    2  503  504  0.73326089836E+02  0.50361172127E+01  0.60434934957E+02  0.95154922576E+02  0.00000000000E+00 0. -1.
         21    1    1    2  504  505 -0.27378385049E+02  0.83098680070E+02 -0.13684505420E+03  0.16242393745E+03  0.00000000000E+00 0.  1.
         21    1    1    2  505  502 -0.49490612487E+02 -0.32646867264E+02 -0.56304633218E+03  0.56615926279E+03  0.00000000000E+00 0.  1.
         21    1    1    2  506  501  0.35429076996E+01 -0.55487930019E+02 -0.52037048299E+01  0.55843899548E+02  0.00000000000E+00 0. -1.
<scales pt_clust_3="14000.00000" pt_clust_4="80.51198" pt_clust_5="59.76034" pt_clust_6="55.60092"></scales>
<clustering>
<clus scale="   55.601">  1  6  2 -1</clus>
<clus scale="   59.760">  2  5  1 -1</clus>
<clus scale="   80.512">  2  4  1 -1</clus>
<clus scale="   55.601">  1  3  2 -1</clus>
</clustering>
</event>
<event>
 6    0  0.6687079E+002  0.1484605E+03  0.7546771E-02  0.1202378E+00
         21   -1    0    0  503  501  0.00000000000E+00  0.00000000000E+00  0.67743283943E+03  0.67743283943E+03  0.00000000000E+00 0. -1.
         21   -1    0    0  504  502 -0.00000000000E+00 -0.00000000000E+00 -0.11025216019E+03  0.11025216019E+03  0.00000000000E+00 0.  1.
         21    1    1    2  503  505 -0.66573235499E+01 -0.40894278818E+02  0.27096377700E+03  0.27411317087E+03  0.00000000000E+00 0. -1.
         21    1    1    2  504  501  0.13856532625E+03  0.21097091978E+02 -0.41847617366E+02  0.14627597208E+03  0.00000000000E+00 0.  1.
         21    1    1    2  505  506 -0.36642505786E+02 -0.10683192355E+02  0.14398481768E+03  0.14895781803E+03  0.00000000000E+00 0.  1.
         21    1    1    2  506  502 -0.95265496910E+02  0.30480379196E+02  0.19407970194E+03  0.21833803865E+03  0.00000000000E+00 0.  1.
<scales pt_clust_3="41.43262" pt_clust_4="138.61295" pt_clust_5="32.84444" pt_clust_6="32.84444"></scales>
<clustering>
<clus scale="   32.844">  5  6 -1 -1</clus>
<clus scale="   41.433">  1  3  2 -1</clus>
<clus scale="  138.613">  2  4  1 -1</clus>
<clus scale="   41.433">  1  3  2 -1</clus>
</clustering>
</event>
<event>
 6    0  0.6687079E+002  0.9278317E+02  0.7546771E-02  0.1296248E+00
         21   -1    0    0  505  501  0.00000000000E+00  0.00000000000E+00  0.19879840281E+04  0.19879840281E+04  0.00000000000E+00 0.  1.
         21   -1    0    0  506  502 -0.00000000000E+00 -0.00000000000E+00 -0.47056269745E+02  0.47056269745E+02  0.00000000000E+00 0. -1.
         21    1    1    2  503  501  0.57456126260E+02 -0.73753906311E+02  0.18054420856E+04  0.18078611588E+04  0.00000000000E+00 0.  1.
         21    1    1    2  504  502 -0.30695950315E+02 -0.98869202017E+01 -0.46095501914E+01  0.32576686600E+02  0.00000000000E+00 0. -1.
         21    1    1    2  505  504  0.38329637625E+02  0.28160229092E+02  0.34718820911E+02  0.58885958839E+02  0.00000000000E+00 0.  1.
         21    1    1    2  506  503 -0.65089813569E+02  0.55480597420E+02  0.10537640198E+03  0.13571649353E+03  0.00000000000E+00 0. -1.
<scales pt_clust_3="14000.00000" pt_clust_4="32.24892" pt_clust_5="34.84563" pt_clust_6="92.78317"></scales>
<clustering>
<clus scale="   32.249">  2  4  1 -1</clus>
<clus scale="   34.846">  2  5  1 -1</clus>
<clus scale="   92.783">  2  6  1 -1</clus>
<clus scale="   92.783">  1  3  2 -1</clus>
</clustering>
</event>
<event>
 6    0  0.6687079E+002  0.8367505E+02  0.7546771E-02  0.1318934E+00
         21   -1    0    0  504  501  0.00000000000E+00  0.00000000000E+00  0.50502620826E+03  0.50502620826E+03  0.00000000000E+00 0. -1.
         21   -1    0    0  505  502 -0.00000000000E+00 -0.00000000000E+00 -0.69189825803E+02  0.69189825803E+02  0.00000000000E+00 0. -1.
         21    1    1    2  503  501  0.39141463010E+02  0.73151405135E+02  0.36640538974E+03  0.37568083772E+03  0.00000000000E+00 0. -1.
         21    1    1    2  504  502 -0.70951781963E-01  0.41834377868E+02  0.39799179692E+02  0.57741621989E+02  0.00000000000E+00 0. -1.
         21    1    1    2  505  506  0.28576322342E+01 -0.34059854906E+02  0.35731939129E+02  0.49447055040E+02  0.00000000000E+00 0.  1.
         21    1    1    2  506  503 -0.41928143463E+02 -0.80925928097E+02 -0.61001261030E+01  0.91346519315E+02  0.00000000000E+00 0. -1.
<scales pt_clust_3="14000.00000" pt_clust_4="36.93385" pt_clust_5="34.17952" pt_clust_6="83.67505"></scales>
<clustering>
<clus scale="   34.180">  2  5  1 -1</clus>
<clus scale="   36.934">  2  4  1 -1</clus>
<clus scale="   83.675">  2  6  1 -1</clus>
<clus scale="   83.675">  1  3  2 -1</clus>
</clustering>
</event>
<event>
 6    0  0.6687079E+002  0.7680260E+02  0.7546771E-02  0.1338378E+00
         21   -1    0    0  503  501  0.00000000000E+00  0.00000000000E+00  0.21158282733E+03  0.21158282733E+03  0.00000000000E+00 0. -1.
         21   -1    0    0  506  502 -0.00000000000E+00 -0.00000000000E+00 -0.16734661065E+03  0.16734661065E+03  0.00000000000E+00 0. -1.
         21    1    1    2  503  505 -0.68786269356E+02  0.40494593578E+02  0.14492192904E+03  0.16545007851E+03  0.00000000000E+00 0. -1.
         21    1    1    2  504  502  0.53289249334E+02 -0.21263565703E+02 -0.56386483506E+02  0.80444507850E+02  0.00000000000E+00 0. -1.
         21    1    1    2  505  504  0.29685869851E+02 -0.68073768477E+02 -0.21638229164E+02  0.77353098095E+02  0.00000000000E+00 0. -1.
         21    1    1    2  506  501 -0.14188849829E+02  0.48842740603E+02 -0.22660999686E+02  0.55681753527E+02  0.00000000000E+00 0. -1.
<scales pt_clust_3="76.80260" pt_clust_4="45.96777" pt_clust_5="14000.00000" pt_clust_6="50.86194"></scales>
<clustering>
<clus scale="   50.862">  2  6  1 -1</clus>
<clus scale="   45.968">  2  4  1 -1</clus>
<clus scale="   76.803">  1  3  2 -1</clus>
<clus scale="   76.803">  1  3  2 -1</clus>
</clustering>
</event>
<event>
 6    0  0.6687079E+002  0.7841868E+02  0.7546771E-02  0.1333600E+00
         21   -1    0    0  503  501  0.00000000000E+00  0.00000000000E+00  0.25986751610E+03  0.25986751610E+03  0.00000000000E+00 0.  1.
         21   -1    0    0  505  502 -0.00000000000E+00 -0.00000000000E+00 -0.92709750715E+02  0.92709750715E+02  0.00000000000E+00 0.  1.
         21    1    1    2  503  502  0.34993369271E+02  0.43897362781E+02  0.23262429776E+02  0.60767219709E+02  0.00000000000E+00 0.  1.
         21    1    1    2  504  506  0.48196521322E+00  0.62958156254E+02  0.81254686470E+02  0.10279244040E+03  0.00000000000E+00 0.  1.
         21    1    1    2  505  504 -0.74463805275E+02 -0.75090590934E+02 -0.36437882603E+01  0.10581461305E+03  0.00000000000E+00 0.  1.
         21    1    1    2  506  501  0.38988470790E+02 -0.31764928100E+02  0.66284437395E+02  0.83202993651E+02  0.00000000000E+00 0.  1.
<scales pt_clust_3="14000.00000" pt_clust_4="51.17966" pt_clust_5="78.41868" pt_clust_6="50.29027"></scales>
<clustering>
<clus scale="   50.290">  1  6  2 -1</clus>
<clus scale="   51.180">  1  4  2 -1</clus>
<clus scale="   78.419">  1  5  2 -1</clus>
<clus scale="   50.290">  1  3  2 -1</clus>
</clustering>
</event>
<event>
 6    0  0.6687079E+002  0.9775631E+02  0.7546771E-02  0.1285086E+00
         21   -1    0    0  505  501  0.00000000000E+00  0.00000000000E+00  0.11467276986E+04  0.11467276986E+04  0.00000000000E+00 0. -1.
         21   -1    0    0  506  502 -0.00000000000E+00 -0.00000000000E+00 -0.40662043593E+03  0.40662043593E+03  0.00000000000E+00 0. -1.
         21    1    1    2  503  504 -0.17076198202E+02 -0.64955757593E+02 -0.28484629278E+02  0.72953554366E+02  0.00000000000E+00 0.  1.
         21    1    1    2  504  502  0.10576772502E+03  0.90329210922E+02 -0.29655949474E+03  0.32755718878E+03  0.00000000000E+00 0. -1.
         21    1    1    2  505  503 -0.56575332285E+02 -0.23913799463E+02  0.11021284105E+04  0.11038386074E+04  0.00000000000E+00 0. -1.
         21    1    1    2  506  501 -0.32116194536E+02 -0.14596538663E+01 -0.36977023797E+02  0.48998783962E+02  0.00000000000E+00 0.  1.
<scales pt_clust_3="97.75631" pt_clust_4="14000.00000" pt_clust_5="61.49271" pt_clust_6="32.14935"></scales>
<clustering>
<clus scale="   32.149">  2  6  1 -1</clus>
<clus scale="   61.493">  1  5  2 -1</clus>
<clus scale="   97.756">  1  3  2 -1</clus>
<clus scale="   61.493">  1  3  2 -1</clus>
</clustering>
</event>
<event>
 6    0  0.6687079E+002  0.1365856E+03  0.7546771E-02  0.1217999E+00
         21   -1    0    0  503  501  0.00000000000E+00  0.00000000000E+00  0.73060082314E+03  0.73060082314E+03  0.00000000000E+00 0.  1.
         21   -1    0    0  504  502 -0.00000000000E+00 -0.00000000000E+00 -0.59003696707E+02  0.59003696707E+02  0.00000000000E+00 0.  1.
         21    1    1    2  503  502 -0.33176102036E+02 -0.11066955614E+02 -0.11112842733E+02  0.36696410266E+02  0.00000000000E+00 0.  1.
         21    1    1    2  504  505 -0.58873189642E+02 -0.28876178086E+02  0.52984628598E+02  0.84304549030E+02  0.00000000000E+00 0.  1.
         21    1    1    2  505  506 -0.43417561661E+02  0.14458461776E+02  0.33661258309E+02  0.56808556472E+02  0.00000000000E+00 0.  1.
         21    1    1    2  506  501  0.13546685334E+03  0.25484671924E+02  0.59606408226E+03  0.61179500408E+03  0.00000000000E+00 0.  1.
<scales pt_clust_3="34.97329" pt_clust_4="34.78785" pt_clust_5="34.78785" pt_clust_6="130.08262"></scales>
<clustering>
<clus scale="   34.788">  4  5 -1 -1</clus>
<clus scale="   34.973">  2  3  1 -1</clus>
<clus scale="  130.083">  1  6  2 -1</clus>
<clus scale="  130.083">  1  3  2 -1</clus>
</clustering>
</event>
<event>
 6    0  0.6687079E+002  0.1627873E+03  0.7546771E-02  0.1185585E+00
         21   -1    0    0  505  501  0.00000000000E+00  0.00000000000E+00  0.24267972941E+04  0.24267972941E+04  0.00000000000E+00 0. -1.
         21   -1    0    0  503  502 -0.00000000000E+00 -0.00000000000E+00 -0.19393633901E+02  0.19393633901E+02  0.00000000000E+00 0. -1.
         21    1    1    2  503  504  0.55116798877E+02 -0.14069016762E+03  0.43132402434E+03  0.45702516206E+03  0.00000000000E+00 0. -1.
         21    1    1    2  504  501 -0.40363612612E+02 -0.28309752488E+02  0.36448815819E+03  0.36780739630E+03  0.00000000000E+00 0.  1.
         21    1    1    2  505  506 -0.15111183840E+02  0.60016068617E+02  0.81495309787E+03  0.81729971742E+03  0.00000000000E+00 0. -1.
         21    1    1    2  506  502  0.35799757525E+00  0.10898385149E+03  0.79663837977E+03  0.80405865219E+03  0.00000000000E+00 0. -1.
<scales pt_clust_3="153.95609" pt_clust_4="49.30176" pt_clust_5="39.85569" pt_clust_6="39.85569"></scales>
<clustering>
<clus scale="   39.856">  5  6 -1 -1</clus>
<clus scale="   49.302">  1  4  2 -1</clus>
<clus scale="  153.956">  2  3  1 -1</clus>
<clus scale="   49.302">  1  3  2 -1</clus>
</clustering>
</event>
<event>
 6    0  0.6687079E+002  0.1257255E+03  0.7546771E-02  0.1233940E+00
         21   -1    0    0  505  501  0.00000000000E+00  0.00000000000E+00  0.11283579829E+04  0.11283579829E+04  0.00000000000E+00 0. -1.
         21   -1    0    0  504  502 -0.00000000000E+00 -0.00000000000E+00 -0.20136746690E+03  0.20136746690E+03  0.00000000000E+00 0. -1.
         21    1    1    2  503  502  0.64769875346E+01 -0.93408110163E+02 -0.83909980792E+02  0.12572951638E+03  0.00000000000E+00 0. -1.
         21    1    1    2  504  501  0.32918062537E+02  0.33440711528E+02 -0.60469752090E+02  0.76540648982E+02  0.00000000000E+00 0. -1.
         21    1    1    2  505  506 -0.42819272577E+02  0.10660495606E+03  0.10744656032E+04  0.10805898571E+04  0.00000000000E+00 0. -1.
         21    1    1    2  506  503  0.34242225058E+01 -0.46637557429E+02 -0.30953543354E+01  0.46865427355E+02  0.00000000000E+00 0. -1.
<scales pt_clust_3="35.39363" pt_clust_4="46.92419" pt_clust_5="115.31969" pt_clust_6="35.39363"></scales>
<clustering>
<clus scale="   35.394">  3  6 -1 -1</clus>
<clus scale="   46.924">  2  4  1 -1</clus>
<clus scale="  115.320">  1  5  2 -1</clus>
<clus scale="  115.320">  1  3  2 -1</clus>
</clustering>
</event>
<event>
 6    0  0.6687079E+002  0.2934528E+03  0.7546771E-02  0.1088560E+00
         21   -1    0    0  504  501  0.00000000000E+00  0.00000000000E+00  0.64937117066E+03  0.64937117066E+03  0.00000000000E+00 0. -1.
         21   -1    0    0  503  502 -0.00000000000E+00 -0.00000000000E+00 -0.19296985082E+03  0.19296985082E+03  0.00000000000E+00 0. -1.
         21    1    1    2  503  506 -0.97926572728E+02 -0.12388479627E+02  0.16185260902E+02  0.10002525053E+03  0.00000000000E+00 0.  1.
         21    1    1    2  504  505  0.77120643339E+01  0.38922093471E+02  0.13596581192E+03  0.14163723842E+03  0.00000000000E+00 0.  1.
         21    1    1    2  505  502  0.26892880000E+03  0.65729738295E+02  0.28708158328E+03  0.39882193197E+03  0.00000000000E+00 0. -1.
         21    1    1    2  506  501 -0.17871429160E+03 -0.92263352139E+02  0.17168663735E+02  0.20185660055E+03  0.00000000000E+00 0. -1.
<scales pt_clust_3="35.29281" pt_clust_4="39.67878" pt_clust_5="289.09612" pt_clust_6="35.29281"></scales>
<clustering>
<clus scale="   35.293">  3  6 -1 -1</clus>
<clus scale="   39.679">  1  4  2 -1</clus>
<clus scale="  289.096">  1  5  2 -1</clus>
<clus scale="   39.679">  1  3  2 -1</clus>
</clustering>
</event>
<event>
 6    0  0.6687079E+002  0.1340832E+03  0.7546771E-02  0.1221520E+00
         21   -1    0    0  503  501  0.00000000000E+00  0.00000000000E+00  0.13386072638E+03  0.13386072638E+03  0.00000000000E+00 0.  1.
         21   -1    0    0  504  502 -0.00000000000E+00 -0.00000000000E+00 -0.32570497150E+03  0.32570497150E+03  0.00000000000E+00 0.  1.
         21    1    1    2  503  506 -0.13881628609E+02  0.77570263629E+02  0.12493957321E+02  0.79786868480E+02  0.00000000000E+00 0.  1.
         21    1    1    2  504  505  0.12008556530E+03 -0.75188356521E+02 -0.14456950901E+03  0.20242078669E+03  0.00000000000E+00 0.  1.
         21    1    1    2  505  501  0.20589275470E+02 -0.26106618693E+02  0.39544964669E+01  0.33483008322E+02  0.00000000000E+00 0.  1.
         21    1    1    2  506  502 -0.12679321216E+03  0.23724711585E+02 -0.63723189895E+02  0.14387503439E+03  0.00000000000E+00 0.  1.
<scales pt_clust_3="67.34448" pt_clust_4="134.08322" pt_clust_5="33.24867" pt_clust_6="14000.00000"></scales>
<clustering>
<clus scale="   33.249">  1  5  2 -1</clus>
<clus scale="   67.344">  1  3  2 -1</clus>
<clus scale="  134.083">  2  4  1 -1</clus>
<clus scale="   33.249">  1  3  2 -1</clus>
</clustering>
</event>
<event>
 6    0  0.6687079E+002  0.7675870E+02  0.7546771E-02  0.1338510E+00
         21   -1    0    0  505  501  0.00000000000E+00  0.00000000000E+00  0.21548517585E+03  0.21548517585E+03  0.00000000000E+00 0. -1.
         21   -1    0    0  504  502 -0.00000000000E+00 -0.00000000000E+00 -0.17290351905E+03  0.17290351905E+03  0.00000000000E+00 0. -1.
         21    1    1    2  503  506 -0.86000870188E+02 -0.87774754163E+02  0.64267530800E+00  0.12288600479E+03  0.00000000000E+00 0. -1.
         21    1    1    2  504  501  0.15637237357E+02 -0.25733165113E+02  0.11072316827E+02  0.32082942178E+02  0.00000000000E+00 0. -1.
         21    1    1    2  505  503  0.38632033730E+02  0.53214586987E+02  0.11051876853E+03  0.12860258355E+03  0.00000000000E+00 0. -1.
         21    1    1    2  506  502  0.31731599102E+02  0.60293332290E+02 -0.79652103867E+02  0.10481716439E+03  0.00000000000E+00 0. -1.
<scales pt_clust_3="76.75870" pt_clust_4="30.11177" pt_clust_5="61.03456" pt_clust_6="14000.00000"></scales>
<clustering>
<clus scale="   30.112">  1  4  2 -1</clus>
<clus scale="   61.035">  1  5  2 -1</clus>
<clus scale="   76.759">  1  3  2 -1</clus>
<clus scale="   30.112">  1  3  2 -1</clus>
</clustering>
</event>
<event>
 6    0  0.6687079E+002  0.1247092E+03  0.7546771E-02  0.1235524E+00
         21   -1    0    0  504  501  0.00000000000E+00  0.00000000000E+00  0.70395413429E+03  0.70395413429E+03  0.00000000000E+00 0. -1.
         21   -1    0    0  501  502 -0.00000000000E+00 -0.00000000000E+00 -0.11007168617E+03  0.11007168617E+03  0.00000000000E+00 0. -1.
         21    1    1    2  503  506 -0.57358220644E+02  0.91341683814E+01 -0.23226760047E+02  0.62553024625E+02  0.00000000000E+00 0. -1.
         21    1    1    2  504  505  0.31632989525E+02 -0.71244700045E+02  0.52855701578E+03  0.53427424816E+03  0.00000000000E+00 0. -1.
         21    1    1    2  505  503  0.96816902939E+02  0.69521795673E+02  0.83525954762E+02  0.14554510602E+03  0.00000000000E+00 0. -1.
         21    1    1    2  506  502 -0.71091671820E+02 -0.74112640094E+01  0.50262376154E+01  0.71653441655E+02  0.00000000000E+00 0. -1.
<scales pt_clust_3="30.93605" pt_clust_4="77.95161" pt_clust_5="119.89417" pt_clust_6="30.93605"></scales>
<clustering>
<clus scale="   30.936">  3  6 -1 -1</clus>
<clus scale="   77.952">  1  4  2 -1</clus>
<clus scale="  119.894">  1  5  2 -1</clus>
<clus scale="   77.952">  1  3  2 -1</clus>
</clustering>
</event>
<event>
 6    0  0.6687079E+002  0.8544224E+02  0.7546771E-02  0.1314280E+00
         21   -1    0    0  505  501  0.00000000000E+00  0.00000000000E+00  0.60916998344E+03  0.60916998344E+03  0.00000000000E+00 0. -1.
         21   -1    0    0  503  502 -0.00000000000E+00 -0.00000000000E+00 -0.56994339249E+02  0.56994339249E+02  0.00000000000E+00 0. -1.
         21    1    1    2  503  506  0.63941374588E+02 -0.71166473226E+02  0.62994091052E+02  0.11454877478E+03  0.00000000000E+00 0. -1.
         21    1    1    2  504  502 -0.47333442998E+02  0.62820073954E+02  0.34266214788E+02  0.85796212000E+02  0.00000000000E+00 0. -1.
         21    1    1    2  505  504 -0.59352962486E+01  0.44517870228E+02  0.10951769205E+03  0.11836888689E+03  0.00000000000E+00 0. -1.
         21    1    1    2  506  501 -0.10672635341E+02 -0.36171470956E+02  0.34539764630E+03  0.34745044902E+03  0.00000000000E+00 0. -1.
<scales pt_clust_3="14000.00000" pt_clust_4="85.44224" pt_clust_5="30.70591" pt_clust_6="37.71313"></scales>
<clustering>
<clus scale="   37.713">  1  6  2 -1</clus>
<clus scale="   30.706">  1  5  2 -1</clus>
<clus scale="   85.442">  2  4  1 -1</clus>
<clus scale="   37.713">  1  3  2 -1</clus>
</clustering>
</event>
<event>
 6    0  0.6687079E+002  0.7505642E+02  0.7546771E-02  0.1343696E+00
         21   -1    0    0  503  501  0.00000000000E+00  0.00000000000E+00  0.53388287017E+03  0.53388287017E+03  0.00000000000E+00 0. -1.
         21   -1    0    0  505  502 -0.00000000000E+00 -0.00000000000E+00 -0.31174757363E+03  0.31174757363E+03  0.00000000000E+00 0. -1.
         21    1    1    2  503  504  0.61534635717E+02  0.26147057482E+02  0.33916157623E+03  0.34568881208E+03  0.00000000000E+00 0. -1.
         21    1    1    2  504  506 -0.51999611473E+01 -0.87324595464E+02  0.15233986306E+03  0.17567031179E+03  0.00000000000E+00 0. -1.
         21    1    1    2  505  501  0.72169406315E+01  0.29773505845E+02 -0.24849350047E+03  0.25037485029E+03  0.00000000000E+00 0. -1.
         21    1    1    2  506  502 -0.63551615201E+02  0.31404032136E+02 -0.20872642275E+02  0.73896469636E+02  0.00000000000E+00 0. -1.
<scales pt_clust_3="67.82933" pt_clust_4="14000.00000" pt_clust_5="30.63570" pt_clust_6="75.05642"></scales>
<clustering>
<clus scale="   30.636">  2  5  1 -1</clus>
<clus scale="   67.829">  1  3  2 -1</clus>
<clus scale="   75.056">  2  6  1 -1</clus>
<clus scale="   67.829">  1  3  2 -1</clus>
</clustering>
</event>
<event>
 6    0  0.6687079E+002  0.1265543E+03  0.7546771E-02  0.1232660E+00
         21   -1    0    0  506  501  0.00000000000E+00  0.00000000000E+00  0.35520513306E+03  0.35520513306E+03  0.00000000000E+00 0.  1.
         21   -1    0    0  503  502 -0.00000000000E+00 -0.00000000000E+00 -0.16167721768E+03  0.16167721768E+03  0.00000000000E+00 0. -1.
         21    1    1    2  503  505  0.94991691149E+02 -0.88983104574E+02  0.25662669796E+01  0.13018448453E+03  0.00000000000E+00 0. -1.
         21    1    1    2  504  502 -0.10532484038E+03 -0.58493025316E+02 -0.17730337058E+02  0.12177487780E+03  0.00000000000E+00 0. -1.
         21    1    1    2  505  501  0.27457163903E+02  0.19781613011E+02  0.52339137832E+02  0.62326506495E+02  0.00000000000E+00 0.  1.
         21    1    1    2  506  504 -0.17124014675E+02  0.12769451688E+03  0.15635284763E+03  0.20259648191E+03  0.00000000000E+00 0.  1.
<scales pt_clust_3="126.55434" pt_clust_4="114.60977" pt_clust_5="33.84092" pt_clust_6="14000.00000"></scales>
<clustering>
<clus scale="   33.841">  1  5  2 -1</clus>
<clus scale="  114.610">  2  4  1 -1</clus>
<clus scale="  126.554">  2  3  1 -1</clus>
<clus scale="   33.841">  1  3  2 -1</clus>
</clustering>
</event>
<event>
 6    0  0.6687079E+002  0.1850751E+03  0.7546771E-02  0.1162980E+00
         21   -1    0    0  503  501  0.00000000000E+00  0.00000000000E+00  0.79613746500E+03  0.79613746500E+03  0.00000000000E+00 0. -1.
         21   -1    0    0  504  502 -0.00000000000E+00 -0.00000000000E+00 -0.17320373677E+03  0.17320373677E+03  0.00000000000E+00 0. -1.
         21    1    1    2  503  506  0.81199083669E+02 -0.11005387245E+03  0.36946752162E+03  0.39396877486E+03  0.00000000000E+00 0. -1.
         21    1    1    2  504  505 -0.17758281652E+02  0.41400218283E+02 -0.55461265237E+02  0.71451288182E+02  0.00000000000E+00 0. -1.
         21    1    1    2  505  501  0.13977730187E+03  0.11103493536E+03  0.82243991877E+02  0.19654649625E+03  0.00000000000E+00 0. -1.
         21    1    1    2  506  502 -0.20321810389E+03 -0.42381281191E+02  0.22668347997E+03  0.30737464247E+03  0.00000000000E+00 0. -1.
<scales pt_clust_3="131.87617" pt_clust_4="45.04814" pt_clust_5="14000.00000" pt_clust_6="185.07509"></scales>
<clustering>
<clus scale="   45.048">  2  4  1 -1</clus>
<clus scale="  131.876">  1  3  2 -1</clus>
<clus scale="  185.075">  1  6  2 -1</clus>
<clus scale="  131.876">  1  3  2 -1</clus>
</clustering>
</event>
<event>
 6    0  0.6687079E+002  0.1016710E+03  0.7546771E-02  0.1276821E+00
         21   -1    0    0  506  501  0.00000000000E+00  0.00000000000E+00  0.14650330625E+03  0.14650330625E+03  0.00000000000E+00 0.  1.
         21   -1    0    0  504  502 -0.00000000000E+00 -0.00000000000E+00 -0.32109515030E+03  0.32109515030E+03  0.00000000000E+00 0.  1.
         21    1    1    2  503  501 -0.38397596352E+02 -0.79145376422E+01  0.72597256229E+02  0.82506829558E+02  0.00000000000E+00 0.  1.
         21    1    1    2  504  503  0.29685432298E+02  0.12746587730E+03 -0.21061822089E+03  0.24796937258E+03  0.00000000000E+00 0.  1.
         21    1    1    2  505  502 -0.11360002243E+02 -0.29688356030E+02 -0.31736089787E+02  0.44918008968E+02  0.00000000000E+00 0.  1.
         21    1    1    2  506  505  0.20072166296E+02 -0.89862983631E+02 -0.48347896048E+01  0.92204245442E+02  0.00000000000E+00 0.  1.
<scales pt_clust_3="39.50755" pt_clust_4="101.67101" pt_clust_5="31.78755" pt_clust_6="14000.00000"></scales>
<clustering>
<clus scale="   31.788">  2  5  1 -1</clus>
<clus scale="   39.508">  1  3  2 -1</clus>
<clus scale="  101.671">  2  4  1 -1</clus>
<clus scale="   39.508">  1  3  2 -1</clus>
</clustering>
</event>
<event>
 6    0  0.6687079E+002  0.9220723E+02  0.7546771E-02  0.1297593E+00
         21   -1    0    0  506  501  0.00000000000E+00  0.00000000000E+00  0.91044470194E+03  0.91044470194E+03  0.00000000000E+00 0. -1.
         21   -1    0    0  505  502 -0.00000000000E+00 -0.00000000000E+00 -0.22309736778E+03  0.22309736778E+03  0.00000000000E+00 0.  1.
         21    1    1    2  503  504  0.74334362640E+02 -0.67873034880E+02  0.34932925651E+03  0.36354267396E+03  0.00000000000E+00 0. -1.
         21    1    1    2  504  502 -0.64814927155E+02  0.46114875550E+02 -0.20072247762E+03  0.21590986442E+03  0.00000000000E+00 0.  1.
         21    1    1    2  505  501 -0.54847207456E+02  0.34865789579E+02  0.43860327922E+03  0.44339223718E+03  0.00000000000E+00 0. -1.
         21    1    1    2  506  503  0.45327771971E+02 -0.13107630248E+02  0.10013727605E+03  0.11069729417E+03  0.00000000000E+00 0. -1.
<scales pt_clust_3="30.66850" pt_clust_4="80.59581" pt_clust_5="64.99107" pt_clust_6="30.66850"></scales>
<clustering>
<clus scale="   30.668">  3  6 -1 -1</clus>
<clus scale="   64.991">  1  5  2 -1</clus>
<clus scale="   80.596">  2  4  1 -1</clus>
<clus scale="   64.991">  1  3  2 -1</clus>
</clustering>
</event>
<event>
 6    0  0.6687079E+002  0.7365076E+02  0.7546771E-02  0.1348101E+00
         21   -1    0    0  504  501  0.00000000000E+00  0.00000000000E+00  0.90632549448E+02  0.90632549448E+02  0.00000000000E+00 0.  1.
         21   -1    0    0  503  502 -0.00000000000E+00 -0.00000000000E+00 -0.61072433950E+03  0.61072433950E+03  0.00000000000E+00 0. -1.
         21    1    1    2  503  505  0.38116545977E+02  0.80142272913E+01 -0.68277325479E+02  0.78605929107E+02  0.00000000000E+00 0. -1.
         21    1    1    2  504  502 -0.55103746406E+02 -0.18170381306E+02 -0.12362165553E+03  0.13656097298E+03  0.00000000000E+00 0. -1.
         21    1    1    2  505  506  0.53168183508E+01  0.82543707183E+02 -0.38478063792E+03  0.39357066896E+03  0.00000000000E+00 0. -1.
         21    1    1    2  506  501  0.11670382079E+02 -0.72387553168E+02  0.56587828873E+02  0.92619317899E+02  0.00000000000E+00 0.  1.
<scales pt_clust_3="38.94995" pt_clust_4="48.66101" pt_clust_5="14000.00000" pt_clust_6="73.65076"></scales>
<clustering>
<clus scale="   38.950">  2  3  1 -1</clus>
<clus scale="   48.661">  2  4  1 -1</clus>
<clus scale="   73.651">  1  6  2 -1</clus>
<clus scale="   73.651">  1  3  2 -1</clus>
</clustering>
</event>
<event>
 6    0  0.6687079E+002  0.1018668E+03  0.7546771E-02  0.1276419E+00
         21   -1    0    0  506  501  0.00000000000E+00  0.00000000000E+00  0.30879471048E+03  0.30879471048E+03  0.00000000000E+00 0. -1.
         21   -1    0    0  505  502 -0.00000000000E+00 -0.00000000000E+00 -0.24435461031E+04  0.24435461031E+04  0.00000000000E+00 0.  1.
         21    1    1    2  503  501  0.30891309238E+02  0.19596131088E+02  0.16629360604E+02  0.40184785356E+02  0.00000000000E+00 0. -1.
         21    1    1    2  504  502 -0.31544141143E+02 -0.96720427382E+02 -0.23809916098E+04  0.23831640564E+04  0.00000000000E+00 0.  1.
         21    1    1    2  505  503  0.43804114625E+02  0.12457708436E+03  0.22958416505E+03  0.26485305218E+03  0.00000000000E+00 0. -1.
         21    1    1    2  506  504 -0.43151282719E+02 -0.47452788070E+02  0.26691532705E-01  0.64138919607E+02  0.00000000000E+00 0.  1.
<scales pt_clust_3="36.58253" pt_clust_4="14000.00000" pt_clust_5="101.86681" pt_clust_6="60.11213"></scales>
<clustering>
<clus scale="   36.583">  1  3  2 -1</clus>
<clus scale="   60.112">  1  6  2 -1</clus>
<clus scale="  101.867">  1  5  2 -1</clus>
<clus scale="   36.583">  1  3  2 -1</clus>
</clustering>
</event>
<event>
 6    0  0.6687079E+002  0.1300638E+03  0.7546771E-02  0.1227361E+00
         21   -1    0    0  504  501  0.00000000000E+00  0.00000000000E+00  0.11207205552E+04  0.11207205552E+04  0.00000000000E+00 0.  1.
         21   -1    0    0  505  502 -0.00000000000E+00 -0.00000000000E+00 -0.73593275780E+03  0.73593275780E+03  0.00000000000E+00 0. -1.
         21    1    1    2  503  502 -0.27732141044E+02 -0.21465593340E+02 -0.51800000709E+02  0.62554643455E+02  0.00000000000E+00 0.  1.
         21    1    1    2  504  503  0.93783436698E+02  0.10846817485E+03 -0.64452686458E+03  0.66028445167E+03  0.00000000000E+00 0. -1.
         21    1    1    2  505  506 -0.98598400023E+01  0.30242165680E+02 -0.11249853508E+02  0.33739653730E+02  0.00000000000E+00 0. -1.
         21    1    1    2  506  501 -0.56191455652E+02 -0.11724474719E+03  0.10923645162E+04  0.11000745641E+04  0.00000000000E+00 0.  1.
<scales pt_clust_3="34.29457" pt_clust_4="14000.00000" pt_clust_5="31.80888" pt_clust_6="130.06379"></scales>
<clustering>
<clus scale="   31.809">  2  5  1 -1</clus>
<clus scale="   34.295">  2  3  1 -1</clus>
<clus scale="  130.064">  1  6  2 -1</clus>
<clus scale="  130.064">  1  3  2 -1</clus>
</clustering>
</event>
<event>
 6    0  0.6687079E+002  0.1327499E+03  0.7546771E-02  0.1223432E+00
         21   -1    0    0  503  501  0.00000000000E+00  0.00000000000E+00  0.42435172716E+03  0.42435172716E+03  0.00000000000E+00 0. -1.
         21   -1    0    0  505  502 -0.00000000000E+00 -0.00000000000E+00 -0.15564156980E+03  0.15564156980E+03  0.00000000000E+00 0.  1.
         21    1    1    2  503  504  0.22141037211E+02  0.43430249662E+02  0.41545415899E+02  0.64050243533E+02  0.00000000000E+00 0. -1.
         21    1    1    2  504  502 -0.86724758967E+02 -0.15220000064E+03  0.17009794272E+02  0.17599817361E+03  0.00000000000E+00 0.  1.
         21    1    1    2  505  506 -0.57628040871E+02  0.11337869690E+03  0.46013410434E+02  0.13525144711E+03  0.00000000000E+00 0.  1.
         21    1    1    2  506  501  0.12221176263E+03 -0.46089459192E+01  0.16414153675E+03  0.20469343271E+03  0.00000000000E+00 0. -1.
<scales pt_clust_3="48.74846" pt_clust_4="14000.00000" pt_clust_5="132.74987" pt_clust_6="134.27505"></scales>
<clustering>
<clus scale="   48.748">  1  3  2 -1</clus>
<clus scale="  134.275">  1  6  2 -1</clus>
<clus scale="  132.750">  2  5  1 -1</clus>
<clus scale="   48.748">  1  3  2 -1</clus>
</clustering>
</event>
<event>
 6    0  0.6687079E+002  0.1663293E+03  0.7546771E-02  0.1181731E+00
         21   -1    0    0  503  501  0.00000000000E+00  0.00000000000E+00  0.59388534889E+03  0.59388534889E+03  0.00000000000E+00 0.  1.
         21   -1    0    0  504  502 -0.00000000000E+00 -0.00000000000E+00 -0.64652069993E+02  0.64652069993E+02  0.00000000000E+00 0.  1.
         21    1    1    2  503  502 -0.14797537179E+03 -0.22097215369E+02  0.60883720128E+02  0.16152964112E+03  0.00000000000E+00 0.  1.
         21    1    1    2  504  505  0.31379274089E+02  0.21692807295E+02  0.62009309626E+02  0.72803785691E+02  0.00000000000E+00 0.  1.
         21    1    1    2  505  506  0.68139720164E+02 -0.14769752929E+02  0.20382169107E+03  0.21541691859E+03  0.00000000000E+00 0.  1.
         21    1    1    2  506  501  0.48456377540E+02  0.15174161003E+02  0.20251855808E+03  0.20878707348E+03  0.00000000000E+00 0.  1.
<scales pt_clust_3="149.61617" pt_clust_4="34.99474" pt_clust_5="34.99474" pt_clust_6="30.07293"></scales>
<clustering>
<clus scale="   30.073">  5  6 -1 -1</clus>
<clus scale="   34.995">  4  5 -1 -1</clus>
<clus scale="  149.616">  2  3  1 -1</clus>
<clus scale="  166.329">  1  3  2 -1</clus>
</clustering>
</event>
<event>
 6    0  0.6687079E+002  0.1330944E+03  0.7546771E-02  0.1222935E+00
         21   -1    0    0  505  501  0.00000000000E+00  0.00000000000E+00  0.25630440955E+04  0.25630440955E+04  0.00000000000E+00 0. -1.
         21   -1    0    0  504  502 -0.00000000000E+00 -0.00000000000E+00 -0.74073640888E+02  0.74073640888E+02  0.00000000000E+00 0.  1.
         21    1    1    2  503  501  0.42838187093E+00  0.13371060661E+03  0.23788615391E+04  0.23826164047E+04  0.00000000000E+00 0. -1.
         21    1    1    2  504  503  0.17534903655E+01 -0.11732276745E+03  0.23676517086E+02  0.11970081016E+03  0.00000000000E+00 0.  1.
         21    1    1    2  505  506 -0.38577471426E+02 -0.26428572625E+02  0.85005104617E+02  0.97018341377E+02  0.00000000000E+00 0. -1.
         21    1    1    2  506  502  0.36395599190E+02  0.10040733472E+02  0.14272938250E+01  0.37782180148E+02  0.00000000000E+00 0.  1.
<scales pt_clust_3="133.09435" pt_clust_4="14000.00000" pt_clust_5="42.94602" pt_clust_6="37.75521"></scales>
<clustering>
<clus scale="   37.755">  2  6  1 -1</clus>
<clus scale="   42.946">  2  5  1 -1</clus>
<clus scale="  133.094">  1  3  2 -1</clus>
<clus scale="  133.094">  1  3  2 -1</clus>
</clustering>
</event>
<event>
 6    0  0.6687079E+002  0.7032625E+02  0.7546771E-02  0.1358987E+00
         21   -1    0    0  505  501  0.00000000000E+00  0.00000000000E+00  0.43099747730E+03  0.43099747730E+03  0.00000000000E+00 0. -1.
         21   -1    0    0  503  502 -0.00000000000E+00 -0.00000000000E+00 -0.66168556395E+02  0.66168556395E+02  0.00000000000E+00 0. -1.
         21    1    1    2  503  504 -0.47948373744E+02  0.26101927971E+02 -0.12418254141E+02  0.55987232691E+02  0.00000000000E+00 0. -1.
         21    1    1    2  504  501 -0.24409749202E+02  0.73405295369E+02  0.19044129105E+03  0.20555305539E+03  0.00000000000E+00 0. -1.
         21    1    1    2  505  506  0.36240256733E+02 -0.16562503140E+02  0.10985514951E+03  0.11685814731E+03  0.00000000000E+00 0. -1.
         21    1    1    2  506  502  0.36117866213E+02 -0.82944720200E+02  0.76950734484E+02  0.11876759830E+03  0.00000000000E+00 0. -1.
<scales pt_clust_3="51.86696" pt_clust_4="70.32625" pt_clust_5="39.84561" pt_clust_6="14000.00000"></scales>
<clustering>
<clus scale="   39.846">  1  5  2 -1</clus>
<clus scale="   51.867">  2  3  1 -1</clus>
<clus scale="   70.326">  1  4  2 -1</clus>
<clus scale="   39.846">  1  3  2 -1</clus>
</clustering>
</event>
<event>
 6    0  0.6687079E+002  0.1167735E+03  0.7546771E-02  0.1248517E+00
         21   -1    0    0  505  501  0.00000000000E+00  0.00000000000E+00  0.12948220796E+03  0.12948220796E+03  0.00000000000E+00 0.  1.
         21   -1    0    0  506  502 -0.00000000000E+00 -0.00000000000E+00 -0.44923975927E+03  0.44923975927E+03  0.00000000000E+00 0. -1.
         21    1    1    2  503  502  0.10477676169E+03  0.22939948392E+02 -0.35724833196E+03  0.37300238835E+03  0.00000000000E+00 0. -1.
         21    1    1    2  504  501 -0.73580351325E+02 -0.14237497587E+02  0.13870825083E+01  0.74957977804E+02  0.00000000000E+00 0.  1.
         21    1    1    2  505  503  0.17157793197E+02  0.27400788521E+02  0.58135447156E+02  0.66520096925E+02  0.00000000000E+00 0.  1.
         21    1    1    2  506  504 -0.48354203562E+02 -0.36103239325E+02 -0.22031749014E+02  0.64241504158E+02  0.00000000000E+00 0.  1.
<scales pt_clust_3="109.94540" pt_clust_4="35.16829" pt_clust_5="32.32945" pt_clust_6="35.16829"></scales>
<clustering>
<clus scale="   32.329">  1  5  2 -1</clus>
<clus scale="   35.168">  4  6 -1 -1</clus>
<clus scale="  109.945">  2  3  1 -1</clus>
<clus scale="   32.329">  1  3  2 -1</clus>
</clustering>
</event>
<event>
 6    0  0.6687079E+002  0.1120758E+03  0.7546771E-02  0.1256773E+00
         21   -1    0    0  506  501  0.00000000000E+00  0.00000000000E+00  0.64015862792E+03  0.64015862792E+03  0.00000000000E+00 0. -1.
         21   -1    0    0  503  502 -0.00000000000E+00 -0.00000000000E+00 -0.55803796093E+02  0.55803796093E+02  0.00000000000E+00 0. -1.
         21    1    1    2  503  504  0.80299540449E+02  0.75997499305E+02  0.67744978383E+02  0.12966502301E+03  0.00000000000E+00 0. -1.
         21    1    1    2  504  501  0.11498401875E+02  0.43608365157E+02  0.16123593380E+03  0.16742439818E+03  0.00000000000E+00 0.  1.
         21    1    1    2  505  502 -0.91039178315E+02 -0.70504331031E+02  0.15815583845E+03  0.19563297758E+03  0.00000000000E+00 0. -1.
         21    1    1    2  506  505 -0.75876400873E+00 -0.49101533432E+02  0.19721808120E+03  0.20324002525E+03  0.00000000000E+00 0. -1.
<scales pt_clust_3="14000.00000" pt_clust_4="45.09881" pt_clust_5="112.07584" pt_clust_6="31.02055"></scales>
<clustering>
<clus scale="   45.099">  1  4  2 -1</clus>
<clus scale="   31.021">  1  6  2 -1</clus>
<clus scale="  112.076">  1  5  2 -1</clus>
<clus scale="   45.099">  1  3  2 -1</clus>
</clustering>
</event>
<event>
 6    0  0.6687079E+002  0.8179483E+02  0.7546771E-02  0.1324034E+00
         21   -1    0    0  504  501  0.00000000000E+00  0.00000000000E+00  0.13327649861E+04  0.13327649861E+04  0.00000000000E+00 0.  1.
         21   -1    0    0  505  502 -0.00000000000E+00 -0.00000000000E+00 -0.34140533218E+03  0.34140533218E+03  0.00000000000E+00 0. -1.
         21    1    1    2  503  502  0.15725540618E+01  0.47783275542E+02 -0.20377407243E+03  0.20930739820E+03  0.00000000000E+00 0. -1.
         21    1    1    2  504  506  0.30591627402E+01  0.81952798553E+02  0.12908160543E+04  0.12934186119E+04  0.00000000000E+00 0.  1.
         21    1    1    2  505  501 -0.27681185720E+02 -0.57041858832E+02 -0.59830810094E+02  0.87176530892E+02  0.00000000000E+00 0.  1.
         21    1    1    2  506  503  0.23049468918E+02 -0.72694215263E+02 -0.35851517860E+02  0.84267777252E+02  0.00000000000E+00 0.  1.
<scales pt_clust_3="47.80915" pt_clust_4="81.79483" pt_clust_5="40.99363" pt_clust_6="14000.00000"></scales>
<clustering>
<clus scale="   47.809">  2  3  1 -1</clus>
<clus scale="   40.994">  2  5  1 -1</clus>
<clus scale="   81.795">  1  4  2 -1</clus>
<clus scale="   81.795">  1  3  2 -1</clus>
</clustering>
</event>
<event>
 6    0  0.6687079E+002  0.2415382E+03  0.7546771E-02  0.1118772E+00
         21   -1    0    0  505  501  0.00000000000E+00  0.00000000000E+00  0.29027532888E+03  0.29027532888E+03  0.00000000000E+00 0.  1.
         21   -1    0    0  504  502 -0.00000000000E+00 -0.00000000000E+00 -0.60150633846E+03  0.60150633846E+03  0.00000000000E+00 0. -1.
         21    1    1    2  503  502  0.19858577636E+03  0.99725121661E+02 -0.30138617675E+03  0.37445298503E+03  0.00000000000E+00 0. -1.
         21    1    1    2  504  501 -0.32493656066E+02  0.16672128261E+02 -0.16649777527E+03  0.17045617242E+03  0.00000000000E+00 0. -1.
         21    1    1    2  505  506 -0.20125512295E+03 -0.10367931761E+03  0.19092440916E+03  0.29615056209E+03  0.00000000000E+00 0.  1.
         21    1    1    2  506  503  0.35163002652E+02 -0.12717932307E+02 -0.34271466719E+02  0.50721947802E+02  0.00000000000E+00 0. -1.
<scales pt_clust_3="31.50552" pt_clust_4="36.52119" pt_clust_5="229.00170" pt_clust_6="31.50552"></scales>
<clustering>
<clus scale="   31.506">  3  6 -1 -1</clus>
<clus scale="   36.521">  2  4  1 -1</clus>
<clus scale="  229.002">  1  5  2 -1</clus>
<clus scale="  229.002">  1  3  2 -1</clus>
</clustering>
</event>
<event>
 6    0  0.6687079E+002  0.1748684E+03  0.7546771E-02  0.1172864E+00
         21   -1    0    0  506  501  0.00000000000E+00  0.00000000000E+00  0.77744820626E+03  0.77744820626E+03  0.00000000000E+00 0. -1.
         21   -1    0    0  505  502 -0.00000000000E+00 -0.00000000000E+00 -0.39318434100E+02  0.39318434100E+02  0.00000000000E+00 0. -1.
         21    1    1    2  503  501  0.97257553988E+02  0.44743614003E+02  0.29834525613E+03  0.31697147294E+03  0.00000000000E+00 0. -1.
         21    1    1    2  504  502 -0.97784786671E+02 -0.67537504579E+02  0.17207496014E+03  0.20912429543E+03  0.00000000000E+00 0. -1.
         21    1    1    2  505  503  0.25199901598E+02  0.60465702863E+02  0.12650300139E+03  0.14245752217E+03  0.00000000000E+00 0. -1.
         21    1    1    2  506  504 -0.24672668914E+02 -0.37671812287E+02  0.14120655449E+03  0.14821334982E+03  0.00000000000E+00 0. -1.
<scales pt_clust_3="52.55624" pt_clust_4="171.88626" pt_clust_5="52.55624" pt_clust_6="36.31382"></scales>
<clustering>
<clus scale="   36.314">  4  6 -1 -1</clus>
<clus scale="   52.556">  3  5 -1 -1</clus>
<clus scale="  171.886">  2  4  1 -1</clus>
<clus scale="  174.868">  1  3  2 -1</clus>
</clustering>
</event>
<event>
 6    0  0.6687079E+002  0.6785698E+02  0.7546771E-02  0.1367536E+00
         21   -1    0    0  503  501  0.00000000000E+00  0.00000000000E+00  0.27496711481E+03  0.27496711481E+03  0.00000000000E+00 0.  1.
         21   -1    0    0  504  502 -0.00000000000E+00 -0.00000000000E+00 -0.14325218010E+04  0.14325218010E+04  0.00000000000E+00 0.  1.
         21    1    1    2  503  506  0.68463228548E+02  0.34381502471E+01  0.19501232431E+03  0.20670955752E+03  0.00000000000E+00 0.  1.
         21    1    1    2  504  501 -0.63841027128E+02  0.33329728106E+02 -0.29715928024E+01  0.72078969778E+02  0.00000000000E+00 0.  1.
         21    1    1    2  505  502 -0.60028399489E+02 -0.93661486047E+01 -0.13639020209E+04  0.13652545023E+04  0.00000000000E+00 0.  1.
         21    1    1    2  506  505  0.55406198069E+02 -0.27401729749E+02  0.14306603216E+02  0.63445886181E+02  0.00000000000E+00 0.  1.
<scales pt_clust_3="14000.00000" pt_clust_4="67.85698" pt_clust_5="60.75470" pt_clust_6="45.64597"></scales>
<clustering>
<clus scale="   60.755">  2  5  1 -1</clus>
<clus scale="   45.646">  2  6  1 -1</clus>
<clus scale="   67.857">  2  4  1 -1</clus>
<clus scale="   67.857">  1  3  2 -1</clus>
</clustering>
</event>
<event>
 6    0  0.6687079E+002  0.7781445E+02  0.7546771E-02  0.1335371E+00
         21   -1    0    0  505  501  0.00000000000E+00  0.00000000000E+00  0.28190443793E+03  0.28190443793E+03  0.00000000000E+00 0. -1.
         21   -1    0    0  503  502 -0.00000000000E+00 -0.00000000000E+00 -0.33322822469E+03  0.33322822469E+03  0.00000000000E+00 0. -1.
         21    1    1    2  503  504 -0.63501412576E+02  0.61811241898E+02  0.15881770103E+02  0.90029382124E+02  0.00000000000E+00 0. -1.
         21    1    1    2  504  501  0.85259566890E+02 -0.29353625132E+02  0.87624527461E+02  0.12573339599E+03  0.00000000000E+00 0. -1.
         21    1    1    2  505  506 -0.54727460287E+02 -0.30713649735E+02  0.11313679324E+03  0.12937680307E+03  0.00000000000E+00 0. -1.
         21    1    1    2  506  502  0.32969305973E+02 -0.17439670303E+01 -0.26796687755E+03  0.26999308144E+03  0.00000000000E+00 0. -1.
<scales pt_clust_3="14000.00000" pt_clust_4="77.81445" pt_clust_5="59.27305" pt_clust_6="33.01540"></scales>
<clustering>
<clus scale="   33.015">  2  6  1 -1</clus>
<clus scale="   59.273">  1  5  2 -1</clus>
<clus scale="   77.814">  1  4  2 -1</clus>
<clus scale="   59.273">  1  3  2 -1</clus>
</clustering>
</event>
<event>
 6    0  0.6687079E+002  0.9399807E+02  0.7546771E-02  0.1293449E+00
         21   -1    0    0  503  501  0.00000000000E+00  0.00000000000E+00  0.33014423727E+03  0.33014423727E+03  0.00000000000E+00 0. -1.
         21   -1    0    0  505  502 -0.00000000000E+00 -0.00000000000E+00 -0.57770557853E+03  0.57770557853E+03  0.00000000000E+00 0.  1.
         21    1    1    2  503  506  0.66985738171E+02  0.15481600330E+02  0.29184572719E+03  0.29983445023E+03  0.00000000000E+00 0. -1.
         21    1    1    2  504  501 -0.21403578474E+02 -0.99206748726E+02 -0.25937190101E+03  0.27852087031E+03  0.00000000000E+00 0.  1.
         21    1    1    2  505  504 -0.64488138030E+02 -0.21480138544E+01 -0.45319497283E+02  0.78849164511E+02  0.00000000000E+00 0.  1.
         21    1    1    2  506  502  0.18905978332E+02  0.85873162250E+02 -0.23471567015E+03  0.25064533075E+03  0.00000000000E+00 0.  1.
<scales pt_clust_3="68.26108" pt_clust_4="93.99807" pt_clust_5="64.52390" pt_clust_6="14000.00000"></scales>
<clustering>
<clus scale="   64.524">  2  5  1 -1</clus>
<clus scale="   68.261">  1  3  2 -1</clus>
<clus scale="   93.998">  1  4  2 -1</clus>
<clus scale="   68.261">  1  3  2 -1</clus>
</clustering>
</event>
<event>
 6    0  0.6687079E+002  0.8896030E+02  0.7546771E-02  0.1305389E+00
         21   -1    0    0  505  501  0.00000000000E+00  0.00000000000E+00  0.37119735216E+03  0.37119735216E+03  0.00000000000E+00 0.  1.
         21   -1    0    0  506  502 -0.00000000000E+00 -0.00000000000E+00 -0.35357282161E+03  0.35357282161E+03  0.00000000000E+00 0.  1.
         21    1    1    2  503  502 -0.60556733225E+02  0.77440187581E+02 -0.91816473509E+01  0.98734002449E+02  0.00000000000E+00 0.  1.
         21    1    1    2  504  501  0.11774150890E+03  0.16586737278E+02  0.10768905844E+03  0.16042168207E+03  0.00000000000E+00 0.  1.
         21    1    1    2  505  503 -0.34760101201E+02 -0.29253501890E+02  0.18527910624E+03  0.19076786736E+03  0.00000000000E+00 0.  1.
         21    1    1    2  506  504 -0.22424674471E+02 -0.64773422969E+02 -0.26616198679E+03  0.27484662188E+03  0.00000000000E+00 0.  1.
<scales pt_clust_3="14000.00000" pt_clust_4="88.96030" pt_clust_5="45.43162" pt_clust_6="69.47242"></scales>
<clustering>
<clus scale="   45.432">  1  5  2 -1</clus>
<clus scale="   69.472">  2  6  1 -1</clus>
<clus scale="   88.960">  1  4  2 -1</clus>
<clus scale="   45.432">  1  3  2 -1</clus>
</clustering>
</event>
<event>
 6    0  0.6687079E+002  0.8381607E+02  0.7546771E-02  0.1318558E+00
         21   -1    0    0  506  501  0.00000000000E+00  0.00000000000E+00  0.24641031791E+03  0.24641031791E+03  0.00000000000E+00 0.  1.
         21   -1    0    0  503  502 -0.00000000000E+00 -0.00000000000E+00 -0.16553426978E+03  0.16553426978E+03  0.00000000000E+00 0.  1.
         21    1    1    2  503  504 -0.36441198029E+02 -0.14451075333E+02 -0.93298978418E+02  0.10120026614E+03  0.00000000000E+00 0.  1.
         21    1    1    2  504  501 -0.18034280776E+02  0.59747292334E+02  0.18397668151E+02  0.65064955373E+02  0.00000000000E+00 0.  1.
         21    1    1    2  505  502  0.11452553302E+03 -0.58035141228E+02  0.11061957251E+03  0.16947231382E+03  0.00000000000E+00 0.  1.
         21    1    1    2  506  505 -0.60050054217E+02  0.12738924226E+02  0.45157785887E+02  0.76207052351E+02  0.00000000000E+00 0.  1.
<scales pt_clust_3="39.20197" pt_clust_4="62.71749" pt_clust_5="14000.00000" pt_clust_6="83.81607"></scales>
<clustering>
<clus scale="   39.202">  2  3  1 -1</clus>
<clus scale="   62.717">  2  4  1 -1</clus>
<clus scale="   83.816">  1  6  2 -1</clus>
<clus scale="   83.816">  1  3  2 -1</clus>
</clustering>
</event>
<event>
 6    0  0.6687079E+002  0.2165054E+03  0.7546771E-02  0.1136516E+00
         21   -1    0    0  505  501  0.00000000000E+00  0.00000000000E+00  0.19416115483E+03  0.19416115483E+03  0.00000000000E+00 0. -1.
         21   -1    0    0  504  502 -0.00000000000E+00 -0.00000000000E+00 -0.90510248235E+03  0.90510248235E+03  0.00000000000E+00 0. -1.
         21    1    1    2  503  501  0.48909482497E+02  0.11368075048E+02 -0.34720348080E+02  0.61048121832E+02  0.00000000000E+00 0.  1.
         21    1    1    2  504  506  0.11911194197E+02 -0.15516091459E+03 -0.62769376552E+03  0.64669641195E+03  0.00000000000E+00 0. -1.
         21    1    1    2  505  502 -0.19841701721E+03  0.23465988470E+02 -0.59300551071E+02  0.20841430059E+03  0.00000000000E+00 0. -1.
         21    1    1    2  506  503  0.13759634052E+03  0.12032685108E+03  0.10773337146E+02  0.18310480280E+03  0.00000000000E+00 0. -1.
<scales pt_clust_3="43.56625" pt_clust_4="155.61743" pt_clust_5="199.91346" pt_clust_6="43.56625"></scales>
<clustering>
<clus scale="   43.566">  3  6 -1 -1</clus>
<clus scale="  155.617">  2  4  1 -1</clus>
<clus scale="  199.913">  2  5  1 -1</clus>
<clus scale="  216.505">  1  3  2 -1</clus>
</clustering>
</event>
<event>
 6    0  0.6687079E+002  0.1455524E+03  0.7546771E-02  0.1206047E+00
         21   -1    0    0  503  501  0.00000000000E+00  0.00000000000E+00  0.15874546916E+04  0.15874546916E+04  0.00000000000E+00 0.  1.
         21   -1    0    0  504  502 -0.00000000000E+00 -0.00000000000E+00 -0.35676700529E+03  0.35676700529E+03  0.00000000000E+00 0.  1.
         21    1    1    2  503  505 -0.31230762864E+02  0.20415584830E+02 -0.29873534299E+02  0.47797329470E+02  0.00000000000E+00 0.  1.
         21    1    1    2  504  506  0.28529884394E+02  0.31081383073E+02 -0.31830482418E+02  0.52850603481E+02  0.00000000000E+00 0.  1.
         21    1    1    2  505  502 -0.11227845415E+03  0.98929245533E+01 -0.26122216626E+03  0.28450191804E+03  0.00000000000E+00 0.  1.
         21    1    1    2  506  501  0.11497933262E+03 -0.61389892456E+02  0.15536138693E+04  0.15590718459E+04  0.00000000000E+00 0.  1.
<scales pt_clust_3="37.16521" pt_clust_4="42.19013" pt_clust_5="37.16521" pt_clust_6="130.43359"></scales>
<clustering>
<clus scale="   37.165">  3  5 -1 -1</clus>
<clus scale="   42.190">  2  4  1 -1</clus>
<clus scale="  130.434">  1  6  2 -1</clus>
<clus scale="  130.434">  1  3  2 -1</clus>
</clustering>
</event>
<event>
 6    0  0.6687079E+002  0.1835680E+03  0.7546771E-02  0.1164394E+00
         21   -1    0    0  504  501  0.00000000000E+00  0.00000000000E+00  0.69743821824E+03  0.69743821824E+03  0.00000000000E+00 0.  1.
         21   -1    0    0  505  502 -0.00000000000E+00 -0.00000000000E+00 -0.16437589685E+03  0.16437589685E+03  0.00000000000E+00 0. -1.
         21    1    1    2  503  501 -0.48141542854E+02  0.57983867471E+02  0.27640512784E+03  0.28649525603E+03  0.00000000000E+00 0.  1.
         21    1    1    2  504  506  0.97745547361E+02 -0.93885243245E+02  0.72849343537E+02  0.15386896302E+03  0.00000000000E+00 0.  1.
         21    1    1    2  505  503 -0.95959636413E+02  0.74545146229E+02  0.28150760158E+03  0.30661337283E+03  0.00000000000E+00 0.  1.
         21    1    1    2  506  502  0.46355631906E+02 -0.38643770456E+02 -0.97699751568E+02  0.11483652320E+03  0.00000000000E+00 0. -1.
<scales pt_clust_3="36.78863" pt_clust_4="177.52486" pt_clust_5="36.78863" pt_clust_6="60.35052"></scales>
<clustering>
<clus scale="   36.789">  3  5 -1 -1</clus>
<clus scale="   60.351">  2  6  1 -1</clus>
<clus scale="  177.525">  2  4  1 -1</clus>
<clus scale="  183.568">  1  3  2 -1</clus>
</clustering>
</event>
<event>
 6    0  0.6687079E+002  0.9599977E+02  0.7546771E-02  0.1288940E+00
         21   -1    0    0  506  501  0.00000000000E+00  0.00000000000E+00  0.79388143976E+03  0.79388143976E+03  0.00000000000E+00 0.  1.
         21   -1    0    0  504  502 -0.00000000000E+00 -0.00000000000E+00 -0.11740297573E+04  0.11740297573E+04  0.00000000000E+00 0.  1.
         21    1    1    2  503  501 -0.64709337511E+01  0.89594853930E+02  0.38774227986E+03  0.39801154057E+03  0.00000000000E+00 0.  1.
         21    1    1    2  504  505  0.35462307140E+02  0.77815550906E+01 -0.11509939432E+04  0.11515664050E+04  0.00000000000E+00 0.  1.
         21    1    1    2  505  503  0.58236733783E+01 -0.99831175048E+02  0.13616718698E+03  0.16894283499E+03  0.00000000000E+00 0. -1.
         21    1    1    2  506  502 -0.34815046767E+02  0.24547660282E+01  0.24693615877E+03  0.24939041655E+03  0.00000000000E+00 0.  1.
<scales pt_clust_3="14000.00000" pt_clust_4="36.28847" pt_clust_5="95.99977" pt_clust_6="34.90148"></scales>
<clustering>
<clus scale="   34.901">  1  6  2 -1</clus>
<clus scale="   36.288">  2  4  1 -1</clus>
<clus scale="   96.000">  2  5  1 -1</clus>
<clus scale="   34.901">  1  3  2 -1</clus>
</clustering>
</event>
<event>
 6    0  0.6687079E+002  0.1259592E+03  0.7546771E-02  0.1233578E+00
         21   -1    0    0  503  501  0.00000000000E+00  0.00000000000E+00  0.84980560931E+02  0.84980560931E+02  0.00000000000E+00 0. -1.
         21   -1    0    0  506  502 -0.00000000000E+00 -0.00000000000E+00 -0.76406364222E+03  0.76406364222E+03  0.00000000000E+00 0. -1.
         21    1    1    2  503  505 -0.39239260408E+02 -0.13079638627E+03 -0.98824715713E+01  0.13691266364E+03  0.00000000000E+00 0. -1.
         21    1    1    2  504  502 -0.19144369824E+02 -0.35408538020E+02 -0.16647567156E+03  0.17127294206E+03  0.00000000000E+00 0.  1.
         21    1    1    2  505  504  0.27543605635E+02  0.15178255303E+03 -0.46558468398E+03  0.49047496529E+03  0.00000000000E+00 0. -1.
         21    1    1    2  506  501  0.30840024597E+02  0.14422371261E+02 -0.37140254177E+02  0.50383632166E+02  0.00000000000E+00 0. -1.
<scales pt_clust_3="125.95921" pt_clust_4="39.42013" pt_clust_5="14000.00000" pt_clust_6="34.04573"></scales>
<clustering>
<clus scale="   34.046">  1  6  2 -1</clus>
<clus scale="   39.420">  2  4  1 -1</clus>
<clus scale="  125.959">  1  3  2 -1</clus>
<clus scale="   34.046">  1  3  2 -1</clus>
</clustering>
</event>
<event>
 6    0  0.6687079E+002  0.1220039E+03  0.7546771E-02  0.1239827E+00
         21   -1    0    0  503  501  0.00000000000E+00  0.00000000000E+00  0.11106583527E+04  0.11106583527E+04  0.00000000000E+00 0.  1.
         21   -1    0    0  501  502 -0.00000000000E+00 -0.00000000000E+00 -0.15053472805E+03  0.15053472805E+03  0.00000000000E+00 0.  1.
         21    1    1    2  503  505 -0.30549394796E+02 -0.17013319638E+02  0.50166645245E+03  0.50288363275E+03  0.00000000000E+00 0. -1.
         21    1    1    2  504  502  0.10499894697E+01  0.11286549041E+03 -0.12264765217E+03  0.16667983677E+03  0.00000000000E+00 0.  1.
         21    1    1    2  505  506 -0.13767650469E+01 -0.72051171304E+02  0.36865684067E+03  0.37563430746E+03  0.00000000000E+00 0.  1.
         21    1    1    2  506  504  0.30876170373E+02 -0.23800999469E+02  0.21244798368E+03  0.21599530375E+03  0.00000000000E+00 0.  1.
<scales pt_clust_3="34.96739" pt_clust_4="112.24983" pt_clust_5="31.11125" pt_clust_6="31.11125"></scales>
<clustering>
<clus scale="   34.967">  1  3  2 -1</clus>
<clus scale="   31.111">  5  6 -1 -1</clus>
<clus scale="  112.250">  2  4  1 -1</clus>
<clus scale="   34.967">  1  3  2 -1</clus>
</clustering>
</event>
<event>
 6    0  0.6687079E+002  0.7447929E+02  0.7546771E-02  0.1345491E+00
         21   -1    0    0  504  501  0.00000000000E+00  0.00000000000E+00  0.44200846206E+03  0.44200846206E+03  0.00000000000E+00 0. -1.
         21   -1    0    0  505  502 -0.00000000000E+00 -0.00000000000E+00 -0.37811056331E+03  0.37811056331E+03  0.00000000000E+00 0.  1.
         21    1    1    2  503  501 -0.65139818971E+02 -0.35412162063E+02  0.39958481551E+03  0.40640526821E+03  0.00000000000E+00 0. -1.
         21    1    1    2  504  502  0.75712139318E+02  0.84477639051E+02 -0.31989602324E+03  0.33941459194E+03  0.00000000000E+00 0.  1.
         21    1    1    2  505  506  0.20639286290E+02 -0.28380645348E+02 -0.60546255210E+01  0.35610386956E+02  0.00000000000E+00 0. -1.
         21    1    1    2  506  503 -0.31211606637E+02 -0.20684831641E+02 -0.97362680139E+01  0.38688778266E+02  0.00000000000E+00 0. -1.
<scales pt_clust_3="74.47929" pt_clust_4="14000.00000" pt_clust_5="35.09190" pt_clust_6="37.41575"></scales>
<clustering>
<clus scale="   35.092">  2  5  1 -1</clus>
<clus scale="   37.416">  2  6  1 -1</clus>
<clus scale="   74.479">  1  3  2 -1</clus>
<clus scale="   74.479">  1  3  2 -1</clus>
</clustering>
</event>
<event>
 6    0  0.6687079E+002  0.9017683E+02  0.7546771E-02  0.1302424E+00
         21   -1    0    0  504  501  0.00000000000E+00  0.00000000000E+00  0.17812745352E+04  0.17812745352E+04  0.00000000000E+00 0. -1.
         21   -1    0    0  505  502 -0.00000000000E+00 -0.00000000000E+00 -0.34741444550E+02  0.34741444550E+02  0.00000000000E+00 0. -1.
         21    1    1    2  503  502  0.40025184304E+02 -0.80166378061E+02  0.47611547748E+02  0.10146685680E+03  0.00000000000E+00 0. -1.
         21    1    1    2  504  503 -0.11065172050E+03  0.52424533750E+02  0.10642388778E+04  0.10712593169E+04  0.00000000000E+00 0. -1.
         21    1    1    2  505  506  0.69300429253E+02 -0.41441001776E+01  0.50440586344E+03  0.50916107288E+03  0.00000000000E+00 0.  1.
         21    1    1    2  506  501  0.13261069473E+01  0.31885944489E+02  0.13027680170E+03  0.13412873323E+03  0.00000000000E+00 0. -1.
<scales pt_clust_3="90.17683" pt_clust_4="14000.00000" pt_clust_5="69.93696" pt_clust_6="31.91351"></scales>
<clustering>
<clus scale="   31.914">  1  6  2 -1</clus>
<clus scale="   69.937">  1  5  2 -1</clus>
<clus scale="   90.177">  2  3  1 -1</clus>
<clus scale="   31.914">  1  3  2 -1</clus>
</clustering>
</event>
<event>
 6    0  0.6687079E+002  0.1428219E+03  0.7546771E-02  0.1209582E+00
         21   -1    0    0  506  501  0.00000000000E+00  0.00000000000E+00  0.22857132360E+03  0.22857132360E+03  0.00000000000E+00 0.  1.
         21   -1    0    0  505  502 -0.00000000000E+00 -0.00000000000E+00 -0.73448530953E+03  0.73448530953E+03  0.00000000000E+00 0. -1.
         21    1    1    2  503  504  0.36865325590E+02 -0.91429815925E+02 -0.45729358035E+03  0.46779897616E+03  0.00000000000E+00 0. -1.
         21    1    1    2  504  502  0.22271945712E+02 -0.32292622541E+02 -0.77859125381E+02  0.87183120164E+02  0.00000000000E+00 0.  1.
         21    1    1    2  505  501 -0.89344208178E+02  0.91043655161E+02 -0.16513901758E+03  0.20866774980E+03  0.00000000000E+00 0.  1.
         21    1    1    2  506  503  0.30206936875E+02  0.32678783305E+02  0.19437773738E+03  0.19940678701E+03  0.00000000000E+00 0.  1.
<scales pt_clust_3="33.45237" pt_clust_4="33.45237" pt_clust_5="132.61161" pt_clust_6="44.50126"></scales>
<clustering>
<clus scale="   33.452">  3  4 -1 -1</clus>
<clus scale="   44.501">  1  6  2 -1</clus>
<clus scale="  132.612">  1  5  2 -1</clus>
<clus scale="   44.501">  1  3  2 -1</clus>
</clustering>
</event>
<event>
 6    0  0.6687079E+002  0.9635531E+02  0.7546771E-02  0.1288152E+00
         21   -1    0    0  506  501  0.00000000000E+00  0.00000000000E+00  0.58988893812E+03  0.58988893812E+03  0.00000000000E+00 0. -1.
         21   -1    0    0  504  502 -0.00000000000E+00 -0.00000000000E+00 -0.63931997704E+03  0.63931997704E+03  0.00000000000E+00 0. -1.
         21    1    1    2  503  501 -0.63330796495E+02 -0.94911603723E+01  0.52721445540E+03  0.53108940292E+03  0.00000000000E+00 0. -1.
         21    1    1    2  504  503  0.10289424630E+03  0.11026304067E+02 -0.50113934860E+03  0.51171227464E+03  0.00000000000E+00 0. -1.
         21    1    1    2  505  502 -0.57070788451E+02  0.73558873138E+02 -0.36573427167E+02  0.10002798752E+03  0.00000000000E+00 0. -1.
         21    1    1    2  506  505  0.17507338647E+02 -0.75094016833E+02 -0.38932718550E+02  0.86379250079E+02  0.00000000000E+00 0. -1.
<scales pt_clust_3="64.03805" pt_clust_4="14000.00000" pt_clust_5="96.35531" pt_clust_6="79.13206"></scales>
<clustering>
<clus scale="   64.038">  1  3  2 -1</clus>
<clus scale="   79.132">  1  6  2 -1</clus>
<clus scale="   96.355">  1  5  2 -1</clus>
<clus scale="   64.038">  1  3  2 -1</clus>
</clustering>
</event>
<event>
 6    0  0.6687079E+002  0.1219568E+03  0.7546771E-02  0.1239903E+00
         21   -1    0    0  503  501  0.00000000000E+00  0.00000000000E+00  0.10828889802E+04  0.10828889802E+04  0.00000000000E+00 0.  1.
         21   -1    0    0  504  502 -0.00000000000E+00 -0.00000000000E+00 -0.40064239833E+02  0.40064239833E+02  0.00000000000E+00 0. -1.
         21    1    1    2  503  505  0.62940380199E+02 -0.11634091257E+02  0.81165601933E+02  0.10336681516E+03  0.00000000000E+00 0. -1.
         21    1    1    2  504  506 -0.86098077547E+02  0.62517770863E+02  0.23538721454E+03  0.25831858509E+03  0.00000000000E+00 0.  1.
         21    1    1    2  505  502  0.54129382563E+02 -0.30640545665E+02  0.39896059029E+02  0.73895389717E+02  0.00000000000E+00 0. -1.
         21    1    1    2  506  501 -0.30971685215E+02 -0.20243133940E+02  0.68637586485E+03  0.68737243006E+03  0.00000000000E+00 0.  1.
<scales pt_clust_3="35.17874" pt_clust_4="116.61886" pt_clust_5="35.17874" pt_clust_6="37.00040"></scales>
<clustering>
<clus scale="   35.179">  3  5 -1 -1</clus>
<clus scale="   37.000">  1  6  2 -1</clus>
<clus scale="  116.619">  1  4  2 -1</clus>
<clus scale="   37.000">  1  3  2 -1</clus>
</clustering>
</event>
<event>
 6    0  0.6687079E+002  0.2331467E+03  0.7546771E-02  0.1124444E+00
         21   -1    0    0  506  501  0.00000000000E+00  0.00000000000E+00  0.17554963966E+03  0.17554963966E+03  0.00000000000E+00 0. -1.
         21   -1    0    0  504  502 -0.00000000000E+00 -0.00000000000E+00 -0.62958141981E+03  0.62958141981E+03  0.00000000000E+00 0. -1.
         21    1    1    2  503  502 -0.23037346966E+02 -0.31659698813E+02 -0.80600529842E+02  0.89607484592E+02  0.00000000000E+00 0. -1.
         21    1    1    2  504  505 -0.35705310286E+02  0.64954997760E+02 -0.23214114231E+03  0.24368736297E+03  0.00000000000E+00 0. -1.
         21    1    1    2  505  501 -0.10976937377E+03  0.10081980449E+03 -0.19923080821E+03  0.24881089875E+03  0.00000000000E+00 0.  1.
         21    1    1    2  506  503  0.16851203102E+03 -0.13411510344E+03  0.57940700213E+02  0.22302531316E+03  0.00000000000E+00 0. -1.
<scales pt_clust_3="39.15426" pt_clust_4="60.22988" pt_clust_5="60.22988" pt_clust_6="215.70525"></scales>
<clustering>
<clus scale="   39.154">  2  3  1 -1</clus>
<clus scale="   60.230">  4  5 -1 -1</clus>
<clus scale="  215.705">  1  6  2 -1</clus>
<clus scale="  215.705">  1  3  2 -1</clus>
</clustering>
</event>
<event>
 6    0  0.6687079E+002  0.6451072E+02  0.7546771E-02  0.1379821E+00
         21   -1    0    0  503  501  0.00000000000E+00  0.00000000000E+00  0.32829890967E+03  0.32829890967E+03  0.00000000000E+00 0.  1.
         21   -1    0    0  506  502 -0.00000000000E+00 -0.00000000000E+00 -0.94243929172E+03  0.94243929172E+03  0.00000000000E+00 0.  1.
         21    1    1    2  503  505 -0.80540713953E+02 -0.15469727103E+02 -0.16629566024E+02  0.83681906807E+02  0.00000000000E+00 0.  1.
         21    1    1    2  504  501  0.54111720310E+02  0.33469311429E+02  0.28292882179E+03  0.28999481251E+03  0.00000000000E+00 0.  1.
         21    1    1    2  505  502 -0.39452928510E+02 -0.38719539027E+02 -0.10599623623E+03  0.11954471283E+03  0.00000000000E+00 0.  1.
         21    1    1    2  506  504  0.65881922152E+02  0.20719954701E+02 -0.77444340159E+03  0.77751676924E+03  0.00000000000E+00 0.  1.
<scales pt_clust_3="64.51072" pt_clust_4="14000.00000" pt_clust_5="55.27871" pt_clust_6="32.86369"></scales>
<clustering>
<clus scale="   55.279">  2  5  1 -1</clus>
<clus scale="   32.864">  2  6  1 -1</clus>
<clus scale="   64.511">  2  3  1 -1</clus>
<clus scale="   64.511">  1  3  2 -1</clus>
</clustering>
</event>
<event>
 6    0  0.6687079E+002  0.1162847E+03  0.7546771E-02  0.1249355E+00
         21   -1    0    0  505  501  0.00000000000E+00  0.00000000000E+00  0.14403106943E+04  0.14403106943E+04  0.00000000000E+00 0.  1.
         21   -1    0    0  503  502 -0.00000000000E+00 -0.00000000000E+00 -0.12688276967E+03  0.12688276967E+03  0.00000000000E+00 0.  1.
         21    1    1    2  503  504 -0.72478181613E+02 -0.29643210699E+02 -0.13752271936E+02  0.79504287519E+02  0.00000000000E+00 0.  1.
         21    1    1    2  504  506 -0.46414779954E+02  0.23791658700E+02 -0.18490207401E+02  0.55337714007E+02  0.00000000000E+00 0.  1.
         21    1    1    2  505  502  0.87638578914E+02  0.12042578954E+02  0.21858054365E+01  0.88489106490E+02  0.00000000000E+00 0.  1.
         21    1    1    2  506  501  0.31254382653E+02 -0.61910269542E+01  0.13434845985E+04  0.13438623559E+04  0.00000000000E+00 0.  1.
<scales pt_clust_3="44.51988" pt_clust_4="44.51988" pt_clust_5="102.70892" pt_clust_6="31.86166"></scales>
<clustering>
<clus scale="   31.862">  1  6  2 -1</clus>
<clus scale="   44.520">  3  4 -1 -1</clus>
<clus scale="  102.709">  1  5  2 -1</clus>
<clus scale="   31.862">  1  3  2 -1</clus>
</clustering>
</event>
<event>
 6    0  0.6687079E+002  0.1214351E+03  0.7546771E-02  0.1240748E+00
         21   -1    0    0  505  501  0.00000000000E+00  0.00000000000E+00  0.79878492307E+02  0.79878492307E+02  0.00000000000E+00 0.  1.
         21   -1    0    0  503  502 -0.00000000000E+00 -0.00000000000E+00 -0.18539044663E+04  0.18539044663E+04  0.00000000000E+00 0.  1.
         21    1    1    2  503  506  0.15291949968E+02 -0.38392063542E+02 -0.11838999178E+04  0.11846209561E+04  0.00000000000E+00 0.  1.
         21    1    1    2  504  502  0.14724821776E+02  0.13880759731E+03 -0.35730931336E+03  0.38360697968E+03  0.00000000000E+00 0.  1.
         21    1    1    2  505  504  0.83270258397E+02 -0.20526882352E+02  0.96038815593E+01  0.86299034604E+02  0.00000000000E+00 0.  1.
         21    1    1    2  506  501 -0.11328703014E+03 -0.79888651417E+02 -0.24242062439E+03  0.27925598821E+03  0.00000000000E+00 0.  1.
<scales pt_clust_3="41.32547" pt_clust_4="121.43505" pt_clust_5="87.16070" pt_clust_6="14000.00000"></scales>
<clustering>
<clus scale="   41.325">  2  3  1 -1</clus>
<clus scale="   87.161">  1  5  2 -1</clus>
<clus scale="  121.435">  2  4  1 -1</clus>
<clus scale="   87.161">  1  3  2 -1</clus>
</clustering>
</event>
<event>
 6    0  0.6687079E+002  0.1396008E+03  0.7546771E-02  0.1213867E+00
         21   -1    0    0  506  501  0.00000000000E+00  0.00000000000E+00  0.18124648112E+04  0.18124648112E+04  0.00000000000E+00 0.  1.
         21   -1    0    0  503  502 -0.00000000000E+00 -0.00000000000E+00 -0.58011877760E+02  0.58011877760E+02  0.00000000000E+00 0.  1.
         21    1    1    2  503  504  0.27652595239E+02 -0.31608244336E+02  0.64064221770E+02  0.76602686927E+02  0.00000000000E+00 0.  1.
         21    1    1    2  504  501 -0.14154223058E+03  0.54162649393E+02  0.15549467724E+04  0.15623147124E+04  0.00000000000E+00 0.  1.
         21    1    1    2  505  502  0.93124679591E+02 -0.45260871505E+02  0.11875969774E+02  0.10421991698E+03  0.00000000000E+00 0.  1.
         21    1    1    2  506  505  0.20764955746E+02  0.22706466448E+02  0.12356596949E+03  0.12733937263E+03  0.00000000000E+00 0.  1.
<scales pt_clust_3="41.87394" pt_clust_4="139.60077" pt_clust_5="14000.00000" pt_clust_6="30.76958"></scales>
<clustering>
<clus scale="   30.770">  1  6  2 -1</clus>
<clus scale="   41.874">  2  3  1 -1</clus>
<clus scale="  139.601">  1  4  2 -1</clus>
<clus scale="   30.770">  1  3  2 -1</clus>
</clustering>
</event>
<event>
 6    0  0.6687079E+002  0.1143297E+03  0.7546771E-02  0.1252756E+00
         21   -1    0    0  506  501  0.00000000000E+00  0.00000000000E+00  0.42422754459E+02  0.42422754459E+02  0.00000000000E+00 0.  1.
         21   -1    0    0  503  502 -0.00000000000E+00 -0.00000000000E+00 -0.17516597968E+04  0.17516597968E+04  0.00000000000E+00 0. -1.
         21    1    1    2  503  505 -0.66131229810E+02  0.24533053435E+02 -0.30568174669E+03  0.31371410636E+03  0.00000000000E+00 0. -1.
         21    1    1    2  504  502  0.86944254765E+02 -0.25634782306E+02 -0.11453594756E+04  0.11489407182E+04  0.00000000000E+00 0. -1.
         21    1    1    2  505  501 -0.63652504506E+02  0.90340442277E+01  0.51556240046E+01  0.64496788632E+02  0.00000000000E+00 0.  1.
         21    1    1    2  506  504  0.42839479550E+02 -0.79323153570E+01 -0.26335144407E+03  0.26693093812E+03  0.00000000000E+00 0.  1.
<scales pt_clust_3="103.99878" pt_clust_4="32.92570" pt_clust_5="64.29040" pt_clust_6="32.92570"></scales>
<clustering>
<clus scale="   32.926">  4  6 -1 -1</clus>
<clus scale="   64.290">  1  5  2 -1</clus>
<clus scale="  103.999">  1  3  2 -1</clus>
<clus scale="   64.290">  1  3  2 -1</clus>
</clustering>
</event>
<event>
 6    0  0.6687079E+002  0.1309437E+03  0.7546771E-02  0.1226062E+00
         21   -1    0    0  503  501  0.00000000000E+00  0.00000000000E+00  0.27154707624E+03  0.27154707624E+03  0.00000000000E+00 0.  1.
         21   -1    0    0  506  502 -0.00000000000E+00 -0.00000000000E+00 -0.39305141954E+03  0.39305141954E+03  0.00000000000E+00 0. -1.
         21    1    1    2  503  505 -0.32208250101E+01 -0.58522177584E+02  0.22430877825E+01  0.58653648018E+02  0.00000000000E+00 0. -1.
         21    1    1    2  504  501 -0.86233582727E+02 -0.43396255563E+02  0.20600430304E+03  0.22750217286E+03  0.00000000000E+00 0.  1.
         21    1    1    2  505  502 -0.20765086965E+02  0.23156353542E+02 -0.12578309951E+02  0.33550252268E+02  0.00000000000E+00 0.  1.
         21    1    1    2  506  504  0.11021949470E+03  0.78762079606E+02 -0.31717342416E+03  0.34489242264E+03  0.00000000000E+00 0. -1.
<scales pt_clust_3="56.95983" pt_clust_4="14000.00000" pt_clust_5="31.10314" pt_clust_6="130.94370"></scales>
<clustering>
<clus scale="   31.103">  2  5  1 -1</clus>
<clus scale="   56.960">  1  3  2 -1</clus>
<clus scale="  130.944">  2  6  1 -1</clus>
<clus scale="   56.960">  1  3  2 -1</clus>
</clustering>
</event>
<event>
 6    0  0.6687079E+002  0.8315958E+02  0.7546771E-02  0.1320317E+00
         21   -1    0    0  506  501  0.00000000000E+00  0.00000000000E+00  0.89997015392E+03  0.89997015392E+03  0.00000000000E+00 0.  1.
         21   -1    0    0  505  502 -0.00000000000E+00 -0.00000000000E+00 -0.41198940238E+03  0.41198940238E+03  0.00000000000E+00 0.  1.
         21    1    1    2  503  501 -0.53997172189E+02  0.41286838222E+02  0.41332864875E+03  0.41888049548E+03  0.00000000000E+00 0.  1.
         21    1    1    2  504  502 -0.60591556076E+02 -0.89127505494E+02  0.36603872945E+03  0.38157489483E+03  0.00000000000E+00 0.  1.
         21    1    1    2  505  503  0.83090088281E+02 -0.75504849170E+01 -0.38739316027E+03  0.39627570354E+03  0.00000000000E+00 0.  1.
         21    1    1    2  506  504  0.31498639984E+02  0.55391152188E+02  0.96006533619E+02  0.11522846245E+03  0.00000000000E+00 0.  1.
<scales pt_clust_3="83.15958" pt_clust_4="77.92014" pt_clust_5="14000.00000" pt_clust_6="63.72083"></scales>
<clustering>
<clus scale="   63.721">  1  6  2 -1</clus>
<clus scale="   77.920">  1  4  2 -1</clus>
<clus scale="   83.160">  1  3  2 -1</clus>
<clus scale="   63.721">  1  3  2 -1</clus>
</clustering>
</event>
<event>
 6    0  0.6687079E+002  0.1302998E+03  0.7546771E-02  0.1227012E+00
         21   -1    0    0  506  501  0.00000000000E+00  0.00000000000E+00  0.82306512435E+02  0.82306512435E+02  0.00000000000E+00 0. -1.
         21   -1    0    0  503  502 -0.00000000000E+00 -0.00000000000E+00 -0.11597918834E+04  0.11597918834E+04  0.00000000000E+00 0. -1.
         21    1    1    2  503  505 -0.44853024974E+02  0.63533397250E+02  0.30587456254E+02  0.83569605094E+02  0.00000000000E+00 0. -1.
         21    1    1    2  504  502  0.43376885360E+02 -0.12732174274E+03 -0.10420511066E+04  0.10506963830E+04  0.00000000000E+00 0. -1.
         21    1    1    2  505  501  0.27426532912E+02  0.37697381574E+02 -0.25662594681E+02  0.53215374197E+02  0.00000000000E+00 0. -1.
         21    1    1    2  506  504 -0.25950393298E+02  0.26090963918E+02 -0.40359125844E+02  0.54617033509E+02  0.00000000000E+00 0. -1.
<scales pt_clust_3="14000.00000" pt_clust_4="130.29983" pt_clust_5="48.14985" pt_clust_6="36.79893"></scales>
<clustering>
<clus scale="   36.799">  1  6  2 -1</clus>
<clus scale="   48.150">  1  5  2 -1</clus>
<clus scale="  130.300">  2  4  1 -1</clus>
<clus scale="   36.799">  1  3  2 -1</clus>
</clustering>
</event>
<event>
 6    0  0.6687079E+002  0.1132971E+03  0.7546771E-02  0.1254583E+00
         21   -1    0    0  503  501  0.00000000000E+00  0.00000000000E+00  0.54404032642E+02  0.54404032642E+02  0.00000000000E+00 0. -1.
         21   -1    0    0  504  502 -0.00000000000E+00 -0.00000000000E+00 -0.44488635281E+03  0.44488635281E+03  0.00000000000E+00 0. -1.
         21    1    1    2  503  502  0.32264586468E+02  0.82982531205E+02 -0.17976578193E+03  0.20060618230E+03  0.00000000000E+00 0. -1.
         21    1    1    2  504  505 -0.80454682641E+01 -0.57566281290E+02 -0.10551864377E+03  0.12046904367E+03  0.00000000000E+00 0. -1.
         21    1    1    2  505  506 -0.45298048543E+02 -0.73319893295E+02 -0.87880735605E+02  0.12308835707E+03  0.00000000000E+00 0. -1.
         21    1    1    2  506  501  0.21078930338E+02  0.47903643380E+02 -0.17317158871E+02  0.55126802416E+02  0.00000000000E+00 0. -1.
<scales pt_clust_3="104.38420" pt_clust_4="36.17345" pt_clust_5="36.17345" pt_clust_6="52.33622"></scales>
<clustering>
<clus scale="   36.173">  4  5 -1 -1</clus>
<clus scale="   52.336">  1  6  2 -1</clus>
<clus scale="  104.384">  2  3  1 -1</clus>
<clus scale="   52.336">  1  3  2 -1</clus>
</clustering>
</event>
<event>
 6    0  0.6687079E+002  0.2033400E+03  0.7546771E-02  0.1146951E+00
         21   -1    0    0  505  501  0.00000000000E+00  0.00000000000E+00  0.49940747386E+02  0.49940747386E+02  0.00000000000E+00 0. -1.
         21   -1    0    0  503  502 -0.00000000000E+00 -0.00000000000E+00 -0.13354475202E+04  0.13354475202E+04  0.00000000000E+00 0.  1.
         21    1    1    2  503  506  0.57472644472E+02 -0.89449037030E+02 -0.12128591045E+03  0.16129013349E+03  0.00000000000E+00 0. -1.
         21    1    1    2  504  502 -0.99144093284E+02  0.73392674819E+02 -0.57165349220E+03  0.58481086780E+03  0.00000000000E+00 0.  1.
         21    1    1    2  505  504 -0.23301630018E+02  0.72907579643E+02 -0.52256065388E+03  0.52813645786E+03  0.00000000000E+00 0.  1.
         21    1    1    2  506  501  0.64973078830E+02 -0.56851217432E+02 -0.70006716328E+02  0.11115080849E+03  0.00000000000E+00 0.  1.
<scales pt_clust_3="193.98762" pt_clust_4="55.42331" pt_clust_5="55.42331" pt_clust_6="31.66084"></scales>
<clustering>
<clus scale="   31.661">  3  6 -1 -1</clus>
<clus scale="   55.423">  4  5 -1 -1</clus>
<clus scale="  193.988">  1  3  2 -1</clus>
<clus scale="  193.988">  1  3  2 -1</clus>
</clustering>
</event>
<event>
 6    0  0.6687079E+002  0.1633759E+03  0.7546771E-02  0.1184937E+00
         21   -1    0    0  503  501  0.00000000000E+00  0.00000000000E+00  0.18479483229E+03  0.18479483229E+03  0.00000000000E+00 0.  1.
         21   -1    0    0  505  502 -0.00000000000E+00 -0.00000000000E+00 -0.48742693908E+03  0.48742693908E+03  0.00000000000E+00 0.  1.
         21    1    1    2  503  502 -0.70683058103E+00 -0.35851011850E+02  0.74210952078E+02  0.82420022254E+02  0.00000000000E+00 0. -1.
         21    1    1    2  504  501 -0.53888959358E+02  0.85640029165E+02  0.99349747313E+01  0.10167073453E+03  0.00000000000E+00 0.  1.
         21    1    1    2  505  506  0.11974545785E+03 -0.98743881997E+02 -0.37492499982E+03  0.40578083296E+03  0.00000000000E+00 0.  1.
         21    1    1    2  506  504 -0.65149667908E+02  0.48954864682E+02 -0.11853033786E+02  0.82350181630E+02  0.00000000000E+00 0.  1.
<scales pt_clust_3="35.85798" pt_clust_4="35.60498" pt_clust_5="158.48547" pt_clust_6="35.60498"></scales>
<clustering>
<clus scale="   35.605">  4  6 -1 -1</clus>
<clus scale="   35.858">  1  3  2 -1</clus>
<clus scale="  158.485">  2  5  1 -1</clus>
<clus scale="   35.858">  1  3  2 -1</clus>
</clustering>
</event>
<event>
 6    0  0.6687079E+002  0.1317333E+03  0.7546771E-02  0.1224906E+00
         21   -1    0    0  504  501  0.00000000000E+00  0.00000000000E+00  0.15703180646E+03  0.15703180646E+03  0.00000000000E+00 0. -1.
         21   -1    0    0  505  502 -0.00000000000E+00 -0.00000000000E+00 -0.81708748541E+03  0.81708748541E+03  0.00000000000E+00 0.  1.
         21    1    1    2  503  502  0.15466005285E+02 -0.13315745110E+03 -0.74101728487E+03  0.75304496584E+03  0.00000000000E+00 0.  1.
         21    1    1    2  504  506  0.38933843073E+02  0.27645198953E+01  0.20408209232E+02  0.44045223473E+02  0.00000000000E+00 0.  1.
         21    1    1    2  505  501 -0.35431221654E+02  0.38741978082E+02 -0.17311186250E+02  0.55281004902E+02  0.00000000000E+00 0. -1.
         21    1    1    2  506  503 -0.18968626704E+02  0.91650953118E+02  0.77864582934E+02  0.12174809765E+03  0.00000000000E+00 0. -1.
<scales pt_clust_3="131.73333" pt_clust_4="39.03187" pt_clust_5="49.03537" pt_clust_6="14000.00000"></scales>
<clustering>
<clus scale="   39.032">  1  4  2 -1</clus>
<clus scale="   49.035">  1  5  2 -1</clus>
<clus scale="  131.733">  2  3  1 -1</clus>
<clus scale="   39.032">  1  3  2 -1</clus>
</clustering>
</event>
<event>
 6    0  0.6687079E+002  0.2996366E+03  0.7546771E-02  0.1085422E+00
         21   -1    0    0  505  501  0.00000000000E+00  0.00000000000E+00  0.19069041773E+03  0.19069041773E+03  0.00000000000E+00 0.  1.
         21   -1    0    0  503  502 -0.00000000000E+00 -0.00000000000E+00 -0.55080176801E+03  0.55080176801E+03  0.00000000000E+00 0.  1.
         21    1    1    2  503  504  0.14914918140E+03 -0.19342947015E+02 -0.21427286013E+03  0.26178710148E+03  0.00000000000E+00 0.  1.
         21    1    1    2  504  501  0.12953580434E+03 -0.21677940101E+02 -0.12177292944E+03  0.17910361257E+03  0.00000000000E+00 0.  1.
         21    1    1    2  505  506 -0.91916987859E+02  0.51709281531E+02 -0.40127312011E+02  0.11283963675E+03  0.00000000000E+00 0.  1.
         21    1    1    2  506  502 -0.18676799788E+03 -0.10688394415E+02  0.16061751293E+02  0.18776183494E+03  0.00000000000E+00 0.  1.
<scales pt_clust_3="285.40821" pt_clust_4="42.92345" pt_clust_5="76.69584" pt_clust_6="76.69584"></scales>
<clustering>
<clus scale="   42.923">  3  4 -1 -1</clus>
<clus scale="   76.696">  5  6 -1 -1</clus>
<clus scale="  285.408">  2  3  1 -1</clus>
<clus scale="  299.637">  1  3  2 -1</clus>
</clustering>
</event>
<event>
 6    0  0.6687079E+002  0.2409011E+03  0.7546771E-02  0.1119194E+00
         21   -1    0    0  502  501  0.00000000000E+00  0.00000000000E+00  0.15850408058E+03  0.15850408058E+03  0.00000000000E+00 0. -1.
         21   -1    0    0  504  502 -0.00000000000E+00 -0.00000000000E+00 -0.57783675052E+03  0.57783675052E+03  0.00000000000E+00 0. -1.
         21    1    1    2  503  505  0.27221486961E+02 -0.54379587342E+02 -0.67304054054E+02  0.90708238678E+02  0.00000000000E+00 0. -1.
         21    1    1    2  504  503  0.67719033357E+02 -0.15922947747E+03 -0.36546505904E+03  0.40435702461E+03  0.00000000000E+00 0. -1.
         21    1    1    2  505  506 -0.68957150868E+02  0.99811769384E+02 -0.11684417264E+02  0.12187700181E+03  0.00000000000E+00 0. -1.
         21    1    1    2  506  501 -0.25983369450E+02  0.11379729543E+03  0.25120860415E+02  0.11939856600E+03  0.00000000000E+00 0. -1.
<scales pt_clust_3="33.31485" pt_clust_4="240.41737" pt_clust_5="57.11869" pt_clust_6="57.11869"></scales>
<clustering>
<clus scale="   33.315">  3  4 -1 -1</clus>
<clus scale="   57.119">  5  6 -1 -1</clus>
<clus scale="  240.417">  2  3  1 -1</clus>
<clus scale="  240.901">  1  3  2 -1</clus>
</clustering>
</event>
<event>
 6    0  0.6687079E+002  0.8383983E+02  0.7546771E-02  0.1318495E+00
         21   -1    0    0  506  501  0.00000000000E+00  0.00000000000E+00  0.34575831720E+03  0.34575831720E+03  0.00000000000E+00 0.  1.
         21   -1    0    0  503  502 -0.00000000000E+00 -0.00000000000E+00 -0.29027194629E+03  0.29027194629E+03  0.00000000000E+00 0.  1.
         21    1    1    2  503  504 -0.26087748001E+02  0.33402240847E+02 -0.14431036446E+03  0.15040532431E+03  0.00000000000E+00 0.  1.
         21    1    1    2  504  501 -0.20027146088E+02  0.80808272611E+02  0.30144320585E+03  0.31272842828E+03  0.00000000000E+00 0.  1.
         21    1    1    2  505  502 -0.94713324134E+01 -0.28958214862E+02 -0.21106955977E+01  0.30540782269E+02  0.00000000000E+00 0.  1.
         21    1    1    2  506  505  0.55586226503E+02 -0.85252298596E+02 -0.99535774889E+02  0.14235572864E+03  0.00000000000E+00 0.  1.
<scales pt_clust_3="35.91782" pt_clust_4="14000.00000" pt_clust_5="30.46776" pt_clust_6="83.83983"></scales>
<clustering>
<clus scale="   30.468">  2  5  1 -1</clus>
<clus scale="   35.918">  2  3  1 -1</clus>
<clus scale="   83.840">  2  6  1 -1</clus>
<clus scale="   83.840">  1  3  2 -1</clus>
</clustering>
</event>
<event>
 6    0  0.6687079E+002  0.2084052E+03  0.7546771E-02  0.1142835E+00
         21   -1    0    0  503  501  0.00000000000E+00  0.00000000000E+00  0.19654972301E+03  0.19654972301E+03  0.00000000000E+00 0. -1.
         21   -1    0    0  505  502 -0.00000000000E+00 -0.00000000000E+00 -0.46387329465E+03  0.46387329465E+03  0.00000000000E+00 0. -1.
         21    1    1    2  503  504 -0.78535564132E+02 -0.58230289600E+02 -0.64811070775E+02  0.11729908932E+03  0.00000000000E+00 0. -1.
         21    1    1    2  504  502 -0.32598777008E+02 -0.17770346332E+03 -0.10110793459E+03  0.20703626633E+03  0.00000000000E+00 0. -1.
         21    1    1    2  505  506  0.82275336878E+02  0.12916641724E+03 -0.15082889356E+03  0.21494778328E+03  0.00000000000E+00 0. -1.
         21    1    1    2  506  501  0.28859004262E+02  0.10676733567E+03  0.49424327284E+02  0.12113987874E+03  0.00000000000E+00 0. -1.
<scales pt_clust_3="72.25903" pt_clust_4="72.25903" pt_clust_5="183.80419" pt_clust_6="110.59885"></scales>
<clustering>
<clus scale="   72.259">  3  4 -1 -1</clus>
<clus scale="  110.599">  1  6  2 -1</clus>
<clus scale="  183.804">  2  5  1 -1</clus>
<clus scale="  110.599">  1  3  2 -1</clus>
</clustering>
</event>
<event>
 6    0  0.6687079E+002  0.1415842E+03  0.7546771E-02  0.1211213E+00
         21   -1    0    0  503  501  0.00000000000E+00  0.00000000000E+00  0.85888530632E+02  0.85888530632E+02  0.00000000000E+00 0.  1.
         21   -1    0    0  504  502 -0.00000000000E+00 -0.00000000000E+00 -0.10441699186E+04  0.10441699186E+04  0.00000000000E+00 0. -1.
         21    1    1    2  503  502  0.12036880329E+03  0.29601254081E+02 -0.36348284513E+03  0.38403731818E+03  0.00000000000E+00 0. -1.
         21    1    1    2  504  505  0.36850659765E+02 -0.21475741281E+02 -0.27489282757E+03  0.27818203615E+03  0.00000000000E+00 0. -1.
         21    1    1    2  505  506 -0.12405248493E+03 -0.12554146934E+03 -0.29430885005E+03  0.34317252040E+03  0.00000000000E+00 0.  1.
         21    1    1    2  506  501 -0.33166978125E+02  0.11741595654E+03 -0.25596865217E+02  0.12466657450E+03  0.00000000000E+00 0.  1.
<scales pt_clust_3="141.58417" pt_clust_4="42.65183" pt_clust_5="14000.00000" pt_clust_6="119.04257"></scales>
<clustering>
<clus scale="   42.652">  2  4  1 -1</clus>
<clus scale="  119.043">  1  6  2 -1</clus>
<clus scale="  141.584">  2  3  1 -1</clus>
<clus scale="  119.043">  1  3  2 -1</clus>
</clustering>
</event>
<event>
 6    0  0.6687079E+002  0.7035104E+02  0.7546771E-02  0.1358903E+00
         21   -1    0    0  503  501  0.00000000000E+00  0.00000000000E+00  0.18282942625E+04  0.18282942625E+04  0.00000000000E+00 0.  1.
         21   -1    0    0  505  502 -0.00000000000E+00 -0.00000000000E+00 -0.44406150503E+02  0.44406150503E+02  0.00000000000E+00 0. -1.
         21    1    1    2  503  504 -0.36982999519E+02 -0.70281553692E+01  0.13589945869E+04  0.13595158787E+04  0.00000000000E+00 0.  1.
         21    1    1    2  504  506 -0.54342075382E+02 -0.56853903598E+01  0.25394310253E+03  0.25975466145E+03  0.00000000000E+00 0.  1.
         21    1    1    2  505  501  0.50559574631E+02 -0.61438476746E+02  0.22720729797E+02  0.82747740599E+02  0.00000000000E+00 0. -1.
         21    1    1    2  506  502  0.40765500271E+02  0.74152022475E+02  0.14822969271E+03  0.17068213219E+03  0.00000000000E+00 0.  1.
<scales pt_clust_3="37.64488" pt_clust_4="75.20103" pt_clust_5="70.35104" pt_clust_6="14000.00000"></scales>
<clustering>
<clus scale="   37.645">  1  3  2 -1</clus>
<clus scale="   75.201">  1  4  2 -1</clus>
<clus scale="   70.351">  2  5  1 -1</clus>
<clus scale="   37.645">  1  3  2 -1</clus>
</clustering>
</event>
<event>
 6    0  0.6687079E+002  0.1230328E+03  0.7546771E-02  0.1238176E+00
         21   -1    0    0  503  501  0.00000000000E+00  0.00000000000E+00  0.41432467200E+03  0.41432467200E+03  0.00000000000E+00 0. -1.
         21   -1    0    0  505  502 -0.00000000000E+00 -0.00000000000E+00 -0.10003424382E+03  0.10003424382E+03  0.00000000000E+00 0.  1.
         21    1    1    2  503  504 -0.11919630105E+02  0.36577201252E+02  0.17064917451E+03  0.17493172953E+03  0.00000000000E+00 0. -1.
         21    1    1    2  504  502  0.10093152889E+02  0.11567736042E+03  0.10246342555E+03  0.15486083115E+03  0.00000000000E+00 0. -1.
         21    1    1    2  505  506 -0.26511935010E+02 -0.12392087731E+03 -0.53082576074E+00  0.12672627315E+03  0.00000000000E+00 0.  1.
         21    1    1    2  506  501  0.28338412225E+02 -0.28333684364E+02  0.41708653877E+02  0.57840081996E+02  0.00000000000E+00 0.  1.
<scales pt_clust_3="38.47037" pt_clust_4="123.03284" pt_clust_5="14000.00000" pt_clust_6="33.20173"></scales>
<clustering>
<clus scale="   38.470">  1  3  2 -1</clus>
<clus scale="   33.202">  1  6  2 -1</clus>
<clus scale="  123.033">  1  4  2 -1</clus>
<clus scale="   38.470">  1  3  2 -1</clus>
</clustering>
</event>
<event>
 6    0  0.6687079E+002  0.1672996E+03  0.7546771E-02  0.1180694E+00
         21   -1    0    0  504  501  0.00000000000E+00  0.00000000000E+00  0.84478242666E+03  0.84478242666E+03  0.00000000000E+00 0. -1.
         21   -1    0    0  503  502 -0.00000000000E+00 -0.00000000000E+00 -0.32927738984E+03  0.32927738984E+03  0.00000000000E+00 0. -1.
         21    1    1    2  503  501 -0.51863908646E+02 -0.32417051628E+02  0.56758825487E+03  0.57087402929E+03  0.00000000000E+00 0. -1.
         21    1    1    2  504  505  0.77971453153E+02  0.43990847513E+02  0.12598291850E+03  0.15455237923E+03  0.00000000000E+00 0. -1.
         21    1    1    2  505  506  0.92140156179E+02  0.82987631807E+02  0.81321262544E+02  0.14828992938E+03  0.00000000000E+00 0. -1.
         21    1    1    2  506  502 -0.11824770069E+03 -0.94561427692E+02 -0.25938739909E+03  0.30034347859E+03  0.00000000000E+00 0. -1.
<scales pt_clust_3="61.16151" pt_clust_4="51.52285" pt_clust_5="51.52285" pt_clust_6="155.92370"></scales>
<clustering>
<clus scale="   51.523">  4  5 -1 -1</clus>
<clus scale="   61.162">  1  3  2 -1</clus>
<clus scale="  155.924">  2  6  1 -1</clus>
<clus scale="   61.162">  1  3  2 -1</clus>
</clustering>
</event>
<event>
 6    0  0.6687079E+002  0.1378717E+03  0.7546771E-02  0.1216222E+00
         21   -1    0    0  503  501  0.00000000000E+00  0.00000000000E+00  0.24851378710E+04  0.24851378710E+04  0.00000000000E+00 0.  1.
         21   -1    0    0  504  502 -0.00000000000E+00 -0.00000000000E+00 -0.22999037215E+02  0.22999037215E+02  0.00000000000E+00 0. -1.
         21    1    1    2  503  505  0.24222123487E+02  0.24251996815E+02  0.77671652415E+02  0.84898505314E+02  0.00000000000E+00 0. -1.
         21    1    1    2  504  501 -0.18931922217E+02 -0.12997769938E+03  0.22055254041E+04  0.22094331689E+04  0.00000000000E+00 0.  1.
         21    1    1    2  505  506  0.15404181178E+01  0.73907781124E+02  0.76768447571E+02  0.10657451638E+03  0.00000000000E+00 0. -1.
         21    1    1    2  506  502 -0.68306193876E+01  0.31817921440E+02  0.10217332979E+03  0.10723071764E+03  0.00000000000E+00 0. -1.
<scales pt_clust_3="31.22243" pt_clust_4="128.44248" pt_clust_5="31.22243" pt_clust_6="32.54286"></scales>
<clustering>
<clus scale="   32.543">  2  6  1 -1</clus>
<clus scale="   31.222">  3  5 -1 -1</clus>
<clus scale="  128.442">  1  4  2 -1</clus>
<clus scale="  128.442">  1  3  2 -1</clus>
</clustering>
</event>
<event>
 6    0  0.6687079E+002  0.1325016E+03  0.7546771E-02  0.1223790E+00
         21   -1    0    0  504  501  0.00000000000E+00  0.00000000000E+00  0.64226171210E+02  0.64226171210E+02  0.00000000000E+00 0. -1.
         21   -1    0    0  503  502 -0.00000000000E+00 -0.00000000000E+00 -0.46533022347E+03  0.46533022347E+03  0.00000000000E+00 0. -1.
         21    1    1    2  503  501 -0.52424711405E+01  0.11588386807E+03 -0.43086170113E+02  0.12374559563E+03  0.00000000000E+00 0. -1.
         21    1    1    2  504  506  0.13596646011E+02 -0.81751243469E+02 -0.13856515153E+03  0.16145722594E+03  0.00000000000E+00 0. -1.
         21    1    1    2  505  502  0.25805284880E+02  0.15965893876E+02 -0.14593350911E+03  0.14905506223E+03  0.00000000000E+00 0. -1.
         21    1    1    2  506  505 -0.34159459750E+02 -0.50098518478E+02 -0.73519221510E+02  0.95298510878E+02  0.00000000000E+00 0. -1.
<scales pt_clust_3="120.08386" pt_clust_4="46.16054" pt_clust_5="30.34506" pt_clust_6="46.16054"></scales>
<clustering>
<clus scale="   30.345">  2  5  1 -1</clus>
<clus scale="   46.161">  4  6 -1 -1</clus>
<clus scale="  120.084">  1  3  2 -1</clus>
<clus scale="  120.084">  1  3  2 -1</clus>
</clustering>
</event>
<event>
 6    0  0.6687079E+002  0.8522268E+02  0.7546771E-02  0.1314851E+00
         21   -1    0    0  503  501  0.00000000000E+00  0.00000000000E+00  0.22810905014E+03  0.22810905014E+03  0.00000000000E+00 0.  1.
         21   -1    0    0  504  502 -0.00000000000E+00 -0.00000000000E+00 -0.38594837973E+03  0.38594837973E+03  0.00000000000E+00 0. -1.
         21    1    1    2  503  506 -0.27779911091E+02  0.32072878687E+02  0.38608666353E+02  0.57367430874E+02  0.00000000000E+00 0.  1.
         21    1    1    2  504  505  0.11947767225E+03 -0.24360914830E+02 -0.11191597827E+02  0.12244843894E+03  0.00000000000E+00 0.  1.
         21    1    1    2  505  501 -0.52536003738E+02  0.46366885492E+01  0.11745778608E+03  0.12875504682E+03  0.00000000000E+00 0.  1.
         21    1    1    2  506  502 -0.39161757415E+02 -0.12348652406E+02 -0.30271418419E+03  0.30548651324E+03  0.00000000000E+00 0. -1.
<scales pt_clust_3="44.50956" pt_clust_4="85.22268" pt_clust_5="14000.00000" pt_clust_6="41.06254"></scales>
<clustering>
<clus scale="   41.063">  2  6  1 -1</clus>
<clus scale="   44.510">  1  3  2 -1</clus>
<clus scale="   85.223">  2  4  1 -1</clus>
<clus scale="   44.510">  1  3  2 -1</clus>
</clustering>
</event>
<event>
 6    0  0.6687079E+002  0.1550319E+03  0.7546771E-02  0.1194423E+00
         21   -1    0    0  503  501  0.00000000000E+00  0.00000000000E+00  0.17901366041E+04  0.17901366041E+04  0.00000000000E+00 0.  1.
         21   -1    0    0  506  502 -0.00000000000E+00 -0.00000000000E+00 -0.18940210285E+02  0.18940210285E+02  0.00000000000E+00 0.  1.
         21    1    1    2  503  505 -0.30141201970E+02 -0.33858048816E+02  0.44874435125E+03  0.45102810589E+03  0.00000000000E+00 0.  1.
         21    1    1    2  504  501  0.27831860038E+00 -0.65654933496E+02  0.30835351524E+03  0.31526582136E+03  0.00000000000E+00 0.  1.
         21    1    1    2  505  502 -0.10100160221E+02  0.16543437684E+03  0.68051806738E+03  0.70041086964E+03  0.00000000000E+00 0.  1.
         21    1    1    2  506  504  0.39963043591E+02 -0.65921394524E+02  0.33358045990E+03  0.34237201746E+03  0.00000000000E+00 0. -1.
<scales pt_clust_3="45.33056" pt_clust_4="35.46270" pt_clust_5="150.19420" pt_clust_6="35.46270"></scales>
<clustering>
<clus scale="   35.463">  4  6 -1 -1</clus>
<clus scale="   45.331">  1  3  2 -1</clus>
<clus scale="  150.194">  1  5  2 -1</clus>
<clus scale="   45.331">  1  3  2 -1</clus>
</clustering>
</event>
<event>
 6    0  0.6687079E+002  0.1858165E+03  0.7546771E-02  0.1162290E+00
         21   -1    0    0  503  501  0.00000000000E+00  0.00000000000E+00  0.21614656290E+03  0.21614656290E+03  0.00000000000E+00 0.  1.
         21   -1    0    0  506  502 -0.00000000000E+00 -0.00000000000E+00 -0.43771425670E+03  0.43771425670E+03  0.00000000000E+00 0. -1.
         21    1    1    2  503  505  0.63705527125E+02 -0.12936825389E+03 -0.14361661029E+03  0.20351970433E+03  0.00000000000E+00 0. -1.
         21    1    1    2  504  501 -0.11969310983E+03  0.16115920099E+03  0.10961866775E+03  0.22872468368E+03  0.00000000000E+00 0.  1.
         21    1    1    2  505  502 -0.36622731982E+01 -0.35459859824E+02 -0.14215320629E+03  0.14655493155E+03  0.00000000000E+00 0. -1.
         21    1    1    2  506  504  0.59649855906E+02  0.36689127252E+01 -0.45416544981E+02  0.75061500040E+02  0.00000000000E+00 0.  1.
<scales pt_clust_3="185.81649" pt_clust_4="14000.00000" pt_clust_5="35.64848" pt_clust_6="59.00852"></scales>
<clustering>
<clus scale="   35.648">  2  5  1 -1</clus>
<clus scale="   59.009">  2  6  1 -1</clus>
<clus scale="  185.816">  2  3  1 -1</clus>
<clus scale="  185.816">  1  3  2 -1</clus>
</clustering>
</event>
<event>
 6    0  0.6687079E+002  0.8809077E+02  0.7546771E-02  0.1307542E+00
         21   -1    0    0  506  501  0.00000000000E+00  0.00000000000E+00  0.54553327789E+03  0.54553327789E+03  0.00000000000E+00 0.  1.
         21   -1    0    0  505  502 -0.00000000000E+00 -0.00000000000E+00 -0.19555448577E+03  0.19555448577E+03  0.00000000000E+00 0.  1.
         21    1    1    2  503  502  0.18970148051E+02 -0.87971102484E+02 -0.13523494584E+03  0.16244159555E+03  0.00000000000E+00 0.  1.
         21    1    1    2  504  501 -0.10192585748E+03  0.60186849712E+02  0.33737657919E+03  0.35753921951E+03  0.00000000000E+00 0.  1.
         21    1    1    2  505  504  0.43905894816E+02  0.83566272768E+02  0.68956005978E+02  0.11690158384E+03  0.00000000000E+00 0.  1.
         21    1    1    2  506  503  0.39049814616E+02 -0.55782019996E+02  0.78881152790E+02  0.10420536475E+03  0.00000000000E+00 0. -1.
<scales pt_clust_3="14000.00000" pt_clust_4="74.13318" pt_clust_5="88.09077" pt_clust_6="68.09201"></scales>
<clustering>
<clus scale="   68.092">  1  6  2 -1</clus>
<clus scale="   74.133">  1  4  2 -1</clus>
<clus scale="   88.091">  1  5  2 -1</clus>
<clus scale="   68.092">  1  3  2 -1</clus>
</clustering>
</event>
<event>
 6    0  0.6687079E+002  0.1324180E+03  0.7546771E-02  0.1223911E+00
         21   -1    0    0  503  501  0.00000000000E+00  0.00000000000E+00  0.78556598870E+03  0.78556598870E+03  0.00000000000E+00 0.  1.
         21   -1    0    0  505  502 -0.00000000000E+00 -0.00000000000E+00 -0.73124006442E+02  0.73124006442E+02  0.00000000000E+00 0.  1.
         21    1    1    2  503  504  0.79132712118E+02  0.13157649119E+03  0.27353922143E+03  0.31368465825E+03  0.00000000000E+00 0.  1.
         21    1    1    2  504  502 -0.18955935090E+02 -0.12734979700E+03  0.39292846266E+02  0.13461510331E+03  0.00000000000E+00 0.  1.
         21    1    1    2  505  506 -0.31157014838E+02  0.58495851780E+01  0.48516048843E+02  0.57955018900E+02  0.00000000000E+00 0. -1.
         21    1    1    2  506  501 -0.29019762190E+02 -0.10076279373E+02  0.35109386572E+03  0.35243521468E+03  0.00000000000E+00 0.  1.
<scales pt_clust_3="132.41800" pt_clust_4="14000.00000" pt_clust_5="35.02341" pt_clust_6="30.71934"></scales>
<clustering>
<clus scale="   30.719">  1  6  2 -1</clus>
<clus scale="   35.023">  1  5  2 -1</clus>
<clus scale="  132.418">  1  3  2 -1</clus>
<clus scale="   30.719">  1  3  2 -1</clus>
</clustering>
</event>
<event>
 6    0  0.6687079E+002  0.1464405E+03  0.7546771E-02  0.1204916E+00
         21   -1    0    0  506  501  0.00000000000E+00  0.00000000000E+00  0.11420521843E+04  0.11420521843E+04  0.00000000000E+00 0. -1.
         21   -1    0    0  504  502 -0.00000000000E+00 -0.00000000000E+00 -0.14167781068E+03  0.14167781068E+03  0.00000000000E+00 0.  1.
         21    1    1    2  503  501  0.31036085557E+02 -0.50293932483E+02  0.48061809151E+03  0.48423802838E+03  0.00000000000E+00 0. -1.
         21    1    1    2  504  505 -0.58907231332E+02  0.27752358986E+02  0.45254306386E+02  0.79298219267E+02  0.00000000000E+00 0.  1.
         21    1    1    2  505  503  0.84462199199E+02 -0.28112034028E+02  0.58189149435E+03  0.58866107460E+03  0.00000000000E+00 0. -1.
         21    1    1    2  506  502 -0.56591053424E+02  0.50653607525E+02 -0.10738951862E+03  0.13153267272E+03  0.00000000000E+00 0.  1.
<scales pt_clust_3="42.32678" pt_clust_4="65.11724" pt_clust_5="42.32678" pt_clust_6="136.91713"></scales>
<clustering>
<clus scale="   42.327">  3  5 -1 -1</clus>
<clus scale="   65.117">  2  4  1 -1</clus>
<clus scale="  136.917">  2  6  1 -1</clus>
<clus scale="  146.440">  1  3  2 -1</clus>
</clustering>
</event>
<event>
 6    0  0.6687079E+002  0.9604587E+02  0.7546771E-02  0.1288838E+00
         21   -1    0    0  505  501  0.00000000000E+00  0.00000000000E+00  0.10804554025E+03  0.10804554025E+03  0.00000000000E+00 0. -1.
         21   -1    0    0  506  502 -0.00000000000E+00 -0.00000000000E+00 -0.91881138304E+03  0.91881138304E+03  0.00000000000E+00 0. -1.
         21    1    1    2  503  504  0.30538096435E+02 -0.79999003929E+02 -0.12072755904E+03  0.14801202477E+03  0.00000000000E+00 0.  1.
         21    1    1    2  504  501 -0.66475287814E+02 -0.12124171300E+02  0.62743272797E+01  0.67862556705E+02  0.00000000000E+00 0. -1.
         21    1    1    2  505  502  0.16215910378E+01  0.10049876787E+03  0.12503561055E+02  0.10128657828E+03  0.00000000000E+00 0. -1.
         21    1    1    2  506  503  0.34315600341E+02 -0.83755926363E+01 -0.70881617208E+03  0.70969576354E+03  0.00000000000E+00 0. -1.
<scales pt_clust_3="14000.00000" pt_clust_4="62.86749" pt_clust_5="96.04587" pt_clust_6="35.32295"></scales>
<clustering>
<clus scale="   35.323">  2  6  1 -1</clus>
<clus scale="   62.867">  1  4  2 -1</clus>
<clus scale="   96.046">  1  5  2 -1</clus>
<clus scale="   62.867">  1  3  2 -1</clus>
</clustering>
</event>
<event>
 6    0  0.6687079E+002  0.7745337E+02  0.7546771E-02  0.1336438E+00
         21   -1    0    0  504  501  0.00000000000E+00  0.00000000000E+00  0.18354473540E+04  0.18354473540E+04  0.00000000000E+00 0.  1.
         21   -1    0    0  505  502 -0.00000000000E+00 -0.00000000000E+00 -0.47767747748E+03  0.47767747748E+03  0.00000000000E+00 0. -1.
         21    1    1    2  503  502 -0.30364512455E+02  0.71167850801E+02 -0.45405710555E+03  0.46060256372E+03  0.00000000000E+00 0. -1.
         21    1    1    2  504  506  0.62359289059E+02  0.25311581168E+00  0.68288534438E+03  0.68572672295E+03  0.00000000000E+00 0. -1.
         21    1    1    2  505  501 -0.76078804279E+02  0.21440622746E+02  0.78719354979E+02  0.11155456787E+03  0.00000000000E+00 0. -1.
         21    1    1    2  506  503  0.44084027675E+02 -0.92861589359E+02  0.10502222827E+04  0.10552409770E+04  0.00000000000E+00 0.  1.
<scales pt_clust_3="77.45337" pt_clust_4="62.35980" pt_clust_5="74.10104" pt_clust_6="14000.00000"></scales>
<clustering>
<clus scale="   62.360">  1  4  2 -1</clus>
<clus scale="   74.101">  1  5  2 -1</clus>
<clus scale="   77.453">  2  3  1 -1</clus>
<clus scale="   62.360">  1  3  2 -1</clus>
</clustering>
</event>
<event>
 6    0  0.6687079E+002  0.1153124E+03  0.7546771E-02  0.1251037E+00
         21   -1    0    0  503  501  0.00000000000E+00  0.00000000000E+00  0.55689746166E+03  0.55689746166E+03  0.00000000000E+00 0. -1.
         21   -1    0    0  505  502 -0.00000000000E+00 -0.00000000000E+00 -0.12370329845E+03  0.12370329845E+03  0.00000000000E+00 0. -1.
         21    1    1    2  503  504 -0.42448743740E+02  0.43857902723E+02  0.22261324156E+03  0.23082908568E+03  0.00000000000E+00 0. -1.
         21    1    1    2  504  502  0.15630372342E+02  0.64625484708E+02 -0.66907294906E+02  0.94325754303E+02  0.00000000000E+00 0. -1.
         21    1    1    2  505  506  0.21114024958E+02  0.50241792125E+02  0.32424744903E+02  0.63414539404E+02  0.00000000000E+00 0. -1.
         21    1    1    2  506  501  0.57043464402E+01 -0.15872517956E+03  0.24506347164E+03  0.29203138072E+03  0.00000000000E+00 0. -1.
<scales pt_clust_3="61.87847" pt_clust_4="14000.00000" pt_clust_5="54.49807" pt_clust_6="115.31238"></scales>
<clustering>
<clus scale="   54.498">  2  5  1 -1</clus>
<clus scale="   61.878">  1  3  2 -1</clus>
<clus scale="  115.312">  1  6  2 -1</clus>
<clus scale="   61.878">  1  3  2 -1</clus>
</clustering>
</event>
<event>
 6    0  0.6687079E+002  0.2187908E+03  0.7546771E-02  0.1134788E+00
         21   -1    0    0  503  501  0.00000000000E+00  0.00000000000E+00  0.35489139975E+04  0.35489139975E+04  0.00000000000E+00 0.  1.
         21   -1    0    0  504  502 -0.00000000000E+00 -0.00000000000E+00 -0.16261383786E+03  0.16261383786E+03  0.00000000000E+00 0.  1.
         21    1    1    2  503  506 -0.31036241781E+02  0.41516725607E+02  0.40154045578E+03  0.40487235573E+03  0.00000000000E+00 0.  1.
         21    1    1    2  504  501  0.42849271257E+02  0.19409503985E+03  0.27460502066E+04  0.27532345853E+04  0.00000000000E+00 0.  1.
         21    1    1    2  505  502 -0.93655842426E+02 -0.56889706470E+02 -0.10864062256E+03  0.15430696807E+03  0.00000000000E+00 0.  1.
         21    1    1    2  506  505  0.81842812950E+02 -0.17872205899E+03  0.34735011987E+03  0.39911392631E+03  0.00000000000E+00 0.  1.
<scales pt_clust_3="51.83519" pt_clust_4="14000.00000" pt_clust_5="109.61709" pt_clust_6="218.79078"></scales>
<clustering>
<clus scale="   51.835">  1  3  2 -1</clus>
<clus scale="  109.617">  2  5  1 -1</clus>
<clus scale="  218.791">  2  6  1 -1</clus>
<clus scale="   51.835">  1  3  2 -1</clus>
</clustering>
</event>
<event>
 6    0  0.6687079E+002  0.9740624E+02  0.7546771E-02  0.1285847E+00
         21   -1    0    0  505  501  0.00000000000E+00  0.00000000000E+00  0.30423324614E+04  0.30423324614E+04  0.00000000000E+00 0.  1.
         21   -1    0    0  504  502 -0.00000000000E+00 -0.00000000000E+00 -0.90427354048E+01  0.90427354048E+01  0.00000000000E+00 0.  1.
         21    1    1    2  503  506  0.69215963990E+02  0.12869923365E+02  0.54109136647E+03  0.54565222575E+03  0.00000000000E+00 0.  1.
         21    1    1    2  504  503 -0.53582047243E+01  0.30825781547E+02  0.18460806225E+03  0.18724068952E+03  0.00000000000E+00 0.  1.
         21    1    1    2  505  502  0.38036467411E+02  0.16533855775E+02  0.10769712556E+03  0.11540715790E+03  0.00000000000E+00 0.  1.
         21    1    1    2  506  501 -0.10189422668E+03 -0.60229560687E+02  0.21998931717E+04  0.22030751237E+04  0.00000000000E+00 0.  1.
<scales pt_clust_3="97.40624" pt_clust_4="31.28800" pt_clust_5="47.63457" pt_clust_6="14000.00000"></scales>
<clustering>
<clus scale="   31.288">  2  4  1 -1</clus>
<clus scale="   47.635">  2  5  1 -1</clus>
<clus scale="   97.406">  2  3  1 -1</clus>
<clus scale="   97.406">  1  3  2 -1</clus>
</clustering>
</event>
<event>
 6    0  0.6687079E+002  0.7553115E+02  0.7546771E-02  0.1342234E+00
         21   -1    0    0  505  501  0.00000000000E+00  0.00000000000E+00  0.13439393731E+03  0.13439393731E+03  0.00000000000E+00 0.  1.
         21   -1    0    0  503  502 -0.00000000000E+00 -0.00000000000E+00 -0.18378717157E+03  0.18378717157E+03  0.00000000000E+00 0.  1.
         21    1    1    2  503  504 -0.57159817504E+02  0.48979984489E+02 -0.69097655590E+02  0.10218008429E+03  0.00000000000E+00 0.  1.
         21    1    1    2  504  501  0.74751171294E+02 -0.12147550682E+02 -0.10746722465E+02  0.76490474185E+02  0.00000000000E+00 0.  1.
         21    1    1    2  505  506 -0.42724332701E+02 -0.69882275830E+02  0.47433598010E+02  0.94651187526E+02  0.00000000000E+00 0.  1.
         21    1    1    2  506  502  0.25132978912E+02  0.33049842023E+02 -0.16982454221E+02  0.44859362881E+02  0.00000000000E+00 0.  1.
<scales pt_clust_3="14000.00000" pt_clust_4="71.94250" pt_clust_5="75.53115" pt_clust_6="41.52058"></scales>
<clustering>
<clus scale="   41.521">  2  6  1 -1</clus>
<clus scale="   75.531">  1  5  2 -1</clus>
<clus scale="   71.943">  1  4  2 -1</clus>
<clus scale="   75.531">  1  3  2 -1</clus>
</clustering>
</event>
<event>
 6    0  0.6687079E+002  0.1411874E+03  0.7546771E-02  0.1211740E+00
         21   -1    0    0  506  501  0.00000000000E+00  0.00000000000E+00  0.11551951926E+04  0.11551951926E+04  0.00000000000E+00 0. -1.
         21   -1    0    0  504  502 -0.00000000000E+00 -0.00000000000E+00 -0.14582733944E+03  0.14582733944E+03  0.00000000000E+00 0.  1.
         21    1    1    2  503  505 -0.91924848794E+02  0.68834040609E+00  0.20878324362E+03  0.22812517278E+03  0.00000000000E+00 0. -1.
         21    1    1    2  504  501  0.55228642964E+02  0.49761553799E+02  0.14903149628E+03  0.16654369434E+03  0.00000000000E+00 0. -1.
         21    1    1    2  505  502  0.14693392481E+03 -0.40498334498E+02 -0.76082610324E+02  0.17034745948E+03  0.00000000000E+00 0.  1.
         21    1    1    2  506  503 -0.11023771898E+03 -0.99515597075E+01  0.72763572363E+03  0.73600620549E+03  0.00000000000E+00 0. -1.
<scales pt_clust_3="14000.00000" pt_clust_4="74.33986" pt_clust_5="141.18738" pt_clust_6="74.60310"></scales>
<clustering>
<clus scale="   74.340">  1  4  2 -1</clus>
<clus scale="   74.603">  1  6  2 -1</clus>
<clus scale="  141.187">  2  5  1 -1</clus>
<clus scale="   74.340">  1  3  2 -1</clus>
</clustering>
</event>
<event>
 6    0  0.6687079E+002  0.1313910E+03  0.7546771E-02  0.1225406E+00
         21   -1    0    0  506  501  0.00000000000E+00  0.00000000000E+00  0.22123900965E+03  0.22123900965E+03  0.00000000000E+00 0. -1.
         21   -1    0    0  503  502 -0.00000000000E+00 -0.00000000000E+00 -0.41160972187E+03  0.41160972187E+03  0.00000000000E+00 0.  1.
         21    1    1    2  503  501 -0.16571474700E+02 -0.13982158707E+03  0.15577985328E+03  0.20998107695E+03  0.00000000000E+00 0. -1.
         21    1    1    2  504  505 -0.48785414616E+02  0.87753554070E+02 -0.14464603927E+03  0.17607719787E+03  0.00000000000E+00 0.  1.
         21    1    1    2  505  502  0.14093878152E+02 -0.31017571569E+02 -0.10136285943E+03  0.10693529081E+03  0.00000000000E+00 0. -1.
         21    1    1    2  506  504  0.51263011164E+02  0.83085604573E+02 -0.10014166680E+03  0.13985516590E+03  0.00000000000E+00 0.  1.
<scales pt_clust_3="131.39104" pt_clust_4="82.70375" pt_clust_5="34.06945" pt_clust_6="14000.00000"></scales>
<clustering>
<clus scale="   34.069">  2  5  1 -1</clus>
<clus scale="   82.704">  2  4  1 -1</clus>
<clus scale="  131.391">  1  3  2 -1</clus>
<clus scale="  131.391">  1  3  2 -1</clus>
</clustering>
</event>
<event>
 6    0  0.6687079E+002  0.6304158E+02  0.7546771E-02  0.1385493E+00
         21   -1    0    0  505  501  0.00000000000E+00  0.00000000000E+00  0.12031860995E+04  0.12031860995E+04  0.00000000000E+00 0. -1.
         21   -1    0    0  504  502 -0.00000000000E+00 -0.00000000000E+00 -0.78502541662E+03  0.78502541662E+03  0.00000000000E+00 0. -1.
         21    1    1    2  503  506  0.87002327637E+02 -0.17308115733E+02 -0.42112224191E+03  0.43036370492E+03  0.00000000000E+00 0. -1.
         21    1    1    2  504  503  0.13064816288E+02 -0.43347055565E+02 -0.13744885332E+03  0.14471297084E+03  0.00000000000E+00 0.  1.
         21    1    1    2  505  502 -0.37581291557E+02  0.52687798906E+02 -0.21255087979E+03  0.22218513480E+03  0.00000000000E+00 0.  1.
         21    1    1    2  506  501 -0.62485852368E+02  0.79673723922E+01  0.11892826579E+04  0.11909497056E+04  0.00000000000E+00 0. -1.
<scales pt_clust_3="63.04158" pt_clust_4="45.27313" pt_clust_5="50.48329" pt_clust_6="14000.00000"></scales>
<clustering>
<clus scale="   45.273">  2  4  1 -1</clus>
<clus scale="   50.483">  2  5  1 -1</clus>
<clus scale="   63.042">  2  3  1 -1</clus>
<clus scale="   63.042">  1  3  2 -1</clus>
</clustering>
</event>
<event>
 6    0  0.6687079E+002  0.7414663E+02  0.7546771E-02  0.1346534E+00
         21   -1    0    0  504  501  0.00000000000E+00  0.00000000000E+00  0.85281449669E+02  0.85281449669E+02  0.00000000000E+00 0. -1.
         21   -1    0    0  505  502 -0.00000000000E+00 -0.00000000000E+00 -0.51389360612E+03  0.51389360612E+03  0.00000000000E+00 0. -1.
         21    1    1    2  503  506 -0.10021027723E+02  0.66660907316E+02 -0.52053004302E+02  0.85168144383E+02  0.00000000000E+00 0. -1.
         21    1    1    2  504  502  0.43961650618E+02  0.34108213596E+02 -0.40360589844E+02  0.68738447555E+02  0.00000000000E+00 0. -1.
         21    1    1    2  505  503  0.55282930985E+02 -0.15163852932E+02 -0.31455940364E+03  0.31974014967E+03  0.00000000000E+00 0. -1.
         21    1    1    2  506  501 -0.89223553880E+02 -0.85605267980E+02 -0.21639158667E+02  0.12552831418E+03  0.00000000000E+00 0. -1.
<scales pt_clust_3="74.14663" pt_clust_4="55.64168" pt_clust_5="58.56339" pt_clust_6="14000.00000"></scales>
<clustering>
<clus scale="   55.642">  1  4  2 -1</clus>
<clus scale="   58.563">  2  5  1 -1</clus>
<clus scale="   74.147">  2  3  1 -1</clus>
<clus scale="   55.642">  1  3  2 -1</clus>
</clustering>
</event>
<event>
 6    0  0.6687079E+002  0.6495237E+02  0.7546771E-02  0.1378151E+00
         21   -1    0    0  505  501  0.00000000000E+00  0.00000000000E+00  0.15005491696E+04  0.15005491696E+04  0.00000000000E+00 0.  1.
         21   -1    0    0  506  502 -0.00000000000E+00 -0.00000000000E+00 -0.18081308429E+03  0.18081308429E+03  0.00000000000E+00 0. -1.
         21    1    1    2  503  501  0.94203912042E+01  0.65460027832E+02  0.13537845936E+04  0.13553990131E+04  0.00000000000E+00 0.  1.
         21    1    1    2  504  502 -0.33687945942E+02 -0.47542626963E+01 -0.92201585688E+02  0.98278243365E+02  0.00000000000E+00 0. -1.
         21    1    1    2  505  504  0.78844789562E+02 -0.18783047317E+02 -0.53078730614E+02  0.96884752935E+02  0.00000000000E+00 0. -1.
         21    1    1    2  506  503 -0.54577234825E+02 -0.41922717818E+02  0.11123180800E+03  0.13080024442E+03  0.00000000000E+00 0. -1.
<scales pt_clust_3="64.95237" pt_clust_4="34.02177" pt_clust_5="54.40355" pt_clust_6="14000.00000"></scales>
<clustering>
<clus scale="   34.022">  2  4  1 -1</clus>
<clus scale="   54.404">  2  5  1 -1</clus>
<clus scale="   64.952">  1  3  2 -1</clus>
<clus scale="   64.952">  1  3  2 -1</clus>
</clustering>
</event>
<event>
 6    0  0.6687079E+002  0.1200185E+03  0.7546771E-02  0.1243067E+00
         21   -1    0    0  503  501  0.00000000000E+00  0.00000000000E+00  0.31256871799E+03  0.31256871799E+03  0.00000000000E+00 0.  1.
         21   -1    0    0  506  502 -0.00000000000E+00 -0.00000000000E+00 -0.18269891778E+03  0.18269891778E+03  0.00000000000E+00 0.  1.
         21    1    1    2  503  505 -0.83562489765E+02  0.65538573392E+02  0.11693437640E+03  0.15796088972E+03  0.00000000000E+00 0.  1.
         21    1    1    2  504  501  0.66039528134E+02 -0.44087557327E+02  0.12258706043E+03  0.14605656223E+03  0.00000000000E+00 0.  1.
         21    1    1    2  505  502 -0.51390344576E+02  0.48865806259E+01  0.81424869699E+01  0.52260370070E+02  0.00000000000E+00 0.  1.
         21    1    1    2  506  504  0.68913306207E+02 -0.26337596691E+02 -0.11779412359E+03  0.13898981375E+03  0.00000000000E+00 0.  1.
<scales pt_clust_3="51.12360" pt_clust_4="95.01395" pt_clust_5="51.12360" pt_clust_6="73.77474"></scales>
<clustering>
<clus scale="   51.124">  3  5 -1 -1</clus>
<clus scale="   73.775">  2  6  1 -1</clus>
<clus scale="   95.014">  1  4  2 -1</clus>
<clus scale="   95.014">  1  3  2 -1</clus>
</clustering>
</event>
<event>
 6    0  0.6687079E+002  0.2458442E+03  0.7546771E-02  0.1115960E+00
         21   -1    0    0  504  501  0.00000000000E+00  0.00000000000E+00  0.96507488410E+02  0.96507488410E+02  0.00000000000E+00 0. -1.
         21   -1    0    0  505  502 -0.00000000000E+00 -0.00000000000E+00 -0.10131866717E+04  0.10131866717E+04  0.00000000000E+00 0. -1.
         21    1    1    2  503  502  0.19924912729E+03 -0.30643067466E+02 -0.31486034143E+03  0.37386661647E+03  0.00000000000E+00 0. -1.
         21    1    1    2  504  503  0.64008030507E+02  0.17129597439E+02  0.78424197348E+01  0.66722969247E+02  0.00000000000E+00 0. -1.
         21    1    1    2  505  506 -0.21801149175E+03  0.22965935041E+02 -0.55940203727E+03  0.60082200693E+03  0.00000000000E+00 0. -1.
         21    1    1    2  506  501 -0.45245666045E+02 -0.94524650142E+01 -0.50259224373E+02  0.68282567507E+02  0.00000000000E+00 0.  1.
<scales pt_clust_3="232.19014" pt_clust_4="66.26048" pt_clust_5="37.09796" pt_clust_6="37.09796"></scales>
<clustering>
<clus scale="   37.098">  5  6 -1 -1</clus>
<clus scale="   66.260">  1  4  2 -1</clus>
<clus scale="  232.190">  1  3  2 -1</clus>
<clus scale="   66.260">  1  3  2 -1</clus>
</clustering>
</event>
<event>
 6    0  0.6687079E+002  0.1001469E+03  0.7546771E-02  0.1279987E+00
         21   -1    0    0  506  501  0.00000000000E+00  0.00000000000E+00  0.18344490276E+03  0.18344490276E+03  0.00000000000E+00 0. -1.
         21   -1    0    0  503  502 -0.00000000000E+00 -0.00000000000E+00 -0.42580385603E+03  0.42580385603E+03  0.00000000000E+00 0.  1.
         21    1    1    2  503  501 -0.69271495829E+01  0.35009400351E+02 -0.70697385650E+02  0.79194468570E+02  0.00000000000E+00 0.  1.
         21    1    1    2  504  505  0.11405563010E+03  0.17241013350E+02 -0.77361485258E+02  0.13889110375E+03  0.00000000000E+00 0.  1.
         21    1    1    2  505  502 -0.91132223072E+01 -0.54627629419E+02 -0.22277229385E+03  0.22955331325E+03  0.00000000000E+00 0.  1.
         21    1    1    2  506  504 -0.98015258211E+02  0.23772157185E+01  0.12847221149E+03  0.16160987322E+03  0.00000000000E+00 0. -1.
<scales pt_clust_3="35.68814" pt_clust_4="100.14688" pt_clust_5="34.81747" pt_clust_6="14000.00000"></scales>
<clustering>
<clus scale="   35.688">  2  3  1 -1</clus>
<clus scale="   34.817">  2  5  1 -1</clus>
<clus scale="  100.147">  2  4  1 -1</clus>
<clus scale="  100.147">  1  3  2 -1</clus>
</clustering>
</event>
<event>
 6    0  0.6687079E+002  0.1217897E+03  0.7546771E-02  0.1240173E+00
         21   -1    0    0  504  501  0.00000000000E+00  0.00000000000E+00  0.75814788388E+03  0.75814788388E+03  0.00000000000E+00 0.  1.
         21   -1    0    0  503  502 -0.00000000000E+00 -0.00000000000E+00 -0.15238008506E+03  0.15238008506E+03  0.00000000000E+00 0. -1.
         21    1    1    2  503  506 -0.56630600981E+02 -0.10697733123E+03 -0.10823036761E+03  0.16237298679E+03  0.00000000000E+00 0. -1.
         21    1    1    2  504  502  0.21599524467E+02 -0.32028805949E+02  0.66899250584E+02  0.77252142989E+02  0.00000000000E+00 0. -1.
         21    1    1    2  505  501 -0.25698617952E+02  0.20556844182E+02  0.24840389850E+03  0.25057433947E+03  0.00000000000E+00 0.  1.
         21    1    1    2  506  505  0.60729694465E+02  0.11844929300E+03  0.39869501734E+03  0.42032849969E+03  0.00000000000E+00 0.  1.
<scales pt_clust_3="14000.00000" pt_clust_4="34.20865" pt_clust_5="32.90901" pt_clust_6="121.78969"></scales>
<clustering>
<clus scale="   32.909">  1  5  2 -1</clus>
<clus scale="   34.209">  1  4  2 -1</clus>
<clus scale="  121.790">  1  6  2 -1</clus>
<clus scale="   32.909">  1  3  2 -1</clus>
</clustering>
</event>
<event>
 6    0  0.6687079E+002  0.1326328E+03  0.7546771E-02  0.1223601E+00
         21   -1    0    0  502  501  0.00000000000E+00  0.00000000000E+00  0.56803194750E+03  0.56803194750E+03  0.00000000000E+00 0. -1.
         21   -1    0    0  506  502 -0.00000000000E+00 -0.00000000000E+00 -0.65530751285E+03  0.65530751285E+03  0.00000000000E+00 0.  1.
         21    1    1    2  503  501  0.45975644771E+02 -0.11437645383E+03  0.47824913506E+03  0.49388052025E+03  0.00000000000E+00 0. -1.
         21    1    1    2  504  505  0.75854002906E+02  0.18908210900E+02 -0.26338172133E+03  0.27473856906E+03  0.00000000000E+00 0.  1.
         21    1    1    2  505  503 -0.14875229498E+03  0.51258875571E+02 -0.95951970812E+01  0.15762863127E+03  0.00000000000E+00 0. -1.
         21    1    1    2  506  504  0.26922647307E+02  0.44209367354E+02 -0.29254778199E+03  0.29709173978E+03  0.00000000000E+00 0.  1.
<scales pt_clust_3="123.27097" pt_clust_4="47.34534" pt_clust_5="119.18905" pt_clust_6="47.34534"></scales>
<clustering>
<clus scale="   47.345">  4  6 -1 -1</clus>
<clus scale="  123.271">  1  3  2 -1</clus>
<clus scale="  119.189">  1  5  2 -1</clus>
<clus scale="  123.271">  1  3  2 -1</clus>
</clustering>
</event>
<event>
 6    0  0.6687079E+002  0.9856360E+02  0.7546771E-02  0.1283346E+00
         21   -1    0    0  506  501  0.00000000000E+00  0.00000000000E+00  0.55168054232E+02  0.55168054232E+02  0.00000000000E+00 0. -1.
         21   -1    0    0  504  502 -0.00000000000E+00 -0.00000000000E+00 -0.89261046637E+03  0.89261046637E+03  0.00000000000E+00 0.  1.
         21    1    1    2  503  505  0.36377797389E+02  0.31654737712E+02 -0.23690398640E+03  0.24176200143E+03  0.00000000000E+00 0.  1.
         21    1    1    2  504  503 -0.65187652126E+01  0.35130031080E+02 -0.19966471502E+03  0.20283641637E+03  0.00000000000E+00 0.  1.
         21    1    1    2  505  501  0.88858589711E+01  0.89204810496E+02 -0.23009376616E+02  0.92552083270E+02  0.00000000000E+00 0. -1.
         21    1    1    2  506  502 -0.38744891148E+02 -0.15598957929E+03 -0.37786433410E+03  0.41062801953E+03  0.00000000000E+00 0.  1.
<scales pt_clust_3="55.53459" pt_clust_4="35.72973" pt_clust_5="98.56360" pt_clust_6="14000.00000"></scales>
<clustering>
<clus scale="   35.730">  2  4  1 -1</clus>
<clus scale="   55.535">  2  3  1 -1</clus>
<clus scale="   98.564">  1  5  2 -1</clus>
<clus scale="   98.564">  1  3  2 -1</clus>
</clustering>
</event>
<event>
 6    0  0.6687079E+002  0.1884850E+03  0.7546771E-02  0.1159835E+00
         21   -1    0    0  505  501  0.00000000000E+00  0.00000000000E+00  0.22957849153E+03  0.22957849153E+03  0.00000000000E+00 0. -1.
         21   -1    0    0  504  502 -0.00000000000E+00 -0.00000000000E+00 -0.33901252759E+03  0.33901252759E+03  0.00000000000E+00 0. -1.
         21    1    1    2  503  501  0.84079322156E+02 -0.15571258711E+03  0.56774335289E+02  0.18584689222E+03  0.00000000000E+00 0. -1.
         21    1    1    2  504  503  0.94674293805E+01  0.45344694447E+02 -0.67882056999E+02  0.82181185171E+02  0.00000000000E+00 0. -1.
         21    1    1    2  505  506  0.56150858303E+02  0.67596694478E+00  0.40130332325E+02  0.69020427353E+02  0.00000000000E+00 0. -1.
         21    1    1    2  506  502 -0.14969760984E+03  0.10969192572E+03 -0.13845664667E+03  0.23154251438E+03  0.00000000000E+00 0. -1.
<scales pt_clust_3="14000.00000" pt_clust_4="46.32249" pt_clust_5="56.75680" pt_clust_6="188.48497"></scales>
<clustering>
<clus scale="   46.322">  2  4  1 -1</clus>
<clus scale="   56.757">  1  5  2 -1</clus>
<clus scale="  188.485">  2  6  1 -1</clus>
<clus scale="   56.757">  1  3  2 -1</clus>
</clustering>
</event>
<event>
 6    0  0.6687079E+002  0.1550915E+03  0.7546771E-02  0.1194353E+00
         21   -1    0    0  503  501  0.00000000000E+00  0.00000000000E+00  0.10837822981E+03  0.10837822981E+03  0.00000000000E+00 0. -1.
         21   -1    0    0  505  502 -0.00000000000E+00 -0.00000000000E+00 -0.39343690930E+03  0.39343690930E+03  0.00000000000E+00 0.  1.
         21    1    1    2  503  504  0.34779446763E+01  0.30451132911E+02  0.15592951641E+02  0.34387610205E+02  0.00000000000E+00 0.  1.
         21    1    1    2  504  506 -0.90226362978E+02  0.33350123699E+02  0.88789956914E+01  0.96601572924E+02  0.00000000000E+00 0. -1.
         21    1    1    2  505  501  0.12811098404E+03 -0.78711339272E+02 -0.28013604648E+03  0.31793726378E+03  0.00000000000E+00 0.  1.
         21    1    1    2  506  502 -0.41362565743E+02  0.14910082662E+02 -0.29394580339E+02  0.52888692205E+02  0.00000000000E+00 0.  1.
<scales pt_clust_3="30.64910" pt_clust_4="31.69804" pt_clust_5="147.55205" pt_clust_6="31.69804"></scales>
<clustering>
<clus scale="   30.649">  1  3  2 -1</clus>
<clus scale="   31.698">  4  6 -1 -1</clus>
<clus scale="  147.552">  2  5  1 -1</clus>
<clus scale="   30.649">  1  3  2 -1</clus>
</clustering>
</event>
<event>
 6    0  0.6687079E+002  0.1910309E+03  0.7546771E-02  0.1157535E+00
         21   -1    0    0  506  501  0.00000000000E+00  0.00000000000E+00  0.15186355133E+04  0.15186355133E+04  0.00000000000E+00 0. -1.
         21   -1    0    0  503  502 -0.00000000000E+00 -0.00000000000E+00 -0.14591636965E+03  0.14591636965E+03  0.00000000000E+00 0. -1.
         21    1    1    2  503  505 -0.17619003580E+02  0.28216387584E+02 -0.96405780517E+02  0.10198366699E+03  0.00000000000E+00 0. -1.
         21    1    1    2  504  501 -0.19242638861E+03 -0.59612835004E+02  0.46694900699E+03  0.50854987982E+03  0.00000000000E+00 0. -1.
         21    1    1    2  505  504  0.21390344515E+02  0.95104993774E+02  0.15003368281E+03  0.17892068817E+03  0.00000000000E+00 0. -1.
         21    1    1    2  506  502  0.18865504768E+03 -0.63708546354E+02  0.85214223441E+03  0.87509764801E+03  0.00000000000E+00 0. -1.
<scales pt_clust_3="33.26550" pt_clust_4="191.03093" pt_clust_5="105.04480" pt_clust_6="14000.00000"></scales>
<clustering>
<clus scale="   33.266">  2  3  1 -1</clus>
<clus scale="  105.045">  2  5  1 -1</clus>
<clus scale="  191.031">  2  4  1 -1</clus>
<clus scale="  191.031">  1  3  2 -1</clus>
</clustering>
</event>
<event>
 6    0  0.6687079E+002  0.1380443E+03  0.7546771E-02  0.1215985E+00
         21   -1    0    0  506  501  0.00000000000E+00  0.00000000000E+00  0.10451816478E+04  0.10451816478E+04  0.00000000000E+00 0.  1.
         21   -1    0    0  504  502 -0.00000000000E+00 -0.00000000000E+00 -0.25640877656E+03  0.25640877656E+03  0.00000000000E+00 0. -1.
         21    1    1    2  503  502 -0.38876459599E+02 -0.16995195995E+02 -0.23333667818E+03  0.23716285794E+03  0.00000000000E+00 0. -1.
         21    1    1    2  504  505 -0.40251260307E+02 -0.29594614182E+02  0.90632823840E+02  0.10349064645E+03  0.00000000000E+00 0. -1.
         21    1    1    2  505  501 -0.59705854828E+02  0.45527377577E+01  0.97353298049E+02  0.11429427441E+03  0.00000000000E+00 0. -1.
         21    1    1    2  506  503  0.13883357473E+03  0.42037072419E+02  0.83412342756E+03  0.84664264559E+03  0.00000000000E+00 0.  1.
<scales pt_clust_3="42.42895" pt_clust_4="35.05664" pt_clust_5="35.05664" pt_clust_6="132.60185"></scales>
<clustering>
<clus scale="   35.057">  4  5 -1 -1</clus>
<clus scale="   42.429">  2  3  1 -1</clus>
<clus scale="  132.602">  1  6  2 -1</clus>
<clus scale="  132.602">  1  3  2 -1</clus>
</clustering>
</event>
<event>
 6    0  0.6687079E+002  0.1343054E+03  0.7546771E-02  0.1221204E+00
         21   -1    0    0  504  501  0.00000000000E+00  0.00000000000E+00  0.14178674623E+03  0.14178674623E+03  0.00000000000E+00 0. -1.
         21   -1    0    0  506  502 -0.00000000000E+00 -0.00000000000E+00 -0.16052431016E+03  0.16052431016E+03  0.00000000000E+00 0. -1.
         21    1    1    2  503  501  0.60107382458E+02 -0.41339305826E+02  0.43527322815E+01  0.73080653462E+02  0.00000000000E+00 0. -1.
         21    1    1    2  504  502  0.41116946114E+01  0.30404661416E+02 -0.31278551078E+01  0.30840443349E+02  0.00000000000E+00 0. -1.
         21    1    1    2  505  503  0.62640668606E+02 -0.76591011375E+01  0.16237186727E+02  0.65162576886E+02  0.00000000000E+00 0. -1.
         21    1    1    2  506  505 -0.12685974568E+03  0.18593745548E+02 -0.36199627831E+02  0.13322738270E+03  0.00000000000E+00 0. -1.
<scales pt_clust_3="33.24221" pt_clust_4="30.68142" pt_clust_5="33.24221" pt_clust_6="129.68659"></scales>
<clustering>
<clus scale="   30.681">  2  4  1 -1</clus>
<clus scale="   33.242">  3  5 -1 -1</clus>
<clus scale="  129.687">  2  6  1 -1</clus>
<clus scale="  134.305">  1  3  2 -1</clus>
</clustering>
</event>
<event>
 6    0  0.6687079E+002  0.8872169E+02  0.7546771E-02  0.1305977E+00
         21   -1    0    0  505  501  0.00000000000E+00  0.00000000000E+00  0.28356116206E+04  0.28356116206E+04  0.00000000000E+00 0. -1.
         21   -1    0    0  504  502 -0.00000000000E+00 -0.00000000000E+00 -0.11309607373E+04  0.11309607373E+04  0.00000000000E+00 0. -1.
         21    1    1    2  503  506  0.49087852231E+02 -0.71982715807E+02  0.11078882586E+04  0.11113089229E+04  0.00000000000E+00 0. -1.
         21    1    1    2  504  501 -0.63042440561E+02  0.65559055439E+02  0.14136225626E+04  0.14165454771E+04  0.00000000000E+00 0. -1.
         21    1    1    2  505  503 -0.24260262100E+02 -0.22150702824E+02  0.30955475572E+03  0.31129304640E+03  0.00000000000E+00 0.  1.
         21    1    1    2  506  502  0.38214850430E+02  0.28574363193E+02 -0.11264146936E+04  0.11274249115E+04  0.00000000000E+00 0. -1.
<scales pt_clust_3="88.72169" pt_clust_4="14000.00000" pt_clust_5="32.85139" pt_clust_6="47.71001"></scales>
<clustering>
<clus scale="   32.851">  1  5  2 -1</clus>
<clus scale="   47.710">  2  6  1 -1</clus>
<clus scale="   88.722">  2  3  1 -1</clus>
<clus scale="   32.851">  1  3  2 -1</clus>
</clustering>
</event>
<event>
 6    0  0.6687079E+002  0.1051260E+03  0.7546771E-02  0.1269872E+00
         21   -1    0    0  506  501  0.00000000000E+00  0.00000000000E+00  0.20854012070E+03  0.20854012070E+03  0.00000000000E+00 0.  1.
         21   -1    0    0  504  502 -0.00000000000E+00 -0.00000000000E+00 -0.35891731503E+03  0.35891731503E+03  0.00000000000E+00 0.  1.
         21    1    1    2  503  501  0.38499305593E+02  0.13014910218E+03  0.52540931830E+02  0.14553877438E+03  0.00000000000E+00 0.  1.
         21    1    1    2  504  503  0.40534870636E+02 -0.40173785423E+02 -0.49399978179E+02  0.75480902331E+02  0.00000000000E+00 0.  1.
         21    1    1    2  505  502 -0.85191817042E+02 -0.51169177113E+02 -0.23545451037E+03  0.25556751913E+03  0.00000000000E+00 0.  1.
         21    1    1    2  506  505  0.61576408128E+01 -0.38806139648E+02  0.81936362392E+02  0.90870239886E+02  0.00000000000E+00 0.  1.
<scales pt_clust_3="105.12598" pt_clust_4="60.50464" pt_clust_5="14000.00000" pt_clust_6="39.29164"></scales>
<clustering>
<clus scale="   39.292">  1  6  2 -1</clus>
<clus scale="   60.505">  2  4  1 -1</clus>
<clus scale="  105.126">  1  3  2 -1</clus>
<clus scale="   39.292">  1  3  2 -1</clus>
</clustering>
</event>
<event>
 6    0  0.6687079E+002  0.1570190E+03  0.7546771E-02  0.1192104E+00
         21   -1    0    0  503  501  0.00000000000E+00  0.00000000000E+00  0.16765380881E+03  0.16765380881E+03  0.00000000000E+00 0. -1.
         21   -1    0    0  505  502 -0.00000000000E+00 -0.00000000000E+00 -0.34961346049E+03  0.34961346049E+03  0.00000000000E+00 0. -1.
         21    1    1    2  503  506 -0.90089374252E+02  0.41966750994E+02 -0.21105300772E+02  0.10160087235E+03  0.00000000000E+00 0. -1.
         21    1    1    2  504  501  0.10302721401E+03 -0.12211179435E+03  0.58987188116E+02  0.17030967532E+03  0.00000000000E+00 0. -1.
         21    1    1    2  505  504  0.30480833584E+00  0.44506659079E+02 -0.19482751936E+03  0.19984668602E+03  0.00000000000E+00 0. -1.
         21    1    1    2  506  502 -0.13242648093E+02  0.35638384275E+02 -0.25014019661E+02  0.45510035617E+02  0.00000000000E+00 0. -1.
<scales pt_clust_3="32.81313" pt_clust_4="147.78497" pt_clust_5="44.50770" pt_clust_6="32.81313"></scales>
<clustering>
<clus scale="   32.813">  3  6 -1 -1</clus>
<clus scale="   44.508">  2  5  1 -1</clus>
<clus scale="  147.785">  1  4  2 -1</clus>
<clus scale="  147.785">  1  3  2 -1</clus>
</clustering>
</event>
<event>
 6    0  0.6687079E+002  0.1257238E+03  0.7546771E-02  0.1233942E+00
         21   -1    0    0  506  501  0.00000000000E+00  0.00000000000E+00  0.56407785305E+03  0.56407785305E+03  0.00000000000E+00 0.  1.
         21   -1    0    0  505  502 -0.00000000000E+00 -0.00000000000E+00 -0.52703655363E+02  0.52703655363E+02  0.00000000000E+00 0.  1.
         21    1    1    2  503  502  0.94128337754E+02  0.22751495943E+02  0.15071988319E+03  0.17914870283E+03  0.00000000000E+00 0.  1.
         21    1    1    2  504  501 -0.68881060392E+02 -0.59336095904E+01  0.82485322748E+02  0.10762730449E+03  0.00000000000E+00 0. -1.
         21    1    1    2  505  504 -0.56819137485E+02  0.15054203665E+02  0.11885318409E+02  0.59969193977E+02  0.00000000000E+00 0.  1.
         21    1    1    2  506  503  0.31571860123E+02 -0.31872090017E+02  0.26628367334E+03  0.27003630711E+03  0.00000000000E+00 0.  1.
<scales pt_clust_3="111.83664" pt_clust_4="54.15149" pt_clust_5="54.15149" pt_clust_6="44.86215"></scales>
<clustering>
<clus scale="   44.862">  1  6  2 -1</clus>
<clus scale="   54.151">  4  5 -1 -1</clus>
<clus scale="  111.837">  1  3  2 -1</clus>
<clus scale="   44.862">  1  3  2 -1</clus>
</clustering>
</event>
<event>
 6    0  0.6687079E+002  0.2876518E+03  0.7546771E-02  0.1091582E+00
         21   -1    0    0  505  501  0.00000000000E+00  0.00000000000E+00  0.38130557746E+03  0.38130557746E+03  0.00000000000E+00 0.  1.
         21   -1    0    0  506  502 -0.00000000000E+00 -0.00000000000E+00 -0.64702789604E+03  0.64702789604E+03  0.00000000000E+00 0. -1.
         21    1    1    2  503  501 -0.12059873655E+03 -0.26504668792E+02  0.17084866814E+03  0.21079805533E+03  0.00000000000E+00 0.  1.
         21    1    1    2  504  502  0.30500386947E+03  0.60624008728E+02 -0.44727207330E+03  0.54475218070E+03  0.00000000000E+00 0. -1.
         21    1    1    2  505  504  0.42548037851E+02  0.22123675874E+01 -0.13234186763E+01  0.42626066348E+02  0.00000000000E+00 0.  1.
         21    1    1    2  506  503 -0.22695317077E+03 -0.36331707524E+02  0.12024505259E+02  0.23015717113E+03  0.00000000000E+00 0.  1.
<scales pt_clust_3="101.30530" pt_clust_4="287.65183" pt_clust_5="42.60552" pt_clust_6="14000.00000"></scales>
<clustering>
<clus scale="   42.606">  1  5  2 -1</clus>
<clus scale="  101.305">  1  3  2 -1</clus>
<clus scale="  287.652">  2  4  1 -1</clus>
<clus scale="   42.606">  1  3  2 -1</clus>
</clustering>
</event>
<event>
 6    0  0.6687079E+002  0.2186156E+03  0.7546771E-02  0.1134919E+00
         21   -1    0    0  505  501  0.00000000000E+00  0.00000000000E+00  0.10340560407E+04  0.10340560407E+04  0.00000000000E+00 0.  1.
         21   -1    0    0  504  502 -0.00000000000E+00 -0.00000000000E+00 -0.12447235922E+03  0.12447235922E+03  0.00000000000E+00 0.  1.
         21    1    1    2  503  501  0.86399598291E+01 -0.29035356816E+02  0.66318403087E+03  0.66387556037E+03  0.00000000000E+00 0.  1.
         21    1    1    2  504  506 -0.42777075199E+02  0.12110379257E+02  0.28483681870E+02  0.52800185428E+02  0.00000000000E+00 0.  1.
         21    1    1    2  505  502  0.18900993664E+03  0.94273452378E+02  0.11628069848E+03  0.24110877382E+03  0.00000000000E+00 0.  1.
         21    1    1    2  506  503 -0.15487282127E+03 -0.77348474819E+02  0.10163527027E+03  0.20074388032E+03  0.00000000000E+00 0.  1.
<scales pt_clust_3="30.29358" pt_clust_4="31.33199" pt_clust_5="209.19037" pt_clust_6="31.33199"></scales>
<clustering>
<clus scale="   30.294">  1  3  2 -1</clus>
<clus scale="   31.332">  4  6 -1 -1</clus>
<clus scale="  209.190">  2  5  1 -1</clus>
<clus scale="   30.294">  1  3  2 -1</clus>
</clustering>
</event>
<event>
 6    0  0.6687079E+002  0.1255526E+03  0.7546771E-02  0.1234208E+00
         21   -1    0    0  505  501  0.00000000000E+00  0.00000000000E+00  0.20127466684E+03  0.20127466684E+03  0.00000000000E+00 0.  1.
         21   -1    0    0  504  502 -0.00000000000E+00 -0.00000000000E+00 -0.10634170997E+04  0.10634170997E+04  0.00000000000E+00 0. -1.
         21    1    1    2  503  501 -0.16175323923E+03 -0.29423672050E+02 -0.20078824834E+03  0.25951066173E+03  0.00000000000E+00 0. -1.
         21    1    1    2  504  503 -0.28998603541E+02  0.32827956720E+02 -0.75844749205E+03  0.75971125564E+03  0.00000000000E+00 0. -1.
         21    1    1    2  505  506  0.11920921388E+03 -0.27949723716E+02  0.11474116230E+03  0.16780213961E+03  0.00000000000E+00 0.  1.
         21    1    1    2  506  502  0.71542628892E+02  0.24545439046E+02 -0.17647854740E+02  0.77667709530E+02  0.00000000000E+00 0.  1.
<scales pt_clust_3="14000.00000" pt_clust_4="43.80176" pt_clust_5="125.55257" pt_clust_6="73.28356"></scales>
<clustering>
<clus scale="   43.802">  2  4  1 -1</clus>
<clus scale="   73.284">  2  6  1 -1</clus>
<clus scale="  125.553">  1  5  2 -1</clus>
<clus scale="  125.553">  1  3  2 -1</clus>
</clustering>
</event>
<event>
 6    0  0.6687079E+002  0.8349118E+02  0.7546771E-02  0.1319426E+00
         21   -1    0    0  506  501  0.00000000000E+00  0.00000000000E+00  0.25209165663E+04  0.25209165663E+04  0.00000000000E+00 0.  1.
         21   -1    0    0  503  502 -0.00000000000E+00 -0.00000000000E+00 -0.12497191905E+02  0.12497191905E+02  0.00000000000E+00 0.  1.
         21    1    1    2  503  504  0.74205345696E+02 -0.40803372925E+02  0.24520985524E+03  0.25942093531E+03  0.00000000000E+00 0.  1.
         21    1    1    2  504  505 -0.78992697454E+02  0.22852562946E+02  0.55921807978E+03  0.56523176365E+03  0.00000000000E+00 0.  1.
         21    1    1    2  505  501  0.25291616971E+02  0.68215562432E+02  0.89679243492E+03  0.89973868439E+03  0.00000000000E+00 0.  1.
         21    1    1    2  506  502 -0.20504265213E+02 -0.50264752453E+02  0.80719900449E+03  0.80902237490E+03  0.00000000000E+00 0.  1.
<scales pt_clust_3="14000.00000" pt_clust_4="83.49118" pt_clust_5="44.30775" pt_clust_6="54.28600"></scales>
<clustering>
<clus scale="   54.286">  1  6  2 -1</clus>
<clus scale="   44.308">  1  5  2 -1</clus>
<clus scale="   83.491">  1  4  2 -1</clus>
<clus scale="   54.286">  1  3  2 -1</clus>
</clustering>
</event>
<event>
 6    0  0.6687079E+002  0.8028787E+02  0.7546771E-02  0.1328236E+00
         21   -1    0    0  506  501  0.00000000000E+00  0.00000000000E+00  0.10173729654E+02  0.10173729654E+02  0.00000000000E+00 0.  1.
         21   -1    0    0  504  502 -0.00000000000E+00 -0.00000000000E+00 -0.24652289892E+04  0.24652289892E+04  0.00000000000E+00 0.  1.
         21    1    1    2  503  501  0.32879859728E+02 -0.12086338787E+02 -0.21140360753E+03  0.21428637390E+03  0.00000000000E+00 0.  1.
         21    1    1    2  504  503  0.15356832764E+02  0.74340183563E+02 -0.14786370362E+04  0.14805842698E+04  0.00000000000E+00 0.  1.
         21    1    1    2  505  502 -0.16840205148E+02 -0.10246829522E+03 -0.51093123921E+03  0.52137709504E+03  0.00000000000E+00 0.  1.
         21    1    1    2  506  505 -0.31396487344E+02  0.40214450442E+02 -0.25408337656E+03  0.25915498006E+03  0.00000000000E+00 0.  1.
<scales pt_clust_3="35.03091" pt_clust_4="80.28787" pt_clust_5="14000.00000" pt_clust_6="42.71520"></scales>
<clustering>
<clus scale="   35.031">  1  3  2 -1</clus>
<clus scale="   42.715">  1  6  2 -1</clus>
<clus scale="   80.288">  2  4  1 -1</clus>
<clus scale="   35.031">  1  3  2 -1</clus>
</clustering>
</event>
<event>
 6    0  0.6687079E+002  0.1234383E+03  0.7546771E-02  0.1237530E+00
         21   -1    0    0  504  501  0.00000000000E+00  0.00000000000E+00  0.46871655201E+02  0.46871655201E+02  0.00000000000E+00 0.  1.
         21   -1    0    0  501  502 -0.00000000000E+00 -0.00000000000E+00 -0.94598221183E+03  0.94598221183E+03  0.00000000000E+00 0.  1.
         21    1    1    2  503  502  0.72591608016E+02 -0.23072314343E+02 -0.43413776900E+03  0.44076918644E+03  0.00000000000E+00 0.  1.
         21    1    1    2  504  506 -0.11268679158E+02 -0.30454179982E+02  0.16773826847E+02  0.36548617969E+02  0.00000000000E+00 0.  1.
         21    1    1    2  505  503  0.19722061184E+02 -0.40350263853E+02 -0.23636125504E+03  0.24059041206E+03  0.00000000000E+00 0.  1.
         21    1    1    2  506  505 -0.81044990042E+02  0.93876758179E+02 -0.24538535943E+03  0.27494565056E+03  0.00000000000E+00 0.  1.
<scales pt_clust_3="36.45763" pt_clust_4="32.47215" pt_clust_5="36.45763" pt_clust_6="114.45210"></scales>
<clustering>
<clus scale="   32.472">  1  4  2 -1</clus>
<clus scale="   36.458">  3  5 -1 -1</clus>
<clus scale="  114.452">  1  6  2 -1</clus>
<clus scale="   32.472">  1  3  2 -1</clus>
</clustering>
</event>
<event>
 6    0  0.6687079E+002  0.1511640E+03  0.7546771E-02  0.1199050E+00
         21   -1    0    0  503  501  0.00000000000E+00  0.00000000000E+00  0.21854872756E+03  0.21854872756E+03  0.00000000000E+00 0. -1.
         21   -1    0    0  506  502 -0.00000000000E+00 -0.00000000000E+00 -0.10691395797E+03  0.10691395797E+03  0.00000000000E+00 0. -1.
         21    1    1    2  503  502  0.12531993153E+03  0.12668660874E+02 -0.16838732057E+02  0.12707920012E+03  0.00000000000E+00 0. -1.
         21    1    1    2  504  505 -0.28648990888E+02 -0.21964723595E+02  0.17989778047E+02  0.40334177513E+02  0.00000000000E+00 0. -1.
         21    1    1    2  505  501 -0.64098290514E+02 -0.72741719201E+00  0.10572286189E+03  0.12363835776E+03  0.00000000000E+00 0. -1.
         21    1    1    2  506  504 -0.32572650124E+02  0.10023479912E+02  0.47608617064E+01  0.34410950145E+02  0.00000000000E+00 0. -1.
<scales pt_clust_3="125.95864" pt_clust_4="63.67464" pt_clust_5="63.67464" pt_clust_6="33.35584"></scales>
<clustering>
<clus scale="   33.356">  4  6 -1 -1</clus>
<clus scale="   63.675">  4  5 -1 -1</clus>
<clus scale="  125.959">  2  3  1 -1</clus>
<clus scale="  151.164">  1  3  2 -1</clus>
</clustering>
</event>
<event>
 6    0  0.6687079E+002  0.1623014E+03  0.7546771E-02  0.1186123E+00
         21   -1    0    0  506  501  0.00000000000E+00  0.00000000000E+00  0.51673785595E+03  0.51673785595E+03  0.00000000000E+00 0. -1.
         21   -1    0    0  504  502 -0.00000000000E+00 -0.00000000000E+00 -0.66103113316E+02  0.66103113316E+02  0.00000000000E+00 0. -1.
         21    1    1    2  503  501  0.33531206873E+02  0.16526893636E+03  0.16564887867E+03  0.23638467413E+03  0.00000000000E+00 0. -1.
         21    1    1    2  504  503 -0.35057505117E+02 -0.13085169594E+02  0.34583603971E+02  0.50953665147E+02  0.00000000000E+00 0. -1.
         21    1    1    2  505  502  0.17706642537E+02 -0.65890858613E+02  0.94136040027E+02  0.11626144877E+03  0.00000000000E+00 0. -1.
         21    1    1    2  506  505 -0.16180344293E+02 -0.86292908156E+02  0.15626621997E+03  0.17924118121E+03  0.00000000000E+00 0. -1.
<scales pt_clust_3="157.74497" pt_clust_4="37.41992" pt_clust_5="33.66393" pt_clust_6="33.66393"></scales>
<clustering>
<clus scale="   33.664">  5  6 -1 -1</clus>
<clus scale="   37.420">  2  4  1 -1</clus>
<clus scale="  157.745">  2  3  1 -1</clus>
<clus scale="  162.301">  1  3  2 -1</clus>
</clustering>
</event>
<event>
 6    0  0.6687079E+002  0.1235539E+03  0.7546771E-02  0.1237347E+00
         21   -1    0    0  503  501  0.00000000000E+00  0.00000000000E+00  0.59162776709E+03  0.59162776709E+03  0.00000000000E+00 0. -1.
         21   -1    0    0  501  502 -0.00000000000E+00 -0.00000000000E+00 -0.46928426175E+03  0.46928426175E+03  0.00000000000E+00 0. -1.
         21    1    1    2  503  504 -0.65337047858E+01 -0.31873125360E+02  0.44331648133E+03  0.44450881660E+03  0.00000000000E+00 0. -1.
         21    1    1    2  504  506  0.37984941136E+02  0.24502791349E+02  0.13639396813E+02  0.47215206051E+02  0.00000000000E+00 0. -1.
         21    1    1    2  505  502 -0.40148537260E+02 -0.11708977906E+03 -0.40668349412E+03  0.42510397057E+03  0.00000000000E+00 0. -1.
         21    1    1    2  506  505  0.86973009100E+01  0.12446011307E+03  0.72071121326E+02  0.14408403561E+03  0.00000000000E+00 0. -1.
<scales pt_clust_3="32.53591" pt_clust_4="40.79426" pt_clust_5="14000.00000" pt_clust_6="123.55394"></scales>
<clustering>
<clus scale="   32.536">  1  3  2 -1</clus>
<clus scale="   40.794">  1  4  2 -1</clus>
<clus scale="  123.554">  1  6  2 -1</clus>
<clus scale="   32.536">  1  3  2 -1</clus>
</clustering>
</event>
<event>
 6    0  0.6687079E+002  0.3987552E+03  0.7546771E-02  0.1044212E+00
         21   -1    0    0  503  501  0.00000000000E+00  0.00000000000E+00  0.66195181463E+03  0.66195181463E+03  0.00000000000E+00 0. -1.
         21   -1    0    0  505  502 -0.00000000000E+00 -0.00000000000E+00 -0.39756846444E+03  0.39756846444E+03  0.00000000000E+00 0. -1.
         21    1    1    2  503  504 -0.16408439309E+03  0.16711733145E+03  0.29213698684E+03  0.37442744238E+03  0.00000000000E+00 0. -1.
         21    1    1    2  504  502 -0.10171361048E+03  0.11080272159E+03  0.13998170939E+03  0.20546965867E+03  0.00000000000E+00 0.  1.
         21    1    1    2  505  506  0.30140281412E+03 -0.26308050033E+03 -0.18062405740E+03  0.43895336441E+03  0.00000000000E+00 0. -1.
         21    1    1    2  506  501 -0.35604810550E+02 -0.14839552714E+02  0.12888711358E+02  0.40669813616E+02  0.00000000000E+00 0. -1.
<scales pt_clust_3="32.70917" pt_clust_4="32.70917" pt_clust_5="396.66079" pt_clust_6="38.57350"></scales>
<clustering>
<clus scale="   32.709">  3  4 -1 -1</clus>
<clus scale="   38.573">  1  6  2 -1</clus>
<clus scale="  396.661">  2  5  1 -1</clus>
<clus scale="   38.573">  1  3  2 -1</clus>
</clustering>
</event>
<event>
 6    0  0.6687079E+002  0.9305445E+02  0.7546771E-02  0.1295619E+00
         21   -1    0    0  506  501  0.00000000000E+00  0.00000000000E+00  0.27009389676E+03  0.27009389676E+03  0.00000000000E+00 0. -1.
         21   -1    0    0  503  502 -0.00000000000E+00 -0.00000000000E+00 -0.69035497567E+03  0.69035497567E+03  0.00000000000E+00 0. -1.
         21    1    1    2  503  504  0.13120825537E+03 -0.21339872216E+02 -0.60924775415E+03  0.62358144805E+03  0.00000000000E+00 0. -1.
         21    1    1    2  504  501 -0.66599106595E+02 -0.38456488105E+02  0.21428078440E+03  0.22766334144E+03  0.00000000000E+00 0. -1.
         21    1    1    2  505  502 -0.38487935172E+02  0.13899567485E+02 -0.36937660523E+02  0.55126308556E+02  0.00000000000E+00 0. -1.
         21    1    1    2  506  505 -0.26121213603E+02  0.45896792836E+02  0.11643551362E+02  0.54077774372E+02  0.00000000000E+00 0.  1.
<scales pt_clust_3="93.05445" pt_clust_4="14000.00000" pt_clust_5="40.92089" pt_clust_6="53.84120"></scales>
<clustering>
<clus scale="   40.921">  2  5  1 -1</clus>
<clus scale="   53.841">  1  6  2 -1</clus>
<clus scale="   93.054">  2  3  1 -1</clus>
<clus scale="   53.841">  1  3  2 -1</clus>
</clustering>
</event>
<event>
 6    0  0.6687079E+002  0.1544490E+03  0.7546771E-02  0.1195110E+00
         21   -1    0    0  503  501  0.00000000000E+00  0.00000000000E+00  0.31350560804E+03  0.31350560804E+03  0.00000000000E+00 0. -1.
         21   -1    0    0  506  502 -0.00000000000E+00 -0.00000000000E+00 -0.23219044095E+03  0.23219044095E+03  0.00000000000E+00 0. -1.
         21    1    1    2  503  502 -0.97909059010E+02 -0.19417466768E+03 -0.26510056766E+02  0.21907251885E+03  0.00000000000E+00 0. -1.
         21    1    1    2  504  505  0.37194058062E+02 -0.22183139279E+01  0.34904026760E+02  0.51054969943E+02  0.00000000000E+00 0. -1.
         21    1    1    2  505  501  0.52842663945E+02  0.68453050090E+02  0.11205751587E+03  0.14154523680E+03  0.00000000000E+00 0. -1.
         21    1    1    2  506  504  0.78723370037E+01  0.12793993152E+03 -0.39136318770E+02  0.13402332339E+03  0.00000000000E+00 0. -1.
<scales pt_clust_3="154.44904" pt_clust_4="35.97384" pt_clust_5="124.48753" pt_clust_6="14000.00000"></scales>
<clustering>
<clus scale="   35.974">  4  5 -1 -1</clus>
<clus scale="  124.488">  1  4  2 -1</clus>
<clus scale="  154.449">  1  3  2 -1</clus>
<clus scale="  124.488">  1  3  2 -1</clus>
</clustering>
</event>
<event>
 6    0  0.6687079E+002  0.1240397E+03  0.7546771E-02  0.1236578E+00
         21   -1    0    0  506  501  0.00000000000E+00  0.00000000000E+00  0.15303622321E+03  0.15303622321E+03  0.00000000000E+00 0.  1.
         21   -1    0    0  505  502 -0.00000000000E+00 -0.00000000000E+00 -0.18427455254E+03  0.18427455254E+03  0.00000000000E+00 0.  1.
         21    1    1    2  503  501  0.11398104279E+03 -0.89402742830E+02 -0.28931480566E+01  0.14488926408E+03  0.00000000000E+00 0.  1.
         21    1    1    2  504  502 -0.56507122717E+02  0.44678508391E+02  0.12606127192E+02  0.73130967945E+02  0.00000000000E+00 0.  1.
         21    1    1    2  505  503 -0.20540489324E+02  0.51127298971E+02 -0.56308994671E+02  0.78782074627E+02  0.00000000000E+00 0.  1.
         21    1    1    2  506  504 -0.36933430748E+02 -0.64030645317E+01  0.15357686206E+02  0.40508469088E+02  0.00000000000E+00 0.  1.
<scales pt_clust_3="115.97439" pt_clust_4="31.73801" pt_clust_5="55.09911" pt_clust_6="31.73801"></scales>
<clustering>
<clus scale="   31.738">  4  6 -1 -1</clus>
<clus scale="   55.099">  2  5  1 -1</clus>
<clus scale="  115.974">  2  3  1 -1</clus>
<clus scale="  124.040">  1  3  2 -1</clus>
</clustering>
</event>
<event>
 6    0  0.6687079E+002  0.1167801E+03  0.7546771E-02  0.1248505E+00
         21   -1    0    0  506  501  0.00000000000E+00  0.00000000000E+00  0.47244895707E+03  0.47244895707E+03  0.00000000000E+00 0. -1.
         21   -1    0    0  505  502 -0.00000000000E+00 -0.00000000000E+00 -0.10463606010E+03  0.10463606010E+03  0.00000000000E+00 0. -1.
         21    1    1    2  503  501  0.10652007710E+03 -0.38987917419E+02  0.29743213555E+03  0.31832759822E+03  0.00000000000E+00 0. -1.
         21    1    1    2  504  503 -0.94524301549E+02  0.10240835516E+03  0.10406999767E+03  0.17393354824E+03  0.00000000000E+00 0. -1.
         21    1    1    2  505  504 -0.25070837990E+02 -0.18815469477E+02 -0.12650754364E+02  0.33802520544E+02  0.00000000000E+00 0. -1.
         21    1    1    2  506  502  0.13075062436E+02 -0.44604968264E+02 -0.21038481889E+02  0.51021350156E+02  0.00000000000E+00 0. -1.
<scales pt_clust_3="116.78008" pt_clust_4="14000.00000" pt_clust_5="31.34595" pt_clust_6="52.96925"></scales>
<clustering>
<clus scale="   31.346">  2  5  1 -1</clus>
<clus scale="   52.969">  2  6  1 -1</clus>
<clus scale="  116.780">  1  3  2 -1</clus>
<clus scale="  116.780">  1  3  2 -1</clus>
</clustering>
</event>
<event>
 6    0  0.6687079E+002  0.8422461E+02  0.7546771E-02  0.1317473E+00
         21   -1    0    0  505  501  0.00000000000E+00  0.00000000000E+00  0.34051733293E+03  0.34051733293E+03  0.00000000000E+00 0. -1.
         21   -1    0    0  506  502 -0.00000000000E+00 -0.00000000000E+00 -0.45694517245E+03  0.45694517245E+03  0.00000000000E+00 0. -1.
         21    1    1    2  503  501 -0.40829346633E+02  0.72254776101E+02  0.23891970208E+03  0.25292372814E+03  0.00000000000E+00 0. -1.
         21    1    1    2  504  503  0.84406480158E+01 -0.10073083265E+03 -0.21829213331E+00  0.10108408795E+03  0.00000000000E+00 0. -1.
         21    1    1    2  505  502  0.93577893027E+02  0.30770665731E+01 -0.12476689730E+02  0.94456117794E+02  0.00000000000E+00 0. -1.
         21    1    1    2  506  504 -0.61189194410E+02  0.25398989978E+02 -0.34265255974E+03  0.34899857148E+03  0.00000000000E+00 0. -1.
<scales pt_clust_3="84.22461" pt_clust_4="14000.00000" pt_clust_5="65.93530" pt_clust_6="66.25124"></scales>
<clustering>
<clus scale="   66.251">  2  6  1 -1</clus>
<clus scale="   65.935">  2  5  1 -1</clus>
<clus scale="   84.225">  1  3  2 -1</clus>
<clus scale="   84.225">  1  3  2 -1</clus>
</clustering>
</event>
<event>
 6    0  0.6687079E+002  0.1650004E+03  0.7546771E-02  0.1183164E+00
         21   -1    0    0  506  501  0.00000000000E+00  0.00000000000E+00  0.77106398656E+02  0.77106398656E+02  0.00000000000E+00 0.  1.
         21   -1    0    0  505  502 -0.00000000000E+00 -0.00000000000E+00 -0.60728138430E+03  0.60728138430E+03  0.00000000000E+00 0.  1.
         21    1    1    2  503  504  0.98974988263E+02 -0.12615254782E+02 -0.92543749040E+02  0.13608651087E+03  0.00000000000E+00 0.  1.
         21    1    1    2  504  501 -0.25432495141E+02  0.60363939285E+02 -0.23348185644E+02  0.69539591227E+02  0.00000000000E+00 0.  1.
         21    1    1    2  505  503  0.59864453056E+02  0.36142302013E+02 -0.64568380409E+02  0.95179275491E+02  0.00000000000E+00 0.  1.
         21    1    1    2  506  502 -0.13340694618E+03 -0.83890986516E+02 -0.34971467055E+03  0.38358240536E+03  0.00000000000E+00 0.  1.
<scales pt_clust_3="45.97713" pt_clust_4="65.50280" pt_clust_5="45.97713" pt_clust_6="155.59239"></scales>
<clustering>
<clus scale="   45.977">  3  5 -1 -1</clus>
<clus scale="   65.503">  1  4  2 -1</clus>
<clus scale="  155.592">  2  6  1 -1</clus>
<clus scale="   65.503">  1  3  2 -1</clus>
</clustering>
</event>
<event>
 6    0  0.6687079E+002  0.1592600E+03  0.7546771E-02  0.1189535E+00
         21   -1    0    0  502  501  0.00000000000E+00  0.00000000000E+00  0.85598689720E+03  0.85598689720E+03  0.00000000000E+00 0. -1.
         21   -1    0    0  505  502 -0.00000000000E+00 -0.00000000000E+00 -0.19297941988E+03  0.19297941988E+03  0.00000000000E+00 0. -1.
         21    1    1    2  503  506  0.10280558801E+03 -0.59189680820E+02  0.48399256206E+03  0.49831837953E+03  0.00000000000E+00 0. -1.
         21    1    1    2  504  503 -0.97120410619E+02  0.28422686409E+02  0.27344832925E+02  0.10482348568E+03  0.00000000000E+00 0.  1.
         21    1    1    2  505  504 -0.50120413209E+02  0.16298407586E+02 -0.14043809446E+03  0.15000184094E+03  0.00000000000E+00 0. -1.
         21    1    1    2  506  501  0.44435235813E+02  0.14468586825E+02  0.29210817680E+03  0.29582261093E+03  0.00000000000E+00 0. -1.
<scales pt_clust_3="42.78904" pt_clust_4="143.93062" pt_clust_5="52.70383" pt_clust_6="42.78904"></scales>
<clustering>
<clus scale="   42.789">  3  6 -1 -1</clus>
<clus scale="   52.704">  2  5  1 -1</clus>
<clus scale="  143.931">  2  4  1 -1</clus>
<clus scale="  159.260">  1  3  2 -1</clus>
</clustering>
</event>
<event>
 6    0  0.6687079E+002  0.1112874E+03  0.7546771E-02  0.1258204E+00
         21   -1    0    0  506  501  0.00000000000E+00  0.00000000000E+00  0.54329911578E+03  0.54329911578E+03  0.00000000000E+00 0.  1.
         21   -1    0    0  503  502 -0.00000000000E+00 -0.00000000000E+00 -0.48738167258E+03  0.48738167258E+03  0.00000000000E+00 0.  1.
         21    1    1    2  503  504  0.20170924229E+02  0.31866782244E+02 -0.45299246659E+03  0.45455971311E+03  0.00000000000E+00 0.  1.
         21    1    1    2  504  505 -0.10710688089E+03 -0.24046876667E+02  0.21302619965E+03  0.23964619327E+03  0.00000000000E+00 0.  1.
         21    1    1    2  505  501 -0.26885092660E+02  0.15985614177E+02  0.13118524861E+03  0.13486258755E+03  0.00000000000E+00 0.  1.
         21    1    1    2  506  502  0.11382104932E+03 -0.23805519754E+02  0.16469846154E+03  0.20161229445E+03  0.00000000000E+00 0.  1.
<scales pt_clust_3="37.71254" pt_clust_4="111.28742" pt_clust_5="31.27856" pt_clust_6="14000.00000"></scales>
<clustering>
<clus scale="   31.279">  1  5  2 -1</clus>
<clus scale="   37.713">  2  3  1 -1</clus>
<clus scale="  111.287">  2  4  1 -1</clus>
<clus scale="   31.279">  1  3  2 -1</clus>
</clustering>
</event>
<event>
 6    0  0.6687079E+002  0.1203355E+03  0.7546771E-02  0.1242545E+00
         21   -1    0    0  505  501  0.00000000000E+00  0.00000000000E+00  0.60803132790E+02  0.60803132790E+02  0.00000000000E+00 0.  1.
         21   -1    0    0  503  502 -0.00000000000E+00 -0.00000000000E+00 -0.18710077758E+04  0.18710077758E+04  0.00000000000E+00 0. -1.
         21    1    1    2  503  504  0.12983357455E+02  0.44723855487E+02 -0.16337273792E+04  0.16343909999E+04  0.00000000000E+00 0. -1.
         21    1    1    2  504  501  0.41557425977E+02  0.76007047129E+02 -0.11725365454E+03  0.14578240761E+03  0.00000000000E+00 0.  1.
         21    1    1    2  505  506 -0.48287080758E+02 -0.70279958698E+02 -0.53054348225E+02  0.10042747945E+03  0.00000000000E+00 0.  1.
         21    1    1    2  506  502 -0.62537026741E+01 -0.50450943919E+02 -0.61692610510E+01  0.51210021688E+02  0.00000000000E+00 0.  1.
<scales pt_clust_3="46.57028" pt_clust_4="112.00355" pt_clust_5="33.97258" pt_clust_6="33.97258"></scales>
<clustering>
<clus scale="   33.973">  5  6 -1 -1</clus>
<clus scale="   46.570">  2  3  1 -1</clus>
<clus scale="  112.004">  2  4  1 -1</clus>
<clus scale="  120.336">  1  3  2 -1</clus>
</clustering>
</event>
<event>
 6    0  0.6687079E+002  0.8150396E+02  0.7546771E-02  0.1324837E+00
         21   -1    0    0  504  501  0.00000000000E+00  0.00000000000E+00  0.32871716499E+03  0.32871716499E+03  0.00000000000E+00 0.  1.
         21   -1    0    0  503  502 -0.00000000000E+00 -0.00000000000E+00 -0.39570831807E+03  0.39570831807E+03  0.00000000000E+00 0.  1.
         21    1    1    2  503  505 -0.45390292021E+02 -0.67687576884E+02 -0.22081311270E+03  0.23537272020E+03  0.00000000000E+00 0.  1.
         21    1    1    2  504  502  0.38539629360E+02  0.46989289622E+02 -0.49615518393E+02  0.78453782801E+02  0.00000000000E+00 0.  1.
         21    1    1    2  505  506 -0.74256398409E+02  0.83215299991E+01 -0.83564790294E+02  0.11209966433E+03  0.00000000000E+00 0.  1.
         21    1    1    2  506  501  0.81107061070E+02  0.12376757263E+02  0.28700226831E+03  0.29849931573E+03  0.00000000000E+00 0.  1.
<scales pt_clust_3="40.09915" pt_clust_4="60.77250" pt_clust_5="81.50396" pt_clust_6="14000.00000"></scales>
<clustering>
<clus scale="   60.772">  2  4  1 -1</clus>
<clus scale="   40.099">  2  3  1 -1</clus>
<clus scale="   81.504">  2  5  1 -1</clus>
<clus scale="   81.504">  1  3  2 -1</clus>
</clustering>
</event>
<event>
 6    0  0.6687079E+002  0.1192924E+03  0.7546771E-02  0.1244269E+00
         21   -1    0    0  506  501  0.00000000000E+00  0.00000000000E+00  0.25175102662E+03  0.25175102662E+03  0.00000000000E+00 0.  1.
         21   -1    0    0  505  502 -0.00000000000E+00 -0.00000000000E+00 -0.10256595361E+04  0.10256595361E+04  0.00000000000E+00 0.  1.
         21    1    1    2  503  502  0.35610554569E+02 -0.25285687089E+02 -0.67045968479E+02  0.80016494909E+02  0.00000000000E+00 0. -1.
         21    1    1    2  504  501 -0.11678639491E+02  0.33958595272E+02 -0.21806616963E+02  0.42013156947E+02  0.00000000000E+00 0. -1.
         21    1    1    2  505  504 -0.13897441399E+03 -0.32940882591E+02 -0.89952770033E+03  0.91079584603E+03  0.00000000000E+00 0.  1.
         21    1    1    2  506  503  0.11504249891E+03  0.24267974409E+02  0.21447177626E+03  0.24458506486E+03  0.00000000000E+00 0.  1.
<scales pt_clust_3="42.89516" pt_clust_4="35.91068" pt_clust_5="119.29244" pt_clust_6="14000.00000"></scales>
<clustering>
<clus scale="   35.911">  1  4  2 -1</clus>
<clus scale="   42.895">  2  3  1 -1</clus>
<clus scale="  119.292">  2  5  1 -1</clus>
<clus scale="   35.911">  1  3  2 -1</clus>
</clustering>
</event>
<event>
 6    0  0.6687079E+002  0.1006537E+03  0.7546771E-02  0.1278927E+00
         21   -1    0    0  506  501  0.00000000000E+00  0.00000000000E+00  0.16723538063E+03  0.16723538063E+03  0.00000000000E+00 0. -1.
         21   -1    0    0  503  502 -0.00000000000E+00 -0.00000000000E+00 -0.79855278489E+03  0.79855278489E+03  0.00000000000E+00 0. -1.
         21    1    1    2  503  504 -0.37437759067E+02  0.33418706916E+02 -0.63474770988E+02  0.80916267387E+02  0.00000000000E+00 0. -1.
         21    1    1    2  504  501 -0.63163659622E+02  0.79996966617E+02  0.13090875252E+03  0.16591040971E+03  0.00000000000E+00 0. -1.
         21    1    1    2  505  502  0.24393657425E+02 -0.71602341073E+02 -0.42693238985E+03  0.43358183919E+03  0.00000000000E+00 0. -1.
         21    1    1    2  506  505  0.76207761265E+02 -0.41813332460E+02 -0.27181899594E+03  0.28537964924E+03  0.00000000000E+00 0. -1.
<scales pt_clust_3="50.18362" pt_clust_4="100.65369" pt_clust_5="51.85423" pt_clust_6="14000.00000"></scales>
<clustering>
<clus scale="   50.184">  2  3  1 -1</clus>
<clus scale="   51.854">  2  5  1 -1</clus>
<clus scale="  100.654">  1  4  2 -1</clus>
<clus scale="  100.654">  1  3  2 -1</clus>
</clustering>
</event>
<event>
 6    0  0.6687079E+002  0.1567138E+03  0.7546771E-02  0.1192458E+00
         21   -1    0    0  506  501  0.00000000000E+00  0.00000000000E+00  0.74173366607E+03  0.74173366607E+03  0.00000000000E+00 0. -1.
         21   -1    0    0  503  502 -0.00000000000E+00 -0.00000000000E+00 -0.11384523746E+03  0.11384523746E+03  0.00000000000E+00 0. -1.
         21    1    1    2  503  504  0.45447356633E+01 -0.43298104917E+02 -0.15396927333E+02  0.46178413603E+02  0.00000000000E+00 0. -1.
         21    1    1    2  504  505  0.80633183124E+02  0.53690167878E+01  0.49476507313E+02  0.94754743089E+02  0.00000000000E+00 0. -1.
         21    1    1    2  505  501  0.12058300551E+03  0.81670075799E+02  0.41069293620E+03  0.43575101875E+03  0.00000000000E+00 0. -1.
         21    1    1    2  506  502 -0.20576092430E+03 -0.43740987670E+02  0.18311591243E+03  0.27889472809E+03  0.00000000000E+00 0. -1.
<scales pt_clust_3="43.53597" pt_clust_4="82.12428" pt_clust_5="156.71378" pt_clust_6="14000.00000"></scales>
<clustering>
<clus scale="   43.536">  2  3  1 -1</clus>
<clus scale="   82.124">  2  4  1 -1</clus>
<clus scale="  156.714">  1  5  2 -1</clus>
<clus scale="  156.714">  1  3  2 -1</clus>
</clustering>
</event>
<event>
 6    0  0.6687079E+002  0.2315192E+03  0.7546771E-02  0.1125575E+00
         21   -1    0    0  504  501  0.00000000000E+00  0.00000000000E+00  0.10064919173E+04  0.10064919173E+04  0.00000000000E+00 0. -1.
         21   -1    0    0  505  502 -0.00000000000E+00 -0.00000000000E+00 -0.69024718915E+03  0.69024718915E+03  0.00000000000E+00 0. -1.
         21    1    1    2  503  502  0.15593086074E+03  0.13197411607E+03  0.12118107324E+03  0.23752147935E+03  0.00000000000E+00 0. -1.
         21    1    1    2  504  506 -0.55043855827E+02 -0.51359826826E+02  0.76416507785E+03  0.76786452196E+03  0.00000000000E+00 0. -1.
         21    1    1    2  505  501 -0.11801017433E+03 -0.16169699727E+03 -0.57443003845E+03  0.60831093139E+03  0.00000000000E+00 0. -1.
         21    1    1    2  506  503  0.17123169422E+02  0.81082708029E+02  0.53286154786E+01  0.83042173714E+02  0.00000000000E+00 0. -1.
<scales pt_clust_3="68.05054" pt_clust_4="75.28385" pt_clust_5="205.39155" pt_clust_6="68.05054"></scales>
<clustering>
<clus scale="   68.051">  3  6 -1 -1</clus>
<clus scale="   75.284">  1  4  2 -1</clus>
<clus scale="  205.392">  2  5  1 -1</clus>
<clus scale="   75.284">  1  3  2 -1</clus>
</clustering>
</event>
<event>
 6    0  0.6687079E+002  0.9882696E+02  0.7546771E-02  0.1282782E+00
         21   -1    0    0  505  501  0.00000000000E+00  0.00000000000E+00  0.31548858503E+03  0.31548858503E+03  0.00000000000E+00 0.  1.
         21   -1    0    0  503  502 -0.00000000000E+00 -0.00000000000E+00 -0.61386443984E+03  0.61386443984E+03  0.00000000000E+00 0.  1.
         21    1    1    2  503  501 -0.69900500940E+02  0.54690364744E+02  0.28640645674E+03  0.29984291635E+03  0.00000000000E+00 0.  1.
         21    1    1    2  504  506  0.53619030017E+02 -0.33051487007E+02 -0.22042126040E+03  0.22924426538E+03  0.00000000000E+00 0.  1.
         21    1    1    2  505  504  0.50585404899E+02 -0.80504436938E+02 -0.24541643851E+03  0.26319018950E+03  0.00000000000E+00 0.  1.
         21    1    1    2  506  502 -0.34303933975E+02  0.58865559201E+02 -0.11894461264E+03  0.13707565365E+03  0.00000000000E+00 0.  1.
<scales pt_clust_3="89.62896" pt_clust_4="33.88738" pt_clust_5="33.88738" pt_clust_6="68.13159"></scales>
<clustering>
<clus scale="   33.887">  4  5 -1 -1</clus>
<clus scale="   68.132">  2  6  1 -1</clus>
<clus scale="   89.629">  1  3  2 -1</clus>
<clus scale="   89.629">  1  3  2 -1</clus>
</clustering>
</event>
<event>
 6    0  0.6687079E+002  0.6666198E+02  0.7546771E-02  0.1371827E+00
         21   -1    0    0  504  501  0.00000000000E+00  0.00000000000E+00  0.26785894842E+02  0.26785894842E+02  0.00000000000E+00 0.  1.
         21   -1    0    0  505  502 -0.00000000000E+00 -0.00000000000E+00 -0.14309134970E+04  0.14309134970E+04  0.00000000000E+00 0.  1.
         21    1    1    2  503  506  0.50373211625E+02  0.93543367121E+02 -0.92017837980E+03  0.92629156999E+03  0.00000000000E+00 0.  1.
         21    1    1    2  504  503 -0.14277317784E+02 -0.62701148939E+02 -0.43091103447E+02  0.77408779074E+02  0.00000000000E+00 0.  1.
         21    1    1    2  505  501 -0.60233936055E+02  0.86369018379E+01 -0.21475548870E+03  0.22320986325E+03  0.00000000000E+00 0.  1.
         21    1    1    2  506  502  0.24138042214E+02 -0.39479120019E+02 -0.22610263027E+03  0.23078917958E+03  0.00000000000E+00 0.  1.
<scales pt_clust_3="66.66198" pt_clust_4="14000.00000" pt_clust_5="55.85689" pt_clust_6="46.27360"></scales>
<clustering>
<clus scale="   46.274">  2  6  1 -1</clus>
<clus scale="   55.857">  2  5  1 -1</clus>
<clus scale="   66.662">  2  3  1 -1</clus>
<clus scale="   66.662">  1  3  2 -1</clus>
</clustering>
</event>
<event>
 6    0  0.6687079E+002  0.1055769E+03  0.7546771E-02  0.1268987E+00
         21   -1    0    0  504  501  0.00000000000E+00  0.00000000000E+00  0.18726190115E+03  0.18726190115E+03  0.00000000000E+00 0. -1.
         21   -1    0    0  506  502 -0.00000000000E+00 -0.00000000000E+00 -0.21679108579E+03  0.21679108579E+03  0.00000000000E+00 0. -1.
         21    1    1    2  503  501 -0.19164989292E+02  0.50597831112E+02 -0.12800304360E+02  0.55599326610E+02  0.00000000000E+00 0. -1.
         21    1    1    2  504  505  0.10026077666E+02 -0.94078101982E+02  0.12705577897E+03  0.15841206543E+03  0.00000000000E+00 0. -1.
         21    1    1    2  505  502  0.80870280053E+01 -0.33647826035E+02 -0.88828334790E+02  0.95331260772E+02  0.00000000000E+00 0. -1.
         21    1    1    2  506  503  0.10518836209E+01  0.77128096906E+02 -0.54956324456E+02  0.94710334120E+02  0.00000000000E+00 0. -1.
<scales pt_clust_3="30.88664" pt_clust_4="98.92642" pt_clust_5="34.60601" pt_clust_6="30.88664"></scales>
<clustering>
<clus scale="   30.887">  3  6 -1 -1</clus>
<clus scale="   34.606">  2  5  1 -1</clus>
<clus scale="   98.926">  1  4  2 -1</clus>
<clus scale="   98.926">  1  3  2 -1</clus>
</clustering>
</event>
<event>
 6    0  0.6687079E+002  0.9506714E+02  0.7546771E-02  0.1291025E+00
         21   -1    0    0  505  501  0.00000000000E+00  0.00000000000E+00  0.29395021635E+03  0.29395021635E+03  0.00000000000E+00 0. -1.
         21   -1    0    0  501  502 -0.00000000000E+00 -0.00000000000E+00 -0.22592062601E+04  0.22592062601E+04  0.00000000000E+00 0. -1.
         21    1    1    2  503  502 -0.35831980453E+02  0.27794642087E+02 -0.89684093394E+03  0.89798671134E+03  0.00000000000E+00 0. -1.
         21    1    1    2  504  506 -0.28352345979E+02  0.11093103112E+03 -0.75073246365E+03  0.75941344547E+03  0.00000000000E+00 0. -1.
         21    1    1    2  505  504  0.23186528190E+02 -0.54661557635E+02  0.28232587303E+03  0.28850199229E+03  0.00000000000E+00 0. -1.
         21    1    1    2  506  503  0.40997798242E+02 -0.84064115571E+02 -0.60000851918E+03  0.60725432734E+03  0.00000000000E+00 0. -1.
<scales pt_clust_3="45.34835" pt_clust_4="14000.00000" pt_clust_5="59.28620" pt_clust_6="95.06714"></scales>
<clustering>
<clus scale="   45.348">  2  3  1 -1</clus>
<clus scale="   59.286">  1  5  2 -1</clus>
<clus scale="   95.067">  2  6  1 -1</clus>
<clus scale="   59.286">  1  3  2 -1</clus>
</clustering>
</event>
<event>
 6    0  0.6687079E+002  0.1045128E+03  0.7546771E-02  0.1271082E+00
         21   -1    0    0  504  501  0.00000000000E+00  0.00000000000E+00  0.46124408234E+03  0.46124408234E+03  0.00000000000E+00 0. -1.
         21   -1    0    0  505  502 -0.00000000000E+00 -0.00000000000E+00 -0.27134256501E+03  0.27134256501E+03  0.00000000000E+00 0.  1.
         21    1    1    2  503  502 -0.79488473503E+02  0.41208073267E+02 -0.54633593708E+02  0.10488733138E+03  0.00000000000E+00 0.  1.
         21    1    1    2  504  503 -0.48054468808E+00  0.35762486290E+02  0.30796224134E+02  0.47197391556E+02  0.00000000000E+00 0.  1.
         21    1    1    2  505  506  0.61344055373E+02 -0.10924518096E+03 -0.16094873908E+03  0.20396592682E+03  0.00000000000E+00 0.  1.
         21    1    1    2  506  501  0.18624962818E+02  0.32274621400E+02  0.37468762598E+03  0.37653599760E+03  0.00000000000E+00 0. -1.
<scales pt_clust_3="14000.00000" pt_clust_4="35.76571" pt_clust_5="104.51283" pt_clust_6="66.62079"></scales>
<clustering>
<clus scale="   35.766">  1  4  2 -1</clus>
<clus scale="   66.621">  1  6  2 -1</clus>
<clus scale="  104.513">  2  5  1 -1</clus>
<clus scale="   35.766">  1  3  2 -1</clus>
</clustering>
</event>
<event>
 6    0  0.6687079E+002  0.9676314E+02  0.7546771E-02  0.1287254E+00
         21   -1    0    0  504  501  0.00000000000E+00  0.00000000000E+00  0.80318239654E+03  0.80318239654E+03  0.00000000000E+00 0. -1.
         21   -1    0    0  505  502 -0.00000000000E+00 -0.00000000000E+00 -0.43774412157E+02  0.43774412157E+02  0.00000000000E+00 0. -1.
         21    1    1    2  503  506 -0.95172133072E+01  0.10770835617E+03  0.35834247992E+03  0.37430068161E+03  0.00000000000E+00 0. -1.
         21    1    1    2  504  503 -0.44589962010E+02 -0.38949069062E+02  0.25063730421E+03  0.25753514897E+03  0.00000000000E+00 0.  1.
         21    1    1    2  505  501  0.84378612436E+02 -0.82268507758E+02  0.98882750013E+02  0.15383645815E+03  0.00000000000E+00 0. -1.
         21    1    1    2  506  502 -0.30271437119E+02  0.13509220654E+02  0.51545450249E+02  0.61284519981E+02  0.00000000000E+00 0. -1.
<scales pt_clust_3="14000.00000" pt_clust_4="60.49761" pt_clust_5="96.76314" pt_clust_6="33.14904"></scales>
<clustering>
<clus scale="   33.149">  2  6  1 -1</clus>
<clus scale="   60.498">  1  4  2 -1</clus>
<clus scale="   96.763">  2  5  1 -1</clus>
<clus scale="   60.498">  1  3  2 -1</clus>
</clustering>
</event>
<event>
 6    0  0.6687079E+002  0.1091434E+03  0.7546771E-02  0.1262164E+00
         21   -1    0    0  503  501  0.00000000000E+00  0.00000000000E+00  0.11872314592E+04  0.11872314592E+04  0.00000000000E+00 0.  1.
         21   -1    0    0  506  502 -0.00000000000E+00 -0.00000000000E+00 -0.69828374550E+02  0.69828374550E+02  0.00000000000E+00 0.  1.
         21    1    1    2  503  505 -0.46039079081E+01 -0.12415178572E+03  0.76404060654E+03  0.77407551977E+03  0.00000000000E+00 0.  1.
         21    1    1    2  504  502 -0.42001018050E+02  0.18063671222E+02 -0.42747588872E+02  0.62591837244E+02  0.00000000000E+00 0.  1.
         21    1    1    2  505  504  0.69005842105E+02  0.85669924859E+02  0.29528921227E+03  0.31511404467E+03  0.00000000000E+00 0.  1.
         21    1    1    2  506  501 -0.22400916147E+02  0.20418189635E+02  0.10082085472E+03  0.10527843207E+03  0.00000000000E+00 0.  1.
<scales pt_clust_3="109.14341" pt_clust_4="45.98294" pt_clust_5="14000.00000" pt_clust_6="30.31012"></scales>
<clustering>
<clus scale="   30.310">  1  6  2 -1</clus>
<clus scale="   45.983">  2  4  1 -1</clus>
<clus scale="  109.143">  1  3  2 -1</clus>
<clus scale="   30.310">  1  3  2 -1</clus>
</clustering>
</event>
<event>
 6    0  0.6687079E+002  0.8035849E+02  0.7546771E-02  0.1328037E+00
         21   -1    0    0  505  501  0.00000000000E+00  0.00000000000E+00  0.50649349995E+03  0.50649349995E+03  0.00000000000E+00 0.  1.
         21   -1    0    0  503  502 -0.00000000000E+00 -0.00000000000E+00 -0.10776283992E+03  0.10776283992E+03  0.00000000000E+00 0. -1.
         21    1    1    2  503  504  0.53023883524E+02 -0.45745499239E+02  0.53204622916E+02  0.87948364534E+02  0.00000000000E+00 0. -1.
         21    1    1    2  504  501 -0.33996159717E+02  0.38421902655E+02  0.22924831080E+03  0.23491864439E+03  0.00000000000E+00 0.  1.
         21    1    1    2  505  506 -0.95012760543E+02 -0.13098069246E+02  0.17064499787E+03  0.19575162677E+03  0.00000000000E+00 0.  1.
         21    1    1    2  506  502  0.75985036735E+02  0.20421665830E+02 -0.54367271555E+02  0.95637704172E+02  0.00000000000E+00 0. -1.
<scales pt_clust_3="56.98196" pt_clust_4="51.30284" pt_clust_5="80.35849" pt_clust_6="14000.00000"></scales>
<clustering>
<clus scale="   51.303">  1  4  2 -1</clus>
<clus scale="   56.982">  1  3  2 -1</clus>
<clus scale="   80.358">  1  5  2 -1</clus>
<clus scale="   51.303">  1  3  2 -1</clus>
</clustering>
</event>
<event>
 6    0  0.6687079E+002  0.1194277E+03  0.7546771E-02  0.1244044E+00
         21   -1    0    0  506  501  0.00000000000E+00  0.00000000000E+00  0.11138610864E+04  0.11138610864E+04  0.00000000000E+00 0.  1.
         21   -1    0    0  503  502 -0.00000000000E+00 -0.00000000000E+00 -0.26575594299E+02  0.26575594299E+02  0.00000000000E+00 0.  1.
         21    1    1    2  503  505  0.29774835210E+02 -0.47584316821E+02  0.43839020440E+02  0.71222663052E+02  0.00000000000E+00 0.  1.
         21    1    1    2  504  501  0.60518643395E+01  0.73042958403E+02  0.39633314684E+03  0.40305317530E+03  0.00000000000E+00 0.  1.
         21    1    1    2  505  504  0.41276918015E+02  0.38490075253E+02  0.19026138819E+03  0.19845570209E+03  0.00000000000E+00 0.  1.
         21    1    1    2  506  502 -0.77103617564E+02 -0.63948716836E+02  0.45685193663E+03  0.46770514027E+03  0.00000000000E+00 0.  1.
<scales pt_clust_3="56.13206" pt_clust_4="48.38404" pt_clust_5="48.38404" pt_clust_6="105.93783"></scales>
<clustering>
<clus scale="   48.384">  4  5 -1 -1</clus>
<clus scale="   56.132">  2  3  1 -1</clus>
<clus scale="  105.938">  1  6  2 -1</clus>
<clus scale="  105.938">  1  3  2 -1</clus>
</clustering>
</event>
<event>
 6    0  0.6687079E+002  0.1335744E+03  0.7546771E-02  0.1222246E+00
         21   -1    0    0  506  501  0.00000000000E+00  0.00000000000E+00  0.17174497094E+04  0.17174497094E+04  0.00000000000E+00 0. -1.
         21   -1    0    0  503  502 -0.00000000000E+00 -0.00000000000E+00 -0.21476428715E+03  0.21476428715E+03  0.00000000000E+00 0.  1.
         21    1    1    2  503  501  0.17890568937E+02 -0.39051806735E+02  0.15763115664E+04  0.15768967215E+04  0.00000000000E+00 0. -1.
         21    1    1    2  504  505 -0.15983584353E+02  0.43262011107E+02 -0.43715417951E+02  0.63546159132E+02  0.00000000000E+00 0. -1.
         21    1    1    2  505  502 -0.78793316306E+02  0.49495302552E+02 -0.12656866870E+03  0.15709169158E+03  0.00000000000E+00 0.  1.
         21    1    1    2  506  504  0.76886331722E+02 -0.53705506924E+02  0.96657942550E+02  0.13467942433E+03  0.00000000000E+00 0. -1.
<scales pt_clust_3="42.95481" pt_clust_4="32.24574" pt_clust_5="32.24574" pt_clust_6="125.47635"></scales>
<clustering>
<clus scale="   32.246">  4  5 -1 -1</clus>
<clus scale="   42.955">  1  3  2 -1</clus>
<clus scale="  125.476">  1  6  2 -1</clus>
<clus scale="   42.955">  1  3  2 -1</clus>
</clustering>
</event>
<event>
 6    0  0.6687079E+002  0.1026004E+03  0.7546771E-02  0.1274921E+00
         21   -1    0    0  503  501  0.00000000000E+00  0.00000000000E+00  0.15564054659E+02  0.15564054659E+02  0.00000000000E+00 0.  1.
         21   -1    0    0  506  502 -0.00000000000E+00 -0.00000000000E+00 -0.18150131513E+04  0.18150131513E+04  0.00000000000E+00 0.  1.
         21    1    1    2  503  502  0.16152600380E+02  0.36189822188E+02 -0.16686834952E+03  0.17150992916E+03  0.00000000000E+00 0.  1.
         21    1    1    2  504  501 -0.12893667879E+02 -0.28709781332E+02 -0.43144160014E+02  0.53403340334E+02  0.00000000000E+00 0.  1.
         21    1    1    2  505  504 -0.90580383035E+02 -0.57695709957E+02 -0.49044356481E+03  0.50206422996E+03  0.00000000000E+00 0.  1.
         21    1    1    2  506  505  0.87321450533E+02  0.50215669101E+02 -0.10989930223E+04  0.11035997065E+04  0.00000000000E+00 0.  1.
<scales pt_clust_3="32.63103" pt_clust_4="31.47218" pt_clust_5="102.60043" pt_clust_6="14000.00000"></scales>
<clustering>
<clus scale="   31.472">  1  4  2 -1</clus>
<clus scale="   32.631">  1  3  2 -1</clus>
<clus scale="  102.600">  1  5  2 -1</clus>
<clus scale="   31.472">  1  3  2 -1</clus>
</clustering>
</event>
<event>
 6    0  0.6687079E+002  0.1564814E+03  0.7546771E-02  0.1192727E+00
         21   -1    0    0  505  501  0.00000000000E+00  0.00000000000E+00  0.60611694032E+02  0.60611694032E+02  0.00000000000E+00 0. -1.
         21   -1    0    0  501  502 -0.00000000000E+00 -0.00000000000E+00 -0.53273623315E+03  0.53273623315E+03  0.00000000000E+00 0. -1.
         21    1    1    2  503  502 -0.64488627538E+02  0.11630120867E+02 -0.98610870935E+02  0.11839825446E+03  0.00000000000E+00 0. -1.
         21    1    1    2  504  506  0.42092274613E+02  0.17076170071E+02 -0.13023222228E+02  0.47254200698E+02  0.00000000000E+00 0.  1.
         21    1    1    2  505  504  0.10094127455E+03 -0.40552542822E+02 -0.76973521678E+02  0.13326129475E+03  0.00000000000E+00 0. -1.
         21    1    1    2  506  503 -0.78544921629E+02  0.11846251884E+02 -0.28351692427E+03  0.29443417727E+03  0.00000000000E+00 0. -1.
<scales pt_clust_3="52.95484" pt_clust_4="38.10194" pt_clust_5="38.10194" pt_clust_6="156.23369"></scales>
<clustering>
<clus scale="   38.102">  4  5 -1 -1</clus>
<clus scale="   52.955">  3  6 -1 -1</clus>
<clus scale="  156.234">  2  3  1 -1</clus>
<clus scale="  156.481">  1  3  2 -1</clus>
</clustering>
</event>
<event>
 6    0  0.6687079E+002  0.1217129E+03  0.7546771E-02  0.1240298E+00
         21   -1    0    0  502  501  0.00000000000E+00  0.00000000000E+00  0.91827357650E+02  0.91827357650E+02  0.00000000000E+00 0. -1.
         21   -1    0    0  505  502 -0.00000000000E+00 -0.00000000000E+00 -0.37389886972E+03  0.37389886972E+03  0.00000000000E+00 0. -1.
         21    1    1    2  503  504 -0.60689744757E+00  0.32101803991E+02 -0.34482135916E+02  0.47115940416E+02  0.00000000000E+00 0. -1.
         21    1    1    2  504  506  0.10653436756E+03  0.71412272875E+02 -0.14388213451E+03  0.19274686202E+03  0.00000000000E+00 0. -1.
         21    1    1    2  505  503 -0.29031288182E+02 -0.45198862592E+02 -0.11671430610E+03  0.12848339240E+03  0.00000000000E+00 0. -1.
         21    1    1    2  506  501 -0.76896181929E+02 -0.58315214274E+02  0.13007064455E+02  0.97380032536E+02  0.00000000000E+00 0. -1.
<scales pt_clust_3="30.78041" pt_clust_4="30.78041" pt_clust_5="53.71920" pt_clust_6="105.02134"></scales>
<clustering>
<clus scale="   30.780">  3  4 -1 -1</clus>
<clus scale="   53.719">  2  5  1 -1</clus>
<clus scale="  105.021">  1  6  2 -1</clus>
<clus scale="  105.021">  1  3  2 -1</clus>
</clustering>
</event>
<event>
 6    0  0.6687079E+002  0.9161967E+02  0.7546771E-02  0.1298976E+00
         21   -1    0    0  506  501  0.00000000000E+00  0.00000000000E+00  0.23076655234E+03  0.23076655234E+03  0.00000000000E+00 0. -1.
         21   -1    0    0  503  502 -0.00000000000E+00 -0.00000000000E+00 -0.11188654627E+03  0.11188654627E+03  0.00000000000E+00 0. -1.
         21    1    1    2  503  505 -0.27873763831E+01  0.32386941407E+02 -0.49860009631E+02  0.59520618286E+02  0.00000000000E+00 0. -1.
         21    1    1    2  504  502 -0.25192460051E+02 -0.33565359405E+02  0.31330692052E+02  0.52372756848E+02  0.00000000000E+00 0. -1.
         21    1    1    2  505  501 -0.76643875922E+02  0.15355376435E+02  0.43484924404E+02  0.89448364727E+02  0.00000000000E+00 0. -1.
         21    1    1    2  506  504  0.10462371236E+03 -0.14176958437E+02  0.93924399241E+02  0.14131135875E+03  0.00000000000E+00 0. -1.
<scales pt_clust_3="32.50667" pt_clust_4="37.72205" pt_clust_5="91.61967" pt_clust_6="14000.00000"></scales>
<clustering>
<clus scale="   32.507">  2  3  1 -1</clus>
<clus scale="   37.722">  2  4  1 -1</clus>
<clus scale="   91.620">  1  5  2 -1</clus>
<clus scale="   91.620">  1  3  2 -1</clus>
</clustering>
</event>
<event>
 6    0  0.6687079E+002  0.1584597E+03  0.7546771E-02  0.1190447E+00
         21   -1    0    0  505  501  0.00000000000E+00  0.00000000000E+00  0.60776958387E+03  0.60776958387E+03  0.00000000000E+00 0. -1.
         21   -1    0    0  504  502 -0.00000000000E+00 -0.00000000000E+00 -0.46494504704E+03  0.46494504704E+03  0.00000000000E+00 0.  1.
         21    1    1    2  503  506 -0.76297994257E+02  0.12090885836E+03  0.83539845277E+02  0.16558756507E+03  0.00000000000E+00 0.  1.
         21    1    1    2  504  501  0.10018821420E+03 -0.87019155909E+02 -0.32627552061E+03  0.35222965109E+03  0.00000000000E+00 0.  1.
         21    1    1    2  505  503  0.15820034578E+02  0.40399489161E+02  0.44796649260E+03  0.45006262976E+03  0.00000000000E+00 0. -1.
         21    1    1    2  506  502 -0.39710254524E+02 -0.74289191607E+02 -0.62406280431E+02  0.10483478498E+03  0.00000000000E+00 0.  1.
<scales pt_clust_3="158.45975" pt_clust_4="14000.00000" pt_clust_5="43.38654" pt_clust_6="78.48184"></scales>
<clustering>
<clus scale="   43.387">  1  5  2 -1</clus>
<clus scale="   78.482">  2  6  1 -1</clus>
<clus scale="  158.460">  1  3  2 -1</clus>
<clus scale="   43.387">  1  3  2 -1</clus>
</clustering>
</event>
<event>
 6    0  0.6687079E+002  0.8279834E+02  0.7546771E-02  0.1321293E+00
         21   -1    0    0  503  501  0.00000000000E+00  0.00000000000E+00  0.54195090080E+03  0.54195090080E+03  0.00000000000E+00 0.  1.
         21   -1    0    0  504  502 -0.00000000000E+00 -0.00000000000E+00 -0.42673289237E+02  0.42673289237E+02  0.00000000000E+00 0.  1.
         21    1    1    2  503  505 -0.79849943177E+01  0.79424304541E+02  0.19156380825E+03  0.20752993258E+03  0.00000000000E+00 0.  1.
         21    1    1    2  504  506  0.36275575803E+01  0.54490666434E+02  0.37254208867E+02  0.66108002396E+02  0.00000000000E+00 0.  1.
         21    1    1    2  505  502 -0.31931042545E+02 -0.52748496759E+02  0.81897194274E+02  0.10251412497E+03  0.00000000000E+00 0.  1.
         21    1    1    2  506  501  0.36288479282E+02 -0.81166474216E+02  0.18856240017E+03  0.20847213009E+03  0.00000000000E+00 0.  1.
<scales pt_clust_3="14000.00000" pt_clust_4="54.61128" pt_clust_5="44.90797" pt_clust_6="82.79834"></scales>
<clustering>
<clus scale="   54.611">  2  4  1 -1</clus>
<clus scale="   44.908">  2  5  1 -1</clus>
<clus scale="   82.798">  2  6  1 -1</clus>
<clus scale="   82.798">  1  3  2 -1</clus>
</clustering>
</event>
<event>
 6    0  0.6687079E+002  0.6352241E+02  0.7546771E-02  0.1383617E+00
         21   -1    0    0  504  501  0.00000000000E+00  0.00000000000E+00  0.78634845622E+03  0.78634845622E+03  0.00000000000E+00 0. -1.
         21   -1    0    0  503  502 -0.00000000000E+00 -0.00000000000E+00 -0.23035289766E+02  0.23035289766E+02  0.00000000000E+00 0. -1.
         21    1    1    2  503  506  0.76426717826E+01 -0.36913139909E+02  0.80124331426E+02  0.88548849887E+02  0.00000000000E+00 0. -1.
         21    1    1    2  504  502  0.84291742532E+02  0.31277497388E+02  0.20360791105E+03  0.22257484391E+03  0.00000000000E+00 0. -1.
         21    1    1    2  505  501 -0.42915643870E+02 -0.38544938682E+02  0.32656949929E+03  0.33162494275E+03  0.00000000000E+00 0. -1.
         21    1    1    2  506  505 -0.49018770444E+02  0.44180581204E+02  0.15301142469E+03  0.16663510944E+03  0.00000000000E+00 0. -1.
<scales pt_clust_3="37.69603" pt_clust_4="63.52241" pt_clust_5="14000.00000" pt_clust_6="55.58184"></scales>
<clustering>
<clus scale="   37.696">  2  3  1 -1</clus>
<clus scale="   55.582">  2  6  1 -1</clus>
<clus scale="   63.522">  2  4  1 -1</clus>
<clus scale="   63.522">  1  3  2 -1</clus>
</clustering>
</event>
<event>
 6    0  0.6687079E+002  0.7468832E+02  0.7546771E-02  0.1344839E+00
         21   -1    0    0  503  501  0.00000000000E+00  0.00000000000E+00  0.33421190357E+03  0.33421190357E+03  0.00000000000E+00 0.  1.
         21   -1    0    0  504  502 -0.00000000000E+00 -0.00000000000E+00 -0.52773098458E+03  0.52773098458E+03  0.00000000000E+00 0. -1.
         21    1    1    2  503  506 -0.19294851650E+02 -0.67213686839E+02  0.89020690688E+02  0.11320183024E+03  0.00000000000E+00 0.  1.
         21    1    1    2  504  505 -0.35726618659E+01  0.37544038239E+02 -0.49120422781E+03  0.49264988799E+03  0.00000000000E+00 0. -1.
         21    1    1    2  505  501 -0.13801996243E+02  0.82781303652E+02  0.11817115460E+03  0.14494019841E+03  0.00000000000E+00 0. -1.
         21    1    1    2  506  502  0.36669509759E+02 -0.53111655053E+02  0.90493301515E+02  0.11115097151E+03  0.00000000000E+00 0.  1.
<scales pt_clust_3="14000.00000" pt_clust_4="37.71364" pt_clust_5="74.68832" pt_clust_6="55.29735"></scales>
<clustering>
<clus scale="   37.714">  2  4  1 -1</clus>
<clus scale="   55.297">  2  6  1 -1</clus>
<clus scale="   74.688">  2  5  1 -1</clus>
<clus scale="   74.688">  1  3  2 -1</clus>
</clustering>
</event>
<event>
 6    0  0.6687079E+002  0.1062981E+03  0.7546771E-02  0.1267583E+00
         21   -1    0    0  504  501  0.00000000000E+00  0.00000000000E+00  0.15787456016E+04  0.15787456016E+04  0.00000000000E+00 0.  1.
         21   -1    0    0  503  502 -0.00000000000E+00 -0.00000000000E+00 -0.97740167715E+03  0.97740167715E+03  0.00000000000E+00 0.  1.
         21    1    1    2  503  505 -0.39876501502E+02  0.79966230876E+02 -0.16468771975E+03  0.18736802953E+03  0.00000000000E+00 0.  1.
         21    1    1    2  504  502  0.10822764711E+03 -0.50137703571E+02 -0.77546652513E+03  0.78458609758E+03  0.00000000000E+00 0.  1.
         21    1    1    2  505  506 -0.59154746179E+02  0.13175923777E+02  0.22634847512E+02  0.64693317157E+02  0.00000000000E+00 0.  1.
         21    1    1    2  506  501 -0.91963994278E+01 -0.43004451081E+02  0.15188633219E+04  0.15194998345E+04  0.00000000000E+00 0.  1.
<scales pt_clust_3="14000.00000" pt_clust_4="106.29813" pt_clust_5="68.40324" pt_clust_6="43.97677"></scales>
<clustering>
<clus scale="   43.977">  1  6  2 -1</clus>
<clus scale="   68.403">  1  5  2 -1</clus>
<clus scale="  106.298">  2  4  1 -1</clus>
<clus scale="   43.977">  1  3  2 -1</clus>
</clustering>
</event>
<event>
 6    0  0.6687079E+002  0.2356828E+03  0.7546771E-02  0.1122703E+00
         21   -1    0    0  503  501  0.00000000000E+00  0.00000000000E+00  0.11177421832E+04  0.11177421832E+04  0.00000000000E+00 0. -1.
         21   -1    0    0  505  502 -0.00000000000E+00 -0.00000000000E+00 -0.13469742075E+03  0.13469742075E+03  0.00000000000E+00 0. -1.
         21    1    1    2  503  502 -0.13289858481E+03  0.74724350178E+02  0.88436594634E+01  0.15272188012E+03  0.00000000000E+00 0. -1.
         21    1    1    2  504  506 -0.51822538084E+02  0.85558860731E+02  0.14812220198E+03  0.17873466597E+03  0.00000000000E+00 0. -1.
         21    1    1    2  505  504  0.19126704011E+03 -0.24417983866E+03  0.53953818081E+03  0.62234100202E+03  0.00000000000E+00 0. -1.
         21    1    1    2  506  501 -0.65459172231E+01  0.83896627748E+02  0.28654072023E+03  0.29864205586E+03  0.00000000000E+00 0. -1.
<scales pt_clust_3="152.46561" pt_clust_4="75.82720" pt_clust_5="220.70739" pt_clust_6="75.82720"></scales>
<clustering>
<clus scale="   75.827">  4  6 -1 -1</clus>
<clus scale="  152.466">  2  3  1 -1</clus>
<clus scale="  220.707">  2  5  1 -1</clus>
<clus scale="  235.683">  1  3  2 -1</clus>
</clustering>
</event>
<event>
 6    0  0.6687079E+002  0.1547811E+03  0.7546771E-02  0.1194718E+00
         21   -1    0    0  503  501  0.00000000000E+00  0.00000000000E+00  0.31651216387E+04  0.31651216387E+04  0.00000000000E+00 0. -1.
         21   -1    0    0  505  502 -0.00000000000E+00 -0.00000000000E+00 -0.33852705466E+02  0.33852705466E+02  0.00000000000E+00 0. -1.
         21    1    1    2  503  502  0.30238142138E+02  0.29532088172E+01  0.47527231685E+03  0.47624241920E+03  0.00000000000E+00 0. -1.
         21    1    1    2  504  501 -0.17949565789E+02  0.46622161990E+02  0.11869798754E+04  0.11880307393E+04  0.00000000000E+00 0. -1.
         21    1    1    2  505  506  0.93785254771E+01 -0.14811423923E+03  0.14716820630E+03  0.20900781217E+03  0.00000000000E+00 0. -1.
         21    1    1    2  506  504 -0.21667101827E+02  0.98538868426E+02  0.13218485347E+04  0.13256933735E+04  0.00000000000E+00 0. -1.
<scales pt_clust_3="30.38201" pt_clust_4="30.58876" pt_clust_5="148.35586" pt_clust_6="30.58876"></scales>
<clustering>
<clus scale="   30.382">  1  3  2 -1</clus>
<clus scale="   30.589">  4  6 -1 -1</clus>
<clus scale="  148.356">  2  5  1 -1</clus>
<clus scale="   30.382">  1  3  2 -1</clus>
</clustering>
</event>
<event>
 6    0  0.6687079E+002  0.2742124E+03  0.7546771E-02  0.1098893E+00
         21   -1    0    0  506  501  0.00000000000E+00  0.00000000000E+00  0.57358974987E+02  0.57358974987E+02  0.00000000000E+00 0.  1.
         21   -1    0    0  504  502 -0.00000000000E+00 -0.00000000000E+00 -0.24282585165E+04  0.24282585165E+04  0.00000000000E+00 0.  1.
         21    1    1    2  503  505 -0.86290843831E+01  0.65816740758E+02 -0.13845643335E+03  0.15354637214E+03  0.00000000000E+00 0.  1.
         21    1    1    2  504  501 -0.31182903916E+02 -0.18227022900E+02 -0.64889186673E+03  0.64989633987E+03  0.00000000000E+00 0. -1.
         21    1    1    2  505  502  0.61198407060E+02 -0.25258904405E+03 -0.13312700078E+04  0.13564019699E+04  0.00000000000E+00 0.  1.
         21    1    1    2  506  503 -0.21386418761E+02  0.20499932619E+03 -0.25228123368E+03  0.32577280966E+03  0.00000000000E+00 0.  1.
<scales pt_clust_3="30.18277" pt_clust_4="36.11922" pt_clust_5="269.00514" pt_clust_6="30.18277"></scales>
<clustering>
<clus scale="   30.183">  3  6 -1 -1</clus>
<clus scale="   36.119">  2  4  1 -1</clus>
<clus scale="  269.005">  2  5  1 -1</clus>
<clus scale="  274.212">  1  3  2 -1</clus>
</clustering>
</event>
<event>
 6    0  0.6687079E+002  0.1701823E+03  0.7546771E-02  0.1177658E+00
         21   -1    0    0  502  501  0.00000000000E+00  0.00000000000E+00  0.17981331085E+04  0.17981331085E+04  0.00000000000E+00 0. -1.
         21   -1    0    0  505  502 -0.00000000000E+00 -0.00000000000E+00 -0.14026376016E+03  0.14026376016E+03  0.00000000000E+00 0. -1.
         21    1    1    2  503  501  0.12898441085E+03  0.95448628421E+02  0.12024224260E+04  0.12130816582E+04  0.00000000000E+00 0. -1.
         21    1    1    2  504  503 -0.94665476724E+02 -0.78525854706E+02  0.39649370733E+03  0.41513265626E+03  0.00000000000E+00 0. -1.
         21    1    1    2  505  506 -0.14298827117E+02  0.38831070089E+02 -0.11722358111E+03  0.12431281683E+03  0.00000000000E+00 0. -1.
         21    1    1    2  506  504 -0.20020107014E+02 -0.55753843805E+02  0.17617679613E+03  0.18586973739E+03  0.00000000000E+00 0. -1.
<scales pt_clust_3="163.99227" pt_clust_4="31.56412" pt_clust_5="41.38005" pt_clust_6="31.56412"></scales>
<clustering>
<clus scale="   31.564">  4  6 -1 -1</clus>
<clus scale="   41.380">  2  5  1 -1</clus>
<clus scale="  163.992">  1  3  2 -1</clus>
<clus scale="  163.992">  1  3  2 -1</clus>
</clustering>
</event>
<event>
 6    0  0.6687079E+002  0.7464737E+02  0.7546771E-02  0.1344966E+00
         21   -1    0    0  504  501  0.00000000000E+00  0.00000000000E+00  0.31925108954E+03  0.31925108954E+03  0.00000000000E+00 0.  1.
         21   -1    0    0  506  502 -0.00000000000E+00 -0.00000000000E+00 -0.57537145409E+02  0.57537145409E+02  0.00000000000E+00 0.  1.
         21    1    1    2  503  505  0.68999847371E+02  0.43721867582E+01  0.75252832980E+02  0.10219140779E+03  0.00000000000E+00 0.  1.
         21    1    1    2  504  503 -0.77046863831E+02 -0.21241121016E+02  0.13180900117E+03  0.15414609057E+03  0.00000000000E+00 0.  1.
         21    1    1    2  505  502  0.30073208334E+02 -0.34439812296E+02  0.54806018744E+01  0.46049272822E+02  0.00000000000E+00 0.  1.
         21    1    1    2  506  501 -0.22026191874E+02  0.51308746554E+02  0.49171508107E+02  0.74401463769E+02  0.00000000000E+00 0.  1.
<scales pt_clust_3="14000.00000" pt_clust_4="74.64737" pt_clust_5="45.72197" pt_clust_6="41.37724"></scales>
<clustering>
<clus scale="   45.722">  2  5  1 -1</clus>
<clus scale="   41.377">  2  6  1 -1</clus>
<clus scale="   74.647">  1  4  2 -1</clus>
<clus scale="   74.647">  1  3  2 -1</clus>
</clustering>
</event>
<event>
 6    0  0.7513566E+002  0.6511626E+02  0.7546771E-02  0.1377535E+00
         21   -1    0    0  505  501  0.00000000000E+00  0.00000000000E+00  0.94933018515E+03  0.94933018515E+03  0.00000000000E+00 0. -1.
         21   -1    0    0  504  502 -0.00000000000E+00 -0.00000000000E+00 -0.68946168407E+03  0.68946168407E+03  0.00000000000E+00 0.  1.
         21    1    1    2  503  506  0.10366500260E+03  0.47778333719E+02  0.70705686170E+03  0.71621128699E+03  0.00000000000E+00 0. -1.
         21    1    1    2  504  503 -0.64758835278E+02  0.60606935451E+01 -0.67132199054E+03  0.67446545777E+03  0.00000000000E+00 0.  1.
         21    1    1    2  505  502 -0.77583221861E+01 -0.34730027782E+02  0.20171712199E+02  0.40905554218E+02  0.00000000000E+00 0.  1.
         21    1    1    2  506  501 -0.31147845139E+02 -0.19108999483E+02  0.20396191772E+03  0.20720957024E+03  0.00000000000E+00 0. -1.
<scales pt_clust_3="14000.00000" pt_clust_4="65.11626" pt_clust_5="35.58604" pt_clust_6="42.47216"></scales>
<clustering>
<clus scale="   35.586">  1  5  2 -1</clus>
<clus scale="   42.472">  1  6  2 -1</clus>
<clus scale="   65.116">  2  4  1 -1</clus>
<clus scale="   35.586">  1  3  2 -1</clus>
</clustering>
</event>
<event>
 6    0  0.6687079E+002  0.9209590E+02  0.7546771E-02  0.1297854E+00
         21   -1    0    0  505  501  0.00000000000E+00  0.00000000000E+00  0.15212124561E+03  0.15212124561E+03  0.00000000000E+00 0.  1.
         21   -1    0    0  504  502 -0.00000000000E+00 -0.00000000000E+00 -0.92568170061E+03  0.92568170061E+03  0.00000000000E+00 0. -1.
         21    1    1    2  503  502  0.22760265303E+02  0.30429885541E+02 -0.54223251337E+03  0.54356242160E+03  0.00000000000E+00 0. -1.
         21    1    1    2  504  501 -0.49502364637E+02  0.74126292369E+02 -0.30899582405E+03  0.32159541446E+03  0.00000000000E+00 0.  1.
         21    1    1    2  505  506 -0.20664463019E+02 -0.48562242582E+02  0.11775493802E+03  0.12904083410E+03  0.00000000000E+00 0.  1.
         21    1    1    2  506  503  0.47406562353E+02 -0.55993935328E+02 -0.40087055608E+02  0.83604276057E+02  0.00000000000E+00 0.  1.
<scales pt_clust_3="38.00010" pt_clust_4="92.09590" pt_clust_5="52.23207" pt_clust_6="14000.00000"></scales>
<clustering>
<clus scale="   38.000">  2  3  1 -1</clus>
<clus scale="   52.232">  1  5  2 -1</clus>
<clus scale="   92.096">  2  4  1 -1</clus>
<clus scale="   52.232">  1  3  2 -1</clus>
</clustering>
</event>
<event>
 6    0  0.6687079E+002  0.8707423E+02  0.7546771E-02  0.1310096E+00
         21   -1    0    0  504  501  0.00000000000E+00  0.00000000000E+00  0.66205467240E+02  0.66205467240E+02  0.00000000000E+00 0. -1.
         21   -1    0    0  503  502 -0.00000000000E+00 -0.00000000000E+00 -0.22968333401E+04  0.22968333401E+04  0.00000000000E+00 0. -1.
         21    1    1    2  503  501  0.60920755904E+02  0.74575099471E+02 -0.49654433544E+03  0.50579547351E+03  0.00000000000E+00 0. -1.
         21    1    1    2  504  505 -0.18396903565E+02 -0.29852666622E+02  0.31243157575E+02  0.46965547591E+02  0.00000000000E+00 0. -1.
         21    1    1    2  505  506 -0.75358340802E+02  0.11694568360E+02 -0.44663522295E+02  0.88376878658E+02  0.00000000000E+00 0. -1.
         21    1    1    2  506  502  0.32834488464E+02 -0.56417001209E+02 -0.17206631727E+04  0.17219009076E+04  0.00000000000E+00 0. -1.
<scales pt_clust_3="14000.00000" pt_clust_4="35.06605" pt_clust_5="87.07423" pt_clust_6="65.65786"></scales>
<clustering>
<clus scale="   35.066">  1  4  2 -1</clus>
<clus scale="   65.658">  2  6  1 -1</clus>
<clus scale="   87.074">  1  5  2 -1</clus>
<clus scale="   35.066">  1  3  2 -1</clus>
</clustering>
</event>
<event>
 6    0  0.6687079E+002  0.1158015E+03  0.7546771E-02  0.1250188E+00
         21   -1    0    0  505  501  0.00000000000E+00  0.00000000000E+00  0.33692971975E+03  0.33692971975E+03  0.00000000000E+00 0. -1.
         21   -1    0    0  504  502 -0.00000000000E+00 -0.00000000000E+00 -0.49538924692E+03  0.49538924692E+03  0.00000000000E+00 0. -1.
         21    1    1    2  503  506  0.31299537163E+02  0.94560500367E+02 -0.40937434250E+03  0.42131781538E+03  0.00000000000E+00 0. -1.
         21    1    1    2  504  501 -0.13628875075E+03 -0.17055723611E+02  0.21748303503E+03  0.25722439972E+03  0.00000000000E+00 0. -1.
         21    1    1    2  505  503  0.63860151716E+02 -0.79626243581E+02  0.44167041552E+02  0.11121683867E+03  0.00000000000E+00 0. -1.
         21    1    1    2  506  502  0.41129061872E+02  0.21214668244E+01 -0.10735261241E+02  0.42559912898E+02  0.00000000000E+00 0. -1.
<scales pt_clust_3="14000.00000" pt_clust_4="115.80154" pt_clust_5="103.82038" pt_clust_6="41.18374"></scales>
<clustering>
<clus scale="   41.184">  2  6  1 -1</clus>
<clus scale="  103.820">  1  5  2 -1</clus>
<clus scale="  115.802">  1  4  2 -1</clus>
<clus scale="  103.820">  1  3  2 -1</clus>
</clustering>
</event>
<event>
 6    0  0.6687079E+002  0.9710627E+02  0.7546771E-02  0.1286501E+00
         21   -1    0    0  504  501  0.00000000000E+00  0.00000000000E+00  0.26045660710E+02  0.26045660710E+02  0.00000000000E+00 0.  1.
         21   -1    0    0  506  502 -0.00000000000E+00 -0.00000000000E+00 -0.12318549799E+04  0.12318549799E+04  0.00000000000E+00 0.  1.
         21    1    1    2  503  501 -0.10049567810E+03  0.21618852296E+02 -0.15952647648E+03  0.18977737692E+03  0.00000000000E+00 0.  1.
         21    1    1    2  504  505  0.62991907589E+02 -0.75552122363E+02 -0.42952825478E+03  0.44064796070E+03  0.00000000000E+00 0.  1.
         21    1    1    2  505  502  0.52126594370E+02  0.58467679105E+01 -0.17015508484E+03  0.17805650629E+03  0.00000000000E+00 0.  1.
         21    1    1    2  506  503 -0.14622823857E+02  0.48086502156E+02 -0.44659950308E+03  0.44941879669E+03  0.00000000000E+00 0.  1.
<scales pt_clust_3="14000.00000" pt_clust_4="97.10627" pt_clust_5="51.59729" pt_clust_6="50.26071"></scales>
<clustering>
<clus scale="   50.261">  2  6  1 -1</clus>
<clus scale="   51.597">  2  5  1 -1</clus>
<clus scale="   97.106">  2  4  1 -1</clus>
<clus scale="   97.106">  1  3  2 -1</clus>
</clustering>
</event>
<event>
 6    0  0.6687079E+002  0.2322001E+03  0.7546771E-02  0.1125101E+00
         21   -1    0    0  504  501  0.00000000000E+00  0.00000000000E+00  0.73568118700E+03  0.73568118700E+03  0.00000000000E+00 0.  1.
         21   -1    0    0  506  502 -0.00000000000E+00 -0.00000000000E+00 -0.66018623349E+03  0.66018623349E+03  0.00000000000E+00 0. -1.
         21    1    1    2  503  505 -0.87210403518E+02  0.14621818146E+03  0.14338586958E+03  0.22258687892E+03  0.00000000000E+00 0.  1.
         21    1    1    2  504  502  0.89558152569E+02 -0.26628581036E+03 -0.53914744794E+03  0.60795457569E+03  0.00000000000E+00 0. -1.
         21    1    1    2  505  501 -0.38441432190E+02  0.65096695883E+02  0.49090493003E+03  0.49669203119E+03  0.00000000000E+00 0.  1.
         21    1    1    2  506  503  0.36093683139E+02  0.54970933017E+02 -0.19648398160E+02  0.68633934679E+02  0.00000000000E+00 0. -1.
<scales pt_clust_3="232.20007" pt_clust_4="14000.00000" pt_clust_5="75.73639" pt_clust_6="65.76137"></scales>
<clustering>
<clus scale="   65.761">  2  6  1 -1</clus>
<clus scale="   75.736">  1  5  2 -1</clus>
<clus scale="  232.200">  1  3  2 -1</clus>
<clus scale="   75.736">  1  3  2 -1</clus>
</clustering>
</event>
<event>
 6    0  0.6687079E+002  0.6904329E+02  0.7546771E-02  0.1363377E+00
         21   -1    0    0  504  501  0.00000000000E+00  0.00000000000E+00  0.72197432313E+03  0.72197432313E+03  0.00000000000E+00 0. -1.
         21   -1    0    0  506  502 -0.00000000000E+00 -0.00000000000E+00 -0.80883260327E+03  0.80883260327E+03  0.00000000000E+00 0.  1.
         21    1    1    2  503  501 -0.12319075128E+02 -0.38290980390E+02  0.66884228535E+03  0.67005071559E+03  0.00000000000E+00 0. -1.
         21    1    1    2  504  502  0.62163625871E+02 -0.26862504290E+02 -0.68427740001E+03  0.68762015000E+03  0.00000000000E+00 0.  1.
         21    1    1    2  505  503  0.42891652352E+02  0.46175461309E+02 -0.26722248790E+02  0.68453967372E+02  0.00000000000E+00 0. -1.
         21    1    1    2  506  505 -0.92736203095E+02  0.18978023371E+02 -0.44700916686E+02  0.10468209344E+03  0.00000000000E+00 0. -1.
<scales pt_clust_3="40.22386" pt_clust_4="14000.00000" pt_clust_5="49.01718" pt_clust_6="69.04329"></scales>
<clustering>
<clus scale="   40.224">  1  3  2 -1</clus>
<clus scale="   49.017">  1  5  2 -1</clus>
<clus scale="   69.043">  1  6  2 -1</clus>
<clus scale="   40.224">  1  3  2 -1</clus>
</clustering>
</event>
<event>
 6    0  0.6687079E+002  0.8465147E+02  0.7546771E-02  0.1316347E+00
         21   -1    0    0  502  501  0.00000000000E+00  0.00000000000E+00  0.94038390951E+02  0.94038390951E+02  0.00000000000E+00 0.  1.
         21   -1    0    0  505  502 -0.00000000000E+00 -0.00000000000E+00 -0.10927311910E+04  0.10927311910E+04  0.00000000000E+00 0.  1.
         21    1    1    2  503  504 -0.67314129674E+02  0.38161708661E+02  0.24573400049E+02  0.81187191427E+02  0.00000000000E+00 0.  1.
         21    1    1    2  504  501  0.41531588596E+02 -0.32438714674E+02 -0.22343477317E+02  0.57239619492E+02  0.00000000000E+00 0.  1.
         21    1    1    2  505  506  0.61323773052E+02 -0.60930929565E+02 -0.97326452628E+03  0.97709621912E+03  0.00000000000E+00 0.  1.
         21    1    1    2  506  503 -0.35541231973E+02  0.55207935577E+02 -0.27658196460E+02  0.71246551863E+02  0.00000000000E+00 0.  1.
<scales pt_clust_3="41.73180" pt_clust_4="52.69861" pt_clust_5="84.65147" pt_clust_6="14000.00000"></scales>
<clustering>
<clus scale="   52.699">  1  4  2 -1</clus>
<clus scale="   41.732">  1  3  2 -1</clus>
<clus scale="   84.651">  2  5  1 -1</clus>
<clus scale="   52.699">  1  3  2 -1</clus>
</clustering>
</event>
<event>
 6    0  0.6687079E+002  0.9109333E+02  0.7546771E-02  0.1300225E+00
         21   -1    0    0  506  501  0.00000000000E+00  0.00000000000E+00  0.76121884457E+02  0.76121884457E+02  0.00000000000E+00 0.  1.
         21   -1    0    0  505  502 -0.00000000000E+00 -0.00000000000E+00 -0.65418817716E+03  0.65418817716E+03  0.00000000000E+00 0.  1.
         21    1    1    2  503  501  0.33904120002E+02 -0.60313134244E+02 -0.13558319860E+01  0.69202614083E+02  0.00000000000E+00 0.  1.
         21    1    1    2  504  503 -0.99963303837E+02  0.41311060701E+02 -0.10088933772E+03  0.14791188024E+03  0.00000000000E+00 0.  1.
         21    1    1    2  505  504  0.62118268941E+02 -0.63399165957E+02 -0.36137822087E+03  0.37211873387E+03  0.00000000000E+00 0.  1.
         21    1    1    2  506  502  0.39409148934E+01  0.82401239500E+02 -0.11444290213E+03  0.14107683343E+03  0.00000000000E+00 0.  1.
<scales pt_clust_3="69.18933" pt_clust_4="91.09333" pt_clust_5="14000.00000" pt_clust_6="65.03692"></scales>
<clustering>
<clus scale="   69.189">  1  3  2 -1</clus>
<clus scale="   65.037">  1  6  2 -1</clus>
<clus scale="   91.093">  1  4  2 -1</clus>
<clus scale="   69.189">  1  3  2 -1</clus>
</clustering>
</event>
<event>
 6    0  0.8736118E+002  0.1895609E+03  0.7546771E-02  0.1158858E+00
         21   -1    0    0  505  501  0.00000000000E+00  0.00000000000E+00  0.73058075663E+03  0.73058075663E+03  0.00000000000E+00 0. -1.
         21   -1    0    0  504  502 -0.00000000000E+00 -0.00000000000E+00 -0.15695951884E+04  0.15695951884E+04  0.00000000000E+00 0.  1.
         21    1    1    2  503  506 -0.69394812652E+01  0.12702954034E+03  0.44821198446E+03  0.46591699210E+03  0.00000000000E+00 0. -1.
         21    1    1    2  504  503 -0.12716771146E+02 -0.11674496103E+03 -0.14896363483E+04  0.14942581947E+04  0.00000000000E+00 0.  1.
         21    1    1    2  505  502 -0.16489421320E+02 -0.61261592484E+02 -0.49491934406E+02  0.80463254349E+02  0.00000000000E+00 0.  1.
         21    1    1    2  506  501  0.36145673730E+02  0.50977013169E+02  0.25190186647E+03  0.25953750390E+03  0.00000000000E+00 0. -1.
<scales pt_clust_3="41.96701" pt_clust_4="179.85508" pt_clust_5="63.44197" pt_clust_6="41.96701"></scales>
<clustering>
<clus scale="   41.967">  3  6 -1 -1</clus>
<clus scale="   63.442">  2  5  1 -1</clus>
<clus scale="  179.855">  2  4  1 -1</clus>
<clus scale="  189.561">  1  3  2 -1</clus>
</clustering>
</event>
<event>
 6    0  0.6687079E+002  0.1160873E+03  0.7546771E-02  0.1249695E+00
         21   -1    0    0  506  501  0.00000000000E+00  0.00000000000E+00  0.28977282295E+03  0.28977282295E+03  0.00000000000E+00 0. -1.
         21   -1    0    0  504  502 -0.00000000000E+00 -0.00000000000E+00 -0.96561998021E+03  0.96561998021E+03  0.00000000000E+00 0. -1.
         21    1    1    2  503  501 -0.11222029916E+03 -0.29729754569E+02  0.26487382912E+03  0.28919785477E+03  0.00000000000E+00 0. -1.
         21    1    1    2  504  503 -0.21294172887E+02 -0.39853010696E+02 -0.10896391528E+03  0.11796117621E+03  0.00000000000E+00 0.  1.
         21    1    1    2  505  502  0.26938184093E+02  0.19719420241E+02 -0.71314079405E+02  0.78741470765E+02  0.00000000000E+00 0. -1.
         21    1    1    2  506  505  0.10657628795E+03  0.49863345024E+02 -0.76044299168E+03  0.76949230141E+03  0.00000000000E+00 0. -1.
<scales pt_clust_3="14000.00000" pt_clust_4="41.39310" pt_clust_5="33.38445" pt_clust_6="116.08734"></scales>
<clustering>
<clus scale="   33.384">  2  5  1 -1</clus>
<clus scale="   41.393">  2  4  1 -1</clus>
<clus scale="  116.087">  2  6  1 -1</clus>
<clus scale="  116.087">  1  3  2 -1</clus>
</clustering>
</event>
<event>
 6    0  0.6687079E+002  0.1055417E+03  0.7546771E-02  0.1269056E+00
         21   -1    0    0  504  501  0.00000000000E+00  0.00000000000E+00  0.28158294940E+03  0.28158294940E+03  0.00000000000E+00 0.  1.
         21   -1    0    0  506  502 -0.00000000000E+00 -0.00000000000E+00 -0.19732944497E+04  0.19732944497E+04  0.00000000000E+00 0. -1.
         21    1    1    2  503  502  0.63117539530E+02  0.84129961001E+02 -0.18763013946E+04  0.18792468165E+04  0.00000000000E+00 0. -1.
         21    1    1    2  504  505 -0.70799075518E+02  0.61555217302E+02  0.12017742236E+03  0.15246037753E+03  0.00000000000E+00 0.  1.
         21    1    1    2  505  503 -0.30359464973E+02 -0.15044929751E+03  0.89196969958E+02  0.17751841506E+03  0.00000000000E+00 0.  1.
         21    1    1    2  506  501  0.38041000961E+02  0.47641192125E+01 -0.24784498051E+02  0.45651789994E+02  0.00000000000E+00 0.  1.
<scales pt_clust_3="105.54167" pt_clust_4="82.21841" pt_clust_5="14000.00000" pt_clust_6="38.33816"></scales>
<clustering>
<clus scale="   38.338">  1  6  2 -1</clus>
<clus scale="   82.218">  1  4  2 -1</clus>
<clus scale="  105.542">  2  3  1 -1</clus>
<clus scale="   38.338">  1  3  2 -1</clus>
</clustering>
</event>
<event>
 6    0  0.6687079E+002  0.1163282E+03  0.7546771E-02  0.1249280E+00
         21   -1    0    0  503  501  0.00000000000E+00  0.00000000000E+00  0.11518394621E+04  0.11518394621E+04  0.00000000000E+00 0.  1.
         21   -1    0    0  506  502 -0.00000000000E+00 -0.00000000000E+00 -0.19860119732E+03  0.19860119732E+03  0.00000000000E+00 0.  1.
         21    1    1    2  503  505 -0.35031083797E+02  0.36165058486E+01  0.11388312836E+03  0.11920412271E+03  0.00000000000E+00 0.  1.
         21    1    1    2  504  502  0.12315455069E+03 -0.71536577870E+01 -0.15608096829E+03  0.19894593948E+03  0.00000000000E+00 0.  1.
         21    1    1    2  505  504 -0.73923695178E+02 -0.60530134591E+02  0.11543469396E+03  0.14984584903E+03  0.00000000000E+00 0.  1.
         21    1    1    2  506  501 -0.14199771712E+02  0.64067286530E+02  0.88000141076E+03  0.88244474822E+03  0.00000000000E+00 0.  1.
<scales pt_clust_3="35.21727" pt_clust_4="116.32822" pt_clust_5="14000.00000" pt_clust_6="80.28744"></scales>
<clustering>
<clus scale="   35.217">  1  3  2 -1</clus>
<clus scale="   80.287">  1  6  2 -1</clus>
<clus scale="  116.328">  2  4  1 -1</clus>
<clus scale="   35.217">  1  3  2 -1</clus>
</clustering>
</event>
<event>
 6    0  0.6687079E+002  0.1809364E+03  0.7546771E-02  0.1166900E+00
         21   -1    0    0  503  501  0.00000000000E+00  0.00000000000E+00  0.14374621235E+03  0.14374621235E+03  0.00000000000E+00 0.  1.
         21   -1    0    0  505  502 -0.00000000000E+00 -0.00000000000E+00 -0.53109987307E+03  0.53109987307E+03  0.00000000000E+00 0.  1.
         21    1    1    2  503  504  0.18866866658E+03  0.79162532923E+02 -0.97193715536E+02  0.22651532113E+03  0.00000000000E+00 0.  1.
         21    1    1    2  504  502 -0.14270538921E+02 -0.69320121604E+02 -0.20423608189E+03  0.21615111540E+03  0.00000000000E+00 0.  1.
         21    1    1    2  505  506 -0.15185829659E+03 -0.50387989263E+02 -0.93287687653E+02  0.18520929883E+03  0.00000000000E+00 0.  1.
         21    1    1    2  506  501 -0.22539831067E+02  0.40545577944E+02  0.73638243634E+01  0.46970350059E+02  0.00000000000E+00 0.  1.
<scales pt_clust_3="180.93635" pt_clust_4="68.99392" pt_clust_5="14000.00000" pt_clust_6="46.38952"></scales>
<clustering>
<clus scale="   46.390">  1  6  2 -1</clus>
<clus scale="   68.994">  2  4  1 -1</clus>
<clus scale="  180.936">  2  3  1 -1</clus>
<clus scale="   46.390">  1  3  2 -1</clus>
</clustering>
</event>
<event>
 6    0  0.6687079E+002  0.1179405E+03  0.7546771E-02  0.1246534E+00
         21   -1    0    0  505  501  0.00000000000E+00  0.00000000000E+00  0.11273757279E+03  0.11273757279E+03  0.00000000000E+00 0. -1.
         21   -1    0    0  503  502 -0.00000000000E+00 -0.00000000000E+00 -0.10600817186E+04  0.10600817186E+04  0.00000000000E+00 0. -1.
         21    1    1    2  503  506  0.20076693731E+02 -0.28752693138E+02 -0.66051816514E+03  0.66144843902E+03  0.00000000000E+00 0. -1.
         21    1    1    2  504  501  0.89722491157E+02  0.96720976096E+02 -0.30897831635E+02  0.13549814994E+03  0.00000000000E+00 0. -1.
         21    1    1    2  505  502  0.14006345016E+02 -0.46712868594E+02  0.34302805031E+02  0.59623420113E+02  0.00000000000E+00 0. -1.
         21    1    1    2  506  504 -0.12380552990E+03 -0.21255414363E+02 -0.29023095404E+03  0.31624928230E+03  0.00000000000E+00 0. -1.
<scales pt_clust_3="35.06838" pt_clust_4="117.94050" pt_clust_5="49.82531" pt_clust_6="14000.00000"></scales>
<clustering>
<clus scale="   35.068">  2  3  1 -1</clus>
<clus scale="   49.825">  1  5  2 -1</clus>
<clus scale="  117.941">  1  4  2 -1</clus>
<clus scale="   49.825">  1  3  2 -1</clus>
</clustering>
</event>
<event>
 6    0  0.6687079E+002  0.2474996E+03  0.7546771E-02  0.1114895E+00
         21   -1    0    0  503  501  0.00000000000E+00  0.00000000000E+00  0.19704800043E+04  0.19704800043E+04  0.00000000000E+00 0. -1.
         21   -1    0    0  504  502 -0.00000000000E+00 -0.00000000000E+00 -0.79041431946E+03  0.79041431946E+03  0.00000000000E+00 0.  1.
         21    1    1    2  503  506  0.22555685762E+00  0.16696079851E+03 -0.60889756685E+01  0.16707194481E+03  0.00000000000E+00 0. -1.
         21    1    1    2  504  505  0.13263318009E+03 -0.13703681048E+02 -0.67223591215E+03  0.68533238134E+03  0.00000000000E+00 0.  1.
         21    1    1    2  505  501 -0.17975136576E+03 -0.17303571420E+03  0.18360231416E+04  0.18528985100E+04  0.00000000000E+00 0. -1.
         21    1    1    2  506  502  0.46892628811E+02  0.19778596732E+02  0.22367431101E+02  0.55591487654E+02  0.00000000000E+00 0. -1.
<scales pt_clust_3="169.26230" pt_clust_4="247.49962" pt_clust_5="14000.00000" pt_clust_6="50.89314"></scales>
<clustering>
<clus scale="   50.893">  2  6  1 -1</clus>
<clus scale="  169.262">  2  3  1 -1</clus>
<clus scale="  247.500">  2  4  1 -1</clus>
<clus scale="  247.500">  1  3  2 -1</clus>
</clustering>
</event>
<event>
 6    0  0.6687079E+002  0.1509460E+03  0.7546771E-02  0.1199315E+00
         21   -1    0    0  506  501  0.00000000000E+00  0.00000000000E+00  0.80543725561E+03  0.80543725561E+03  0.00000000000E+00 0.  1.
         21   -1    0    0  503  502 -0.00000000000E+00 -0.00000000000E+00 -0.27481369935E+02  0.27481369935E+02  0.00000000000E+00 0.  1.
         21    1    1    2  503  505 -0.34518416960E+02  0.70770068452E+02  0.16007780757E+03  0.17839514617E+03  0.00000000000E+00 0.  1.
         21    1    1    2  504  502  0.32175328517E+02 -0.45970367824E+02  0.21973159871E+03  0.22678294018E+03  0.00000000000E+00 0.  1.
         21    1    1    2  505  501 -0.14175591695E+02  0.61270583756E+02  0.22574649621E+03  0.23434272420E+03  0.00000000000E+00 0.  1.
         21    1    1    2  506  504  0.16518680139E+02 -0.86070284385E+02  0.17239998318E+03  0.19339781500E+03  0.00000000000E+00 0.  1.
<scales pt_clust_3="146.60203" pt_clust_4="43.67141" pt_clust_5="36.69952" pt_clust_6="43.67141"></scales>
<clustering>
<clus scale="   36.700">  3  5 -1 -1</clus>
<clus scale="   43.671">  4  6 -1 -1</clus>
<clus scale="  146.602">  1  3  2 -1</clus>
<clus scale="  146.602">  1  3  2 -1</clus>
</clustering>
</event>
<event>
 6    0  0.6687079E+002  0.7063315E+02  0.7546771E-02  0.1357953E+00
         21   -1    0    0  504  501  0.00000000000E+00  0.00000000000E+00  0.27672533280E+03  0.27672533280E+03  0.00000000000E+00 0.  1.
         21   -1    0    0  505  502 -0.00000000000E+00 -0.00000000000E+00 -0.14060241145E+04  0.14060241145E+04  0.00000000000E+00 0.  1.
         21    1    1    2  503  502 -0.43882225658E+02 -0.41194817264E+02 -0.27561511207E+03  0.28211053277E+03  0.00000000000E+00 0.  1.
         21    1    1    2  504  506  0.99513449571E+01  0.69954105283E+02  0.26236545605E+03  0.27171352311E+03  0.00000000000E+00 0.  1.
         21    1    1    2  505  501 -0.37311604411E+02  0.49061568841E+02 -0.51636767183E+03  0.52003342765E+03  0.00000000000E+00 0.  1.
         21    1    1    2  506  503  0.71242485112E+02 -0.77820856860E+02 -0.59968145381E+03  0.60889196373E+03  0.00000000000E+00 0.  1.
<scales pt_clust_3="60.18856" pt_clust_4="14000.00000" pt_clust_5="64.90005" pt_clust_6="70.63315"></scales>
<clustering>
<clus scale="   60.189">  2  3  1 -1</clus>
<clus scale="   64.900">  2  5  1 -1</clus>
<clus scale="   70.633">  2  6  1 -1</clus>
<clus scale="   70.633">  1  3  2 -1</clus>
</clustering>
</event>
<event>
 6    0  0.6687079E+002  0.1314691E+03  0.7546771E-02  0.1225292E+00
         21   -1    0    0  505  501  0.00000000000E+00  0.00000000000E+00  0.43956561732E+03  0.43956561732E+03  0.00000000000E+00 0.  1.
         21   -1    0    0  504  502 -0.00000000000E+00 -0.00000000000E+00 -0.11982238049E+03  0.11982238049E+03  0.00000000000E+00 0.  1.
         21    1    1    2  503  501 -0.52095340255E+02 -0.14904616261E+02  0.28707044132E+03  0.29213953917E+03  0.00000000000E+00 0.  1.
         21    1    1    2  504  506 -0.43596530476E+02  0.33066055111E+02  0.44639599400E+01  0.54899439054E+02  0.00000000000E+00 0.  1.
         21    1    1    2  505  502  0.13139464506E+03 -0.62561910173E+02 -0.64311716900E+01  0.14567053692E+03  0.00000000000E+00 0.  1.
         21    1    1    2  506  503 -0.35702774335E+02  0.44400471324E+02  0.34640007259E+02  0.66678482675E+02  0.00000000000E+00 0.  1.
<scales pt_clust_3="54.18553" pt_clust_4="30.40555" pt_clust_5="127.75557" pt_clust_6="30.40555"></scales>
<clustering>
<clus scale="   30.406">  4  6 -1 -1</clus>
<clus scale="   54.186">  1  3  2 -1</clus>
<clus scale="  127.756">  2  5  1 -1</clus>
<clus scale="   54.186">  1  3  2 -1</clus>
</clustering>
</event>
<event>
 6    0  0.6687079E+002  0.1241444E+03  0.7546771E-02  0.1236413E+00
         21   -1    0    0  504  501  0.00000000000E+00  0.00000000000E+00  0.44686262214E+03  0.44686262214E+03  0.00000000000E+00 0.  1.
         21   -1    0    0  506  502 -0.00000000000E+00 -0.00000000000E+00 -0.18872046693E+04  0.18872046693E+04  0.00000000000E+00 0.  1.
         21    1    1    2  503  505 -0.80005950177E+02  0.89733410885E+02 -0.14823679569E+04  0.14872349501E+04  0.00000000000E+00 0.  1.
         21    1    1    2  504  502  0.10257955769E+03  0.10248804521E+02 -0.18728003828E+03  0.21377889603E+03  0.00000000000E+00 0.  1.
         21    1    1    2  505  501  0.33280200139E+02 -0.79712782503E+02  0.42233912224E+03  0.43108239768E+03  0.00000000000E+00 0.  1.
         21    1    1    2  506  503 -0.55853807651E+02 -0.20269432903E+02 -0.19303317418E+03  0.20197104762E+03  0.00000000000E+00 0.  1.
<scales pt_clust_3="124.14438" pt_clust_4="14000.00000" pt_clust_5="86.37398" pt_clust_6="59.41799"></scales>
<clustering>
<clus scale="   59.418">  2  6  1 -1</clus>
<clus scale="   86.374">  1  5  2 -1</clus>
<clus scale="  124.144">  2  3  1 -1</clus>
<clus scale="   86.374">  1  3  2 -1</clus>
</clustering>
</event>
<event>
 6    0  0.6687079E+002  0.9005177E+02  0.7546771E-02  0.1302726E+00
         21   -1    0    0  503  501  0.00000000000E+00  0.00000000000E+00  0.48416224249E+03  0.48416224249E+03  0.00000000000E+00 0.  1.
         21   -1    0    0  505  502 -0.00000000000E+00 -0.00000000000E+00 -0.20492009151E+03  0.20492009151E+03  0.00000000000E+00 0.  1.
         21    1    1    2  503  502 -0.54601995212E+02  0.77257653784E+02  0.33794944770E+03  0.35094152241E+03  0.00000000000E+00 0.  1.
         21    1    1    2  504  506  0.76153318091E+02 -0.10901530016E+02 -0.19426205820E+02  0.79344493731E+02  0.00000000000E+00 0.  1.
         21    1    1    2  505  504  0.89037981730E+01 -0.32682344528E+02 -0.14226814156E+03  0.14624512767E+03  0.00000000000E+00 0.  1.
         21    1    1    2  506  501 -0.30455121052E+02 -0.33673779240E+02  0.10298705066E+03  0.11255119018E+03  0.00000000000E+00 0.  1.
<scales pt_clust_3="14000.00000" pt_clust_4="90.05177" pt_clust_5="33.87349" pt_clust_6="46.89697"></scales>
<clustering>
<clus scale="   33.873">  2  5  1 -1</clus>
<clus scale="   46.897">  1  6  2 -1</clus>
<clus scale="   90.052">  2  4  1 -1</clus>
<clus scale="   46.897">  1  3  2 -1</clus>
</clustering>
</event>
<event>
 6    0  0.6687079E+002  0.1019753E+03  0.7546771E-02  0.1276196E+00
         21   -1    0    0  505  501  0.00000000000E+00  0.00000000000E+00  0.51884168360E+03  0.51884168360E+03  0.00000000000E+00 0.  1.
         21   -1    0    0  506  502 -0.00000000000E+00 -0.00000000000E+00 -0.70818591179E+02  0.70818591179E+02  0.00000000000E+00 0. -1.
         21    1    1    2  503  502  0.52679118564E+00  0.83608403253E+02 -0.19940277494E+02  0.85954972340E+02  0.00000000000E+00 0. -1.
         21    1    1    2  504  503 -0.16579277953E+02 -0.39573175091E+02  0.11126950433E+03  0.11925523568E+03  0.00000000000E+00 0. -1.
         21    1    1    2  505  504  0.41955394707E+02 -0.81377157049E+02  0.28698192470E+03  0.30123267077E+03  0.00000000000E+00 0.  1.
         21    1    1    2  506  501 -0.25902907939E+02  0.37341928887E+02  0.69711940893E+02  0.83217395993E+02  0.00000000000E+00 0.  1.
<scales pt_clust_3="86.40606" pt_clust_4="37.07379" pt_clust_5="37.07379" pt_clust_6="45.44646"></scales>
<clustering>
<clus scale="   37.074">  4  5 -1 -1</clus>
<clus scale="   45.446">  1  6  2 -1</clus>
<clus scale="   86.406">  2  3  1 -1</clus>
<clus scale="   45.446">  1  3  2 -1</clus>
</clustering>
</event>
<event>
 6    0  0.6687079E+002  0.1052884E+03  0.7546771E-02  0.1269552E+00
         21   -1    0    0  504  501  0.00000000000E+00  0.00000000000E+00  0.40676606456E+02  0.40676606456E+02  0.00000000000E+00 0. -1.
         21   -1    0    0  503  502 -0.00000000000E+00 -0.00000000000E+00 -0.99782466805E+03  0.99782466805E+03  0.00000000000E+00 0. -1.
         21    1    1    2  503  506  0.28203482132E+02  0.25141887605E+02 -0.11376479922E+03  0.11987485332E+03  0.00000000000E+00 0. -1.
         21    1    1    2  504  505 -0.28424156788E+02 -0.99626199746E+02 -0.87077288882E+02  0.13533575508E+03  0.00000000000E+00 0. -1.
         21    1    1    2  505  502  0.40180404250E+02 -0.51644173116E+02 -0.16805630411E+03  0.18034552075E+03  0.00000000000E+00 0. -1.
         21    1    1    2  506  501 -0.39959729594E+02  0.12612848526E+03 -0.58824966939E+03  0.60294514536E+03  0.00000000000E+00 0. -1.
<scales pt_clust_3="37.78294" pt_clust_4="105.28844" pt_clust_5="65.36105" pt_clust_6="14000.00000"></scales>
<clustering>
<clus scale="   37.783">  2  3  1 -1</clus>
<clus scale="   65.361">  2  5  1 -1</clus>
<clus scale="  105.288">  1  4  2 -1</clus>
<clus scale="  105.288">  1  3  2 -1</clus>
</clustering>
</event>
<event>
 6    0  0.6687079E+002  0.7263965E+02  0.7546771E-02  0.1351340E+00
         21   -1    0    0  506  501  0.00000000000E+00  0.00000000000E+00  0.17437749896E+04  0.17437749896E+04  0.00000000000E+00 0. -1.
         21   -1    0    0  503  502 -0.00000000000E+00 -0.00000000000E+00 -0.16151198011E+03  0.16151198011E+03  0.00000000000E+00 0. -1.
         21    1    1    2  503  501  0.16986287766E+02  0.34010026566E+02  0.28161830965E+02  0.47310723969E+02  0.00000000000E+00 0. -1.
         21    1    1    2  504  502  0.24014737832E+02 -0.68223840868E+02  0.96765949372E+01  0.72971477891E+02  0.00000000000E+00 0. -1.
         21    1    1    2  505  504  0.24438579021E+02  0.66076862188E+02 -0.10910494359E+03  0.12987411050E+03  0.00000000000E+00 0. -1.
         21    1    1    2  506  505 -0.65439604620E+02 -0.31863047886E+02  0.16535295272E+04  0.16551306574E+04  0.00000000000E+00 0. -1.
<scales pt_clust_3="38.01600" pt_clust_4="67.06143" pt_clust_5="72.63965" pt_clust_6="14000.00000"></scales>
<clustering>
<clus scale="   38.016">  2  3  1 -1</clus>
<clus scale="   67.061">  2  4  1 -1</clus>
<clus scale="   72.640">  2  5  1 -1</clus>
<clus scale="   72.640">  1  3  2 -1</clus>
</clustering>
</event>
<event>
 6    0  0.6687079E+002  0.1454795E+03  0.7546771E-02  0.1206140E+00
         21   -1    0    0  504  501  0.00000000000E+00  0.00000000000E+00  0.31959831207E+03  0.31959831207E+03  0.00000000000E+00 0.  1.
         21   -1    0    0  505  502 -0.00000000000E+00 -0.00000000000E+00 -0.90666550275E+03  0.90666550275E+03  0.00000000000E+00 0.  1.
         21    1    1    2  503  506  0.12047748638E+01  0.35795084862E+02  0.48352168872E+02  0.60172018559E+02  0.00000000000E+00 0.  1.
         21    1    1    2  504  502 -0.56115307323E+01 -0.13188894134E+03 -0.85630203669E+03  0.86641754378E+03  0.00000000000E+00 0.  1.
         21    1    1    2  505  503 -0.14809658881E+02  0.69687229246E+02 -0.50227692024E+01  0.71420334126E+02  0.00000000000E+00 0. -1.
         21    1    1    2  506  501  0.19216414749E+02  0.26406627231E+02  0.22590544635E+03  0.22825391836E+03  0.00000000000E+00 0.  1.
<scales pt_clust_3="52.32751" pt_clust_4="130.52507" pt_clust_5="52.32751" pt_clust_6="32.65854"></scales>
<clustering>
<clus scale="   32.659">  1  6  2 -1</clus>
<clus scale="   52.328">  3  5 -1 -1</clus>
<clus scale="  130.525">  2  4  1 -1</clus>
<clus scale="   32.659">  1  3  2 -1</clus>
</clustering>
</event>
<event>
 6    0  0.6687079E+002  0.8825063E+02  0.7546771E-02  0.1307144E+00
         21   -1    0    0  506  501  0.00000000000E+00  0.00000000000E+00  0.40825285526E+03  0.40825285526E+03  0.00000000000E+00 0.  1.
         21   -1    0    0  503  502 -0.00000000000E+00 -0.00000000000E+00 -0.18905396766E+03  0.18905396766E+03  0.00000000000E+00 0.  1.
         21    1    1    2  503  504 -0.56504301605E+02 -0.19113409714E+02 -0.72061349460E+02  0.93546227165E+02  0.00000000000E+00 0.  1.
         21    1    1    2  504  501  0.35870949177E+02  0.36388948891E+02  0.30954628608E+02  0.59741690874E+02  0.00000000000E+00 0.  1.
         21    1    1    2  505  502  0.19352063166E+02  0.96929435806E+02 -0.51856242144E+02  0.11161938776E+03  0.00000000000E+00 0.  1.
         21    1    1    2  506  505  0.12812892622E+01 -0.11420497498E+03  0.31216185060E+03  0.33239951712E+03  0.00000000000E+00 0.  1.
<scales pt_clust_3="58.30244" pt_clust_4="51.09678" pt_clust_5="14000.00000" pt_clust_6="88.25063"></scales>
<clustering>
<clus scale="   51.097">  1  4  2 -1</clus>
<clus scale="   58.302">  2  3  1 -1</clus>
<clus scale="   88.251">  1  6  2 -1</clus>
<clus scale="   51.097">  1  3  2 -1</clus>
</clustering>
</event>
<event>
 6    0  0.6687079E+002  0.1848739E+03  0.7546771E-02  0.1163168E+00
         21   -1    0    0  506  501  0.00000000000E+00  0.00000000000E+00  0.61479179027E+03  0.61479179027E+03  0.00000000000E+00 0.  1.
         21   -1    0    0  501  502 -0.00000000000E+00 -0.00000000000E+00 -0.68268323383E+02  0.68268323383E+02  0.00000000000E+00 0.  1.
         21    1    1    2  503  504  0.38115886258E+02 -0.10382688852E+03  0.48958663457E+02  0.12095368656E+03  0.00000000000E+00 0.  1.
         21    1    1    2  504  502  0.27359690547E+02 -0.59122799328E+02  0.66612943041E+02  0.93173720801E+02  0.00000000000E+00 0.  1.
         21    1    1    2  505  503 -0.18678848834E+02  0.10878609173E+03  0.30054158953E+03  0.32016958036E+03  0.00000000000E+00 0.  1.
         21    1    1    2  506  505 -0.46796727971E+02  0.54163596118E+02  0.13041027085E+03  0.14876312593E+03  0.00000000000E+00 0.  1.
<scales pt_clust_3="180.26023" pt_clust_4="31.21362" pt_clust_5="46.53111" pt_clust_6="46.53111"></scales>
<clustering>
<clus scale="   31.214">  3  4 -1 -1</clus>
<clus scale="   46.531">  5  6 -1 -1</clus>
<clus scale="  180.260">  2  3  1 -1</clus>
<clus scale="  184.874">  1  3  2 -1</clus>
</clustering>
</event>
<event>
 6    0  0.6687079E+002  0.1299779E+03  0.7546771E-02  0.1227489E+00
         21   -1    0    0  504  501  0.00000000000E+00  0.00000000000E+00  0.17253247581E+04  0.17253247581E+04  0.00000000000E+00 0.  1.
         21   -1    0    0  505  502 -0.00000000000E+00 -0.00000000000E+00 -0.15280409080E+02  0.15280409080E+02  0.00000000000E+00 0.  1.
         21    1    1    2  503  501  0.80542804631E+02  0.26810569977E+02  0.80573684510E+03  0.81019615748E+03  0.00000000000E+00 0.  1.
         21    1    1    2  504  502 -0.10098168332E+03 -0.22696661523E+02  0.46366281655E+03  0.47507435866E+03  0.00000000000E+00 0.  1.
         21    1    1    2  505  506 -0.42235414308E+01 -0.51402811426E+02  0.12510572223E+03  0.13532009851E+03  0.00000000000E+00 0.  1.
         21    1    1    2  506  503  0.24662420116E+02  0.47288902972E+02  0.31553896510E+03  0.32001455249E+03  0.00000000000E+00 0.  1.
<scales pt_clust_3="47.27992" pt_clust_4="115.48295" pt_clust_5="51.57603" pt_clust_6="47.27992"></scales>
<clustering>
<clus scale="   47.280">  3  6 -1 -1</clus>
<clus scale="   51.576">  2  5  1 -1</clus>
<clus scale="  115.483">  2  4  1 -1</clus>
<clus scale="  129.978">  1  3  2 -1</clus>
</clustering>
</event>
<event>
 6    0  0.6687079E+002  0.3469527E+03  0.7546771E-02  0.1063873E+00
         21   -1    0    0  506  501  0.00000000000E+00  0.00000000000E+00  0.12453326101E+04  0.12453326101E+04  0.00000000000E+00 0.  1.
         21   -1    0    0  504  502 -0.00000000000E+00 -0.00000000000E+00 -0.24433679146E+03  0.24433679146E+03  0.00000000000E+00 0. -1.
         21    1    1    2  503  501  0.32703549338E+03  0.34574513134E+02  0.93747176201E+03  0.99347919730E+03  0.00000000000E+00 0.  1.
         21    1    1    2  504  503 -0.62111963674E+02 -0.85298678193E+01 -0.12343360375E+03  0.13844316239E+03  0.00000000000E+00 0. -1.
         21    1    1    2  505  502 -0.19059744055E+03 -0.86355071576E+02  0.12547056747E+03  0.24398247075E+03  0.00000000000E+00 0. -1.
         21    1    1    2  506  505 -0.74326089162E+02  0.60310426261E+02  0.61487092885E+02  0.11376457110E+03  0.00000000000E+00 0. -1.
<scales pt_clust_3="313.38342" pt_clust_4="62.69493" pt_clust_5="98.83187" pt_clust_6="98.83187"></scales>
<clustering>
<clus scale="   62.695">  2  4  1 -1</clus>
<clus scale="   98.832">  5  6 -1 -1</clus>
<clus scale="  313.383">  1  3  2 -1</clus>
<clus scale="  313.383">  1  3  2 -1</clus>
</clustering>
</event>
<event>
 6    0  0.6687079E+002  0.1123112E+03  0.7546771E-02  0.1256349E+00
         21   -1    0    0  503  501  0.00000000000E+00  0.00000000000E+00  0.64593066911E+02  0.64593066911E+02  0.00000000000E+00 0.  1.
         21   -1    0    0  504  502 -0.00000000000E+00 -0.00000000000E+00 -0.78836290371E+03  0.78836290371E+03  0.00000000000E+00 0. -1.
         21    1    1    2  503  505 -0.44942487804E+02 -0.26402142044E+02  0.20035007745E+01  0.52162384242E+02  0.00000000000E+00 0.  1.
         21    1    1    2  504  506  0.11987967005E+03 -0.22452324998E+02 -0.63416828895E+03  0.64578995107E+03  0.00000000000E+00 0. -1.
         21    1    1    2  505  502 -0.82334505357E+02  0.12494073326E+02 -0.81557735383E+02  0.11656215870E+03  0.00000000000E+00 0.  1.
         21    1    1    2  506  501  0.73973231097E+01  0.36360393716E+02 -0.10047313236E+02  0.38441476605E+02  0.00000000000E+00 0.  1.
<scales pt_clust_3="41.53786" pt_clust_4="14000.00000" pt_clust_5="112.31117" pt_clust_6="37.10524"></scales>
<clustering>
<clus scale="   37.105">  1  6  2 -1</clus>
<clus scale="   41.538">  1  3  2 -1</clus>
<clus scale="  112.311">  1  5  2 -1</clus>
<clus scale="   37.105">  1  3  2 -1</clus>
</clustering>
</event>
<event>
 6    0  0.6687079E+002  0.9476583E+02  0.7546771E-02  0.1291704E+00
         21   -1    0    0  504  501  0.00000000000E+00  0.00000000000E+00  0.70359544407E+02  0.70359544407E+02  0.00000000000E+00 0.  1.
         21   -1    0    0  506  502 -0.00000000000E+00 -0.00000000000E+00 -0.77312791310E+03  0.77312791310E+03  0.00000000000E+00 0.  1.
         21    1    1    2  503  502  0.10546382316E+03  0.19769816773E+02 -0.22833888123E+03  0.25229369459E+03  0.00000000000E+00 0.  1.
         21    1    1    2  504  503 -0.10061510737E+03  0.72134831974E+02 -0.28404525862E+02  0.12701830933E+03  0.00000000000E+00 0.  1.
         21    1    1    2  505  501  0.23393861211E+02 -0.34452085599E+02 -0.60968751958E+02  0.73833648561E+02  0.00000000000E+00 0.  1.
         21    1    1    2  506  505 -0.28242576997E+02 -0.57452563148E+02 -0.38505620964E+03  0.39034180502E+03  0.00000000000E+00 0. -1.
<scales pt_clust_3="94.76583" pt_clust_4="14000.00000" pt_clust_5="41.64395" pt_clust_6="64.88785"></scales>
<clustering>
<clus scale="   41.644">  1  5  2 -1</clus>
<clus scale="   64.888">  2  6  1 -1</clus>
<clus scale="   94.766">  2  3  1 -1</clus>
<clus scale="   41.644">  1  3  2 -1</clus>
</clustering>
</event>
<event>
 6    0  0.6687079E+002  0.1201329E+03  0.7546771E-02  0.1242878E+00
         21   -1    0    0  505  501  0.00000000000E+00  0.00000000000E+00  0.13737234605E+03  0.13737234605E+03  0.00000000000E+00 0.  1.
         21   -1    0    0  503  502 -0.00000000000E+00 -0.00000000000E+00 -0.90758490743E+03  0.90758490743E+03  0.00000000000E+00 0. -1.
         21    1    1    2  503  504 -0.78773530672E+02 -0.90314788034E+02 -0.79073807423E+03  0.79976792391E+03  0.00000000000E+00 0. -1.
         21    1    1    2  504  501 -0.62187385072E+01 -0.52339307498E+02  0.91455987150E+01  0.53495025880E+02  0.00000000000E+00 0.  1.
         21    1    1    2  505  506  0.43244275850E+02  0.12917021312E+02 -0.23681525136E+02  0.50967945476E+02  0.00000000000E+00 0.  1.
         21    1    1    2  506  502  0.41747993329E+02  0.12973707422E+03  0.35061439275E+02  0.14072635822E+03  0.00000000000E+00 0.  1.
<scales pt_clust_3="120.13293" pt_clust_4="49.29679" pt_clust_5="45.13222" pt_clust_6="14000.00000"></scales>
<clustering>
<clus scale="   45.132">  1  5  2 -1</clus>
<clus scale="   49.297">  1  4  2 -1</clus>
<clus scale="  120.133">  2  3  1 -1</clus>
<clus scale="   45.132">  1  3  2 -1</clus>
</clustering>
</event>
<event>
 6    0  0.6687079E+002  0.2218350E+03  0.7546771E-02  0.1132522E+00
         21   -1    0    0  504  501  0.00000000000E+00  0.00000000000E+00  0.12963970546E+04  0.12963970546E+04  0.00000000000E+00 0. -1.
         21   -1    0    0  503  502 -0.00000000000E+00 -0.00000000000E+00 -0.43371345420E+03  0.43371345420E+03  0.00000000000E+00 0. -1.
         21    1    1    2  503  506  0.26179859983E+02 -0.21912688588E+03 -0.37242552962E+03  0.43290039535E+03  0.00000000000E+00 0. -1.
         21    1    1    2  504  505  0.81873683382E+02  0.72670360024E+01  0.38397198327E+03  0.39267110128E+03  0.00000000000E+00 0. -1.
         21    1    1    2  505  502 -0.85067746660E+02  0.24417544828E+03  0.79358631520E+03  0.83464807598E+03  0.00000000000E+00 0. -1.
         21    1    1    2  506  501 -0.22985796706E+02 -0.32315598403E+02  0.57550831582E+02  0.69890936223E+02  0.00000000000E+00 0. -1.
<scales pt_clust_3="221.83501" pt_clust_4="74.68946" pt_clust_5="14000.00000" pt_clust_6="39.65659"></scales>
<clustering>
<clus scale="   39.657">  1  6  2 -1</clus>
<clus scale="   74.689">  1  4  2 -1</clus>
<clus scale="  221.835">  2  3  1 -1</clus>
<clus scale="   39.657">  1  3  2 -1</clus>
</clustering>
</event>
<event>
 6    0  0.6687079E+002  0.1205630E+03  0.7546771E-02  0.1242171E+00
         21   -1    0    0  503  501  0.00000000000E+00  0.00000000000E+00  0.12026986778E+04  0.12026986778E+04  0.00000000000E+00 0.  1.
         21   -1    0    0  504  502 -0.00000000000E+00 -0.00000000000E+00 -0.85877698398E+03  0.85877698398E+03  0.00000000000E+00 0. -1.
         21    1    1    2  503  506 -0.18567340962E+02  0.26337418277E+02  0.11771933033E+04  0.11776342722E+04  0.00000000000E+00 0.  1.
         21    1    1    2  504  501  0.86786528561E+02 -0.98024750126E+02 -0.35694294851E+03  0.38019603058E+03  0.00000000000E+00 0. -1.
         21    1    1    2  505  502 -0.24006204522E+02 -0.38179298279E+02 -0.13876705740E+03  0.14591179833E+03  0.00000000000E+00 0.  1.
         21    1    1    2  506  505 -0.44212983078E+02  0.10986663013E+03 -0.33756160353E+03  0.35773356072E+03  0.00000000000E+00 0. -1.
<scales pt_clust_3="32.22430" pt_clust_4="14000.00000" pt_clust_5="43.54881" pt_clust_6="120.56299"></scales>
<clustering>
<clus scale="   32.224">  1  3  2 -1</clus>
<clus scale="   43.549">  2  5  1 -1</clus>
<clus scale="  120.563">  2  6  1 -1</clus>
<clus scale="   32.224">  1  3  2 -1</clus>
</clustering>
</event>
<event>
 6    0  0.6687079E+002  0.1200558E+03  0.7546771E-02  0.1243005E+00
         21   -1    0    0  504  501  0.00000000000E+00  0.00000000000E+00  0.89924300346E+03  0.89924300346E+03  0.00000000000E+00 0.  1.
         21   -1    0    0  503  502 -0.00000000000E+00 -0.00000000000E+00 -0.23784130715E+02  0.23784130715E+02  0.00000000000E+00 0.  1.
         21    1    1    2  503  505 -0.30270073049E+02  0.31095778402E+02  0.83523975008E+02  0.94124806284E+02  0.00000000000E+00 0.  1.
         21    1    1    2  504  506 -0.33374865841E+02 -0.12238188341E+02  0.29797376963E+03  0.30008669133E+03  0.00000000000E+00 0.  1.
         21    1    1    2  505  501 -0.19844736077E+01  0.74363034183E+02  0.21235240410E+03  0.22500520553E+03  0.00000000000E+00 0.  1.
         21    1    1    2  506  502  0.65629412497E+02 -0.93220624244E+02  0.28160872401E+03  0.30381043103E+03  0.00000000000E+00 0.  1.
<scales pt_clust_3="35.32621" pt_clust_4="35.54792" pt_clust_5="35.32621" pt_clust_6="110.78892"></scales>
<clustering>
<clus scale="   35.326">  3  5 -1 -1</clus>
<clus scale="   35.548">  1  4  2 -1</clus>
<clus scale="  110.789">  1  6  2 -1</clus>
<clus scale="   35.548">  1  3  2 -1</clus>
</clustering>
</event>
<event>
 6    0  0.6687079E+002  0.3006414E+03  0.7546771E-02  0.1084920E+00
         21   -1    0    0  503  501  0.00000000000E+00  0.00000000000E+00  0.24953938419E+04  0.24953938419E+04  0.00000000000E+00 0. -1.
         21   -1    0    0  506  502 -0.00000000000E+00 -0.00000000000E+00 -0.43049419895E+02  0.43049419895E+02  0.00000000000E+00 0. -1.
         21    1    1    2  503  504  0.21929051209E+03 -0.83540696510E+02  0.11715093525E+04  0.11947809589E+04  0.00000000000E+00 0. -1.
         21    1    1    2  504  502  0.40626227214E+02 -0.49795851150E+02  0.18687660874E+03  0.19761827857E+03  0.00000000000E+00 0. -1.
         21    1    1    2  505  501 -0.22719377755E+03  0.16776511720E+03  0.10180636686E+04  0.10565111360E+04  0.00000000000E+00 0. -1.
         21    1    1    2  506  505 -0.32722961751E+02 -0.34428569545E+02  0.75894792166E+02  0.89532888396E+02  0.00000000000E+00 0. -1.
<scales pt_clust_3="47.46907" pt_clust_4="47.46907" pt_clust_5="286.63104" pt_clust_6="47.49862"></scales>
<clustering>
<clus scale="   47.469">  3  4 -1 -1</clus>
<clus scale="   47.499">  2  6  1 -1</clus>
<clus scale="  286.631">  2  5  1 -1</clus>
<clus scale="  300.641">  1  3  2 -1</clus>
</clustering>
</event>
<event>
 6    0  0.6687079E+002  0.7372619E+02  0.7546771E-02  0.1347862E+00
         21   -1    0    0  505  501  0.00000000000E+00  0.00000000000E+00  0.35967000435E+03  0.35967000435E+03  0.00000000000E+00 0. -1.
         21   -1    0    0  506  502 -0.00000000000E+00 -0.00000000000E+00 -0.16304917963E+04  0.16304917963E+04  0.00000000000E+00 0. -1.
         21    1    1    2  503  504  0.44271077597E+02  0.87277374333E+02 -0.68943597545E+03  0.69634706335E+03  0.00000000000E+00 0. -1.
         21    1    1    2  504  501 -0.51449725404E+02 -0.52651122791E+02  0.34297868275E+03  0.35078995396E+03  0.00000000000E+00 0. -1.
         21    1    1    2  505  502  0.66894449488E+02 -0.43244280755E+02 -0.18781618089E+03  0.20400944340E+03  0.00000000000E+00 0. -1.
         21    1    1    2  506  503 -0.59715801681E+02  0.86180292126E+01 -0.73654831837E+03  0.73901533995E+03  0.00000000000E+00 0.  1.
<scales pt_clust_3="14000.00000" pt_clust_4="73.72619" pt_clust_5="67.84806" pt_clust_6="60.33446"></scales>
<clustering>
<clus scale="   60.334">  2  6  1 -1</clus>
<clus scale="   67.848">  2  5  1 -1</clus>
<clus scale="   73.726">  1  4  2 -1</clus>
<clus scale="   73.726">  1  3  2 -1</clus>
</clustering>
</event>
<event>
 6    0  0.6687079E+002  0.2018712E+03  0.7546771E-02  0.1148170E+00
         21   -1    0    0  506  501  0.00000000000E+00  0.00000000000E+00  0.37379558672E+02  0.37379558672E+02  0.00000000000E+00 0. -1.
         21   -1    0    0  504  502 -0.00000000000E+00 -0.00000000000E+00 -0.41064267214E+04  0.41064267214E+04  0.00000000000E+00 0.  1.
         21    1    1    2  503  505  0.15148945554E+03  0.34618418875E+02 -0.11158471047E+04  0.11266153962E+04  0.00000000000E+00 0.  1.
         21    1    1    2  504  503 -0.18143679435E+02 -0.39185941425E+02 -0.36573935750E+03  0.36827979680E+03  0.00000000000E+00 0. -1.
         21    1    1    2  505  501 -0.11731792685E+03  0.20564210869E+03 -0.21942027840E+04  0.22069386104E+04  0.00000000000E+00 0.  1.
         21    1    1    2  506  502 -0.16027849256E+02 -0.20107458614E+03 -0.39325791659E+03  0.44197247664E+03  0.00000000000E+00 0. -1.
<scales pt_clust_3="147.82883" pt_clust_4="43.18253" pt_clust_5="201.87119" pt_clust_6="14000.00000"></scales>
<clustering>
<clus scale="   43.183">  2  4  1 -1</clus>
<clus scale="  147.829">  2  3  1 -1</clus>
<clus scale="  201.871">  2  5  1 -1</clus>
<clus scale="  201.871">  1  3  2 -1</clus>
</clustering>
</event>
<event>
 6    0  0.6687079E+002  0.1580830E+03  0.7546771E-02  0.1190878E+00
         21   -1    0    0  506  501  0.00000000000E+00  0.00000000000E+00  0.12996473260E+04  0.12996473260E+04  0.00000000000E+00 0.  1.
         21   -1    0    0  503  502 -0.00000000000E+00 -0.00000000000E+00 -0.48179349205E+03  0.48179349205E+03  0.00000000000E+00 0.  1.
         21    1    1    2  503  501  0.45263369001E+02 -0.22599702410E+02 -0.22382872001E+02  0.55321895135E+02  0.00000000000E+00 0. -1.
         21    1    1    2  504  505  0.98060320906E+02 -0.66312304976E+02  0.59717708401E+03  0.60879686103E+03  0.00000000000E+00 0.  1.
         21    1    1    2  505  502 -0.16599500544E+03  0.12676262273E+03 -0.41139746494E+03  0.46137943009E+03  0.00000000000E+00 0.  1.
         21    1    1    2  506  504  0.22671315533E+02 -0.37850615348E+02  0.65445708689E+03  0.65594263180E+03  0.00000000000E+00 0.  1.
<scales pt_clust_3="51.54573" pt_clust_4="14000.00000" pt_clust_5="158.08296" pt_clust_6="44.12094"></scales>
<clustering>
<clus scale="   44.121">  1  6  2 -1</clus>
<clus scale="   51.546">  2  3  1 -1</clus>
<clus scale="  158.083">  2  5  1 -1</clus>
<clus scale="   44.121">  1  3  2 -1</clus>
</clustering>
</event>
<event>
 6    0  0.6687079E+002  0.8533095E+02  0.7546771E-02  0.1314569E+00
         21   -1    0    0  503  501  0.00000000000E+00  0.00000000000E+00  0.14956347075E+03  0.14956347075E+03  0.00000000000E+00 0. -1.
         21   -1    0    0  505  502 -0.00000000000E+00 -0.00000000000E+00 -0.35341745740E+03  0.35341745740E+03  0.00000000000E+00 0. -1.
         21    1    1    2  503  504  0.15096081995E+02 -0.42644580957E+02 -0.44211418488E+02  0.63254260736E+02  0.00000000000E+00 0. -1.
         21    1    1    2  504  502  0.31928192721E+01  0.42103868683E+02 -0.36940926246E+02  0.56103136141E+02  0.00000000000E+00 0.  1.
         21    1    1    2  505  506 -0.83463410965E+01 -0.84359824478E+02 -0.23076259908E+03  0.24584063645E+03  0.00000000000E+00 0. -1.
         21    1    1    2  506  501 -0.99425601708E+01  0.84900536753E+02  0.10806095717E+03  0.13778289483E+03  0.00000000000E+00 0. -1.
<scales pt_clust_3="38.59085" pt_clust_4="42.22475" pt_clust_5="85.33095" pt_clust_6="14000.00000"></scales>
<clustering>
<clus scale="   42.225">  2  4  1 -1</clus>
<clus scale="   38.591">  2  3  1 -1</clus>
<clus scale="   85.331">  2  5  1 -1</clus>
<clus scale="   85.331">  1  3  2 -1</clus>
</clustering>
</event>
<event>
 6    0  0.6687079E+002  0.7246291E+02  0.7546771E-02  0.1351913E+00
         21   -1    0    0  505  501  0.00000000000E+00  0.00000000000E+00  0.13105502668E+03  0.13105502668E+03  0.00000000000E+00 0.  1.
         21   -1    0    0  506  502 -0.00000000000E+00 -0.00000000000E+00 -0.46325466319E+03  0.46325466319E+03  0.00000000000E+00 0. -1.
         21    1    1    2  503  501  0.41399621858E+02  0.18772940298E+02  0.33080888632E+02  0.56220077998E+02  0.00000000000E+00 0.  1.
         21    1    1    2  504  503 -0.87387655403E+02 -0.39589502716E+02  0.14784204488E+02  0.97069581974E+02  0.00000000000E+00 0.  1.
         21    1    1    2  505  502  0.48616022091E+02  0.57015006913E+02 -0.17893861831E+02  0.77035179681E+02  0.00000000000E+00 0.  1.
         21    1    1    2  506  504 -0.26279885464E+01 -0.36198444495E+02 -0.36217086779E+03  0.36398485021E+03  0.00000000000E+00 0. -1.
<scales pt_clust_3="43.60993" pt_clust_4="72.46291" pt_clust_5="14000.00000" pt_clust_6="36.29371"></scales>
<clustering>
<clus scale="   36.294">  2  6  1 -1</clus>
<clus scale="   43.610">  1  3  2 -1</clus>
<clus scale="   72.463">  1  4  2 -1</clus>
<clus scale="   43.610">  1  3  2 -1</clus>
</clustering>
</event>
<event>
 6    0  0.6687079E+002  0.8024614E+02  0.7546771E-02  0.1328354E+00
         21   -1    0    0  504  501  0.00000000000E+00  0.00000000000E+00  0.54303375002E+03  0.54303375002E+03  0.00000000000E+00 0. -1.
         21   -1    0    0  506  502 -0.00000000000E+00 -0.00000000000E+00 -0.74887926466E+03  0.74887926466E+03  0.00000000000E+00 0. -1.
         21    1    1    2  503  501  0.19223972445E+02  0.79780170550E+02  0.16160770086E+03  0.18124978816E+03  0.00000000000E+00 0. -1.
         21    1    1    2  504  505  0.23838002809E+02 -0.79599858211E+02  0.35432797835E+03  0.36394052267E+03  0.00000000000E+00 0. -1.
         21    1    1    2  505  502 -0.40152733039E+02 -0.34402693447E+02 -0.70758632485E+03  0.70955915497E+03  0.00000000000E+00 0. -1.
         21    1    1    2  506  503 -0.29092422151E+01  0.34222381108E+02 -0.14194869006E+02  0.37163548876E+02  0.00000000000E+00 0.  1.
<scales pt_clust_3="14000.00000" pt_clust_4="80.24614" pt_clust_5="43.01198" pt_clust_6="34.34582"></scales>
<clustering>
<clus scale="   34.346">  2  6  1 -1</clus>
<clus scale="   43.012">  2  5  1 -1</clus>
<clus scale="   80.246">  1  4  2 -1</clus>
<clus scale="   80.246">  1  3  2 -1</clus>
</clustering>
</event>
<event>
 6    0  0.6687079E+002  0.1288449E+03  0.7546771E-02  0.1229180E+00
         21   -1    0    0  505  501  0.00000000000E+00  0.00000000000E+00  0.57299099034E+02  0.57299099034E+02  0.00000000000E+00 0.  1.
         21   -1    0    0  506  502 -0.00000000000E+00 -0.00000000000E+00 -0.13609887666E+04  0.13609887666E+04  0.00000000000E+00 0. -1.
         21    1    1    2  503  504 -0.26419880672E+02  0.49828536418E+02 -0.66094624289E+02  0.86887240123E+02  0.00000000000E+00 0.  1.
         21    1    1    2  504  501 -0.35176313097E+02  0.38529731626E+02 -0.71555407436E+01  0.52660373960E+02  0.00000000000E+00 0.  1.
         21    1    1    2  505  502  0.12066197594E+03 -0.86537549916E+02 -0.21334807587E+03  0.25993357125E+03  0.00000000000E+00 0.  1.
         21    1    1    2  506  503 -0.59065782175E+02 -0.18207181284E+01 -0.10170914266E+04  0.10188066803E+04  0.00000000000E+00 0. -1.
<scales pt_clust_3="48.15378" pt_clust_4="48.15378" pt_clust_5="118.71953" pt_clust_6="59.09384"></scales>
<clustering>
<clus scale="   48.154">  3  4 -1 -1</clus>
<clus scale="   59.094">  2  6  1 -1</clus>
<clus scale="  118.720">  2  5  1 -1</clus>
<clus scale="  128.845">  1  3  2 -1</clus>
</clustering>
</event>
<event>
 6    0  0.6687079E+002  0.1351085E+03  0.7546771E-02  0.1220067E+00
         21   -1    0    0  505  501  0.00000000000E+00  0.00000000000E+00  0.69418636394E+03  0.69418636394E+03  0.00000000000E+00 0.  1.
         21   -1    0    0  506  502 -0.00000000000E+00 -0.00000000000E+00 -0.99558542453E+02  0.99558542453E+02  0.00000000000E+00 0.  1.
         21    1    1    2  503  501 -0.74695440373E+02 -0.32600126141E+02  0.47470803096E+03  0.48165328993E+03  0.00000000000E+00 0.  1.
         21    1    1    2  504  502  0.61275500801E+02 -0.47428082768E+01  0.14963502208E+01  0.61476989945E+02  0.00000000000E+00 0.  1.
         21    1    1    2  505  504  0.52083684154E+02 -0.67810971812E+02 -0.27953937992E+01  0.85550290938E+02  0.00000000000E+00 0.  1.
         21    1    1    2  506  503 -0.38663744582E+02  0.10515390623E+03  0.12121883410E+03  0.16506433558E+03  0.00000000000E+00 0.  1.
<scales pt_clust_3="81.49955" pt_clust_4="50.16397" pt_clust_5="50.16397" pt_clust_6="121.46333"></scales>
<clustering>
<clus scale="   50.164">  4  5 -1 -1</clus>
<clus scale="   81.500">  1  3  2 -1</clus>
<clus scale="  121.463">  1  6  2 -1</clus>
<clus scale="   81.500">  1  3  2 -1</clus>
</clustering>
</event>
<event>
 6    0  0.6687079E+002  0.1032504E+03  0.7546771E-02  0.1273606E+00
         21   -1    0    0  506  501  0.00000000000E+00  0.00000000000E+00  0.77332824840E+03  0.77332824840E+03  0.00000000000E+00 0.  1.
         21   -1    0    0  504  502 -0.00000000000E+00 -0.00000000000E+00 -0.16970699886E+03  0.16970699886E+03  0.00000000000E+00 0.  1.
         21    1    1    2  503  502  0.91563184836E+02  0.94573437993E+01  0.13385012325E+03  0.16244726425E+03  0.00000000000E+00 0.  1.
         21    1    1    2  504  501  0.34748911708E+02 -0.48587211131E+02 -0.13974594733E+03  0.15197741196E+03  0.00000000000E+00 0.  1.
         21    1    1    2  505  503 -0.10516742096E+03  0.12698507207E+02  0.31900707928E+03  0.33613532268E+03  0.00000000000E+00 0.  1.
         21    1    1    2  506  505 -0.21144675580E+02  0.26431360125E+02  0.29050999433E+03  0.29247524837E+03  0.00000000000E+00 0.  1.
<scales pt_clust_3="14000.00000" pt_clust_4="59.30545" pt_clust_5="103.25040" pt_clust_6="33.84840"></scales>
<clustering>
<clus scale="   33.848">  1  6  2 -1</clus>
<clus scale="   59.305">  2  4  1 -1</clus>
<clus scale="  103.250">  1  5  2 -1</clus>
<clus scale="   33.848">  1  3  2 -1</clus>
</clustering>
</event>
<event>
 6    0  0.6687079E+002  0.1189992E+03  0.7546771E-02  0.1244757E+00
         21   -1    0    0  504  501  0.00000000000E+00  0.00000000000E+00  0.44439810235E+02  0.44439810235E+02  0.00000000000E+00 0.  1.
         21   -1    0    0  503  502 -0.00000000000E+00 -0.00000000000E+00 -0.16597599048E+04  0.16597599048E+04  0.00000000000E+00 0.  1.
         21    1    1    2  503  506 -0.13189504566E+03 -0.28152646889E+02 -0.15774367538E+03  0.20753780793E+03  0.00000000000E+00 0.  1.
         21    1    1    2  504  505  0.57332014754E+02  0.53421236128E+02 -0.85444534018E+03  0.85803125103E+03  0.00000000000E+00 0.  1.
         21    1    1    2  505  502  0.36992851096E+02 -0.16686998212E+01 -0.59164203339E+03  0.59279975647E+03  0.00000000000E+00 0.  1.
         21    1    1    2  506  501  0.37570179812E+02 -0.23599889417E+02 -0.11489045633E+02  0.45830899633E+02  0.00000000000E+00 0.  1.
<scales pt_clust_3="109.51897" pt_clust_4="31.99590" pt_clust_5="31.99590" pt_clust_6="44.36748"></scales>
<clustering>
<clus scale="   31.996">  4  5 -1 -1</clus>
<clus scale="   44.367">  1  6  2 -1</clus>
<clus scale="  109.519">  1  3  2 -1</clus>
<clus scale="   44.367">  1  3  2 -1</clus>
</clustering>
</event>
<event>
 6    0  0.6687079E+002  0.1306759E+03  0.7546771E-02  0.1226456E+00
         21   -1    0    0  506  501  0.00000000000E+00  0.00000000000E+00  0.12846841043E+03  0.12846841043E+03  0.00000000000E+00 0. -1.
         21   -1    0    0  505  502 -0.00000000000E+00 -0.00000000000E+00 -0.85448877848E+03  0.85448877848E+03  0.00000000000E+00 0.  1.
         21    1    1    2  503  504 -0.34915432662E+02 -0.37769380532E+02  0.77050745484E+01  0.52009438735E+02  0.00000000000E+00 0. -1.
         21    1    1    2  504  502  0.11781970386E+03  0.28403855585E+02 -0.77879699787E+03  0.78817068298E+03  0.00000000000E+00 0.  1.
         21    1    1    2  505  501  0.11357350565E+02  0.32436834339E+02 -0.29639707698E+01  0.34495257015E+02  0.00000000000E+00 0. -1.
         21    1    1    2  506  503 -0.94261621764E+02 -0.23071309392E+02  0.48035526039E+02  0.10828181018E+03  0.00000000000E+00 0. -1.
<scales pt_clust_3="34.13171" pt_clust_4="121.97634" pt_clust_5="34.36768" pt_clust_6="34.13171"></scales>
<clustering>
<clus scale="   34.132">  3  6 -1 -1</clus>
<clus scale="   34.368">  1  5  2 -1</clus>
<clus scale="  121.976">  2  4  1 -1</clus>
<clus scale="   34.368">  1  3  2 -1</clus>
</clustering>
</event>
<event>
 6    0  0.6687079E+002  0.8796491E+02  0.7546771E-02  0.1307856E+00
         21   -1    0    0  506  501  0.00000000000E+00  0.00000000000E+00  0.45105637289E+03  0.45105637289E+03  0.00000000000E+00 0.  1.
         21   -1    0    0  505  502 -0.00000000000E+00 -0.00000000000E+00 -0.70184660027E+02  0.70184660027E+02  0.00000000000E+00 0. -1.
         21    1    1    2  503  501 -0.54015756566E+02 -0.22408029144E+02  0.17260946111E+03  0.18224666744E+03  0.00000000000E+00 0.  1.
         21    1    1    2  504  503  0.12918622864E+02 -0.74251936708E+02  0.54156376482E+02  0.92807079661E+02  0.00000000000E+00 0. -1.
         21    1    1    2  505  504  0.67186646190E+02 -0.25761085065E+00  0.62414296306E+01  0.67476419833E+02  0.00000000000E+00 0. -1.
         21    1    1    2  506  502 -0.26089512488E+02  0.96917576704E+02  0.14786444564E+03  0.17871086598E+03  0.00000000000E+00 0.  1.
<scales pt_clust_3="58.47924" pt_clust_4="14000.00000" pt_clust_5="59.99999" pt_clust_6="87.96491"></scales>
<clustering>
<clus scale="   58.479">  1  3  2 -1</clus>
<clus scale="   60.000">  2  5  1 -1</clus>
<clus scale="   87.965">  1  6  2 -1</clus>
<clus scale="   58.479">  1  3  2 -1</clus>
</clustering>
</event>
<event>
 6    0  0.6687079E+002  0.2615231E+03  0.7546771E-02  0.1106232E+00
         21   -1    0    0  504  501  0.00000000000E+00  0.00000000000E+00  0.20203909045E+04  0.20203909045E+04  0.00000000000E+00 0. -1.
         21   -1    0    0  503  502 -0.00000000000E+00 -0.00000000000E+00 -0.17465435678E+03  0.17465435678E+03  0.00000000000E+00 0. -1.
         21    1    1    2  503  505 -0.21807099214E+03  0.12503707020E+03  0.22366489376E+02  0.25236776019E+03  0.00000000000E+00 0. -1.
         21    1    1    2  504  506 -0.43322230271E+02  0.44332785366E+01  0.32040564150E+03  0.32335158064E+03  0.00000000000E+00 0. -1.
         21    1    1    2  505  501  0.67346778576E+02  0.11163281162E+03  0.11170828321E+04  0.11246650733E+04  0.00000000000E+00 0. -1.
         21    1    1    2  506  502  0.19404644383E+03 -0.24110316036E+03  0.38588158472E+03  0.49466084717E+03  0.00000000000E+00 0. -1.
<scales pt_clust_3="261.52312" pt_clust_4="43.54847" pt_clust_5="120.93714" pt_clust_6="14000.00000"></scales>
<clustering>
<clus scale="   43.548">  1  4  2 -1</clus>
<clus scale="  120.937">  1  5  2 -1</clus>
<clus scale="  261.523">  2  3  1 -1</clus>
<clus scale="   43.548">  1  3  2 -1</clus>
</clustering>
</event>
<event>
 6    0  0.6687079E+002  0.2010196E+03  0.7546771E-02  0.1148882E+00
         21   -1    0    0  505  501  0.00000000000E+00  0.00000000000E+00  0.55980913792E+02  0.55980913792E+02  0.00000000000E+00 0.  1.
         21   -1    0    0  503  502 -0.00000000000E+00 -0.00000000000E+00 -0.72797835104E+03  0.72797835104E+03  0.00000000000E+00 0.  1.
         21    1    1    2  503  506 -0.42179657447E+02 -0.89754588026E+02 -0.20607869341E+03  0.22869944786E+03  0.00000000000E+00 0.  1.
         21    1    1    2  504  502  0.11617931425E+02  0.29879582904E+02 -0.14448768533E+03  0.14800154397E+03  0.00000000000E+00 0. -1.
         21    1    1    2  505  504  0.39709244259E+02  0.14808810104E+03 -0.25050033293E+03  0.29369597639E+03  0.00000000000E+00 0.  1.
         21    1    1    2  506  501 -0.91475182358E+01 -0.88213095916E+02 -0.70930725569E+02  0.11356229661E+03  0.00000000000E+00 0.  1.
<scales pt_clust_3="73.86981" pt_clust_4="31.59545" pt_clust_5="197.68957" pt_clust_6="73.86981"></scales>
<clustering>
<clus scale="   31.595">  4  5 -1 -1</clus>
<clus scale="   73.870">  3  6 -1 -1</clus>
<clus scale="  197.690">  2  4  1 -1</clus>
<clus scale="  201.020">  1  3  2 -1</clus>
</clustering>
</event>
<event>
 6    0  0.6687079E+002  0.7952480E+02  0.7546771E-02  0.1330405E+00
         21   -1    0    0  506  501  0.00000000000E+00  0.00000000000E+00  0.11695275368E+03  0.11695275368E+03  0.00000000000E+00 0. -1.
         21   -1    0    0  505  502 -0.00000000000E+00 -0.00000000000E+00 -0.57416216230E+03  0.57416216230E+03  0.00000000000E+00 0. -1.
         21    1    1    2  503  501  0.20920094258E+02 -0.44862238190E+02 -0.53821006667E+02  0.73122988983E+02  0.00000000000E+00 0. -1.
         21    1    1    2  504  502  0.74181654404E+02  0.94592770214E+01 -0.28106344685E+02  0.79889688843E+02  0.00000000000E+00 0. -1.
         21    1    1    2  505  503 -0.31636204008E+02 -0.33914689956E+02 -0.42789055802E+03  0.43039677652E+03  0.00000000000E+00 0. -1.
         21    1    1    2  506  504 -0.63465544653E+02  0.69317651125E+02  0.52608500741E+02  0.10770546163E+03  0.00000000000E+00 0. -1.
<scales pt_clust_3="60.12364" pt_clust_4="14000.00000" pt_clust_5="46.37947" pt_clust_6="79.52480"></scales>
<clustering>
<clus scale="   46.379">  2  5  1 -1</clus>
<clus scale="   60.124">  2  3  1 -1</clus>
<clus scale="   79.525">  1  6  2 -1</clus>
<clus scale="   79.525">  1  3  2 -1</clus>
</clustering>
</event>
<event>
 6    0  0.6687079E+002  0.7891298E+02  0.7546771E-02  0.1332165E+00
         21   -1    0    0  505  501  0.00000000000E+00  0.00000000000E+00  0.51966684769E+03  0.51966684769E+03  0.00000000000E+00 0.  1.
         21   -1    0    0  504  502 -0.00000000000E+00 -0.00000000000E+00 -0.13536427331E+03  0.13536427331E+03  0.00000000000E+00 0.  1.
         21    1    1    2  503  506  0.42104421974E+01 -0.70610865089E+02  0.26767376728E+03  0.27686254312E+03  0.00000000000E+00 0.  1.
         21    1    1    2  504  501  0.55233282300E+02  0.88301675765E+00  0.17489355316E+03  0.18341006006E+03  0.00000000000E+00 0.  1.
         21    1    1    2  505  503  0.21319157119E+02  0.54048775731E+02  0.37002959823E+02  0.68883928851E+02  0.00000000000E+00 0.  1.
         21    1    1    2  506  502 -0.80762881616E+02  0.15679072600E+02 -0.95267705881E+02  0.12587458897E+03  0.00000000000E+00 0.  1.
<scales pt_clust_3="78.91298" pt_clust_4="55.24034" pt_clust_5="61.89144" pt_clust_6="14000.00000"></scales>
<clustering>
<clus scale="   55.240">  1  4  2 -1</clus>
<clus scale="   61.891">  1  5  2 -1</clus>
<clus scale="   78.913">  1  3  2 -1</clus>
<clus scale="   55.240">  1  3  2 -1</clus>
</clustering>
</event>
<event>
 6    0  0.6687079E+002  0.1579959E+03  0.7546771E-02  0.1190978E+00
         21   -1    0    0  504  501  0.00000000000E+00  0.00000000000E+00  0.13562752640E+04  0.13562752640E+04  0.00000000000E+00 0. -1.
         21   -1    0    0  503  502 -0.00000000000E+00 -0.00000000000E+00 -0.62405182729E+03  0.62405182729E+03  0.00000000000E+00 0. -1.
         21    1    1    2  503  501  0.11156791235E+03 -0.31597708887E+02 -0.10695006688E+03  0.15774704776E+03  0.00000000000E+00 0. -1.
         21    1    1    2  504  506  0.68311308637E+02  0.15591032283E+02  0.13126718139E+04  0.13145405305E+04  0.00000000000E+00 0. -1.
         21    1    1    2  505  502 -0.96680483645E+02  0.21068985371E+01 -0.29848186567E+03  0.31375624148E+03  0.00000000000E+00 0. -1.
         21    1    1    2  506  505 -0.83198737339E+02  0.13899778067E+02 -0.17501644465E+03  0.19428327160E+03  0.00000000000E+00 0. -1.
<scales pt_clust_3="153.85695" pt_clust_4="70.06793" pt_clust_5="33.55423" pt_clust_6="33.55423"></scales>
<clustering>
<clus scale="   33.554">  5  6 -1 -1</clus>
<clus scale="   70.068">  1  4  2 -1</clus>
<clus scale="  153.857">  1  3  2 -1</clus>
<clus scale="   70.068">  1  3  2 -1</clus>
</clustering>
</event>
<event>
 6    0  0.6687079E+002  0.6901108E+02  0.7546771E-02  0.1363489E+00
         21   -1    0    0  504  501  0.00000000000E+00  0.00000000000E+00  0.31633138428E+03  0.31633138428E+03  0.00000000000E+00 0.  1.
         21   -1    0    0  506  502 -0.00000000000E+00 -0.00000000000E+00 -0.95037893228E+02  0.95037893228E+02  0.00000000000E+00 0.  1.
         21    1    1    2  503  505  0.27781260160E+02  0.49294840654E+02  0.30432835014E+02  0.64249024725E+02  0.00000000000E+00 0. -1.
         21    1    1    2  504  502 -0.11907805731E+03 -0.88364295539E+01  0.73544489534E+01  0.11963174386E+03  0.00000000000E+00 0.  1.
         21    1    1    2  505  501  0.40748661045E+02 -0.32239916114E+02  0.16507709418E+03  0.17306158612E+03  0.00000000000E+00 0.  1.
         21    1    1    2  506  503  0.50548136104E+02 -0.82184949858E+01  0.18429112907E+02  0.54426922804E+02  0.00000000000E+00 0.  1.
<scales pt_clust_3="69.01108" pt_clust_4="14000.00000" pt_clust_5="54.29410" pt_clust_6="51.21189"></scales>
<clustering>
<clus scale="   51.212">  2  6  1 -1</clus>
<clus scale="   54.294">  1  5  2 -1</clus>
<clus scale="   69.011">  1  3  2 -1</clus>
<clus scale="   54.294">  1  3  2 -1</clus>
</clustering>
</event>
<event>
 6    0  0.6687079E+002  0.1534088E+03  0.7546771E-02  0.1196346E+00
         21   -1    0    0  505  501  0.00000000000E+00  0.00000000000E+00  0.79152691095E+02  0.79152691095E+02  0.00000000000E+00 0. -1.
         21   -1    0    0  506  502 -0.00000000000E+00 -0.00000000000E+00 -0.81343821969E+03  0.81343821969E+03  0.00000000000E+00 0. -1.
         21    1    1    2  503  501  0.32217122417E+02 -0.15795680218E+02 -0.30798672760E+02  0.47286411729E+02  0.00000000000E+00 0. -1.
         21    1    1    2  504  502 -0.59265676009E+02  0.14259445634E+03 -0.75205779038E+02  0.17176003183E+03  0.00000000000E+00 0. -1.
         21    1    1    2  505  504 -0.41752732724E+02  0.10165943736E+02 -0.22171475795E+02  0.48355056002E+02  0.00000000000E+00 0. -1.
         21    1    1    2  506  503  0.68801286317E+02 -0.13696471986E+03 -0.60610960100E+03  0.62518941123E+03  0.00000000000E+00 0. -1.
<scales pt_clust_3="35.88100" pt_clust_4="153.40875" pt_clust_5="36.53110" pt_clust_6="14000.00000"></scales>
<clustering>
<clus scale="   35.881">  1  3  2 -1</clus>
<clus scale="   36.531">  1  5  2 -1</clus>
<clus scale="  153.409">  1  4  2 -1</clus>
<clus scale="   35.881">  1  3  2 -1</clus>
</clustering>
</event>
<event>
 6    0  0.6687079E+002  0.8415134E+02  0.7546771E-02  0.1317667E+00
         21   -1    0    0  503  501  0.00000000000E+00  0.00000000000E+00  0.42219894793E+03  0.42219894793E+03  0.00000000000E+00 0.  1.
         21   -1    0    0  504  502 -0.00000000000E+00 -0.00000000000E+00 -0.39474512383E+03  0.39474512383E+03  0.00000000000E+00 0.  1.
         21    1    1    2  503  502 -0.90159382194E+02  0.10519046591E+02 -0.11223495561E+03  0.14434697710E+03  0.00000000000E+00 0.  1.
         21    1    1    2  504  505  0.28230464967E+02 -0.21901183289E+02 -0.23574049812E+03  0.23843280696E+03  0.00000000000E+00 0.  1.
         21    1    1    2  505  506  0.54875624570E+02 -0.74906971562E+02  0.68856072797E+02  0.11560081021E+03  0.00000000000E+00 0.  1.
         21    1    1    2  506  501  0.70532926569E+01  0.86289108260E+02  0.30657320503E+03  0.31856347748E+03  0.00000000000E+00 0.  1.
<scales pt_clust_3="67.58318" pt_clust_4="35.72983" pt_clust_5="84.15134" pt_clust_6="14000.00000"></scales>
<clustering>
<clus scale="   35.730">  2  4  1 -1</clus>
<clus scale="   67.583">  2  3  1 -1</clus>
<clus scale="   84.151">  2  5  1 -1</clus>
<clus scale="   84.151">  1  3  2 -1</clus>
</clustering>
</event>
<event>
 6    0  0.6687079E+002  0.1486464E+03  0.7546771E-02  0.1202146E+00
         21   -1    0    0  504  501  0.00000000000E+00  0.00000000000E+00  0.19365829116E+03  0.19365829116E+03  0.00000000000E+00 0.  1.
         21   -1    0    0  505  502 -0.00000000000E+00 -0.00000000000E+00 -0.39478368980E+03  0.39478368980E+03  0.00000000000E+00 0.  1.
         21    1    1    2  503  501 -0.28812926166E+02 -0.21377805458E+02  0.27633662738E+02  0.45285920514E+02  0.00000000000E+00 0.  1.
         21    1    1    2  504  502 -0.67024913037E+01 -0.31192916244E+02 -0.18570775085E+01  0.31958882183E+02  0.00000000000E+00 0.  1.
         21    1    1    2  505  506  0.16742394722E+02  0.13531777739E+03 -0.34201485139E+03  0.36819202494E+03  0.00000000000E+00 0.  1.
         21    1    1    2  506  503  0.18773022748E+02 -0.82747055684E+02  0.11511286752E+03  0.14300515332E+03  0.00000000000E+00 0.  1.
<scales pt_clust_3="39.94812" pt_clust_4="31.90488" pt_clust_5="134.02087" pt_clust_6="39.94812"></scales>
<clustering>
<clus scale="   31.905">  1  4  2 -1</clus>
<clus scale="   39.948">  3  6 -1 -1</clus>
<clus scale="  134.021">  2  5  1 -1</clus>
<clus scale="   31.905">  1  3  2 -1</clus>
</clustering>
</event>
<event>
 6    0  0.6687079E+002  0.2389982E+03  0.7546771E-02  0.1120462E+00
         21   -1    0    0  503  501  0.00000000000E+00  0.00000000000E+00  0.11940646267E+03  0.11940646267E+03  0.00000000000E+00 0.  1.
         21   -1    0    0  505  502 -0.00000000000E+00 -0.00000000000E+00 -0.19193534314E+04  0.19193534314E+04  0.00000000000E+00 0.  1.
         21    1    1    2  503  506 -0.28245455583E+01  0.42891747564E+02  0.57342601407E+02  0.71664872866E+02  0.00000000000E+00 0.  1.
         21    1    1    2  504  501 -0.14136927499E+03 -0.57446924405E+02 -0.83290437605E+03  0.84676745372E+03  0.00000000000E+00 0.  1.
         21    1    1    2  505  504 -0.74867930785E+02 -0.20881333465E+02 -0.80340708565E+03  0.80715809010E+03  0.00000000000E+00 0.  1.
         21    1    1    2  506  502  0.21906175134E+03  0.35436510306E+02 -0.22097810847E+03  0.31316947742E+03  0.00000000000E+00 0.  1.
<scales pt_clust_3="42.98465" pt_clust_4="50.94808" pt_clust_5="50.94808" pt_clust_6="228.16549"></scales>
<clustering>
<clus scale="   42.985">  1  3  2 -1</clus>
<clus scale="   50.948">  4  5 -1 -1</clus>
<clus scale="  228.165">  1  6  2 -1</clus>
<clus scale="   42.985">  1  3  2 -1</clus>
</clustering>
</event>
<event>
 6    0  0.2280384E+003  0.1498598E+03  0.7546771E-02  0.1200645E+00
         21   -1    0    0  503  501  0.00000000000E+00  0.00000000000E+00  0.14221579469E+04  0.14221579469E+04  0.00000000000E+00 0. -1.
         21   -1    0    0  504  502 -0.00000000000E+00 -0.00000000000E+00 -0.28821192203E+04  0.28821192203E+04  0.00000000000E+00 0. -1.
         21    1    1    2  503  502  0.79737490448E+02 -0.18450694208E+03  0.13367103948E+04  0.13517379770E+04  0.00000000000E+00 0. -1.
         21    1    1    2  504  506 -0.22779849651E+02  0.44981327346E+02 -0.27794117918E+04  0.27798690886E+04  0.00000000000E+00 0. -1.
         21    1    1    2  505  501 -0.25912421608E+02  0.37270862821E+02  0.31454890510E+02  0.55226632579E+02  0.00000000000E+00 0.  1.
         21    1    1    2  506  505 -0.31045219189E+02  0.10225475191E+03 -0.48714766892E+02  0.11744346911E+03  0.00000000000E+00 0.  1.
<scales pt_clust_3="149.85985" pt_clust_4="50.42810" pt_clust_5="45.39351" pt_clust_6="14000.00000"></scales>
<clustering>
<clus scale="   45.394">  1  5  2 -1</clus>
<clus scale="   50.428">  2  4  1 -1</clus>
<clus scale="  149.860">  1  3  2 -1</clus>
<clus scale="   45.394">  1  3  2 -1</clus>
</clustering>
</event>
<event>
 6    0  0.6687079E+002  0.9796578E+02  0.7546771E-02  0.1284633E+00
         21   -1    0    0  503  501  0.00000000000E+00  0.00000000000E+00  0.51531466055E+03  0.51531466055E+03  0.00000000000E+00 0. -1.
         21   -1    0    0  504  502 -0.00000000000E+00 -0.00000000000E+00 -0.10816625339E+04  0.10816625339E+04  0.00000000000E+00 0. -1.
         21    1    1    2  503  502  0.29527974328E+02  0.57384593358E+02  0.25695311231E+02  0.69463240941E+02  0.00000000000E+00 0.  1.
         21    1    1    2  504  506  0.97434389597E+02 -0.59718646223E+01 -0.10126374783E+04  0.10173316990E+04  0.00000000000E+00 0. -1.
         21    1    1    2  505  501  0.32049947953E+02 -0.68924520236E+02  0.19662753469E+02  0.78513772852E+02  0.00000000000E+00 0. -1.
         21    1    1    2  506  505 -0.15901231188E+03  0.17511791500E+02  0.40093154018E+03  0.43166848168E+03  0.00000000000E+00 0. -1.
<scales pt_clust_3="64.53598" pt_clust_4="97.96578" pt_clust_5="72.05633" pt_clust_6="14000.00000"></scales>
<clustering>
<clus scale="   64.536">  1  3  2 -1</clus>
<clus scale="   72.056">  1  5  2 -1</clus>
<clus scale="   97.966">  2  4  1 -1</clus>
<clus scale="   64.536">  1  3  2 -1</clus>
</clustering>
</event>
<event>
 6    0  0.6687079E+002  0.9295919E+02  0.7546771E-02  0.1295840E+00
         21   -1    0    0  505  501  0.00000000000E+00  0.00000000000E+00  0.33030454296E+03  0.33030454296E+03  0.00000000000E+00 0. -1.
         21   -1    0    0  504  502 -0.00000000000E+00 -0.00000000000E+00 -0.33574091252E+03  0.33574091252E+03  0.00000000000E+00 0. -1.
         21    1    1    2  503  506  0.67322264548E+02 -0.33945097625E+02  0.27636186518E+02  0.80301405728E+02  0.00000000000E+00 0.  1.
         21    1    1    2  504  501 -0.33994463202E+02  0.43591132650E+02 -0.11896062947E+03  0.13117713878E+03  0.00000000000E+00 0.  1.
         21    1    1    2  505  503  0.41127153757E+02  0.12826695656E+02  0.26017354468E+03  0.26371621157E+03  0.00000000000E+00 0. -1.
         21    1    1    2  506  502 -0.74454955102E+02 -0.22472730681E+02 -0.17428547128E+03  0.19085069940E+03  0.00000000000E+00 0. -1.
<scales pt_clust_3="92.95919" pt_clust_4="54.04348" pt_clust_5="43.08093" pt_clust_6="14000.00000"></scales>
<clustering>
<clus scale="   43.081">  1  5  2 -1</clus>
<clus scale="   54.043">  2  4  1 -1</clus>
<clus scale="   92.959">  1  3  2 -1</clus>
<clus scale="   43.081">  1  3  2 -1</clus>
</clustering>
</event>
<event>
 6    0  0.6687079E+002  0.7629074E+02  0.7546771E-02  0.1339920E+00
         21   -1    0    0  504  501  0.00000000000E+00  0.00000000000E+00  0.49152076218E+03  0.49152076218E+03  0.00000000000E+00 0. -1.
         21   -1    0    0  503  502 -0.00000000000E+00 -0.00000000000E+00 -0.83182234369E+02  0.83182234369E+02  0.00000000000E+00 0.  1.
         21    1    1    2  503  505  0.45333258626E+02  0.12572503615E+03  0.21408759383E+03  0.25237945020E+03  0.00000000000E+00 0. -1.
         21    1    1    2  504  506 -0.43341225995E+02 -0.44313328395E+02  0.16377270931E+03  0.17511034595E+03  0.00000000000E+00 0. -1.
         21    1    1    2  505  501  0.26422240634E+02 -0.16677922820E+02  0.62292120199E+02  0.69689282882E+02  0.00000000000E+00 0. -1.
         21    1    1    2  506  502 -0.28414273265E+02 -0.64733784937E+02 -0.31813895531E+02  0.77523917511E+02  0.00000000000E+00 0.  1.
<scales pt_clust_3="14000.00000" pt_clust_4="60.60944" pt_clust_5="31.24561" pt_clust_6="76.29074"></scales>
<clustering>
<clus scale="   31.246">  1  5  2 -1</clus>
<clus scale="   60.609">  1  4  2 -1</clus>
<clus scale="   76.291">  2  6  1 -1</clus>
<clus scale="   31.246">  1  3  2 -1</clus>
</clustering>
</event>
<event>
 6    0  0.6687079E+002  0.1191569E+03  0.7546771E-02  0.1244494E+00
         21   -1    0    0  503  501  0.00000000000E+00  0.00000000000E+00  0.22855285935E+03  0.22855285935E+03  0.00000000000E+00 0.  1.
         21   -1    0    0  504  502 -0.00000000000E+00 -0.00000000000E+00 -0.66982397637E+03  0.66982397637E+03  0.00000000000E+00 0.  1.
         21    1    1    2  503  502  0.70997166447E+02  0.48743511386E+02  0.85706095874E+02  0.12149922805E+03  0.00000000000E+00 0.  1.
         21    1    1    2  504  505 -0.11328631919E+03  0.38972384398E+02 -0.58513059659E+03  0.59726916204E+03  0.00000000000E+00 0.  1.
         21    1    1    2  505  506  0.79419872640E+02 -0.10250539048E+03  0.39917940221E+02  0.13567723906E+03  0.00000000000E+00 0.  1.
         21    1    1    2  506  501 -0.37130719896E+02  0.14789494692E+02  0.18235443472E+02  0.43931206583E+02  0.00000000000E+00 0.  1.
<scales pt_clust_3="76.46253" pt_clust_4="14000.00000" pt_clust_5="119.15688" pt_clust_6="39.96773"></scales>
<clustering>
<clus scale="   39.968">  1  6  2 -1</clus>
<clus scale="   76.463">  1  3  2 -1</clus>
<clus scale="  119.157">  1  5  2 -1</clus>
<clus scale="   39.968">  1  3  2 -1</clus>
</clustering>
</event>
<event>
 6    0  0.6687079E+002  0.1116741E+03  0.7546771E-02  0.1257501E+00
         21   -1    0    0  506  501  0.00000000000E+00  0.00000000000E+00  0.47527146501E+03  0.47527146501E+03  0.00000000000E+00 0. -1.
         21   -1    0    0  503  502 -0.00000000000E+00 -0.00000000000E+00 -0.45190360824E+02  0.45190360824E+02  0.00000000000E+00 0. -1.
         21    1    1    2  503  501  0.52883230962E+01  0.94333282596E+02  0.14176039683E+03  0.17036063124E+03  0.00000000000E+00 0. -1.
         21    1    1    2  504  502  0.38423006178E+02 -0.31490144427E+02  0.50685004582E+02  0.70971306098E+02  0.00000000000E+00 0. -1.
         21    1    1    2  505  504  0.15376057456E+02 -0.75974184706E+02  0.85561592656E+02  0.11545252714E+03  0.00000000000E+00 0. -1.
         21    1    1    2  506  505 -0.59087386730E+02  0.13131046537E+02  0.15207411011E+03  0.16367736136E+03  0.00000000000E+00 0. -1.
<scales pt_clust_3="103.55341" pt_clust_4="33.46859" pt_clust_5="33.46859" pt_clust_6="60.52887"></scales>
<clustering>
<clus scale="   33.469">  4  5 -1 -1</clus>
<clus scale="   60.529">  1  6  2 -1</clus>
<clus scale="  103.553">  1  3  2 -1</clus>
<clus scale="   60.529">  1  3  2 -1</clus>
</clustering>
</event>
<event>
 6    0  0.6687079E+002  0.2728384E+03  0.7546771E-02  0.1099666E+00
         21   -1    0    0  504  501  0.00000000000E+00  0.00000000000E+00  0.10537024356E+03  0.10537024356E+03  0.00000000000E+00 0.  1.
         21   -1    0    0  506  502 -0.00000000000E+00 -0.00000000000E+00 -0.94562247605E+03  0.94562247605E+03  0.00000000000E+00 0.  1.
         21    1    1    2  503  502  0.12196070942E+03  0.45576527840E+02 -0.18257513769E+03  0.22424387491E+03  0.00000000000E+00 0.  1.
         21    1    1    2  504  505  0.19383646812E+02 -0.63617895320E+02 -0.33195505890E+02  0.74329697833E+02  0.00000000000E+00 0.  1.
         21    1    1    2  505  503  0.12921453980E+03  0.57948173297E+02 -0.26801092458E+03  0.30312413922E+03  0.00000000000E+00 0.  1.
         21    1    1    2  506  501 -0.27055889603E+03 -0.39906805818E+02 -0.35647066434E+03  0.44929500765E+03  0.00000000000E+00 0.  1.
<scales pt_clust_3="34.34306" pt_clust_4="66.50536" pt_clust_5="34.34306" pt_clust_6="270.47723"></scales>
<clustering>
<clus scale="   34.343">  3  5 -1 -1</clus>
<clus scale="   66.505">  1  4  2 -1</clus>
<clus scale="  270.477">  1  6  2 -1</clus>
<clus scale="   66.505">  1  3  2 -1</clus>
</clustering>
</event>
<event>
 6    0  0.6687079E+002  0.1184015E+03  0.7546771E-02  0.1245758E+00
         21   -1    0    0  505  501  0.00000000000E+00  0.00000000000E+00  0.10490991402E+04  0.10490991402E+04  0.00000000000E+00 0. -1.
         21   -1    0    0  504  502 -0.00000000000E+00 -0.00000000000E+00 -0.15315277076E+03  0.15315277076E+03  0.00000000000E+00 0.  1.
         21    1    1    2  503  501  0.39030520121E+02 -0.49457177963E+02  0.97898765040E+02  0.11641976700E+03  0.00000000000E+00 0. -1.
         21    1    1    2  504  503  0.94895456419E+01  0.13017636137E+03 -0.10928309319E+03  0.17023140425E+03  0.00000000000E+00 0.  1.
         21    1    1    2  505  506 -0.27220144133E+02 -0.35640350165E+02  0.73051238523E+03  0.73188763877E+03  0.00000000000E+00 0. -1.
         21    1    1    2  506  502 -0.21299921630E+02 -0.45078833245E+02  0.17681831240E+03  0.18371310097E+03  0.00000000000E+00 0. -1.
<scales pt_clust_3="68.33746" pt_clust_4="118.40145" pt_clust_5="44.84608" pt_clust_6="14000.00000"></scales>
<clustering>
<clus scale="   44.846">  1  5  2 -1</clus>
<clus scale="   68.337">  1  3  2 -1</clus>
<clus scale="  118.401">  2  4  1 -1</clus>
<clus scale="   44.846">  1  3  2 -1</clus>
</clustering>
</event>
<event>
 6    0  0.6687079E+002  0.8372188E+02  0.7546771E-02  0.1318809E+00
         21   -1    0    0  503  501  0.00000000000E+00  0.00000000000E+00  0.50437368060E+03  0.50437368060E+03  0.00000000000E+00 0.  1.
         21   -1    0    0  501  502 -0.00000000000E+00 -0.00000000000E+00 -0.53523687487E+02  0.53523687487E+02  0.00000000000E+00 0.  1.
         21    1    1    2  503  504 -0.42059385995E+02  0.83667177705E+01  0.14602543511E+03  0.15219205504E+03  0.00000000000E+00 0.  1.
         21    1    1    2  504  505  0.46180639918E+02 -0.39104303900E+02  0.91679654239E+02  0.10984970227E+03  0.00000000000E+00 0.  1.
         21    1    1    2  505  506  0.23436857482E+02 -0.55321914156E+02  0.19452609726E+03  0.20359322923E+03  0.00000000000E+00 0.  1.
         21    1    1    2  506  502 -0.27558111406E+02  0.86059500285E+02  0.18618806502E+02  0.92262381549E+02  0.00000000000E+00 0.  1.
<scales pt_clust_3="42.88349" pt_clust_4="50.22281" pt_clust_5="83.72188" pt_clust_6="14000.00000"></scales>
<clustering>
<clus scale="   42.883">  1  3  2 -1</clus>
<clus scale="   50.223">  1  4  2 -1</clus>
<clus scale="   83.722">  1  5  2 -1</clus>
<clus scale="   42.883">  1  3  2 -1</clus>
</clustering>
</event>
<event>
 6    0  0.6687079E+002  0.9549148E+02  0.7546771E-02  0.1290073E+00
         21   -1    0    0  504  501  0.00000000000E+00  0.00000000000E+00  0.64650532582E+03  0.64650532582E+03  0.00000000000E+00 0.  1.
         21   -1    0    0  503  502 -0.00000000000E+00 -0.00000000000E+00 -0.14476040451E+03  0.14476040451E+03  0.00000000000E+00 0.  1.
         21    1    1    2  503  505 -0.75412190732E+02  0.76204835978E+02 -0.17861353554E+02  0.10868856190E+03  0.00000000000E+00 0.  1.
         21    1    1    2  504  506  0.10281398924E+03  0.69878365168E+02  0.46451447600E+03  0.48086110335E+03  0.00000000000E+00 0.  1.
         21    1    1    2  505  501 -0.94280611677E+01 -0.40191478072E+02  0.81280237721E+02  0.91163152046E+02  0.00000000000E+00 0.  1.
         21    1    1    2  506  502 -0.17973737343E+02 -0.10589172307E+03 -0.26188438858E+02  0.11055291303E+03  0.00000000000E+00 0.  1.
<scales pt_clust_3="95.49148" pt_clust_4="101.45089" pt_clust_5="41.28248" pt_clust_6="14000.00000"></scales>
<clustering>
<clus scale="   41.282">  1  5  2 -1</clus>
<clus scale="  101.451">  1  4  2 -1</clus>
<clus scale="   95.491">  1  3  2 -1</clus>
<clus scale="   41.282">  1  3  2 -1</clus>
</clustering>
</event>
<event>
 6    0  0.6687079E+002  0.1652048E+03  0.7546771E-02  0.1182943E+00
         21   -1    0    0  504  501  0.00000000000E+00  0.00000000000E+00  0.36238122044E+03  0.36238122044E+03  0.00000000000E+00 0. -1.
         21   -1    0    0  506  502 -0.00000000000E+00 -0.00000000000E+00 -0.57344863033E+03  0.57344863033E+03  0.00000000000E+00 0. -1.
         21    1    1    2  503  502 -0.39061703531E+01  0.33584165727E+02 -0.21718855120E+03  0.21980450661E+03  0.00000000000E+00 0. -1.
         21    1    1    2  504  503  0.85566522957E+02 -0.12671295592E+03  0.32964699894E+03  0.36337989344E+03  0.00000000000E+00 0. -1.
         21    1    1    2  505  501  0.31965681890E+01  0.40011496301E+02 -0.87597700006E+02  0.96356084036E+02  0.00000000000E+00 0.  1.
         21    1    1    2  506  505 -0.84856920793E+02  0.53117293894E+02 -0.23592815762E+03  0.25628936668E+03  0.00000000000E+00 0. -1.
<scales pt_clust_3="33.81057" pt_clust_4="151.47341" pt_clust_5="42.71570" pt_clust_6="42.71570"></scales>
<clustering>
<clus scale="   33.811">  2  3  1 -1</clus>
<clus scale="   42.716">  5  6 -1 -1</clus>
<clus scale="  151.473">  1  4  2 -1</clus>
<clus scale="  151.473">  1  3  2 -1</clus>
</clustering>
</event>
<event>
 6    0  0.6687079E+002  0.6196947E+02  0.7546771E-02  0.1389748E+00
         21   -1    0    0  504  501  0.00000000000E+00  0.00000000000E+00  0.33452245569E+03  0.33452245569E+03  0.00000000000E+00 0. -1.
         21   -1    0    0  505  502 -0.00000000000E+00 -0.00000000000E+00 -0.11089566937E+03  0.11089566937E+03  0.00000000000E+00 0. -1.
         21    1    1    2  503  501 -0.73233768188E+02  0.64755229373E+01  0.14888314207E+03  0.16604609960E+03  0.00000000000E+00 0. -1.
         21    1    1    2  504  502  0.24713944106E+02  0.43793300642E+02  0.58926426616E+02  0.77465837426E+02  0.00000000000E+00 0. -1.
         21    1    1    2  505  506  0.40493248386E+02  0.31797572389E+02 -0.67360200306E+02  0.84783166725E+02  0.00000000000E+00 0. -1.
         21    1    1    2  506  503  0.80265756961E+01 -0.82066395968E+02  0.83177417944E+02  0.11712302131E+03  0.00000000000E+00 0. -1.
<scales pt_clust_3="61.96947" pt_clust_4="50.28551" pt_clust_5="53.01001" pt_clust_6="14000.00000"></scales>
<clustering>
<clus scale="   50.286">  1  4  2 -1</clus>
<clus scale="   53.010">  2  5  1 -1</clus>
<clus scale="   61.969">  1  3  2 -1</clus>
<clus scale="   50.286">  1  3  2 -1</clus>
</clustering>
</event>
<event>
 6    0  0.6687079E+002  0.8322616E+02  0.7546771E-02  0.1320138E+00
         21   -1    0    0  502  501  0.00000000000E+00  0.00000000000E+00  0.61524601722E+02  0.61524601722E+02  0.00000000000E+00 0.  1.
         21   -1    0    0  503  502 -0.00000000000E+00 -0.00000000000E+00 -0.15655928386E+04  0.15655928386E+04  0.00000000000E+00 0.  1.
         21    1    1    2  503  506  0.81418402197E+02  0.18058589759E+02 -0.12421655815E+04  0.12449620078E+04  0.00000000000E+00 0.  1.
         21    1    1    2  504  505  0.62909307678E+02 -0.62195478869E+02 -0.15278145051E+03  0.17654469747E+03  0.00000000000E+00 0.  1.
         21    1    1    2  505  501 -0.55294518217E+02  0.78241402322E+00 -0.88657766649E+02  0.10449064793E+03  0.00000000000E+00 0.  1.
         21    1    1    2  506  504 -0.89033191657E+02  0.43354475087E+02 -0.20463438215E+02  0.10112008718E+03  0.00000000000E+00 0.  1.
<scales pt_clust_3="83.22616" pt_clust_4="80.07844" pt_clust_5="55.30005" pt_clust_6="14000.00000"></scales>
<clustering>
<clus scale="   55.300">  1  5  2 -1</clus>
<clus scale="   80.078">  1  4  2 -1</clus>
<clus scale="   83.226">  2  3  1 -1</clus>
<clus scale="   55.300">  1  3  2 -1</clus>
</clustering>
</event>
<event>
 6    0  0.6687079E+002  0.9065057E+02  0.7546771E-02  0.1301284E+00
         21   -1    0    0  504  501  0.00000000000E+00  0.00000000000E+00  0.13161520186E+04  0.13161520186E+04  0.00000000000E+00 0. -1.
         21   -1    0    0  503  502 -0.00000000000E+00 -0.00000000000E+00 -0.55054512140E+02  0.55054512140E+02  0.00000000000E+00 0. -1.
         21    1    1    2  503  501  0.24093601660E+02  0.18744946557E+02  0.30404006702E+02  0.43084548111E+02  0.00000000000E+00 0. -1.
         21    1    1    2  504  505 -0.82022652546E+02  0.38888742015E+02  0.98811591655E+03  0.99227673273E+03  0.00000000000E+00 0. -1.
         21    1    1    2  505  506  0.54313014417E+02 -0.88307329149E+02  0.27328685832E+03  0.29229060000E+03  0.00000000000E+00 0. -1.
         21    1    1    2  506  502  0.36160364691E+01  0.30673640577E+02 -0.30709275138E+02  0.43554649872E+02  0.00000000000E+00 0. -1.
<scales pt_clust_3="30.52662" pt_clust_4="14000.00000" pt_clust_5="90.65057" pt_clust_6="50.04732"></scales>
<clustering>
<clus scale="   30.527">  2  3  1 -1</clus>
<clus scale="   50.047">  2  6  1 -1</clus>
<clus scale="   90.651">  2  5  1 -1</clus>
<clus scale="   90.651">  1  3  2 -1</clus>
</clustering>
</event>
<event>
 6    0  0.6687079E+002  0.8754431E+02  0.7546771E-02  0.1308910E+00
         21   -1    0    0  504  501  0.00000000000E+00  0.00000000000E+00  0.41185960293E+03  0.41185960293E+03  0.00000000000E+00 0.  1.
         21   -1    0    0  506  502 -0.00000000000E+00 -0.00000000000E+00 -0.34979662487E+03  0.34979662487E+03  0.00000000000E+00 0.  1.
         21    1    1    2  503  501  0.23245258853E+02  0.65269329028E+02  0.34229069658E+03  0.34923251329E+03  0.00000000000E+00 0.  1.
         21    1    1    2  504  502  0.22863230202E+02 -0.52522553639E+02  0.19684285505E+02  0.60570760536E+02  0.00000000000E+00 0.  1.
         21    1    1    2  505  503  0.11682309661E+02  0.71096484910E+02 -0.70257029327E+02  0.10063417260E+03  0.00000000000E+00 0. -1.
         21    1    1    2  506  505 -0.57790798715E+02 -0.83843260299E+02 -0.22965497469E+03  0.25121878137E+03  0.00000000000E+00 0.  1.
<scales pt_clust_3="47.44193" pt_clust_4="57.28303" pt_clust_5="14000.00000" pt_clust_6="87.54431"></scales>
<clustering>
<clus scale="   57.283">  1  4  2 -1</clus>
<clus scale="   47.442">  1  3  2 -1</clus>
<clus scale="   87.544">  2  6  1 -1</clus>
<clus scale="   57.283">  1  3  2 -1</clus>
</clustering>
</event>
<event>
 6    0  0.6687079E+002  0.1020320E+03  0.7546771E-02  0.1276080E+00
         21   -1    0    0  503  501  0.00000000000E+00  0.00000000000E+00  0.14614697348E+03  0.14614697348E+03  0.00000000000E+00 0.  1.
         21   -1    0    0  505  502 -0.00000000000E+00 -0.00000000000E+00 -0.87853782627E+03  0.87853782627E+03  0.00000000000E+00 0. -1.
         21    1    1    2  503  506  0.24869590776E+02  0.21623461987E+02  0.11029551359E+02  0.34752289952E+02  0.00000000000E+00 0.  1.
         21    1    1    2  504  501  0.29335590892E+02 -0.41946949092E+02 -0.29125273270E+02  0.58893165768E+02  0.00000000000E+00 0. -1.
         21    1    1    2  505  504 -0.21051316592E+02 -0.99552281142E+02 -0.78256906829E+03  0.78915661390E+03  0.00000000000E+00 0. -1.
         21    1    1    2  506  502 -0.33153865077E+02  0.11987576825E+03  0.68273937406E+02  0.14188273014E+03  0.00000000000E+00 0.  1.
<scales pt_clust_3="32.95559" pt_clust_4="50.92247" pt_clust_5="14000.00000" pt_clust_6="102.03202"></scales>
<clustering>
<clus scale="   32.956">  1  3  2 -1</clus>
<clus scale="   50.922">  1  4  2 -1</clus>
<clus scale="  102.032">  1  6  2 -1</clus>
<clus scale="   32.956">  1  3  2 -1</clus>
</clustering>
</event>
<event>
 6    0  0.6687079E+002  0.7962012E+02  0.7546771E-02  0.1330133E+00
         21   -1    0    0  505  501  0.00000000000E+00  0.00000000000E+00  0.20369759780E+04  0.20369759780E+04  0.00000000000E+00 0.  1.
         21   -1    0    0  506  502 -0.00000000000E+00 -0.00000000000E+00 -0.31642251071E+02  0.31642251071E+02  0.00000000000E+00 0. -1.
         21    1    1    2  503  501 -0.91254624072E+01 -0.44880937495E+02  0.76351719543E+03  0.76488958702E+03  0.00000000000E+00 0.  1.
         21    1    1    2  504  503  0.61737641321E+02  0.11651168887E+03  0.10505058216E+04  0.10587487857E+04  0.00000000000E+00 0.  1.
         21    1    1    2  505  502 -0.27747368715E+02 -0.25724255663E+02  0.18896859677E+03  0.19271944470E+03  0.00000000000E+00 0.  1.
         21    1    1    2  506  504 -0.24864810199E+02 -0.45906495713E+02  0.23421131543E+01  0.52260411679E+02  0.00000000000E+00 0. -1.
<scales pt_clust_3="79.62012" pt_clust_4="14000.00000" pt_clust_5="37.83720" pt_clust_6="52.73814"></scales>
<clustering>
<clus scale="   37.837">  1  5  2 -1</clus>
<clus scale="   52.738">  2  6  1 -1</clus>
<clus scale="   79.620">  1  3  2 -1</clus>
<clus scale="   37.837">  1  3  2 -1</clus>
</clustering>
</event>
<event>
 6    0  0.6687079E+002  0.6954485E+02  0.7546771E-02  0.1361648E+00
         21   -1    0    0  503  501  0.00000000000E+00  0.00000000000E+00  0.28688261498E+02  0.28688261498E+02  0.00000000000E+00 0.  1.
         21   -1    0    0  505  502 -0.00000000000E+00 -0.00000000000E+00 -0.91575676934E+03  0.91575676934E+03  0.00000000000E+00 0.  1.
         21    1    1    2  503  504 -0.45345148037E+02  0.45666144009E+02 -0.12450022644E+03  0.14014951139E+03  0.00000000000E+00 0.  1.
         21    1    1    2  504  502  0.26089842424E+02 -0.79103996784E+02 -0.38381119270E+03  0.39274566048E+03  0.00000000000E+00 0.  1.
         21    1    1    2  505  506 -0.24770851514E+02  0.56176300261E+02 -0.34768074678E+03  0.35305987237E+03  0.00000000000E+00 0.  1.
         21    1    1    2  506  501  0.44026157128E+02 -0.22738447486E+02 -0.31076341932E+02  0.58489986608E+02  0.00000000000E+00 0.  1.
<scales pt_clust_3="40.51330" pt_clust_4="14000.00000" pt_clust_5="69.54485" pt_clust_6="49.55138"></scales>
<clustering>
<clus scale="   49.551">  1  6  2 -1</clus>
<clus scale="   40.513">  1  3  2 -1</clus>
<clus scale="   69.545">  2  5  1 -1</clus>
<clus scale="   49.551">  1  3  2 -1</clus>
</clustering>
</event>
<event>
 6    0  0.6687079E+002  0.2251136E+03  0.7546771E-02  0.1130127E+00
         21   -1    0    0  504  501  0.00000000000E+00  0.00000000000E+00  0.16155280535E+04  0.16155280535E+04  0.00000000000E+00 0. -1.
         21   -1    0    0  506  502 -0.00000000000E+00 -0.00000000000E+00 -0.22636332559E+03  0.22636332559E+03  0.00000000000E+00 0. -1.
         21    1    1    2  503  502 -0.78446989148E+02  0.19017994308E+03  0.10906867719E+03  0.23284827077E+03  0.00000000000E+00 0. -1.
         21    1    1    2  504  503  0.21748771869E+03 -0.83893826804E+01  0.13434117998E+04  0.13609285629E+04  0.00000000000E+00 0. -1.
         21    1    1    2  505  501 -0.46840008061E+02 -0.10200777889E+03 -0.34931942408E+01  0.11230216256E+03  0.00000000000E+00 0. -1.
         21    1    1    2  506  505 -0.92200721479E+02 -0.79782781505E+02 -0.59822554846E+02  0.13581238285E+03  0.00000000000E+00 0. -1.
<scales pt_clust_3="205.72394" pt_clust_4="213.31742" pt_clust_5="69.00171" pt_clust_6="69.00171"></scales>
<clustering>
<clus scale="   69.002">  5  6 -1 -1</clus>
<clus scale="  205.724">  2  3  1 -1</clus>
<clus scale="  213.317">  1  4  2 -1</clus>
<clus scale="  213.317">  1  3  2 -1</clus>
</clustering>
</event>
<event>
 6    0  0.6687079E+002  0.1290299E+03  0.7546771E-02  0.1228902E+00
         21   -1    0    0  503  501  0.00000000000E+00  0.00000000000E+00  0.92041852368E+03  0.92041852368E+03  0.00000000000E+00 0. -1.
         21   -1    0    0  504  502 -0.00000000000E+00 -0.00000000000E+00 -0.94867273405E+02  0.94867273405E+02  0.00000000000E+00 0. -1.
         21    1    1    2  503  502  0.81299445622E+02 -0.40665286380E+02  0.40524765620E+02  0.99526488954E+02  0.00000000000E+00 0.  1.
         21    1    1    2  504  505  0.58247423022E+02 -0.49831071470E+01 -0.42573271630E+02  0.72319272002E+02  0.00000000000E+00 0. -1.
         21    1    1    2  505  506 -0.10668718134E+03  0.39543307346E+02  0.75489217011E+03  0.76341863765E+03  0.00000000000E+00 0. -1.
         21    1    1    2  506  501 -0.32859687305E+02  0.61050861812E+01  0.72707586168E+02  0.80021398472E+02  0.00000000000E+00 0. -1.
<scales pt_clust_3="14000.00000" pt_clust_4="57.87414" pt_clust_5="129.02985" pt_clust_6="33.42202"></scales>
<clustering>
<clus scale="   33.422">  1  6  2 -1</clus>
<clus scale="   57.874">  2  4  1 -1</clus>
<clus scale="  129.030">  1  5  2 -1</clus>
<clus scale="   33.422">  1  3  2 -1</clus>
</clustering>
</event>
<event>
 6    0  0.6687079E+002  0.1993248E+03  0.7546771E-02  0.1150310E+00
         21   -1    0    0  505  501  0.00000000000E+00  0.00000000000E+00  0.16454984837E+03  0.16454984837E+03  0.00000000000E+00 0. -1.
         21   -1    0    0  503  502 -0.00000000000E+00 -0.00000000000E+00 -0.11641294840E+04  0.11641294840E+04  0.00000000000E+00 0.  1.
         21    1    1    2  503  504 -0.64444763817E+02  0.22466839000E+02 -0.27311805403E+03  0.28151617693E+03  0.00000000000E+00 0.  1.
         21    1    1    2  504  506 -0.11872408447E+02  0.63561503816E+02 -0.53514999974E+03  0.53904224424E+03  0.00000000000E+00 0.  1.
         21    1    1    2  505  502  0.83391831480E+02 -0.17101328899E+03  0.92656139466E+02  0.21162443798E+03  0.00000000000E+00 0. -1.
         21    1    1    2  506  501 -0.70746592157E+01  0.84984946171E+02 -0.28396772129E+03  0.29649647319E+03  0.00000000000E+00 0.  1.
<scales pt_clust_3="68.24871" pt_clust_4="59.98832" pt_clust_5="187.04093" pt_clust_6="59.98832"></scales>
<clustering>
<clus scale="   59.988">  4  6 -1 -1</clus>
<clus scale="   68.249">  2  3  1 -1</clus>
<clus scale="  187.041">  1  5  2 -1</clus>
<clus scale="  187.041">  1  3  2 -1</clus>
</clustering>
</event>
<event>
 6    0  0.6687079E+002  0.6582565E+02  0.7546771E-02  0.1374892E+00
         21   -1    0    0  506  501  0.00000000000E+00  0.00000000000E+00  0.17212712268E+03  0.17212712268E+03  0.00000000000E+00 0.  1.
         21   -1    0    0  505  502 -0.00000000000E+00 -0.00000000000E+00 -0.19718818676E+03  0.19718818676E+03  0.00000000000E+00 0.  1.
         21    1    1    2  503  502 -0.16536034930E+02 -0.46696423924E+02 -0.12537811473E+03  0.13480974784E+03  0.00000000000E+00 0.  1.
         21    1    1    2  504  503  0.57770898464E+02 -0.85472050746E+01  0.95771019801E+01  0.59179830232E+02  0.00000000000E+00 0.  1.
         21    1    1    2  505  501 -0.50176563106E+01 -0.43693397246E+02  0.19285633090E+02  0.48023176502E+02  0.00000000000E+00 0.  1.
         21    1    1    2  506  504 -0.36217207224E+02  0.98937026245E+02  0.71454315582E+02  0.12730255487E+03  0.00000000000E+00 0.  1.
<scales pt_clust_3="50.99864" pt_clust_4="14000.00000" pt_clust_5="43.98056" pt_clust_6="65.82565"></scales>
<clustering>
<clus scale="   43.981">  1  5  2 -1</clus>
<clus scale="   50.999">  2  3  1 -1</clus>
<clus scale="   65.826">  1  6  2 -1</clus>
<clus scale="   43.981">  1  3  2 -1</clus>
</clustering>
</event>
<event>
 6    0  0.6687079E+002  0.1054648E+03  0.7546771E-02  0.1269206E+00
         21   -1    0    0  506  501  0.00000000000E+00  0.00000000000E+00  0.56861494151E+03  0.56861494151E+03  0.00000000000E+00 0.  1.
         21   -1    0    0  505  502 -0.00000000000E+00 -0.00000000000E+00 -0.51377412439E+02  0.51377412439E+02  0.00000000000E+00 0. -1.
         21    1    1    2  503  504  0.28809073987E+02 -0.47206876867E+02  0.43219223748E+02  0.70187985217E+02  0.00000000000E+00 0. -1.
         21    1    1    2  504  501 -0.15812515619E+02  0.87888734732E+02  0.37214448628E+03  0.38270874567E+03  0.00000000000E+00 0.  1.
         21    1    1    2  505  503 -0.19575652000E+01 -0.77664651976E+02  0.10235221852E+03  0.12849749750E+03  0.00000000000E+00 0. -1.
         21    1    1    2  506  502 -0.11038993167E+02  0.36982794111E+02 -0.47839948208E+00  0.38598125557E+02  0.00000000000E+00 0. -1.
<scales pt_clust_3="37.45719" pt_clust_4="95.66534" pt_clust_5="37.45719" pt_clust_6="38.59516"></scales>
<clustering>
<clus scale="   37.457">  3  5 -1 -1</clus>
<clus scale="   38.595">  2  6  1 -1</clus>
<clus scale="   95.665">  1  4  2 -1</clus>
<clus scale="   95.665">  1  3  2 -1</clus>
</clustering>
</event>
<event>
 6    0  0.6687079E+002  0.1649833E+03  0.7546771E-02  0.1183183E+00
         21   -1    0    0  506  501  0.00000000000E+00  0.00000000000E+00  0.19114130453E+03  0.19114130453E+03  0.00000000000E+00 0.  1.
         21   -1    0    0  503  502 -0.00000000000E+00 -0.00000000000E+00 -0.52692006323E+03  0.52692006323E+03  0.00000000000E+00 0.  1.
         21    1    1    2  503  504  0.11031959484E+03  0.96562346660E+02 -0.40475479391E+03  0.43048942262E+03  0.00000000000E+00 0.  1.
         21    1    1    2  504  501  0.57374783469E+02 -0.39401707860E+02 -0.25316576547E+02  0.74062739677E+02  0.00000000000E+00 0. -1.
         21    1    1    2  505  502 -0.33360579166E+02 -0.19269801467E+02  0.57417391474E+02  0.69144850384E+02  0.00000000000E+00 0.  1.
         21    1    1    2  506  505 -0.13433379914E+03 -0.37890837334E+02  0.36875220286E+02  0.14436435508E+03  0.00000000000E+00 0.  1.
<scales pt_clust_3="148.03093" pt_clust_4="69.60144" pt_clust_5="38.27103" pt_clust_6="38.27103"></scales>
<clustering>
<clus scale="   38.271">  5  6 -1 -1</clus>
<clus scale="   69.601">  1  4  2 -1</clus>
<clus scale="  148.031">  2  3  1 -1</clus>
<clus scale="   69.601">  1  3  2 -1</clus>
</clustering>
</event>
<event>
 6    0  0.6687079E+002  0.7466069E+02  0.7546771E-02  0.1344925E+00
         21   -1    0    0  505  501  0.00000000000E+00  0.00000000000E+00  0.28229793306E+02  0.28229793306E+02  0.00000000000E+00 0.  1.
         21   -1    0    0  506  502 -0.00000000000E+00 -0.00000000000E+00 -0.21957723057E+04  0.21957723057E+04  0.00000000000E+00 0.  1.
         21    1    1    2  503  501  0.39071983116E+01 -0.38511973179E+02 -0.70929194614E+02  0.80804634306E+02  0.00000000000E+00 0. -1.
         21    1    1    2  504  503  0.57273665068E+02 -0.70392618319E+02 -0.57915370942E+03  0.58622044707E+03  0.00000000000E+00 0.  1.
         21    1    1    2  505  502 -0.32222330746E+02  0.96591664798E+02 -0.11278354760E+03  0.15194853377E+03  0.00000000000E+00 0.  1.
         21    1    1    2  506  504 -0.28958532633E+02  0.12312926699E+02 -0.14046760608E+04  0.14050284839E+04  0.00000000000E+00 0.  1.
<scales pt_clust_3="37.34797" pt_clust_4="14000.00000" pt_clust_5="74.66069" pt_clust_6="31.46752"></scales>
<clustering>
<clus scale="   31.468">  2  6  1 -1</clus>
<clus scale="   37.348">  1  3  2 -1</clus>
<clus scale="   74.661">  1  5  2 -1</clus>
<clus scale="   37.348">  1  3  2 -1</clus>
</clustering>
</event>
<event>
 6    0  0.6687079E+002  0.6144923E+02  0.7546771E-02  0.1391849E+00
         21   -1    0    0  504  501  0.00000000000E+00  0.00000000000E+00  0.37607481794E+02  0.37607481794E+02  0.00000000000E+00 0.  1.
         21   -1    0    0  506  502 -0.00000000000E+00 -0.00000000000E+00 -0.83336489644E+03  0.83336489644E+03  0.00000000000E+00 0.  1.
         21    1    1    2  503  502  0.38730870845E+02  0.35327288230E+02 -0.25178818420E+03  0.25718745567E+03  0.00000000000E+00 0.  1.
         21    1    1    2  504  503 -0.37720897766E+02 -0.37091099967E+02 -0.22278781084E+02  0.57401741364E+02  0.00000000000E+00 0.  1.
         21    1    1    2  505  501  0.68705864531E+02  0.52330498513E+02 -0.13533088093E+03  0.16054103596E+03  0.00000000000E+00 0.  1.
         21    1    1    2  506  505 -0.69715837610E+02 -0.50566686777E+02 -0.38635956843E+03  0.39584214524E+03  0.00000000000E+00 0.  1.
<scales pt_clust_3="52.42230" pt_clust_4="49.29679" pt_clust_5="14000.00000" pt_clust_6="61.44923"></scales>
<clustering>
<clus scale="   52.422">  2  3  1 -1</clus>
<clus scale="   49.297">  1  4  2 -1</clus>
<clus scale="   61.449">  2  6  1 -1</clus>
<clus scale="   49.297">  1  3  2 -1</clus>
</clustering>
</event>
<event>
 6    0  0.6687079E+002  0.8282177E+02  0.7546771E-02  0.1321229E+00
         21   -1    0    0  504  501  0.00000000000E+00  0.00000000000E+00  0.34275922506E+03  0.34275922506E+03  0.00000000000E+00 0.  1.
         21   -1    0    0  505  502 -0.00000000000E+00 -0.00000000000E+00 -0.13446721431E+03  0.13446721431E+03  0.00000000000E+00 0. -1.
         21    1    1    2  503  501  0.18795035506E+02 -0.30125240094E+02  0.32267138403E+02  0.47978658496E+02  0.00000000000E+00 0.  1.
         21    1    1    2  504  502  0.58773980468E+02  0.72387518240E+02  0.24193326360E+03  0.25927984421E+03  0.00000000000E+00 0.  1.
         21    1    1    2  505  506 -0.57728287197E+02  0.36736497147E+02 -0.54996557234E+02  0.87788078193E+02  0.00000000000E+00 0. -1.
         21    1    1    2  506  503 -0.19840728778E+02 -0.78998775293E+02 -0.10911834022E+02  0.82179858469E+02  0.00000000000E+00 0. -1.
<scales pt_clust_3="35.50751" pt_clust_4="82.82177" pt_clust_5="66.69594" pt_clust_6="14000.00000"></scales>
<clustering>
<clus scale="   35.508">  1  3  2 -1</clus>
<clus scale="   66.696">  2  5  1 -1</clus>
<clus scale="   82.822">  1  4  2 -1</clus>
<clus scale="   35.508">  1  3  2 -1</clus>
</clustering>
</event>
<event>
 6    0  0.6687079E+002  0.1624443E+03  0.7546771E-02  0.1185964E+00
         21   -1    0    0  505  501  0.00000000000E+00  0.00000000000E+00  0.10053202625E+04  0.10053202625E+04  0.00000000000E+00 0. -1.
         21   -1    0    0  504  502 -0.00000000000E+00 -0.00000000000E+00 -0.22587412311E+03  0.22587412311E+03  0.00000000000E+00 0. -1.
         21    1    1    2  503  506  0.91165107881E+02  0.42495455847E+02 -0.57617452130E+02  0.11591682989E+03  0.00000000000E+00 0. -1.
         21    1    1    2  504  501 -0.33303267081E+02 -0.57199426337E+01  0.17304554788E+02  0.37964100917E+02  0.00000000000E+00 0.  1.
         21    1    1    2  505  503 -0.12819677199E+03 -0.84609505599E+02  0.92744931687E+03  0.94008266453E+03  0.00000000000E+00 0. -1.
         21    1    1    2  506  502  0.70334931187E+02  0.47833992385E+02 -0.10769028011E+03  0.13723079029E+03  0.00000000000E+00 0. -1.
<scales pt_clust_3="44.22227" pt_clust_4="33.79091" pt_clust_5="154.50813" pt_clust_6="44.22227"></scales>
<clustering>
<clus scale="   33.791">  2  4  1 -1</clus>
<clus scale="   44.222">  3  6 -1 -1</clus>
<clus scale="  154.508">  1  5  2 -1</clus>
<clus scale="  154.508">  1  3  2 -1</clus>
</clustering>
</event>
<event>
 6    0  0.6687079E+002  0.1094372E+03  0.7546771E-02  0.1261616E+00
         21   -1    0    0  503  501  0.00000000000E+00  0.00000000000E+00  0.15449062968E+04  0.15449062968E+04  0.00000000000E+00 0.  1.
         21   -1    0    0  504  502 -0.00000000000E+00 -0.00000000000E+00 -0.52023699755E+02  0.52023699755E+02  0.00000000000E+00 0.  1.
         21    1    1    2  503  502  0.33258910274E+02  0.66709202414E+02  0.78378875394E+02  0.10816432364E+03  0.00000000000E+00 0.  1.
         21    1    1    2  504  505 -0.87842739012E+02 -0.49820401775E+02  0.67667740288E+02  0.12156209239E+03  0.00000000000E+00 0.  1.
         21    1    1    2  505  506 -0.10350543369E+02 -0.40306417798E+02  0.37404393823E+02  0.55953817930E+02  0.00000000000E+00 0.  1.
         21    1    1    2  506  501  0.64934372107E+02  0.23417617158E+02  0.13094315875E+04  0.13112497626E+04  0.00000000000E+00 0.  1.
<scales pt_clust_3="96.27832" pt_clust_4="33.39874" pt_clust_5="33.39874" pt_clust_6="69.02795"></scales>
<clustering>
<clus scale="   33.399">  4  5 -1 -1</clus>
<clus scale="   69.028">  1  6  2 -1</clus>
<clus scale="   96.278">  2  3  1 -1</clus>
<clus scale="   69.028">  1  3  2 -1</clus>
</clustering>
</event>
<event>
 6    0  0.6687079E+002  0.1136910E+03  0.7546771E-02  0.1253884E+00
         21   -1    0    0  503  501  0.00000000000E+00  0.00000000000E+00  0.37074845016E+02  0.37074845016E+02  0.00000000000E+00 0. -1.
         21   -1    0    0  504  502 -0.00000000000E+00 -0.00000000000E+00 -0.77854567634E+03  0.77854567634E+03  0.00000000000E+00 0. -1.
         21    1    1    2  503  506 -0.63045898217E+02 -0.77550986999E+02 -0.26461671071E+03  0.28286205905E+03  0.00000000000E+00 0. -1.
         21    1    1    2  504  505 -0.53825559457E+02  0.18012049669E+01 -0.22373207173E+03  0.23012273923E+03  0.00000000000E+00 0. -1.
         21    1    1    2  505  501  0.87336019302E+02  0.85540279652E+02 -0.14265528103E+03  0.18787029812E+03  0.00000000000E+00 0. -1.
         21    1    1    2  506  502  0.29535438372E+02 -0.97904976196E+01 -0.11046676786E+03  0.11476542496E+03  0.00000000000E+00 0.  1.
<scales pt_clust_3="113.69095" pt_clust_4="43.78775" pt_clust_5="14000.00000" pt_clust_6="31.11585"></scales>
<clustering>
<clus scale="   31.116">  2  6  1 -1</clus>
<clus scale="   43.788">  2  4  1 -1</clus>
<clus scale="  113.691">  2  3  1 -1</clus>
<clus scale="  113.691">  1  3  2 -1</clus>
</clustering>
</event>
<event>
 6    0  0.6687079E+002  0.1309470E+03  0.7546771E-02  0.1226057E+00
         21   -1    0    0  505  501  0.00000000000E+00  0.00000000000E+00  0.68111093705E+02  0.68111093705E+02  0.00000000000E+00 0. -1.
         21   -1    0    0  503  502 -0.00000000000E+00 -0.00000000000E+00 -0.74424136612E+03  0.74424136612E+03  0.00000000000E+00 0. -1.
         21    1    1    2  503  501  0.86663329240E+02  0.61464025868E+02 -0.29383676281E+03  0.31245544049E+03  0.00000000000E+00 0. -1.
         21    1    1    2  504  502 -0.56439812064E+02 -0.21553989179E+02 -0.16231809918E+03  0.17319697502E+03  0.00000000000E+00 0. -1.
         21    1    1    2  505  506  0.29997319124E+02  0.37226610977E+02  0.31230950516E+02  0.57105446234E+02  0.00000000000E+00 0. -1.
         21    1    1    2  506  504 -0.60220836299E+02 -0.77136647666E+02 -0.25120636094E+03  0.26959459808E+03  0.00000000000E+00 0. -1.
<scales pt_clust_3="124.23672" pt_clust_4="32.51376" pt_clust_5="47.80857" pt_clust_6="32.51376"></scales>
<clustering>
<clus scale="   32.514">  4  6 -1 -1</clus>
<clus scale="   47.809">  1  5  2 -1</clus>
<clus scale="  124.237">  2  3  1 -1</clus>
<clus scale="   47.809">  1  3  2 -1</clus>
</clustering>
</event>
<event>
 6    0  0.6687079E+002  0.1709622E+03  0.7546771E-02  0.1176848E+00
         21   -1    0    0  503  501  0.00000000000E+00  0.00000000000E+00  0.26651571234E+04  0.26651571234E+04  0.00000000000E+00 0. -1.
         21   -1    0    0  506  502 -0.00000000000E+00 -0.00000000000E+00 -0.93730968462E+02  0.93730968462E+02  0.00000000000E+00 0.  1.
         21    1    1    2  503  502  0.31206376624E+02 -0.48593698583E+02 -0.51295180999E+02  0.77242352875E+02  0.00000000000E+00 0.  1.
         21    1    1    2  504  505  0.61671766597E+02  0.50202380201E+02  0.16823404606E+03  0.18608164882E+03  0.00000000000E+00 0.  1.
         21    1    1    2  505  501 -0.15549658953E+03 -0.19992495791E+02  0.24133121813E+04  0.24183991758E+04  0.00000000000E+00 0. -1.
         21    1    1    2  506  504  0.62618446309E+02  0.18383814173E+02  0.41175108617E+02  0.77164914380E+02  0.00000000000E+00 0.  1.
<scales pt_clust_3="57.75106" pt_clust_4="71.43949" pt_clust_5="154.70504" pt_clust_6="71.43949"></scales>
<clustering>
<clus scale="   57.751">  2  3  1 -1</clus>
<clus scale="   71.439">  4  6 -1 -1</clus>
<clus scale="  154.705">  1  5  2 -1</clus>
<clus scale="  154.705">  1  3  2 -1</clus>
</clustering>
</event>
<event>
 6    0  0.6687079E+002  0.7450163E+02  0.7546771E-02  0.1345421E+00
         21   -1    0    0  503  501  0.00000000000E+00  0.00000000000E+00  0.78867922858E+03  0.78867922858E+03  0.00000000000E+00 0.  1.
         21   -1    0    0  504  502 -0.00000000000E+00 -0.00000000000E+00 -0.11107709013E+03  0.11107709013E+03  0.00000000000E+00 0.  1.
         21    1    1    2  503  505 -0.88512077184E+01  0.79004924624E+02  0.42527189765E+03  0.43263877418E+03  0.00000000000E+00 0.  1.
         21    1    1    2  504  501  0.45801919301E+02  0.17764165184E+01  0.15585490294E+03  0.16245529304E+03  0.00000000000E+00 0.  1.
         21    1    1    2  505  506  0.23876225017E+02 -0.67099543166E+02  0.18394234251E+03  0.19724910185E+03  0.00000000000E+00 0.  1.
         21    1    1    2  506  502 -0.60826936599E+02 -0.13681797977E+02 -0.87467004647E+02  0.10741314963E+03  0.00000000000E+00 0.  1.
<scales pt_clust_3="74.50163" pt_clust_4="45.83636" pt_clust_5="14000.00000" pt_clust_6="61.63272"></scales>
<clustering>
<clus scale="   45.836">  1  4  2 -1</clus>
<clus scale="   61.633">  2  6  1 -1</clus>
<clus scale="   74.502">  1  3  2 -1</clus>
<clus scale="   45.836">  1  3  2 -1</clus>
</clustering>
</event>
<event>
 6    0  0.6687079E+002  0.1013274E+03  0.7546771E-02  0.1277529E+00
         21   -1    0    0  503  501  0.00000000000E+00  0.00000000000E+00  0.16555093278E+04  0.16555093278E+04  0.00000000000E+00 0.  1.
         21   -1    0    0  504  502 -0.00000000000E+00 -0.00000000000E+00 -0.57125836130E+02  0.57125836130E+02  0.00000000000E+00 0.  1.
         21    1    1    2  503  505  0.45719094636E+02  0.91889536341E+02  0.14469864246E+04  0.14506218100E+04  0.00000000000E+00 0.  1.
         21    1    1    2  504  501 -0.29816795338E+02 -0.77193995825E+02  0.38810506594E+02  0.91401365951E+02  0.00000000000E+00 0.  1.
         21    1    1    2  505  506 -0.41683305931E+02 -0.34849165516E+02  0.12445896824E+03  0.13580131481E+03  0.00000000000E+00 0.  1.
         21    1    1    2  506  502  0.25781006632E+02  0.20153625000E+02 -0.11872407767E+02  0.34810673217E+02  0.00000000000E+00 0.  1.
<scales pt_clust_3="101.32743" pt_clust_4="14000.00000" pt_clust_5="48.84215" pt_clust_6="32.72352"></scales>
<clustering>
<clus scale="   32.724">  2  6  1 -1</clus>
<clus scale="   48.842">  2  5  1 -1</clus>
<clus scale="  101.327">  1  3  2 -1</clus>
<clus scale="  101.327">  1  3  2 -1</clus>
</clustering>
</event>
<event>
 6    0  0.6687079E+002  0.9358182E+02  0.7546771E-02  0.1294403E+00
         21   -1    0    0  505  501  0.00000000000E+00  0.00000000000E+00  0.11489157496E+03  0.11489157496E+03  0.00000000000E+00 0.  1.
         21   -1    0    0  504  502 -0.00000000000E+00 -0.00000000000E+00 -0.23990787884E+03  0.23990787884E+03  0.00000000000E+00 0.  1.
         21    1    1    2  503  502 -0.82557417677E+01  0.69864002038E+02 -0.72223518045E+02  0.10082347252E+03  0.00000000000E+00 0.  1.
         21    1    1    2  504  501 -0.73144404657E+02  0.13837152624E+02  0.50176224694E+02  0.89773182242E+02  0.00000000000E+00 0.  1.
         21    1    1    2  505  506  0.39486696384E+02 -0.58739844719E+02 -0.88494554055E+02  0.11331749488E+03  0.00000000000E+00 0.  1.
         21    1    1    2  506  503  0.41913450041E+02 -0.24961309944E+02 -0.14474456477E+02  0.50885304153E+02  0.00000000000E+00 0.  1.
<scales pt_clust_3="70.35010" pt_clust_4="77.64974" pt_clust_5="43.36241" pt_clust_6="43.36241"></scales>
<clustering>
<clus scale="   43.362">  5  6 -1 -1</clus>
<clus scale="   70.350">  2  3  1 -1</clus>
<clus scale="   77.650">  1  4  2 -1</clus>
<clus scale="   77.650">  1  3  2 -1</clus>
</clustering>
</event>
<event>
 6    0  0.6687079E+002  0.7538529E+02  0.7546771E-02  0.1342682E+00
         21   -1    0    0  505  501  0.00000000000E+00  0.00000000000E+00  0.15026795559E+03  0.15026795559E+03  0.00000000000E+00 0. -1.
         21   -1    0    0  504  502 -0.00000000000E+00 -0.00000000000E+00 -0.22139710335E+03  0.22139710335E+03  0.00000000000E+00 0. -1.
         21    1    1    2  503  502 -0.23243363977E+02 -0.76906600278E+02 -0.14578691262E+03  0.16645931342E+03  0.00000000000E+00 0. -1.
         21    1    1    2  504  501 -0.18683460084E+02 -0.39041570251E+02 -0.41793032328E+01  0.43483128497E+02  0.00000000000E+00 0. -1.
         21    1    1    2  505  506  0.35348271465E+02  0.55314779890E+02  0.76339335389E+02  0.10068226903E+03  0.00000000000E+00 0. -1.
         21    1    1    2  506  503  0.65785525964E+01  0.60633390639E+02  0.24977327007E+01  0.61040347995E+02  0.00000000000E+00 0. -1.
<scales pt_clust_3="75.38529" pt_clust_4="43.28182" pt_clust_5="36.70894" pt_clust_6="14000.00000"></scales>
<clustering>
<clus scale="   43.282">  1  4  2 -1</clus>
<clus scale="   36.709">  1  5  2 -1</clus>
<clus scale="   75.385">  2  3  1 -1</clus>
<clus scale="   43.282">  1  3  2 -1</clus>
</clustering>
</event>
<event>
 6    0  0.6687079E+002  0.7470421E+02  0.7546771E-02  0.1344789E+00
         21   -1    0    0  505  501  0.00000000000E+00  0.00000000000E+00  0.13347652107E+03  0.13347652107E+03  0.00000000000E+00 0.  1.
         21   -1    0    0  503  502 -0.00000000000E+00 -0.00000000000E+00 -0.96567395462E+03  0.96567395462E+03  0.00000000000E+00 0.  1.
         21    1    1    2  503  504  0.69248458393E+02 -0.28650817709E+02 -0.92953284100E+02  0.11940071763E+03  0.00000000000E+00 0.  1.
         21    1    1    2  504  501 -0.51994039775E+02  0.54640432490E+02  0.88136841615E+02  0.11600456838E+03  0.00000000000E+00 0.  1.
         21    1    1    2  505  506 -0.14351685165E+02 -0.64789481182E+02 -0.44503059384E+02  0.79901001454E+02  0.00000000000E+00 0.  1.
         21    1    1    2  506  502 -0.29027334531E+01  0.38799866401E+02 -0.78287793169E+03  0.78384418823E+03  0.00000000000E+00 0.  1.
<scales pt_clust_3="74.70421" pt_clust_4="14000.00000" pt_clust_5="53.78614" pt_clust_6="38.90830"></scales>
<clustering>
<clus scale="   38.908">  2  6  1 -1</clus>
<clus scale="   53.786">  2  5  1 -1</clus>
<clus scale="   74.704">  2  3  1 -1</clus>
<clus scale="   74.704">  1  3  2 -1</clus>
</clustering>
</event>
<event>
 6    0  0.6687079E+002  0.9571664E+02  0.7546771E-02  0.1289570E+00
         21   -1    0    0  505  501  0.00000000000E+00  0.00000000000E+00  0.30358106438E+02  0.30358106438E+02  0.00000000000E+00 0.  1.
         21   -1    0    0  506  502 -0.00000000000E+00 -0.00000000000E+00 -0.86630650193E+03  0.86630650193E+03  0.00000000000E+00 0.  1.
         21    1    1    2  503  501  0.80356843766E+02  0.45320489324E+02 -0.16911929956E+03  0.19264606556E+03  0.00000000000E+00 0.  1.
         21    1    1    2  504  502 -0.11213317088E+03  0.10084359520E+02 -0.29437856258E+03  0.31517341326E+03  0.00000000000E+00 0.  1.
         21    1    1    2  505  504  0.68262867678E+01 -0.30559158573E+02 -0.26253380911E+02  0.40861967316E+02  0.00000000000E+00 0. -1.
         21    1    1    2  506  503  0.24950040347E+02 -0.24845690271E+02 -0.34619715245E+03  0.34798316224E+03  0.00000000000E+00 0.  1.
<scales pt_clust_3="95.71664" pt_clust_4="14000.00000" pt_clust_5="31.31230" pt_clust_6="36.23948"></scales>
<clustering>
<clus scale="   31.312">  1  5  2 -1</clus>
<clus scale="   36.239">  2  6  1 -1</clus>
<clus scale="   95.717">  1  3  2 -1</clus>
<clus scale="   31.312">  1  3  2 -1</clus>
</clustering>
</event>
<event>
 6    0  0.6687079E+002  0.1237771E+03  0.7546771E-02  0.1236993E+00
         21   -1    0    0  503  501  0.00000000000E+00  0.00000000000E+00  0.35453052489E+03  0.35453052489E+03  0.00000000000E+00 0.  1.
         21   -1    0    0  504  502 -0.00000000000E+00 -0.00000000000E+00 -0.63212256436E+03  0.63212256436E+03  0.00000000000E+00 0. -1.
         21    1    1    2  503  502 -0.44811817592E+02  0.15596969874E+02  0.30279881716E+03  0.30649386313E+03  0.00000000000E+00 0.  1.
         21    1    1    2  504  506 -0.57454000355E+02 -0.46404644250E+02 -0.31871665798E+03  0.32716152163E+03  0.00000000000E+00 0. -1.
         21    1    1    2  505  501  0.10355234319E+03  0.79204922566E+02 -0.56323599361E+02  0.14201709539E+03  0.00000000000E+00 0. -1.
         21    1    1    2  506  505 -0.12865252430E+01 -0.48397248191E+02 -0.20535059930E+03  0.21098060909E+03  0.00000000000E+00 0. -1.
<scales pt_clust_3="47.44855" pt_clust_4="40.58487" pt_clust_5="113.17313" pt_clust_6="40.58487"></scales>
<clustering>
<clus scale="   40.585">  4  6 -1 -1</clus>
<clus scale="   47.449">  1  3  2 -1</clus>
<clus scale="  113.173">  1  5  2 -1</clus>
<clus scale="   47.449">  1  3  2 -1</clus>
</clustering>
</event>
<event>
 6    0  0.6687079E+002  0.1511182E+03  0.7546771E-02  0.1199106E+00
         21   -1    0    0  506  501  0.00000000000E+00  0.00000000000E+00  0.40262252495E+03  0.40262252495E+03  0.00000000000E+00 0.  1.
         21   -1    0    0  505  502 -0.00000000000E+00 -0.00000000000E+00 -0.89506421770E+02  0.89506421770E+02  0.00000000000E+00 0.  1.
         21    1    1    2  503  502 -0.11712037947E+03  0.47650696933E+02  0.10421725483E+03  0.16385667033E+03  0.00000000000E+00 0.  1.
         21    1    1    2  504  501  0.64018681222E+02 -0.52359384915E+02  0.62379214726E+02  0.10359084498E+03  0.00000000000E+00 0.  1.
         21    1    1    2  505  504  0.65819039909E+02 -0.41106009373E+02  0.77433981386E+01  0.77985961787E+02  0.00000000000E+00 0.  1.
         21    1    1    2  506  503 -0.12717341657E+02  0.45814697355E+02  0.13877623549E+03  0.14669546962E+03  0.00000000000E+00 0.  1.
<scales pt_clust_3="142.74937" pt_clust_4="49.18641" pt_clust_5="49.18641" pt_clust_6="47.54700"></scales>
<clustering>
<clus scale="   47.547">  1  6  2 -1</clus>
<clus scale="   49.186">  4  5 -1 -1</clus>
<clus scale="  142.749">  1  3  2 -1</clus>
<clus scale="   47.547">  1  3  2 -1</clus>
</clustering>
</event>
<event>
 6    0  0.6687079E+002  0.1899846E+03  0.7546771E-02  0.1158475E+00
         21   -1    0    0  503  501  0.00000000000E+00  0.00000000000E+00  0.44067473300E+03  0.44067473300E+03  0.00000000000E+00 0.  1.
         21   -1    0    0  505  502 -0.00000000000E+00 -0.00000000000E+00 -0.14382565391E+03  0.14382565391E+03  0.00000000000E+00 0. -1.
         21    1    1    2  503  506  0.48736985226E+02  0.35899024979E+02  0.14986782992E+03  0.16163044319E+03  0.00000000000E+00 0.  1.
         21    1    1    2  504  501 -0.81768041256E+02 -0.12716341833E+03 -0.19319596696E+02  0.15241323548E+03  0.00000000000E+00 0. -1.
         21    1    1    2  505  504 -0.32486029201E+02 -0.84431604590E+01 -0.27152070179E+02  0.43172490857E+02  0.00000000000E+00 0. -1.
         21    1    1    2  506  502  0.65517085230E+02  0.99707553809E+02  0.19345291605E+03  0.22728421739E+03  0.00000000000E+00 0.  1.
<scales pt_clust_3="31.39210" pt_clust_4="32.13415" pt_clust_5="32.13415" pt_clust_6="182.71694"></scales>
<clustering>
<clus scale="   31.392">  3  6 -1 -1</clus>
<clus scale="   32.134">  4  5 -1 -1</clus>
<clus scale="  182.717">  1  3  2 -1</clus>
<clus scale="  182.717">  1  3  2 -1</clus>
</clustering>
</event>
<event>
 6    0  0.6687079E+002  0.9997119E+02  0.7546771E-02  0.1280357E+00
         21   -1    0    0  505  501  0.00000000000E+00  0.00000000000E+00  0.11389412035E+03  0.11389412035E+03  0.00000000000E+00 0. -1.
         21   -1    0    0  506  502 -0.00000000000E+00 -0.00000000000E+00 -0.53038654438E+03  0.53038654438E+03  0.00000000000E+00 0. -1.
         21    1    1    2  503  502  0.75531924078E+01 -0.30120547262E+02 -0.19388717649E+03  0.19635818111E+03  0.00000000000E+00 0. -1.
         21    1    1    2  504  501  0.18391746161E+01  0.80663366015E+02 -0.85910101789E+02  0.11785799408E+03  0.00000000000E+00 0.  1.
         21    1    1    2  505  503 -0.31822213906E+02 -0.10166523117E+03  0.62284925490E+02  0.12340131470E+03  0.00000000000E+00 0. -1.
         21    1    1    2  506  504  0.22429846882E+02  0.51122412419E+02 -0.19898007124E+03  0.20666317484E+03  0.00000000000E+00 0. -1.
<scales pt_clust_3="31.05315" pt_clust_4="99.97119" pt_clust_5="14000.00000" pt_clust_6="42.56068"></scales>
<clustering>
<clus scale="   31.053">  2  3  1 -1</clus>
<clus scale="   42.561">  2  6  1 -1</clus>
<clus scale="   99.971">  2  4  1 -1</clus>
<clus scale="   99.971">  1  3  2 -1</clus>
</clustering>
</event>
<event>
 6    0  0.6687079E+002  0.9497008E+02  0.7546771E-02  0.1291243E+00
         21   -1    0    0  505  501  0.00000000000E+00  0.00000000000E+00  0.24062222565E+03  0.24062222565E+03  0.00000000000E+00 0. -1.
         21   -1    0    0  503  502 -0.00000000000E+00 -0.00000000000E+00 -0.18499798219E+03  0.18499798219E+03  0.00000000000E+00 0.  1.
         21    1    1    2  503  504  0.18857352828E+02 -0.41000694429E+02 -0.74884346019E+02  0.87431813306E+02  0.00000000000E+00 0.  1.
         21    1    1    2  504  501  0.46284064541E+02 -0.65387758327E+02  0.17975348425E+03  0.19679707485E+03  0.00000000000E+00 0. -1.
         21    1    1    2  505  506 -0.60555965007E+02  0.66203890496E+02 -0.21253854707E+02  0.92204698116E+02  0.00000000000E+00 0.  1.
         21    1    1    2  506  502 -0.45854523621E+01  0.40184562260E+02 -0.27991040069E+02  0.49186621571E+02  0.00000000000E+00 0.  1.
<scales pt_clust_3="45.12933" pt_clust_4="83.75427" pt_clust_5="30.06026" pt_clust_6="30.06026"></scales>
<clustering>
<clus scale="   30.060">  5  6 -1 -1</clus>
<clus scale="   45.129">  2  3  1 -1</clus>
<clus scale="   83.754">  1  4  2 -1</clus>
<clus scale="   83.754">  1  3  2 -1</clus>
</clustering>
</event>
<event>
 6    0  0.6687079E+002  0.1101400E+03  0.7546771E-02  0.1260311E+00
         21   -1    0    0  505  501  0.00000000000E+00  0.00000000000E+00  0.10649936849E+04  0.10649936849E+04  0.00000000000E+00 0.  1.
         21   -1    0    0  501  502 -0.00000000000E+00 -0.00000000000E+00 -0.47436802161E+02  0.47436802161E+02  0.00000000000E+00 0. -1.
         21    1    1    2  503  502  0.20666742050E+02 -0.96769822275E+02  0.35990667307E+02  0.10529406851E+03  0.00000000000E+00 0. -1.
         21    1    1    2  504  503 -0.16297215336E+02  0.59970296219E+02  0.16203724913E+03  0.17354568782E+03  0.00000000000E+00 0.  1.
         21    1    1    2  505  506  0.49024349627E+02  0.56792794723E+00  0.65543094871E+03  0.65726207704E+03  0.00000000000E+00 0.  1.
         21    1    1    2  506  504 -0.53393876341E+02  0.36231598109E+02  0.16409801763E+03  0.17632865371E+03  0.00000000000E+00 0.  1.
<scales pt_clust_3="100.96849" pt_clust_4="43.18271" pt_clust_5="49.02764" pt_clust_6="43.18271"></scales>
<clustering>
<clus scale="   43.183">  4  6 -1 -1</clus>
<clus scale="   49.028">  1  5  2 -1</clus>
<clus scale="  100.968">  2  3  1 -1</clus>
<clus scale="   49.028">  1  3  2 -1</clus>
</clustering>
</event>
<event>
 6    0  0.6687079E+002  0.1814255E+03  0.7546771E-02  0.1166431E+00
         21   -1    0    0  502  501  0.00000000000E+00  0.00000000000E+00  0.93761481194E+02  0.93761481194E+02  0.00000000000E+00 0. -1.
         21   -1    0    0  506  502 -0.00000000000E+00 -0.00000000000E+00 -0.11330499885E+04  0.11330499885E+04  0.00000000000E+00 0.  1.
         21    1    1    2  503  504  0.46518002867E+02 -0.13574038710E+02 -0.10805926639E+03  0.11842712599E+03  0.00000000000E+00 0.  1.
         21    1    1    2  504  501 -0.11851272632E+03  0.12029467740E+03 -0.27903158176E+01  0.16889008726E+03  0.00000000000E+00 0. -1.
         21    1    1    2  505  503  0.73246819589E+02 -0.76030647425E+02 -0.56643035615E+03  0.57618495667E+03  0.00000000000E+00 0.  1.
         21    1    1    2  506  505 -0.12520961330E+01 -0.30689991268E+02 -0.36200856895E+03  0.36330929977E+03  0.00000000000E+00 0.  1.
<scales pt_clust_3="45.86093" pt_clust_4="166.54770" pt_clust_5="45.86093" pt_clust_6="30.71552"></scales>
<clustering>
<clus scale="   30.716">  2  6  1 -1</clus>
<clus scale="   45.861">  3  5 -1 -1</clus>
<clus scale="  166.548">  1  4  2 -1</clus>
<clus scale="  166.548">  1  3  2 -1</clus>
</clustering>
</event>
<event>
 6    0  0.6687079E+002  0.1259095E+03  0.7546771E-02  0.1233655E+00
         21   -1    0    0  502  501  0.00000000000E+00  0.00000000000E+00  0.17640589140E+03  0.17640589140E+03  0.00000000000E+00 0. -1.
         21   -1    0    0  504  502 -0.00000000000E+00 -0.00000000000E+00 -0.98064682304E+03  0.98064682304E+03  0.00000000000E+00 0. -1.
         21    1    1    2  503  505  0.14850006804E+03 -0.28290382773E+02 -0.22742751808E+03  0.27308586918E+03  0.00000000000E+00 0.  1.
         21    1    1    2  504  506 -0.43124951663E+02 -0.11852659800E+02 -0.36566276766E+03  0.36838771241E+03  0.00000000000E+00 0. -1.
         21    1    1    2  505  501 -0.38274657364E+02  0.15869093210E+02  0.14579639453E+03  0.15156967432E+03  0.00000000000E+00 0. -1.
         21    1    1    2  506  503 -0.67100459014E+02  0.24273949363E+02 -0.35694704043E+03  0.36400945852E+03  0.00000000000E+00 0. -1.
<scales pt_clust_3="117.96799" pt_clust_4="34.84113" pt_clust_5="41.43401" pt_clust_6="34.84113"></scales>
<clustering>
<clus scale="   34.841">  4  6 -1 -1</clus>
<clus scale="   41.434">  1  5  2 -1</clus>
<clus scale="  117.968">  1  3  2 -1</clus>
<clus scale="   41.434">  1  3  2 -1</clus>
</clustering>
</event>
<event>
 6    0  0.6687079E+002  0.8863999E+02  0.7546771E-02  0.1306179E+00
         21   -1    0    0  504  501  0.00000000000E+00  0.00000000000E+00  0.51655686559E+03  0.51655686559E+03  0.00000000000E+00 0.  1.
         21   -1    0    0  505  502 -0.00000000000E+00 -0.00000000000E+00 -0.57657932531E+02  0.57657932531E+02  0.00000000000E+00 0.  1.
         21    1    1    2  503  502 -0.11289319975E+02 -0.50767947727E+02 -0.76721539928E+01  0.52570858931E+02  0.00000000000E+00 0.  1.
         21    1    1    2  504  503  0.28223369394E+02  0.11708521948E+03  0.36717794753E+03  0.38642612794E+03  0.00000000000E+00 0.  1.
         21    1    1    2  505  506 -0.39162498544E+02 -0.45667325741E+02  0.55437320359E+02  0.81807716147E+02  0.00000000000E+00 0. -1.
         21    1    1    2  506  501  0.22228449125E+02 -0.20649946012E+02  0.43955819157E+02  0.53410095099E+02  0.00000000000E+00 0.  1.
<scales pt_clust_3="52.75865" pt_clust_4="14000.00000" pt_clust_5="88.63999" pt_clust_6="30.34014"></scales>
<clustering>
<clus scale="   30.340">  1  6  2 -1</clus>
<clus scale="   52.759">  2  3  1 -1</clus>
<clus scale="   88.640">  2  5  1 -1</clus>
<clus scale="   30.340">  1  3  2 -1</clus>
</clustering>
</event>
<event>
 6    0  0.6687079E+002  0.8577542E+02  0.7546771E-02  0.1313417E+00
         21   -1    0    0  506  501  0.00000000000E+00  0.00000000000E+00  0.51407994951E+03  0.51407994951E+03  0.00000000000E+00 0. -1.
         21   -1    0    0  505  502 -0.00000000000E+00 -0.00000000000E+00 -0.10315755031E+04  0.10315755031E+04  0.00000000000E+00 0. -1.
         21    1    1    2  503  502  0.79718728203E+01 -0.63671581035E+02 -0.18279008888E+03  0.19372619229E+03  0.00000000000E+00 0. -1.
         21    1    1    2  504  501  0.39014334775E+02  0.29204411129E+02 -0.20652501607E+02  0.52929592574E+02  0.00000000000E+00 0. -1.
         21    1    1    2  505  504 -0.87281387637E+02  0.42110145134E+02 -0.80275318137E+03  0.80858145858E+03  0.00000000000E+00 0. -1.
         21    1    1    2  506  503  0.40295180041E+02 -0.76429752285E+01  0.48870021823E+03  0.49041820919E+03  0.00000000000E+00 0. -1.
<scales pt_clust_3="67.53942" pt_clust_4="14000.00000" pt_clust_5="85.77542" pt_clust_6="41.01361"></scales>
<clustering>
<clus scale="   41.014">  1  6  2 -1</clus>
<clus scale="   67.539">  1  3  2 -1</clus>
<clus scale="   85.775">  2  5  1 -1</clus>
<clus scale="   41.014">  1  3  2 -1</clus>
</clustering>
</event>
<event>
 6    0  0.6687079E+002  0.1054750E+03  0.7546771E-02  0.1269187E+00
         21   -1    0    0  503  501  0.00000000000E+00  0.00000000000E+00  0.29256703904E+03  0.29256703904E+03  0.00000000000E+00 0.  1.
         21   -1    0    0  505  502 -0.00000000000E+00 -0.00000000000E+00 -0.11287528074E+03  0.11287528074E+03  0.00000000000E+00 0.  1.
         21    1    1    2  503  506 -0.30619440626E+02 -0.14631261039E+02  0.11124923790E+02  0.35712573041E+02  0.00000000000E+00 0.  1.
         21    1    1    2  504  501  0.90473119304E+02  0.14867130758E+02  0.19386095910E+03  0.21444926756E+03  0.00000000000E+00 0.  1.
         21    1    1    2  505  504 -0.11213904339E+01  0.56938311100E+02  0.21529814758E+02  0.60883180854E+02  0.00000000000E+00 0.  1.
         21    1    1    2  506  502 -0.58732288244E+02 -0.57174180818E+02 -0.46823939344E+02  0.94397298321E+02  0.00000000000E+00 0.  1.
<scales pt_clust_3="32.26483" pt_clust_4="92.79317" pt_clust_5="56.94935" pt_clust_6="32.26483"></scales>
<clustering>
<clus scale="   32.265">  3  6 -1 -1</clus>
<clus scale="   56.949">  2  5  1 -1</clus>
<clus scale="   92.793">  1  4  2 -1</clus>
<clus scale="   92.793">  1  3  2 -1</clus>
</clustering>
</event>
<event>
 6    0  0.6687079E+002  0.8527577E+02  0.7546771E-02  0.1314713E+00
         21   -1    0    0  503  501  0.00000000000E+00  0.00000000000E+00  0.59503623475E+03  0.59503623475E+03  0.00000000000E+00 0.  1.
         21   -1    0    0  506  502 -0.00000000000E+00 -0.00000000000E+00 -0.16125050151E+03  0.16125050151E+03  0.00000000000E+00 0.  1.
         21    1    1    2  503  504 -0.10105478068E+03 -0.62822124392E+02  0.39868213226E+03  0.41606024876E+03  0.00000000000E+00 0.  1.
         21    1    1    2  504  502  0.31751067879E+02  0.78740888282E+02 -0.12495573824E+03  0.15107016356E+03  0.00000000000E+00 0.  1.
         21    1    1    2  505  501  0.21615960953E+02  0.27667101673E+02  0.43619592189E+02  0.55994527462E+02  0.00000000000E+00 0. -1.
         21    1    1    2  506  505  0.47687751846E+02 -0.43585865564E+02  0.11643974704E+03  0.13316179648E+03  0.00000000000E+00 0.  1.
<scales pt_clust_3="14000.00000" pt_clust_4="85.27577" pt_clust_5="35.11009" pt_clust_6="64.48478"></scales>
<clustering>
<clus scale="   35.110">  1  5  2 -1</clus>
<clus scale="   64.485">  1  6  2 -1</clus>
<clus scale="   85.276">  2  4  1 -1</clus>
<clus scale="   35.110">  1  3  2 -1</clus>
</clustering>
</event>
<event>
 6    0  0.6687079E+002  0.2890839E+03  0.7546771E-02  0.1090828E+00
         21   -1    0    0  503  501  0.00000000000E+00  0.00000000000E+00  0.47132469589E+03  0.47132469589E+03  0.00000000000E+00 0. -1.
         21   -1    0    0  504  502 -0.00000000000E+00 -0.00000000000E+00 -0.57206605486E+03  0.57206605486E+03  0.00000000000E+00 0.  1.
         21    1    1    2  503  505 -0.82729981261E+02  0.36641320138E+02  0.13942236346E+03  0.16620899968E+03  0.00000000000E+00 0. -1.
         21    1    1    2  504  506  0.24954351444E+03 -0.95505844169E+02 -0.45963271861E+03  0.53165361646E+03  0.00000000000E+00 0.  1.
         21    1    1    2  505  502 -0.18957002255E+03  0.30356954599E+02  0.91901199926E+02  0.21284775942E+03  0.00000000000E+00 0. -1.
         21    1    1    2  506  501  0.22756489366E+02  0.28507569432E+02  0.12756779625E+03  0.13268037520E+03  0.00000000000E+00 0. -1.
<scales pt_clust_3="74.08152" pt_clust_4="268.38802" pt_clust_5="74.08152" pt_clust_6="36.47656"></scales>
<clustering>
<clus scale="   36.477">  1  6  2 -1</clus>
<clus scale="   74.082">  3  5 -1 -1</clus>
<clus scale="  268.388">  2  4  1 -1</clus>
<clus scale="   36.477">  1  3  2 -1</clus>
</clustering>
</event>
<event>
 6    0  0.6687079E+002  0.1161552E+03  0.7546771E-02  0.1249578E+00
         21   -1    0    0  502  501  0.00000000000E+00  0.00000000000E+00  0.18267988478E+03  0.18267988478E+03  0.00000000000E+00 0.  1.
         21   -1    0    0  504  502 -0.00000000000E+00 -0.00000000000E+00 -0.14566334371E+04  0.14566334371E+04  0.00000000000E+00 0. -1.
         21    1    1    2  503  506 -0.60038313359E+02  0.81196760638E+02 -0.75288316041E+02  0.12595969014E+03  0.00000000000E+00 0.  1.
         21    1    1    2  504  505  0.44206825813E+02 -0.41338900303E+02 -0.25676577688E+03  0.26380260102E+03  0.00000000000E+00 0. -1.
         21    1    1    2  505  503  0.76594851072E+02 -0.98907544274E+01 -0.10868278153E+04  0.10895684000E+04  0.00000000000E+00 0. -1.
         21    1    1    2  506  501 -0.60763363526E+02 -0.29967105908E+02  0.14492835589E+03  0.15998263070E+03  0.00000000000E+00 0.  1.
<scales pt_clust_3="116.15517" pt_clust_4="60.52395" pt_clust_5="14000.00000" pt_clust_6="67.61765"></scales>
<clustering>
<clus scale="   60.524">  2  4  1 -1</clus>
<clus scale="   67.618">  1  6  2 -1</clus>
<clus scale="  116.155">  1  3  2 -1</clus>
<clus scale="   67.618">  1  3  2 -1</clus>
</clustering>
</event>
<event>
 6    0  0.6687079E+002  0.8304571E+02  0.7546771E-02  0.1320624E+00
         21   -1    0    0  504  501  0.00000000000E+00  0.00000000000E+00  0.27709710190E+04  0.27709710190E+04  0.00000000000E+00 0. -1.
         21   -1    0    0  505  502 -0.00000000000E+00 -0.00000000000E+00 -0.34157471935E+03  0.34157471935E+03  0.00000000000E+00 0. -1.
         21    1    1    2  503  506 -0.41151860438E+02 -0.15434578657E+02 -0.23318718549E+02  0.49754039742E+02  0.00000000000E+00 0. -1.
         21    1    1    2  504  503 -0.54690052886E+02  0.18744188411E+01  0.10343125628E+04  0.10357591385E+04  0.00000000000E+00 0. -1.
         21    1    1    2  505  501  0.13385348606E+03  0.28755019090E+02  0.17186061545E+04  0.17240506724E+04  0.00000000000E+00 0. -1.
         21    1    1    2  506  502 -0.38011572732E+02 -0.15194859274E+02 -0.30020369903E+03  0.30298188778E+03  0.00000000000E+00 0. -1.
<scales pt_clust_3="14000.00000" pt_clust_4="55.40079" pt_clust_5="83.04571" pt_clust_6="40.93609"></scales>
<clustering>
<clus scale="   40.936">  2  6  1 -1</clus>
<clus scale="   55.401">  1  4  2 -1</clus>
<clus scale="   83.046">  1  5  2 -1</clus>
<clus scale="   55.401">  1  3  2 -1</clus>
</clustering>
</event>
<event>
 6    0  0.6687079E+002  0.7428809E+02  0.7546771E-02  0.1346090E+00
         21   -1    0    0  504  501  0.00000000000E+00  0.00000000000E+00  0.52589012543E+03  0.52589012543E+03  0.00000000000E+00 0. -1.
         21   -1    0    0  505  502 -0.00000000000E+00 -0.00000000000E+00 -0.13878472853E+03  0.13878472853E+03  0.00000000000E+00 0. -1.
         21    1    1    2  503  502 -0.54931724600E+01  0.36238061214E+02  0.11546293186E+02  0.38427710192E+02  0.00000000000E+00 0. -1.
         21    1    1    2  504  506  0.21901997116E+02  0.51948776542E+02  0.43318881601E+03  0.43684198880E+03  0.00000000000E+00 0. -1.
         21    1    1    2  505  501 -0.79078098879E+02 -0.33554462292E+02 -0.62329770336E+02  0.10613316132E+03  0.00000000000E+00 0. -1.
         21    1    1    2  506  503  0.62669274222E+02 -0.54632375464E+02  0.47000580427E+01  0.83271993647E+02  0.00000000000E+00 0. -1.
<scales pt_clust_3="36.65204" pt_clust_4="56.83325" pt_clust_5="14000.00000" pt_clust_6="74.28809"></scales>
<clustering>
<clus scale="   36.652">  2  3  1 -1</clus>
<clus scale="   56.833">  1  4  2 -1</clus>
<clus scale="   74.288">  1  6  2 -1</clus>
<clus scale="   56.833">  1  3  2 -1</clus>
</clustering>
</event>
<event>
 6    0  0.6687079E+002  0.9625638E+02  0.7546771E-02  0.1288371E+00
         21   -1    0    0  506  501  0.00000000000E+00  0.00000000000E+00  0.39813990251E+03  0.39813990251E+03  0.00000000000E+00 0.  1.
         21   -1    0    0  505  502 -0.00000000000E+00 -0.00000000000E+00 -0.11281583161E+03  0.11281583161E+03  0.00000000000E+00 0.  1.
         21    1    1    2  503  501  0.64880073222E+01  0.29605397257E+02  0.20978387338E+03  0.21196190062E+03  0.00000000000E+00 0.  1.
         21    1    1    2  504  503 -0.40554165018E+01 -0.53520551772E+02  0.71190386408E+02  0.89156979434E+02  0.00000000000E+00 0.  1.
         21    1    1    2  505  504 -0.84617428882E+02  0.65395471554E+02  0.35451643977E+02  0.11266541630E+03  0.00000000000E+00 0.  1.
         21    1    1    2  506  502  0.82184838062E+02 -0.41480317038E+02 -0.31101832862E+02  0.97171437759E+02  0.00000000000E+00 0.  1.
<scales pt_clust_3="30.30798" pt_clust_4="40.86572" pt_clust_5="96.25638" pt_clust_6="14000.00000"></scales>
<clustering>
<clus scale="   30.308">  1  3  2 -1</clus>
<clus scale="   40.866">  1  4  2 -1</clus>
<clus scale="   96.256">  1  5  2 -1</clus>
<clus scale="   30.308">  1  3  2 -1</clus>
</clustering>
</event>
<event>
 6    0  0.6687079E+002  0.1091690E+03  0.7546771E-02  0.1262117E+00
         21   -1    0    0  503  501  0.00000000000E+00  0.00000000000E+00  0.47089153291E+03  0.47089153291E+03  0.00000000000E+00 0.  1.
         21   -1    0    0  506  502 -0.00000000000E+00 -0.00000000000E+00 -0.62659705409E+03  0.62659705409E+03  0.00000000000E+00 0.  1.
         21    1    1    2  503  504  0.55900960301E+02 -0.92711341485E+02  0.37216831753E+03  0.38759459074E+03  0.00000000000E+00 0.  1.
         21    1    1    2  504  505  0.47101584363E+02 -0.13878908075E+02  0.38815747145E+01  0.49256978807E+02  0.00000000000E+00 0. -1.
         21    1    1    2  505  502  0.86943964693E+00  0.34735603517E+02 -0.53319473654E+03  0.53432569202E+03  0.00000000000E+00 0.  1.
         21    1    1    2  506  501 -0.10387198431E+03  0.71854646043E+02  0.14393231189E+01  0.12631132544E+03  0.00000000000E+00 0.  1.
<scales pt_clust_3="14000.00000" pt_clust_4="47.62010" pt_clust_5="34.74648" pt_clust_6="109.16902"></scales>
<clustering>
<clus scale="   34.746">  2  5  1 -1</clus>
<clus scale="   47.620">  2  4  1 -1</clus>
<clus scale="  109.169">  2  6  1 -1</clus>
<clus scale="  109.169">  1  3  2 -1</clus>
</clustering>
</event>
<event>
 6    0  0.6687079E+002  0.2921874E+03  0.7546771E-02  0.1089213E+00
         21   -1    0    0  506  501  0.00000000000E+00  0.00000000000E+00  0.96019654586E+03  0.96019654586E+03  0.00000000000E+00 0.  1.
         21   -1    0    0  504  502 -0.00000000000E+00 -0.00000000000E+00 -0.24879359793E+03  0.24879359793E+03  0.00000000000E+00 0.  1.
         21    1    1    2  503  502  0.10373057717E+03 -0.31188707956E+02 -0.10413926802E+03  0.15025896076E+03  0.00000000000E+00 0.  1.
         21    1    1    2  504  501 -0.33742232817E+02  0.28600937650E+03  0.40822314554E+03  0.49958586677E+03  0.00000000000E+00 0.  1.
         21    1    1    2  505  503 -0.58403126362E+02 -0.28727590343E+03  0.21443994360E+03  0.36321186554E+03  0.00000000000E+00 0.  1.
         21    1    1    2  506  505 -0.11585217992E+02  0.32455234888E+02  0.19287912682E+03  0.19593345071E+03  0.00000000000E+00 0.  1.
<scales pt_clust_3="107.70566" pt_clust_4="14000.00000" pt_clust_5="292.18737" pt_clust_6="34.46099"></scales>
<clustering>
<clus scale="   34.461">  1  6  2 -1</clus>
<clus scale="  107.706">  2  3  1 -1</clus>
<clus scale="  292.187">  2  5  1 -1</clus>
<clus scale="   34.461">  1  3  2 -1</clus>
</clustering>
</event>
<event>
 6    0  0.6687079E+002  0.1086461E+03  0.7546771E-02  0.1263098E+00
         21   -1    0    0  506  501  0.00000000000E+00  0.00000000000E+00  0.31625728821E+03  0.31625728821E+03  0.00000000000E+00 0. -1.
         21   -1    0    0  505  502 -0.00000000000E+00 -0.00000000000E+00 -0.90922252659E+03  0.90922252659E+03  0.00000000000E+00 0. -1.
         21    1    1    2  503  502  0.22474743433E+02 -0.10819985705E+03 -0.85905970463E+03  0.86613849890E+03  0.00000000000E+00 0. -1.
         21    1    1    2  504  503 -0.55614077376E+02  0.59990782680E+02  0.49548906172E+02  0.95639498701E+02  0.00000000000E+00 0. -1.
         21    1    1    2  505  501 -0.46212226134E+01  0.30260657033E+02 -0.10863056250E+02  0.32481826513E+02  0.00000000000E+00 0. -1.
         21    1    1    2  506  504  0.37760556556E+02  0.17948417335E+02  0.22740861632E+03  0.23121999069E+03  0.00000000000E+00 0. -1.
<scales pt_clust_3="108.64609" pt_clust_4="14000.00000" pt_clust_5="30.61149" pt_clust_6="53.19448"></scales>
<clustering>
<clus scale="   30.611">  1  5  2 -1</clus>
<clus scale="   53.194">  1  6  2 -1</clus>
<clus scale="  108.646">  2  3  1 -1</clus>
<clus scale="   30.611">  1  3  2 -1</clus>
</clustering>
</event>
<event>
 6    0  0.6687079E+002  0.1515627E+03  0.7546771E-02  0.1198566E+00
         21   -1    0    0  503  501  0.00000000000E+00  0.00000000000E+00  0.31365911345E+03  0.31365911345E+03  0.00000000000E+00 0. -1.
         21   -1    0    0  506  502 -0.00000000000E+00 -0.00000000000E+00 -0.81246026947E+03  0.81246026947E+03  0.00000000000E+00 0.  1.
         21    1    1    2  503  502 -0.83778211541E+00  0.33844950795E+02  0.33395679741E+00  0.33856965315E+02  0.00000000000E+00 0. -1.
         21    1    1    2  504  505  0.16252702243E+03  0.41583891805E+01  0.99294043503E+02  0.19050362804E+03  0.00000000000E+00 0. -1.
         21    1    1    2  505  501 -0.12111763724E+02 -0.59350443423E+02  0.13762039934E+03  0.15036137892E+03  0.00000000000E+00 0. -1.
         21    1    1    2  506  504 -0.14957747659E+03  0.21347103447E+02 -0.73604955566E+03  0.75139741064E+03  0.00000000000E+00 0.  1.
<scales pt_clust_3="33.85532" pt_clust_4="151.56275" pt_clust_5="44.70615" pt_clust_6="14000.00000"></scales>
<clustering>
<clus scale="   33.855">  1  3  2 -1</clus>
<clus scale="   44.706">  1  5  2 -1</clus>
<clus scale="  151.563">  1  4  2 -1</clus>
<clus scale="   33.855">  1  3  2 -1</clus>
</clustering>
</event>
<event>
 6    0  0.6687079E+002  0.1133857E+03  0.7546771E-02  0.1254426E+00
         21   -1    0    0  506  501  0.00000000000E+00  0.00000000000E+00  0.19663149534E+03  0.19663149534E+03  0.00000000000E+00 0.  1.
         21   -1    0    0  505  502 -0.00000000000E+00 -0.00000000000E+00 -0.42794372754E+03  0.42794372754E+03  0.00000000000E+00 0.  1.
         21    1    1    2  503  502 -0.19908228972E+02 -0.34957688196E+02 -0.35830018339E+03  0.36055152054E+03  0.00000000000E+00 0.  1.
         21    1    1    2  504  501  0.13420759541E+02 -0.38502311985E+02  0.18956771092E+02  0.44965586676E+02  0.00000000000E+00 0.  1.
         21    1    1    2  505  504  0.45712790238E+02 -0.35594086874E+02 -0.37286362331E+01  0.58056015536E+02  0.00000000000E+00 0.  1.
         21    1    1    2  506  503 -0.39225320807E+02  0.10905408705E+03  0.11175981633E+03  0.16100210012E+03  0.00000000000E+00 0.  1.
<scales pt_clust_3="40.22906" pt_clust_4="31.32766" pt_clust_5="31.32766" pt_clust_6="107.05985"></scales>
<clustering>
<clus scale="   31.328">  4  5 -1 -1</clus>
<clus scale="   40.229">  2  3  1 -1</clus>
<clus scale="  107.060">  1  6  2 -1</clus>
<clus scale="  107.060">  1  3  2 -1</clus>
</clustering>
</event>
<event>
 6    0  0.6687079E+002  0.8248806E+02  0.7546771E-02  0.1322135E+00
         21   -1    0    0  505  501  0.00000000000E+00  0.00000000000E+00  0.15046162226E+03  0.15046162226E+03  0.00000000000E+00 0. -1.
         21   -1    0    0  506  502 -0.00000000000E+00 -0.00000000000E+00 -0.26630953268E+03  0.26630953268E+03  0.00000000000E+00 0. -1.
         21    1    1    2  503  501  0.32960987991E+02  0.24220030209E+02  0.59345659282E+02  0.72075959018E+02  0.00000000000E+00 0. -1.
         21    1    1    2  504  503 -0.10534160899E+03  0.13955511193E+00  0.18239657281E+02  0.10690911634E+03  0.00000000000E+00 0. -1.
         21    1    1    2  505  502  0.59523976287E+02 -0.69182175024E+02 -0.13640654664E+03  0.16412197617E+03  0.00000000000E+00 0. -1.
         21    1    1    2  506  504  0.12856644709E+02  0.44822589704E+02 -0.57026680339E+02  0.73664103411E+02  0.00000000000E+00 0. -1.
<scales pt_clust_3="40.90277" pt_clust_4="14000.00000" pt_clust_5="82.48806" pt_clust_6="49.86764"></scales>
<clustering>
<clus scale="   40.903">  1  3  2 -1</clus>
<clus scale="   49.868">  2  6  1 -1</clus>
<clus scale="   82.488">  2  5  1 -1</clus>
<clus scale="   40.903">  1  3  2 -1</clus>
</clustering>
</event>
<event>
 6    0  0.9243822E+002  0.6503664E+02  0.7546771E-02  0.1377834E+00
         21   -1    0    0  505  501  0.00000000000E+00  0.00000000000E+00  0.46749580277E+03  0.46749580277E+03  0.00000000000E+00 0. -1.
         21   -1    0    0  504  502 -0.00000000000E+00 -0.00000000000E+00 -0.95434794255E+03  0.95434794255E+03  0.00000000000E+00 0. -1.
         21    1    1    2  503  501  0.34053829765E+02 -0.52100138728E+02  0.68312997065E+02  0.92416196336E+02  0.00000000000E+00 0. -1.
         21    1    1    2  504  506  0.23652353895E+02 -0.60433763472E+02 -0.91523636757E+03  0.91753434929E+03  0.00000000000E+00 0. -1.
         21    1    1    2  505  502 -0.46249702487E+02  0.10549821272E+01  0.14310152186E+02  0.48424460999E+02  0.00000000000E+00 0.  1.
         21    1    1    2  506  503 -0.11456481173E+02  0.11147892007E+03  0.34576107853E+03  0.36346873870E+03  0.00000000000E+00 0. -1.
<scales pt_clust_3="57.84516" pt_clust_4="65.03664" pt_clust_5="46.26173" pt_clust_6="14000.00000"></scales>
<clustering>
<clus scale="   46.262">  1  5  2 -1</clus>
<clus scale="   57.845">  1  3  2 -1</clus>
<clus scale="   65.037">  2  4  1 -1</clus>
<clus scale="   46.262">  1  3  2 -1</clus>
</clustering>
</event>
<event>
 6    0  0.6687079E+002  0.1167809E+03  0.7546771E-02  0.1248504E+00
         21   -1    0    0  505  501  0.00000000000E+00  0.00000000000E+00  0.15540386221E+04  0.15540386221E+04  0.00000000000E+00 0. -1.
         21   -1    0    0  504  502 -0.00000000000E+00 -0.00000000000E+00 -0.60159830265E+02  0.60159830265E+02  0.00000000000E+00 0. -1.
         21    1    1    2  503  506  0.15922378474E+03  0.10012602207E+02  0.20246525577E+03  0.25776858929E+03  0.00000000000E+00 0. -1.
         21    1    1    2  504  503 -0.19687082207E+01 -0.65219926502E+02  0.57558186067E+02  0.87008386999E+02  0.00000000000E+00 0.  1.
         21    1    1    2  505  502 -0.82153665833E+02  0.57014031030E+02  0.13500632407E+03  0.16800753579E+03  0.00000000000E+00 0. -1.
         21    1    1    2  506  501 -0.75101410684E+02 -0.18067067350E+01  0.10988490260E+04  0.11014139403E+04  0.00000000000E+00 0. -1.
<scales pt_clust_3="14000.00000" pt_clust_4="65.24963" pt_clust_5="116.78089" pt_clust_6="75.24544"></scales>
<clustering>
<clus scale="   65.250">  2  4  1 -1</clus>
<clus scale="   75.245">  1  6  2 -1</clus>
<clus scale="  116.781">  2  5  1 -1</clus>
<clus scale="   75.245">  1  3  2 -1</clus>
</clustering>
</event>
<event>
 6    0  0.6687079E+002  0.1371401E+03  0.7546771E-02  0.1217230E+00
         21   -1    0    0  504  501  0.00000000000E+00  0.00000000000E+00  0.44523788296E+03  0.44523788296E+03  0.00000000000E+00 0. -1.
         21   -1    0    0  505  502 -0.00000000000E+00 -0.00000000000E+00 -0.23663999685E+03  0.23663999685E+03  0.00000000000E+00 0.  1.
         21    1    1    2  503  502  0.10757753032E+03 -0.84627088920E+02 -0.16300526328E+03  0.21285061679E+03  0.00000000000E+00 0.  1.
         21    1    1    2  504  506 -0.33840967100E+02 -0.28968237198E+01  0.17965694950E+03  0.18283933424E+03  0.00000000000E+00 0. -1.
         21    1    1    2  505  501 -0.12071003501E+03  0.71836839603E+02  0.19044083946E+03  0.23664141102E+03  0.00000000000E+00 0. -1.
         21    1    1    2  506  503  0.46973471790E+02  0.15687073037E+02  0.15053604372E+01  0.49546517764E+02  0.00000000000E+00 0. -1.
<scales pt_clust_3="14000.00000" pt_clust_4="33.96473" pt_clust_5="137.14005" pt_clust_6="46.33765"></scales>
<clustering>
<clus scale="   33.965">  1  4  2 -1</clus>
<clus scale="   46.338">  1  6  2 -1</clus>
<clus scale="  137.140">  1  5  2 -1</clus>
<clus scale="   33.965">  1  3  2 -1</clus>
</clustering>
</event>
<event>
 6    0  0.6687079E+002  0.9487017E+02  0.7546771E-02  0.1291469E+00
         21   -1    0    0  503  501  0.00000000000E+00  0.00000000000E+00  0.58080517995E+03  0.58080517995E+03  0.00000000000E+00 0.  1.
         21   -1    0    0  505  502 -0.00000000000E+00 -0.00000000000E+00 -0.30153849585E+03  0.30153849585E+03  0.00000000000E+00 0. -1.
         21    1    1    2  503  506 -0.22903906855E+02  0.33045858860E+02  0.46543456590E+03  0.46716801354E+03  0.00000000000E+00 0.  1.
         21    1    1    2  504  501 -0.61888547016E+02  0.23204650845E+02  0.77110669210E+02  0.10156132816E+03  0.00000000000E+00 0.  1.
         21    1    1    2  505  504  0.75926533658E+02 -0.85810422521E+02 -0.25800952960E+03  0.28230689770E+03  0.00000000000E+00 0. -1.
         21    1    1    2  506  502  0.88659202122E+01  0.29559912816E+02 -0.52690214094E+01  0.31307436393E+02  0.00000000000E+00 0. -1.
<scales pt_clust_3="40.26614" pt_clust_4="14000.00000" pt_clust_5="94.87017" pt_clust_6="30.86086"></scales>
<clustering>
<clus scale="   30.861">  2  6  1 -1</clus>
<clus scale="   40.266">  1  3  2 -1</clus>
<clus scale="   94.870">  2  5  1 -1</clus>
<clus scale="   40.266">  1  3  2 -1</clus>
</clustering>
</event>
<event>
 6    0  0.6687079E+002  0.1435909E+03  0.7546771E-02  0.1208577E+00
         21   -1    0    0  505  501  0.00000000000E+00  0.00000000000E+00  0.27177541923E+03  0.27177541923E+03  0.00000000000E+00 0.  1.
         21   -1    0    0  504  502 -0.00000000000E+00 -0.00000000000E+00 -0.40709402651E+03  0.40709402651E+03  0.00000000000E+00 0. -1.
         21    1    1    2  503  502 -0.32151822638E+02 -0.15514574036E+01 -0.16474744286E+03  0.16786264221E+03  0.00000000000E+00 0. -1.
         21    1    1    2  504  506 -0.24699138563E+02 -0.91471949628E+02 -0.13887468729E+03  0.16811705382E+03  0.00000000000E+00 0. -1.
         21    1    1    2  505  503  0.37621391129E+02  0.13174747620E+03  0.22990120471E+03  0.26763282774E+03  0.00000000000E+00 0.  1.
         21    1    1    2  506  501  0.19229570072E+02 -0.38724069166E+02 -0.61597681835E+02  0.75256921976E+02  0.00000000000E+00 0.  1.
<scales pt_clust_3="32.18923" pt_clust_4="30.66584" pt_clust_5="136.22611" pt_clust_6="30.66584"></scales>
<clustering>
<clus scale="   30.666">  4  6 -1 -1</clus>
<clus scale="   32.189">  2  3  1 -1</clus>
<clus scale="  136.226">  1  5  2 -1</clus>
<clus scale="  136.226">  1  3  2 -1</clus>
</clustering>
</event>
<event>
 6    0  0.6687079E+002  0.1038293E+03  0.7546771E-02  0.1272443E+00
         21   -1    0    0  503  501  0.00000000000E+00  0.00000000000E+00  0.10762563488E+04  0.10762563488E+04  0.00000000000E+00 0. -1.
         21   -1    0    0  506  502 -0.00000000000E+00 -0.00000000000E+00 -0.13332673082E+03  0.13332673082E+03  0.00000000000E+00 0. -1.
         21    1    1    2  503  502 -0.38844969870E+02  0.84216841266E+02  0.65930369603E+03  0.66579484200E+03  0.00000000000E+00 0. -1.
         21    1    1    2  504  501  0.16912792608E+02 -0.30348438860E+02  0.21021184517E+03  0.21306358240E+03  0.00000000000E+00 0. -1.
         21    1    1    2  505  504 -0.41682628938E+02  0.28743310282E+02  0.17679013698E+03  0.18389772150E+03  0.00000000000E+00 0. -1.
         21    1    1    2  506  505  0.63614806200E+02 -0.82611712688E+02 -0.10337606020E+03  0.14682693371E+03  0.00000000000E+00 0. -1.
<scales pt_clust_3="103.82929" pt_clust_4="34.74292" pt_clust_5="44.25097" pt_clust_6="14000.00000"></scales>
<clustering>
<clus scale="   34.743">  1  4  2 -1</clus>
<clus scale="   44.251">  1  5  2 -1</clus>
<clus scale="  103.829">  1  3  2 -1</clus>
<clus scale="   34.743">  1  3  2 -1</clus>
</clustering>
</event>
<event>
 6    0  0.6687079E+002  0.1723964E+03  0.7546771E-02  0.1175372E+00
         21   -1    0    0  503  501  0.00000000000E+00  0.00000000000E+00  0.22728648848E+04  0.22728648848E+04  0.00000000000E+00 0. -1.
         21   -1    0    0  504  502 -0.00000000000E+00 -0.00000000000E+00 -0.41070426593E+02  0.41070426593E+02  0.00000000000E+00 0. -1.
         21    1    1    2  503  502 -0.85100871528E+02 -0.82344972866E+02  0.58297909073E+03  0.59488441996E+03  0.00000000000E+00 0. -1.
         21    1    1    2  504  506 -0.56791445812E+02 -0.71660747620E+02  0.48177317231E+02  0.10335175355E+03  0.00000000000E+00 0. -1.
         21    1    1    2  505  501  0.14492109293E+02  0.46914569415E+02  0.24409333913E+03  0.24898304412E+03  0.00000000000E+00 0. -1.
         21    1    1    2  506  505  0.12740020805E+03  0.10709115107E+03  0.13565447111E+04  0.13667160937E+04  0.00000000000E+00 0. -1.
<scales pt_clust_3="158.52500" pt_clust_4="91.43594" pt_clust_5="36.80057" pt_clust_6="36.80057"></scales>
<clustering>
<clus scale="   36.801">  5  6 -1 -1</clus>
<clus scale="   91.436">  2  4  1 -1</clus>
<clus scale="  158.525">  1  3  2 -1</clus>
<clus scale="  158.525">  1  3  2 -1</clus>
</clustering>
</event>
<event>
 6    0  0.6687079E+002  0.1159398E+03  0.7546771E-02  0.1249950E+00
         21   -1    0    0  506  501  0.00000000000E+00  0.00000000000E+00  0.23459284367E+02  0.23459284367E+02  0.00000000000E+00 0.  1.
         21   -1    0    0  504  502 -0.00000000000E+00 -0.00000000000E+00 -0.42617798468E+04  0.42617798468E+04  0.00000000000E+00 0.  1.
         21    1    1    2  503  505  0.60213449128E+01 -0.74612180195E+02 -0.89745406064E+03  0.90057038869E+03  0.00000000000E+00 0. -1.
         21    1    1    2  504  503  0.87603496767E+01 -0.68655168747E+02 -0.26615391759E+04  0.26624389309E+04  0.00000000000E+00 0.  1.
         21    1    1    2  505  501  0.29025874132E+02  0.12211287114E+03 -0.17389125074E+03  0.21445797199E+03  0.00000000000E+00 0.  1.
         21    1    1    2  506  502 -0.43807568722E+02  0.21154477802E+02 -0.50543607514E+03  0.50777183957E+03  0.00000000000E+00 0.  1.
<scales pt_clust_3="14000.00000" pt_clust_4="58.10617" pt_clust_5="115.93978" pt_clust_6="48.64787"></scales>
<clustering>
<clus scale="   48.648">  2  6  1 -1</clus>
<clus scale="   58.106">  2  4  1 -1</clus>
<clus scale="  115.940">  1  5  2 -1</clus>
<clus scale="  115.940">  1  3  2 -1</clus>
</clustering>
</event>
<event>
 6    0  0.6687079E+002  0.8708309E+02  0.7546771E-02  0.1310073E+00
         21   -1    0    0  506  501  0.00000000000E+00  0.00000000000E+00  0.28419124637E+03  0.28419124637E+03  0.00000000000E+00 0. -1.
         21   -1    0    0  504  502 -0.00000000000E+00 -0.00000000000E+00 -0.11994260383E+04  0.11994260383E+04  0.00000000000E+00 0. -1.
         21    1    1    2  503  502  0.34224586787E+02  0.12076089248E+03 -0.56189470690E+03  0.57574315206E+03  0.00000000000E+00 0. -1.
         21    1    1    2  504  501  0.68104210430E+01 -0.80495670239E+02 -0.82693300187E+02  0.11560327270E+03  0.00000000000E+00 0. -1.
         21    1    1    2  505  503 -0.10390625700E+03  0.11757513577E+02 -0.51973811205E+03  0.53015323680E+03  0.00000000000E+00 0. -1.
         21    1    1    2  506  505  0.62871249168E+02 -0.52022735818E+02  0.24909132725E+03  0.26211762308E+03  0.00000000000E+00 0. -1.
<scales pt_clust_3="14000.00000" pt_clust_4="80.78326" pt_clust_5="87.08309" pt_clust_6="81.93921"></scales>
<clustering>
<clus scale="   80.783">  2  4  1 -1</clus>
<clus scale="   81.939">  1  6  2 -1</clus>
<clus scale="   87.083">  1  5  2 -1</clus>
<clus scale="   81.939">  1  3  2 -1</clus>
</clustering>
</event>
<event>
 6    0  0.6687079E+002  0.1215533E+03  0.7546771E-02  0.1240556E+00
         21   -1    0    0  506  501  0.00000000000E+00  0.00000000000E+00  0.15938529961E+04  0.15938529961E+04  0.00000000000E+00 0.  1.
         21   -1    0    0  503  502 -0.00000000000E+00 -0.00000000000E+00 -0.46844990613E+02  0.46844990613E+02  0.00000000000E+00 0. -1.
         21    1    1    2  503  505 -0.33197288236E+01 -0.46513509277E+02  0.13504299144E+02  0.48547844855E+02  0.00000000000E+00 0. -1.
         21    1    1    2  504  502  0.12476244323E+03  0.83718588804E+02  0.24894762539E+03  0.29077377726E+03  0.00000000000E+00 0. -1.
         21    1    1    2  505  501 -0.80948312735E+02  0.53319891299E+02  0.41429929550E+03  0.42548742213E+03  0.00000000000E+00 0. -1.
         21    1    1    2  506  504 -0.40494401674E+02 -0.90524970826E+02  0.87025678545E+03  0.87588894246E+03  0.00000000000E+00 0.  1.
<scales pt_clust_3="46.63183" pt_clust_4="14000.00000" pt_clust_5="92.90341" pt_clust_6="121.55331"></scales>
<clustering>
<clus scale="   46.632">  2  3  1 -1</clus>
<clus scale="   92.903">  1  5  2 -1</clus>
<clus scale="  121.553">  1  6  2 -1</clus>
<clus scale="   92.903">  1  3  2 -1</clus>
</clustering>
</event>
<event>
 6    0  0.6687079E+002  0.7369897E+02  0.7546771E-02  0.1347948E+00
         21   -1    0    0  506  501  0.00000000000E+00  0.00000000000E+00  0.48678561031E+03  0.48678561031E+03  0.00000000000E+00 0.  1.
         21   -1    0    0  503  502 -0.00000000000E+00 -0.00000000000E+00 -0.43457314712E+03  0.43457314712E+03  0.00000000000E+00 0.  1.
         21    1    1    2  503  501  0.11122611723E+02 -0.28990278220E+02 -0.37451175758E+03  0.37579676062E+03  0.00000000000E+00 0.  1.
         21    1    1    2  504  502 -0.82632085430E+02  0.15168323541E+02 -0.12973439453E+02  0.85008527294E+02  0.00000000000E+00 0.  1.
         21    1    1    2  505  504  0.73706270897E+02 -0.38869350140E+02  0.29509913457E+03  0.30663812544E+03  0.00000000000E+00 0.  1.
         21    1    1    2  506  505 -0.21967971906E+01  0.52691304819E+02  0.14459852565E+03  0.15391534408E+03  0.00000000000E+00 0.  1.
<scales pt_clust_3="31.05074" pt_clust_4="73.69897" pt_clust_5="14000.00000" pt_clust_6="50.43588"></scales>
<clustering>
<clus scale="   31.051">  2  3  1 -1</clus>
<clus scale="   50.436">  1  6  2 -1</clus>
<clus scale="   73.699">  2  4  1 -1</clus>
<clus scale="   50.436">  1  3  2 -1</clus>
</clustering>
</event>
<event>
 6    0  0.7316602E+002  0.1887147E+03  0.7546771E-02  0.1159626E+00
         21   -1    0    0  506  501  0.00000000000E+00  0.00000000000E+00  0.41849765448E+03  0.41849765448E+03  0.00000000000E+00 0. -1.
         21   -1    0    0  505  502 -0.00000000000E+00 -0.00000000000E+00 -0.18626602410E+04  0.18626602410E+04  0.00000000000E+00 0.  1.
         21    1    1    2  503  501 -0.43129137325E+02  0.19547250673E+02  0.75383657680E+01  0.47948351939E+02  0.00000000000E+00 0.  1.
         21    1    1    2  504  503 -0.36592130123E+02 -0.39170590242E+02  0.32325700197E+02  0.62596086300E+02  0.00000000000E+00 0.  1.
         21    1    1    2  505  504  0.16736793148E+03 -0.89076613176E+02 -0.18079560464E+04  0.18178701090E+04  0.00000000000E+00 0.  1.
         21    1    1    2  506  502 -0.87646664033E+02  0.10869995275E+03  0.32392939395E+03  0.35274334821E+03  0.00000000000E+00 0. -1.
<scales pt_clust_3="47.35206" pt_clust_4="55.71150" pt_clust_5="188.71466" pt_clust_6="14000.00000"></scales>
<clustering>
<clus scale="   47.352">  1  3  2 -1</clus>
<clus scale="   55.712">  1  4  2 -1</clus>
<clus scale="  188.715">  2  5  1 -1</clus>
<clus scale="   47.352">  1  3  2 -1</clus>
</clustering>
</event>
<event>
 6    0  0.6687079E+002  0.8892728E+02  0.7546771E-02  0.1305470E+00
         21   -1    0    0  505  501  0.00000000000E+00  0.00000000000E+00  0.20504866885E+03  0.20504866885E+03  0.00000000000E+00 0.  1.
         21   -1    0    0  504  502 -0.00000000000E+00 -0.00000000000E+00 -0.24716341910E+03  0.24716341910E+03  0.00000000000E+00 0.  1.
         21    1    1    2  503  501 -0.20059280272E+02 -0.69041216822E+02  0.71629973681E+02  0.10148850908E+03  0.00000000000E+00 0.  1.
         21    1    1    2  504  506  0.21904213684E+02  0.10441383923E+03 -0.14716233784E+03  0.18176577807E+03  0.00000000000E+00 0.  1.
         21    1    1    2  505  502  0.13746881510E+01  0.34483097478E+02  0.78503185536E+02  0.85753856581E+02  0.00000000000E+00 0.  1.
         21    1    1    2  506  503 -0.32196215634E+01 -0.69855719886E+02 -0.45085571634E+02  0.83203944218E+02  0.00000000000E+00 0.  1.
<scales pt_clust_3="48.66006" pt_clust_4="14000.00000" pt_clust_5="34.51049" pt_clust_6="88.92728"></scales>
<clustering>
<clus scale="   34.510">  1  5  2 -1</clus>
<clus scale="   48.660">  1  3  2 -1</clus>
<clus scale="   88.927">  1  6  2 -1</clus>
<clus scale="   34.510">  1  3  2 -1</clus>
</clustering>
</event>
<event>
 6    0  0.6687079E+002  0.2272588E+03  0.7546771E-02  0.1128584E+00
         21   -1    0    0  506  501  0.00000000000E+00  0.00000000000E+00  0.80761983856E+03  0.80761983856E+03  0.00000000000E+00 0.  1.
         21   -1    0    0  505  502 -0.00000000000E+00 -0.00000000000E+00 -0.12687053080E+03  0.12687053080E+03  0.00000000000E+00 0.  1.
         21    1    1    2  503  502 -0.66980848457E+02  0.28222853202E+02 -0.41387059898E+02  0.83641211312E+02  0.00000000000E+00 0. -1.
         21    1    1    2  504  501 -0.54892648803E+02  0.11025208104E+03  0.21109728557E+03  0.24439883027E+03  0.00000000000E+00 0.  1.
         21    1    1    2  505  504 -0.26340980274E+01  0.70452121525E+02  0.54287117489E+02  0.88980509243E+02  0.00000000000E+00 0.  1.
         21    1    1    2  506  503  0.12450759529E+03 -0.20892705577E+03  0.45675196460E+03  0.51746981853E+03  0.00000000000E+00 0.  1.
<scales pt_clust_3="72.68400" pt_clust_4="52.14209" pt_clust_5="52.14209" pt_clust_6="216.55717"></scales>
<clustering>
<clus scale="   52.142">  4  5 -1 -1</clus>
<clus scale="   72.684">  2  3  1 -1</clus>
<clus scale="  216.557">  1  6  2 -1</clus>
<clus scale="  216.557">  1  3  2 -1</clus>
</clustering>
</event>
<event>
 6    0  0.6687079E+002  0.7309131E+02  0.7546771E-02  0.1349886E+00
         21   -1    0    0  503  501  0.00000000000E+00  0.00000000000E+00  0.16281989027E+03  0.16281989027E+03  0.00000000000E+00 0. -1.
         21   -1    0    0  505  502 -0.00000000000E+00 -0.00000000000E+00 -0.89914405472E+03  0.89914405472E+03  0.00000000000E+00 0. -1.
         21    1    1    2  503  506  0.17610488977E+02  0.25358720684E+02 -0.11444782565E+02  0.32926844439E+02  0.00000000000E+00 0.  1.
         21    1    1    2  504  502  0.69260143330E+02 -0.46160148003E-01 -0.82038854580E+03  0.82330695106E+03  0.00000000000E+00 0. -1.
         21    1    1    2  505  501 -0.35364743520E+02 -0.80386516556E+02  0.50539033689E+01  0.87967033981E+02  0.00000000000E+00 0. -1.
         21    1    1    2  506  504 -0.51505888787E+02  0.55073956020E+02  0.90455260548E+02  0.11776311550E+03  0.00000000000E+00 0. -1.
<scales pt_clust_3="30.87384" pt_clust_4="69.42940" pt_clust_5="73.09131" pt_clust_6="14000.00000"></scales>
<clustering>
<clus scale="   30.874">  1  3  2 -1</clus>
<clus scale="   69.429">  2  4  1 -1</clus>
<clus scale="   73.091">  2  5  1 -1</clus>
<clus scale="   30.874">  1  3  2 -1</clus>
</clustering>
</event>
<event>
 6    0  0.6687079E+002  0.1165194E+03  0.7546771E-02  0.1248952E+00
         21   -1    0    0  506  501  0.00000000000E+00  0.00000000000E+00  0.12784508305E+03  0.12784508305E+03  0.00000000000E+00 0. -1.
         21   -1    0    0  505  502 -0.00000000000E+00 -0.00000000000E+00 -0.13063824074E+04  0.13063824074E+04  0.00000000000E+00 0. -1.
         21    1    1    2  503  502 -0.18871990245E+02  0.47409893258E+02 -0.12999134513E+02  0.52657644199E+02  0.00000000000E+00 0. -1.
         21    1    1    2  504  501 -0.18226452878E+02 -0.60673779755E+02 -0.31533947852E+01  0.63430710488E+02  0.00000000000E+00 0. -1.
         21    1    1    2  505  504  0.30213138024E+02 -0.97456128760E+02 -0.11974547477E+04  0.12017938274E+04  0.00000000000E+00 0. -1.
         21    1    1    2  506  503  0.68853050988E+01  0.11072001526E+03  0.35069952649E+02  0.11634530839E+03  0.00000000000E+00 0. -1.
<scales pt_clust_3="36.68754" pt_clust_4="63.35228" pt_clust_5="103.20198" pt_clust_6="36.68754"></scales>
<clustering>
<clus scale="   36.688">  3  6 -1 -1</clus>
<clus scale="   63.352">  1  4  2 -1</clus>
<clus scale="  103.202">  2  5  1 -1</clus>
<clus scale="   63.352">  1  3  2 -1</clus>
</clustering>
</event>
<event>
 6    0  0.6687079E+002  0.1473687E+03  0.7546771E-02  0.1203744E+00
         21   -1    0    0  504  501  0.00000000000E+00  0.00000000000E+00  0.91930516912E+03  0.91930516912E+03  0.00000000000E+00 0. -1.
         21   -1    0    0  505  502 -0.00000000000E+00 -0.00000000000E+00 -0.10145969697E+03  0.10145969697E+03  0.00000000000E+00 0. -1.
         21    1    1    2  503  506  0.12772292017E+03 -0.19590179540E+02  0.76940457935E+02  0.15038867490E+03  0.00000000000E+00 0. -1.
         21    1    1    2  504  502  0.77217644275E+01  0.12825743731E+03  0.47967461552E+03  0.49658567503E+03  0.00000000000E+00 0. -1.
         21    1    1    2  505  503  0.27140889997E+02  0.14167796020E+02 -0.12050159036E+02  0.32902289991E+02  0.00000000000E+00 0.  1.
         21    1    1    2  506  501 -0.16258557459E+03 -0.12283505379E+03  0.27328055774E+03  0.34088822617E+03  0.00000000000E+00 0. -1.
<scales pt_clust_3="147.36872" pt_clust_4="130.20858" pt_clust_5="30.61624" pt_clust_6="14000.00000"></scales>
<clustering>
<clus scale="   30.616">  2  5  1 -1</clus>
<clus scale="  130.209">  1  4  2 -1</clus>
<clus scale="  147.369">  2  3  1 -1</clus>
<clus scale="  130.209">  1  3  2 -1</clus>
</clustering>
</event>
<event>
 6    0  0.6687079E+002  0.9718753E+02  0.7546771E-02  0.1286324E+00
         21   -1    0    0  505  501  0.00000000000E+00  0.00000000000E+00  0.27696242822E+03  0.27696242822E+03  0.00000000000E+00 0.  1.
         21   -1    0    0  503  502 -0.00000000000E+00 -0.00000000000E+00 -0.14059330995E+03  0.14059330995E+03  0.00000000000E+00 0.  1.
         21    1    1    2  503  504  0.32332741587E+02  0.57474171994E+02  0.47406215776E+01  0.66114749624E+02  0.00000000000E+00 0.  1.
         21    1    1    2  504  506 -0.90953780450E+02 -0.57275358436E+02 -0.11138791777E+01  0.10749091863E+03  0.00000000000E+00 0.  1.
         21    1    1    2  505  502  0.10703826981E+03 -0.63291268435E+02  0.91320951541E+02  0.15428056279E+03  0.00000000000E+00 0.  1.
         21    1    1    2  506  501 -0.48417230944E+02  0.63092454877E+02  0.41421424324E+02  0.89669507123E+02  0.00000000000E+00 0.  1.
<scales pt_clust_3="65.94457" pt_clust_4="80.34798" pt_clust_5="97.18753" pt_clust_6="14000.00000"></scales>
<clustering>
<clus scale="   65.945">  2  3  1 -1</clus>
<clus scale="   80.348">  2  4  1 -1</clus>
<clus scale="   97.188">  2  5  1 -1</clus>
<clus scale="   97.188">  1  3  2 -1</clus>
</clustering>
</event>
<event>
 6    0  0.6687079E+002  0.1097877E+03  0.7546771E-02  0.1260963E+00
         21   -1    0    0  505  501  0.00000000000E+00  0.00000000000E+00  0.10029015471E+03  0.10029015471E+03  0.00000000000E+00 0.  1.
         21   -1    0    0  503  502 -0.00000000000E+00 -0.00000000000E+00 -0.10318563656E+04  0.10318563656E+04  0.00000000000E+00 0. -1.
         21    1    1    2  503  506 -0.10915473559E+02 -0.33225404303E+02 -0.31538068053E+02  0.47092725453E+02  0.00000000000E+00 0. -1.
         21    1    1    2  504  502  0.10652758690E+03  0.35465702996E+02 -0.95524123178E+03  0.96181690240E+03  0.00000000000E+00 0. -1.
         21    1    1    2  505  504 -0.74569700149E+02  0.22050668922E+02  0.35034551436E+02  0.85289459926E+02  0.00000000000E+00 0.  1.
         21    1    1    2  506  501 -0.21042413191E+02 -0.24290967614E+02  0.20178537498E+02  0.37947432536E+02  0.00000000000E+00 0.  1.
<scales pt_clust_3="38.23348" pt_clust_4="14000.00000" pt_clust_5="109.78774" pt_clust_6="32.13774"></scales>
<clustering>
<clus scale="   32.138">  1  6  2 -1</clus>
<clus scale="   38.233">  1  3  2 -1</clus>
<clus scale="  109.788">  1  5  2 -1</clus>
<clus scale="   32.138">  1  3  2 -1</clus>
</clustering>
</event>
<event>
 6    0  0.6687079E+002  0.9732392E+02  0.7546771E-02  0.1286026E+00
         21   -1    0    0  505  501  0.00000000000E+00  0.00000000000E+00  0.21035889957E+03  0.21035889957E+03  0.00000000000E+00 0. -1.
         21   -1    0    0  501  502 -0.00000000000E+00 -0.00000000000E+00 -0.37573947735E+03  0.37573947735E+03  0.00000000000E+00 0. -1.
         21    1    1    2  503  504 -0.95903623094E+02  0.82107397993E+02 -0.23269059568E+02  0.12837670685E+03  0.00000000000E+00 0. -1.
         21    1    1    2  504  502  0.35819872363E+02 -0.29160777415E+02 -0.23700329723E+03  0.24146216493E+03  0.00000000000E+00 0. -1.
         21    1    1    2  505  506 -0.16771796241E+02 -0.33661156801E+02  0.12572827518E+03  0.13123248762E+03  0.00000000000E+00 0. -1.
         21    1    1    2  506  503  0.76855546972E+02 -0.19285463776E+02 -0.30836496167E+02  0.85027017526E+02  0.00000000000E+00 0. -1.
<scales pt_clust_3="97.32392" pt_clust_4="46.42415" pt_clust_5="37.60807" pt_clust_6="14000.00000"></scales>
<clustering>
<clus scale="   37.608">  1  5  2 -1</clus>
<clus scale="   46.424">  2  4  1 -1</clus>
<clus scale="   97.324">  2  3  1 -1</clus>
<clus scale="   37.608">  1  3  2 -1</clus>
</clustering>
</event>
<event>
 6    0  0.6687079E+002  0.1405677E+03  0.7546771E-02  0.1212567E+00
         21   -1    0    0  503  501  0.00000000000E+00  0.00000000000E+00  0.22430101927E+03  0.22430101927E+03  0.00000000000E+00 0.  1.
         21   -1    0    0  505  502 -0.00000000000E+00 -0.00000000000E+00 -0.24327623009E+04  0.24327623009E+04  0.00000000000E+00 0. -1.
         21    1    1    2  503  504 -0.93230793950E+01  0.48497017420E+02  0.16776635446E+02  0.52156840442E+02  0.00000000000E+00 0.  1.
         21    1    1    2  504  502  0.28147339154E+02 -0.44687104211E+02  0.15084872529E+02  0.54925070446E+02  0.00000000000E+00 0.  1.
         21    1    1    2  505  506 -0.13027839394E+03 -0.53464960547E+02 -0.23686929883E+04  0.23728753517E+04  0.00000000000E+00 0. -1.
         21    1    1    2  506  501  0.11145413418E+03  0.49655047337E+02  0.12837019863E+03  0.17710605763E+03  0.00000000000E+00 0.  1.
<scales pt_clust_3="49.38502" pt_clust_4="44.45345" pt_clust_5="140.56771" pt_clust_6="14000.00000"></scales>
<clustering>
<clus scale="   49.385">  1  3  2 -1</clus>
<clus scale="   44.453">  1  4  2 -1</clus>
<clus scale="  140.568">  2  5  1 -1</clus>
<clus scale="   49.385">  1  3  2 -1</clus>
</clustering>
</event>
<event>
 6    0  0.6687079E+002  0.1489697E+03  0.7546771E-02  0.1201745E+00
         21   -1    0    0  504  501  0.00000000000E+00  0.00000000000E+00  0.42976532673E+03  0.42976532673E+03  0.00000000000E+00 0. -1.
         21   -1    0    0  506  502 -0.00000000000E+00 -0.00000000000E+00 -0.18025385520E+03  0.18025385520E+03  0.00000000000E+00 0.  1.
         21    1    1    2  503  505  0.77966857486E+02 -0.88512816679E+02  0.15280780465E+03  0.19303775471E+03  0.00000000000E+00 0. -1.
         21    1    1    2  504  503  0.22118314586E+02 -0.30573865282E+02  0.14762817830E+03  0.15237473579E+03  0.00000000000E+00 0. -1.
         21    1    1    2  505  502 -0.72435047960E+02  0.13911136114E+03 -0.11331130128E+03  0.19348968440E+03  0.00000000000E+00 0.  1.
         21    1    1    2  506  501 -0.27650124113E+02 -0.20024679184E+02  0.62386789867E+02  0.71117007037E+02  0.00000000000E+00 0. -1.
<scales pt_clust_3="14000.00000" pt_clust_4="40.29305" pt_clust_5="148.96965" pt_clust_6="34.13967"></scales>
<clustering>
<clus scale="   34.140">  1  6  2 -1</clus>
<clus scale="   40.293">  1  4  2 -1</clus>
<clus scale="  148.970">  2  5  1 -1</clus>
<clus scale="   34.140">  1  3  2 -1</clus>
</clustering>
</event>
<event>
 6    0  0.6687079E+002  0.1365946E+03  0.7546771E-02  0.1217986E+00
         21   -1    0    0  506  501  0.00000000000E+00  0.00000000000E+00  0.56186812945E+03  0.56186812945E+03  0.00000000000E+00 0.  1.
         21   -1    0    0  503  502 -0.00000000000E+00 -0.00000000000E+00 -0.92082966694E+02  0.92082966694E+02  0.00000000000E+00 0.  1.
         21    1    1    2  503  504 -0.28885886423E+02  0.14254131572E+02  0.27758652292E+02  0.42521964658E+02  0.00000000000E+00 0.  1.
         21    1    1    2  504  505  0.46918862895E+01 -0.42877961808E+02  0.40065698734E+02  0.58870991335E+02  0.00000000000E+00 0. -1.
         21    1    1    2  505  501  0.13896563057E+03  0.23826546412E+02  0.41372083515E+03  0.43708589571E+03  0.00000000000E+00 0.  1.
         21    1    1    2  506  502 -0.11477163044E+03  0.47972838243E+01 -0.11760023420E+02  0.11547224444E+03  0.00000000000E+00 0.  1.
<scales pt_clust_3="32.21141" pt_clust_4="41.32232" pt_clust_5="14000.00000" pt_clust_6="136.59455"></scales>
<clustering>
<clus scale="   32.211">  2  3  1 -1</clus>
<clus scale="   41.322">  2  4  1 -1</clus>
<clus scale="  136.595">  2  6  1 -1</clus>
<clus scale="  136.595">  1  3  2 -1</clus>
</clustering>
</event>
<event>
 6    0  0.6687079E+002  0.7730515E+02  0.7546771E-02  0.1336878E+00
         21   -1    0    0  504  501  0.00000000000E+00  0.00000000000E+00  0.13076686719E+04  0.13076686719E+04  0.00000000000E+00 0.  1.
         21   -1    0    0  506  502 -0.00000000000E+00 -0.00000000000E+00 -0.22059154599E+03  0.22059154599E+03  0.00000000000E+00 0. -1.
         21    1    1    2  503  502  0.23438646592E+02  0.34969943888E+02 -0.19950712769E+03  0.20390037059E+03  0.00000000000E+00 0. -1.
         21    1    1    2  504  503  0.30309634656E+02 -0.96896981466E+02  0.43706260340E+03  0.44869969719E+03  0.00000000000E+00 0.  1.
         21    1    1    2  505  501  0.28779394081E+02  0.48304278487E+02  0.71531521868E+03  0.71752172017E+03  0.00000000000E+00 0.  1.
         21    1    1    2  506  505 -0.82527675329E+02  0.13622759091E+02  0.13420643153E+03  0.15813842994E+03  0.00000000000E+00 0.  1.
<scales pt_clust_3="42.09830" pt_clust_4="77.30515" pt_clust_5="58.68339" pt_clust_6="14000.00000"></scales>
<clustering>
<clus scale="   42.098">  2  3  1 -1</clus>
<clus scale="   58.683">  1  5  2 -1</clus>
<clus scale="   77.305">  1  4  2 -1</clus>
<clus scale="   58.683">  1  3  2 -1</clus>
</clustering>
</event>
<event>
 6    0  0.6687079E+002  0.8637034E+02  0.7546771E-02  0.1311887E+00
         21   -1    0    0  505  501  0.00000000000E+00  0.00000000000E+00  0.23832433214E+03  0.23832433214E+03  0.00000000000E+00 0.  1.
         21   -1    0    0  506  502 -0.00000000000E+00 -0.00000000000E+00 -0.46374964772E+03  0.46374964772E+03  0.00000000000E+00 0.  1.
         21    1    1    2  503  504 -0.78966298077E+02  0.13709220328E+02 -0.11037613770E+03  0.13640568437E+03  0.00000000000E+00 0.  1.
         21    1    1    2  504  501  0.45406872259E+02 -0.35472642186E+02  0.20971271437E+03  0.21748451660E+03  0.00000000000E+00 0.  1.
         21    1    1    2  505  502  0.65592602519E+02 -0.13789637752E+02 -0.25446068419E+03  0.26314023526E+03  0.00000000000E+00 0.  1.
         21    1    1    2  506  503 -0.32033176701E+02  0.35553059610E+02 -0.70301208063E+02  0.85043543625E+02  0.00000000000E+00 0. -1.
<scales pt_clust_3="31.36702" pt_clust_4="57.62024" pt_clust_5="76.23670" pt_clust_6="31.36702"></scales>
<clustering>
<clus scale="   31.367">  3  6 -1 -1</clus>
<clus scale="   57.620">  1  4  2 -1</clus>
<clus scale="   76.237">  2  5  1 -1</clus>
<clus scale="   57.620">  1  3  2 -1</clus>
</clustering>
</event>
<event>
 6    0  0.6687079E+002  0.1539221E+03  0.7546771E-02  0.1195735E+00
         21   -1    0    0  505  501  0.00000000000E+00  0.00000000000E+00  0.16472746617E+04  0.16472746617E+04  0.00000000000E+00 0. -1.
         21   -1    0    0  504  502 -0.00000000000E+00 -0.00000000000E+00 -0.42368685265E+02  0.42368685265E+02  0.00000000000E+00 0.  1.
         21    1    1    2  503  502 -0.15589567939E+03  0.17235394183E+02  0.18243160502E+03  0.24058639233E+03  0.00000000000E+00 0.  1.
         21    1    1    2  504  506  0.12939689686E+03 -0.83086724879E+02  0.96819990943E+03  0.98033566975E+03  0.00000000000E+00 0. -1.
         21    1    1    2  505  503 -0.30337118224E+02  0.91906995468E+01  0.18665302509E+03  0.18932554364E+03  0.00000000000E+00 0.  1.
         21    1    1    2  506  501  0.56835900757E+02  0.56660631149E+02  0.26762143688E+03  0.27939574122E+03  0.00000000000E+00 0.  1.
<scales pt_clust_3="153.92207" pt_clust_4="14000.00000" pt_clust_5="31.69873" pt_clust_6="77.62032"></scales>
<clustering>
<clus scale="   31.699">  1  5  2 -1</clus>
<clus scale="   77.620">  1  6  2 -1</clus>
<clus scale="  153.922">  2  3  1 -1</clus>
<clus scale="   31.699">  1  3  2 -1</clus>
</clustering>
</event>
<event>
 6    0  0.6687079E+002  0.1486505E+03  0.7546771E-02  0.1202141E+00
         21   -1    0    0  503  501  0.00000000000E+00  0.00000000000E+00  0.19539256758E+04  0.19539256758E+04  0.00000000000E+00 0. -1.
         21   -1    0    0  504  502 -0.00000000000E+00 -0.00000000000E+00 -0.65304517195E+03  0.65304517195E+03  0.00000000000E+00 0. -1.
         21    1    1    2  503  506 -0.10148997074E+03 -0.11126684722E+03  0.46307995222E+03  0.48695335260E+03  0.00000000000E+00 0. -1.
         21    1    1    2  504  501 -0.22060204293E+02  0.20490060172E+02  0.14512823669E+04  0.14515946417E+04  0.00000000000E+00 0. -1.
         21    1    1    2  505  502  0.25110263462E+02  0.39318052460E+02 -0.52321771398E+03  0.52529345208E+03  0.00000000000E+00 0. -1.
         21    1    1    2  506  505  0.98439911576E+02  0.51458734590E+02 -0.90264101330E+02  0.14312940140E+03  0.00000000000E+00 0. -1.
<scales pt_clust_3="148.65051" pt_clust_4="30.10806" pt_clust_5="46.66346" pt_clust_6="14000.00000"></scales>
<clustering>
<clus scale="   30.108">  1  4  2 -1</clus>
<clus scale="   46.663">  2  5  1 -1</clus>
<clus scale="  148.651">  1  3  2 -1</clus>
<clus scale="   30.108">  1  3  2 -1</clus>
</clustering>
</event>
<event>
 6    0  0.6687079E+002  0.1709473E+03  0.7546771E-02  0.1176864E+00
         21   -1    0    0  503  501  0.00000000000E+00  0.00000000000E+00  0.77473785421E+03  0.77473785421E+03  0.00000000000E+00 0. -1.
         21   -1    0    0  504  502 -0.00000000000E+00 -0.00000000000E+00 -0.14883997165E+03  0.14883997165E+03  0.00000000000E+00 0. -1.
         21    1    1    2  503  506  0.14792804210E+03  0.39357322304E+02  0.23058010091E+03  0.27676504005E+03  0.00000000000E+00 0. -1.
         21    1    1    2  504  501  0.58811855737E+02  0.76298300303E+01  0.36132924045E+03  0.36616371841E+03  0.00000000000E+00 0. -1.
         21    1    1    2  505  502 -0.33216421481E+02 -0.37662158295E+02 -0.63845185080E+02  0.81227929195E+02  0.00000000000E+00 0. -1.
         21    1    1    2  506  505 -0.17352347636E+03 -0.93249940395E+01  0.97833726280E+02  0.19942113819E+03  0.00000000000E+00 0. -1.
<scales pt_clust_3="14000.00000" pt_clust_4="58.11713" pt_clust_5="50.21722" pt_clust_6="170.94726"></scales>
<clustering>
<clus scale="   50.217">  2  5  1 -1</clus>
<clus scale="   58.117">  1  4  2 -1</clus>
<clus scale="  170.947">  2  6  1 -1</clus>
<clus scale="   58.117">  1  3  2 -1</clus>
</clustering>
</event>
<event>
 6    0  0.6687079E+002  0.1201339E+03  0.7546771E-02  0.1242876E+00
         21   -1    0    0  505  501  0.00000000000E+00  0.00000000000E+00  0.73793548762E+03  0.73793548762E+03  0.00000000000E+00 0.  1.
         21   -1    0    0  504  502 -0.00000000000E+00 -0.00000000000E+00 -0.18031066820E+03  0.18031066820E+03  0.00000000000E+00 0.  1.
         21    1    1    2  503  501  0.29495633086E+02  0.68627441430E+01  0.48907137333E+02  0.57523888172E+02  0.00000000000E+00 0. -1.
         21    1    1    2  504  503  0.74792731194E+02 -0.95388997568E+02 -0.13831893011E+03  0.18391612197E+03  0.00000000000E+00 0.  1.
         21    1    1    2  505  506  0.23465171630E+02  0.64331164760E+02  0.21884802999E+03  0.22931108405E+03  0.00000000000E+00 0.  1.
         21    1    1    2  506  502 -0.12775353591E+03  0.24195088665E+02  0.42818858219E+03  0.44749506162E+03  0.00000000000E+00 0.  1.
<scales pt_clust_3="30.28349" pt_clust_4="14000.00000" pt_clust_5="74.35922" pt_clust_6="120.13395"></scales>
<clustering>
<clus scale="   30.283">  1  3  2 -1</clus>
<clus scale="   74.359">  1  5  2 -1</clus>
<clus scale="  120.134">  1  6  2 -1</clus>
<clus scale="   30.283">  1  3  2 -1</clus>
</clustering>
</event>
<event>
 6    0  0.6687079E+002  0.2198836E+03  0.7546771E-02  0.1133970E+00
         21   -1    0    0  502  501  0.00000000000E+00  0.00000000000E+00  0.76696747673E+03  0.76696747673E+03  0.00000000000E+00 0.  1.
         21   -1    0    0  504  502 -0.00000000000E+00 -0.00000000000E+00 -0.93301799496E+03  0.93301799496E+03  0.00000000000E+00 0.  1.
         21    1    1    2  503  505  0.36107007544E+02  0.14930182022E+03 -0.27573549349E+02  0.15606104619E+03  0.00000000000E+00 0.  1.
         21    1    1    2  504  506 -0.15415657229E+03 -0.12040551696E+03 -0.79011019930E+03  0.81396306080E+03  0.00000000000E+00 0.  1.
         21    1    1    2  505  501  0.49171336967E+02 -0.54751935077E+02  0.65224922082E+03  0.65638756907E+03  0.00000000000E+00 0.  1.
         21    1    1    2  506  503  0.68878227782E+02  0.25855631825E+02 -0.61599039174E+00  0.73573795631E+02  0.00000000000E+00 0.  1.
<scales pt_clust_3="70.01711" pt_clust_4="195.22631" pt_clust_5="73.59072" pt_clust_6="70.01711"></scales>
<clustering>
<clus scale="   70.017">  3  6 -1 -1</clus>
<clus scale="   73.591">  1  5  2 -1</clus>
<clus scale="  195.226">  2  4  1 -1</clus>
<clus scale="   73.591">  1  3  2 -1</clus>
</clustering>
</event>
<event>
 6    0  0.6687079E+002  0.2172445E+03  0.7546771E-02  0.1135954E+00
         21   -1    0    0  503  501  0.00000000000E+00  0.00000000000E+00  0.52735089238E+03  0.52735089238E+03  0.00000000000E+00 0. -1.
         21   -1    0    0  506  502 -0.00000000000E+00 -0.00000000000E+00 -0.27255065818E+03  0.27255065818E+03  0.00000000000E+00 0. -1.
         21    1    1    2  503  504  0.18389924981E+03  0.97606199767E+02  0.43035718617E+03  0.47807239201E+03  0.00000000000E+00 0. -1.
         21    1    1    2  504  502  0.30279561133E+01  0.32148395592E+02 -0.66925811588E+01  0.32976938911E+02  0.00000000000E+00 0.  1.
         21    1    1    2  505  501 -0.76023067832E+02 -0.86548146997E+02 -0.78207948724E+02  0.13923567012E+03  0.00000000000E+00 0. -1.
         21    1    1    2  506  505 -0.11090413809E+03 -0.43206448361E+02 -0.90656422079E+02  0.14961654952E+03  0.00000000000E+00 0. -1.
<scales pt_clust_3="209.88758" pt_clust_4="32.29068" pt_clust_5="53.85370" pt_clust_6="53.85370"></scales>
<clustering>
<clus scale="   32.291">  2  4  1 -1</clus>
<clus scale="   53.854">  5  6 -1 -1</clus>
<clus scale="  209.888">  1  3  2 -1</clus>
<clus scale="  209.888">  1  3  2 -1</clus>
</clustering>
</event>
<event>
 6    0  0.6687079E+002  0.1146158E+03  0.7546771E-02  0.1252253E+00
         21   -1    0    0  505  501  0.00000000000E+00  0.00000000000E+00  0.65696278167E+03  0.65696278167E+03  0.00000000000E+00 0.  1.
         21   -1    0    0  503  502 -0.00000000000E+00 -0.00000000000E+00 -0.22504660023E+03  0.22504660023E+03  0.00000000000E+00 0. -1.
         21    1    1    2  503  506 -0.55789896667E+02  0.10221559871E+03 -0.18707470260E+03  0.22035763100E+03  0.00000000000E+00 0. -1.
         21    1    1    2  504  501  0.80228934477E+02 -0.19628663063E+02  0.16187069493E+03  0.18172530979E+03  0.00000000000E+00 0.  1.
         21    1    1    2  505  502 -0.33578907938E+02 -0.11263001211E+02  0.28903880392E+02  0.45714686440E+02  0.00000000000E+00 0. -1.
         21    1    1    2  506  504  0.91398701269E+01 -0.71323934433E+02  0.42821630872E+03  0.43421175468E+03  0.00000000000E+00 0.  1.
<scales pt_clust_3="114.61582" pt_clust_4="74.47926" pt_clust_5="35.41749" pt_clust_6="14000.00000"></scales>
<clustering>
<clus scale="   35.417">  1  5  2 -1</clus>
<clus scale="   74.479">  1  4  2 -1</clus>
<clus scale="  114.616">  2  3  1 -1</clus>
<clus scale="   35.417">  1  3  2 -1</clus>
</clustering>
</event>
<event>
 6    0  0.6687079E+002  0.1034114E+03  0.7546771E-02  0.1273281E+00
         21   -1    0    0  503  501  0.00000000000E+00  0.00000000000E+00  0.86205406229E+03  0.86205406229E+03  0.00000000000E+00 0. -1.
         21   -1    0    0  505  502 -0.00000000000E+00 -0.00000000000E+00 -0.75296577302E+02  0.75296577302E+02  0.00000000000E+00 0. -1.
         21    1    1    2  503  504  0.33509857225E+02 -0.81929336316E+02  0.13916356540E+03  0.16492975661E+03  0.00000000000E+00 0. -1.
         21    1    1    2  504  502 -0.70169692897E+02  0.14506923205E+01  0.36303051373E+02  0.79017731228E+02  0.00000000000E+00 0. -1.
         21    1    1    2  505  506  0.85970490728E+02  0.12125630537E+03  0.10238459745E+03  0.18048995170E+03  0.00000000000E+00 0. -1.
         21    1    1    2  506  501 -0.49310655056E+02 -0.40777661378E+02  0.50890627077E+03  0.51291320006E+03  0.00000000000E+00 0. -1.
<scales pt_clust_3="103.41143" pt_clust_4="78.44242" pt_clust_5="14000.00000" pt_clust_6="63.98717"></scales>
<clustering>
<clus scale="   63.987">  1  6  2 -1</clus>
<clus scale="   78.442">  2  4  1 -1</clus>
<clus scale="  103.411">  1  3  2 -1</clus>
<clus scale="   63.987">  1  3  2 -1</clus>
</clustering>
</event>
<event>
 6    0  0.6687079E+002  0.7542762E+02  0.7546771E-02  0.1342552E+00
         21   -1    0    0  505  501  0.00000000000E+00  0.00000000000E+00  0.90717431626E+03  0.90717431626E+03  0.00000000000E+00 0. -1.
         21   -1    0    0  503  502 -0.00000000000E+00 -0.00000000000E+00 -0.25847580403E+02  0.25847580403E+02  0.00000000000E+00 0. -1.
         21    1    1    2  503  501  0.63739261655E+02  0.20203912102E+02  0.12675610244E+03  0.14331085460E+03  0.00000000000E+00 0. -1.
         21    1    1    2  504  502 -0.36605505231E+02  0.14308951556E+01  0.40314622802E+02  0.54472738924E+02  0.00000000000E+00 0. -1.
         21    1    1    2  505  506 -0.41155025614E+02  0.61614588907E+02  0.49089739774E+03  0.49645780164E+03  0.00000000000E+00 0. -1.
         21    1    1    2  506  504  0.14021269190E+02 -0.83249396165E+02  0.22335861287E+03  0.23878050150E+03  0.00000000000E+00 0. -1.
<scales pt_clust_3="51.95587" pt_clust_4="36.63346" pt_clust_5="75.42762" pt_clust_6="14000.00000"></scales>
<clustering>
<clus scale="   36.633">  2  4  1 -1</clus>
<clus scale="   51.956">  2  3  1 -1</clus>
<clus scale="   75.428">  1  5  2 -1</clus>
<clus scale="   75.428">  1  3  2 -1</clus>
</clustering>
</event>
<event>
 6    0  0.6687079E+002  0.8234417E+02  0.7546771E-02  0.1322528E+00
         21   -1    0    0  505  501  0.00000000000E+00  0.00000000000E+00  0.17357166008E+03  0.17357166008E+03  0.00000000000E+00 0. -1.
         21   -1    0    0  503  502 -0.00000000000E+00 -0.00000000000E+00 -0.41890800006E+03  0.41890800006E+03  0.00000000000E+00 0.  1.
         21    1    1    2  503  506 -0.10205604085E+03  0.11960539089E+01 -0.70744612944E+02  0.12418400171E+03  0.00000000000E+00 0.  1.
         21    1    1    2  504  502  0.58834576192E+02  0.18018121941E+02 -0.20129907087E+03  0.21049341084E+03  0.00000000000E+00 0.  1.
         21    1    1    2  505  504  0.48194328446E+02 -0.64334907056E+02 -0.97029501031E+02  0.12600157789E+03  0.00000000000E+00 0.  1.
         21    1    1    2  506  501 -0.49728637877E+01  0.45120731206E+02  0.12373684486E+03  0.13180066971E+03  0.00000000000E+00 0. -1.
<scales pt_clust_3="14000.00000" pt_clust_4="62.54106" pt_clust_5="82.34417" pt_clust_6="45.39394"></scales>
<clustering>
<clus scale="   45.394">  1  6  2 -1</clus>
<clus scale="   62.541">  2  4  1 -1</clus>
<clus scale="   82.344">  1  5  2 -1</clus>
<clus scale="   45.394">  1  3  2 -1</clus>
</clustering>
</event>
<event>
 6    0  0.6687079E+002  0.7965270E+02  0.7546771E-02  0.1330040E+00
         21   -1    0    0  503  501  0.00000000000E+00  0.00000000000E+00  0.71006017447E+02  0.71006017447E+02  0.00000000000E+00 0. -1.
         21   -1    0    0  505  502 -0.00000000000E+00 -0.00000000000E+00 -0.77943734399E+03  0.77943734399E+03  0.00000000000E+00 0. -1.
         21    1    1    2  503  506  0.67136502621E+02  0.26603408195E+02 -0.24096652387E+02  0.76129494731E+02  0.00000000000E+00 0. -1.
         21    1    1    2  504  502 -0.20731235998E+00 -0.54077629528E+02 -0.54939218098E+03  0.55204728195E+03  0.00000000000E+00 0. -1.
         21    1    1    2  505  501 -0.86125370152E+02 -0.45684911279E+02 -0.97463430077E+02  0.13785430971E+03  0.00000000000E+00 0. -1.
         21    1    1    2  506  504  0.19196179891E+02  0.73159132613E+02 -0.37479063101E+02  0.84412275043E+02  0.00000000000E+00 0. -1.
<scales pt_clust_3="79.65270" pt_clust_4="54.07803" pt_clust_5="14000.00000" pt_clust_6="61.78874"></scales>
<clustering>
<clus scale="   54.078">  2  4  1 -1</clus>
<clus scale="   61.789">  2  6  1 -1</clus>
<clus scale="   79.653">  1  3  2 -1</clus>
<clus scale="   79.653">  1  3  2 -1</clus>
</clustering>
</event>
<event>
 6    0  0.6687079E+002  0.2091926E+03  0.7546771E-02  0.1142207E+00
         21   -1    0    0  505  501  0.00000000000E+00  0.00000000000E+00  0.38682040801E+03  0.38682040801E+03  0.00000000000E+00 0.  1.
         21   -1    0    0  504  502 -0.00000000000E+00 -0.00000000000E+00 -0.86056164244E+03  0.86056164244E+03  0.00000000000E+00 0.  1.
         21    1    1    2  503  506  0.73482486426E+01  0.16699755552E+03 -0.14339405448E+03  0.22023631665E+03  0.00000000000E+00 0. -1.
         21    1    1    2  504  501 -0.27422260254E+02 -0.20065429453E+03  0.27176477297E+03  0.33892509217E+03  0.00000000000E+00 0.  1.
         21    1    1    2  505  503  0.29160762950E+02 -0.23086256766E+02  0.33476272148E+02  0.50039845565E+02  0.00000000000E+00 0.  1.
         21    1    1    2  506  502 -0.90867513388E+01  0.56742995774E+02 -0.63558822507E+03  0.63818079607E+03  0.00000000000E+00 0.  1.
<scales pt_clust_3="209.19262" pt_clust_4="14000.00000" pt_clust_5="37.19308" pt_clust_6="57.36308"></scales>
<clustering>
<clus scale="   37.193">  1  5  2 -1</clus>
<clus scale="   57.363">  2  6  1 -1</clus>
<clus scale="  209.193">  2  3  1 -1</clus>
<clus scale="   37.193">  1  3  2 -1</clus>
</clustering>
</event>
<event>
 6    0  0.6687079E+002  0.2235305E+03  0.7546771E-02  0.1131278E+00
         21   -1    0    0  505  501  0.00000000000E+00  0.00000000000E+00  0.39028711135E+03  0.39028711135E+03  0.00000000000E+00 0. -1.
         21   -1    0    0  504  502 -0.00000000000E+00 -0.00000000000E+00 -0.11788253557E+04  0.11788253557E+04  0.00000000000E+00 0. -1.
         21    1    1    2  503  506 -0.49639552783E+02 -0.79483082058E+02 -0.78694821183E+02  0.12237042296E+03  0.00000000000E+00 0. -1.
         21    1    1    2  504  501  0.18045791071E+03  0.12659275338E+03  0.28990325077E+03  0.36419044133E+03  0.00000000000E+00 0. -1.
         21    1    1    2  505  503 -0.86988984322E+02 -0.78349638873E+02 -0.43654830741E+02  0.12494596253E+03  0.00000000000E+00 0. -1.
         21    1    1    2  506  502 -0.43829373609E+02  0.31239967555E+02 -0.95609184317E+03  0.95760564020E+03  0.00000000000E+00 0. -1.
<scales pt_clust_3="45.77264" pt_clust_4="217.59697" pt_clust_5="45.77264" pt_clust_6="53.82332"></scales>
<clustering>
<clus scale="   45.773">  3  5 -1 -1</clus>
<clus scale="   53.823">  2  6  1 -1</clus>
<clus scale="  217.597">  1  4  2 -1</clus>
<clus scale="  217.597">  1  3  2 -1</clus>
</clustering>
</event>
<event>
 6    0  0.6687079E+002  0.9771421E+02  0.7546771E-02  0.1285177E+00
         21   -1    0    0  506  501  0.00000000000E+00  0.00000000000E+00  0.10362332721E+04  0.10362332721E+04  0.00000000000E+00 0. -1.
         21   -1    0    0  505  502 -0.00000000000E+00 -0.00000000000E+00 -0.23081464613E+02  0.23081464613E+02  0.00000000000E+00 0. -1.
         21    1    1    2  503  502  0.50267188567E+02 -0.21169162915E+02  0.12815113710E+03  0.13927540215E+03  0.00000000000E+00 0. -1.
         21    1    1    2  504  501 -0.60752977516E+02 -0.27309872022E+01  0.58479551257E+03  0.58794912543E+03  0.00000000000E+00 0. -1.
         21    1    1    2  505  504 -0.14078140137E+02  0.79737303161E+02  0.17372704051E+03  0.19166981022E+03  0.00000000000E+00 0. -1.
         21    1    1    2  506  503  0.24563929086E+02 -0.55837153044E+02  0.12647811727E+03  0.14042039888E+03  0.00000000000E+00 0. -1.
<scales pt_clust_3="40.82476" pt_clust_4="60.81433" pt_clust_5="87.65873" pt_clust_6="40.82476"></scales>
<clustering>
<clus scale="   40.825">  3  6 -1 -1</clus>
<clus scale="   60.814">  1  4  2 -1</clus>
<clus scale="   87.659">  2  5  1 -1</clus>
<clus scale="   60.814">  1  3  2 -1</clus>
</clustering>
</event>
<event>
 6    0  0.6687079E+002  0.7620014E+02  0.7546771E-02  0.1340194E+00
         21   -1    0    0  503  501  0.00000000000E+00  0.00000000000E+00  0.42579922486E+02  0.42579922486E+02  0.00000000000E+00 0. -1.
         21   -1    0    0  506  502 -0.00000000000E+00 -0.00000000000E+00 -0.46076519261E+03  0.46076519261E+03  0.00000000000E+00 0. -1.
         21    1    1    2  503  502 -0.40787627469E+02 -0.45518751903E+02 -0.90785808758E+02  0.10944245246E+03  0.00000000000E+00 0. -1.
         21    1    1    2  504  501 -0.60812672676E+02  0.20237738862E+02 -0.49510252054E+02  0.80987729260E+02  0.00000000000E+00 0.  1.
         21    1    1    2  505  504  0.83896279410E+02  0.53733970250E+02 -0.14543629330E+03  0.17628851541E+03  0.00000000000E+00 0. -1.
         21    1    1    2  506  505  0.17704020735E+02 -0.28452957210E+02 -0.13245291602E+03  0.13662641797E+03  0.00000000000E+00 0. -1.
<scales pt_clust_3="76.20014" pt_clust_4="59.09021" pt_clust_5="14000.00000" pt_clust_6="33.51124"></scales>
<clustering>
<clus scale="   33.511">  2  6  1 -1</clus>
<clus scale="   59.090">  1  4  2 -1</clus>
<clus scale="   76.200">  2  3  1 -1</clus>
<clus scale="   59.090">  1  3  2 -1</clus>
</clustering>
</event>
<event>
 6    0  0.6687079E+002  0.1688689E+03  0.7546771E-02  0.1179033E+00
         21   -1    0    0  506  501  0.00000000000E+00  0.00000000000E+00  0.57161529794E+03  0.57161529794E+03  0.00000000000E+00 0. -1.
         21   -1    0    0  503  502 -0.00000000000E+00 -0.00000000000E+00 -0.28295222665E+03  0.28295222665E+03  0.00000000000E+00 0. -1.
         21    1    1    2  503  505  0.12078020173E+02 -0.16481433827E+03 -0.23173169001E+03  0.28462118829E+03  0.00000000000E+00 0. -1.
         21    1    1    2  504  501 -0.31099042785E+02  0.58426031119E+02  0.11202734500E+03  0.13011870581E+03  0.00000000000E+00 0. -1.
         21    1    1    2  505  504  0.46713411294E+01  0.79379966414E+02  0.90412666384E+02  0.12040536009E+03  0.00000000000E+00 0. -1.
         21    1    1    2  506  502  0.14349681482E+02  0.27008340732E+02  0.31795474992E+03  0.31942227039E+03  0.00000000000E+00 0. -1.
<scales pt_clust_3="162.55857" pt_clust_4="41.55683" pt_clust_5="41.55683" pt_clust_6="30.58372"></scales>
<clustering>
<clus scale="   30.584">  1  6  2 -1</clus>
<clus scale="   41.557">  4  5 -1 -1</clus>
<clus scale="  162.559">  2  3  1 -1</clus>
<clus scale="   30.584">  1  3  2 -1</clus>
</clustering>
</event>
<event>
 6    0  0.6687079E+002  0.1646814E+03  0.7546771E-02  0.1183511E+00
         21   -1    0    0  503  501  0.00000000000E+00  0.00000000000E+00  0.64837304320E+03  0.64837304320E+03  0.00000000000E+00 0. -1.
         21   -1    0    0  504  502 -0.00000000000E+00 -0.00000000000E+00 -0.10286623472E+03  0.10286623472E+03  0.00000000000E+00 0. -1.
         21    1    1    2  503  502 -0.52651350380E+02 -0.15619801582E+03  0.42565191500E+02  0.17024036058E+03  0.00000000000E+00 0. -1.
         21    1    1    2  504  505  0.75932093253E+02  0.50691699015E+02  0.10133785508E+03  0.13639901762E+03  0.00000000000E+00 0. -1.
         21    1    1    2  505  506  0.66415380988E+02  0.51984030781E+02  0.14829628211E+03  0.17060225548E+03  0.00000000000E+00 0. -1.
         21    1    1    2  506  501 -0.89696123861E+02  0.53522286020E+02  0.25330747979E+03  0.27399764425E+03  0.00000000000E+00 0. -1.
<scales pt_clust_3="161.22184" pt_clust_4="32.27307" pt_clust_5="32.27307" pt_clust_6="104.45109"></scales>
<clustering>
<clus scale="   32.273">  4  5 -1 -1</clus>
<clus scale="  104.451">  1  6  2 -1</clus>
<clus scale="  161.222">  2  3  1 -1</clus>
<clus scale="  104.451">  1  3  2 -1</clus>
</clustering>
</event>
<event>
 6    0  0.6687079E+002  0.1088279E+03  0.7546771E-02  0.1262756E+00
         21   -1    0    0  506  501  0.00000000000E+00  0.00000000000E+00  0.14551847342E+03  0.14551847342E+03  0.00000000000E+00 0.  1.
         21   -1    0    0  505  502 -0.00000000000E+00 -0.00000000000E+00 -0.30322070559E+03  0.30322070559E+03  0.00000000000E+00 0.  1.
         21    1    1    2  503  502  0.19014380298E+01  0.30906626993E+02 -0.19043914391E+02  0.36352520325E+02  0.00000000000E+00 0. -1.
         21    1    1    2  504  501  0.13480185639E+03 -0.12481668337E+02 -0.26730899150E+02  0.13799229508E+03  0.00000000000E+00 0.  1.
         21    1    1    2  505  504 -0.10068040321E+03 -0.20511421809E+02 -0.17430328032E+03  0.20233362436E+03  0.00000000000E+00 0.  1.
         21    1    1    2  506  503 -0.36022891206E+02  0.20864631536E+01  0.62375861696E+02  0.72060739253E+02  0.00000000000E+00 0.  1.
<scales pt_clust_3="30.96506" pt_clust_4="14000.00000" pt_clust_5="108.82793" pt_clust_6="36.08542"></scales>
<clustering>
<clus scale="   30.965">  2  3  1 -1</clus>
<clus scale="   36.085">  1  6  2 -1</clus>
<clus scale="  108.828">  2  5  1 -1</clus>
<clus scale="   36.085">  1  3  2 -1</clus>
</clustering>
</event>
<event>
 6    0  0.6687079E+002  0.7686304E+02  0.7546771E-02  0.1338197E+00
         21   -1    0    0  503  501  0.00000000000E+00  0.00000000000E+00  0.82025398392E+03  0.82025398392E+03  0.00000000000E+00 0. -1.
         21   -1    0    0  505  502 -0.00000000000E+00 -0.00000000000E+00 -0.13585244698E+03  0.13585244698E+03  0.00000000000E+00 0.  1.
         21    1    1    2  503  506  0.65928689338E+02  0.23078769953E+02  0.39241132193E+03  0.39857981294E+03  0.00000000000E+00 0. -1.
         21    1    1    2  504  501 -0.10290504522E+03  0.20167925099E+02  0.32698488565E+03  0.34338798608E+03  0.00000000000E+00 0. -1.
         21    1    1    2  505  504 -0.26156299491E+02 -0.22315658276E+02 -0.10920178750E+03  0.11448655380E+03  0.00000000000E+00 0.  1.
         21    1    1    2  506  502  0.63132655374E+02 -0.20931036776E+02  0.74207116862E+02  0.99652078092E+02  0.00000000000E+00 0. -1.
<scales pt_clust_3="14000.00000" pt_clust_4="76.86304" pt_clust_5="34.38227" pt_clust_6="59.16681"></scales>
<clustering>
<clus scale="   34.382">  2  5  1 -1</clus>
<clus scale="   59.167">  2  6  1 -1</clus>
<clus scale="   76.863">  2  4  1 -1</clus>
<clus scale="   76.863">  1  3  2 -1</clus>
</clustering>
</event>
<event>
 6    0  0.6687079E+002  0.7961269E+02  0.7546771E-02  0.1330154E+00
         21   -1    0    0  506  501  0.00000000000E+00  0.00000000000E+00  0.28356094959E+03  0.28356094959E+03  0.00000000000E+00 0.  1.
         21   -1    0    0  503  502 -0.00000000000E+00 -0.00000000000E+00 -0.18374495603E+03  0.18374495603E+03  0.00000000000E+00 0.  1.
         21    1    1    2  503  505 -0.39880536759E+02  0.89790966822E+02  0.13072782666E+03  0.16353176938E+03  0.00000000000E+00 0.  1.
         21    1    1    2  504  502  0.44664790113E+01 -0.36442901767E+02 -0.11676750577E+03  0.12240377824E+03  0.00000000000E+00 0.  1.
         21    1    1    2  505  501 -0.41853290049E+02 -0.59728755076E+02  0.72239106407E+02  0.10265335146E+03  0.00000000000E+00 0.  1.
         21    1    1    2  506  504  0.77267347797E+02  0.63806900206E+01  0.13616566271E+02  0.78717006534E+02  0.00000000000E+00 0. -1.
<scales pt_clust_3="14000.00000" pt_clust_4="36.71559" pt_clust_5="79.61269" pt_clust_6="74.76839"></scales>
<clustering>
<clus scale="   36.716">  2  4  1 -1</clus>
<clus scale="   79.613">  1  5  2 -1</clus>
<clus scale="   74.768">  2  6  1 -1</clus>
<clus scale="   79.613">  1  3  2 -1</clus>
</clustering>
</event>
<event>
 6    0  0.6687079E+002  0.1383456E+03  0.7546771E-02  0.1215573E+00
         21   -1    0    0  504  501  0.00000000000E+00  0.00000000000E+00  0.24398749237E+02  0.24398749237E+02  0.00000000000E+00 0. -1.
         21   -1    0    0  506  502 -0.00000000000E+00 -0.00000000000E+00 -0.14454874642E+04  0.14454874642E+04  0.00000000000E+00 0. -1.
         21    1    1    2  503  501 -0.70632647013E+02 -0.80436990769E+01 -0.22058156263E+03  0.23175395939E+03  0.00000000000E+00 0. -1.
         21    1    1    2  504  505  0.60916423517E+02 -0.28261601773E+02 -0.10033520605E+03  0.12073393211E+03  0.00000000000E+00 0. -1.
         21    1    1    2  505  502  0.98494512121E+02 -0.62384139500E+00 -0.50613633613E+03  0.51563121399E+03  0.00000000000E+00 0. -1.
         21    1    1    2  506  503 -0.88778288625E+02  0.36929142245E+02 -0.59403561015E+03  0.60176710794E+03  0.00000000000E+00 0. -1.
<scales pt_clust_3="60.25075" pt_clust_4="67.15303" pt_clust_5="119.28742" pt_clust_6="60.25075"></scales>
<clustering>
<clus scale="   60.251">  3  6 -1 -1</clus>
<clus scale="   67.153">  1  4  2 -1</clus>
<clus scale="  119.287">  2  5  1 -1</clus>
<clus scale="   67.153">  1  3  2 -1</clus>
</clustering>
</event>
<event>
 6    0  0.6687079E+002  0.6782936E+02  0.7546771E-02  0.1367634E+00
         21   -1    0    0  506  501  0.00000000000E+00  0.00000000000E+00  0.29229503101E+03  0.29229503101E+03  0.00000000000E+00 0.  1.
         21   -1    0    0  503  502 -0.00000000000E+00 -0.00000000000E+00 -0.35779331496E+03  0.35779331496E+03  0.00000000000E+00 0. -1.
         21    1    1    2  503  504 -0.64043329907E+02 -0.28070555691E+02 -0.65510387596E+02  0.95818135472E+02  0.00000000000E+00 0.  1.
         21    1    1    2  504  501 -0.58131938193E+02 -0.45975381445E+01  0.15893683020E+02  0.60440621729E+02  0.00000000000E+00 0.  1.
         21    1    1    2  505  502  0.57119901809E+02  0.49918851509E+01 -0.24626025066E+03  0.25284721307E+03  0.00000000000E+00 0. -1.
         21    1    1    2  506  505  0.65055366291E+02  0.27676208685E+02  0.23037867129E+03  0.24098237570E+03  0.00000000000E+00 0.  1.
<scales pt_clust_3="32.46745" pt_clust_4="14000.00000" pt_clust_5="57.33762" pt_clust_6="67.82936"></scales>
<clustering>
<clus scale="   57.338">  2  5  1 -1</clus>
<clus scale="   32.467">  2  3  1 -1</clus>
<clus scale="   67.829">  1  6  2 -1</clus>
<clus scale="   67.829">  1  3  2 -1</clus>
</clustering>
</event>
<event>
 6    0  0.6687079E+002  0.8710102E+02  0.7546771E-02  0.1310028E+00
         21   -1    0    0  504  501  0.00000000000E+00  0.00000000000E+00  0.21988601562E+03  0.21988601562E+03  0.00000000000E+00 0.  1.
         21   -1    0    0  503  502 -0.00000000000E+00 -0.00000000000E+00 -0.22733302223E+03  0.22733302223E+03  0.00000000000E+00 0.  1.
         21    1    1    2  503  506  0.16502516052E+02  0.88763017184E+02 -0.18133437522E+03  0.20256693188E+03  0.00000000000E+00 0.  1.
         21    1    1    2  504  502 -0.64572464530E+02 -0.62172652294E+01  0.67619524098E+02  0.93705163154E+02  0.00000000000E+00 0.  1.
         21    1    1    2  505  501  0.19349584572E+02 -0.23070270960E+02  0.57230103406E+01  0.30649578669E+02  0.00000000000E+00 0. -1.
         21    1    1    2  506  505  0.28720363906E+02 -0.59475480995E+02  0.10054483417E+03  0.12029736414E+03  0.00000000000E+00 0.  1.
<scales pt_clust_3="14000.00000" pt_clust_4="58.89513" pt_clust_5="30.11053" pt_clust_6="87.10102"></scales>
<clustering>
<clus scale="   30.111">  1  5  2 -1</clus>
<clus scale="   58.895">  1  4  2 -1</clus>
<clus scale="   87.101">  1  6  2 -1</clus>
<clus scale="   30.111">  1  3  2 -1</clus>
</clustering>
</event>
<event>
 6    0  0.6687079E+002  0.7907406E+02  0.7546771E-02  0.1331700E+00
         21   -1    0    0  505  501  0.00000000000E+00  0.00000000000E+00  0.18971651406E+03  0.18971651406E+03  0.00000000000E+00 0.  1.
         21   -1    0    0  504  502 -0.00000000000E+00 -0.00000000000E+00 -0.15860135063E+04  0.15860135063E+04  0.00000000000E+00 0. -1.
         21    1    1    2  503  501 -0.29998265180E+02  0.23615911565E+02  0.16049333376E+02  0.41414831819E+02  0.00000000000E+00 0.  1.
         21    1    1    2  504  503 -0.76486332735E+02 -0.61168209213E+02  0.81953094079E+02  0.12770285252E+03  0.00000000000E+00 0.  1.
         21    1    1    2  505  506  0.40360402585E+02 -0.54863737379E+01  0.47626899078E+02  0.62668843210E+02  0.00000000000E+00 0.  1.
         21    1    1    2  506  502  0.66124195330E+02  0.43038671387E+02 -0.15419263188E+04  0.15439434928E+04  0.00000000000E+00 0. -1.
<scales pt_clust_3="38.17862" pt_clust_4="79.07406" pt_clust_5="30.19646" pt_clust_6="14000.00000"></scales>
<clustering>
<clus scale="   38.179">  1  3  2 -1</clus>
<clus scale="   30.196">  1  5  2 -1</clus>
<clus scale="   79.074">  1  4  2 -1</clus>
<clus scale="   38.179">  1  3  2 -1</clus>
</clustering>
</event>
<event>
 6    0  0.6687079E+002  0.8852371E+02  0.7546771E-02  0.1306467E+00
         21   -1    0    0  504  501  0.00000000000E+00  0.00000000000E+00  0.40420388734E+03  0.40420388734E+03  0.00000000000E+00 0. -1.
         21   -1    0    0  506  502 -0.00000000000E+00 -0.00000000000E+00 -0.46428248389E+03  0.46428248389E+03  0.00000000000E+00 0. -1.
         21    1    1    2  503  501 -0.39655760702E+02 -0.18997438204E-01  0.25544486338E+03  0.25850465749E+03  0.00000000000E+00 0. -1.
         21    1    1    2  504  505 -0.32997676994E+02  0.10874616031E+03 -0.21390936882E+02  0.11563799657E+03  0.00000000000E+00 0. -1.
         21    1    1    2  505  502  0.38566028429E+02 -0.77008370274E+02 -0.38378009728E+03  0.39332529885E+03  0.00000000000E+00 0. -1.
         21    1    1    2  506  503  0.34087409268E+02 -0.31718792598E+02  0.89647574233E+02  0.10101841832E+03  0.00000000000E+00 0. -1.
<scales pt_clust_3="39.65577" pt_clust_4="14000.00000" pt_clust_5="88.52371" pt_clust_6="32.82660"></scales>
<clustering>
<clus scale="   39.656">  1  3  2 -1</clus>
<clus scale="   32.827">  1  6  2 -1</clus>
<clus scale="   88.524">  2  5  1 -1</clus>
<clus scale="   39.656">  1  3  2 -1</clus>
</clustering>
</event>
<event>
 6    0  0.6687079E+002  0.1960639E+03  0.7546771E-02  0.1153103E+00
         21   -1    0    0  503  501  0.00000000000E+00  0.00000000000E+00  0.17043686153E+03  0.17043686153E+03  0.00000000000E+00 0. -1.
         21   -1    0    0  505  502 -0.00000000000E+00 -0.00000000000E+00 -0.42053441691E+03  0.42053441691E+03  0.00000000000E+00 0. -1.
         21    1    1    2  503  502  0.73154678424E+02  0.23219939270E+00 -0.15058630726E+02  0.74688842883E+02  0.00000000000E+00 0. -1.
         21    1    1    2  504  506 -0.57264728148E+02 -0.18992971779E+03 -0.74526278370E+02  0.21191204062E+03  0.00000000000E+00 0. -1.
         21    1    1    2  505  504  0.28033426964E+02  0.19340556761E+03 -0.17029981178E+03  0.25921730749E+03  0.00000000000E+00 0. -1.
         21    1    1    2  506  501 -0.43923377239E+02 -0.37080492110E+01  0.97871654930E+01  0.45153087441E+02  0.00000000000E+00 0.  1.
<scales pt_clust_3="63.99693" pt_clust_4="196.06387" pt_clust_5="14000.00000" pt_clust_6="44.07962"></scales>
<clustering>
<clus scale="   44.080">  1  6  2 -1</clus>
<clus scale="   63.997">  1  3  2 -1</clus>
<clus scale="  196.064">  1  4  2 -1</clus>
<clus scale="   44.080">  1  3  2 -1</clus>
</clustering>
</event>
<event>
 6    0  0.6687079E+002  0.1655772E+03  0.7546771E-02  0.1182540E+00
         21   -1    0    0  505  501  0.00000000000E+00  0.00000000000E+00  0.63224674752E+03  0.63224674752E+03  0.00000000000E+00 0.  1.
         21   -1    0    0  503  502 -0.00000000000E+00 -0.00000000000E+00 -0.11998911836E+03  0.11998911836E+03  0.00000000000E+00 0.  1.
         21    1    1    2  503  501 -0.10947147597E+03 -0.78322998381E+02  0.42964507364E+02  0.14129559448E+03  0.00000000000E+00 0.  1.
         21    1    1    2  504  506  0.16708175154E+03 -0.16288689769E+02  0.81540981949E+02  0.18662948548E+03  0.00000000000E+00 0.  1.
         21    1    1    2  505  504 -0.84773900284E+02  0.66866081190E+02  0.36190018810E+03  0.37766312122E+03  0.00000000000E+00 0.  1.
         21    1    1    2  506  502  0.27163624716E+02  0.27745606961E+02  0.25851951744E+02  0.46647664704E+02  0.00000000000E+00 0. -1.
<scales pt_clust_3="149.64404" pt_clust_4="34.08349" pt_clust_5="107.97077" pt_clust_6="34.08349"></scales>
<clustering>
<clus scale="   34.083">  4  6 -1 -1</clus>
<clus scale="  107.971">  1  5  2 -1</clus>
<clus scale="  149.644">  2  3  1 -1</clus>
<clus scale="  107.971">  1  3  2 -1</clus>
</clustering>
</event>
<event>
 6    0  0.6687079E+002  0.1109634E+03  0.7546771E-02  0.1258796E+00
         21   -1    0    0  503  501  0.00000000000E+00  0.00000000000E+00  0.13403528007E+03  0.13403528007E+03  0.00000000000E+00 0.  1.
         21   -1    0    0  501  502 -0.00000000000E+00 -0.00000000000E+00 -0.11898640719E+04  0.11898640719E+04  0.00000000000E+00 0. -1.
         21    1    1    2  503  505  0.52570156836E+02 -0.98936049531E+00  0.11815627796E+03  0.12932712880E+03  0.00000000000E+00 0.  1.
         21    1    1    2  504  502  0.37975834652E+02  0.83071586896E+02 -0.44682134082E+03  0.45606179754E+03  0.00000000000E+00 0. -1.
         21    1    1    2  505  506 -0.45914717643E+02 -0.67092074897E+02 -0.49332649594E+03  0.49998053903E+03  0.00000000000E+00 0. -1.
         21    1    1    2  506  504 -0.44631273845E+02 -0.14990151503E+02 -0.23383723308E+03  0.23852988664E+03  0.00000000000E+00 0. -1.
<scales pt_clust_3="52.57947" pt_clust_4="103.04554" pt_clust_5="31.32578" pt_clust_6="31.32578"></scales>
<clustering>
<clus scale="   31.326">  5  6 -1 -1</clus>
<clus scale="   52.579">  1  3  2 -1</clus>
<clus scale="  103.046">  2  4  1 -1</clus>
<clus scale="   52.579">  1  3  2 -1</clus>
</clustering>
</event>
<event>
 6    0  0.6687079E+002  0.8642170E+02  0.7546771E-02  0.1311756E+00
         21   -1    0    0  506  501  0.00000000000E+00  0.00000000000E+00  0.30289933733E+04  0.30289933733E+04  0.00000000000E+00 0.  1.
         21   -1    0    0  504  502 -0.00000000000E+00 -0.00000000000E+00 -0.45062242932E+03  0.45062242932E+03  0.00000000000E+00 0. -1.
         21    1    1    2  503  501 -0.82985832248E+02 -0.77847544001E+02 -0.12612514925E+03  0.16986595225E+03  0.00000000000E+00 0. -1.
         21    1    1    2  504  503  0.63200761357E+02  0.12059559308E+02 -0.26624217196E+03  0.27390630393E+03  0.00000000000E+00 0. -1.
         21    1    1    2  505  502  0.32245771850E+02 -0.79579483959E+01 -0.23490566371E+02  0.40680774984E+02  0.00000000000E+00 0.  1.
         21    1    1    2  506  505 -0.12460700960E+02  0.73745933089E+02  0.29942288316E+04  0.29951627715E+04  0.00000000000E+00 0.  1.
<scales pt_clust_3="14000.00000" pt_clust_4="86.42170" pt_clust_5="33.21323" pt_clust_6="74.77651"></scales>
<clustering>
<clus scale="   33.213">  2  5  1 -1</clus>
<clus scale="   74.777">  1  6  2 -1</clus>
<clus scale="   86.422">  2  4  1 -1</clus>
<clus scale="   74.777">  1  3  2 -1</clus>
</clustering>
</event>
<event>
 6    0  0.6687079E+002  0.1497530E+03  0.7546771E-02  0.1200777E+00
         21   -1    0    0  505  501  0.00000000000E+00  0.00000000000E+00  0.47647875821E+02  0.47647875821E+02  0.00000000000E+00 0.  1.
         21   -1    0    0  504  502 -0.00000000000E+00 -0.00000000000E+00 -0.23662021721E+04  0.23662021721E+04  0.00000000000E+00 0.  1.
         21    1    1    2  503  501 -0.30778634234E+02 -0.53032167192E+01 -0.27437352430E+02  0.41572307384E+02  0.00000000000E+00 0. -1.
         21    1    1    2  504  503 -0.74057411327E+02  0.11611060091E+03 -0.21566052513E+04  0.21609980059E+04  0.00000000000E+00 0.  1.
         21    1    1    2  505  506  0.11541739450E+02 -0.33784308539E+02 -0.87177621352E+01  0.36750382714E+02  0.00000000000E+00 0.  1.
         21    1    1    2  506  502  0.93294306111E+02 -0.77023075649E+02 -0.12579393043E+03  0.17452935188E+03  0.00000000000E+00 0.  1.
<scales pt_clust_3="31.23217" pt_clust_4="138.38032" pt_clust_5="31.09661" pt_clust_6="31.09661"></scales>
<clustering>
<clus scale="   31.097">  5  6 -1 -1</clus>
<clus scale="   31.232">  1  3  2 -1</clus>
<clus scale="  138.380">  2  4  1 -1</clus>
<clus scale="   31.232">  1  3  2 -1</clus>
</clustering>
</event>
<event>
 6    0  0.6687079E+002  0.9936593E+02  0.7546771E-02  0.1281635E+00
         21   -1    0    0  503  501  0.00000000000E+00  0.00000000000E+00  0.17549865444E+03  0.17549865444E+03  0.00000000000E+00 0.  1.
         21   -1    0    0  505  502 -0.00000000000E+00 -0.00000000000E+00 -0.39550864870E+04  0.39550864870E+04  0.00000000000E+00 0. -1.
         21    1    1    2  503  506  0.46699754381E+02 -0.33705211072E+02 -0.13053561651E+04  0.13066260468E+04  0.00000000000E+00 0. -1.
         21    1    1    2  504  501 -0.63770665936E+02  0.76826275363E+02  0.15939303822E+03  0.18808273459E+03  0.00000000000E+00 0.  1.
         21    1    1    2  505  504  0.34652476619E+02  0.22168305618E+02 -0.92476508068E+03  0.92567957866E+03  0.00000000000E+00 0. -1.
         21    1    1    2  506  502 -0.17581565064E+02 -0.65289369908E+02 -0.17088596249E+04  0.17101967814E+04  0.00000000000E+00 0. -1.
<scales pt_clust_3="14000.00000" pt_clust_4="99.36593" pt_clust_5="41.13670" pt_clust_6="52.81820"></scales>
<clustering>
<clus scale="   41.137">  2  5  1 -1</clus>
<clus scale="   52.818">  2  6  1 -1</clus>
<clus scale="   99.366">  1  4  2 -1</clus>
<clus scale="   99.366">  1  3  2 -1</clus>
</clustering>
</event>
<event>
 6    0  0.6687079E+002  0.7711990E+02  0.7546771E-02  0.1337429E+00
         21   -1    0    0  503  501  0.00000000000E+00  0.00000000000E+00  0.54545817520E+03  0.54545817520E+03  0.00000000000E+00 0.  1.
         21   -1    0    0  506  502 -0.00000000000E+00 -0.00000000000E+00 -0.14720489204E+03  0.14720489204E+03  0.00000000000E+00 0. -1.
         21    1    1    2  503  505 -0.14511583602E+02  0.28175424377E+02  0.26936988947E+03  0.27122790777E+03  0.00000000000E+00 0.  1.
         21    1    1    2  504  502  0.55118160853E+02  0.54186985254E+01 -0.11241281560E+03  0.12531566167E+03  0.00000000000E+00 0. -1.
         21    1    1    2  505  504 -0.99258506672E+02 -0.49272327788E+02  0.15052131050E+03  0.18691355849E+03  0.00000000000E+00 0.  1.
         21    1    1    2  506  501  0.58651929420E+02  0.15678204886E+02  0.90774898786E+02  0.10920593932E+03  0.00000000000E+00 0.  1.
<scales pt_clust_3="31.69291" pt_clust_4="55.11423" pt_clust_5="14000.00000" pt_clust_6="77.11990"></scales>
<clustering>
<clus scale="   31.693">  1  3  2 -1</clus>
<clus scale="   55.114">  2  4  1 -1</clus>
<clus scale="   77.120">  1  6  2 -1</clus>
<clus scale="   31.693">  1  3  2 -1</clus>
</clustering>
</event>
<event>
 6    0  0.6687079E+002  0.1628151E+03  0.7546771E-02  0.1185555E+00
         21   -1    0    0  504  501  0.00000000000E+00  0.00000000000E+00  0.57459952821E+03  0.57459952821E+03  0.00000000000E+00 0.  1.
         21   -1    0    0  505  502 -0.00000000000E+00 -0.00000000000E+00 -0.13387867820E+04  0.13387867820E+04  0.00000000000E+00 0. -1.
         21    1    1    2  503  502  0.14187170070E+03  0.34934668907E+02 -0.13019686874E+04  0.13101413944E+04  0.00000000000E+00 0. -1.
         21    1    1    2  504  506 -0.53131647787E+02  0.20730779254E+02  0.17915433593E+03  0.18801333274E+03  0.00000000000E+00 0.  1.
         21    1    1    2  505  501  0.40082826746E+02  0.29289823068E+00  0.12971589149E+02  0.42130522360E+02  0.00000000000E+00 0. -1.
         21    1    1    2  506  503 -0.12882287966E+03 -0.55958346391E+02  0.34565550854E+03  0.37310106062E+03  0.00000000000E+00 0.  1.
<scales pt_clust_3="146.40085" pt_clust_4="44.15246" pt_clust_5="40.08390" pt_clust_6="44.15246"></scales>
<clustering>
<clus scale="   40.084">  1  5  2 -1</clus>
<clus scale="   44.152">  4  6 -1 -1</clus>
<clus scale="  146.401">  2  3  1 -1</clus>
<clus scale="   40.084">  1  3  2 -1</clus>
</clustering>
</event>
<event>
 6    0  0.6687079E+002  0.1256225E+03  0.7546771E-02  0.1234100E+00
         21   -1    0    0  505  501  0.00000000000E+00  0.00000000000E+00  0.69395527599E+03  0.69395527599E+03  0.00000000000E+00 0.  1.
         21   -1    0    0  501  502 -0.00000000000E+00 -0.00000000000E+00 -0.15342599280E+03  0.15342599280E+03  0.00000000000E+00 0.  1.
         21    1    1    2  503  504  0.32041154528E+02  0.32510327481E+02  0.18182628966E+02  0.49134152812E+02  0.00000000000E+00 0.  1.
         21    1    1    2  504  502  0.70294593340E+02 -0.66716912384E+02 -0.69789580361E+02  0.11942806110E+03  0.00000000000E+00 0.  1.
         21    1    1    2  505  506 -0.12509373149E+03 -0.86545101941E+01  0.61321963351E+03  0.62590866836E+03  0.00000000000E+00 0.  1.
         21    1    1    2  506  503  0.22757983621E+02  0.42861095097E+02 -0.21083398924E+02  0.52910386519E+02  0.00000000000E+00 0.  1.
<scales pt_clust_3="40.23264" pt_clust_4="96.91479" pt_clust_5="118.57543" pt_clust_6="40.23264"></scales>
<clustering>
<clus scale="   40.233">  3  6 -1 -1</clus>
<clus scale="   96.915">  2  4  1 -1</clus>
<clus scale="  118.575">  1  5  2 -1</clus>
<clus scale="  118.575">  1  3  2 -1</clus>
</clustering>
</event>
<event>
 6    0  0.6687079E+002  0.1998685E+03  0.7546771E-02  0.1149850E+00
         21   -1    0    0  506  501  0.00000000000E+00  0.00000000000E+00  0.20849006735E+04  0.20849006735E+04  0.00000000000E+00 0. -1.
         21   -1    0    0  505  502 -0.00000000000E+00 -0.00000000000E+00 -0.14858867532E+03  0.14858867532E+03  0.00000000000E+00 0.  1.
         21    1    1    2  503  502 -0.84692279499E+02  0.11316995686E+03  0.19491857802E+03  0.24077681242E+03  0.00000000000E+00 0.  1.
         21    1    1    2  504  501  0.13911660195E+03 -0.13674530536E+03  0.17962932162E+04  0.18068541795E+04  0.00000000000E+00 0. -1.
         21    1    1    2  505  504 -0.50324064367E+02 -0.26416861556E+02 -0.10218259469E+03  0.11692580847E+03  0.00000000000E+00 0.  1.
         21    1    1    2  506  503 -0.41002580860E+01  0.49992210058E+02  0.47282798666E+02  0.68932548426E+02  0.00000000000E+00 0.  1.
<scales pt_clust_3="31.25235" pt_clust_4="192.86016" pt_clust_5="56.83627" pt_clust_6="31.25235"></scales>
<clustering>
<clus scale="   31.252">  3  6 -1 -1</clus>
<clus scale="   56.836">  2  5  1 -1</clus>
<clus scale="  192.860">  1  4  2 -1</clus>
<clus scale="  192.860">  1  3  2 -1</clus>
</clustering>
</event>
<event>
 6    0  0.6687079E+002  0.1139710E+03  0.7546771E-02  0.1253388E+00
         21   -1    0    0  505  501  0.00000000000E+00  0.00000000000E+00  0.29308433404E+03  0.29308433404E+03  0.00000000000E+00 0.  1.
         21   -1    0    0  503  502 -0.00000000000E+00 -0.00000000000E+00 -0.44537768881E+03  0.44537768881E+03  0.00000000000E+00 0.  1.
         21    1    1    2  503  506 -0.64629799512E+01  0.29481609869E+02 -0.12844243026E+02  0.32801067196E+02  0.00000000000E+00 0. -1.
         21    1    1    2  504  502 -0.47876566081E+02 -0.87838652501E+02 -0.35089713114E+03  0.36487887181E+03  0.00000000000E+00 0.  1.
         21    1    1    2  505  504  0.97865469799E+02  0.60196574029E+02  0.25468567304E+03  0.27940305967E+03  0.00000000000E+00 0.  1.
         21    1    1    2  506  501 -0.43525923766E+02 -0.18395313959E+01 -0.43237653637E+02  0.61379024166E+02  0.00000000000E+00 0.  1.
<scales pt_clust_3="30.18171" pt_clust_4="113.97105" pt_clust_5="14000.00000" pt_clust_6="44.36292"></scales>
<clustering>
<clus scale="   30.182">  2  3  1 -1</clus>
<clus scale="   44.363">  2  6  1 -1</clus>
<clus scale="  113.971">  2  4  1 -1</clus>
<clus scale="  113.971">  1  3  2 -1</clus>
</clustering>
</event>
<event>
 6    0  0.6687079E+002  0.1903224E+03  0.7546771E-02  0.1158171E+00
         21   -1    0    0  504  501  0.00000000000E+00  0.00000000000E+00  0.27559441210E+03  0.27559441210E+03  0.00000000000E+00 0.  1.
         21   -1    0    0  503  502 -0.00000000000E+00 -0.00000000000E+00 -0.83673616282E+03  0.83673616282E+03  0.00000000000E+00 0. -1.
         21    1    1    2  503  505  0.75888791941E+02  0.17673910743E+03 -0.65553729825E+03  0.68317272357E+03  0.00000000000E+00 0. -1.
         21    1    1    2  504  506 -0.12767838036E+03 -0.27850653399E+02 -0.22337923321E+02  0.13257605563E+03  0.00000000000E+00 0. -1.
         21    1    1    2  505  501  0.58738367736E+02  0.24886914000E+02 -0.28624729926E+02  0.69920880258E+02  0.00000000000E+00 0. -1.
         21    1    1    2  506  502 -0.69487793135E+01 -0.17377536803E+03  0.14535820077E+03  0.22666091546E+03  0.00000000000E+00 0.  1.
<scales pt_clust_3="14000.00000" pt_clust_4="117.15429" pt_clust_5="63.79306" pt_clust_6="190.32239"></scales>
<clustering>
<clus scale="   63.793">  1  5  2 -1</clus>
<clus scale="  117.154">  1  4  2 -1</clus>
<clus scale="  190.322">  1  6  2 -1</clus>
<clus scale="   63.793">  1  3  2 -1</clus>
</clustering>
</event>
<event>
 6    0  0.6687079E+002  0.1340585E+03  0.7546771E-02  0.1221555E+00
         21   -1    0    0  505  501  0.00000000000E+00  0.00000000000E+00  0.56746659180E+03  0.56746659180E+03  0.00000000000E+00 0. -1.
         21   -1    0    0  504  502 -0.00000000000E+00 -0.00000000000E+00 -0.38153134345E+03  0.38153134345E+03  0.00000000000E+00 0.  1.
         21    1    1    2  503  501 -0.13303478838E+02  0.48871404633E+02  0.56282041532E+02  0.75717005613E+02  0.00000000000E+00 0. -1.
         21    1    1    2  504  506 -0.77463244093E+01 -0.67435219241E+02 -0.24412044442E+03  0.25338173912E+03  0.00000000000E+00 0.  1.
         21    1    1    2  505  502  0.30984083707E+02  0.78681959571E+02  0.48540747058E+03  0.49271825286E+03  0.00000000000E+00 0. -1.
         21    1    1    2  506  503 -0.99342804597E+01 -0.60118144963E+02 -0.11163381934E+03  0.12718093766E+03  0.00000000000E+00 0.  1.
<scales pt_clust_3="50.64975" pt_clust_4="38.88503" pt_clust_5="127.62162" pt_clust_6="38.88503"></scales>
<clustering>
<clus scale="   38.885">  4  6 -1 -1</clus>
<clus scale="   50.650">  1  3  2 -1</clus>
<clus scale="  127.622">  1  5  2 -1</clus>
<clus scale="   50.650">  1  3  2 -1</clus>
</clustering>
</event>
<event>
 6    0  0.6687079E+002  0.9717591E+02  0.7546771E-02  0.1286349E+00
         21   -1    0    0  503  501  0.00000000000E+00  0.00000000000E+00  0.17682002114E+03  0.17682002114E+03  0.00000000000E+00 0. -1.
         21   -1    0    0  506  502 -0.00000000000E+00 -0.00000000000E+00 -0.21551837557E+03  0.21551837557E+03  0.00000000000E+00 0. -1.
         21    1    1    2  503  505  0.62365806445E+02  0.46540396706E+02  0.26132129995E+02  0.82087700401E+02  0.00000000000E+00 0. -1.
         21    1    1    2  504  501 -0.90207963936E+02 -0.83653392984E+02  0.65645173326E+02  0.13944409524E+03  0.00000000000E+00 0. -1.
         21    1    1    2  505  502  0.59229017861E+02  0.37932528410E+02 -0.11726980814E+03  0.13674487621E+03  0.00000000000E+00 0. -1.
         21    1    1    2  506  504 -0.31386860369E+02 -0.81953213214E+00 -0.13205849614E+02  0.34061724865E+02  0.00000000000E+00 0.  1.
<scales pt_clust_3="14000.00000" pt_clust_4="97.17591" pt_clust_5="53.63531" pt_clust_6="31.39756"></scales>
<clustering>
<clus scale="   31.398">  2  6  1 -1</clus>
<clus scale="   53.635">  2  5  1 -1</clus>
<clus scale="   97.176">  2  4  1 -1</clus>
<clus scale="   97.176">  1  3  2 -1</clus>
</clustering>
</event>
<event>
 6    0  0.6687079E+002  0.1692350E+03  0.7546771E-02  0.1178648E+00
         21   -1    0    0  504  501  0.00000000000E+00  0.00000000000E+00  0.17933066838E+04  0.17933066838E+04  0.00000000000E+00 0. -1.
         21   -1    0    0  503  502 -0.00000000000E+00 -0.00000000000E+00 -0.42240247078E+03  0.42240247078E+03  0.00000000000E+00 0. -1.
         21    1    1    2  503  501  0.27825133498E+02  0.35935626035E+02  0.11913219131E+04  0.11921885371E+04  0.00000000000E+00 0. -1.
         21    1    1    2  504  506  0.51739412587E+02  0.12150256989E+03  0.55022207460E+03  0.56584818872E+03  0.00000000000E+00 0.  1.
         21    1    1    2  505  502 -0.28340290742E+02 -0.24920881824E+02 -0.29367844921E+03  0.29609331968E+03  0.00000000000E+00 0. -1.
         21    1    1    2  506  505 -0.51224255343E+02 -0.13251731410E+03 -0.76961325499E+02  0.16157910909E+03  0.00000000000E+00 0. -1.
<scales pt_clust_3="45.32304" pt_clust_4="14000.00000" pt_clust_5="37.73887" pt_clust_6="169.23500"></scales>
<clustering>
<clus scale="   37.739">  2  5  1 -1</clus>
<clus scale="   45.323">  1  3  2 -1</clus>
<clus scale="  169.235">  2  6  1 -1</clus>
<clus scale="   45.323">  1  3  2 -1</clus>
</clustering>
</event>
<event>
 6    0  0.6687079E+002  0.8216597E+02  0.7546771E-02  0.1323015E+00
         21   -1    0    0  504  501  0.00000000000E+00  0.00000000000E+00  0.12102148729E+04  0.12102148729E+04  0.00000000000E+00 0.  1.
         21   -1    0    0  506  502 -0.00000000000E+00 -0.00000000000E+00 -0.28608223344E+02  0.28608223344E+02  0.00000000000E+00 0.  1.
         21    1    1    2  503  505 -0.44507693259E+02  0.31015670127E+02  0.93298758157E+02  0.10792388441E+03  0.00000000000E+00 0.  1.
         21    1    1    2  504  502  0.24647856029E+01 -0.14189156002E+03  0.50015782727E+03  0.51990108882E+03  0.00000000000E+00 0.  1.
         21    1    1    2  505  501  0.38112837603E+02  0.60430381220E+02  0.52611894732E+03  0.53094779979E+03  0.00000000000E+00 0.  1.
         21    1    1    2  506  503  0.39300700537E+01  0.50445508672E+02  0.62031116767E+02  0.80050323192E+02  0.00000000000E+00 0.  1.
<scales pt_clust_3="65.85099" pt_clust_4="14000.00000" pt_clust_5="82.16597" pt_clust_6="50.59837"></scales>
<clustering>
<clus scale="   50.598">  2  6  1 -1</clus>
<clus scale="   65.851">  2  3  1 -1</clus>
<clus scale="   82.166">  1  5  2 -1</clus>
<clus scale="   82.166">  1  3  2 -1</clus>
</clustering>
</event>
<event>
 6    0  0.6687079E+002  0.2831491E+03  0.7546771E-02  0.1093981E+00
         21   -1    0    0  506  501  0.00000000000E+00  0.00000000000E+00  0.28247057114E+03  0.28247057114E+03  0.00000000000E+00 0.  1.
         21   -1    0    0  505  502 -0.00000000000E+00 -0.00000000000E+00 -0.12756699275E+04  0.12756699275E+04  0.00000000000E+00 0.  1.
         21    1    1    2  503  502 -0.61071462900E+01 -0.30030556448E+02 -0.40864085028E+03  0.40978833082E+03  0.00000000000E+00 0.  1.
         21    1    1    2  504  503 -0.11357255688E+03 -0.15149696222E+03 -0.63520099037E+03  0.66282000076E+03  0.00000000000E+00 0.  1.
         21    1    1    2  505  501 -0.11911953118E+03  0.40740882965E+01 -0.96745179793E+02  0.15351120714E+03  0.00000000000E+00 0. -1.
         21    1    1    2  506  504  0.23879923436E+03  0.17745343037E+03  0.14738766410E+03  0.33202095990E+03  0.00000000000E+00 0.  1.
<scales pt_clust_3="30.64525" pt_clust_4="283.14911" pt_clust_5="120.00178" pt_clust_6="14000.00000"></scales>
<clustering>
<clus scale="   30.645">  2  3  1 -1</clus>
<clus scale="  120.002">  2  5  1 -1</clus>
<clus scale="  283.149">  2  4  1 -1</clus>
<clus scale="  283.149">  1  3  2 -1</clus>
</clustering>
</event>
<event>
 6    0  0.6687079E+002  0.2049061E+03  0.7546771E-02  0.1145665E+00
         21   -1    0    0  505  501  0.00000000000E+00  0.00000000000E+00  0.80448051365E+03  0.80448051365E+03  0.00000000000E+00 0. -1.
         21   -1    0    0  506  502 -0.00000000000E+00 -0.00000000000E+00 -0.60292415481E+03  0.60292415481E+03  0.00000000000E+00 0.  1.
         21    1    1    2  503  501 -0.11387831384E+03  0.96430230068E+02  0.59694125220E+03  0.61530961167E+03  0.00000000000E+00 0. -1.
         21    1    1    2  504  503  0.16410874676E+03 -0.95831754866E+02 -0.15357443628E+03  0.24433688523E+03  0.00000000000E+00 0.  1.
         21    1    1    2  505  502 -0.85921022309E+02 -0.20511898938E+02  0.13903627507E+03  0.16472475787E+03  0.00000000000E+00 0. -1.
         21    1    1    2  506  504  0.35690589386E+02  0.19913423736E+02 -0.38084673215E+03  0.38303341369E+03  0.00000000000E+00 0.  1.
<scales pt_clust_3="204.90611" pt_clust_4="14000.00000" pt_clust_5="86.05141" pt_clust_6="40.87007"></scales>
<clustering>
<clus scale="   40.870">  2  6  1 -1</clus>
<clus scale="   86.051">  1  5  2 -1</clus>
<clus scale="  204.906">  1  3  2 -1</clus>
<clus scale="   86.051">  1  3  2 -1</clus>
</clustering>
</event>
<event>
 6    0  0.6687079E+002  0.7274176E+02  0.7546771E-02  0.1351010E+00
         21   -1    0    0  506  501  0.00000000000E+00  0.00000000000E+00  0.92082125110E+02  0.92082125110E+02  0.00000000000E+00 0. -1.
         21   -1    0    0  503  502 -0.00000000000E+00 -0.00000000000E+00 -0.21424271765E+04  0.21424271765E+04  0.00000000000E+00 0. -1.
         21    1    1    2  503  505  0.53094145002E+02  0.24096667932E+02 -0.18072673065E+04  0.18082076083E+04  0.00000000000E+00 0. -1.
         21    1    1    2  504  501  0.58214897072E+02  0.10414397501E+02  0.51231662779E+02  0.78243959432E+02  0.00000000000E+00 0. -1.
         21    1    1    2  505  504 -0.10505989987E+03 -0.68917780250E+02 -0.28560427354E+03  0.31202090325E+03  0.00000000000E+00 0. -1.
         21    1    1    2  506  502 -0.62491421998E+01  0.34406714816E+02 -0.87051341662E+01  0.36036830653E+02  0.00000000000E+00 0. -1.
<scales pt_clust_3="58.35790" pt_clust_4="72.74176" pt_clust_5="14000.00000" pt_clust_6="34.96961"></scales>
<clustering>
<clus scale="   34.970">  1  6  2 -1</clus>
<clus scale="   58.358">  2  3  1 -1</clus>
<clus scale="   72.742">  1  4  2 -1</clus>
<clus scale="   34.970">  1  3  2 -1</clus>
</clustering>
</event>
<event>
 6    0  0.6687079E+002  0.3313915E+03  0.7546771E-02  0.1070523E+00
         21   -1    0    0  504  501  0.00000000000E+00  0.00000000000E+00  0.11436620753E+04  0.11436620753E+04  0.00000000000E+00 0.  1.
         21   -1    0    0  503  502 -0.00000000000E+00 -0.00000000000E+00 -0.22632835545E+03  0.22632835545E+03  0.00000000000E+00 0.  1.
         21    1    1    2  503  506 -0.58712978646E+02  0.29243072116E+03 -0.24314790087E+02  0.29925599335E+03  0.00000000000E+00 0.  1.
         21    1    1    2  504  502  0.82017366071E+02 -0.30864450796E+03  0.50429716232E+03  0.59691197722E+03  0.00000000000E+00 0.  1.
         21    1    1    2  505  501 -0.45931430875E+02 -0.86334978599E+01  0.43772635177E+03  0.44021425768E+03  0.00000000000E+00 0.  1.
         21    1    1    2  506  505  0.22627043450E+02  0.24847284658E+02 -0.37500411092E+00  0.33608202544E+02  0.00000000000E+00 0.  1.
<scales pt_clust_3="30.43556" pt_clust_4="318.74582" pt_clust_5="46.73579" pt_clust_6="30.43556"></scales>
<clustering>
<clus scale="   30.436">  3  6 -1 -1</clus>
<clus scale="   46.736">  1  5  2 -1</clus>
<clus scale="  318.746">  1  4  2 -1</clus>
<clus scale="   46.736">  1  3  2 -1</clus>
</clustering>
</event>
<event>
 6    0  0.6687079E+002  0.1254066E+03  0.7546771E-02  0.1234435E+00
         21   -1    0    0  503  501  0.00000000000E+00  0.00000000000E+00  0.12914271532E+03  0.12914271532E+03  0.00000000000E+00 0.  1.
         21   -1    0    0  505  502 -0.00000000000E+00 -0.00000000000E+00 -0.12153932234E+04  0.12153932234E+04  0.00000000000E+00 0.  1.
         21    1    1    2  503  504  0.34335504722E+02  0.56630927821E+01  0.78983606606E+02  0.86309950857E+02  0.00000000000E+00 0.  1.
         21    1    1    2  504  502 -0.31235089763E+02 -0.13003813156E+03 -0.90437096491E+03  0.91420587871E+03  0.00000000000E+00 0.  1.
         21    1    1    2  505  506  0.91024246540E+02  0.68908967794E+02 -0.14831992517E+03  0.18717013518E+03  0.00000000000E+00 0.  1.
         21    1    1    2  506  501 -0.94124661500E+02  0.55466070981E+02 -0.11254322464E+03  0.15684997400E+03  0.00000000000E+00 0. -1.
<scales pt_clust_3="34.79939" pt_clust_4="14000.00000" pt_clust_5="125.40662" pt_clust_6="97.11084"></scales>
<clustering>
<clus scale="   34.799">  1  3  2 -1</clus>
<clus scale="   97.111">  1  6  2 -1</clus>
<clus scale="  125.407">  1  5  2 -1</clus>
<clus scale="   34.799">  1  3  2 -1</clus>
</clustering>
</event>
<event>
 6    0  0.6687079E+002  0.1132350E+03  0.7546771E-02  0.1254694E+00
         21   -1    0    0  506  501  0.00000000000E+00  0.00000000000E+00  0.17778796326E+03  0.17778796326E+03  0.00000000000E+00 0. -1.
         21   -1    0    0  504  502 -0.00000000000E+00 -0.00000000000E+00 -0.18630633941E+03  0.18630633941E+03  0.00000000000E+00 0. -1.
         21    1    1    2  503  501 -0.30968280839E+01  0.46095813017E+02  0.55320698189E+02  0.72074919146E+02  0.00000000000E+00 0. -1.
         21    1    1    2  504  503 -0.84186652922E+02  0.77686594502E+02 -0.12040098142E+02  0.11518490986E+03  0.00000000000E+00 0.  1.
         21    1    1    2  505  502  0.55466368002E+02 -0.10036842569E+03 -0.68907017759E+02  0.13378533533E+03  0.00000000000E+00 0. -1.
         21    1    1    2  506  505  0.31817113004E+02 -0.23413981833E+02  0.17108041560E+02  0.43049138333E+02  0.00000000000E+00 0. -1.
<scales pt_clust_3="37.53376" pt_clust_4="14000.00000" pt_clust_5="113.23500" pt_clust_6="39.50371"></scales>
<clustering>
<clus scale="   39.504">  1  6  2 -1</clus>
<clus scale="   37.534">  1  3  2 -1</clus>
<clus scale="  113.235">  2  5  1 -1</clus>
<clus scale="   39.504">  1  3  2 -1</clus>
</clustering>
</event>
<event>
 6    0  0.6687079E+002  0.6821400E+02  0.7546771E-02  0.1366274E+00
         21   -1    0    0  503  501  0.00000000000E+00  0.00000000000E+00  0.99850336286E+03  0.99850336286E+03  0.00000000000E+00 0. -1.
         21   -1    0    0  506  502 -0.00000000000E+00 -0.00000000000E+00 -0.36102463637E+02  0.36102463637E+02  0.00000000000E+00 0. -1.
         21    1    1    2  503  504  0.51609565992E+02  0.14237978282E+02  0.28795779134E+03  0.29289239820E+03  0.00000000000E+00 0. -1.
         21    1    1    2  504  502  0.42273722007E+02 -0.87510455340E+02  0.21316911943E+03  0.23427808443E+03  0.00000000000E+00 0. -1.
         21    1    1    2  505  501 -0.65593446418E+02  0.36662572487E+02  0.45450642188E+03  0.46067638529E+03  0.00000000000E+00 0. -1.
         21    1    1    2  506  505 -0.28289841581E+02  0.36609904571E+02  0.67675665632E+01  0.46758958570E+02  0.00000000000E+00 0. -1.
<scales pt_clust_3="51.27266" pt_clust_4="14000.00000" pt_clust_5="68.21400" pt_clust_6="46.26662"></scales>
<clustering>
<clus scale="   46.267">  2  6  1 -1</clus>
<clus scale="   51.273">  1  3  2 -1</clus>
<clus scale="   68.214">  1  5  2 -1</clus>
<clus scale="   51.273">  1  3  2 -1</clus>
</clustering>
</event>
<event>
 6    0  0.6687079E+002  0.1084382E+03  0.7546771E-02  0.1263490E+00
         21   -1    0    0  506  501  0.00000000000E+00  0.00000000000E+00  0.52408721300E+02  0.52408721300E+02  0.00000000000E+00 0. -1.
         21   -1    0    0  505  502 -0.00000000000E+00 -0.00000000000E+00 -0.15867507568E+04  0.15867507568E+04  0.00000000000E+00 0.  1.
         21    1    1    2  503  501  0.11349611491E+02  0.43143220254E+02 -0.10012879417E+02  0.45720989590E+02  0.00000000000E+00 0. -1.
         21    1    1    2  504  503 -0.10790150313E+02  0.96856325832E+02 -0.10761838937E+03  0.14518709628E+03  0.00000000000E+00 0. -1.
         21    1    1    2  505  504 -0.80895809031E+01 -0.10955810790E+03 -0.14123205059E+04  0.14165866128E+04  0.00000000000E+00 0.  1.
         21    1    1    2  506  502  0.75301197258E+01 -0.30441438185E+02 -0.43902608004E+01  0.31664779358E+02  0.00000000000E+00 0. -1.
<scales pt_clust_3="32.67752" pt_clust_4="14000.00000" pt_clust_5="108.43819" pt_clust_6="31.35895"></scales>
<clustering>
<clus scale="   31.359">  1  6  2 -1</clus>
<clus scale="   32.678">  1  3  2 -1</clus>
<clus scale="  108.438">  2  5  1 -1</clus>
<clus scale="   31.359">  1  3  2 -1</clus>
</clustering>
</event>
<event>
 6    0  0.6687079E+002  0.2472861E+03  0.7546771E-02  0.1115032E+00
         21   -1    0    0  503  501  0.00000000000E+00  0.00000000000E+00  0.14895518061E+03  0.14895518061E+03  0.00000000000E+00 0. -1.
         21   -1    0    0  505  502 -0.00000000000E+00 -0.00000000000E+00 -0.12924759890E+04  0.12924759890E+04  0.00000000000E+00 0. -1.
         21    1    1    2  503  504  0.80354215988E+02 -0.32580822206E+01 -0.11235167754E+03  0.13816770452E+03  0.00000000000E+00 0.  1.
         21    1    1    2  504  502  0.41802185632E+02 -0.33974060537E+02 -0.13875290479E+03  0.14884229272E+03  0.00000000000E+00 0. -1.
         21    1    1    2  505  506  0.69061149976E+02 -0.14296384461E+03 -0.87696622218E+03  0.89122267596E+03  0.00000000000E+00 0. -1.
         21    1    1    2  506  501 -0.19121755160E+03  0.18019598736E+03 -0.15450003885E+02  0.26319849643E+03  0.00000000000E+00 0. -1.
<scales pt_clust_3="139.00082" pt_clust_4="44.92258" pt_clust_5="14000.00000" pt_clust_6="247.28614"></scales>
<clustering>
<clus scale="   44.923">  3  4 -1 -1</clus>
<clus scale="  139.001">  2  3  1 -1</clus>
<clus scale="  247.286">  1  6  2 -1</clus>
<clus scale="  247.286">  1  3  2 -1</clus>
</clustering>
</event>
<event>
 6    0  0.6687079E+002  0.6579793E+02  0.7546771E-02  0.1374995E+00
         21   -1    0    0  506  501  0.00000000000E+00  0.00000000000E+00  0.10883607811E+04  0.10883607811E+04  0.00000000000E+00 0. -1.
         21   -1    0    0  503  502 -0.00000000000E+00 -0.00000000000E+00 -0.22572711801E+02  0.22572711801E+02  0.00000000000E+00 0. -1.
         21    1    1    2  503  505 -0.58797943133E+02 -0.20122521740E+02  0.69252837815E+02  0.93048748209E+02  0.00000000000E+00 0. -1.
         21    1    1    2  504  502  0.61873307268E+02  0.60191744396E+02  0.31281288242E+03  0.32450462501E+03  0.00000000000E+00 0.  1.
         21    1    1    2  505  501 -0.51218414855E+02 -0.40422391037E+02  0.32921482564E+03  0.33561838021E+03  0.00000000000E+00 0. -1.
         21    1    1    2  506  504  0.48143050719E+02  0.35316838159E+00  0.35450752342E+03  0.35776173946E+03  0.00000000000E+00 0. -1.
<scales pt_clust_3="65.79793" pt_clust_4="14000.00000" pt_clust_5="49.83155" pt_clust_6="48.14435"></scales>
<clustering>
<clus scale="   48.144">  1  6  2 -1</clus>
<clus scale="   49.832">  1  5  2 -1</clus>
<clus scale="   65.798">  2  3  1 -1</clus>
<clus scale="   48.144">  1  3  2 -1</clus>
</clustering>
</event>
<event>
 6    0  0.6687079E+002  0.9232363E+02  0.7546771E-02  0.1297320E+00
         21   -1    0    0  504  501  0.00000000000E+00  0.00000000000E+00  0.37293907713E+02  0.37293907713E+02  0.00000000000E+00 0. -1.
         21   -1    0    0  506  502 -0.00000000000E+00 -0.00000000000E+00 -0.68275174143E+03  0.68275174143E+03  0.00000000000E+00 0. -1.
         21    1    1    2  503  502  0.34647249980E+02  0.44073211304E+02 -0.67584754123E+02  0.87809901922E+02  0.00000000000E+00 0. -1.
         21    1    1    2  504  503  0.11844803130E+01  0.61307872013E+02 -0.44266527284E+02  0.75627928718E+02  0.00000000000E+00 0. -1.
         21    1    1    2  505  501 -0.47730359828E+02 -0.26898316421E+02 -0.85661867798E+02  0.10168412988E+03  0.00000000000E+00 0.  1.
         21    1    1    2  506  505  0.11898629535E+02 -0.78482766895E+02 -0.44794468451E+03  0.45492368862E+03  0.00000000000E+00 0. -1.
<scales pt_clust_3="40.70314" pt_clust_4="40.70314" pt_clust_5="54.78783" pt_clust_6="81.92389"></scales>
<clustering>
<clus scale="   40.703">  3  4 -1 -1</clus>
<clus scale="   54.788">  1  5  2 -1</clus>
<clus scale="   81.924">  2  6  1 -1</clus>
<clus scale="   54.788">  1  3  2 -1</clus>
</clustering>
</event>
<event>
 6    0  0.6687079E+002  0.1071743E+03  0.7546771E-02  0.1265894E+00
         21   -1    0    0  505  501  0.00000000000E+00  0.00000000000E+00  0.14347745616E+03  0.14347745616E+03  0.00000000000E+00 0.  1.
         21   -1    0    0  504  502 -0.00000000000E+00 -0.00000000000E+00 -0.80652535159E+03  0.80652535159E+03  0.00000000000E+00 0. -1.
         21    1    1    2  503  502 -0.18468455982E+02  0.77744707709E+02 -0.82429487200E+01  0.80332245374E+02  0.00000000000E+00 0. -1.
         21    1    1    2  504  501  0.55681131675E+02 -0.22187418725E+02 -0.69658525711E+03  0.69915927398E+03  0.00000000000E+00 0. -1.
         21    1    1    2  505  506  0.50404652006E+00 -0.93344641175E+02  0.63474400538E+02  0.11288257449E+03  0.00000000000E+00 0.  1.
         21    1    1    2  506  503 -0.37716722213E+02  0.37787352190E+02 -0.21694090143E+02  0.57628713912E+02  0.00000000000E+00 0. -1.
<scales pt_clust_3="33.02690" pt_clust_4="59.93889" pt_clust_5="99.26606" pt_clust_6="33.02690"></scales>
<clustering>
<clus scale="   33.027">  3  6 -1 -1</clus>
<clus scale="   59.939">  2  4  1 -1</clus>
<clus scale="   99.266">  1  5  2 -1</clus>
<clus scale="   99.266">  1  3  2 -1</clus>
</clustering>
</event>
<event>
 6    0  0.6687079E+002  0.1227313E+03  0.7546771E-02  0.1238658E+00
         21   -1    0    0  503  501  0.00000000000E+00  0.00000000000E+00  0.43157089466E+03  0.43157089466E+03  0.00000000000E+00 0.  1.
         21   -1    0    0  505  502 -0.00000000000E+00 -0.00000000000E+00 -0.79746236097E+02  0.79746236097E+02  0.00000000000E+00 0.  1.
         21    1    1    2  503  504 -0.13766788014E+02  0.41443954385E+02  0.11315502184E+03  0.12128967299E+03  0.00000000000E+00 0.  1.
         21    1    1    2  504  502 -0.10336629483E+03  0.19465222540E+02 -0.69356376690E+01  0.10541152150E+03  0.00000000000E+00 0.  1.
         21    1    1    2  505  506  0.35507247006E+02 -0.35098734897E+02  0.47977333421E+02  0.69242402496E+02  0.00000000000E+00 0.  1.
         21    1    1    2  506  501  0.81625835838E+02 -0.25810442028E+02  0.19762794097E+03  0.21537353377E+03  0.00000000000E+00 0.  1.
<scales pt_clust_3="43.67065" pt_clust_4="108.66824" pt_clust_5="43.56403" pt_clust_6="43.56403"></scales>
<clustering>
<clus scale="   43.564">  5  6 -1 -1</clus>
<clus scale="   43.671">  1  3  2 -1</clus>
<clus scale="  108.668">  2  4  1 -1</clus>
<clus scale="   43.671">  1  3  2 -1</clus>
</clustering>
</event>
<event>
 6    0  0.6687079E+002  0.8273050E+02  0.7546771E-02  0.1321477E+00
         21   -1    0    0  505  501  0.00000000000E+00  0.00000000000E+00  0.29859808591E+02  0.29859808591E+02  0.00000000000E+00 0.  1.
         21   -1    0    0  506  502 -0.00000000000E+00 -0.00000000000E+00 -0.80371296772E+03  0.80371296772E+03  0.00000000000E+00 0. -1.
         21    1    1    2  503  502  0.25066115303E+02  0.93027481771E+02 -0.52538118374E+03  0.53414212597E+03  0.00000000000E+00 0. -1.
         21    1    1    2  504  501 -0.22526956976E+02 -0.49913826642E+02 -0.40623285973E+02  0.68184347499E+02  0.00000000000E+00 0.  1.
         21    1    1    2  505  503  0.35373216650E+02  0.88998955259E+01 -0.64234149636E+02  0.73868116099E+02  0.00000000000E+00 0. -1.
         21    1    1    2  506  504 -0.37912374978E+02 -0.52013550655E+02 -0.14361453978E+03  0.15737818675E+03  0.00000000000E+00 0.  1.
<scales pt_clust_3="14000.00000" pt_clust_4="45.12041" pt_clust_5="36.47564" pt_clust_6="82.73050"></scales>
<clustering>
<clus scale="   36.476">  1  5  2 -1</clus>
<clus scale="   45.120">  1  4  2 -1</clus>
<clus scale="   82.731">  1  6  2 -1</clus>
<clus scale="   36.476">  1  3  2 -1</clus>
</clustering>
</event>
<event>
 6    0  0.6687079E+002  0.1654711E+03  0.7546771E-02  0.1182655E+00
         21   -1    0    0  503  501  0.00000000000E+00  0.00000000000E+00  0.11425231774E+04  0.11425231774E+04  0.00000000000E+00 0. -1.
         21   -1    0    0  505  502 -0.00000000000E+00 -0.00000000000E+00 -0.28927959770E+02  0.28927959770E+02  0.00000000000E+00 0. -1.
         21    1    1    2  503  502  0.94718268871E+00  0.14458162934E+03  0.52073480340E+03  0.54043452904E+03  0.00000000000E+00 0. -1.
         21    1    1    2  504  501 -0.18246395159E+02 -0.90573727248E+02  0.26503636992E+03  0.28067919122E+03  0.00000000000E+00 0. -1.
         21    1    1    2  505  506 -0.25692929097E+02  0.15604450802E+02  0.34228056678E+02  0.45554202379E+02  0.00000000000E+00 0. -1.
         21    1    1    2  506  504  0.42992141567E+02 -0.69612352892E+02  0.29359598764E+03  0.30478321454E+03  0.00000000000E+00 0. -1.
<scales pt_clust_3="151.51402" pt_clust_4="61.08434" pt_clust_5="30.06036" pt_clust_6="61.08434"></scales>
<clustering>
<clus scale="   30.060">  2  5  1 -1</clus>
<clus scale="   61.084">  4  6 -1 -1</clus>
<clus scale="  151.514">  1  3  2 -1</clus>
<clus scale="  151.514">  1  3  2 -1</clus>
</clustering>
</event>
<event>
 6    0  0.6687079E+002  0.1343310E+03  0.7546771E-02  0.1221167E+00
         21   -1    0    0  505  501  0.00000000000E+00  0.00000000000E+00  0.10948541628E+03  0.10948541628E+03  0.00000000000E+00 0. -1.
         21   -1    0    0  504  502 -0.00000000000E+00 -0.00000000000E+00 -0.14041015944E+04  0.14041015944E+04  0.00000000000E+00 0.  1.
         21    1    1    2  503  501 -0.40945545708E+02  0.52759477869E+02 -0.53796669135E+02  0.85756526448E+02  0.00000000000E+00 0. -1.
         21    1    1    2  504  503  0.28090440130E+02  0.12478964678E+02 -0.51711182469E+02  0.60156826532E+02  0.00000000000E+00 0. -1.
         21    1    1    2  505  506 -0.69977767368E+02  0.33688304470E+02  0.68443777419E+02  0.10351975875E+03  0.00000000000E+00 0. -1.
         21    1    1    2  506  502  0.82832872946E+02 -0.98926747017E+02 -0.12575521039E+04  0.12641538989E+04  0.00000000000E+00 0.  1.
<scales pt_clust_3="66.42081" pt_clust_4="30.73756" pt_clust_5="134.33102" pt_clust_6="14000.00000"></scales>
<clustering>
<clus scale="   30.738">  2  4  1 -1</clus>
<clus scale="   66.421">  1  3  2 -1</clus>
<clus scale="  134.331">  1  5  2 -1</clus>
<clus scale="   66.421">  1  3  2 -1</clus>
</clustering>
</event>
<event>
 6    0  0.6687079E+002  0.2231072E+03  0.7546771E-02  0.1131587E+00
         21   -1    0    0  504  501  0.00000000000E+00  0.00000000000E+00  0.30317156074E+03  0.30317156074E+03  0.00000000000E+00 0.  1.
         21   -1    0    0  505  502 -0.00000000000E+00 -0.00000000000E+00 -0.67473042343E+03  0.67473042343E+03  0.00000000000E+00 0.  1.
         21    1    1    2  503  502  0.58970057104E+02 -0.33973453022E+02 -0.36370643377E+03  0.37001896317E+03  0.00000000000E+00 0.  1.
         21    1    1    2  504  506 -0.89245161567E+02  0.19368522788E+03 -0.14069870781E+03  0.25548932021E+03  0.00000000000E+00 0.  1.
         21    1    1    2  505  501  0.24187521248E+02 -0.20442940861E+03  0.18961256166E+03  0.27987379803E+03  0.00000000000E+00 0.  1.
         21    1    1    2  506  503  0.60875832147E+01  0.44717633746E+02 -0.56766282763E+02  0.72519902758E+02  0.00000000000E+00 0. -1.
<scales pt_clust_3="68.05632" pt_clust_4="32.02552" pt_clust_5="211.96774" pt_clust_6="32.02552"></scales>
<clustering>
<clus scale="   32.026">  4  6 -1 -1</clus>
<clus scale="   68.056">  2  3  1 -1</clus>
<clus scale="  211.968">  1  5  2 -1</clus>
<clus scale="  211.968">  1  3  2 -1</clus>
</clustering>
</event>
<event>
 6    0  0.6687079E+002  0.1013638E+03  0.7546771E-02  0.1277454E+00
         21   -1    0    0  503  501  0.00000000000E+00  0.00000000000E+00  0.20373345741E+04  0.20373345741E+04  0.00000000000E+00 0. -1.
         21   -1    0    0  506  502 -0.00000000000E+00 -0.00000000000E+00 -0.55056488989E+02  0.55056488989E+02  0.00000000000E+00 0.  1.
         21    1    1    2  503  505  0.86159090810E+02  0.82642204918E+02  0.14389491988E+04  0.14438933200E+04  0.00000000000E+00 0. -1.
         21    1    1    2  504  502 -0.49984866600E+02  0.18960144464E+02  0.12913609563E+03  0.13976446316E+03  0.00000000000E+00 0. -1.
         21    1    1    2  505  504 -0.39940431837E+02 -0.67684498085E+02  0.45143222475E+03  0.45822208908E+03  0.00000000000E+00 0. -1.
         21    1    1    2  506  501  0.37662076260E+01 -0.33917851297E+02 -0.37239434012E+02  0.50511190859E+02  0.00000000000E+00 0.  1.
<scales pt_clust_3="14000.00000" pt_clust_4="48.27845" pt_clust_5="101.36383" pt_clust_6="34.12631"></scales>
<clustering>
<clus scale="   34.126">  2  6  1 -1</clus>
<clus scale="   48.278">  2  4  1 -1</clus>
<clus scale="  101.364">  2  5  1 -1</clus>
<clus scale="  101.364">  1  3  2 -1</clus>
</clustering>
</event>
<event>
 6    0  0.6687079E+002  0.1015914E+03  0.7546771E-02  0.1276985E+00
         21   -1    0    0  506  501  0.00000000000E+00  0.00000000000E+00  0.25268311864E+04  0.25268311864E+04  0.00000000000E+00 0.  1.
         21   -1    0    0  501  502 -0.00000000000E+00 -0.00000000000E+00 -0.38790269443E+03  0.38790269443E+03  0.00000000000E+00 0. -1.
         21    1    1    2  503  504 -0.10201554693E+03 -0.69892986762E+02 -0.12798980648E+03  0.17797076158E+03  0.00000000000E+00 0. -1.
         21    1    1    2  504  502  0.10068316103E+03 -0.18321754776E+02 -0.21112819381E+03  0.23462288856E+03  0.00000000000E+00 0. -1.
         21    1    1    2  505  503 -0.66175730780E+02  0.61203886212E+02  0.16553592919E+03  0.18848683478E+03  0.00000000000E+00 0. -1.
         21    1    1    2  506  505  0.67508116681E+02  0.27010855325E+02  0.23125105631E+04  0.23136533959E+04  0.00000000000E+00 0.  1.
<scales pt_clust_3="101.59136" pt_clust_4="14000.00000" pt_clust_5="84.20101" pt_clust_6="72.71129"></scales>
<clustering>
<clus scale="   72.711">  1  6  2 -1</clus>
<clus scale="   84.201">  1  5  2 -1</clus>
<clus scale="  101.591">  1  3  2 -1</clus>
<clus scale="   72.711">  1  3  2 -1</clus>
</clustering>
</event>
<event>
 6    0  0.6687079E+002  0.8905225E+02  0.7546771E-02  0.1305163E+00
         21   -1    0    0  505  501  0.00000000000E+00  0.00000000000E+00  0.22297747730E+03  0.22297747730E+03  0.00000000000E+00 0. -1.
         21   -1    0    0  506  502 -0.00000000000E+00 -0.00000000000E+00 -0.29892496683E+03  0.29892496683E+03  0.00000000000E+00 0.  1.
         21    1    1    2  503  501 -0.98228690645E+01  0.37630802310E+02  0.78832778419E+01  0.39682642411E+02  0.00000000000E+00 0. -1.
         21    1    1    2  504  503 -0.67492987041E+02  0.20430988991E+02  0.33948325412E+02  0.78263768176E+02  0.00000000000E+00 0. -1.
         21    1    1    2  505  502  0.11069769896E+03 -0.26323322134E+02  0.11788027044E+03  0.16383728514E+03  0.00000000000E+00 0. -1.
         21    1    1    2  506  504 -0.33381842853E+02 -0.31738469167E+02 -0.23565936322E+03  0.24011874840E+03  0.00000000000E+00 0.  1.
<scales pt_clust_3="38.89172" pt_clust_4="89.05225" pt_clust_5="14000.00000" pt_clust_6="45.85270"></scales>
<clustering>
<clus scale="   38.892">  1  3  2 -1</clus>
<clus scale="   45.853">  2  6  1 -1</clus>
<clus scale="   89.052">  2  4  1 -1</clus>
<clus scale="   38.892">  1  3  2 -1</clus>
</clustering>
</event>
<event>
 6    0  0.6687079E+002  0.1162078E+03  0.7546771E-02  0.1249487E+00
         21   -1    0    0  505  501  0.00000000000E+00  0.00000000000E+00  0.15045959609E+03  0.15045959609E+03  0.00000000000E+00 0. -1.
         21   -1    0    0  506  502 -0.00000000000E+00 -0.00000000000E+00 -0.20545621548E+04  0.20545621548E+04  0.00000000000E+00 0. -1.
         21    1    1    2  503  501 -0.10433260366E+02  0.36809901697E+02  0.35293554982E+02  0.52052442863E+02  0.00000000000E+00 0. -1.
         21    1    1    2  504  503  0.10245146920E+03  0.12605090018E+03 -0.15555168489E+03  0.22490322285E+03  0.00000000000E+00 0. -1.
         21    1    1    2  505  502 -0.82938886816E+02 -0.80616841011E+02  0.24168207867E+02  0.11816106073E+03  0.00000000000E+00 0. -1.
         21    1    1    2  506  504 -0.90793220148E+01 -0.82243960866E+02 -0.18080126366E+04  0.18099050244E+04  0.00000000000E+00 0. -1.
<scales pt_clust_3="38.25992" pt_clust_4="14000.00000" pt_clust_5="116.20781" pt_clust_6="82.42965"></scales>
<clustering>
<clus scale="   38.260">  1  3  2 -1</clus>
<clus scale="   82.430">  2  6  1 -1</clus>
<clus scale="  116.208">  1  5  2 -1</clus>
<clus scale="   38.260">  1  3  2 -1</clus>
</clustering>
</event>
<event>
 6    0  0.6687079E+002  0.1104861E+03  0.7546771E-02  0.1259672E+00
         21   -1    0    0  503  501  0.00000000000E+00  0.00000000000E+00  0.55847138291E+02  0.55847138291E+02  0.00000000000E+00 0. -1.
         21   -1    0    0  501  502 -0.00000000000E+00 -0.00000000000E+00 -0.63465291989E+03  0.63465291989E+03  0.00000000000E+00 0. -1.
         21    1    1    2  503  505 -0.92390178804E+02  0.97460634923E+01 -0.48633607008E+02  0.10486257017E+03  0.00000000000E+00 0. -1.
         21    1    1    2  504  502 -0.26593773915E+02 -0.21133803432E+02 -0.40728039704E+03  0.40869449259E+03  0.00000000000E+00 0. -1.
         21    1    1    2  505  506  0.55047560754E+02 -0.16202318721E+02 -0.49638201085E+02  0.75872920623E+02  0.00000000000E+00 0. -1.
         21    1    1    2  506  504  0.63936391964E+02  0.27590058661E+02 -0.73253576467E+02  0.10107007480E+03  0.00000000000E+00 0. -1.
<scales pt_clust_3="101.42781" pt_clust_4="33.96861" pt_clust_5="42.01585" pt_clust_6="42.01585"></scales>
<clustering>
<clus scale="   33.969">  2  4  1 -1</clus>
<clus scale="   42.016">  5  6 -1 -1</clus>
<clus scale="  101.428">  1  3  2 -1</clus>
<clus scale="  101.428">  1  3  2 -1</clus>
</clustering>
</event>
<event>
 6    0  0.6687079E+002  0.1333050E+03  0.7546771E-02  0.1222633E+00
         21   -1    0    0  503  501  0.00000000000E+00  0.00000000000E+00  0.22880308061E+03  0.22880308061E+03  0.00000000000E+00 0. -1.
         21   -1    0    0  504  502 -0.00000000000E+00 -0.00000000000E+00 -0.82446918980E+02  0.82446918980E+02  0.00000000000E+00 0. -1.
         21    1    1    2  503  506 -0.98816305304E+01  0.76287689892E+02  0.44465144246E+02  0.88851602708E+02  0.00000000000E+00 0. -1.
         21    1    1    2  504  505  0.15034798949E+02 -0.70010957477E+02 -0.49829577369E+01  0.71780284299E+02  0.00000000000E+00 0. -1.
         21    1    1    2  505  501  0.80075485173E+01 -0.53275273125E+02  0.36879512891E+02  0.65287625403E+02  0.00000000000E+00 0. -1.
         21    1    1    2  506  502 -0.13160716935E+02  0.46998540709E+02  0.69994462228E+02  0.85330487176E+02  0.00000000000E+00 0. -1.
<scales pt_clust_3="131.29508" pt_clust_4="39.17434" pt_clust_5="39.17434" pt_clust_6="30.93135"></scales>
<clustering>
<clus scale="   30.931">  3  6 -1 -1</clus>
<clus scale="   39.174">  4  5 -1 -1</clus>
<clus scale="  131.295">  1  3  2 -1</clus>
<clus scale="  131.295">  1  3  2 -1</clus>
</clustering>
</event>
<event>
 6    0  0.6687079E+002  0.1460110E+03  0.7546771E-02  0.1205462E+00
         21   -1    0    0  504  501  0.00000000000E+00  0.00000000000E+00  0.99936670481E+02  0.99936670481E+02  0.00000000000E+00 0.  1.
         21   -1    0    0  506  502 -0.00000000000E+00 -0.00000000000E+00 -0.61255742671E+03  0.61255742671E+03  0.00000000000E+00 0.  1.
         21    1    1    2  503  502 -0.28003755874E+02  0.52443726734E+02 -0.10447151824E+03  0.12020338157E+03  0.00000000000E+00 0.  1.
         21    1    1    2  504  503  0.32475923625E+01  0.15272916242E+03 -0.40186684083E+02  0.15796111385E+03  0.00000000000E+00 0.  1.
         21    1    1    2  505  501  0.36060358831E+02 -0.29915250368E+02 -0.37167858569E+02  0.59805697004E+02  0.00000000000E+00 0.  1.
         21    1    1    2  506  505 -0.11304195319E+02 -0.17525763878E+03 -0.33079469533E+03  0.37452390477E+03  0.00000000000E+00 0.  1.
<scales pt_clust_3="55.62435" pt_clust_4="146.01096" pt_clust_5="46.85373" pt_clust_6="14000.00000"></scales>
<clustering>
<clus scale="   46.854">  1  5  2 -1</clus>
<clus scale="   55.624">  2  3  1 -1</clus>
<clus scale="  146.011">  1  4  2 -1</clus>
<clus scale="   46.854">  1  3  2 -1</clus>
</clustering>
</event>
<event>
 6    0  0.6687079E+002  0.2855712E+03  0.7546771E-02  0.1092684E+00
         21   -1    0    0  503  501  0.00000000000E+00  0.00000000000E+00  0.26642092481E+03  0.26642092481E+03  0.00000000000E+00 0. -1.
         21   -1    0    0  505  502 -0.00000000000E+00 -0.00000000000E+00 -0.14116864593E+04  0.14116864593E+04  0.00000000000E+00 0. -1.
         21    1    1    2  503  506 -0.10037067228E+03  0.11226270724E+03 -0.25052012856E+03  0.29229697587E+03  0.00000000000E+00 0.  1.
         21    1    1    2  504  501  0.23204012707E+03 -0.60605090950E+02  0.14395543736E+03  0.27971193318E+03  0.00000000000E+00 0. -1.
         21    1    1    2  505  504  0.44331787425E+02 -0.15003628077E+03 -0.27663651634E+03  0.31781119410E+03  0.00000000000E+00 0. -1.
         21    1    1    2  506  502 -0.17600124221E+03  0.98378664475E+02 -0.76206432698E+03  0.78828728097E+03  0.00000000000E+00 0. -1.
<scales pt_clust_3="126.96489" pt_clust_4="244.88182" pt_clust_5="156.44869" pt_clust_6="126.96489"></scales>
<clustering>
<clus scale="  126.965">  3  6 -1 -1</clus>
<clus scale="  156.449">  2  5  1 -1</clus>
<clus scale="  244.882">  1  4  2 -1</clus>
<clus scale="  244.882">  1  3  2 -1</clus>
</clustering>
</event>
<event>
 6    0  0.6687079E+002  0.1123842E+03  0.7546771E-02  0.1256217E+00
         21   -1    0    0  504  501  0.00000000000E+00  0.00000000000E+00  0.47795494306E+02  0.47795494306E+02  0.00000000000E+00 0. -1.
         21   -1    0    0  501  502 -0.00000000000E+00 -0.00000000000E+00 -0.79322162373E+03  0.79322162373E+03  0.00000000000E+00 0. -1.
         21    1    1    2  503  502  0.28301594939E+02 -0.83345179952E+02 -0.43319231181E+03  0.44204409091E+03  0.00000000000E+00 0. -1.
         21    1    1    2  504  506  0.31186378452E+01  0.43772919484E+02  0.16948158495E+02  0.47042900192E+02  0.00000000000E+00 0. -1.
         21    1    1    2  505  503 -0.14829048261E+02 -0.38689791118E+02 -0.15158592826E+03  0.15714672843E+03  0.00000000000E+00 0. -1.
         21    1    1    2  506  505 -0.16591184523E+02  0.78262051586E+02 -0.17759604785E+03  0.19478339851E+03  0.00000000000E+00 0. -1.
<scales pt_clust_3="30.60680" pt_clust_4="43.88387" pt_clust_5="30.60680" pt_clust_6="103.15142"></scales>
<clustering>
<clus scale="   30.607">  3  5 -1 -1</clus>
<clus scale="   43.884">  1  4  2 -1</clus>
<clus scale="  103.151">  1  6  2 -1</clus>
<clus scale="   43.884">  1  3  2 -1</clus>
</clustering>
</event>
<event>
 6    0  0.6687079E+002  0.9154754E+02  0.7546771E-02  0.1299147E+00
         21   -1    0    0  503  501  0.00000000000E+00  0.00000000000E+00  0.42214329394E+02  0.42214329394E+02  0.00000000000E+00 0.  1.
         21   -1    0    0  506  502 -0.00000000000E+00 -0.00000000000E+00 -0.61669102465E+03  0.61669102465E+03  0.00000000000E+00 0.  1.
         21    1    1    2  503  504  0.54688676384E+02 -0.12252140008E+02 -0.12643668967E+03  0.13830113071E+03  0.00000000000E+00 0.  1.
         21    1    1    2  504  502  0.49064096289E+02  0.88635049170E+02 -0.15188527505E+03  0.18257216180E+03  0.00000000000E+00 0.  1.
         21    1    1    2  505  501 -0.49047132250E+02 -0.80714410226E+01 -0.30465624037E+02  0.58300288079E+02  0.00000000000E+00 0.  1.
         21    1    1    2  506  505 -0.54705640423E+02 -0.68311468139E+02 -0.26568910650E+03  0.27973177346E+03  0.00000000000E+00 0. -1.
<scales pt_clust_3="46.54426" pt_clust_4="91.54754" pt_clust_5="49.70683" pt_clust_6="14000.00000"></scales>
<clustering>
<clus scale="   49.707">  1  5  2 -1</clus>
<clus scale="   46.544">  1  3  2 -1</clus>
<clus scale="   91.548">  1  4  2 -1</clus>
<clus scale="   49.707">  1  3  2 -1</clus>
</clustering>
</event>
<event>
 6    0  0.6687079E+002  0.1118999E+03  0.7546771E-02  0.1257091E+00
         21   -1    0    0  505  501  0.00000000000E+00  0.00000000000E+00  0.12529887171E+04  0.12529887171E+04  0.00000000000E+00 0. -1.
         21   -1    0    0  504  502 -0.00000000000E+00 -0.00000000000E+00 -0.14426229978E+03  0.14426229978E+03  0.00000000000E+00 0.  1.
         21    1    1    2  503  501  0.23243727218E+02 -0.33246875722E+02  0.78015610131E+02  0.87932138745E+02  0.00000000000E+00 0. -1.
         21    1    1    2  504  506 -0.10931790208E+03  0.18632474554E+02 -0.10112323174E+03  0.15007824899E+03  0.00000000000E+00 0.  1.
         21    1    1    2  505  502 -0.41611424229E+02  0.56971938303E+01  0.83413240444E+03  0.83518910240E+03  0.00000000000E+00 0. -1.
         21    1    1    2  506  503  0.12768559909E+03  0.89172073374E+01  0.29770163447E+03  0.32405152672E+03  0.00000000000E+00 0. -1.
<scales pt_clust_3="40.56631" pt_clust_4="111.89994" pt_clust_5="30.84199" pt_clust_6="14000.00000"></scales>
<clustering>
<clus scale="   40.566">  1  3  2 -1</clus>
<clus scale="   30.842">  1  5  2 -1</clus>
<clus scale="  111.900">  2  4  1 -1</clus>
<clus scale="   40.566">  1  3  2 -1</clus>
</clustering>
</event>
<event>
 6    0  0.6687079E+002  0.1133864E+03  0.7546771E-02  0.1254424E+00
         21   -1    0    0  503  501  0.00000000000E+00  0.00000000000E+00  0.31469771891E+04  0.31469771891E+04  0.00000000000E+00 0. -1.
         21   -1    0    0  506  502 -0.00000000000E+00 -0.00000000000E+00 -0.39157247062E+03  0.39157247062E+03  0.00000000000E+00 0.  1.
         21    1    1    2  503  505  0.12933318523E+03 -0.86136511575E+02 -0.40988331250E+01  0.15544571998E+03  0.00000000000E+00 0. -1.
         21    1    1    2  504  501 -0.30815866516E+02  0.42535367195E+02  0.30319081329E+04  0.30323630721E+04  0.00000000000E+00 0. -1.
         21    1    1    2  505  502 -0.11663390215E+02  0.10248478245E+03 -0.19412495348E+03  0.21982643805E+03  0.00000000000E+00 0.  1.
         21    1    1    2  506  504 -0.86853928495E+02 -0.58883638067E+02 -0.78279627814E+02  0.13091442952E+03  0.00000000000E+00 0.  1.
<scales pt_clust_3="113.38644" pt_clust_4="52.52499" pt_clust_5="14000.00000" pt_clust_6="105.99307"></scales>
<clustering>
<clus scale="   52.525">  1  4  2 -1</clus>
<clus scale="  105.993">  2  6  1 -1</clus>
<clus scale="  113.386">  1  3  2 -1</clus>
<clus scale="   52.525">  1  3  2 -1</clus>
</clustering>
</event>
<event>
 6    0  0.6687079E+002  0.1977638E+03  0.7546771E-02  0.1151640E+00
         21   -1    0    0  504  501  0.00000000000E+00  0.00000000000E+00  0.13436567267E+04  0.13436567267E+04  0.00000000000E+00 0.  1.
         21   -1    0    0  506  502 -0.00000000000E+00 -0.00000000000E+00 -0.19967553085E+03  0.19967553085E+03  0.00000000000E+00 0. -1.
         21    1    1    2  503  501  0.19371678016E+02 -0.98390919734E+02  0.68761683868E+03  0.69489060422E+03  0.00000000000E+00 0.  1.
         21    1    1    2  504  505 -0.38512793897E+02 -0.54117412703E+02  0.23422782908E+03  0.24346376644E+03  0.00000000000E+00 0.  1.
         21    1    1    2  505  502 -0.15278502480E+03  0.25423005166E+02  0.33071623578E+03  0.36518874791E+03  0.00000000000E+00 0.  1.
         21    1    1    2  506  503  0.17192614068E+03  0.12708532727E+03 -0.10857970769E+03  0.23978913899E+03  0.00000000000E+00 0. -1.
<scales pt_clust_3="132.33526" pt_clust_4="66.42236" pt_clust_5="197.76380" pt_clust_6="14000.00000"></scales>
<clustering>
<clus scale="   66.422">  1  4  2 -1</clus>
<clus scale="  132.335">  1  3  2 -1</clus>
<clus scale="  197.764">  1  5  2 -1</clus>
<clus scale="   66.422">  1  3  2 -1</clus>
</clustering>
</event>
<event>
 6    0  0.6687079E+002  0.9246480E+02  0.7546771E-02  0.1296990E+00
         21   -1    0    0  506  501  0.00000000000E+00  0.00000000000E+00  0.30801711397E+04  0.30801711397E+04  0.00000000000E+00 0.  1.
         21   -1    0    0  501  502 -0.00000000000E+00 -0.00000000000E+00 -0.46501964806E+02  0.46501964806E+02  0.00000000000E+00 0. -1.
         21    1    1    2  503  504 -0.10881807459E+01  0.60878705154E+02  0.16832860989E+04  0.16843869780E+04  0.00000000000E+00 0.  1.
         21    1    1    2  504  505 -0.30718198379E+02  0.55210600396E+02  0.41513011821E+03  0.41991050612E+03  0.00000000000E+00 0. -1.
         21    1    1    2  505  502 -0.95596464008E+00 -0.97312534298E+02  0.11662527917E+02  0.98013559048E+02  0.00000000000E+00 0. -1.
         21    1    1    2  506  503  0.32762343765E+02 -0.18776771253E+02  0.92359042986E+03  0.92436206133E+03  0.00000000000E+00 0.  1.
<scales pt_clust_3="52.30639" pt_clust_4="14000.00000" pt_clust_5="92.46480" pt_clust_6="37.76160"></scales>
<clustering>
<clus scale="   37.762">  1  6  2 -1</clus>
<clus scale="   52.306">  1  3  2 -1</clus>
<clus scale="   92.465">  2  5  1 -1</clus>
<clus scale="   37.762">  1  3  2 -1</clus>
</clustering>
</event>
<event>
 6    0  0.6687079E+002  0.7578889E+02  0.7546771E-02  0.1341445E+00
         21   -1    0    0  503  501  0.00000000000E+00  0.00000000000E+00  0.81368840138E+03  0.81368840138E+03  0.00000000000E+00 0. -1.
         21   -1    0    0  505  502 -0.00000000000E+00 -0.00000000000E+00 -0.37472771835E+03  0.37472771835E+03  0.00000000000E+00 0.  1.
         21    1    1    2  503  504 -0.74972990023E+02 -0.26920857343E+02  0.59868125878E+03  0.60395772319E+03  0.00000000000E+00 0. -1.
         21    1    1    2  504  502 -0.48654985506E+02 -0.49812872986E+02 -0.32891071512E+03  0.33620066694E+03  0.00000000000E+00 0.  1.
         21    1    1    2  505  506  0.75224251128E+02  0.25872497748E+02  0.18000845641E+02  0.81560434902E+02  0.00000000000E+00 0. -1.
         21    1    1    2  506  501  0.48403724401E+02  0.50861232580E+02  0.15118929374E+03  0.16669729469E+03  0.00000000000E+00 0. -1.
<scales pt_clust_3="14000.00000" pt_clust_4="69.63210" pt_clust_5="40.28497" pt_clust_6="75.78889"></scales>
<clustering>
<clus scale="   69.632">  2  4  1 -1</clus>
<clus scale="   40.285">  2  5  1 -1</clus>
<clus scale="   75.789">  2  6  1 -1</clus>
<clus scale="   75.789">  1  3  2 -1</clus>
</clustering>
</event>
<event>
 6    0  0.6687079E+002  0.1948010E+03  0.7546771E-02  0.1154201E+00
         21   -1    0    0  503  501  0.00000000000E+00  0.00000000000E+00  0.80046513535E+03  0.80046513535E+03  0.00000000000E+00 0. -1.
         21   -1    0    0  505  502 -0.00000000000E+00 -0.00000000000E+00 -0.26046019603E+03  0.26046019603E+03  0.00000000000E+00 0.  1.
         21    1    1    2  503  506  0.57170717870E+01 -0.44721747625E+02  0.39241232203E+03  0.39499386084E+03  0.00000000000E+00 0. -1.
         21    1    1    2  504  501  0.41477500809E+02 -0.15494599909E+03 -0.16920806080E+03  0.23315233979E+03  0.00000000000E+00 0.  1.
         21    1    1    2  505  504  0.34951413491E+02 -0.22789270178E+02  0.64828094866E+01  0.42225335512E+02  0.00000000000E+00 0.  1.
         21    1    1    2  506  502 -0.82145986087E+02  0.22245701690E+03  0.31031786860E+03  0.39055379523E+03  0.00000000000E+00 0. -1.
<scales pt_clust_3="45.22987" pt_clust_4="14000.00000" pt_clust_5="41.72472" pt_clust_6="194.80102"></scales>
<clustering>
<clus scale="   41.725">  2  5  1 -1</clus>
<clus scale="   45.230">  1  3  2 -1</clus>
<clus scale="  194.801">  1  6  2 -1</clus>
<clus scale="   45.230">  1  3  2 -1</clus>
</clustering>
</event>
<event>
 6    0  0.6687079E+002  0.2603814E+03  0.7546771E-02  0.1106914E+00
         21   -1    0    0  503  501  0.00000000000E+00  0.00000000000E+00  0.88536027782E+03  0.88536027782E+03  0.00000000000E+00 0. -1.
         21   -1    0    0  501  502 -0.00000000000E+00 -0.00000000000E+00 -0.16595740327E+03  0.16595740327E+03  0.00000000000E+00 0. -1.
         21    1    1    2  503  505 -0.21166495725E+02 -0.21588986397E+03  0.55878035000E+03  0.59940965412E+03  0.00000000000E+00 0. -1.
         21    1    1    2  504  502 -0.27537885176E+02  0.14534021884E+02 -0.71179003919E+01  0.31941155554E+02  0.00000000000E+00 0.  1.
         21    1    1    2  505  506 -0.29506417855E+02 -0.28124133264E+02  0.17272916484E+03  0.17747382892E+03  0.00000000000E+00 0. -1.
         21    1    1    2  506  504  0.78210798757E+02  0.22947997535E+03 -0.49887398913E+01  0.24249304249E+03  0.00000000000E+00 0. -1.
<scales pt_clust_3="34.68902" pt_clust_4="31.13797" pt_clust_5="34.68902" pt_clust_6="247.92598"></scales>
<clustering>
<clus scale="   31.138">  2  4  1 -1</clus>
<clus scale="   34.689">  3  5 -1 -1</clus>
<clus scale="  247.926">  2  6  1 -1</clus>
<clus scale="  260.381">  1  3  2 -1</clus>
</clustering>
</event>
<event>
 6    0  0.6687079E+002  0.7550678E+02  0.7546771E-02  0.1342309E+00
         21   -1    0    0  506  501  0.00000000000E+00  0.00000000000E+00  0.56537201369E+03  0.56537201369E+03  0.00000000000E+00 0.  1.
         21   -1    0    0  505  502 -0.00000000000E+00 -0.00000000000E+00 -0.34654404942E+03  0.34654404942E+03  0.00000000000E+00 0.  1.
         21    1    1    2  503  501 -0.47662342235E+02 -0.79431835886E+01  0.27733382872E+03  0.28151171483E+03  0.00000000000E+00 0.  1.
         21    1    1    2  504  502  0.35662279790E+00  0.75811999331E+02 -0.29759881993E+03  0.30710363730E+03  0.00000000000E+00 0.  1.
         21    1    1    2  505  503 -0.32671669926E+02 -0.59903472484E+02  0.23289970742E+03  0.24268938533E+03  0.00000000000E+00 0.  1.
         21    1    1    2  506  504  0.79977389362E+02 -0.79653432583E+01  0.61932480499E+01  0.80611325655E+02  0.00000000000E+00 0.  1.
<scales pt_clust_3="48.31970" pt_clust_4="14000.00000" pt_clust_5="75.50678" pt_clust_6="73.31888"></scales>
<clustering>
<clus scale="   48.320">  1  3  2 -1</clus>
<clus scale="   73.319">  1  6  2 -1</clus>
<clus scale="   75.507">  1  5  2 -1</clus>
<clus scale="   48.320">  1  3  2 -1</clus>
</clustering>
</event>
<event>
 6    0  0.6687079E+002  0.9609501E+02  0.7546771E-02  0.1288729E+00
         21   -1    0    0  506  501  0.00000000000E+00  0.00000000000E+00  0.27498842395E+03  0.27498842395E+03  0.00000000000E+00 0.  1.
         21   -1    0    0  504  502 -0.00000000000E+00 -0.00000000000E+00 -0.73513564276E+03  0.73513564276E+03  0.00000000000E+00 0.  1.
         21    1    1    2  503  502 -0.26108881208E+02 -0.46274145329E+02 -0.64147255297E+02  0.83293700638E+02  0.00000000000E+00 0.  1.
         21    1    1    2  504  505 -0.62364274314E+02  0.88230910460E+02 -0.62929683812E+03  0.63850489955E+03  0.00000000000E+00 0.  1.
         21    1    1    2  505  501  0.61703644169E+02 -0.23592192757E+02  0.24505160247E+03  0.25379956489E+03  0.00000000000E+00 0.  1.
         21    1    1    2  506  503  0.26769511353E+02 -0.18364572374E+02 -0.11754727864E+02  0.34525901635E+02  0.00000000000E+00 0.  1.
<scales pt_clust_3="53.24772" pt_clust_4="14000.00000" pt_clust_5="96.09501" pt_clust_6="32.46328"></scales>
<clustering>
<clus scale="   32.463">  1  6  2 -1</clus>
<clus scale="   53.248">  2  3  1 -1</clus>
<clus scale="   96.095">  1  5  2 -1</clus>
<clus scale="   32.463">  1  3  2 -1</clus>
</clustering>
</event>
<event>
 6    0  0.6687079E+002  0.1049255E+03  0.7546771E-02  0.1270266E+00
         21   -1    0    0  504  501  0.00000000000E+00  0.00000000000E+00  0.95834262006E+03  0.95834262006E+03  0.00000000000E+00 0. -1.
         21   -1    0    0  506  502 -0.00000000000E+00 -0.00000000000E+00 -0.41609555857E+03  0.41609555857E+03  0.00000000000E+00 0.  1.
         21    1    1    2  503  501  0.11441315630E+03 -0.45136522899E+02  0.44244682778E+03  0.45922420608E+03  0.00000000000E+00 0. -1.
         21    1    1    2  504  505 -0.18546300158E+01 -0.32520205967E+02  0.42609825325E+03  0.42734146168E+03  0.00000000000E+00 0. -1.
         21    1    1    2  505  502 -0.16135866572E+02  0.36976695455E+02  0.68468040682E+02  0.79470213235E+02  0.00000000000E+00 0.  1.
         21    1    1    2  506  503 -0.96422659709E+02  0.40680033411E+02 -0.39476606022E+03  0.40840229764E+03  0.00000000000E+00 0.  1.
<scales pt_clust_3="104.92549" pt_clust_4="32.57305" pt_clust_5="36.35774" pt_clust_6="14000.00000"></scales>
<clustering>
<clus scale="   32.573">  1  4  2 -1</clus>
<clus scale="   36.358">  1  5  2 -1</clus>
<clus scale="  104.925">  1  3  2 -1</clus>
<clus scale="   32.573">  1  3  2 -1</clus>
</clustering>
</event>
<event>
 6    0  0.6687079E+002  0.1357330E+03  0.7546771E-02  0.1219189E+00
         21   -1    0    0  503  501  0.00000000000E+00  0.00000000000E+00  0.19388344824E+03  0.19388344824E+03  0.00000000000E+00 0.  1.
         21   -1    0    0  506  502 -0.00000000000E+00 -0.00000000000E+00 -0.76244760865E+03  0.76244760865E+03  0.00000000000E+00 0. -1.
         21    1    1    2  503  504 -0.42025679133E+02 -0.63898914325E+02  0.91574608129E+01  0.77026541186E+02  0.00000000000E+00 0.  1.
         21    1    1    2  504  502  0.20509528025E+02 -0.10883925589E+03  0.55246854260E+02  0.12376929857E+03  0.00000000000E+00 0.  1.
         21    1    1    2  505  501  0.59989201389E+02  0.69126566789E+02  0.19659604803E+02  0.93614563932E+02  0.00000000000E+00 0.  1.
         21    1    1    2  506  505 -0.38473050280E+02  0.10361160343E+03 -0.65262808028E+03  0.66192065320E+03  0.00000000000E+00 0. -1.
<scales pt_clust_3="63.66473" pt_clust_4="63.66473" pt_clust_5="91.52697" pt_clust_6="112.04381"></scales>
<clustering>
<clus scale="   63.665">  3  4 -1 -1</clus>
<clus scale="   91.527">  1  5  2 -1</clus>
<clus scale="  112.044">  2  6  1 -1</clus>
<clus scale="   91.527">  1  3  2 -1</clus>
</clustering>
</event>
<event>
 6    0  0.6687079E+002  0.1592573E+03  0.7546771E-02  0.1189538E+00
         21   -1    0    0  503  501  0.00000000000E+00  0.00000000000E+00  0.42404560265E+03  0.42404560265E+03  0.00000000000E+00 0. -1.
         21   -1    0    0  506  502 -0.00000000000E+00 -0.00000000000E+00 -0.85550398220E+03  0.85550398220E+03  0.00000000000E+00 0.  1.
         21    1    1    2  503  502  0.67938641801E+02  0.13466412178E+03  0.36882129856E+03  0.39847112193E+03  0.00000000000E+00 0. -1.
         21    1    1    2  504  505 -0.30855083270E+02 -0.89508916081E+02 -0.36575435123E+03  0.37780964475E+03  0.00000000000E+00 0.  1.
         21    1    1    2  505  501 -0.83201609195E+02 -0.10334702954E+03 -0.39991257757E+03  0.42134687134E+03  0.00000000000E+00 0.  1.
         21    1    1    2  506  504  0.46118050665E+02  0.58191823840E+02 -0.34612749304E+02  0.81921946836E+02  0.00000000000E+00 0. -1.
<scales pt_clust_3="152.18396" pt_clust_4="39.64867" pt_clust_5="39.64867" pt_clust_6="74.25068"></scales>
<clustering>
<clus scale="   39.649">  4  5 -1 -1</clus>
<clus scale="   74.251">  2  6  1 -1</clus>
<clus scale="  152.184">  1  3  2 -1</clus>
<clus scale="  152.184">  1  3  2 -1</clus>
</clustering>
</event>
<event>
 6    0  0.6687079E+002  0.9196624E+02  0.7546771E-02  0.1298159E+00
         21   -1    0    0  506  501  0.00000000000E+00  0.00000000000E+00  0.22399474418E+03  0.22399474418E+03  0.00000000000E+00 0.  1.
         21   -1    0    0  505  502 -0.00000000000E+00 -0.00000000000E+00 -0.65774455740E+03  0.65774455740E+03  0.00000000000E+00 0.  1.
         21    1    1    2  503  501  0.36724100337E+02 -0.53315462615E+02  0.16257310195E+03  0.17498917560E+03  0.00000000000E+00 0.  1.
         21    1    1    2  504  502 -0.40801182909E+02  0.25353865579E+02 -0.45202900487E+02  0.65961028184E+02  0.00000000000E+00 0. -1.
         21    1    1    2  505  503  0.58940891421E+02  0.78367795357E+02 -0.14622539968E+02  0.99143122332E+02  0.00000000000E+00 0.  1.
         21    1    1    2  506  504 -0.54863808849E+02 -0.50406198321E+02 -0.53649747472E+03  0.54164597546E+03  0.00000000000E+00 0.  1.
<scales pt_clust_3="64.28589" pt_clust_4="48.03702" pt_clust_5="14000.00000" pt_clust_6="91.96624"></scales>
<clustering>
<clus scale="   48.037">  2  4  1 -1</clus>
<clus scale="   64.286">  1  3  2 -1</clus>
<clus scale="   91.966">  2  6  1 -1</clus>
<clus scale="   64.286">  1  3  2 -1</clus>
</clustering>
</event>
<event>
 6    0  0.6687079E+002  0.7799880E+02  0.7546771E-02  0.1334828E+00
         21   -1    0    0  505  501  0.00000000000E+00  0.00000000000E+00  0.16307386700E+04  0.16307386700E+04  0.00000000000E+00 0. -1.
         21   -1    0    0  506  502 -0.00000000000E+00 -0.00000000000E+00 -0.27620884465E+04  0.27620884465E+04  0.00000000000E+00 0.  1.
         21    1    1    2  503  501 -0.22179878790E+02  0.25197722488E+02  0.45905228275E+02  0.56869695134E+02  0.00000000000E+00 0.  1.
         21    1    1    2  504  502  0.37558970095E+02  0.83165974283E+02  0.14660362883E+03  0.17268433484E+03  0.00000000000E+00 0. -1.
         21    1    1    2  505  504  0.29599493560E+02 -0.97068614858E+02  0.14176973934E+04  0.14213248556E+04  0.00000000000E+00 0. -1.
         21    1    1    2  506  503 -0.44978584865E+02 -0.11295081913E+02 -0.27415560269E+04  0.27419482309E+04  0.00000000000E+00 0.  1.
<scales pt_clust_3="33.56892" pt_clust_4="77.99880" pt_clust_5="14000.00000" pt_clust_6="46.37703"></scales>
<clustering>
<clus scale="   33.569">  1  3  2 -1</clus>
<clus scale="   46.377">  2  6  1 -1</clus>
<clus scale="   77.999">  2  4  1 -1</clus>
<clus scale="   33.569">  1  3  2 -1</clus>
</clustering>
</event>
<event>
 6    0  0.6687079E+002  0.9226023E+02  0.7546771E-02  0.1297469E+00
         21   -1    0    0  506  501  0.00000000000E+00  0.00000000000E+00  0.10400090955E+04  0.10400090955E+04  0.00000000000E+00 0.  1.
         21   -1    0    0  505  502 -0.00000000000E+00 -0.00000000000E+00 -0.17753752830E+03  0.17753752830E+03  0.00000000000E+00 0.  1.
         21    1    1    2  503  501 -0.16691222925E+02  0.28438404214E+02  0.49425754532E+02  0.59415864615E+02  0.00000000000E+00 0. -1.
         21    1    1    2  504  502 -0.96035565988E+02 -0.38827984887E+01  0.40372366018E+02  0.10424890406E+03  0.00000000000E+00 0.  1.
         21    1    1    2  505  503  0.82982867240E+02 -0.43590193961E+02 -0.12459587575E+03  0.15591790634E+03  0.00000000000E+00 0.  1.
         21    1    1    2  506  504  0.29743921673E+02  0.19034588235E+02  0.89726932238E+03  0.89796394878E+03  0.00000000000E+00 0.  1.
<scales pt_clust_3="32.97484" pt_clust_4="92.26023" pt_clust_5="14000.00000" pt_clust_6="47.22930"></scales>
<clustering>
<clus scale="   32.975">  1  3  2 -1</clus>
<clus scale="   47.229">  1  6  2 -1</clus>
<clus scale="   92.260">  1  4  2 -1</clus>
<clus scale="   32.975">  1  3  2 -1</clus>
</clustering>
</event>
<event>
 6    0  0.6687079E+002  0.1904414E+03  0.7546771E-02  0.1158064E+00
         21   -1    0    0  505  501  0.00000000000E+00  0.00000000000E+00  0.60780997634E+03  0.60780997634E+03  0.00000000000E+00 0.  1.
         21   -1    0    0  504  502 -0.00000000000E+00 -0.00000000000E+00 -0.80542244196E+03  0.80542244196E+03  0.00000000000E+00 0. -1.
         21    1    1    2  503  502  0.86905725952E+02  0.43433798393E+02 -0.40039951888E+03  0.41201805150E+03  0.00000000000E+00 0. -1.
         21    1    1    2  504  501 -0.67848242409E+02  0.33607115220E+02 -0.26051028547E+03  0.27129030765E+03  0.00000000000E+00 0. -1.
         21    1    1    2  505  506 -0.12366603849E+03 -0.15732453505E+03  0.54103091257E+03  0.57685244800E+03  0.00000000000E+00 0.  1.
         21    1    1    2  506  503  0.10460855494E+03  0.80283621438E+02 -0.77733573838E+02  0.15307161115E+03  0.00000000000E+00 0.  1.
<scales pt_clust_3="77.51123" pt_clust_4="75.71540" pt_clust_5="14000.00000" pt_clust_6="190.44144"></scales>
<clustering>
<clus scale="   75.715">  2  4  1 -1</clus>
<clus scale="   77.511">  2  3  1 -1</clus>
<clus scale="  190.441">  2  6  1 -1</clus>
<clus scale="  190.441">  1  3  2 -1</clus>
</clustering>
</event>
<event>
 6    0  0.6687079E+002  0.1026138E+03  0.7546771E-02  0.1274894E+00
         21   -1    0    0  502  501  0.00000000000E+00  0.00000000000E+00  0.12749218306E+04  0.12749218306E+04  0.00000000000E+00 0.  1.
         21   -1    0    0  506  502 -0.00000000000E+00 -0.00000000000E+00 -0.40375917873E+02  0.40375917873E+02  0.00000000000E+00 0.  1.
         21    1    1    2  503  504 -0.11108415925E+03  0.83970222996E+01  0.43602405298E+03  0.45003019365E+03  0.00000000000E+00 0.  1.
         21    1    1    2  504  505  0.94571307308E+02  0.19851988989E+02  0.45935076623E+03  0.46940489992E+03  0.00000000000E+00 0.  1.
         21    1    1    2  505  501  0.68331539190E+01 -0.63558140505E+02  0.35147329740E+03  0.35723914679E+03  0.00000000000E+00 0. -1.
         21    1    1    2  506  503  0.96796980201E+01  0.35309129216E+02 -0.12302203869E+02  0.38623508123E+02  0.00000000000E+00 0.  1.
<scales pt_clust_3="102.61381" pt_clust_4="14000.00000" pt_clust_5="57.39621" pt_clust_6="36.61190"></scales>
<clustering>
<clus scale="   36.612">  2  6  1 -1</clus>
<clus scale="   57.396">  1  5  2 -1</clus>
<clus scale="  102.614">  2  3  1 -1</clus>
<clus scale="   57.396">  1  3  2 -1</clus>
</clustering>
</event>
<event>
 6    0  0.6687079E+002  0.8712040E+02  0.7546771E-02  0.1309979E+00
         21   -1    0    0  503  501  0.00000000000E+00  0.00000000000E+00  0.19146356624E+03  0.19146356624E+03  0.00000000000E+00 0.  1.
         21   -1    0    0  505  502 -0.00000000000E+00 -0.00000000000E+00 -0.31864536535E+04  0.31864536535E+04  0.00000000000E+00 0.  1.
         21    1    1    2  503  506 -0.41376226925E+02 -0.23150818594E+02 -0.17883998567E+02  0.50673365399E+02  0.00000000000E+00 0. -1.
         21    1    1    2  504  501  0.98466110439E+02 -0.44004682867E+01  0.10926206403E+03  0.14715005152E+03  0.00000000000E+00 0.  1.
         21    1    1    2  505  504 -0.88734204130E+02  0.86263369599E+02 -0.35844101053E+02  0.12884070590E+03  0.00000000000E+00 0.  1.
         21    1    1    2  506  502  0.31644320616E+02 -0.58712082719E+02 -0.30505240516E+04  0.30512530969E+04  0.00000000000E+00 0.  1.
<scales pt_clust_3="47.41258" pt_clust_4="87.12040" pt_clust_5="14000.00000" pt_clust_6="66.69850"></scales>
<clustering>
<clus scale="   47.413">  1  3  2 -1</clus>
<clus scale="   66.698">  2  6  1 -1</clus>
<clus scale="   87.120">  1  4  2 -1</clus>
<clus scale="   47.413">  1  3  2 -1</clus>
</clustering>
</event>
<event>
 6    0  0.6687079E+002  0.2378123E+03  0.7546771E-02  0.1121259E+00
         21   -1    0    0  503  501  0.00000000000E+00  0.00000000000E+00  0.17965285721E+03  0.17965285721E+03  0.00000000000E+00 0.  1.
         21   -1    0    0  505  502 -0.00000000000E+00 -0.00000000000E+00 -0.70083531667E+03  0.70083531667E+03  0.00000000000E+00 0.  1.
         21    1    1    2  503  504  0.66601823140E+02 -0.35003592713E+02 -0.12382848521E+03  0.14489495539E+03  0.00000000000E+00 0.  1.
         21    1    1    2  504  502  0.10919263112E+03 -0.91097883157E+02 -0.35857229106E+03  0.38574077166E+03  0.00000000000E+00 0.  1.
         21    1    1    2  505  506 -0.38546968911E+01 -0.36820070644E+02 -0.98791549727E+02  0.10550045776E+03  0.00000000000E+00 0.  1.
         21    1    1    2  506  501 -0.17193975737E+03  0.16292154651E+03  0.60009866529E+02  0.24435198907E+03  0.00000000000E+00 0.  1.
<scales pt_clust_3="33.00227" pt_clust_4="33.00227" pt_clust_5="37.02130" pt_clust_6="233.44419"></scales>
<clustering>
<clus scale="   33.002">  3  4 -1 -1</clus>
<clus scale="   37.021">  2  5  1 -1</clus>
<clus scale="  233.444">  1  6  2 -1</clus>
<clus scale="  233.444">  1  3  2 -1</clus>
</clustering>
</event>
<event>
 6    0  0.6687079E+002  0.1760224E+03  0.7546771E-02  0.1171709E+00
         21   -1    0    0  504  501  0.00000000000E+00  0.00000000000E+00  0.76321555999E+03  0.76321555999E+03  0.00000000000E+00 0. -1.
         21   -1    0    0  505  502 -0.00000000000E+00 -0.00000000000E+00 -0.21916112370E+03  0.21916112370E+03  0.00000000000E+00 0. -1.
         21    1    1    2  503  502 -0.48669827378E+02  0.17180702223E+03  0.12498388421E+03  0.21796186891E+03  0.00000000000E+00 0. -1.
         21    1    1    2  504  503 -0.42819805403E+02 -0.39768279136E+02  0.23192757903E+03  0.23917661607E+03  0.00000000000E+00 0. -1.
         21    1    1    2  505  506  0.91661983439E+02  0.29287714288E+02 -0.13451528674E+03  0.16539060368E+03  0.00000000000E+00 0. -1.
         21    1    1    2  506  501 -0.17235065722E+00 -0.16132645739E+03  0.32165825980E+03  0.35984759504E+03  0.00000000000E+00 0. -1.
<scales pt_clust_3="14000.00000" pt_clust_4="58.43844" pt_clust_5="94.68262" pt_clust_6="176.02238"></scales>
<clustering>
<clus scale="   58.438">  1  4  2 -1</clus>
<clus scale="   94.683">  2  5  1 -1</clus>
<clus scale="  176.022">  1  6  2 -1</clus>
<clus scale="   58.438">  1  3  2 -1</clus>
</clustering>
</event>
<event>
 6    0  0.6687079E+002  0.1974942E+03  0.7546771E-02  0.1151870E+00
         21   -1    0    0  504  501  0.00000000000E+00  0.00000000000E+00  0.69871242245E+03  0.69871242245E+03  0.00000000000E+00 0.  1.
         21   -1    0    0  506  502 -0.00000000000E+00 -0.00000000000E+00 -0.15619075095E+03  0.15619075095E+03  0.00000000000E+00 0.  1.
         21    1    1    2  503  502 -0.14108725321E+03 -0.59591617830E+02 -0.45554533502E+02  0.15978732571E+03  0.00000000000E+00 0.  1.
         21    1    1    2  504  505  0.16183868976E+03  0.13773406994E+02  0.58051194098E+03  0.60280642155E+03  0.00000000000E+00 0.  1.
         21    1    1    2  505  503 -0.41653463389E+02  0.21206552810E+02 -0.19041152947E+02  0.50470728149E+02  0.00000000000E+00 0.  1.
         21    1    1    2  506  501  0.20902026840E+02  0.24611658026E+02  0.26605416977E+02  0.41838697988E+02  0.00000000000E+00 0.  1.
<scales pt_clust_3="39.96648" pt_clust_4="183.94487" pt_clust_5="39.96648" pt_clust_6="32.28976"></scales>
<clustering>
<clus scale="   32.290">  1  6  2 -1</clus>
<clus scale="   39.966">  3  5 -1 -1</clus>
<clus scale="  183.945">  1  4  2 -1</clus>
<clus scale="   32.290">  1  3  2 -1</clus>
</clustering>
</event>
<event>
 6    0  0.6687079E+002  0.1230260E+03  0.7546771E-02  0.1238187E+00
         21   -1    0    0  505  501  0.00000000000E+00  0.00000000000E+00  0.56131051473E+03  0.56131051473E+03  0.00000000000E+00 0.  1.
         21   -1    0    0  501  502 -0.00000000000E+00 -0.00000000000E+00 -0.12121972902E+03  0.12121972902E+03  0.00000000000E+00 0.  1.
         21    1    1    2  503  502  0.35165793636E+02 -0.20679581129E+02  0.95557862788E+01  0.41899775287E+02  0.00000000000E+00 0.  1.
         21    1    1    2  504  506 -0.26404266228E+02 -0.28526167936E+02  0.14966313631E+03  0.15462852875E+03  0.00000000000E+00 0.  1.
         21    1    1    2  505  504 -0.85629847886E+02  0.89294355846E+01  0.35903299070E+03  0.36921117816E+03  0.00000000000E+00 0.  1.
         21    1    1    2  506  503  0.76868320478E+02  0.40276313481E+02 -0.78161127573E+02  0.11679076155E+03  0.00000000000E+00 0. -1.
<scales pt_clust_3="40.79556" pt_clust_4="34.91848" pt_clust_5="34.91848" pt_clust_6="111.51138"></scales>
<clustering>
<clus scale="   34.918">  4  5 -1 -1</clus>
<clus scale="   40.796">  2  3  1 -1</clus>
<clus scale="  111.511">  2  6  1 -1</clus>
<clus scale="  123.026">  1  3  2 -1</clus>
</clustering>
</event>
<event>
 6    0  0.6687079E+002  0.1035088E+03  0.7546771E-02  0.1273086E+00
         21   -1    0    0  504  501  0.00000000000E+00  0.00000000000E+00  0.49378949183E+02  0.49378949183E+02  0.00000000000E+00 0.  1.
         21   -1    0    0  503  502 -0.00000000000E+00 -0.00000000000E+00 -0.13708949421E+04  0.13708949421E+04  0.00000000000E+00 0.  1.
         21    1    1    2  503  505  0.30254438586E+02 -0.57609791650E+02 -0.92033650013E+03  0.92263399711E+03  0.00000000000E+00 0.  1.
         21    1    1    2  504  506  0.18652755024E+02  0.62831756175E+02 -0.17376071006E+03  0.18571090225E+03  0.00000000000E+00 0.  1.
         21    1    1    2  505  501 -0.66502619054E+01 -0.79175523127E+02 -0.12093264147E+02  0.80369375284E+02  0.00000000000E+00 0.  1.
         21    1    1    2  506  502 -0.42256931705E+02  0.73953558602E+02 -0.21532551859E+03  0.23155961665E+03  0.00000000000E+00 0.  1.
<scales pt_clust_3="65.07088" pt_clust_4="51.59321" pt_clust_5="85.17542" pt_clust_6="51.59321"></scales>
<clustering>
<clus scale="   51.593">  4  6 -1 -1</clus>
<clus scale="   65.071">  2  3  1 -1</clus>
<clus scale="   85.175">  1  5  2 -1</clus>
<clus scale="   85.175">  1  3  2 -1</clus>
</clustering>
</event>
<event>
 6    0  0.6687079E+002  0.9155102E+02  0.7546771E-02  0.1299139E+00
         21   -1    0    0  506  501  0.00000000000E+00  0.00000000000E+00  0.35674297178E+03  0.35674297178E+03  0.00000000000E+00 0. -1.
         21   -1    0    0  505  502 -0.00000000000E+00 -0.00000000000E+00 -0.53843061549E+03  0.53843061549E+03  0.00000000000E+00 0.  1.
         21    1    1    2  503  502  0.51746807134E+02  0.58445367205E+02 -0.49808012591E+03  0.50416009840E+03  0.00000000000E+00 0.  1.
         21    1    1    2  504  501 -0.75646272890E+02  0.55744828677E+02  0.16360181292E+03  0.18866742622E+03  0.00000000000E+00 0. -1.
         21    1    1    2  505  504  0.42896925634E+02 -0.87520472328E+02  0.96088453604E+02  0.13686844129E+03  0.00000000000E+00 0. -1.
         21    1    1    2  506  503 -0.18997459878E+02 -0.26669723554E+02  0.56702215673E+02  0.65477621356E+02  0.00000000000E+00 0. -1.
<scales pt_clust_3="77.72667" pt_clust_4="14000.00000" pt_clust_5="91.55102" pt_clust_6="32.74412"></scales>
<clustering>
<clus scale="   32.744">  1  6  2 -1</clus>
<clus scale="   77.727">  2  3  1 -1</clus>
<clus scale="   91.551">  2  5  1 -1</clus>
<clus scale="   32.744">  1  3  2 -1</clus>
</clustering>
</event>
<event>
 6    0  0.6687079E+002  0.1362089E+03  0.7546771E-02  0.1218523E+00
         21   -1    0    0  505  501  0.00000000000E+00  0.00000000000E+00  0.15809385424E+03  0.15809385424E+03  0.00000000000E+00 0.  1.
         21   -1    0    0  504  502 -0.00000000000E+00 -0.00000000000E+00 -0.88574803132E+03  0.88574803132E+03  0.00000000000E+00 0. -1.
         21    1    1    2  503  501 -0.36318675789E+02  0.16542852917E+02  0.56321152136E+02  0.69027417536E+02  0.00000000000E+00 0.  1.
         21    1    1    2  504  503  0.24420173818E+02  0.12729727544E+03 -0.81209443320E+03  0.82237358278E+03  0.00000000000E+00 0. -1.
         21    1    1    2  505  506 -0.91630979638E+01 -0.82726978735E+02  0.27948776572E+02  0.87800054025E+02  0.00000000000E+00 0.  1.
         21    1    1    2  506  502  0.21061599935E+02 -0.61113149620E+02  0.17032742125E+00  0.64640831212E+02  0.00000000000E+00 0.  1.
<scales pt_clust_3="39.90880" pt_clust_4="130.14175" pt_clust_5="35.42612" pt_clust_6="35.42612"></scales>
<clustering>
<clus scale="   35.426">  5  6 -1 -1</clus>
<clus scale="   39.909">  1  3  2 -1</clus>
<clus scale="  130.142">  2  4  1 -1</clus>
<clus scale="   39.909">  1  3  2 -1</clus>
</clustering>
</event>
<event>
 6    0  0.6687079E+002  0.4419367E+03  0.7546771E-02  0.1030154E+00
         21   -1    0    0  503  501  0.00000000000E+00  0.00000000000E+00  0.22027628270E+04  0.22027628270E+04  0.00000000000E+00 0.  1.
         21   -1    0    0  505  502 -0.00000000000E+00 -0.00000000000E+00 -0.80344180206E+03  0.80344180206E+03  0.00000000000E+00 0.  1.
         21    1    1    2  503  506  0.15752353642E+03  0.37980652268E+03  0.15106607006E+04  0.15656188589E+04  0.00000000000E+00 0.  1.
         21    1    1    2  504  502 -0.30368061664E+02 -0.45278143309E+02 -0.48595262616E+03  0.48900131319E+03  0.00000000000E+00 0.  1.
         21    1    1    2  505  501  0.53086826381E+02  0.19299275375E+02  0.52421332265E+03  0.52724783622E+03  0.00000000000E+00 0.  1.
         21    1    1    2  506  504 -0.18024230114E+03 -0.35382765475E+03 -0.14960037209E+03  0.42433662075E+03  0.00000000000E+00 0.  1.
<scales pt_clust_3="14000.00000" pt_clust_4="54.51907" pt_clust_5="56.27492" pt_clust_6="441.93673"></scales>
<clustering>
<clus scale="   54.519">  2  4  1 -1</clus>
<clus scale="   56.275">  1  5  2 -1</clus>
<clus scale="  441.937">  2  6  1 -1</clus>
<clus scale="   56.275">  1  3  2 -1</clus>
</clustering>
</event>
<event>
 6    0  0.6687079E+002  0.6833592E+02  0.7546771E-02  0.1365845E+00
         21   -1    0    0  504  501  0.00000000000E+00  0.00000000000E+00  0.12239825706E+04  0.12239825706E+04  0.00000000000E+00 0.  1.
         21   -1    0    0  503  502 -0.00000000000E+00 -0.00000000000E+00 -0.94811798677E+02  0.94811798677E+02  0.00000000000E+00 0.  1.
         21    1    1    2  503  506  0.37106013345E+02  0.95936840294E+02 -0.29772994286E+02  0.10708484833E+03  0.00000000000E+00 0.  1.
         21    1    1    2  504  505 -0.47485777912E+02  0.69586310324E+01  0.10496428114E+04  0.10507394316E+04  0.00000000000E+00 0.  1.
         21    1    1    2  505  502 -0.23549313165E+02 -0.37042652445E+02  0.36209756442E+02  0.56902326071E+02  0.00000000000E+00 0.  1.
         21    1    1    2  506  501  0.33929077732E+02 -0.65852818882E+02  0.73091198371E+02  0.10406776326E+03  0.00000000000E+00 0. -1.
<scales pt_clust_3="14000.00000" pt_clust_4="48.11003" pt_clust_5="43.89451" pt_clust_6="68.33592"></scales>
<clustering>
<clus scale="   43.895">  2  5  1 -1</clus>
<clus scale="   48.110">  1  4  2 -1</clus>
<clus scale="   68.336">  1  6  2 -1</clus>
<clus scale="   48.110">  1  3  2 -1</clus>
</clustering>
</event>
<event>
 6    0  0.6687079E+002  0.9548957E+02  0.7546771E-02  0.1290077E+00
         21   -1    0    0  505  501  0.00000000000E+00  0.00000000000E+00  0.56510109753E+02  0.56510109753E+02  0.00000000000E+00 0. -1.
         21   -1    0    0  504  502 -0.00000000000E+00 -0.00000000000E+00 -0.59310699537E+03  0.59310699537E+03  0.00000000000E+00 0. -1.
         21    1    1    2  503  501 -0.57411359425E+02  0.71188456377E+02 -0.30342277991E+02  0.96356184784E+02  0.00000000000E+00 0. -1.
         21    1    1    2  504  503  0.92206621048E+02 -0.62086465029E+02 -0.17421889690E+03  0.20666159329E+03  0.00000000000E+00 0. -1.
         21    1    1    2  505  506 -0.19608572416E+02 -0.46974449275E+02 -0.11501187618E+03  0.12577291704E+03  0.00000000000E+00 0. -1.
         21    1    1    2  506  502 -0.15186689207E+02  0.37872457927E+02 -0.21702383454E+03  0.22082641001E+03  0.00000000000E+00 0. -1.
<scales pt_clust_3="14000.00000" pt_clust_4="95.48957" pt_clust_5="42.54734" pt_clust_6="40.80390"></scales>
<clustering>
<clus scale="   40.804">  2  6  1 -1</clus>
<clus scale="   42.547">  2  5  1 -1</clus>
<clus scale="   95.490">  2  4  1 -1</clus>
<clus scale="   95.490">  1  3  2 -1</clus>
</clustering>
</event>
<event>
 6    0  0.6687079E+002  0.2086824E+03  0.7546771E-02  0.1142614E+00
         21   -1    0    0  505  501  0.00000000000E+00  0.00000000000E+00  0.13042637335E+04  0.13042637335E+04  0.00000000000E+00 0.  1.
         21   -1    0    0  503  502 -0.00000000000E+00 -0.00000000000E+00 -0.36592103093E+03  0.36592103093E+03  0.00000000000E+00 0. -1.
         21    1    1    2  503  504 -0.13667715767E+03  0.10227405819E+03  0.99172596381E+02  0.19742297809E+03  0.00000000000E+00 0.  1.
         21    1    1    2  504  501 -0.20161589269E+03  0.24341867163E+02  0.10107255297E+04  0.10309255992E+04  0.00000000000E+00 0.  1.
         21    1    1    2  505  506  0.33613460291E+03 -0.68529608746E+02 -0.11793589271E+03  0.36275563860E+03  0.00000000000E+00 0. -1.
         21    1    1    2  506  502  0.21584474457E+01 -0.58086316604E+02 -0.53619530804E+02  0.79080548529E+02  0.00000000000E+00 0.  1.
<scales pt_clust_3="164.88284" pt_clust_4="208.68241" pt_clust_5="14000.00000" pt_clust_6="58.12641"></scales>
<clustering>
<clus scale="   58.126">  2  6  1 -1</clus>
<clus scale="  164.883">  2  3  1 -1</clus>
<clus scale="  208.682">  1  4  2 -1</clus>
<clus scale="  208.682">  1  3  2 -1</clus>
</clustering>
</event>
<event>
 6    0  0.6687079E+002  0.2017195E+03  0.7546771E-02  0.1148296E+00
         21   -1    0    0  504  501  0.00000000000E+00  0.00000000000E+00  0.70431894350E+02  0.70431894350E+02  0.00000000000E+00 0.  1.
         21   -1    0    0  506  502 -0.00000000000E+00 -0.00000000000E+00 -0.13440745034E+04  0.13440745034E+04  0.00000000000E+00 0.  1.
         21    1    1    2  503  505  0.24276807028E+02  0.98622222508E+02 -0.30074809511E+03  0.31743522622E+03  0.00000000000E+00 0.  1.
         21    1    1    2  504  503 -0.53955090151E+02  0.10219180063E+03 -0.12974890634E+03  0.17375009228E+03  0.00000000000E+00 0.  1.
         21    1    1    2  505  502 -0.23942342774E+02  0.65767936309E+02 -0.37882844921E+03  0.38523973206E+03  0.00000000000E+00 0.  1.
         21    1    1    2  506  501  0.53620625897E+02 -0.26658195945E+03 -0.46431715840E+03  0.53808134721E+03  0.00000000000E+00 0.  1.
<scales pt_clust_3="58.13012" pt_clust_4="115.56088" pt_clust_5="58.13012" pt_clust_6="189.17495"></scales>
<clustering>
<clus scale="   58.130">  3  5 -1 -1</clus>
<clus scale="  115.561">  1  4  2 -1</clus>
<clus scale="  189.175">  1  6  2 -1</clus>
<clus scale="  115.561">  1  3  2 -1</clus>
</clustering>
</event>
<event>
 6    0  0.6687079E+002  0.1409369E+03  0.7546771E-02  0.1212074E+00
         21   -1    0    0  503  501  0.00000000000E+00  0.00000000000E+00  0.13447666880E+03  0.13447666880E+03  0.00000000000E+00 0. -1.
         21   -1    0    0  505  502 -0.00000000000E+00 -0.00000000000E+00 -0.53848950632E+03  0.53848950632E+03  0.00000000000E+00 0. -1.
         21    1    1    2  503  502 -0.90309739334E+02  0.33367960015E+01 -0.60830195704E+02  0.10893711918E+03  0.00000000000E+00 0. -1.
         21    1    1    2  504  501  0.35107871625E+02 -0.41374505217E+02  0.67298420908E+01  0.54678177608E+02  0.00000000000E+00 0. -1.
         21    1    1    2  505  506 -0.54597406060E+02  0.38674233924E+02 -0.38754627368E+03  0.39327940114E+03  0.00000000000E+00 0. -1.
         21    1    1    2  506  504  0.10979927377E+03 -0.63652470835E+00  0.37633789768E+02  0.11607147719E+03  0.00000000000E+00 0. -1.
<scales pt_clust_3="124.25336" pt_clust_4="46.75939" pt_clust_5="66.90720" pt_clust_6="46.75939"></scales>
<clustering>
<clus scale="   46.759">  4  6 -1 -1</clus>
<clus scale="   66.907">  2  5  1 -1</clus>
<clus scale="  124.253">  2  3  1 -1</clus>
<clus scale="  140.937">  1  3  2 -1</clus>
</clustering>
</event>
<event>
 6    0  0.6687079E+002  0.1591102E+03  0.7546771E-02  0.1189705E+00
         21   -1    0    0  505  501  0.00000000000E+00  0.00000000000E+00  0.32264337673E+03  0.32264337673E+03  0.00000000000E+00 0.  1.
         21   -1    0    0  506  502 -0.00000000000E+00 -0.00000000000E+00 -0.41438575653E+03  0.41438575653E+03  0.00000000000E+00 0.  1.
         21    1    1    2  503  504 -0.15494489621E+03  0.42098652767E+02 -0.84307742507E+02  0.18135052488E+03  0.00000000000E+00 0.  1.
         21    1    1    2  504  501 -0.96861159511E+02  0.53842397052E+02  0.16873909615E+03  0.20187612665E+03  0.00000000000E+00 0.  1.
         21    1    1    2  505  502  0.16918199588E+03 -0.11412520809E+03 -0.65159680371E+02  0.21422627009E+03  0.00000000000E+00 0.  1.
         21    1    1    2  506  503  0.82624059841E+02  0.18184158275E+02 -0.11101405307E+03  0.13957621164E+03  0.00000000000E+00 0.  1.
<scales pt_clust_3="14000.00000" pt_clust_4="107.23560" pt_clust_5="159.11019" pt_clust_6="84.60141"></scales>
<clustering>
<clus scale="   84.601">  2  6  1 -1</clus>
<clus scale="  107.236">  1  4  2 -1</clus>
<clus scale="  159.110">  1  5  2 -1</clus>
<clus scale="  107.236">  1  3  2 -1</clus>
</clustering>
</event>
<event>
 6    0  0.6687079E+002  0.1256385E+03  0.7546771E-02  0.1234075E+00
         21   -1    0    0  505  501  0.00000000000E+00  0.00000000000E+00  0.39191836966E+03  0.39191836966E+03  0.00000000000E+00 0.  1.
         21   -1    0    0  504  502 -0.00000000000E+00 -0.00000000000E+00 -0.20170382038E+04  0.20170382038E+04  0.00000000000E+00 0.  1.
         21    1    1    2  503  501  0.97312653465E+01  0.36972274192E+02  0.35204180580E+03  0.35411167675E+03  0.00000000000E+00 0.  1.
         21    1    1    2  504  503  0.69398328600E+02 -0.96089630533E+02 -0.19348066685E+04  0.19384339528E+04  0.00000000000E+00 0.  1.
         21    1    1    2  505  506 -0.38114223740E+02  0.63675028918E+01 -0.27590092417E+01  0.38740821834E+02  0.00000000000E+00 0. -1.
         21    1    1    2  506  502 -0.41015370206E+02  0.52749853449E+02 -0.39595962200E+02  0.77670122020E+02  0.00000000000E+00 0. -1.
<scales pt_clust_3="38.23149" pt_clust_4="117.40455" pt_clust_5="34.01950" pt_clust_6="34.01950"></scales>
<clustering>
<clus scale="   34.020">  5  6 -1 -1</clus>
<clus scale="   38.231">  1  3  2 -1</clus>
<clus scale="  117.405">  2  4  1 -1</clus>
<clus scale="   38.231">  1  3  2 -1</clus>
</clustering>
</event>
<event>
 6    0  0.6687079E+002  0.7670761E+02  0.7546771E-02  0.1338663E+00
         21   -1    0    0  505  501  0.00000000000E+00  0.00000000000E+00  0.12982065311E+04  0.12982065311E+04  0.00000000000E+00 0.  1.
         21   -1    0    0  504  502 -0.00000000000E+00 -0.00000000000E+00 -0.27835183189E+03  0.27835183189E+03  0.00000000000E+00 0. -1.
         21    1    1    2  503  506 -0.37256095765E+01  0.59800690225E+02  0.46900997820E+02  0.76090119692E+02  0.00000000000E+00 0.  1.
         21    1    1    2  504  501  0.57152201560E+02 -0.45588960644E+02 -0.20262425018E+03  0.21540964286E+03  0.00000000000E+00 0. -1.
         21    1    1    2  505  503 -0.71574055968E+02  0.27701174207E+02  0.12193702421E+04  0.12217831182E+04  0.00000000000E+00 0.  1.
         21    1    1    2  506  502  0.18147463984E+02 -0.41912903789E+02 -0.43792290498E+02  0.63275482299E+02  0.00000000000E+00 0. -1.
<scales pt_clust_3="57.13664" pt_clust_4="76.70761" pt_clust_5="14000.00000" pt_clust_6="45.67299"></scales>
<clustering>
<clus scale="   45.673">  2  6  1 -1</clus>
<clus scale="   57.137">  2  3  1 -1</clus>
<clus scale="   76.708">  2  4  1 -1</clus>
<clus scale="   76.708">  1  3  2 -1</clus>
</clustering>
</event>
<event>
 6    0  0.6687079E+002  0.1143358E+03  0.7546771E-02  0.1252745E+00
         21   -1    0    0  505  501  0.00000000000E+00  0.00000000000E+00  0.12315879169E+04  0.12315879169E+04  0.00000000000E+00 0.  1.
         21   -1    0    0  503  502 -0.00000000000E+00 -0.00000000000E+00 -0.14966679571E+03  0.14966679571E+03  0.00000000000E+00 0.  1.
         21    1    1    2  503  506 -0.79027793836E+02 -0.32364779618E+02 -0.69288673002E+02  0.10997177531E+03  0.00000000000E+00 0.  1.
         21    1    1    2  504  502  0.66176284080E+02  0.13844368364E+03  0.76259433258E+02  0.17135184643E+03  0.00000000000E+00 0.  1.
         21    1    1    2  505  504  0.92400768917E+02  0.45687664915E+01  0.54169754349E+03  0.54954072128E+03  0.00000000000E+00 0.  1.
         21    1    1    2  506  501 -0.79549259161E+02 -0.11064767051E+03  0.53325281742E+03  0.55039036957E+03  0.00000000000E+00 0.  1.
<scales pt_clust_3="85.39831" pt_clust_4="114.33581" pt_clust_5="87.27320" pt_clust_6="14000.00000"></scales>
<clustering>
<clus scale="   85.398">  2  3  1 -1</clus>
<clus scale="   87.273">  1  5  2 -1</clus>
<clus scale="  114.336">  2  4  1 -1</clus>
<clus scale="   87.273">  1  3  2 -1</clus>
</clustering>
</event>
<event>
 6    0  0.6687079E+002  0.8531325E+02  0.7546771E-02  0.1314615E+00
         21   -1    0    0  505  501  0.00000000000E+00  0.00000000000E+00  0.28403741698E+04  0.28403741698E+04  0.00000000000E+00 0. -1.
         21   -1    0    0  501  502 -0.00000000000E+00 -0.00000000000E+00 -0.27607986863E+02  0.27607986863E+02  0.00000000000E+00 0.  1.
         21    1    1    2  503  502 -0.31934313490E+02 -0.16164910093E+02  0.25537587571E+00  0.35793433941E+02  0.00000000000E+00 0.  1.
         21    1    1    2  504  503  0.70181248225E+02  0.45142455641E+02  0.25458473212E+03  0.26791161739E+03  0.00000000000E+00 0.  1.
         21    1    1    2  505  506 -0.80201219442E+02  0.43842908463E+02  0.16269156594E+04  0.16294812055E+04  0.00000000000E+00 0. -1.
         21    1    1    2  506  504  0.41954284708E+02 -0.72820454011E+02  0.93101041554E+03  0.93479589985E+03  0.00000000000E+00 0.  1.
<scales pt_clust_3="35.79252" pt_clust_4="59.38639" pt_clust_5="85.31325" pt_clust_6="14000.00000"></scales>
<clustering>
<clus scale="   35.793">  2  3  1 -1</clus>
<clus scale="   59.386">  2  4  1 -1</clus>
<clus scale="   85.313">  1  5  2 -1</clus>
<clus scale="   85.313">  1  3  2 -1</clus>
</clustering>
</event>
<event>
 6    0  0.6687079E+002  0.2200931E+03  0.7546771E-02  0.1133814E+00
         21   -1    0    0  503  501  0.00000000000E+00  0.00000000000E+00  0.38927747720E+03  0.38927747720E+03  0.00000000000E+00 0. -1.
         21   -1    0    0  504  502 -0.00000000000E+00 -0.00000000000E+00 -0.41759987529E+03  0.41759987529E+03  0.00000000000E+00 0. -1.
         21    1    1    2  503  502 -0.52069790165E+02  0.81805897523E+00  0.21965630848E+03  0.22574504673E+03  0.00000000000E+00 0. -1.
         21    1    1    2  504  506 -0.12503535906E+03  0.14513284750E+03 -0.27035467575E+03  0.33134428490E+03  0.00000000000E+00 0. -1.
         21    1    1    2  505  501  0.84860315317E+02 -0.83836285987E+02  0.58497982889E+02  0.13286011428E+03  0.00000000000E+00 0. -1.
         21    1    1    2  506  505  0.92244833909E+02 -0.62114620491E+02 -0.36122013710E+02  0.11692790658E+03  0.00000000000E+00 0. -1.
<scales pt_clust_3="52.07622" pt_clust_4="198.02901" pt_clust_5="95.56764" pt_clust_6="95.56764"></scales>
<clustering>
<clus scale="   52.076">  1  3  2 -1</clus>
<clus scale="   95.568">  5  6 -1 -1</clus>
<clus scale="  198.029">  2  4  1 -1</clus>
<clus scale="   52.076">  1  3  2 -1</clus>
</clustering>
</event>
<event>
 6    0  0.1268484E+003  0.9787957E+02  0.7546771E-02  0.1284819E+00
         21   -1    0    0  503  501  0.00000000000E+00  0.00000000000E+00  0.23614385226E+04  0.23614385226E+04  0.00000000000E+00 0.  1.
         21   -1    0    0  504  502 -0.00000000000E+00 -0.00000000000E+00 -0.68531790720E+03  0.68531790720E+03  0.00000000000E+00 0.  1.
         21    1    1    2  503  506  0.30083548919E+02  0.71931815015E+01  0.15846986742E+03  0.16146039965E+03  0.00000000000E+00 0.  1.
         21    1    1    2  504  505  0.36326352079E+02 -0.68390101919E+02  0.81230791719E+03  0.81599078562E+03  0.00000000000E+00 0.  1.
         21    1    1    2  505  501  0.30152498024E+02  0.43916991304E+02  0.13832811348E+04  0.13843065315E+04  0.00000000000E+00 0.  1.
         21    1    1    2  506  502 -0.96562399022E+02  0.17279929114E+02 -0.67793830399E+03  0.68499871304E+03  0.00000000000E+00 0.  1.
<scales pt_clust_3="30.93157" pt_clust_4="97.87957" pt_clust_5="68.94486" pt_clust_6="14000.00000"></scales>
<clustering>
<clus scale="   30.932">  1  3  2 -1</clus>
<clus scale="   68.945">  1  5  2 -1</clus>
<clus scale="   97.880">  1  4  2 -1</clus>
<clus scale="   30.932">  1  3  2 -1</clus>
</clustering>
</event>
<event>
 6    0  0.6687079E+002  0.2004701E+03  0.7546771E-02  0.1149343E+00
         21   -1    0    0  506  501  0.00000000000E+00  0.00000000000E+00  0.22825356804E+04  0.22825356804E+04  0.00000000000E+00 0. -1.
         21   -1    0    0  505  502 -0.00000000000E+00 -0.00000000000E+00 -0.79270122579E+02  0.79270122579E+02  0.00000000000E+00 0.  1.
         21    1    1    2  503  504 -0.66185117755E+02 -0.39729840890E+02  0.88459260950E+03  0.88795439909E+03  0.00000000000E+00 0. -1.
         21    1    1    2  504  501 -0.75960078081E+02 -0.94480412944E+02  0.75146376437E+03  0.76117952617E+03  0.00000000000E+00 0. -1.
         21    1    1    2  505  503  0.39457401556E+02 -0.97998619707E+01 -0.53533822389E+02  0.67221975364E+02  0.00000000000E+00 0.  1.
         21    1    1    2  506  502  0.10268779428E+03  0.14401011581E+03  0.62074300638E+03  0.64544990241E+03  0.00000000000E+00 0. -1.
<scales pt_clust_3="54.97823" pt_clust_4="54.97823" pt_clust_5="40.65617" pt_clust_6="188.26486"></scales>
<clustering>
<clus scale="   40.656">  2  5  1 -1</clus>
<clus scale="   54.978">  3  4 -1 -1</clus>
<clus scale="  188.265">  2  6  1 -1</clus>
<clus scale="  200.470">  1  3  2 -1</clus>
</clustering>
</event>
<event>
 6    0  0.6687079E+002  0.1433143E+03  0.7546771E-02  0.1208938E+00
         21   -1    0    0  503  501  0.00000000000E+00  0.00000000000E+00  0.34526608980E+03  0.34526608980E+03  0.00000000000E+00 0.  1.
         21   -1    0    0  504  502 -0.00000000000E+00 -0.00000000000E+00 -0.17998477507E+03  0.17998477507E+03  0.00000000000E+00 0. -1.
         21    1    1    2  503  505 -0.15914924942E+02 -0.41055737393E+02  0.80907176277E+02  0.92113134687E+02  0.00000000000E+00 0.  1.
         21    1    1    2  504  506 -0.35941405243E+02  0.52228054467E+02  0.53872392432E+02  0.83197289322E+02  0.00000000000E+00 0.  1.
         21    1    1    2  505  502  0.54472875985E+02 -0.11699226505E+03 -0.11306099104E+03  0.17157293491E+03  0.00000000000E+00 0. -1.
         21    1    1    2  506  501 -0.26165458000E+01  0.10581994797E+03  0.14356273707E+03  0.17836750594E+03  0.00000000000E+00 0.  1.
<scales pt_clust_3="44.03247" pt_clust_4="42.17403" pt_clust_5="132.54950" pt_clust_6="42.17403"></scales>
<clustering>
<clus scale="   42.174">  4  6 -1 -1</clus>
<clus scale="   44.032">  1  3  2 -1</clus>
<clus scale="  132.550">  2  5  1 -1</clus>
<clus scale="   44.032">  1  3  2 -1</clus>
</clustering>
</event>
<event>
 6    0  0.6687079E+002  0.1347871E+03  0.7546771E-02  0.1220521E+00
         21   -1    0    0  504  501  0.00000000000E+00  0.00000000000E+00  0.36556253723E+02  0.36556253723E+02  0.00000000000E+00 0. -1.
         21   -1    0    0  506  502 -0.00000000000E+00 -0.00000000000E+00 -0.12365816461E+04  0.12365816461E+04  0.00000000000E+00 0.  1.
         21    1    1    2  503  502  0.52167380382E+02  0.25490710760E+02 -0.69193779420E+03  0.69436958672E+03  0.00000000000E+00 0. -1.
         21    1    1    2  504  503 -0.37333447634E+02  0.11229898660E+03 -0.15339287717E+03  0.19373751178E+03  0.00000000000E+00 0. -1.
         21    1    1    2  505  501 -0.39273701819E+01 -0.62182160373E+02 -0.89490752067E+02  0.10904421127E+03  0.00000000000E+00 0. -1.
         21    1    1    2  506  505 -0.10906562566E+02 -0.75607536983E+02 -0.26520396894E+03  0.27598659006E+03  0.00000000000E+00 0.  1.
<scales pt_clust_3="58.06214" pt_clust_4="122.20157" pt_clust_5="51.36159" pt_clust_6="51.36159"></scales>
<clustering>
<clus scale="   51.362">  5  6 -1 -1</clus>
<clus scale="   58.062">  2  3  1 -1</clus>
<clus scale="  122.202">  1  4  2 -1</clus>
<clus scale="  122.202">  1  3  2 -1</clus>
</clustering>
</event>
<event>
 6    0  0.6687079E+002  0.1039973E+03  0.7546771E-02  0.1272108E+00
         21   -1    0    0  506  501  0.00000000000E+00  0.00000000000E+00  0.49035178726E+03  0.49035178726E+03  0.00000000000E+00 0.  1.
         21   -1    0    0  503  502 -0.00000000000E+00 -0.00000000000E+00 -0.21094280942E+03  0.21094280942E+03  0.00000000000E+00 0.  1.
         21    1    1    2  503  505 -0.34703098448E+02  0.12616001986E+01 -0.14535940960E+03  0.14944983987E+03  0.00000000000E+00 0.  1.
         21    1    1    2  504  501  0.10636105709E+03 -0.36272642884E+02  0.27833854172E+02  0.11577176912E+03  0.00000000000E+00 0.  1.
         21    1    1    2  505  504  0.31897561692E+02  0.44096621555E+02  0.50021094287E+02  0.73919390880E+02  0.00000000000E+00 0.  1.
         21    1    1    2  506  502 -0.10355552033E+03 -0.90855788688E+01  0.34691343899E+03  0.36215359681E+03  0.00000000000E+00 0.  1.
<scales pt_clust_3="34.72602" pt_clust_4="103.99729" pt_clust_5="51.08024" pt_clust_6="14000.00000"></scales>
<clustering>
<clus scale="   34.726">  2  3  1 -1</clus>
<clus scale="   51.080">  2  5  1 -1</clus>
<clus scale="  103.997">  2  4  1 -1</clus>
<clus scale="  103.997">  1  3  2 -1</clus>
</clustering>
</event>
<event>
 6    0  0.6687079E+002  0.1040731E+03  0.7546771E-02  0.1271957E+00
         21   -1    0    0  504  501  0.00000000000E+00  0.00000000000E+00  0.61293322907E+03  0.61293322907E+03  0.00000000000E+00 0.  1.
         21   -1    0    0  503  502 -0.00000000000E+00 -0.00000000000E+00 -0.60769097860E+02  0.60769097860E+02  0.00000000000E+00 0.  1.
         21    1    1    2  503  506  0.11836110538E+03  0.33305363215E+02  0.42637244022E+03  0.44374773945E+03  0.00000000000E+00 0.  1.
         21    1    1    2  504  505 -0.22600860898E+02 -0.23023681839E+02  0.55398772960E+02  0.64108602263E+02  0.00000000000E+00 0.  1.
         21    1    1    2  505  502 -0.92201221496E+02 -0.42819739808E+02  0.16785625653E+02  0.10303568601E+03  0.00000000000E+00 0.  1.
         21    1    1    2  506  501 -0.35590229863E+01  0.32538058432E+02  0.53607292382E+02  0.62810299216E+02  0.00000000000E+00 0.  1.
<scales pt_clust_3="104.07309" pt_clust_4="32.26281" pt_clust_5="14000.00000" pt_clust_6="30.69505"></scales>
<clustering>
<clus scale="   32.263">  1  4  2 -1</clus>
<clus scale="   30.695">  1  6  2 -1</clus>
<clus scale="  104.073">  1  3  2 -1</clus>
<clus scale="   32.263">  1  3  2 -1</clus>
</clustering>
</event>
<event>
 6    0  0.6687079E+002  0.1803196E+03  0.7546771E-02  0.1167494E+00
         21   -1    0    0  506  501  0.00000000000E+00  0.00000000000E+00  0.10546051802E+03  0.10546051802E+03  0.00000000000E+00 0. -1.
         21   -1    0    0  504  502 -0.00000000000E+00 -0.00000000000E+00 -0.40257273420E+03  0.40257273420E+03  0.00000000000E+00 0. -1.
         21    1    1    2  503  502 -0.54470320858E+00 -0.53041391730E+02 -0.28308979212E+02  0.60125570619E+02  0.00000000000E+00 0. -1.
         21    1    1    2  504  501 -0.40032281377E+02  0.10530021461E+02  0.80114858947E+00  0.41401772224E+02  0.00000000000E+00 0. -1.
         21    1    1    2  505  503  0.30928255989E+02 -0.12228364753E+03 -0.17663951236E+03  0.21705152568E+03  0.00000000000E+00 0.  1.
         21    1    1    2  506  505  0.96487285959E+01  0.16479501780E+03 -0.92964873196E+02  0.18945438370E+03  0.00000000000E+00 0. -1.
<scales pt_clust_3="36.46115" pt_clust_4="41.39402" pt_clust_5="36.46115" pt_clust_6="171.32990"></scales>
<clustering>
<clus scale="   36.461">  3  5 -1 -1</clus>
<clus scale="   41.394">  1  4  2 -1</clus>
<clus scale="  171.330">  1  6  2 -1</clus>
<clus scale="   41.394">  1  3  2 -1</clus>
</clustering>
</event>
<event>
 6    0  0.6687079E+002  0.1191995E+03  0.7546771E-02  0.1244424E+00
         21   -1    0    0  505  501  0.00000000000E+00  0.00000000000E+00  0.57102440461E+03  0.57102440461E+03  0.00000000000E+00 0.  1.
         21   -1    0    0  503  502 -0.00000000000E+00 -0.00000000000E+00 -0.99222824884E+03  0.99222824884E+03  0.00000000000E+00 0.  1.
         21    1    1    2  503  504  0.23858112428E+02 -0.32519410600E+02 -0.81209397658E+03  0.81309491967E+03  0.00000000000E+00 0.  1.
         21    1    1    2  504  506 -0.34918262726E+02 -0.71881819569E+02 -0.80877417250E+01  0.80322429138E+02  0.00000000000E+00 0.  1.
         21    1    1    2  505  502  0.52228583245E+02  0.21041395133E+03 -0.36413821626E+02  0.21983589841E+03  0.00000000000E+00 0.  1.
         21    1    1    2  506  501 -0.41168432947E+02 -0.10601272116E+03  0.43539169570E+03  0.44999940623E+03  0.00000000000E+00 0.  1.
<scales pt_clust_3="40.33264" pt_clust_4="85.00144" pt_clust_5="14000.00000" pt_clust_6="119.19949"></scales>
<clustering>
<clus scale="   40.333">  2  3  1 -1</clus>
<clus scale="   85.001">  2  4  1 -1</clus>
<clus scale="  119.199">  1  6  2 -1</clus>
<clus scale="  119.199">  1  3  2 -1</clus>
</clustering>
</event>
<event>
 6    0  0.6687079E+002  0.1576462E+03  0.7546771E-02  0.1191380E+00
         21   -1    0    0  503  501  0.00000000000E+00  0.00000000000E+00  0.91231835308E+02  0.91231835308E+02  0.00000000000E+00 0. -1.
         21   -1    0    0  504  502 -0.00000000000E+00 -0.00000000000E+00 -0.77719327830E+03  0.77719327830E+03  0.00000000000E+00 0. -1.
         21    1    1    2  503  505 -0.23984497956E+02  0.20067542424E+02 -0.35076094024E+00  0.31274357458E+02  0.00000000000E+00 0. -1.
         21    1    1    2  504  501 -0.69043513464E+02 -0.85784938050E+02 -0.19580846548E+01  0.11013580909E+03  0.00000000000E+00 0. -1.
         21    1    1    2  505  506 -0.21247724427E+02 -0.57096423386E+02 -0.80418155296E+02  0.10088878559E+03  0.00000000000E+00 0.  1.
         21    1    1    2  506  502  0.11427573585E+03  0.12281381901E+03 -0.60323444210E+03  0.62612616148E+03  0.00000000000E+00 0. -1.
<scales pt_clust_3="31.27239" pt_clust_4="157.64624" pt_clust_5="59.64428" pt_clust_6="14000.00000"></scales>
<clustering>
<clus scale="   31.272">  1  3  2 -1</clus>
<clus scale="   59.644">  1  5  2 -1</clus>
<clus scale="  157.646">  1  4  2 -1</clus>
<clus scale="   31.272">  1  3  2 -1</clus>
</clustering>
</event>
<event>
 6    0  0.6687079E+002  0.1696324E+03  0.7546771E-02  0.1178232E+00
         21   -1    0    0  503  501  0.00000000000E+00  0.00000000000E+00  0.43618687513E+03  0.43618687513E+03  0.00000000000E+00 0.  1.
         21   -1    0    0  505  502 -0.00000000000E+00 -0.00000000000E+00 -0.37820537482E+03  0.37820537482E+03  0.00000000000E+00 0.  1.
         21    1    1    2  503  506 -0.82919425078E+00  0.61815106909E+02  0.13447921717E+03  0.14800829320E+03  0.00000000000E+00 0.  1.
         21    1    1    2  504  502 -0.19640642603E+02 -0.15531832106E+03  0.20575119291E+03  0.25854030456E+03  0.00000000000E+00 0.  1.
         21    1    1    2  505  501  0.56619093580E+02  0.13651882839E+03 -0.31129060379E+03  0.34459389471E+03  0.00000000000E+00 0.  1.
         21    1    1    2  506  504 -0.36149256726E+02 -0.43015614238E+02  0.29041694027E+02  0.63249757486E+02  0.00000000000E+00 0.  1.
<scales pt_clust_3="61.82067" pt_clust_4="46.29764" pt_clust_5="151.00619" pt_clust_6="46.29764"></scales>
<clustering>
<clus scale="   46.298">  4  6 -1 -1</clus>
<clus scale="   61.821">  1  3  2 -1</clus>
<clus scale="  151.006">  2  5  1 -1</clus>
<clus scale="   61.821">  1  3  2 -1</clus>
</clustering>
</event>
<event>
 6    0  0.6687079E+002  0.1230518E+03  0.7546771E-02  0.1238146E+00
         21   -1    0    0  506  501  0.00000000000E+00  0.00000000000E+00  0.60675163927E+03  0.60675163927E+03  0.00000000000E+00 0. -1.
         21   -1    0    0  505  502 -0.00000000000E+00 -0.00000000000E+00 -0.73675516597E+02  0.73675516597E+02  0.00000000000E+00 0. -1.
         21    1    1    2  503  502 -0.12397928815E+03 -0.14765494073E+02  0.17738768931E+03  0.21692228107E+03  0.00000000000E+00 0. -1.
         21    1    1    2  504  501 -0.10607682248E+02 -0.32965650437E+02  0.79381851694E+02  0.86606786164E+02  0.00000000000E+00 0. -1.
         21    1    1    2  505  504  0.11605639117E+03 -0.58409068912E+02  0.78913446100E+02  0.15201327981E+03  0.00000000000E+00 0. -1.
         21    1    1    2  506  503  0.18530579221E+02  0.10614021342E+03  0.19739313557E+03  0.22488480883E+03  0.00000000000E+00 0. -1.
<scales pt_clust_3="123.05177" pt_clust_4="34.63029" pt_clust_5="14000.00000" pt_clust_6="93.93876"></scales>
<clustering>
<clus scale="   34.630">  1  4  2 -1</clus>
<clus scale="   93.939">  1  6  2 -1</clus>
<clus scale="  123.052">  1  3  2 -1</clus>
<clus scale="   34.630">  1  3  2 -1</clus>
</clustering>
</event>
<event>
 6    0  0.6687079E+002  0.1287328E+03  0.7546771E-02  0.1229348E+00
         21   -1    0    0  506  501  0.00000000000E+00  0.00000000000E+00  0.52647843681E+03  0.52647843681E+03  0.00000000000E+00 0. -1.
         21   -1    0    0  503  502 -0.00000000000E+00 -0.00000000000E+00 -0.41845845923E+03  0.41845845923E+03  0.00000000000E+00 0.  1.
         21    1    1    2  503  505  0.39897511213E+02 -0.40409170973E+02 -0.21950502475E+03  0.22673148963E+03  0.00000000000E+00 0.  1.
         21    1    1    2  504  501  0.12092905178E+03  0.22252749718E+02  0.39146332863E+03  0.41032006787E+03  0.00000000000E+00 0. -1.
         21    1    1    2  505  504  0.47975273968E+02  0.69963847930E+02 -0.57774016155E+01  0.85029085018E+02  0.00000000000E+00 0.  1.
         21    1    1    2  506  502 -0.20880183696E+03 -0.51807426676E+02 -0.58160924685E+02  0.22285625353E+03  0.00000000000E+00 0.  1.
<scales pt_clust_3="56.78655" pt_clust_4="14000.00000" pt_clust_5="83.34458" pt_clust_6="128.73282"></scales>
<clustering>
<clus scale="   56.787">  2  3  1 -1</clus>
<clus scale="   83.345">  2  5  1 -1</clus>
<clus scale="  128.733">  2  6  1 -1</clus>
<clus scale="  128.733">  1  3  2 -1</clus>
</clustering>
</event>
<event>
 6    0  0.6687079E+002  0.7969728E+02  0.7546771E-02  0.1329913E+00
         21   -1    0    0  506  501  0.00000000000E+00  0.00000000000E+00  0.39741546187E+03  0.39741546187E+03  0.00000000000E+00 0.  1.
         21   -1    0    0  503  502 -0.00000000000E+00 -0.00000000000E+00 -0.41369914435E+03  0.41369914435E+03  0.00000000000E+00 0.  1.
         21    1    1    2  503  501 -0.30892501473E+02  0.64347455734E+02 -0.24740655166E+03  0.25749746311E+03  0.00000000000E+00 0.  1.
         21    1    1    2  504  502  0.25751786736E+01 -0.38719473173E+02 -0.74306541707E+02  0.83828940638E+02  0.00000000000E+00 0. -1.
         21    1    1    2  505  504  0.24748123163E+02  0.55407722840E+02 -0.65969244199E+02  0.89634962657E+02  0.00000000000E+00 0.  1.
         21    1    1    2  506  505  0.35691996366E+01 -0.81035705400E+02  0.37139865509E+03  0.38015323981E+03  0.00000000000E+00 0.  1.
<scales pt_clust_3="45.52671" pt_clust_4="38.80501" pt_clust_5="79.69728" pt_clust_6="14000.00000"></scales>
<clustering>
<clus scale="   38.805">  2  4  1 -1</clus>
<clus scale="   45.527">  2  3  1 -1</clus>
<clus scale="   79.697">  2  5  1 -1</clus>
<clus scale="   79.697">  1  3  2 -1</clus>
</clustering>
</event>
<event>
 6    0  0.6687079E+002  0.1818542E+03  0.7546771E-02  0.1166020E+00
         21   -1    0    0  503  501  0.00000000000E+00  0.00000000000E+00  0.31132760201E+03  0.31132760201E+03  0.00000000000E+00 0. -1.
         21   -1    0    0  506  502 -0.00000000000E+00 -0.00000000000E+00 -0.30124824702E+03  0.30124824702E+03  0.00000000000E+00 0. -1.
         21    1    1    2  503  504  0.66013127140E+02  0.11727546719E+03  0.14090038428E+03  0.19484400543E+03  0.00000000000E+00 0. -1.
         21    1    1    2  504  502  0.61432215506E+02  0.33763885476E+02  0.24375677808E+02  0.74216512536E+02  0.00000000000E+00 0. -1.
         21    1    1    2  505  501 -0.10108501595E+03 -0.86849806716E+02  0.37713709969E+02  0.13850412736E+03  0.00000000000E+00 0. -1.
         21    1    1    2  506  505 -0.26360326693E+02 -0.64189545953E+02 -0.19291041707E+03  0.20501120371E+03  0.00000000000E+00 0. -1.
<scales pt_clust_3="56.00757" pt_clust_4="56.00757" pt_clust_5="164.46513" pt_clust_6="69.39139"></scales>
<clustering>
<clus scale="   56.008">  3  4 -1 -1</clus>
<clus scale="   69.391">  2  6  1 -1</clus>
<clus scale="  164.465">  2  5  1 -1</clus>
<clus scale="  181.854">  1  3  2 -1</clus>
</clustering>
</event>
<event>
 6    0  0.6687079E+002  0.9512207E+02  0.7546771E-02  0.1290901E+00
         21   -1    0    0  502  501  0.00000000000E+00  0.00000000000E+00  0.19337538195E+03  0.19337538195E+03  0.00000000000E+00 0. -1.
         21   -1    0    0  504  502 -0.00000000000E+00 -0.00000000000E+00 -0.30184281771E+03  0.30184281771E+03  0.00000000000E+00 0. -1.
         21    1    1    2  503  501  0.45846376366E+02  0.16627485700E+02  0.11116315440E+03  0.12139032253E+03  0.00000000000E+00 0. -1.
         21    1    1    2  504  505  0.62412896562E+02  0.48197652029E+02 -0.22578054591E+03  0.23915525967E+03  0.00000000000E+00 0. -1.
         21    1    1    2  505  506 -0.54857147598E+02 -0.12996781582E+02 -0.12948160544E+02  0.57843563476E+02  0.00000000000E+00 0.  1.
         21    1    1    2  506  503 -0.53402125330E+02 -0.51828356147E+02  0.19098116295E+02  0.76829053988E+02  0.00000000000E+00 0. -1.
<scales pt_clust_3="48.76847" pt_clust_4="82.89562" pt_clust_5="40.60600" pt_clust_6="40.60600"></scales>
<clustering>
<clus scale="   40.606">  5  6 -1 -1</clus>
<clus scale="   48.768">  1  3  2 -1</clus>
<clus scale="   82.896">  2  4  1 -1</clus>
<clus scale="   48.768">  1  3  2 -1</clus>
</clustering>
</event>
<event>
 6    0  0.6687079E+002  0.1089881E+03  0.7546771E-02  0.1262455E+00
         21   -1    0    0  503  501  0.00000000000E+00  0.00000000000E+00  0.58248857426E+03  0.58248857426E+03  0.00000000000E+00 0. -1.
         21   -1    0    0  504  502 -0.00000000000E+00 -0.00000000000E+00 -0.39621240265E+03  0.39621240265E+03  0.00000000000E+00 0.  1.
         21    1    1    2  503  505  0.66732085514E+02  0.80712573613E+02  0.39443495958E+03  0.40810124738E+03  0.00000000000E+00 0. -1.
         21    1    1    2  504  501  0.15342003781E+02 -0.40760818398E+02 -0.31730037263E+03  0.32027542501E+03  0.00000000000E+00 0.  1.
         21    1    1    2  505  506 -0.10622891966E+03 -0.10070049363E+03  0.33147444589E+02  0.15007973172E+03  0.00000000000E+00 0.  1.
         21    1    1    2  506  502  0.24154830368E+02  0.60748738415E+02  0.75994140069E+02  0.10024457279E+03  0.00000000000E+00 0. -1.
<scales pt_clust_3="14000.00000" pt_clust_4="43.55251" pt_clust_5="108.98809" pt_clust_6="60.50527"></scales>
<clustering>
<clus scale="   43.553">  2  4  1 -1</clus>
<clus scale="   60.505">  2  6  1 -1</clus>
<clus scale="  108.988">  2  5  1 -1</clus>
<clus scale="  108.988">  1  3  2 -1</clus>
</clustering>
</event>
<event>
 6    0  0.6687079E+002  0.1401627E+03  0.7546771E-02  0.1213110E+00
         21   -1    0    0  505  501  0.00000000000E+00  0.00000000000E+00  0.80439467756E+02  0.80439467756E+02  0.00000000000E+00 0.  1.
         21   -1    0    0  506  502 -0.00000000000E+00 -0.00000000000E+00 -0.42316380103E+03  0.42316380103E+03  0.00000000000E+00 0. -1.
         21    1    1    2  503  501  0.71168872103E+02  0.13942251985E+02  0.80672397157E+01  0.72969000976E+02  0.00000000000E+00 0.  1.
         21    1    1    2  504  502 -0.56567044429E+02 -0.25051897226E+01 -0.12492284236E+03  0.13715619940E+03  0.00000000000E+00 0.  1.
         21    1    1    2  505  504 -0.58799372030E+02 -0.58953555919E+02 -0.21109597379E+03  0.22692377147E+03  0.00000000000E+00 0. -1.
         21    1    1    2  506  503  0.44197544356E+02  0.47516493656E+02 -0.14772756836E+02  0.66554296938E+02  0.00000000000E+00 0.  1.
<scales pt_clust_3="139.36207" pt_clust_4="41.71579" pt_clust_5="41.71579" pt_clust_6="45.71203"></scales>
<clustering>
<clus scale="   41.716">  4  5 -1 -1</clus>
<clus scale="   45.712">  3  6 -1 -1</clus>
<clus scale="  139.362">  1  3  2 -1</clus>
<clus scale="  139.362">  1  3  2 -1</clus>
</clustering>
</event>
<event>
 6    0  0.6687079E+002  0.8689246E+02  0.7546771E-02  0.1310556E+00
         21   -1    0    0  505  501  0.00000000000E+00  0.00000000000E+00  0.18336985656E+03  0.18336985656E+03  0.00000000000E+00 0. -1.
         21   -1    0    0  504  502 -0.00000000000E+00 -0.00000000000E+00 -0.23000180993E+03  0.23000180993E+03  0.00000000000E+00 0. -1.
         21    1    1    2  503  502 -0.32777086581E+02  0.35021323500E+02 -0.11870662603E+03  0.12803161160E+03  0.00000000000E+00 0. -1.
         21    1    1    2  504  506  0.62934633616E+02 -0.28888733048E+01  0.32367237698E+01  0.63083992249E+02  0.00000000000E+00 0. -1.
         21    1    1    2  505  503 -0.72945280123E+02  0.46509727400E+02 -0.27464837218E+02  0.90766105560E+02  0.00000000000E+00 0.  1.
         21    1    1    2  506  501  0.42787733088E+02 -0.78642177596E+02  0.96302786109E+02  0.13148995708E+03  0.00000000000E+00 0. -1.
<scales pt_clust_3="47.96697" pt_clust_4="54.18277" pt_clust_5="14000.00000" pt_clust_6="86.89246"></scales>
<clustering>
<clus scale="   47.967">  2  3  1 -1</clus>
<clus scale="   54.183">  2  4  1 -1</clus>
<clus scale="   86.892">  1  6  2 -1</clus>
<clus scale="   86.892">  1  3  2 -1</clus>
</clustering>
</event>
<event>
 6    0  0.6687079E+002  0.8403632E+02  0.7546771E-02  0.1317972E+00
         21   -1    0    0  503  501  0.00000000000E+00  0.00000000000E+00  0.35842988320E+03  0.35842988320E+03  0.00000000000E+00 0. -1.
         21   -1    0    0  506  502 -0.00000000000E+00 -0.00000000000E+00 -0.79856291077E+03  0.79856291077E+03  0.00000000000E+00 0. -1.
         21    1    1    2  503  504  0.14503978664E+02 -0.28524124894E+02  0.33158029257E+03  0.33312082120E+03  0.00000000000E+00 0. -1.
         21    1    1    2  504  505 -0.53602331684E+02 -0.44404999504E+02 -0.56710415062E+02  0.89783545928E+02  0.00000000000E+00 0. -1.
         21    1    1    2  505  502 -0.20867650871E+02 -0.34652251225E+02 -0.23957447934E+03  0.24296536485E+03  0.00000000000E+00 0. -1.
         21    1    1    2  506  501  0.59966003891E+02  0.10758137562E+03 -0.47542842575E+03  0.49112306198E+03  0.00000000000E+00 0. -1.
<scales pt_clust_3="31.99986" pt_clust_4="14000.00000" pt_clust_5="41.59001" pt_clust_6="84.03632"></scales>
<clustering>
<clus scale="   32.000">  1  3  2 -1</clus>
<clus scale="   41.590">  2  5  1 -1</clus>
<clus scale="   84.036">  2  6  1 -1</clus>
<clus scale="   32.000">  1  3  2 -1</clus>
</clustering>
</event>
<event>
 6    0  0.6687079E+002  0.1234145E+03  0.7546771E-02  0.1237568E+00
         21   -1    0    0  503  501  0.00000000000E+00  0.00000000000E+00  0.19357407430E+03  0.19357407430E+03  0.00000000000E+00 0.  1.
         21   -1    0    0  504  502 -0.00000000000E+00 -0.00000000000E+00 -0.54025153198E+03  0.54025153198E+03  0.00000000000E+00 0.  1.
         21    1    1    2  503  502 -0.20645402951E+02  0.30480160043E+02  0.11174982099E+03  0.11765753401E+03  0.00000000000E+00 0.  1.
         21    1    1    2  504  506  0.30721813267E+02  0.11080153919E+03 -0.45497730262E+03  0.46928153256E+03  0.00000000000E+00 0.  1.
         21    1    1    2  505  501  0.22080485239E+01 -0.84064528821E+02 -0.19252952071E+02  0.86269326227E+02  0.00000000000E+00 0.  1.
         21    1    1    2  506  505 -0.12284458840E+02 -0.57217170412E+02  0.15802976022E+02  0.60617213480E+02  0.00000000000E+00 0.  1.
<scales pt_clust_3="36.81403" pt_clust_4="117.17267" pt_clust_5="32.32708" pt_clust_6="32.32708"></scales>
<clustering>
<clus scale="   32.327">  5  6 -1 -1</clus>
<clus scale="   36.814">  1  3  2 -1</clus>
<clus scale="  117.173">  2  4  1 -1</clus>
<clus scale="   36.814">  1  3  2 -1</clus>
</clustering>
</event>
<event>
 6    0  0.6687079E+002  0.8252397E+02  0.7546771E-02  0.1322038E+00
         21   -1    0    0  503  501  0.00000000000E+00  0.00000000000E+00  0.22939108993E+03  0.22939108993E+03  0.00000000000E+00 0. -1.
         21   -1    0    0  505  502 -0.00000000000E+00 -0.00000000000E+00 -0.14841250057E+03  0.14841250057E+03  0.00000000000E+00 0. -1.
         21    1    1    2  503  506  0.79778917189E+02 -0.69790104864E+02  0.12301948754E+03  0.16238574038E+03  0.00000000000E+00 0. -1.
         21    1    1    2  504  501 -0.75199775001E+02 -0.25182552883E+02  0.30707395640E+02  0.85041820753E+02  0.00000000000E+00 0. -1.
         21    1    1    2  505  504  0.13472125235E+02  0.67908354968E+02 -0.68802913639E+02  0.97605756788E+02  0.00000000000E+00 0. -1.
         21    1    1    2  506  502 -0.18051267423E+02  0.27064302779E+02 -0.39453801827E+01  0.32770272585E+02  0.00000000000E+00 0.  1.
<scales pt_clust_3="82.52397" pt_clust_4="81.34941" pt_clust_5="14000.00000" pt_clust_6="32.53190"></scales>
<clustering>
<clus scale="   32.532">  2  6  1 -1</clus>
<clus scale="   81.349">  1  4  2 -1</clus>
<clus scale="   82.524">  1  3  2 -1</clus>
<clus scale="   81.349">  1  3  2 -1</clus>
</clustering>
</event>
<event>
 6    0  0.6687079E+002  0.1859915E+03  0.7546771E-02  0.1162127E+00
         21   -1    0    0  503  501  0.00000000000E+00  0.00000000000E+00  0.63869229628E+03  0.63869229628E+03  0.00000000000E+00 0.  1.
         21   -1    0    0  505  502 -0.00000000000E+00 -0.00000000000E+00 -0.32341418618E+03  0.32341418618E+03  0.00000000000E+00 0.  1.
         21    1    1    2  503  506  0.35842364300E+02 -0.31740356538E+02  0.49750936965E+03  0.49980766121E+03  0.00000000000E+00 0.  1.
         21    1    1    2  504  501 -0.75179025000E+02 -0.21114320789E+02 -0.92397810296E+02  0.12097543424E+03  0.00000000000E+00 0.  1.
         21    1    1    2  505  504 -0.98585936569E+02  0.63419911793E+02 -0.15008993056E+03  0.19044227303E+03  0.00000000000E+00 0.  1.
         21    1    1    2  506  502  0.13792259727E+03 -0.10565234466E+02  0.60256481308E+02  0.15088111398E+03  0.00000000000E+00 0.  1.
<scales pt_clust_3="47.87615" pt_clust_4="65.11815" pt_clust_5="65.11815" pt_clust_6="168.51161"></scales>
<clustering>
<clus scale="   47.876">  1  3  2 -1</clus>
<clus scale="   65.118">  4  5 -1 -1</clus>
<clus scale="  168.512">  1  6  2 -1</clus>
<clus scale="   47.876">  1  3  2 -1</clus>
</clustering>
</event>
<event>
 6    0  0.6687079E+002  0.1283281E+03  0.7546771E-02  0.1229958E+00
         21   -1    0    0  505  501  0.00000000000E+00  0.00000000000E+00  0.49453042421E+03  0.49453042421E+03  0.00000000000E+00 0.  1.
         21   -1    0    0  506  502 -0.00000000000E+00 -0.00000000000E+00 -0.96378904262E+03  0.96378904262E+03  0.00000000000E+00 0. -1.
         21    1    1    2  503  502 -0.13425151492E+03 -0.48455310048E+02 -0.39774781127E+02  0.14816686385E+03  0.00000000000E+00 0. -1.
         21    1    1    2  504  501  0.47627062175E+02 -0.77347434083E+01  0.97845963085E+01  0.49233135508E+02  0.00000000000E+00 0.  1.
         21    1    1    2  505  503  0.12181295911E+03  0.35400288950E+02  0.40052445062E+03  0.42013261360E+03  0.00000000000E+00 0.  1.
         21    1    1    2  506  504 -0.35188506365E+02  0.20789764506E+02 -0.83979288421E+03  0.84078685388E+03  0.00000000000E+00 0. -1.
<scales pt_clust_3="14000.00000" pt_clust_4="42.23835" pt_clust_5="128.32807" pt_clust_6="40.87108"></scales>
<clustering>
<clus scale="   40.871">  2  6  1 -1</clus>
<clus scale="   42.238">  2  4  1 -1</clus>
<clus scale="  128.328">  1  5  2 -1</clus>
<clus scale="  128.328">  1  3  2 -1</clus>
</clustering>
</event>
<event>
 6    0  0.6687079E+002  0.8084482E+02  0.7546771E-02  0.1326671E+00
         21   -1    0    0  503  501  0.00000000000E+00  0.00000000000E+00  0.15652888897E+04  0.15652888897E+04  0.00000000000E+00 0. -1.
         21   -1    0    0  505  502 -0.00000000000E+00 -0.00000000000E+00 -0.40284280656E+02  0.40284280656E+02  0.00000000000E+00 0.  1.
         21    1    1    2  503  502 -0.67332640729E+01  0.57520236687E+02 -0.26870491378E+01  0.57975293933E+02  0.00000000000E+00 0.  1.
         21    1    1    2  504  506  0.20753482678E+02 -0.76820972655E+02  0.10003470290E+04  0.10035070241E+04  0.00000000000E+00 0. -1.
         21    1    1    2  505  504 -0.71402973973E+02  0.24143906507E+02  0.26573358790E+03  0.27621667699E+03  0.00000000000E+00 0.  1.
         21    1    1    2  506  501  0.57382755368E+02 -0.48431705386E+01  0.26161104130E+03  0.26787417540E+03  0.00000000000E+00 0. -1.
<scales pt_clust_3="57.68141" pt_clust_4="80.84482" pt_clust_5="14000.00000" pt_clust_6="57.58678"></scales>
<clustering>
<clus scale="   57.587">  1  6  2 -1</clus>
<clus scale="   57.681">  2  3  1 -1</clus>
<clus scale="   80.845">  1  4  2 -1</clus>
<clus scale="   57.587">  1  3  2 -1</clus>
</clustering>
</event>
<event>
 6    0  0.6687079E+002  0.9630833E+02  0.7546771E-02  0.1288256E+00
         21   -1    0    0  502  501  0.00000000000E+00  0.00000000000E+00  0.82225066504E+02  0.82225066504E+02  0.00000000000E+00 0. -1.
         21   -1    0    0  504  502 -0.00000000000E+00 -0.00000000000E+00 -0.30353559706E+03  0.30353559706E+03  0.00000000000E+00 0. -1.
         21    1    1    2  503  505 -0.56248282647E+02  0.95420669356E+02 -0.64544065584E+02  0.12819871233E+03  0.00000000000E+00 0. -1.
         21    1    1    2  504  503 -0.46491876434E+01 -0.94891994685E+02 -0.12861555629E+03  0.15990017799E+03  0.00000000000E+00 0. -1.
         21    1    1    2  505  506  0.34021794780E+02  0.34134761569E+02 -0.23305194815E+02  0.53533135279E+02  0.00000000000E+00 0. -1.
         21    1    1    2  506  501  0.26875675510E+02 -0.34663436240E+02 -0.48457138691E+01  0.44128637968E+02  0.00000000000E+00 0. -1.
<scales pt_clust_3="96.30833" pt_clust_4="14000.00000" pt_clust_5="48.01046" pt_clust_6="43.86178"></scales>
<clustering>
<clus scale="   43.862">  1  6  2 -1</clus>
<clus scale="   48.010">  1  5  2 -1</clus>
<clus scale="   96.308">  1  3  2 -1</clus>
<clus scale="   43.862">  1  3  2 -1</clus>
</clustering>
</event>
<event>
 6    0  0.6687079E+002  0.1437723E+03  0.7546771E-02  0.1208341E+00
         21   -1    0    0  505  501  0.00000000000E+00  0.00000000000E+00  0.37837867142E+03  0.37837867142E+03  0.00000000000E+00 0.  1.
         21   -1    0    0  506  502 -0.00000000000E+00 -0.00000000000E+00 -0.20643636781E+03  0.20643636781E+03  0.00000000000E+00 0. -1.
         21    1    1    2  503  502 -0.35602612547E+02  0.62260630909E+02 -0.10985460202E+03  0.13119438161E+03  0.00000000000E+00 0. -1.
         21    1    1    2  504  501  0.16888481944E+03 -0.73577478957E+02  0.17849085427E+03  0.25650480055E+03  0.00000000000E+00 0.  1.
         21    1    1    2  505  503 -0.15871373005E+02  0.35420972912E+02  0.56268327086E+02  0.68356934075E+02  0.00000000000E+00 0. -1.
         21    1    1    2  506  504 -0.11741083388E+03 -0.24104124865E+02  0.47037724274E+02  0.12875892301E+03  0.00000000000E+00 0. -1.
<scales pt_clust_3="73.02532" pt_clust_4="14000.00000" pt_clust_5="38.81425" pt_clust_6="143.77227"></scales>
<clustering>
<clus scale="   38.814">  1  5  2 -1</clus>
<clus scale="   73.025">  2  3  1 -1</clus>
<clus scale="  143.772">  2  6  1 -1</clus>
<clus scale="   38.814">  1  3  2 -1</clus>
</clustering>
</event>
<event>
 6    0  0.6687079E+002  0.1343763E+03  0.7546771E-02  0.1221103E+00
         21   -1    0    0  504  501  0.00000000000E+00  0.00000000000E+00  0.21222498441E+04  0.21222498441E+04  0.00000000000E+00 0.  1.
         21   -1    0    0  503  502 -0.00000000000E+00 -0.00000000000E+00 -0.10919132218E+03  0.10919132218E+03  0.00000000000E+00 0.  1.
         21    1    1    2  503  506 -0.13724885701E+02 -0.13668216764E+03 -0.53997050662E+02  0.14760104647E+03  0.00000000000E+00 0.  1.
         21    1    1    2  504  502  0.60434542270E+02  0.39590931424E+02  0.13838047672E+04  0.13856895069E+04  0.00000000000E+00 0.  1.
         21    1    1    2  505  501 -0.52478651673E+01  0.39658670338E+02  0.50136303855E+03  0.50295650572E+03  0.00000000000E+00 0.  1.
         21    1    1    2  506  505 -0.41461791402E+02  0.57432565879E+02  0.18188776689E+03  0.19519410728E+03  0.00000000000E+00 0.  1.
<scales pt_clust_3="14000.00000" pt_clust_4="134.37631" pt_clust_5="40.00438" pt_clust_6="74.96693"></scales>
<clustering>
<clus scale="   40.004">  1  5  2 -1</clus>
<clus scale="   74.967">  1  6  2 -1</clus>
<clus scale="  134.376">  1  4  2 -1</clus>
<clus scale="   40.004">  1  3  2 -1</clus>
</clustering>
</event>
<event>
 6    0  0.6687079E+002  0.1532620E+03  0.7546771E-02  0.1196521E+00
         21   -1    0    0  504  501  0.00000000000E+00  0.00000000000E+00  0.30252444494E+02  0.30252444494E+02  0.00000000000E+00 0.  1.
         21   -1    0    0  505  502 -0.00000000000E+00 -0.00000000000E+00 -0.12555819990E+04  0.12555819990E+04  0.00000000000E+00 0.  1.
         21    1    1    2  503  501  0.35574052629E+02  0.37111107708E+02 -0.60991736056E+02  0.79766781325E+02  0.00000000000E+00 0.  1.
         21    1    1    2  504  506 -0.29739067205E+02 -0.44053071751E+02 -0.13349902545E+03  0.14369090106E+03  0.00000000000E+00 0.  1.
         21    1    1    2  505  503  0.11657621992E+03  0.47350159107E+02 -0.57867270648E+03  0.59219435479E+03  0.00000000000E+00 0.  1.
         21    1    1    2  506  502 -0.12241120534E+03 -0.40408195063E+02 -0.45216608649E+03  0.47018240630E+03  0.00000000000E+00 0.  1.
<scales pt_clust_3="51.40766" pt_clust_4="38.27717" pt_clust_5="141.19437" pt_clust_6="38.27717"></scales>
<clustering>
<clus scale="   38.277">  4  6 -1 -1</clus>
<clus scale="   51.408">  1  3  2 -1</clus>
<clus scale="  141.194">  2  5  1 -1</clus>
<clus scale="   51.408">  1  3  2 -1</clus>
</clustering>
</event>
<event>
 6    0  0.6687079E+002  0.1500021E+03  0.7546771E-02  0.1200470E+00
         21   -1    0    0  504  501  0.00000000000E+00  0.00000000000E+00  0.19011269946E+03  0.19011269946E+03  0.00000000000E+00 0. -1.
         21   -1    0    0  503  502 -0.00000000000E+00 -0.00000000000E+00 -0.49624679777E+03  0.49624679777E+03  0.00000000000E+00 0. -1.
         21    1    1    2  503  506 -0.67780559499E+02 -0.78417322305E+02 -0.16958311364E+03  0.19875088205E+03  0.00000000000E+00 0. -1.
         21    1    1    2  504  505 -0.54255958513E+01  0.38933458337E+02  0.73301229851E+02  0.83176448386E+02  0.00000000000E+00 0. -1.
         21    1    1    2  505  502 -0.11794311686E+03  0.53958483844E+02 -0.14124201741E+02  0.13046681520E+03  0.00000000000E+00 0.  1.
         21    1    1    2  506  501  0.19114927222E+03 -0.14474619875E+02 -0.19572801278E+03  0.27396535159E+03  0.00000000000E+00 0. -1.
<scales pt_clust_3="100.34753" pt_clust_4="39.30968" pt_clust_5="14000.00000" pt_clust_6="150.00211"></scales>
<clustering>
<clus scale="   39.310">  1  4  2 -1</clus>
<clus scale="  100.348">  2  3  1 -1</clus>
<clus scale="  150.002">  2  6  1 -1</clus>
<clus scale="   39.310">  1  3  2 -1</clus>
</clustering>
</event>
<event>
 6    0  0.6687079E+002  0.1590592E+03  0.7546771E-02  0.1189763E+00
         21   -1    0    0  504  501  0.00000000000E+00  0.00000000000E+00  0.18859320089E+03  0.18859320089E+03  0.00000000000E+00 0.  1.
         21   -1    0    0  505  502 -0.00000000000E+00 -0.00000000000E+00 -0.21804233812E+03  0.21804233812E+03  0.00000000000E+00 0.  1.
         21    1    1    2  503  502 -0.23565828446E+02  0.34581131336E+02 -0.55702026803E+02  0.69670070366E+02  0.00000000000E+00 0.  1.
         21    1    1    2  504  506 -0.32059055420E+02 -0.17237048619E+02  0.61979672007E+02  0.71877525149E+02  0.00000000000E+00 0.  1.
         21    1    1    2  505  501  0.83896185064E+02 -0.12321783782E+03  0.23251655766E+01  0.14908592093E+03  0.00000000000E+00 0.  1.
         21    1    1    2  506  503 -0.28271301198E+02  0.10587375510E+03 -0.38051948013E+02  0.11600202256E+03  0.00000000000E+00 0.  1.
<scales pt_clust_3="35.33562" pt_clust_4="36.39916" pt_clust_5="148.42560" pt_clust_6="35.33562"></scales>
<clustering>
<clus scale="   35.336">  3  6 -1 -1</clus>
<clus scale="   36.399">  1  4  2 -1</clus>
<clus scale="  148.426">  1  5  2 -1</clus>
<clus scale="   36.399">  1  3  2 -1</clus>
</clustering>
</event>
<event>
 6    0  0.6687079E+002  0.2886750E+03  0.7546771E-02  0.1091043E+00
         21   -1    0    0  502  501  0.00000000000E+00  0.00000000000E+00  0.43634723027E+03  0.43634723027E+03  0.00000000000E+00 0. -1.
         21   -1    0    0  505  502 -0.00000000000E+00 -0.00000000000E+00 -0.25055846781E+03  0.25055846781E+03  0.00000000000E+00 0. -1.
         21    1    1    2  503  501 -0.35987061894E+02  0.12812780993E+02  0.11576066886E+03  0.12190064986E+03  0.00000000000E+00 0. -1.
         21    1    1    2  504  503  0.10983775875E+03  0.24811942317E+03  0.38537238529E+02  0.27406696290E+03  0.00000000000E+00 0. -1.
         21    1    1    2  505  506 -0.49972368489E+02 -0.43409562383E+02 -0.13437940704E+02  0.67544103881E+02  0.00000000000E+00 0. -1.
         21    1    1    2  506  504 -0.23878328364E+02 -0.21752264178E+03  0.44928795769E+02  0.22339398143E+03  0.00000000000E+00 0. -1.
<scales pt_clust_3="38.19995" pt_clust_4="270.59106" pt_clust_5="56.40698" pt_clust_6="56.40698"></scales>
<clustering>
<clus scale="   38.200">  1  3  2 -1</clus>
<clus scale="   56.407">  5  6 -1 -1</clus>
<clus scale="  270.591">  1  4  2 -1</clus>
<clus scale="   38.200">  1  3  2 -1</clus>
</clustering>
</event>
<event>
 6    0  0.6687079E+002  0.7787535E+02  0.7546771E-02  0.1335191E+00
         21   -1    0    0  505  501  0.00000000000E+00  0.00000000000E+00  0.21574785664E+03  0.21574785664E+03  0.00000000000E+00 0. -1.
         21   -1    0    0  503  502 -0.00000000000E+00 -0.00000000000E+00 -0.93962996406E+03  0.93962996406E+03  0.00000000000E+00 0. -1.
         21    1    1    2  503  504  0.45645537455E+02 -0.66881494501E+02 -0.14534230907E+02  0.82267206494E+02  0.00000000000E+00 0. -1.
         21    1    1    2  504  501  0.42909453995E+02  0.10415601853E+03  0.58348239077E+02  0.12686297506E+03  0.00000000000E+00 0. -1.
         21    1    1    2  505  506 -0.11007054962E+02 -0.43088904081E+02  0.81848955944E+02  0.93150740754E+02  0.00000000000E+00 0. -1.
         21    1    1    2  506  502 -0.77547936488E+02  0.58143800571E+01 -0.84954507154E+03  0.85309689839E+03  0.00000000000E+00 0. -1.
<scales pt_clust_3="14000.00000" pt_clust_4="75.63745" pt_clust_5="44.47256" pt_clust_6="77.87535"></scales>
<clustering>
<clus scale="   44.473">  1  5  2 -1</clus>
<clus scale="   77.875">  2  6  1 -1</clus>
<clus scale="   75.637">  1  4  2 -1</clus>
<clus scale="   44.473">  1  3  2 -1</clus>
</clustering>
</event>
<event>
 6    0  0.6687079E+002  0.1085133E+03  0.7546771E-02  0.1263348E+00
         21   -1    0    0  503  501  0.00000000000E+00  0.00000000000E+00  0.24640561289E+02  0.24640561289E+02  0.00000000000E+00 0.  1.
         21   -1    0    0  505  502 -0.00000000000E+00 -0.00000000000E+00 -0.16581804667E+04  0.16581804667E+04  0.00000000000E+00 0.  1.
         21    1    1    2  503  506 -0.12829261506E+03  0.34116653582E+02 -0.25590773921E+03  0.28829101983E+03  0.00000000000E+00 0.  1.
         21    1    1    2  504  501  0.17893799275E+02 -0.39278235376E+02 -0.10741103682E+03  0.11575879516E+03  0.00000000000E+00 0.  1.
         21    1    1    2  505  504  0.91458241557E+02 -0.18493252302E+02 -0.54595044274E+03  0.55386685788E+03  0.00000000000E+00 0.  1.
         21    1    1    2  506  502  0.18940574231E+02  0.23654834097E+02 -0.72427068661E+03  0.72490435507E+03  0.00000000000E+00 0.  1.
<scales pt_clust_3="14000.00000" pt_clust_4="41.65336" pt_clust_5="108.51335" pt_clust_6="30.30341"></scales>
<clustering>
<clus scale="   30.303">  2  6  1 -1</clus>
<clus scale="   41.653">  1  4  2 -1</clus>
<clus scale="  108.513">  2  5  1 -1</clus>
<clus scale="   41.653">  1  3  2 -1</clus>
</clustering>
</event>
<event>
 6    0  0.6687079E+002  0.8035610E+02  0.7546771E-02  0.1328044E+00
         21   -1    0    0  505  501  0.00000000000E+00  0.00000000000E+00  0.15592929426E+03  0.15592929426E+03  0.00000000000E+00 0.  1.
         21   -1    0    0  503  502 -0.00000000000E+00 -0.00000000000E+00 -0.20205104984E+03  0.20205104984E+03  0.00000000000E+00 0.  1.
         21    1    1    2  503  501 -0.63743941537E+02 -0.35772672939E+02  0.57574305066E+02  0.93047164469E+02  0.00000000000E+00 0.  1.
         21    1    1    2  504  502  0.75156417976E+02  0.32023873901E+02 -0.11312651623E+03  0.13954076228E+03  0.00000000000E+00 0.  1.
         21    1    1    2  505  506  0.49132685362E+02 -0.28080087721E+02  0.25986421121E+01  0.56650375445E+02  0.00000000000E+00 0.  1.
         21    1    1    2  506  504 -0.60545161801E+02  0.31828886759E+02  0.68318134698E+01  0.68742041904E+02  0.00000000000E+00 0.  1.
<scales pt_clust_3="80.35610" pt_clust_4="14000.00000" pt_clust_5="56.59074" pt_clust_6="51.48526"></scales>
<clustering>
<clus scale="   56.591">  1  5  2 -1</clus>
<clus scale="   51.485">  1  6  2 -1</clus>
<clus scale="   80.356">  1  3  2 -1</clus>
<clus scale="   56.591">  1  3  2 -1</clus>
</clustering>
</event>
<event>
 6    0  0.6687079E+002  0.1061454E+03  0.7546771E-02  0.1267879E+00
         21   -1    0    0  503  501  0.00000000000E+00  0.00000000000E+00  0.43193927676E+03  0.43193927676E+03  0.00000000000E+00 0.  1.
         21   -1    0    0  505  502 -0.00000000000E+00 -0.00000000000E+00 -0.11714875414E+03  0.11714875414E+03  0.00000000000E+00 0.  1.
         21    1    1    2  503  504 -0.45090419515E+01 -0.42207930309E+02  0.43110901472E+02  0.60501162518E+02  0.00000000000E+00 0.  1.
         21    1    1    2  504  502  0.49638839943E+01 -0.94471009203E+02 -0.42219482851E+02  0.10359486694E+03  0.00000000000E+00 0.  1.
         21    1    1    2  505  506  0.39198047436E+02 -0.49026697694E-01 -0.12098299022E+01  0.39216744062E+02  0.00000000000E+00 0.  1.
         21    1    1    2  506  501 -0.39652889479E+02  0.13672796621E+03  0.31510893390E+03  0.34577525737E+03  0.00000000000E+00 0.  1.
<scales pt_clust_3="42.22401" pt_clust_4="14000.00000" pt_clust_5="39.19808" pt_clust_6="106.14536"></scales>
<clustering>
<clus scale="   39.198">  2  5  1 -1</clus>
<clus scale="   42.224">  1  3  2 -1</clus>
<clus scale="  106.145">  1  6  2 -1</clus>
<clus scale="   42.224">  1  3  2 -1</clus>
</clustering>
</event>
<event>
 6    0  0.6687079E+002  0.2207683E+03  0.7546771E-02  0.1133312E+00
         21   -1    0    0  506  501  0.00000000000E+00  0.00000000000E+00  0.13144193317E+03  0.13144193317E+03  0.00000000000E+00 0. -1.
         21   -1    0    0  503  502 -0.00000000000E+00 -0.00000000000E+00 -0.96163892974E+03  0.96163892974E+03  0.00000000000E+00 0. -1.
         21    1    1    2  503  505  0.22900877939E+03 -0.39950368859E+02 -0.69478407166E+03  0.73264313225E+03  0.00000000000E+00 0. -1.
         21    1    1    2  504  501 -0.12811849451E+03  0.19395803890E+01 -0.12777847374E+03  0.18095703622E+03  0.00000000000E+00 0. -1.
         21    1    1    2  505  504 -0.37361163768E+02  0.38279118244E+02 -0.71569179769E+02  0.89349286200E+02  0.00000000000E+00 0. -1.
         21    1    1    2  506  502 -0.63529121110E+02 -0.26832977374E+00  0.63934728596E+02  0.90131408236E+02  0.00000000000E+00 0. -1.
<scales pt_clust_3="210.74552" pt_clust_4="42.49084" pt_clust_5="42.49084" pt_clust_6="63.52969"></scales>
<clustering>
<clus scale="   42.491">  4  5 -1 -1</clus>
<clus scale="   63.530">  1  6  2 -1</clus>
<clus scale="  210.746">  2  3  1 -1</clus>
<clus scale="   63.530">  1  3  2 -1</clus>
</clustering>
</event>
<event>
 6    0  0.6687079E+002  0.1685827E+03  0.7546771E-02  0.1179334E+00
         21   -1    0    0  506  501  0.00000000000E+00  0.00000000000E+00  0.51796422767E+03  0.51796422767E+03  0.00000000000E+00 0. -1.
         21   -1    0    0  505  502 -0.00000000000E+00 -0.00000000000E+00 -0.36908778116E+03  0.36908778116E+03  0.00000000000E+00 0. -1.
         21    1    1    2  503  504  0.22905737337E+02  0.26470142258E+02  0.18287867754E+03  0.18619868940E+03  0.00000000000E+00 0. -1.
         21    1    1    2  504  502 -0.16880137356E+03 -0.74027325143E+02 -0.84833846897E+02  0.20290571742E+03  0.00000000000E+00 0. -1.
         21    1    1    2  505  501  0.51269766445E+02 -0.28376128228E+02 -0.20585464741E+03  0.21403254301E+03  0.00000000000E+00 0. -1.
         21    1    1    2  506  503  0.94625869779E+02  0.75933311114E+02  0.25668626328E+03  0.28391505900E+03  0.00000000000E+00 0. -1.
<scales pt_clust_3="31.72974" pt_clust_4="157.89453" pt_clust_5="58.59858" pt_clust_6="31.72974"></scales>
<clustering>
<clus scale="   31.730">  3  6 -1 -1</clus>
<clus scale="   58.599">  2  5  1 -1</clus>
<clus scale="  157.895">  2  4  1 -1</clus>
<clus scale="  168.583">  1  3  2 -1</clus>
</clustering>
</event>
<event>
 6    0  0.6687079E+002  0.9325429E+02  0.7546771E-02  0.1295157E+00
         21   -1    0    0  503  501  0.00000000000E+00  0.00000000000E+00  0.23853473006E+03  0.23853473006E+03  0.00000000000E+00 0. -1.
         21   -1    0    0  506  502 -0.00000000000E+00 -0.00000000000E+00 -0.20795674008E+04  0.20795674008E+04  0.00000000000E+00 0. -1.
         21    1    1    2  503  504 -0.15465551181E+02 -0.56591464442E+02  0.21917321581E+03  0.22688912634E+03  0.00000000000E+00 0. -1.
         21    1    1    2  504  505  0.11329900816E+03  0.57688753851E+02 -0.28156300263E+03  0.30893750504E+03  0.00000000000E+00 0.  1.
         21    1    1    2  505  502 -0.51322395730E+02 -0.32552697793E+01 -0.13740970113E+04  0.13750589738E+04  0.00000000000E+00 0. -1.
         21    1    1    2  506  501 -0.46511061252E+02  0.21579803700E+01 -0.40454587259E+03  0.40721652560E+03  0.00000000000E+00 0. -1.
<scales pt_clust_3="58.69022" pt_clust_4="93.25429" pt_clust_5="14000.00000" pt_clust_6="46.56110"></scales>
<clustering>
<clus scale="   46.561">  2  6  1 -1</clus>
<clus scale="   58.690">  1  3  2 -1</clus>
<clus scale="   93.254">  1  4  2 -1</clus>
<clus scale="   58.690">  1  3  2 -1</clus>
</clustering>
</event>
<event>
 6    0  0.6687079E+002  0.1161164E+03  0.7546771E-02  0.1249645E+00
         21   -1    0    0  503  501  0.00000000000E+00  0.00000000000E+00  0.83057946615E+02  0.83057946615E+02  0.00000000000E+00 0. -1.
         21   -1    0    0  504  502 -0.00000000000E+00 -0.00000000000E+00 -0.35845497293E+03  0.35845497293E+03  0.00000000000E+00 0. -1.
         21    1    1    2  503  502  0.27137172692E+02  0.17172188666E+02  0.18417905250E+02  0.37020662326E+02  0.00000000000E+00 0. -1.
         21    1    1    2  504  505  0.92557146409E+01  0.98426973796E+02 -0.24262218323E+03  0.26199057467E+03  0.00000000000E+00 0. -1.
         21    1    1    2  505  506 -0.42509760659E+02 -0.63938219322E+02 -0.47639378341E+02  0.90358652104E+02  0.00000000000E+00 0. -1.
         21    1    1    2  506  501  0.61168733268E+01 -0.51660943139E+02 -0.35533699991E+01  0.52143030442E+02  0.00000000000E+00 0. -1.
<scales pt_clust_3="32.11402" pt_clust_4="102.39433" pt_clust_5="46.65567" pt_clust_6="46.65567"></scales>
<clustering>
<clus scale="   32.114">  1  3  2 -1</clus>
<clus scale="   46.656">  5  6 -1 -1</clus>
<clus scale="  102.394">  2  4  1 -1</clus>
<clus scale="   32.114">  1  3  2 -1</clus>
</clustering>
</event>
<event>
 6    0  0.6687079E+002  0.1547113E+03  0.7546771E-02  0.1194800E+00
         21   -1    0    0  504  501  0.00000000000E+00  0.00000000000E+00  0.61085950913E+03  0.61085950913E+03  0.00000000000E+00 0. -1.
         21   -1    0    0  503  502 -0.00000000000E+00 -0.00000000000E+00 -0.14168888027E+03  0.14168888027E+03  0.00000000000E+00 0. -1.
         21    1    1    2  503  501 -0.34892080703E+02  0.56235841483E+02 -0.73825574653E+02  0.99147075781E+02  0.00000000000E+00 0. -1.
         21    1    1    2  504  505  0.47995745046E+02  0.12480040875E+03  0.37744331237E+03  0.40042750607E+03  0.00000000000E+00 0. -1.
         21    1    1    2  505  506 -0.85769128686E+00 -0.14224404945E+03  0.15613990086E+03  0.21121972890E+03  0.00000000000E+00 0. -1.
         21    1    1    2  506  502 -0.12245973056E+02 -0.38792200789E+02  0.94129902897E+01  0.41754078655E+02  0.00000000000E+00 0. -1.
<scales pt_clust_3="66.18102" pt_clust_4="142.45496" pt_clust_5="32.27340" pt_clust_6="32.27340"></scales>
<clustering>
<clus scale="   32.273">  5  6 -1 -1</clus>
<clus scale="   66.181">  2  3  1 -1</clus>
<clus scale="  142.455">  1  4  2 -1</clus>
<clus scale="  142.455">  1  3  2 -1</clus>
</clustering>
</event>
<event>
 6    0  0.6687079E+002  0.1473396E+03  0.7546771E-02  0.1203781E+00
         21   -1    0    0  505  501  0.00000000000E+00  0.00000000000E+00  0.81149903715E+03  0.81149903715E+03  0.00000000000E+00 0. -1.
         21   -1    0    0  504  502 -0.00000000000E+00 -0.00000000000E+00 -0.52660686853E+03  0.52660686853E+03  0.00000000000E+00 0. -1.
         21    1    1    2  503  502  0.83229055155E+02  0.12113631965E+03 -0.48002630219E+03  0.50202224488E+03  0.00000000000E+00 0. -1.
         21    1    1    2  504  501 -0.93003138923E+02  0.25800620978E+02  0.21737599966E+03  0.23783940195E+03  0.00000000000E+00 0.  1.
         21    1    1    2  505  506  0.21629048166E+02  0.37656461122E+02  0.19874751927E+03  0.20343647953E+03  0.00000000000E+00 0. -1.
         21    1    1    2  506  503 -0.11854964399E+02 -0.18459340175E+03  0.34879495188E+03  0.39480777931E+03  0.00000000000E+00 0. -1.
<scales pt_clust_3="14000.00000" pt_clust_4="93.81825" pt_clust_5="43.42608" pt_clust_6="147.33965"></scales>
<clustering>
<clus scale="   43.426">  1  5  2 -1</clus>
<clus scale="   93.818">  1  4  2 -1</clus>
<clus scale="  147.340">  1  6  2 -1</clus>
<clus scale="   43.426">  1  3  2 -1</clus>
</clustering>
</event>
<event>
 6    0  0.6687079E+002  0.1341480E+03  0.7546771E-02  0.1221427E+00
         21   -1    0    0  503  501  0.00000000000E+00  0.00000000000E+00  0.23856771954E+03  0.23856771954E+03  0.00000000000E+00 0.  1.
         21   -1    0    0  505  502 -0.00000000000E+00 -0.00000000000E+00 -0.27427677250E+03  0.27427677250E+03  0.00000000000E+00 0.  1.
         21    1    1    2  503  502  0.15874382653E+02  0.42958484232E+02  0.20692210176E+01  0.45844400615E+02  0.00000000000E+00 0.  1.
         21    1    1    2  504  501 -0.34431155096E+02 -0.44351392404E+01  0.10072884398E+03  0.10654330064E+03  0.00000000000E+00 0. -1.
         21    1    1    2  505  506 -0.81324932478E+02  0.95572437434E+02 -0.14669818945E+03  0.19304971957E+03  0.00000000000E+00 0.  1.
         21    1    1    2  506  504  0.99881704921E+02 -0.13409578243E+03  0.81910714896E+01  0.16740707122E+03  0.00000000000E+00 0.  1.
<scales pt_clust_3="43.28600" pt_clust_4="34.71563" pt_clust_5="134.14802" pt_clust_6="14000.00000"></scales>
<clustering>
<clus scale="   34.716">  1  4  2 -1</clus>
<clus scale="   43.286">  1  3  2 -1</clus>
<clus scale="  134.148">  2  5  1 -1</clus>
<clus scale="   34.716">  1  3  2 -1</clus>
</clustering>
</event>
<event>
 6    0  0.6687079E+002  0.1152278E+03  0.7546771E-02  0.1251184E+00
         21   -1    0    0  503  501  0.00000000000E+00  0.00000000000E+00  0.28140872856E+03  0.28140872856E+03  0.00000000000E+00 0.  1.
         21   -1    0    0  504  502 -0.00000000000E+00 -0.00000000000E+00 -0.28115150724E+03  0.28115150724E+03  0.00000000000E+00 0.  1.
         21    1    1    2  503  502  0.43754652758E+02  0.25138684644E+02  0.71809577029E+02  0.87766955380E+02  0.00000000000E+00 0.  1.
         21    1    1    2  504  505  0.70999145774E+02  0.56938532944E+02 -0.23285579317E+03  0.25000939111E+03  0.00000000000E+00 0.  1.
         21    1    1    2  505  506 -0.96034783606E+02 -0.31020291694E+02  0.90887316518E+02  0.13581399951E+03  0.00000000000E+00 0.  1.
         21    1    1    2  506  501 -0.18719014926E+02 -0.51056925894E+02  0.70416120943E+02  0.88969889795E+02  0.00000000000E+00 0.  1.
<scales pt_clust_3="50.46210" pt_clust_4="93.13196" pt_clust_5="49.80737" pt_clust_6="49.80737"></scales>
<clustering>
<clus scale="   49.807">  5  6 -1 -1</clus>
<clus scale="   50.462">  1  3  2 -1</clus>
<clus scale="   93.132">  2  4  1 -1</clus>
<clus scale="   50.462">  1  3  2 -1</clus>
</clustering>
</event>
<event>
 6    0  0.6687079E+002  0.1249509E+03  0.7546771E-02  0.1235146E+00
         21   -1    0    0  506  501  0.00000000000E+00  0.00000000000E+00  0.96539354342E+03  0.96539354342E+03  0.00000000000E+00 0.  1.
         21   -1    0    0  505  502 -0.00000000000E+00 -0.00000000000E+00 -0.13815873670E+03  0.13815873670E+03  0.00000000000E+00 0.  1.
         21    1    1    2  503  502  0.78816275561E+02 -0.50577258617E+02 -0.77493489758E+02  0.12155371380E+03  0.00000000000E+00 0.  1.
         21    1    1    2  504  501 -0.16221068727E+02  0.71294053527E+02  0.39643709612E+03  0.40312322721E+03  0.00000000000E+00 0. -1.
         21    1    1    2  505  504  0.37373680753E+00  0.12079747322E+03  0.19496247970E+03  0.22935243122E+03  0.00000000000E+00 0.  1.
         21    1    1    2  506  503 -0.62968943642E+02 -0.14151426813E+03  0.31332872066E+03  0.34952290788E+03  0.00000000000E+00 0.  1.
<scales pt_clust_3="91.63893" pt_clust_4="73.11611" pt_clust_5="14000.00000" pt_clust_6="124.95087"></scales>
<clustering>
<clus scale="   73.116">  1  4  2 -1</clus>
<clus scale="   91.639">  2  3  1 -1</clus>
<clus scale="  124.951">  1  6  2 -1</clus>
<clus scale="   73.116">  1  3  2 -1</clus>
</clustering>
</event>
<event>
 6    0  0.6687079E+002  0.1115431E+03  0.7546771E-02  0.1257739E+00
         21   -1    0    0  505  501  0.00000000000E+00  0.00000000000E+00  0.10062606234E+03  0.10062606234E+03  0.00000000000E+00 0.  1.
         21   -1    0    0  504  502 -0.00000000000E+00 -0.00000000000E+00 -0.85408530649E+03  0.85408530649E+03  0.00000000000E+00 0.  1.
         21    1    1    2  503  506 -0.25936690943E+01  0.99012971268E+02 -0.53220062527E+02  0.11243963115E+03  0.00000000000E+00 0.  1.
         21    1    1    2  504  501 -0.17370207570E+03 -0.15504397713E+02 -0.14605494846E+03  0.22747493361E+03  0.00000000000E+00 0.  1.
         21    1    1    2  505  503  0.91066513861E+02 -0.17040464575E+02 -0.63427224071E+02  0.11227867176E+03  0.00000000000E+00 0.  1.
         21    1    1    2  506  502  0.85229230934E+02 -0.66468108980E+02 -0.49075700909E+03  0.50251813230E+03  0.00000000000E+00 0.  1.
<scales pt_clust_3="98.03847" pt_clust_4="14000.00000" pt_clust_5="92.64711" pt_clust_6="111.54305"></scales>
<clustering>
<clus scale="   92.647">  1  5  2 -1</clus>
<clus scale="   98.038">  1  3  2 -1</clus>
<clus scale="  111.543">  2  6  1 -1</clus>
<clus scale="   92.647">  1  3  2 -1</clus>
</clustering>
</event>
<event>
 6    0  0.6687079E+002  0.1270575E+03  0.7546771E-02  0.1231888E+00
         21   -1    0    0  504  501  0.00000000000E+00  0.00000000000E+00  0.53513522579E+03  0.53513522579E+03  0.00000000000E+00 0.  1.
         21   -1    0    0  503  502 -0.00000000000E+00 -0.00000000000E+00 -0.36761784927E+03  0.36761784927E+03  0.00000000000E+00 0. -1.
         21    1    1    2  503  506  0.39790377986E+02 -0.55067912609E+01 -0.51618821249E+02  0.65407198667E+02  0.00000000000E+00 0. -1.
         21    1    1    2  504  505  0.11641526723E+02  0.40169988230E+02  0.39680394383E+03  0.39900190844E+03  0.00000000000E+00 0.  1.
         21    1    1    2  505  502 -0.88549374255E+02  0.69256227774E+02  0.93094364686E+02  0.14595882126E+03  0.00000000000E+00 0.  1.
         21    1    1    2  506  501  0.37117469545E+02 -0.10391942474E+03 -0.27076211075E+03  0.29238514669E+03  0.00000000000E+00 0. -1.
<scales pt_clust_3="40.16963" pt_clust_4="41.84369" pt_clust_5="127.05751" pt_clust_6="14000.00000"></scales>
<clustering>
<clus scale="   40.170">  2  3  1 -1</clus>
<clus scale="   41.844">  1  4  2 -1</clus>
<clus scale="  127.058">  1  5  2 -1</clus>
<clus scale="   41.844">  1  3  2 -1</clus>
</clustering>
</event>
<event>
 6    0  0.6687079E+002  0.7522218E+02  0.7546771E-02  0.1343184E+00
         21   -1    0    0  504  501  0.00000000000E+00  0.00000000000E+00  0.66779449435E+03  0.66779449435E+03  0.00000000000E+00 0.  1.
         21   -1    0    0  506  502 -0.00000000000E+00 -0.00000000000E+00 -0.27226392184E+03  0.27226392184E+03  0.00000000000E+00 0.  1.
         21    1    1    2  503  501 -0.19595674723E+00  0.30840980048E+02  0.11574557915E+03  0.11978415397E+03  0.00000000000E+00 0.  1.
         21    1    1    2  504  505  0.13255572002E+03  0.40845370205E+02  0.43414307792E+03  0.45576263042E+03  0.00000000000E+00 0.  1.
         21    1    1    2  505  502 -0.68191694057E+02 -0.29817453486E+02 -0.23901262560E+03  0.25033222499E+03  0.00000000000E+00 0.  1.
         21    1    1    2  506  503 -0.64168069211E+02 -0.41868896767E+02  0.84654541046E+02  0.11417940682E+03  0.00000000000E+00 0.  1.
<scales pt_clust_3="30.84160" pt_clust_4="75.22218" pt_clust_5="14000.00000" pt_clust_6="73.75211"></scales>
<clustering>
<clus scale="   30.842">  1  3  2 -1</clus>
<clus scale="   73.752">  1  6  2 -1</clus>
<clus scale="   75.222">  1  4  2 -1</clus>
<clus scale="   30.842">  1  3  2 -1</clus>
</clustering>
</event>
<event>
 6    0  0.6687079E+002  0.1770957E+03  0.7546771E-02  0.1170644E+00
         21   -1    0    0  503  501  0.00000000000E+00  0.00000000000E+00  0.23969506793E+03  0.23969506793E+03  0.00000000000E+00 0. -1.
         21   -1    0    0  506  502 -0.00000000000E+00 -0.00000000000E+00 -0.38131655266E+03  0.38131655266E+03  0.00000000000E+00 0. -1.
         21    1    1    2  503  504  0.51258931608E+02  0.40928204766E+02 -0.17489212138E+02  0.67885702149E+02  0.00000000000E+00 0. -1.
         21    1    1    2  504  502  0.12903570809E+03  0.26901714138E+02 -0.96815038339E+02  0.16354530820E+03  0.00000000000E+00 0. -1.
         21    1    1    2  505  501 -0.24767900898E+02 -0.52466993297E+02  0.14546191824E+03  0.15660588737E+03  0.00000000000E+00 0. -1.
         21    1    1    2  506  505 -0.15552673880E+03 -0.15362925608E+02 -0.17277915248E+03  0.23297472287E+03  0.00000000000E+00 0. -1.
<scales pt_clust_3="41.05980" pt_clust_4="41.05980" pt_clust_5="58.01926" pt_clust_6="167.25756"></scales>
<clustering>
<clus scale="   41.060">  3  4 -1 -1</clus>
<clus scale="   58.019">  1  5  2 -1</clus>
<clus scale="  167.258">  2  6  1 -1</clus>
<clus scale="   58.019">  1  3  2 -1</clus>
</clustering>
</event>
<event>
 6    0  0.6687079E+002  0.1136865E+03  0.7546771E-02  0.1253891E+00
         21   -1    0    0  504  501  0.00000000000E+00  0.00000000000E+00  0.16059231862E+04  0.16059231862E+04  0.00000000000E+00 0. -1.
         21   -1    0    0  503  502 -0.00000000000E+00 -0.00000000000E+00 -0.16393242694E+02  0.16393242694E+02  0.00000000000E+00 0. -1.
         21    1    1    2  503  506  0.22790497149E+02 -0.85840409040E+02  0.66139133726E+03  0.66732786813E+03  0.00000000000E+00 0. -1.
         21    1    1    2  504  505 -0.48251172902E+02  0.35693085025E+02  0.13101430224E+03  0.14410731902E+03  0.00000000000E+00 0. -1.
         21    1    1    2  505  502 -0.19190646671E+02  0.59979933235E+02  0.15747905058E+03  0.16960402319E+03  0.00000000000E+00 0. -1.
         21    1    1    2  506  501  0.44651322423E+02 -0.98326092201E+01  0.63964525346E+03  0.64127721858E+03  0.00000000000E+00 0. -1.
<scales pt_clust_3="106.95770" pt_clust_4="37.61584" pt_clust_5="37.61584" pt_clust_6="45.72112"></scales>
<clustering>
<clus scale="   37.616">  4  5 -1 -1</clus>
<clus scale="   45.721">  1  6  2 -1</clus>
<clus scale="  106.958">  1  3  2 -1</clus>
<clus scale="   45.721">  1  3  2 -1</clus>
</clustering>
</event>
<event>
 6    0  0.6687079E+002  0.8603101E+02  0.7546771E-02  0.1312758E+00
         21   -1    0    0  503  501  0.00000000000E+00  0.00000000000E+00  0.19401233627E+03  0.19401233627E+03  0.00000000000E+00 0.  1.
         21   -1    0    0  505  502 -0.00000000000E+00 -0.00000000000E+00 -0.40175884017E+03  0.40175884017E+03  0.00000000000E+00 0.  1.
         21    1    1    2  503  504  0.11922778839E+01 -0.35919697212E+02  0.12080342524E+03  0.12603616038E+03  0.00000000000E+00 0.  1.
         21    1    1    2  504  502  0.12701481934E+03  0.68138463579E+01 -0.85277731796E+02  0.15313877489E+03  0.00000000000E+00 0.  1.
         21    1    1    2  505  506 -0.64504971133E+02  0.51717485077E+02 -0.23423559942E+03  0.24839868277E+03  0.00000000000E+00 0.  1.
         21    1    1    2  506  501 -0.63702126088E+02 -0.22611634223E+02 -0.90365979279E+01  0.68197558406E+02  0.00000000000E+00 0.  1.
<scales pt_clust_3="35.93948" pt_clust_4="14000.00000" pt_clust_5="86.03101" pt_clust_6="73.57356"></scales>
<clustering>
<clus scale="   35.939">  1  3  2 -1</clus>
<clus scale="   73.574">  1  6  2 -1</clus>
<clus scale="   86.031">  2  5  1 -1</clus>
<clus scale="   35.939">  1  3  2 -1</clus>
</clustering>
</event>
<event>
 6    0  0.6687079E+002  0.9343647E+02  0.7546771E-02  0.1294737E+00
         21   -1    0    0  503  501  0.00000000000E+00  0.00000000000E+00  0.35370006627E+03  0.35370006627E+03  0.00000000000E+00 0.  1.
         21   -1    0    0  506  502 -0.00000000000E+00 -0.00000000000E+00 -0.44157783695E+03  0.44157783695E+03  0.00000000000E+00 0. -1.
         21    1    1    2  503  504 -0.21758146252E+02 -0.94771154820E+02  0.23777080370E+03  0.25688507899E+03  0.00000000000E+00 0.  1.
         21    1    1    2  504  502 -0.23908321642E+01  0.93386548470E+02 -0.36799842970E+03  0.37967039360E+03  0.00000000000E+00 0. -1.
         21    1    1    2  505  501 -0.63396141620E+02  0.12203138968E+02  0.21886184900E+02  0.68168852582E+02  0.00000000000E+00 0. -1.
         21    1    1    2  506  505  0.87545120036E+02 -0.10818532618E+02  0.20463670415E+02  0.90553578046E+02  0.00000000000E+00 0. -1.
<scales pt_clust_3="93.43647" pt_clust_4="14000.00000" pt_clust_5="64.55995" pt_clust_6="76.63140"></scales>
<clustering>
<clus scale="   64.560">  1  5  2 -1</clus>
<clus scale="   76.631">  1  6  2 -1</clus>
<clus scale="   93.436">  1  3  2 -1</clus>
<clus scale="   64.560">  1  3  2 -1</clus>
</clustering>
</event>
<event>
 6    0  0.6687079E+002  0.1078674E+03  0.7546771E-02  0.1264571E+00
         21   -1    0    0  503  501  0.00000000000E+00  0.00000000000E+00  0.54264603571E+03  0.54264603571E+03  0.00000000000E+00 0. -1.
         21   -1    0    0  504  502 -0.00000000000E+00 -0.00000000000E+00 -0.15771096816E+03  0.15771096816E+03  0.00000000000E+00 0.  1.
         21    1    1    2  503  502 -0.40468589064E+02 -0.63806060824E+02  0.18159726497E+02  0.77709045581E+02  0.00000000000E+00 0. -1.
         21    1    1    2  504  506  0.71259591228E+01  0.14857843274E+03 -0.59226747430E+02  0.16010664439E+03  0.00000000000E+00 0.  1.
         21    1    1    2  505  501 -0.41578499170E+01 -0.33010841265E+02  0.38536554418E+03  0.38679918045E+03  0.00000000000E+00 0. -1.
         21    1    1    2  506  505  0.37500479858E+02 -0.51761530646E+02  0.40636544305E+02  0.75742133436E+02  0.00000000000E+00 0. -1.
<scales pt_clust_3="107.86740" pt_clust_4="14000.00000" pt_clust_5="33.27166" pt_clust_6="73.43488"></scales>
<clustering>
<clus scale="   33.272">  1  5  2 -1</clus>
<clus scale="   73.435">  1  6  2 -1</clus>
<clus scale="  107.867">  2  3  1 -1</clus>
<clus scale="   33.272">  1  3  2 -1</clus>
</clustering>
</event>
<event>
 6    0  0.6687079E+002  0.6767767E+02  0.7546771E-02  0.1368173E+00
         21   -1    0    0  504  501  0.00000000000E+00  0.00000000000E+00  0.25178548452E+03  0.25178548452E+03  0.00000000000E+00 0. -1.
         21   -1    0    0  503  502 -0.00000000000E+00 -0.00000000000E+00 -0.25659171425E+04  0.25659171425E+04  0.00000000000E+00 0.  1.
         21    1    1    2  503  505 -0.27423311094E+02 -0.73835705059E+02 -0.22223970602E+04  0.22237923559E+04  0.00000000000E+00 0.  1.
         21    1    1    2  504  506 -0.24145237466E+02  0.63616984030E+02  0.23739891040E+03  0.24695820660E+03  0.00000000000E+00 0. -1.
         21    1    1    2  505  501  0.58734771601E+02 -0.29045562685E+02 -0.24832178596E+03  0.25682119751E+03  0.00000000000E+00 0.  1.
         21    1    1    2  506  502 -0.71662230408E+01  0.39264283715E+02 -0.80811722282E+02  0.90130867002E+02  0.00000000000E+00 0. -1.
<scales pt_clust_3="51.37122" pt_clust_4="14000.00000" pt_clust_5="67.67767" pt_clust_6="39.91289"></scales>
<clustering>
<clus scale="   39.913">  2  6  1 -1</clus>
<clus scale="   51.371">  2  3  1 -1</clus>
<clus scale="   67.678">  2  5  1 -1</clus>
<clus scale="   67.678">  1  3  2 -1</clus>
</clustering>
</event>
<event>
 6    0  0.6687079E+002  0.9061287E+02  0.7546771E-02  0.1301374E+00
         21   -1    0    0  506  501  0.00000000000E+00  0.00000000000E+00  0.17517145507E+03  0.17517145507E+03  0.00000000000E+00 0. -1.
         21   -1    0    0  504  502 -0.00000000000E+00 -0.00000000000E+00 -0.44327075298E+03  0.44327075298E+03  0.00000000000E+00 0.  1.
         21    1    1    2  503  501  0.67879715946E+02  0.67495149761E+02  0.22546262757E+02  0.98344217128E+02  0.00000000000E+00 0. -1.
         21    1    1    2  504  503 -0.51451305394E+02 -0.67979221745E+02 -0.28107160712E+02  0.89768724504E+02  0.00000000000E+00 0.  1.
         21    1    1    2  505  502  0.25277778188E+02 -0.29150461346E+02 -0.33743064085E+03  0.33962943460E+03  0.00000000000E+00 0.  1.
         21    1    1    2  506  505 -0.41706188739E+02  0.29634533330E+02  0.74892240895E+02  0.90699831814E+02  0.00000000000E+00 0. -1.
<scales pt_clust_3="90.61287" pt_clust_4="14000.00000" pt_clust_5="38.58388" pt_clust_6="48.33846"></scales>
<clustering>
<clus scale="   38.584">  2  5  1 -1</clus>
<clus scale="   48.338">  1  6  2 -1</clus>
<clus scale="   90.613">  1  3  2 -1</clus>
<clus scale="   48.338">  1  3  2 -1</clus>
</clustering>
</event>
<event>
 6    0  0.6687079E+002  0.2277237E+03  0.7546771E-02  0.1128252E+00
         21   -1    0    0  504  501  0.00000000000E+00  0.00000000000E+00  0.41871244506E+03  0.41871244506E+03  0.00000000000E+00 0.  1.
         21   -1    0    0  506  502 -0.00000000000E+00 -0.00000000000E+00 -0.22731149750E+03  0.22731149750E+03  0.00000000000E+00 0.  1.
         21    1    1    2  503  502  0.21515021643E+03  0.13182592609E+03 -0.31850783722E+02  0.25432688188E+03  0.00000000000E+00 0.  1.
         21    1    1    2  504  503 -0.16126310337E+03 -0.16130808099E+03  0.17738964820E+03  0.28895185203E+03  0.00000000000E+00 0.  1.
         21    1    1    2  505  501 -0.57869618456E+01  0.29632281781E+02  0.45545380683E+02  0.54643780547E+02  0.00000000000E+00 0. -1.
         21    1    1    2  506  505 -0.48100151212E+02 -0.15012688217E+00  0.31670239729E+00  0.48101428098E+02  0.00000000000E+00 0.  1.
<scales pt_clust_3="227.72369" pt_clust_4="14000.00000" pt_clust_5="30.19207" pt_clust_6="48.51347"></scales>
<clustering>
<clus scale="   30.192">  1  5  2 -1</clus>
<clus scale="   48.513">  2  6  1 -1</clus>
<clus scale="  227.724">  2  3  1 -1</clus>
<clus scale="   30.192">  1  3  2 -1</clus>
</clustering>
</event>
<event>
 6    0  0.6687079E+002  0.9701885E+02  0.7546771E-02  0.1286693E+00
         21   -1    0    0  505  501  0.00000000000E+00  0.00000000000E+00  0.13148404794E+03  0.13148404794E+03  0.00000000000E+00 0. -1.
         21   -1    0    0  503  502 -0.00000000000E+00 -0.00000000000E+00 -0.79752064230E+03  0.79752064230E+03  0.00000000000E+00 0. -1.
         21    1    1    2  503  506  0.53264039864E+02 -0.81125420122E+02 -0.45787456347E+03  0.46804648018E+03  0.00000000000E+00 0. -1.
         21    1    1    2  504  501 -0.54469562494E+01  0.36361216621E+02  0.10682263866E+03  0.11297293276E+03  0.00000000000E+00 0. -1.
         21    1    1    2  505  502 -0.89838205996E+02  0.52779088527E+02 -0.24028820359E+03  0.26190638829E+03  0.00000000000E+00 0. -1.
         21    1    1    2  506  504  0.42021122381E+02 -0.80148850269E+01 -0.74696465953E+02  0.86078889015E+02  0.00000000000E+00 0. -1.
<scales pt_clust_3="14000.00000" pt_clust_4="36.76693" pt_clust_5="97.01885" pt_clust_6="40.61546"></scales>
<clustering>
<clus scale="   36.767">  1  4  2 -1</clus>
<clus scale="   40.615">  1  6  2 -1</clus>
<clus scale="   97.019">  1  5  2 -1</clus>
<clus scale="   36.767">  1  3  2 -1</clus>
</clustering>
</event>
<event>
 6    0  0.6687079E+002  0.1541071E+03  0.7546771E-02  0.1195515E+00
         21   -1    0    0  504  501  0.00000000000E+00  0.00000000000E+00  0.78875218246E+02  0.78875218246E+02  0.00000000000E+00 0.  1.
         21   -1    0    0  505  502 -0.00000000000E+00 -0.00000000000E+00 -0.99892394509E+03  0.99892394509E+03  0.00000000000E+00 0.  1.
         21    1    1    2  503  501 -0.13864564113E+03 -0.11209282645E+03 -0.37816837065E+03  0.41808938291E+03  0.00000000000E+00 0.  1.
         21    1    1    2  504  506  0.14700920795E+03  0.34790873317E+02 -0.60108184104E+02  0.16258876310E+03  0.00000000000E+00 0.  1.
         21    1    1    2  505  503 -0.29769559988E+02  0.28721959039E+02 -0.38083271990E+03  0.38307275833E+03  0.00000000000E+00 0. -1.
         21    1    1    2  506  502  0.21405993169E+02  0.48579994094E+02 -0.10093945219E+03  0.11404825899E+03  0.00000000000E+00 0.  1.
<scales pt_clust_3="14000.00000" pt_clust_4="154.10714" pt_clust_5="41.36638" pt_clust_6="55.98508"></scales>
<clustering>
<clus scale="   41.366">  2  5  1 -1</clus>
<clus scale="   55.985">  2  6  1 -1</clus>
<clus scale="  154.107">  1  4  2 -1</clus>
<clus scale="  154.107">  1  3  2 -1</clus>
</clustering>
</event>
<event>
 6    0  0.6687079E+002  0.7432516E+02  0.7546771E-02  0.1345974E+00
         21   -1    0    0  505  501  0.00000000000E+00  0.00000000000E+00  0.14458380532E+03  0.14458380532E+03  0.00000000000E+00 0.  1.
         21   -1    0    0  504  502 -0.00000000000E+00 -0.00000000000E+00 -0.24788600341E+03  0.24788600341E+03  0.00000000000E+00 0.  1.
         21    1    1    2  503  502 -0.30215364845E+01  0.56202215142E+02 -0.15627700268E+02  0.58412701403E+02  0.00000000000E+00 0.  1.
         21    1    1    2  504  506 -0.52686997934E+02 -0.52660976057E+02 -0.15987041350E+03  0.17637360138E+03  0.00000000000E+00 0.  1.
         21    1    1    2  505  503 -0.39381254693E+02 -0.72005233758E+01  0.41578309762E+02  0.57719031530E+02  0.00000000000E+00 0.  1.
         21    1    1    2  506  501  0.95089789112E+02  0.36592842914E+01  0.30617605908E+02  0.99964474421E+02  0.00000000000E+00 0.  1.
<scales pt_clust_3="55.86095" pt_clust_4="74.32516" pt_clust_5="40.03412" pt_clust_6="14000.00000"></scales>
<clustering>
<clus scale="   40.034">  1  5  2 -1</clus>
<clus scale="   55.861">  1  3  2 -1</clus>
<clus scale="   74.325">  2  4  1 -1</clus>
<clus scale="   40.034">  1  3  2 -1</clus>
</clustering>
</event>
<event>
 6    0  0.6687079E+002  0.1194764E+03  0.7546771E-02  0.1243963E+00
         21   -1    0    0  505  501  0.00000000000E+00  0.00000000000E+00  0.26744792188E+04  0.26744792188E+04  0.00000000000E+00 0. -1.
         21   -1    0    0  506  502 -0.00000000000E+00 -0.00000000000E+00 -0.12932272902E+02  0.12932272902E+02  0.00000000000E+00 0.  1.
         21    1    1    2  503  502 -0.93719616732E+01 -0.75414993498E+02  0.17808358363E+03  0.19362080898E+03  0.00000000000E+00 0.  1.
         21    1    1    2  504  503 -0.21177852737E+01 -0.45878902751E+02  0.21984975271E+03  0.22459579805E+03  0.00000000000E+00 0.  1.
         21    1    1    2  505  504  0.40655792255E+02  0.31336021101E+02  0.12844300691E+04  0.12854553442E+04  0.00000000000E+00 0. -1.
         21    1    1    2  506  501 -0.29166045309E+02  0.89957875148E+02  0.97918354048E+03  0.98373954045E+03  0.00000000000E+00 0. -1.
<scales pt_clust_3="32.14687" pt_clust_4="32.14687" pt_clust_5="51.33069" pt_clust_6="112.09213"></scales>
<clustering>
<clus scale="   32.147">  3  4 -1 -1</clus>
<clus scale="   51.331">  1  5  2 -1</clus>
<clus scale="  112.092">  1  6  2 -1</clus>
<clus scale="   51.331">  1  3  2 -1</clus>
</clustering>
</event>
<event>
 6    0  0.6687079E+002  0.6464361E+02  0.7546771E-02  0.1379317E+00
         21   -1    0    0  503  501  0.00000000000E+00  0.00000000000E+00  0.11331151400E+04  0.11331151400E+04  0.00000000000E+00 0.  1.
         21   -1    0    0  506  502 -0.00000000000E+00 -0.00000000000E+00 -0.19796937526E+03  0.19796937526E+03  0.00000000000E+00 0. -1.
         21    1    1    2  503  504 -0.68630261303E+02  0.32903800377E+02 -0.22405138460E+02  0.79339542948E+02  0.00000000000E+00 0.  1.
         21    1    1    2  504  502  0.17687608657E+02 -0.26842497397E+02 -0.10133856673E+03  0.10631498612E+03  0.00000000000E+00 0. -1.
         21    1    1    2  505  501  0.29067585337E+00  0.64500026851E+02  0.10565729229E+04  0.10585398808E+04  0.00000000000E+00 0.  1.
         21    1    1    2  506  505  0.50651976793E+02 -0.70561329831E+02  0.23165470548E+01  0.86890105368E+02  0.00000000000E+00 0. -1.
<scales pt_clust_3="61.87126" pt_clust_4="32.14609" pt_clust_5="64.64361" pt_clust_6="14000.00000"></scales>
<clustering>
<clus scale="   32.146">  2  4  1 -1</clus>
<clus scale="   61.871">  2  3  1 -1</clus>
<clus scale="   64.644">  1  5  2 -1</clus>
<clus scale="   64.644">  1  3  2 -1</clus>
</clustering>
</event>
<event>
 6    0  0.6687079E+002  0.1170971E+03  0.7546771E-02  0.1247964E+00
         21   -1    0    0  505  501  0.00000000000E+00  0.00000000000E+00  0.44241981162E+03  0.44241981162E+03  0.00000000000E+00 0.  1.
         21   -1    0    0  504  502 -0.00000000000E+00 -0.00000000000E+00 -0.20849897786E+03  0.20849897786E+03  0.00000000000E+00 0.  1.
         21    1    1    2  503  502  0.80855552290E+01  0.72300128698E+02  0.46345768372E+02  0.86258999873E+02  0.00000000000E+00 0.  1.
         21    1    1    2  504  501  0.36423907265E+02  0.43948602544E+02 -0.10168352260E+03  0.11660925973E+03  0.00000000000E+00 0.  1.
         21    1    1    2  505  506  0.10500596698E+03 -0.52323967663E+02  0.25666664236E+03  0.28220881629E+03  0.00000000000E+00 0.  1.
         21    1    1    2  506  503 -0.14951542947E+03 -0.63924763579E+02  0.32591945627E+02  0.16584171359E+03  0.00000000000E+00 0.  1.
<scales pt_clust_3="82.57700" pt_clust_4="57.08048" pt_clust_5="14000.00000" pt_clust_6="117.09709"></scales>
<clustering>
<clus scale="   57.080">  2  4  1 -1</clus>
<clus scale="   82.577">  2  3  1 -1</clus>
<clus scale="  117.097">  2  6  1 -1</clus>
<clus scale="  117.097">  1  3  2 -1</clus>
</clustering>
</event>
<event>
 6    0  0.6687079E+002  0.1017120E+03  0.7546771E-02  0.1276736E+00
         21   -1    0    0  504  501  0.00000000000E+00  0.00000000000E+00  0.66428590079E+03  0.66428590079E+03  0.00000000000E+00 0. -1.
         21   -1    0    0  503  502 -0.00000000000E+00 -0.00000000000E+00 -0.22396695864E+03  0.22396695864E+03  0.00000000000E+00 0. -1.
         21    1    1    2  503  505  0.98073869722E+02  0.31029559974E+01 -0.14772799717E+03  0.17734619648E+03  0.00000000000E+00 0. -1.
         21    1    1    2  504  506 -0.28750856723E+02 -0.32550938097E+02 -0.33001463905E+02  0.54546053507E+02  0.00000000000E+00 0. -1.
         21    1    1    2  505  501 -0.77270338607E+02  0.67324578002E+02  0.60636895408E+03  0.61496878986E+03  0.00000000000E+00 0. -1.
         21    1    1    2  506  502  0.79473256080E+01 -0.37876595902E+02  0.14679449148E+02  0.41391819587E+02  0.00000000000E+00 0. -1.
<scales pt_clust_3="14000.00000" pt_clust_4="48.66623" pt_clust_5="101.71204" pt_clust_6="38.70138"></scales>
<clustering>
<clus scale="   38.701">  2  6  1 -1</clus>
<clus scale="   48.666">  2  4  1 -1</clus>
<clus scale="  101.712">  1  5  2 -1</clus>
<clus scale="  101.712">  1  3  2 -1</clus>
</clustering>
</event>
<event>
 6    0  0.6687079E+002  0.1717959E+03  0.7546771E-02  0.1175988E+00
         21   -1    0    0  503  501  0.00000000000E+00  0.00000000000E+00  0.89749161343E+02  0.89749161343E+02  0.00000000000E+00 0.  1.
         21   -1    0    0  505  502 -0.00000000000E+00 -0.00000000000E+00 -0.88132195280E+03  0.88132195280E+03  0.00000000000E+00 0.  1.
         21    1    1    2  503  506 -0.11577100145E+02 -0.10361751873E+03 -0.35439832998E+02  0.11012084816E+03  0.00000000000E+00 0.  1.
         21    1    1    2  504  501  0.61860045082E+02  0.14989070808E+03 -0.12306803011E+03  0.20356726058E+03  0.00000000000E+00 0.  1.
         21    1    1    2  505  504 -0.45773565142E+02  0.15281189393E+02 -0.55853282674E+03  0.56061363929E+03  0.00000000000E+00 0.  1.
         21    1    1    2  506  502 -0.45093797953E+01 -0.61554378737E+02 -0.74532101619E+02  0.96769366121E+02  0.00000000000E+00 0. -1.
<scales pt_clust_3="43.31338" pt_clust_4="162.31028" pt_clust_5="48.25696" pt_clust_6="43.31338"></scales>
<clustering>
<clus scale="   43.313">  3  6 -1 -1</clus>
<clus scale="   48.257">  2  5  1 -1</clus>
<clus scale="  162.310">  2  4  1 -1</clus>
<clus scale="  171.796">  1  3  2 -1</clus>
</clustering>
</event>
<event>
 6    0  0.6687079E+002  0.2541000E+03  0.7546771E-02  0.1110741E+00
         21   -1    0    0  502  501  0.00000000000E+00  0.00000000000E+00  0.15517931596E+03  0.15517931596E+03  0.00000000000E+00 0.  1.
         21   -1    0    0  505  502 -0.00000000000E+00 -0.00000000000E+00 -0.72380154471E+03  0.72380154471E+03  0.00000000000E+00 0.  1.
         21    1    1    2  503  506 -0.36414623502E+02 -0.57532826430E+02 -0.38277528366E+02  0.78110307256E+02  0.00000000000E+00 0.  1.
         21    1    1    2  504  503 -0.14606863675E+03 -0.86864464354E+02 -0.65236124234E+02  0.18203635272E+03  0.00000000000E+00 0.  1.
         21    1    1    2  505  504  0.17938258517E+03  0.18144413500E+03 -0.50407977310E+03  0.56497478142E+03  0.00000000000E+00 0.  1.
         21    1    1    2  506  501  0.31006750747E+01 -0.37046844213E+02  0.38971196955E+02  0.53859419271E+02  0.00000000000E+00 0.  1.
<scales pt_clust_3="33.55624" pt_clust_4="33.55624" pt_clust_5="248.50818" pt_clust_6="37.17637"></scales>
<clustering>
<clus scale="   33.556">  3  4 -1 -1</clus>
<clus scale="   37.176">  1  6  2 -1</clus>
<clus scale="  248.508">  2  5  1 -1</clus>
<clus scale="   37.176">  1  3  2 -1</clus>
</clustering>
</event>
<event>
 6    0  0.6687079E+002  0.1389380E+03  0.7546771E-02  0.1214765E+00
         21   -1    0    0  506  501  0.00000000000E+00  0.00000000000E+00  0.38980022978E+03  0.38980022978E+03  0.00000000000E+00 0.  1.
         21   -1    0    0  505  502 -0.00000000000E+00 -0.00000000000E+00 -0.13655197873E+03  0.13655197873E+03  0.00000000000E+00 0. -1.
         21    1    1    2  503  502 -0.38252011864E+02  0.37948645942E+02  0.70885612551E+02  0.89039801253E+02  0.00000000000E+00 0.  1.
         21    1    1    2  504  501  0.96830554382E+02  0.52381088765E+01  0.21020758390E+02  0.99224323277E+02  0.00000000000E+00 0. -1.
         21    1    1    2  505  504  0.42236136128E+02 -0.74194523406E+02 -0.52094029719E+02  0.10001253137E+03  0.00000000000E+00 0. -1.
         21    1    1    2  506  503 -0.10081467865E+03  0.31007768588E+02  0.21343590983E+03  0.23807555260E+03  0.00000000000E+00 0.  1.
<scales pt_clust_3="32.52807" pt_clust_4="131.27293" pt_clust_5="85.37399" pt_clust_6="32.52807"></scales>
<clustering>
<clus scale="   32.528">  3  6 -1 -1</clus>
<clus scale="   85.374">  2  5  1 -1</clus>
<clus scale="  131.273">  2  4  1 -1</clus>
<clus scale="  138.938">  1  3  2 -1</clus>
</clustering>
</event>
<event>
 6    0  0.6687079E+002  0.2242158E+03  0.7546771E-02  0.1130778E+00
         21   -1    0    0  505  501  0.00000000000E+00  0.00000000000E+00  0.78693330411E+03  0.78693330411E+03  0.00000000000E+00 0. -1.
         21   -1    0    0  506  502 -0.00000000000E+00 -0.00000000000E+00 -0.18568797240E+03  0.18568797240E+03  0.00000000000E+00 0. -1.
         21    1    1    2  503  504 -0.12851398673E+03 -0.22149387916E+03  0.31365882302E+03  0.40491633772E+03  0.00000000000E+00 0. -1.
         21    1    1    2  504  501  0.10372299160E+02 -0.36411003870E+02  0.11645351219E+03  0.12245311876E+03  0.00000000000E+00 0.  1.
         21    1    1    2  505  502  0.49590470471E+02  0.20304088433E+03  0.25095192533E+03  0.32659100461E+03  0.00000000000E+00 0. -1.
         21    1    1    2  506  503  0.68551217104E+02  0.54863998705E+02 -0.79818928813E+02  0.11866081542E+03  0.00000000000E+00 0. -1.
<scales pt_clust_3="224.21577" pt_clust_4="37.85955" pt_clust_5="14000.00000" pt_clust_6="87.38232"></scales>
<clustering>
<clus scale="   37.860">  1  4  2 -1</clus>
<clus scale="   87.382">  2  6  1 -1</clus>
<clus scale="  224.216">  2  3  1 -1</clus>
<clus scale="   37.860">  1  3  2 -1</clus>
</clustering>
</event>
<event>
 6    0  0.6687079E+002  0.2255066E+03  0.7546771E-02  0.1129843E+00
         21   -1    0    0  504  501  0.00000000000E+00  0.00000000000E+00  0.39949748259E+03  0.39949748259E+03  0.00000000000E+00 0. -1.
         21   -1    0    0  506  502 -0.00000000000E+00 -0.00000000000E+00 -0.87528996826E+03  0.87528996826E+03  0.00000000000E+00 0. -1.
         21    1    1    2  503  502  0.39603787275E+01 -0.30641618023E+02 -0.69057588593E+02  0.75654106941E+02  0.00000000000E+00 0. -1.
         21    1    1    2  504  505  0.29559140603E+02 -0.16803259850E+02  0.29908639238E+03  0.30101289415E+03  0.00000000000E+00 0. -1.
         21    1    1    2  505  503 -0.91102280254E+02 -0.19599106539E+03 -0.91277536160E+02  0.23461396333E+03  0.00000000000E+00 0. -1.
         21    1    1    2  506  501  0.57582760923E+02  0.24343594326E+03 -0.61454375330E+03  0.66350648644E+03  0.00000000000E+00 0. -1.
<scales pt_clust_3="30.89649" pt_clust_4="34.02367" pt_clust_5="225.50659" pt_clust_6="14000.00000"></scales>
<clustering>
<clus scale="   30.896">  2  3  1 -1</clus>
<clus scale="   34.024">  1  4  2 -1</clus>
<clus scale="  225.507">  1  5  2 -1</clus>
<clus scale="   34.024">  1  3  2 -1</clus>
</clustering>
</event>
<event>
 6    0  0.6687079E+002  0.1113795E+03  0.7546771E-02  0.1258036E+00
         21   -1    0    0  504  501  0.00000000000E+00  0.00000000000E+00  0.63612241943E+03  0.63612241943E+03  0.00000000000E+00 0.  1.
         21   -1    0    0  506  502 -0.00000000000E+00 -0.00000000000E+00 -0.10260000466E+03  0.10260000466E+03  0.00000000000E+00 0.  1.
         21    1    1    2  503  501  0.50923170182E+02  0.69733857943E+02  0.30380304480E+03  0.31583582797E+03  0.00000000000E+00 0.  1.
         21    1    1    2  504  505 -0.60476905005E+02 -0.43211589301E+02  0.20182149214E+03  0.21507350413E+03  0.00000000000E+00 0.  1.
         21    1    1    2  505  502 -0.41716458291E+02 -0.41252803578E+02 -0.73016624203E+02  0.93666878380E+02  0.00000000000E+00 0.  1.
         21    1    1    2  506  503  0.51270193114E+02  0.14730534936E+02  0.10091450203E+03  0.11414621361E+03  0.00000000000E+00 0.  1.
<scales pt_clust_3="46.56991" pt_clust_4="94.31253" pt_clust_5="58.66904" pt_clust_6="46.56991"></scales>
<clustering>
<clus scale="   46.570">  3  6 -1 -1</clus>
<clus scale="   58.669">  2  5  1 -1</clus>
<clus scale="   94.313">  1  4  2 -1</clus>
<clus scale="   94.313">  1  3  2 -1</clus>
</clustering>
</event>
<event>
 6    0  0.6687079E+002  0.1075473E+03  0.7546771E-02  0.1265181E+00
         21   -1    0    0  505  501  0.00000000000E+00  0.00000000000E+00  0.35677175521E+03  0.35677175521E+03  0.00000000000E+00 0. -1.
         21   -1    0    0  504  502 -0.00000000000E+00 -0.00000000000E+00 -0.61783336826E+03  0.61783336826E+03  0.00000000000E+00 0.  1.
         21    1    1    2  503  501  0.32554659176E+02  0.20603351402E+02  0.18775866474E+03  0.19167060314E+03  0.00000000000E+00 0. -1.
         21    1    1    2  504  506 -0.33238539184E+02  0.10119561984E+03 -0.56125877627E+03  0.57127643738E+03  0.00000000000E+00 0.  1.
         21    1    1    2  505  502  0.43265610905E+02 -0.12754119356E+03  0.97107411498E+02  0.16603770207E+03  0.00000000000E+00 0. -1.
         21    1    1    2  506  503 -0.42581730898E+02  0.57422223243E+01  0.15331086984E+02  0.45620380880E+02  0.00000000000E+00 0. -1.
<scales pt_clust_3="38.52667" pt_clust_4="107.54725" pt_clust_5="14000.00000" pt_clust_6="37.85454"></scales>
<clustering>
<clus scale="   38.527">  1  3  2 -1</clus>
<clus scale="   37.855">  1  6  2 -1</clus>
<clus scale="  107.547">  2  4  1 -1</clus>
<clus scale="   38.527">  1  3  2 -1</clus>
</clustering>
</event>
<event>
 6    0  0.6687079E+002  0.1229211E+03  0.7546771E-02  0.1238355E+00
         21   -1    0    0  505  501  0.00000000000E+00  0.00000000000E+00  0.92368698899E+03  0.92368698899E+03  0.00000000000E+00 0. -1.
         21   -1    0    0  503  502 -0.00000000000E+00 -0.00000000000E+00 -0.60903734650E+02  0.60903734650E+02  0.00000000000E+00 0.  1.
         21    1    1    2  503  504  0.26026426799E+02  0.19554697749E+02  0.35050607256E+02  0.47836243216E+02  0.00000000000E+00 0.  1.
         21    1    1    2  504  506  0.14402825330E+03  0.11647235237E+01  0.44958921426E+03  0.47209740087E+03  0.00000000000E+00 0. -1.
         21    1    1    2  505  502 -0.12982932147E+03  0.28279994836E+02  0.70243217783E+02  0.15029810533E+03  0.00000000000E+00 0.  1.
         21    1    1    2  506  501 -0.40225358630E+02 -0.48999416108E+02  0.30790021504E+03  0.31435897423E+03  0.00000000000E+00 0. -1.
<scales pt_clust_3="32.55397" pt_clust_4="14000.00000" pt_clust_5="122.92108" pt_clust_6="61.52371"></scales>
<clustering>
<clus scale="   32.554">  2  3  1 -1</clus>
<clus scale="   61.524">  1  6  2 -1</clus>
<clus scale="  122.921">  2  5  1 -1</clus>
<clus scale="   61.524">  1  3  2 -1</clus>
</clustering>
</event>
<event>
 6    0  0.6687079E+002  0.1989984E+03  0.7546771E-02  0.1150587E+00
         21   -1    0    0  505  501  0.00000000000E+00  0.00000000000E+00  0.43343148761E+03  0.43343148761E+03  0.00000000000E+00 0.  1.
         21   -1    0    0  506  502 -0.00000000000E+00 -0.00000000000E+00 -0.72398715839E+03  0.72398715839E+03  0.00000000000E+00 0.  1.
         21    1    1    2  503  504 -0.52202822500E+02  0.41639137261E+01 -0.48314763195E+02  0.71251590838E+02  0.00000000000E+00 0.  1.
         21    1    1    2  504  502 -0.10155882334E+03  0.11673152660E+02 -0.24682837367E+03  0.26716044457E+03  0.00000000000E+00 0.  1.
         21    1    1    2  505  503  0.19138312845E+03  0.22774208061E+02  0.38725250302E+03  0.43256290583E+03  0.00000000000E+00 0.  1.
         21    1    1    2  506  501 -0.37621482603E+02 -0.38611274448E+02 -0.38266503692E+03  0.38644370476E+03  0.00000000000E+00 0.  1.
<scales pt_clust_3="42.46288" pt_clust_4="42.46288" pt_clust_5="189.94893" pt_clust_6="53.90924"></scales>
<clustering>
<clus scale="   42.463">  3  4 -1 -1</clus>
<clus scale="   53.909">  2  6  1 -1</clus>
<clus scale="  189.949">  1  5  2 -1</clus>
<clus scale="  189.949">  1  3  2 -1</clus>
</clustering>
</event>
<event>
 6    0  0.6687079E+002  0.8960151E+02  0.7546771E-02  0.1303820E+00
         21   -1    0    0  505  501  0.00000000000E+00  0.00000000000E+00  0.78846617388E+03  0.78846617388E+03  0.00000000000E+00 0.  1.
         21   -1    0    0  504  502 -0.00000000000E+00 -0.00000000000E+00 -0.16300065192E+03  0.16300065192E+03  0.00000000000E+00 0.  1.
         21    1    1    2  503  502 -0.31014954081E+02 -0.26381585046E+01 -0.64345458440E+02  0.71478844974E+02  0.00000000000E+00 0.  1.
         21    1    1    2  504  506  0.70912899252E+02  0.95234233752E+02  0.35264096706E+02  0.12386183866E+03  0.00000000000E+00 0.  1.
         21    1    1    2  505  503 -0.35792130709E+02 -0.32155038698E+02 -0.37767039232E+02  0.61166758838E+02  0.00000000000E+00 0.  1.
         21    1    1    2  506  501 -0.41058144624E+01 -0.60441036550E+02  0.69231392292E+03  0.69495938333E+03  0.00000000000E+00 0.  1.
<scales pt_clust_3="31.09032" pt_clust_4="80.83495" pt_clust_5="31.09032" pt_clust_6="60.58033"></scales>
<clustering>
<clus scale="   31.090">  3  5 -1 -1</clus>
<clus scale="   60.580">  1  6  2 -1</clus>
<clus scale="   80.835">  1  4  2 -1</clus>
<clus scale="   60.580">  1  3  2 -1</clus>
</clustering>
</event>
<event>
 6    0  0.6687079E+002  0.9399680E+02  0.7546771E-02  0.1293452E+00
         21   -1    0    0  504  501  0.00000000000E+00  0.00000000000E+00  0.83074782108E+02  0.83074782108E+02  0.00000000000E+00 0.  1.
         21   -1    0    0  503  502 -0.00000000000E+00 -0.00000000000E+00 -0.46347272789E+03  0.46347272789E+03  0.00000000000E+00 0.  1.
         21    1    1    2  503  506 -0.58790645573E+02  0.11378268632E+02 -0.23223550445E+03  0.23983147110E+03  0.00000000000E+00 0. -1.
         21    1    1    2  504  502  0.36679965556E+02 -0.32133358521E+02 -0.26885568728E+02  0.55684884922E+02  0.00000000000E+00 0.  1.
         21    1    1    2  505  501  0.49395821033E+02 -0.51132666362E+02  0.33208105012E+02  0.78468305343E+02  0.00000000000E+00 0.  1.
         21    1    1    2  506  505 -0.27285141015E+02  0.71887756251E+02 -0.15448497762E+03  0.17256284864E+03  0.00000000000E+00 0.  1.
<scales pt_clust_3="57.56839" pt_clust_4="48.76446" pt_clust_5="93.99680" pt_clust_6="14000.00000"></scales>
<clustering>
<clus scale="   48.764">  1  4  2 -1</clus>
<clus scale="   57.568">  2  3  1 -1</clus>
<clus scale="   93.997">  1  5  2 -1</clus>
<clus scale="   48.764">  1  3  2 -1</clus>
</clustering>
</event>
<event>
 6    0  0.6687079E+002  0.8573570E+02  0.7546771E-02  0.1313520E+00
         21   -1    0    0  502  501  0.00000000000E+00  0.00000000000E+00  0.19572601052E+03  0.19572601052E+03  0.00000000000E+00 0. -1.
         21   -1    0    0  505  502 -0.00000000000E+00 -0.00000000000E+00 -0.69387244703E+03  0.69387244703E+03  0.00000000000E+00 0. -1.
         21    1    1    2  503  504 -0.28346661375E+02  0.54350099646E+02 -0.24230921718E+03  0.24994243992E+03  0.00000000000E+00 0. -1.
         21    1    1    2  504  506 -0.10087012820E+03 -0.10860691356E+02 -0.31708783517E+03  0.33292256246E+03  0.00000000000E+00 0. -1.
         21    1    1    2  505  503  0.47833396899E+02 -0.17255351418E+02 -0.10673974433E+03  0.11823347255E+03  0.00000000000E+00 0.  1.
         21    1    1    2  506  501  0.81383392675E+02 -0.26234056871E+02  0.16799036017E+03  0.18849998263E+03  0.00000000000E+00 0. -1.
<scales pt_clust_3="47.73682" pt_clust_4="85.73570" pt_clust_5="50.85058" pt_clust_6="14000.00000"></scales>
<clustering>
<clus scale="   50.851">  2  5  1 -1</clus>
<clus scale="   47.737">  2  3  1 -1</clus>
<clus scale="   85.736">  2  4  1 -1</clus>
<clus scale="   85.736">  1  3  2 -1</clus>
</clustering>
</event>
<event>
 6    0  0.6687079E+002  0.1259604E+03  0.7546771E-02  0.1233576E+00
         21   -1    0    0  505  501  0.00000000000E+00  0.00000000000E+00  0.13614405017E+04  0.13614405017E+04  0.00000000000E+00 0.  1.
         21   -1    0    0  506  502 -0.00000000000E+00 -0.00000000000E+00 -0.11704460234E+03  0.11704460234E+03  0.00000000000E+00 0.  1.
         21    1    1    2  503  504 -0.56432226747E+02 -0.34561286997E+02  0.22008571900E+03  0.22981906466E+03  0.00000000000E+00 0.  1.
         21    1    1    2  504  501  0.70693981531E+01 -0.38924319261E+02  0.95026293062E+03  0.95108607198E+03  0.00000000000E+00 0.  1.
         21    1    1    2  505  502 -0.28822618397E+02  0.14033131418E+03 -0.35204136282E+02  0.14752271785E+03  0.00000000000E+00 0.  1.
         21    1    1    2  506  503  0.78185446991E+02 -0.66845707917E+02  0.10925138598E+03  0.15005724950E+03  0.00000000000E+00 0.  1.
<scales pt_clust_3="76.71352" pt_clust_4="39.56108" pt_clust_5="125.96037" pt_clust_6="14000.00000"></scales>
<clustering>
<clus scale="   39.561">  1  4  2 -1</clus>
<clus scale="   76.714">  1  3  2 -1</clus>
<clus scale="  125.960">  2  5  1 -1</clus>
<clus scale="   39.561">  1  3  2 -1</clus>
</clustering>
</event>
<event>
 6    0  0.6687079E+002  0.1591513E+03  0.7546771E-02  0.1189658E+00
         21   -1    0    0  506  501  0.00000000000E+00  0.00000000000E+00  0.41531257156E+02  0.41531257156E+02  0.00000000000E+00 0. -1.
         21   -1    0    0  504  502 -0.00000000000E+00 -0.00000000000E+00 -0.20772503687E+04  0.20772503687E+04  0.00000000000E+00 0.  1.
         21    1    1    2  503  502 -0.13096621950E+03  0.95428885368E+02 -0.18191972163E+04  0.18264001026E+04  0.00000000000E+00 0.  1.
         21    1    1    2  504  505  0.40927036245E+02 -0.25052404931E+02 -0.98939439824E+02  0.10996207547E+03  0.00000000000E+00 0. -1.
         21    1    1    2  505  501  0.65148156312E+02 -0.10007715866E+01 -0.63679778151E+02  0.91106519854E+02  0.00000000000E+00 0. -1.
         21    1    1    2  506  503  0.24891026941E+02 -0.69375708851E+02 -0.53902677285E+02  0.91312927996E+02  0.00000000000E+00 0. -1.
<scales pt_clust_3="152.56565" pt_clust_4="38.88296" pt_clust_5="38.88296" pt_clust_6="73.70585"></scales>
<clustering>
<clus scale="   38.883">  4  5 -1 -1</clus>
<clus scale="   73.706">  1  6  2 -1</clus>
<clus scale="  152.566">  2  3  1 -1</clus>
<clus scale="   73.706">  1  3  2 -1</clus>
</clustering>
</event>
<event>
 6    0  0.6687079E+002  0.1172271E+03  0.7546771E-02  0.1247743E+00
         21   -1    0    0  504  501  0.00000000000E+00  0.00000000000E+00  0.16932033257E+04  0.16932033257E+04  0.00000000000E+00 0. -1.
         21   -1    0    0  505  502 -0.00000000000E+00 -0.00000000000E+00 -0.29908757516E+02  0.29908757516E+02  0.00000000000E+00 0. -1.
         21    1    1    2  503  501 -0.18404293351E+02  0.98080306669E+02  0.72225205001E+03  0.72911349481E+03  0.00000000000E+00 0. -1.
         21    1    1    2  504  502 -0.89575770896E+01 -0.95449869096E+02  0.62272278724E+03  0.63005919202E+03  0.00000000000E+00 0. -1.
         21    1    1    2  505  506  0.56693753931E+02 -0.17427392926E+02  0.18220718782E+02  0.62047484654E+02  0.00000000000E+00 0. -1.
         21    1    1    2  506  503 -0.29331883490E+02  0.14796955352E+02  0.30009901216E+03  0.30189191174E+03  0.00000000000E+00 0. -1.
<scales pt_clust_3="30.09117" pt_clust_4="104.84156" pt_clust_5="59.31185" pt_clust_6="30.09117"></scales>
<clustering>
<clus scale="   30.091">  3  6 -1 -1</clus>
<clus scale="   59.312">  2  5  1 -1</clus>
<clus scale="  104.842">  1  4  2 -1</clus>
<clus scale="  104.842">  1  3  2 -1</clus>
</clustering>
</event>
<event>
 6    0  0.6687079E+002  0.7403030E+02  0.7546771E-02  0.1346900E+00
         21   -1    0    0  506  501  0.00000000000E+00  0.00000000000E+00  0.62776268303E+03  0.62776268303E+03  0.00000000000E+00 0. -1.
         21   -1    0    0  504  502 -0.00000000000E+00 -0.00000000000E+00 -0.10715859974E+03  0.10715859974E+03  0.00000000000E+00 0. -1.
         21    1    1    2  503  501 -0.19365398443E+02  0.24956436192E+02  0.41643147379E+03  0.41762784237E+03  0.00000000000E+00 0. -1.
         21    1    1    2  504  503 -0.14620521908E+02  0.68035379103E+02  0.52739808835E+02  0.87315862858E+02  0.00000000000E+00 0. -1.
         21    1    1    2  505  502 -0.40117157753E+02 -0.68880702110E+02 -0.55885780470E+02  0.97350695570E+02  0.00000000000E+00 0. -1.
         21    1    1    2  506  505  0.74103078104E+02 -0.24111113185E+02  0.10731858114E+03  0.13262688197E+03  0.00000000000E+00 0. -1.
<scales pt_clust_3="31.58864" pt_clust_4="14000.00000" pt_clust_5="74.03030" pt_clust_6="63.85079"></scales>
<clustering>
<clus scale="   31.589">  1  3  2 -1</clus>
<clus scale="   63.851">  1  6  2 -1</clus>
<clus scale="   74.030">  2  5  1 -1</clus>
<clus scale="   31.589">  1  3  2 -1</clus>
</clustering>
</event>
<event>
 6    0  0.6687079E+002  0.2148776E+03  0.7546771E-02  0.1137761E+00
         21   -1    0    0  503  501  0.00000000000E+00  0.00000000000E+00  0.10831137266E+02  0.10831137266E+02  0.00000000000E+00 0.  1.
         21   -1    0    0  504  502 -0.00000000000E+00 -0.00000000000E+00 -0.41262937440E+04  0.41262937440E+04  0.00000000000E+00 0.  1.
         21    1    1    2  503  505 -0.25129840817E+01  0.12105327025E+03 -0.75127963134E+03  0.76097391137E+03  0.00000000000E+00 0.  1.
         21    1    1    2  504  506 -0.18765368583E+02 -0.86883753732E+02 -0.11920167978E+04  0.11953263036E+04  0.00000000000E+00 0.  1.
         21    1    1    2  505  502  0.15667510927E+02  0.78049887478E+02 -0.10652804341E+04  0.10682507473E+04  0.00000000000E+00 0.  1.
         21    1    1    2  506  501  0.56108417372E+01 -0.11221940400E+03 -0.11068857435E+04  0.11125739190E+04  0.00000000000E+00 0.  1.
<scales pt_clust_3="64.65106" pt_clust_4="35.96921" pt_clust_5="64.65106" pt_clust_6="203.59406"></scales>
<clustering>
<clus scale="   35.969">  4  6 -1 -1</clus>
<clus scale="   64.651">  3  5 -1 -1</clus>
<clus scale="  203.594">  2  4  1 -1</clus>
<clus scale="  214.878">  1  3  2 -1</clus>
</clustering>
</event>
<event>
 6    0  0.6687079E+002  0.9531829E+02  0.7546771E-02  0.1290461E+00
         21   -1    0    0  504  501  0.00000000000E+00  0.00000000000E+00  0.53272996403E+03  0.53272996403E+03  0.00000000000E+00 0. -1.
         21   -1    0    0  506  502 -0.00000000000E+00 -0.00000000000E+00 -0.45413493437E+03  0.45413493437E+03  0.00000000000E+00 0.  1.
         21    1    1    2  503  501 -0.54403443564E+02 -0.39490925371E+00  0.10257088580E+03  0.11610631868E+03  0.00000000000E+00 0. -1.
         21    1    1    2  504  502 -0.63065593198E+02 -0.42392364278E+02  0.33666250597E+03  0.34513189438E+03  0.00000000000E+00 0. -1.
         21    1    1    2  505  503  0.50609022964E+02 -0.25602682621E+02  0.66793515868E+02  0.87625021112E+02  0.00000000000E+00 0. -1.
         21    1    1    2  506  505  0.66860013797E+02  0.68389956153E+02 -0.42743187798E+03  0.43800166422E+03  0.00000000000E+00 0.  1.
<scales pt_clust_3="54.40488" pt_clust_4="95.31829" pt_clust_5="48.11142" pt_clust_6="14000.00000"></scales>
<clustering>
<clus scale="   54.405">  1  3  2 -1</clus>
<clus scale="   48.111">  1  5  2 -1</clus>
<clus scale="   95.318">  1  4  2 -1</clus>
<clus scale="   54.405">  1  3  2 -1</clus>
</clustering>
</event>
<event>
 6    0  0.6687079E+002  0.8882279E+02  0.7546771E-02  0.1305728E+00
         21   -1    0    0  506  501  0.00000000000E+00  0.00000000000E+00  0.24750938959E+04  0.24750938959E+04  0.00000000000E+00 0.  1.
         21   -1    0    0  505  502 -0.00000000000E+00 -0.00000000000E+00 -0.14591758084E+02  0.14591758084E+02  0.00000000000E+00 0.  1.
         21    1    1    2  503  502 -0.67454448938E+02 -0.35097703617E+02  0.20681292670E+03  0.22034867399E+03  0.00000000000E+00 0.  1.
         21    1    1    2  504  501 -0.31623148686E+02  0.60538219769E+01  0.12136371331E+04  0.12140641511E+04  0.00000000000E+00 0.  1.
         21    1    1    2  505  504 -0.33864529480E+02  0.12589685517E+02  0.38327264967E+03  0.38497172692E+03  0.00000000000E+00 0.  1.
         21    1    1    2  506  503  0.13294212710E+03  0.16454196123E+02  0.65677942834E+03  0.67030110191E+03  0.00000000000E+00 0.  1.
<scales pt_clust_3="88.82279" pt_clust_4="32.19740" pt_clust_5="45.82786" pt_clust_6="14000.00000"></scales>
<clustering>
<clus scale="   32.197">  1  4  2 -1</clus>
<clus scale="   45.828">  1  5  2 -1</clus>
<clus scale="   88.823">  2  3  1 -1</clus>
<clus scale="   32.197">  1  3  2 -1</clus>
</clustering>
</event>
<event>
 6    0  0.6687079E+002  0.8809929E+02  0.7546771E-02  0.1307521E+00
         21   -1    0    0  504  501  0.00000000000E+00  0.00000000000E+00  0.11572330106E+03  0.11572330106E+03  0.00000000000E+00 0.  1.
         21   -1    0    0  503  502 -0.00000000000E+00 -0.00000000000E+00 -0.46413980781E+03  0.46413980781E+03  0.00000000000E+00 0.  1.
         21    1    1    2  503  505 -0.58406330437E+01  0.51722968310E+02 -0.44201084007E+02  0.68286999294E+02  0.00000000000E+00 0. -1.
         21    1    1    2  504  506 -0.31063832049E+02 -0.60377715522E+02 -0.31784851096E+02  0.74971374220E+02  0.00000000000E+00 0.  1.
         21    1    1    2  505  501  0.68951846653E+02  0.74836260475E+02  0.44639817175E+02  0.11111946866E+03  0.00000000000E+00 0.  1.
         21    1    1    2  506  502 -0.32047381560E+02 -0.66181513264E+02 -0.31707038883E+03  0.32548526669E+03  0.00000000000E+00 0.  1.
<scales pt_clust_3="52.05169" pt_clust_4="88.09929" pt_clust_5="14000.00000" pt_clust_6="44.61341"></scales>
<clustering>
<clus scale="   52.052">  2  3  1 -1</clus>
<clus scale="   44.613">  2  6  1 -1</clus>
<clus scale="   88.099">  2  4  1 -1</clus>
<clus scale="   88.099">  1  3  2 -1</clus>
</clustering>
</event>
<event>
 6    0  0.6687079E+002  0.1215583E+03  0.7546771E-02  0.1240548E+00
         21   -1    0    0  504  501  0.00000000000E+00  0.00000000000E+00  0.63370691719E+03  0.63370691719E+03  0.00000000000E+00 0.  1.
         21   -1    0    0  503  502 -0.00000000000E+00 -0.00000000000E+00 -0.50356636432E+03  0.50356636432E+03  0.00000000000E+00 0. -1.
         21    1    1    2  503  506 -0.46380958972E+02 -0.59788331739E+01  0.12553563341E+02  0.48420365073E+02  0.00000000000E+00 0. -1.
         21    1    1    2  504  505  0.14293463205E+03 -0.42146039784E+02  0.51780202225E+03  0.53881864477E+03  0.00000000000E+00 0.  1.
         21    1    1    2  505  502 -0.85532844830E+02  0.86178675588E+02 -0.46141900597E+03  0.47712695453E+03  0.00000000000E+00 0. -1.
         21    1    1    2  506  501 -0.11020828248E+02 -0.38053802630E+02  0.61203973248E+02  0.72907317131E+02  0.00000000000E+00 0. -1.
<scales pt_clust_3="47.65467" pt_clust_4="14000.00000" pt_clust_5="121.55831" pt_clust_6="39.61755"></scales>
<clustering>
<clus scale="   39.618">  1  6  2 -1</clus>
<clus scale="   47.655">  1  3  2 -1</clus>
<clus scale="  121.558">  2  5  1 -1</clus>
<clus scale="   39.618">  1  3  2 -1</clus>
</clustering>
</event>
<event>
 6    0  0.6687079E+002  0.1606980E+03  0.7546771E-02  0.1187911E+00
         21   -1    0    0  503  501  0.00000000000E+00  0.00000000000E+00  0.49028701627E+03  0.49028701627E+03  0.00000000000E+00 0.  1.
         21   -1    0    0  505  502 -0.00000000000E+00 -0.00000000000E+00 -0.60409535521E+03  0.60409535521E+03  0.00000000000E+00 0.  1.
         21    1    1    2  503  504  0.16725132784E+02 -0.12655242367E+03  0.50310952504E+02  0.13720946741E+03  0.00000000000E+00 0.  1.
         21    1    1    2  504  502  0.14776722421E+03  0.65155574063E+02 -0.50494845267E+03  0.53014464180E+03  0.00000000000E+00 0.  1.
         21    1    1    2  505  506 -0.17443832677E+03  0.31495365642E+02  0.14593623193E+03  0.22960416306E+03  0.00000000000E+00 0.  1.
         21    1    1    2  506  501  0.99459697831E+01  0.29901483970E+02  0.19489292930E+03  0.19742409921E+03  0.00000000000E+00 0.  1.
<scales pt_clust_3="118.69990" pt_clust_4="160.69800" pt_clust_5="14000.00000" pt_clust_6="31.51224"></scales>
<clustering>
<clus scale="   31.512">  1  6  2 -1</clus>
<clus scale="  118.700">  1  3  2 -1</clus>
<clus scale="  160.698">  2  4  1 -1</clus>
<clus scale="   31.512">  1  3  2 -1</clus>
</clustering>
</event>
<event>
 6    0  0.6687079E+002  0.2762176E+03  0.7546771E-02  0.1097773E+00
         21   -1    0    0  504  501  0.00000000000E+00  0.00000000000E+00  0.12619428805E+04  0.12619428805E+04  0.00000000000E+00 0. -1.
         21   -1    0    0  506  502 -0.00000000000E+00 -0.00000000000E+00 -0.85686260700E+02  0.85686260700E+02  0.00000000000E+00 0. -1.
         21    1    1    2  503  505  0.29953151051E+02 -0.81980912121E+02  0.50892132373E+02  0.10103499566E+03  0.00000000000E+00 0. -1.
         21    1    1    2  504  502 -0.96600849394E+02  0.13701107749E+02  0.18173934360E+03  0.20627320105E+03  0.00000000000E+00 0. -1.
         21    1    1    2  505  501 -0.94063946279E+02  0.19138682222E+03  0.64666351396E+03  0.68091896875E+03  0.00000000000E+00 0. -1.
         21    1    1    2  506  503  0.16071164462E+03 -0.12310701785E+03  0.29696162984E+03  0.35940197573E+03  0.00000000000E+00 0. -1.
<scales pt_clust_3="73.66307" pt_clust_4="97.56764" pt_clust_5="252.40906" pt_clust_6="73.66307"></scales>
<clustering>
<clus scale="   73.663">  3  6 -1 -1</clus>
<clus scale="   97.568">  1  4  2 -1</clus>
<clus scale="  252.409">  1  5  2 -1</clus>
<clus scale="   97.568">  1  3  2 -1</clus>
</clustering>
</event>
<event>
 6    0  0.6687079E+002  0.1004124E+03  0.7546771E-02  0.1279431E+00
         21   -1    0    0  506  501  0.00000000000E+00  0.00000000000E+00  0.35963206570E+03  0.35963206570E+03  0.00000000000E+00 0. -1.
         21   -1    0    0  503  502 -0.00000000000E+00 -0.00000000000E+00 -0.17675575502E+04  0.17675575502E+04  0.00000000000E+00 0. -1.
         21    1    1    2  503  501 -0.35618723616E+02 -0.75395519107E+01  0.59118809597E+02  0.69430338925E+02  0.00000000000E+00 0.  1.
         21    1    1    2  504  505 -0.93181918399E+02  0.95574618659E+02 -0.21971056082E+03  0.25707996457E+03  0.00000000000E+00 0. -1.
         21    1    1    2  505  502  0.36272670984E+02 -0.16483883491E+02 -0.15113701732E+04  0.15118952429E+04  0.00000000000E+00 0. -1.
         21    1    1    2  506  504  0.92527971030E+02 -0.71551183257E+02  0.26403643987E+03  0.28878406956E+03  0.00000000000E+00 0. -1.
<scales pt_clust_3="36.40794" pt_clust_4="14000.00000" pt_clust_5="39.81646" pt_clust_6="100.41244"></scales>
<clustering>
<clus scale="   36.408">  1  3  2 -1</clus>
<clus scale="   39.816">  2  5  1 -1</clus>
<clus scale="  100.412">  1  6  2 -1</clus>
<clus scale="   36.408">  1  3  2 -1</clus>
</clustering>
</event>
<event>
 6    0  0.6687079E+002  0.1051290E+03  0.7546771E-02  0.1269866E+00
         21   -1    0    0  506  501  0.00000000000E+00  0.00000000000E+00  0.80505090996E+03  0.80505090996E+03  0.00000000000E+00 0. -1.
         21   -1    0    0  505  502 -0.00000000000E+00 -0.00000000000E+00 -0.80232124643E+02  0.80232124643E+02  0.00000000000E+00 0. -1.
         21    1    1    2  503  502  0.48088832432E+02  0.19126672663E+02 -0.33226865527E+02  0.61501138238E+02  0.00000000000E+00 0. -1.
         21    1    1    2  504  503 -0.55549710004E+02  0.76168544252E+02  0.19029376457E+03  0.21236556748E+03  0.00000000000E+00 0. -1.
         21    1    1    2  505  501 -0.11460917771E+02 -0.13037381645E+03  0.18510459145E+03  0.22669890698E+03  0.00000000000E+00 0. -1.
         21    1    1    2  506  504  0.18921795343E+02  0.35078599531E+02  0.38264729482E+03  0.38471742191E+03  0.00000000000E+00 0. -1.
<scales pt_clust_3="52.78476" pt_clust_4="14000.00000" pt_clust_5="105.12895" pt_clust_6="39.85652"></scales>
<clustering>
<clus scale="   39.857">  1  6  2 -1</clus>
<clus scale="   52.785">  2  3  1 -1</clus>
<clus scale="  105.129">  2  5  1 -1</clus>
<clus scale="   39.857">  1  3  2 -1</clus>
</clustering>
</event>
<event>
 6    0  0.6687079E+002  0.8437582E+02  0.7546771E-02  0.1317073E+00
         21   -1    0    0  506  501  0.00000000000E+00  0.00000000000E+00  0.30886180257E+02  0.30886180257E+02  0.00000000000E+00 0. -1.
         21   -1    0    0  503  502 -0.00000000000E+00 -0.00000000000E+00 -0.20201023650E+04  0.20201023650E+04  0.00000000000E+00 0. -1.
         21    1    1    2  503  505  0.27915365487E+02  0.70942946519E+02 -0.51685127879E+03  0.52244369426E+03  0.00000000000E+00 0. -1.
         21    1    1    2  504  502  0.46980276042E+02 -0.90746842885E+02 -0.13682016953E+04  0.13720123961E+04  0.00000000000E+00 0. -1.
         21    1    1    2  505  501 -0.35505350107E+02  0.24475633378E+02 -0.10837827011E+03  0.11664277066E+03  0.00000000000E+00 0. -1.
         21    1    1    2  506  504 -0.39390291423E+02 -0.46717370123E+01  0.42150594854E+01  0.39889684275E+02  0.00000000000E+00 0. -1.
<scales pt_clust_3="14000.00000" pt_clust_4="84.37582" pt_clust_5="58.35609" pt_clust_6="39.66636"></scales>
<clustering>
<clus scale="   39.666">  1  6  2 -1</clus>
<clus scale="   58.356">  1  5  2 -1</clus>
<clus scale="   84.376">  2  4  1 -1</clus>
<clus scale="   39.666">  1  3  2 -1</clus>
</clustering>
</event>
<event>
 6    0  0.6687079E+002  0.1266538E+03  0.7546771E-02  0.1232507E+00
         21   -1    0    0  506  501  0.00000000000E+00  0.00000000000E+00  0.15790994128E+04  0.15790994128E+04  0.00000000000E+00 0.  1.
         21   -1    0    0  505  502 -0.00000000000E+00 -0.00000000000E+00 -0.12736721627E+03  0.12736721627E+03  0.00000000000E+00 0. -1.
         21    1    1    2  503  504  0.61034397062E+02  0.26592331545E+02  0.55724582786E+03  0.56120875117E+03  0.00000000000E+00 0.  1.
         21    1    1    2  504  502 -0.41974671898E+02 -0.78688014455E+01 -0.10276947934E+03  0.11128951883E+03  0.00000000000E+00 0. -1.
         21    1    1    2  505  501 -0.68803250049E+02 -0.52872051650E+02  0.91120534590E+02  0.12582643954E+03  0.00000000000E+00 0.  1.
         21    1    1    2  506  503  0.49743524884E+02  0.34148521550E+02  0.90613531343E+03  0.90814191955E+03  0.00000000000E+00 0.  1.
<scales pt_clust_3="37.42948" pt_clust_4="42.70587" pt_clust_5="120.39668" pt_clust_6="37.42948"></scales>
<clustering>
<clus scale="   37.429">  3  6 -1 -1</clus>
<clus scale="   42.706">  2  4  1 -1</clus>
<clus scale="  120.397">  2  5  1 -1</clus>
<clus scale="  126.654">  1  3  2 -1</clus>
</clustering>
</event>
<event>
 6    0  0.6687079E+002  0.9923699E+02  0.7546771E-02  0.1281909E+00
         21   -1    0    0  504  501  0.00000000000E+00  0.00000000000E+00  0.27310311964E+03  0.27310311964E+03  0.00000000000E+00 0. -1.
         21   -1    0    0  506  502 -0.00000000000E+00 -0.00000000000E+00 -0.12459941217E+03  0.12459941217E+03  0.00000000000E+00 0. -1.
         21    1    1    2  503  502 -0.41338084630E+02 -0.10402038555E+01 -0.13295159474E+02  0.43435935933E+02  0.00000000000E+00 0. -1.
         21    1    1    2  504  503 -0.39264689582E+02 -0.17639186414E+02  0.18586240496E+02  0.46886086220E+02  0.00000000000E+00 0.  1.
         21    1    1    2  505  501  0.19280605319E+02 -0.95780446690E+02  0.14811485117E+03  0.17743631209E+03  0.00000000000E+00 0. -1.
         21    1    1    2  506  505  0.61322168893E+02  0.11445983696E+03 -0.49022247328E+01  0.12994419757E+03  0.00000000000E+00 0. -1.
<scales pt_clust_3="35.12565" pt_clust_4="90.16691" pt_clust_5="14000.00000" pt_clust_6="99.23699"></scales>
<clustering>
<clus scale="   35.126">  3  4 -1 -1</clus>
<clus scale="   90.167">  2  3  1 -1</clus>
<clus scale="   99.237">  2  6  1 -1</clus>
<clus scale="   99.237">  1  3  2 -1</clus>
</clustering>
</event>
<event>
 6    0  0.6687079E+002  0.1138516E+03  0.7546771E-02  0.1253599E+00
         21   -1    0    0  503  501  0.00000000000E+00  0.00000000000E+00  0.14527204973E+02  0.14527204973E+02  0.00000000000E+00 0. -1.
         21   -1    0    0  505  502 -0.00000000000E+00 -0.00000000000E+00 -0.27695809996E+04  0.27695809996E+04  0.00000000000E+00 0. -1.
         21    1    1    2  503  506 -0.99226972155E+02 -0.32088289901E+02 -0.21701130409E+03  0.24076867831E+03  0.00000000000E+00 0. -1.
         21    1    1    2  504  501  0.69889036641E+02  0.19241793913E+02 -0.10868862687E+04  0.10893009158E+04  0.00000000000E+00 0. -1.
         21    1    1    2  505  504  0.46604233456E+02 -0.21133863022E+02 -0.98417827877E+03  0.98550772658E+03  0.00000000000E+00 0. -1.
         21    1    1    2  506  502 -0.17266297942E+02  0.33980359010E+02 -0.46697794305E+03  0.46853088386E+03  0.00000000000E+00 0.  1.
<scales pt_clust_3="104.94712" pt_clust_4="37.08561" pt_clust_5="37.08561" pt_clust_6="38.11548"></scales>
<clustering>
<clus scale="   37.086">  4  5 -1 -1</clus>
<clus scale="   38.115">  2  6  1 -1</clus>
<clus scale="  104.947">  1  3  2 -1</clus>
<clus scale="  104.947">  1  3  2 -1</clus>
</clustering>
</event>
<event>
 6    0  0.6687079E+002  0.1009306E+03  0.7546771E-02  0.1278351E+00
         21   -1    0    0  502  501  0.00000000000E+00  0.00000000000E+00  0.26915806612E+03  0.26915806612E+03  0.00000000000E+00 0.  1.
         21   -1    0    0  505  502 -0.00000000000E+00 -0.00000000000E+00 -0.46689291296E+03  0.46689291296E+03  0.00000000000E+00 0.  1.
         21    1    1    2  503  506  0.60083827805E+02 -0.45297371910E+02  0.13579108411E+02  0.76461169563E+02  0.00000000000E+00 0. -1.
         21    1    1    2  504  503  0.53248325668E+02  0.34662651289E+02  0.13043479990E+02  0.64861513635E+02  0.00000000000E+00 0.  1.
         21    1    1    2  505  504 -0.10668916746E+03 -0.20605009517E+02 -0.40087700637E+03  0.41534265265E+03  0.00000000000E+00 0.  1.
         21    1    1    2  506  501 -0.66429860083E+01  0.31239730138E+02  0.17651957113E+03  0.17938564323E+03  0.00000000000E+00 0.  1.
<scales pt_clust_3="64.18271" pt_clust_4="100.93056" pt_clust_5="14000.00000" pt_clust_6="31.93822"></scales>
<clustering>
<clus scale="   31.938">  1  6  2 -1</clus>
<clus scale="   64.183">  1  3  2 -1</clus>
<clus scale="  100.931">  1  4  2 -1</clus>
<clus scale="   31.938">  1  3  2 -1</clus>
</clustering>
</event>
<event>
 6    0  0.6687079E+002  0.1027019E+03  0.7546771E-02  0.1274715E+00
         21   -1    0    0  505  501  0.00000000000E+00  0.00000000000E+00  0.34571858226E+03  0.34571858226E+03  0.00000000000E+00 0. -1.
         21   -1    0    0  503  502 -0.00000000000E+00 -0.00000000000E+00 -0.17332749856E+04  0.17332749856E+04  0.00000000000E+00 0. -1.
         21    1    1    2  503  506 -0.20287302750E+02  0.29455081524E+02 -0.67271638458E+03  0.67366646834E+03  0.00000000000E+00 0. -1.
         21    1    1    2  504  502  0.13947881638E+02 -0.49991764872E+02 -0.19409893307E+03  0.20091818180E+03  0.00000000000E+00 0. -1.
         21    1    1    2  505  504  0.87230594733E+02  0.54485344745E+02  0.33179573113E+03  0.34737046024E+03  0.00000000000E+00 0. -1.
         21    1    1    2  506  501 -0.80891173621E+02 -0.33948661397E+02 -0.85253681678E+03  0.85703845745E+03  0.00000000000E+00 0. -1.
<scales pt_clust_3="35.76558" pt_clust_4="45.65067" pt_clust_5="14000.00000" pt_clust_6="102.70189"></scales>
<clustering>
<clus scale="   35.766">  2  3  1 -1</clus>
<clus scale="   45.651">  2  4  1 -1</clus>
<clus scale="  102.702">  2  6  1 -1</clus>
<clus scale="  102.702">  1  3  2 -1</clus>
</clustering>
</event>
<event>
 6    0  0.6687079E+002  0.1569284E+03  0.7546771E-02  0.1192209E+00
         21   -1    0    0  504  501  0.00000000000E+00  0.00000000000E+00  0.18251479394E+04  0.18251479394E+04  0.00000000000E+00 0.  1.
         21   -1    0    0  506  502 -0.00000000000E+00 -0.00000000000E+00 -0.61653288395E+02  0.61653288395E+02  0.00000000000E+00 0.  1.
         21    1    1    2  503  501  0.76809244060E+02  0.14405190340E+03  0.14122325083E+04  0.14216368272E+04  0.00000000000E+00 0.  1.
         21    1    1    2  504  505  0.24694731504E+02 -0.14679153141E+03  0.18684862225E+03  0.23889326298E+03  0.00000000000E+00 0. -1.
         21    1    1    2  505  502 -0.44025399744E+02 -0.44603218545E+02  0.23575934813E+02  0.66958999616E+02  0.00000000000E+00 0.  1.
         21    1    1    2  506  503 -0.57478575820E+02  0.47342846555E+02  0.14083758566E+03  0.15931213806E+03  0.00000000000E+00 0. -1.
<scales pt_clust_3="14000.00000" pt_clust_4="156.92840" pt_clust_5="62.67123" pt_clust_6="77.12744"></scales>
<clustering>
<clus scale="   62.671">  2  5  1 -1</clus>
<clus scale="   77.127">  2  6  1 -1</clus>
<clus scale="  156.928">  2  4  1 -1</clus>
<clus scale="  156.928">  1  3  2 -1</clus>
</clustering>
</event>
<event>
 6    0  0.6687079E+002  0.1312772E+03  0.7546771E-02  0.1225573E+00
         21   -1    0    0  505  501  0.00000000000E+00  0.00000000000E+00  0.14524370748E+04  0.14524370748E+04  0.00000000000E+00 0.  1.
         21   -1    0    0  504  502 -0.00000000000E+00 -0.00000000000E+00 -0.37846191728E+02  0.37846191728E+02  0.00000000000E+00 0. -1.
         21    1    1    2  503  501  0.11444734927E+03  0.37972087546E+02  0.12854895937E+04  0.12911326697E+04  0.00000000000E+00 0.  1.
         21    1    1    2  504  503 -0.30981730382E+02  0.56201384389E+00  0.68312547889E+02  0.75011916894E+02  0.00000000000E+00 0. -1.
         21    1    1    2  505  506 -0.28461215338E+02 -0.41708664304E+02  0.42763051628E+02  0.66168965846E+02  0.00000000000E+00 0. -1.
         21    1    1    2  506  502 -0.55004403549E+02  0.31745629141E+01  0.18025689852E+02  0.57969714111E+02  0.00000000000E+00 0. -1.
<scales pt_clust_3="118.19457" pt_clust_4="30.98683" pt_clust_5="50.44791" pt_clust_6="50.44791"></scales>
<clustering>
<clus scale="   30.987">  2  4  1 -1</clus>
<clus scale="   50.448">  5  6 -1 -1</clus>
<clus scale="  118.195">  1  3  2 -1</clus>
<clus scale="  118.195">  1  3  2 -1</clus>
</clustering>
</event>
<event>
 6    0  0.6687079E+002  0.8844012E+02  0.7546771E-02  0.1306674E+00
         21   -1    0    0  505  501  0.00000000000E+00  0.00000000000E+00  0.22131394449E+04  0.22131394449E+04  0.00000000000E+00 0.  1.
         21   -1    0    0  506  502 -0.00000000000E+00 -0.00000000000E+00 -0.16998401625E+02  0.16998401625E+02  0.00000000000E+00 0.  1.
         21    1    1    2  503  501  0.44957720421E+01 -0.69995527498E+02  0.10126567032E+04  0.10150828461E+04  0.00000000000E+00 0.  1.
         21    1    1    2  504  502 -0.24718432276E+02  0.72608296821E+02  0.11650371503E+03  0.13948505754E+03  0.00000000000E+00 0.  1.
         21    1    1    2  505  504  0.70093720547E+02 -0.85470454519E+01  0.84656938227E+03  0.84950921163E+03  0.00000000000E+00 0.  1.
         21    1    1    2  506  503 -0.49871060313E+02  0.59342761292E+01  0.22041124271E+03  0.22606073123E+03  0.00000000000E+00 0.  1.
<scales pt_clust_3="88.44012" pt_clust_4="14000.00000" pt_clust_5="65.40443" pt_clust_6="50.22289"></scales>
<clustering>
<clus scale="   50.223">  2  6  1 -1</clus>
<clus scale="   65.404">  1  5  2 -1</clus>
<clus scale="   88.440">  1  3  2 -1</clus>
<clus scale="   65.404">  1  3  2 -1</clus>
</clustering>
</event>
<event>
 6    0  0.6687079E+002  0.8082807E+02  0.7546771E-02  0.1326718E+00
         21   -1    0    0  505  501  0.00000000000E+00  0.00000000000E+00  0.23005232635E+03  0.23005232635E+03  0.00000000000E+00 0.  1.
         21   -1    0    0  506  502 -0.00000000000E+00 -0.00000000000E+00 -0.31346534831E+03  0.31346534831E+03  0.00000000000E+00 0.  1.
         21    1    1    2  503  501  0.50016243343E+02 -0.73797224344E+02  0.85382979977E+01  0.89557565017E+02  0.00000000000E+00 0.  1.
         21    1    1    2  504  502 -0.48305613420E+01  0.79454536832E+02  0.87314522438E+02  0.11815322075E+03  0.00000000000E+00 0.  1.
         21    1    1    2  505  504  0.31490736734E+02  0.79365201590E+01  0.68652524537E+02  0.75946191331E+02  0.00000000000E+00 0.  1.
         21    1    1    2  506  503 -0.76676418735E+02 -0.13593832647E+02 -0.24791836693E+03  0.25986069756E+03  0.00000000000E+00 0.  1.
<scales pt_clust_3="14000.00000" pt_clust_4="80.82807" pt_clust_5="32.47545" pt_clust_6="76.64605"></scales>
<clustering>
<clus scale="   32.475">  1  5  2 -1</clus>
<clus scale="   76.646">  2  6  1 -1</clus>
<clus scale="   80.828">  1  4  2 -1</clus>
<clus scale="   32.475">  1  3  2 -1</clus>
</clustering>
</event>
<event>
 6    0  0.6687079E+002  0.1254301E+03  0.7546771E-02  0.1234399E+00
         21   -1    0    0  505  501  0.00000000000E+00  0.00000000000E+00  0.30585993627E+03  0.30585993627E+03  0.00000000000E+00 0. -1.
         21   -1    0    0  506  502 -0.00000000000E+00 -0.00000000000E+00 -0.12873894333E+03  0.12873894333E+03  0.00000000000E+00 0. -1.
         21    1    1    2  503  504  0.58942586227E+02  0.13724015471E+00 -0.58653031237E+01  0.59233850852E+02  0.00000000000E+00 0. -1.
         21    1    1    2  504  501 -0.67536217738E+02 -0.28862009432E+02  0.19906075758E+03  0.21217761782E+03  0.00000000000E+00 0. -1.
         21    1    1    2  505  502 -0.60661650765E+02  0.18336014013E+02  0.38722716655E+02  0.74266372394E+02  0.00000000000E+00 0. -1.
         21    1    1    2  506  503  0.69255282275E+02  0.10388755264E+02 -0.54797178173E+02  0.88921038538E+02  0.00000000000E+00 0. -1.
<scales pt_clust_3="38.09757" pt_clust_4="118.35654" pt_clust_5="63.37228" pt_clust_6="38.09757"></scales>
<clustering>
<clus scale="   38.098">  3  6 -1 -1</clus>
<clus scale="   63.372">  1  5  2 -1</clus>
<clus scale="  118.357">  1  4  2 -1</clus>
<clus scale="   63.372">  1  3  2 -1</clus>
</clustering>
</event>
<event>
 6    0  0.6687079E+002  0.1032444E+03  0.7546771E-02  0.1273618E+00
         21   -1    0    0  505  501  0.00000000000E+00  0.00000000000E+00  0.46434749402E+03  0.46434749402E+03  0.00000000000E+00 0. -1.
         21   -1    0    0  506  502 -0.00000000000E+00 -0.00000000000E+00 -0.73849343716E+03  0.73849343716E+03  0.00000000000E+00 0.  1.
         21    1    1    2  503  501  0.55655260136E+02 -0.34478002112E+02  0.38527399128E+01  0.65582651786E+02  0.00000000000E+00 0. -1.
         21    1    1    2  504  503 -0.16628811798E+03  0.75617439959E+02 -0.14313254402E+03  0.23207037847E+03  0.00000000000E+00 0.  1.
         21    1    1    2  505  502  0.41990880904E+02 -0.69671870497E+01  0.38114320844E+03  0.38351260881E+03  0.00000000000E+00 0. -1.
         21    1    1    2  506  504  0.68641976941E+02 -0.34172250797E+02 -0.51600934747E+03  0.52167529212E+03  0.00000000000E+00 0.  1.
<scales pt_clust_3="103.24439" pt_clust_4="14000.00000" pt_clust_5="42.56496" pt_clust_6="78.08447"></scales>
<clustering>
<clus scale="   42.565">  1  5  2 -1</clus>
<clus scale="   78.084">  2  6  1 -1</clus>
<clus scale="  103.244">  1  3  2 -1</clus>
<clus scale="   42.565">  1  3  2 -1</clus>
</clustering>
</event>
<event>
 6    0  0.6687079E+002  0.1028984E+03  0.7546771E-02  0.1274316E+00
         21   -1    0    0  505  501  0.00000000000E+00  0.00000000000E+00  0.22992842260E+03  0.22992842260E+03  0.00000000000E+00 0.  1.
         21   -1    0    0  506  502 -0.00000000000E+00 -0.00000000000E+00 -0.35740844459E+03  0.35740844459E+03  0.00000000000E+00 0. -1.
         21    1    1    2  503  501 -0.90466820992E+02  0.29610400281E+02  0.15673886918E+03  0.18337964614E+03  0.00000000000E+00 0.  1.
         21    1    1    2  504  502 -0.30090836787E+02 -0.78610961716E+02 -0.98738034945E+02  0.12974722080E+03  0.00000000000E+00 0. -1.
         21    1    1    2  505  504  0.27286811967E+02  0.69186623305E+02 -0.10788732049E+02  0.75151551487E+02  0.00000000000E+00 0. -1.
         21    1    1    2  506  503  0.93270845811E+02 -0.20186061871E+02 -0.17469212418E+03  0.19905844876E+03  0.00000000000E+00 0. -1.
<scales pt_clust_3="102.89844" pt_clust_4="78.34229" pt_clust_5="74.37311" pt_clust_6="14000.00000"></scales>
<clustering>
<clus scale="   74.373">  1  5  2 -1</clus>
<clus scale="   78.342">  2  4  1 -1</clus>
<clus scale="  102.898">  1  3  2 -1</clus>
<clus scale="   74.373">  1  3  2 -1</clus>
</clustering>
</event>
<event>
 6    0  0.6687079E+002  0.8319653E+02  0.7546771E-02  0.1320217E+00
         21   -1    0    0  506  501  0.00000000000E+00  0.00000000000E+00  0.69504427611E+03  0.69504427611E+03  0.00000000000E+00 0. -1.
         21   -1    0    0  505  502 -0.00000000000E+00 -0.00000000000E+00 -0.23660456026E+03  0.23660456026E+03  0.00000000000E+00 0.  1.
         21    1    1    2  503  504 -0.50522034114E+02 -0.71748558312E+02  0.95586525683E+02  0.12975791091E+03  0.00000000000E+00 0.  1.
         21    1    1    2  504  502 -0.22094724300E+02  0.41884692042E+02 -0.19810652681E+03  0.20368775181E+03  0.00000000000E+00 0.  1.
         21    1    1    2  505  501 -0.10775157074E+02  0.73971471403E+02  0.85918904192E+02  0.11388564742E+03  0.00000000000E+00 0. -1.
         21    1    1    2  506  503  0.83391915488E+02 -0.44107605133E+02  0.47504081279E+03  0.48431752624E+03  0.00000000000E+00 0. -1.
<scales pt_clust_3="80.03825" pt_clust_4="47.35509" pt_clust_5="83.19653" pt_clust_6="14000.00000"></scales>
<clustering>
<clus scale="   47.355">  2  4  1 -1</clus>
<clus scale="   80.038">  2  3  1 -1</clus>
<clus scale="   83.197">  2  5  1 -1</clus>
<clus scale="   83.197">  1  3  2 -1</clus>
</clustering>
</event>
<event>
 6    0  0.6687079E+002  0.8819079E+02  0.7546771E-02  0.1307293E+00
         21   -1    0    0  504  501  0.00000000000E+00  0.00000000000E+00  0.35744678218E+03  0.35744678218E+03  0.00000000000E+00 0.  1.
         21   -1    0    0  506  502 -0.00000000000E+00 -0.00000000000E+00 -0.23507739059E+03  0.23507739059E+03  0.00000000000E+00 0.  1.
         21    1    1    2  503  502 -0.18662375514E+02  0.84996404160E+02 -0.14939149456E+03  0.17288866830E+03  0.00000000000E+00 0.  1.
         21    1    1    2  504  505  0.13971310830E+01 -0.35126644685E+02  0.28088941528E+03  0.28308072480E+03  0.00000000000E+00 0.  1.
         21    1    1    2  505  503  0.78809968733E+01  0.42452670342E+02  0.11193742399E+01  0.43192503164E+02  0.00000000000E+00 0.  1.
         21    1    1    2  506  501  0.93842475573E+01 -0.92322429818E+02 -0.10247903371E+02  0.93362276499E+02  0.00000000000E+00 0.  1.
<scales pt_clust_3="88.19079" pt_clust_4="35.15442" pt_clust_5="33.19155" pt_clust_6="14000.00000"></scales>
<clustering>
<clus scale="   35.154">  1  4  2 -1</clus>
<clus scale="   33.192">  1  5  2 -1</clus>
<clus scale="   88.191">  2  3  1 -1</clus>
<clus scale="   35.154">  1  3  2 -1</clus>
</clustering>
</event>
<event>
 6    0  0.6687079E+002  0.2195620E+03  0.7546771E-02  0.1134210E+00
         21   -1    0    0  504  501  0.00000000000E+00  0.00000000000E+00  0.20502160935E+03  0.20502160935E+03  0.00000000000E+00 0.  1.
         21   -1    0    0  503  502 -0.00000000000E+00 -0.00000000000E+00 -0.46391428175E+03  0.46391428175E+03  0.00000000000E+00 0.  1.
         21    1    1    2  503  506 -0.23453817273E+02  0.21260613813E+03 -0.27985445271E+03  0.35223566858E+03  0.00000000000E+00 0.  1.
         21    1    1    2  504  502 -0.76473160234E+02 -0.52610816883E+01  0.30519808599E+02  0.82506253906E+02  0.00000000000E+00 0. -1.
         21    1    1    2  505  501  0.20314116130E+02 -0.75791359750E+02  0.10336403785E+02  0.79144391905E+02  0.00000000000E+00 0.  1.
         21    1    1    2  506  505  0.79612861377E+02 -0.13155369669E+03 -0.19894432080E+02  0.15504957671E+03  0.00000000000E+00 0.  1.
<scales pt_clust_3="215.47484" pt_clust_4="76.65392" pt_clust_5="30.12213" pt_clust_6="30.12213"></scales>
<clustering>
<clus scale="   30.122">  5  6 -1 -1</clus>
<clus scale="   76.654">  1  4  2 -1</clus>
<clus scale="  215.475">  2  3  1 -1</clus>
<clus scale="   76.654">  1  3  2 -1</clus>
</clustering>
</event>
<event>
 6    0  0.6687079E+002  0.8910954E+02  0.7546771E-02  0.1305022E+00
         21   -1    0    0  506  501  0.00000000000E+00  0.00000000000E+00  0.21119481145E+03  0.21119481145E+03  0.00000000000E+00 0.  1.
         21   -1    0    0  503  502 -0.00000000000E+00 -0.00000000000E+00 -0.11248592134E+03  0.11248592134E+03  0.00000000000E+00 0.  1.
         21    1    1    2  503  505  0.30505578203E+02 -0.10432709136E+02 -0.18191517758E+02  0.37018414874E+02  0.00000000000E+00 0.  1.
         21    1    1    2  504  501 -0.41040057628E+02 -0.24469259029E+02  0.54709485184E+02  0.72637171866E+02  0.00000000000E+00 0.  1.
         21    1    1    2  505  504  0.77263942450E+02 -0.45797065614E+02  0.62303179073E+02  0.10931044847E+03  0.00000000000E+00 0.  1.
         21    1    1    2  506  502 -0.66729463025E+02  0.80699033779E+02 -0.11225639522E+00  0.10471469758E+03  0.00000000000E+00 0.  1.
<scales pt_clust_3="32.24022" pt_clust_4="45.65213" pt_clust_5="14000.00000" pt_clust_6="89.10954"></scales>
<clustering>
<clus scale="   32.240">  2  3  1 -1</clus>
<clus scale="   45.652">  1  4  2 -1</clus>
<clus scale="   89.110">  2  6  1 -1</clus>
<clus scale="   45.652">  1  3  2 -1</clus>
</clustering>
</event>
<event>
 6    0  0.6687079E+002  0.2228418E+03  0.7546771E-02  0.1131782E+00
         21   -1    0    0  503  501  0.00000000000E+00  0.00000000000E+00  0.14611273931E+04  0.14611273931E+04  0.00000000000E+00 0. -1.
         21   -1    0    0  505  502 -0.00000000000E+00 -0.00000000000E+00 -0.24401508005E+03  0.24401508005E+03  0.00000000000E+00 0. -1.
         21    1    1    2  503  504  0.18827299037E+03 -0.14457292096E+03  0.13125113021E+04  0.13338043209E+04  0.00000000000E+00 0. -1.
         21    1    1    2  504  502  0.34450221679E+02 -0.52295716997E+01 -0.51478488720E+02  0.62162697775E+02  0.00000000000E+00 0.  1.
         21    1    1    2  505  506 -0.19182310957E+03  0.15814178839E+03 -0.79795992919E+02  0.26109831690E+03  0.00000000000E+00 0. -1.
         21    1    1    2  506  501 -0.30900102476E+02 -0.83392957244E+01  0.35875492581E+02  0.48077137541E+02  0.00000000000E+00 0.  1.
<scales pt_clust_3="14000.00000" pt_clust_4="34.73463" pt_clust_5="222.84178" pt_clust_6="32.00563"></scales>
<clustering>
<clus scale="   32.006">  1  6  2 -1</clus>
<clus scale="   34.735">  2  4  1 -1</clus>
<clus scale="  222.842">  2  5  1 -1</clus>
<clus scale="   32.006">  1  3  2 -1</clus>
</clustering>
</event>
<event>
 6    0  0.6687079E+002  0.9896312E+02  0.7546771E-02  0.1282492E+00
         21   -1    0    0  506  501  0.00000000000E+00  0.00000000000E+00  0.22673772864E+04  0.22673772864E+04  0.00000000000E+00 0. -1.
         21   -1    0    0  503  502 -0.00000000000E+00 -0.00000000000E+00 -0.10747597409E+02  0.10747597409E+02  0.00000000000E+00 0. -1.
         21    1    1    2  503  505  0.26045276003E+02 -0.58116664574E+02  0.40770356148E+03  0.41264766708E+03  0.00000000000E+00 0. -1.
         21    1    1    2  504  502 -0.56881024664E+02  0.64721336184E+02  0.33466516325E+03  0.34557933072E+03  0.00000000000E+00 0. -1.
         21    1    1    2  505  501 -0.97561790668E+01 -0.57932282892E+02  0.48241579669E+03  0.48597976638E+03  0.00000000000E+00 0. -1.
         21    1    1    2  506  504  0.40591927728E+02  0.51327611282E+02  0.10318451675E+04  0.10339181196E+04  0.00000000000E+00 0. -1.
<scales pt_clust_3="37.02531" pt_clust_4="91.14603" pt_clust_5="37.02531" pt_clust_6="65.43874"></scales>
<clustering>
<clus scale="   37.025">  3  5 -1 -1</clus>
<clus scale="   65.439">  1  6  2 -1</clus>
<clus scale="   91.146">  2  4  1 -1</clus>
<clus scale="   65.439">  1  3  2 -1</clus>
</clustering>
</event>
<event>
 6    0  0.6687079E+002  0.7278186E+02  0.7546771E-02  0.1350881E+00
         21   -1    0    0  504  501  0.00000000000E+00  0.00000000000E+00  0.12378845891E+03  0.12378845891E+03  0.00000000000E+00 0. -1.
         21   -1    0    0  505  502 -0.00000000000E+00 -0.00000000000E+00 -0.41150108670E+03  0.41150108670E+03  0.00000000000E+00 0.  1.
         21    1    1    2  503  506 -0.77455477826E+02  0.60836066211E+01  0.21046725026E+02  0.80494260348E+02  0.00000000000E+00 0. -1.
         21    1    1    2  504  503  0.18917603270E+02  0.23801820306E+02  0.48211813801E+02  0.56998082015E+02  0.00000000000E+00 0. -1.
         21    1    1    2  505  501 -0.19075308820E+01 -0.72270608709E+02 -0.66973441853E+02  0.98550096250E+02  0.00000000000E+00 0.  1.
         21    1    1    2  506  502  0.60445405437E+02  0.42385181781E+02 -0.28999772477E+03  0.29924710700E+03  0.00000000000E+00 0.  1.
<scales pt_clust_3="14000.00000" pt_clust_4="30.40399" pt_clust_5="67.03050" pt_clust_6="72.78186"></scales>
<clustering>
<clus scale="   30.404">  1  4  2 -1</clus>
<clus scale="   67.030">  1  5  2 -1</clus>
<clus scale="   72.782">  2  6  1 -1</clus>
<clus scale="   30.404">  1  3  2 -1</clus>
</clustering>
</event>
<event>
 6    0  0.6687079E+002  0.1215962E+03  0.7546771E-02  0.1240487E+00
         21   -1    0    0  505  501  0.00000000000E+00  0.00000000000E+00  0.27613230593E+03  0.27613230593E+03  0.00000000000E+00 0. -1.
         21   -1    0    0  506  502 -0.00000000000E+00 -0.00000000000E+00 -0.70843876094E+03  0.70843876094E+03  0.00000000000E+00 0.  1.
         21    1    1    2  503  501 -0.76578088644E+02 -0.11852170035E+03  0.21470185173E+03  0.25692115960E+03  0.00000000000E+00 0. -1.
         21    1    1    2  504  502  0.40219369698E+02  0.17321840549E+02 -0.76643655380E+02  0.88271704237E+02  0.00000000000E+00 0. -1.
         21    1    1    2  505  504 -0.26150584814E+02  0.48583976151E+02  0.75743190600E+01  0.55692244828E+02  0.00000000000E+00 0. -1.
         21    1    1    2  506  503  0.62509303760E+02  0.52615883654E+02 -0.57793897042E+03  0.58368595820E+03  0.00000000000E+00 0.  1.
<scales pt_clust_3="14000.00000" pt_clust_4="43.79091" pt_clust_5="55.05389" pt_clust_6="121.59619"></scales>
<clustering>
<clus scale="   43.791">  2  4  1 -1</clus>
<clus scale="   55.054">  1  5  2 -1</clus>
<clus scale="  121.596">  2  6  1 -1</clus>
<clus scale="   55.054">  1  3  2 -1</clus>
</clustering>
</event>
<event>
 6    0  0.6687079E+002  0.3168814E+03  0.7546771E-02  0.1077094E+00
         21   -1    0    0  506  501  0.00000000000E+00  0.00000000000E+00  0.17104525861E+04  0.17104525861E+04  0.00000000000E+00 0. -1.
         21   -1    0    0  504  502 -0.00000000000E+00 -0.00000000000E+00 -0.15697336013E+03  0.15697336013E+03  0.00000000000E+00 0.  1.
         21    1    1    2  503  505 -0.28514551238E+02 -0.10352892848E+03  0.27925394412E+00  0.10738434079E+03  0.00000000000E+00 0.  1.
         21    1    1    2  504  501 -0.47611416418E+02  0.28067657723E+03  0.15226652453E+04  0.15490499143E+04  0.00000000000E+00 0. -1.
         21    1    1    2  505  502  0.57391798621E+02 -0.61194898908E+02 -0.14608236756E+02  0.85158879645E+02  0.00000000000E+00 0.  1.
         21    1    1    2  506  503  0.18734169035E+02 -0.11595274984E+03  0.45142963510E+02  0.12583281145E+03  0.00000000000E+00 0.  1.
<scales pt_clust_3="60.91883" pt_clust_4="284.68612" pt_clust_5="71.18680" pt_clust_6="71.18680"></scales>
<clustering>
<clus scale="   60.919">  3  6 -1 -1</clus>
<clus scale="   71.187">  3  5 -1 -1</clus>
<clus scale="  284.686">  1  4  2 -1</clus>
<clus scale="  284.686">  1  3  2 -1</clus>
</clustering>
</event>
<event>
 6    0  0.6687079E+002  0.1021399E+03  0.7546771E-02  0.1275859E+00
         21   -1    0    0  506  501  0.00000000000E+00  0.00000000000E+00  0.18169868265E+03  0.18169868265E+03  0.00000000000E+00 0.  1.
         21   -1    0    0  505  502 -0.00000000000E+00 -0.00000000000E+00 -0.15791067678E+03  0.15791067678E+03  0.00000000000E+00 0.  1.
         21    1    1    2  503  502  0.49995895917E+02  0.67518069407E+02 -0.85727975221E+02  0.12003151686E+03  0.00000000000E+00 0.  1.
         21    1    1    2  504  501 -0.43585225322E+02 -0.58057742913E+02  0.56637688269E+01  0.72817934988E+02  0.00000000000E+00 0.  1.
         21    1    1    2  505  504 -0.50781064307E+02 -0.18213081728E+02  0.34742437251E+02  0.64167513466E+02  0.00000000000E+00 0.  1.
         21    1    1    2  506  503  0.44370393712E+02  0.87527552344E+01  0.69109775018E+02  0.82592394113E+02  0.00000000000E+00 0.  1.
<scales pt_clust_3="89.56806" pt_clust_4="42.32023" pt_clust_5="42.32023" pt_clust_6="45.22546"></scales>
<clustering>
<clus scale="   42.320">  4  5 -1 -1</clus>
<clus scale="   45.225">  1  6  2 -1</clus>
<clus scale="   89.568">  2  3  1 -1</clus>
<clus scale="   45.225">  1  3  2 -1</clus>
</clustering>
</event>
<event>
 6    0  0.6687079E+002  0.8157652E+02  0.7546771E-02  0.1324636E+00
         21   -1    0    0  502  501  0.00000000000E+00  0.00000000000E+00  0.66646320035E+02  0.66646320035E+02  0.00000000000E+00 0. -1.
         21   -1    0    0  504  502 -0.00000000000E+00 -0.00000000000E+00 -0.15819258585E+04  0.15819258585E+04  0.00000000000E+00 0. -1.
         21    1    1    2  503  501  0.21452670245E+02  0.55085836969E+02 -0.16600368903E+01  0.59139007582E+02  0.00000000000E+00 0. -1.
         21    1    1    2  504  505  0.50783604652E+02  0.37837576930E+02 -0.12504529332E+04  0.12520555877E+04  0.00000000000E+00 0. -1.
         21    1    1    2  505  506 -0.10724988948E+03  0.62776590077E+00 -0.16862055823E+03  0.19983949945E+03  0.00000000000E+00 0. -1.
         21    1    1    2  506  503  0.35013614585E+02 -0.93551179800E+02 -0.94546010239E+02  0.13753808382E+03  0.00000000000E+00 0. -1.
<scales pt_clust_3="59.11570" pt_clust_4="64.39255" pt_clust_5="14000.00000" pt_clust_6="81.57652"></scales>
<clustering>
<clus scale="   59.116">  1  3  2 -1</clus>
<clus scale="   64.393">  2  4  1 -1</clus>
<clus scale="   81.577">  1  6  2 -1</clus>
<clus scale="   59.116">  1  3  2 -1</clus>
</clustering>
</event>
<event>
 6    0  0.6687079E+002  0.7499501E+02  0.7546771E-02  0.1343886E+00
         21   -1    0    0  505  501  0.00000000000E+00  0.00000000000E+00  0.43606668559E+02  0.43606668559E+02  0.00000000000E+00 0. -1.
         21   -1    0    0  506  502 -0.00000000000E+00 -0.00000000000E+00 -0.59979522246E+03  0.59979522246E+03  0.00000000000E+00 0. -1.
         21    1    1    2  503  501 -0.24996904083E+02  0.73195051558E+02 -0.32341058287E+02  0.83834985760E+02  0.00000000000E+00 0. -1.
         21    1    1    2  504  502 -0.58756498643E+01  0.41343892226E+02 -0.23017432334E+03  0.23393174178E+03  0.00000000000E+00 0.  1.
         21    1    1    2  505  504 -0.83419529181E+01 -0.74637518686E+02 -0.10676652524E+03  0.13053519941E+03  0.00000000000E+00 0. -1.
         21    1    1    2  506  503  0.39214506866E+02 -0.39901425098E+02 -0.18690664703E+03  0.19509996407E+03  0.00000000000E+00 0. -1.
<scales pt_clust_3="74.99501" pt_clust_4="41.75932" pt_clust_5="14000.00000" pt_clust_6="40.58719"></scales>
<clustering>
<clus scale="   41.759">  2  4  1 -1</clus>
<clus scale="   40.587">  2  6  1 -1</clus>
<clus scale="   74.995">  1  3  2 -1</clus>
<clus scale="   74.995">  1  3  2 -1</clus>
</clustering>
</event>
<event>
 6    0  0.6687079E+002  0.1524220E+03  0.7546771E-02  0.1197528E+00
         21   -1    0    0  505  501  0.00000000000E+00  0.00000000000E+00  0.56274689163E+03  0.56274689163E+03  0.00000000000E+00 0. -1.
         21   -1    0    0  504  502 -0.00000000000E+00 -0.00000000000E+00 -0.10206748846E+03  0.10206748846E+03  0.00000000000E+00 0. -1.
         21    1    1    2  503  501 -0.47447589258E+02 -0.18769609397E+02  0.15852636360E+03  0.16653582173E+03  0.00000000000E+00 0. -1.
         21    1    1    2  504  506  0.39286682791E+02 -0.12107136762E+02  0.31232610225E+02  0.51628501303E+02  0.00000000000E+00 0. -1.
         21    1    1    2  505  502  0.45430383082E+02  0.12682372512E+03 -0.21702145292E+02  0.13645204312E+03  0.00000000000E+00 0. -1.
         21    1    1    2  506  503 -0.37269476616E+02 -0.95946978964E+02  0.29262257464E+03  0.31019801393E+03  0.00000000000E+00 0. -1.
<scales pt_clust_3="41.07182" pt_clust_4="41.10993" pt_clust_5="140.81743" pt_clust_6="41.07182"></scales>
<clustering>
<clus scale="   41.072">  3  6 -1 -1</clus>
<clus scale="   41.110">  2  4  1 -1</clus>
<clus scale="  140.817">  2  5  1 -1</clus>
<clus scale="  152.422">  1  3  2 -1</clus>
</clustering>
</event>
<event>
 6    0  0.6687079E+002  0.1206796E+03  0.7546771E-02  0.1241980E+00
         21   -1    0    0  506  501  0.00000000000E+00  0.00000000000E+00  0.28060929005E+03  0.28060929005E+03  0.00000000000E+00 0.  1.
         21   -1    0    0  505  502 -0.00000000000E+00 -0.00000000000E+00 -0.17906419047E+03  0.17906419047E+03  0.00000000000E+00 0. -1.
         21    1    1    2  503  501  0.43572775500E+02 -0.52812958687E+02  0.13967998000E+03  0.15555800263E+03  0.00000000000E+00 0.  1.
         21    1    1    2  504  502 -0.43745197289E+02 -0.12745267451E+02  0.52143317545E+02  0.69246008498E+02  0.00000000000E+00 0.  1.
         21    1    1    2  505  503  0.47734712406E+02  0.10880095925E+03 -0.11561000842E+03  0.16577673404E+03  0.00000000000E+00 0. -1.
         21    1    1    2  506  504 -0.47562290618E+02 -0.43242733116E+02  0.25331810451E+02  0.69092735340E+02  0.00000000000E+00 0.  1.
<scales pt_clust_3="68.46748" pt_clust_4="34.33837" pt_clust_5="113.57843" pt_clust_6="34.33837"></scales>
<clustering>
<clus scale="   34.338">  4  6 -1 -1</clus>
<clus scale="   68.467">  1  3  2 -1</clus>
<clus scale="  113.578">  2  5  1 -1</clus>
<clus scale="   68.467">  1  3  2 -1</clus>
</clustering>
</event>
<event>
 6    0  0.6687079E+002  0.2107604E+03  0.7546771E-02  0.1140965E+00
         21   -1    0    0  505  501  0.00000000000E+00  0.00000000000E+00  0.37008826210E+03  0.37008826210E+03  0.00000000000E+00 0. -1.
         21   -1    0    0  506  502 -0.00000000000E+00 -0.00000000000E+00 -0.28569949364E+03  0.28569949364E+03  0.00000000000E+00 0. -1.
         21    1    1    2  503  501 -0.27321116088E+02 -0.66582113797E+02 -0.30595309576E+02  0.78202904230E+02  0.00000000000E+00 0.  1.
         21    1    1    2  504  502 -0.44505929010E+02  0.17816323055E+03 -0.30071790143E+02  0.18608392461E+03  0.00000000000E+00 0.  1.
         21    1    1    2  505  504  0.31760829978E+02  0.37805360209E+02  0.21583361430E+03  0.22140945021E+03  0.00000000000E+00 0. -1.
         21    1    1    2  506  503  0.40066215120E+02 -0.14938647696E+03 -0.70777746121E+02  0.17009147668E+03  0.00000000000E+00 0. -1.
<scales pt_clust_3="46.10784" pt_clust_4="199.62773" pt_clust_5="49.37606" pt_clust_6="46.10784"></scales>
<clustering>
<clus scale="   46.108">  3  6 -1 -1</clus>
<clus scale="   49.376">  1  5  2 -1</clus>
<clus scale="  199.628">  1  4  2 -1</clus>
<clus scale="   49.376">  1  3  2 -1</clus>
</clustering>
</event>
<event>
 6    0  0.6687079E+002  0.1764591E+03  0.7546771E-02  0.1171275E+00
         21   -1    0    0  506  501  0.00000000000E+00  0.00000000000E+00  0.67474847657E+03  0.67474847657E+03  0.00000000000E+00 0.  1.
         21   -1    0    0  503  502 -0.00000000000E+00 -0.00000000000E+00 -0.72077598213E+02  0.72077598213E+02  0.00000000000E+00 0.  1.
         21    1    1    2  503  505  0.34573804362E+02 -0.84606436245E+01  0.20782448301E+02  0.41216994019E+02  0.00000000000E+00 0.  1.
         21    1    1    2  504  502 -0.10060234421E+03 -0.55962216241E+02  0.36985714091E+03  0.38735888526E+03  0.00000000000E+00 0.  1.
         21    1    1    2  505  501  0.10649972440E+03  0.11268824751E+03  0.85875492269E+02  0.17724399171E+03  0.00000000000E+00 0.  1.
         21    1    1    2  506  504 -0.40471184551E+02 -0.48265387642E+02  0.12615579688E+03  0.14100620380E+03  0.00000000000E+00 0.  1.
<scales pt_clust_3="35.59397" pt_clust_4="36.11953" pt_clust_5="169.59396" pt_clust_6="36.11953"></scales>
<clustering>
<clus scale="   35.594">  2  3  1 -1</clus>
<clus scale="   36.120">  4  6 -1 -1</clus>
<clus scale="  169.594">  2  5  1 -1</clus>
<clus scale="  176.459">  1  3  2 -1</clus>
</clustering>
</event>
<event>
 6    0  0.6687079E+002  0.8457791E+02  0.7546771E-02  0.1316540E+00
         21   -1    0    0  503  501  0.00000000000E+00  0.00000000000E+00  0.61872651416E+03  0.61872651416E+03  0.00000000000E+00 0.  1.
         21   -1    0    0  504  502 -0.00000000000E+00 -0.00000000000E+00 -0.76569233523E+02  0.76569233523E+02  0.00000000000E+00 0.  1.
         21    1    1    2  503  505 -0.53468387337E+02 -0.62576415669E+02  0.39890390372E+03  0.40730701031E+03  0.00000000000E+00 0.  1.
         21    1    1    2  504  501  0.56144909878E+02  0.89683591624E+02  0.37320143867E+02  0.11219710625E+03  0.00000000000E+00 0.  1.
         21    1    1    2  505  506  0.61454269271E+02 -0.24590551080E+02  0.86128588548E+02  0.10862530175E+03  0.00000000000E+00 0.  1.
         21    1    1    2  506  502 -0.64130791812E+02 -0.25166248750E+01  0.19804644502E+02  0.67166329385E+02  0.00000000000E+00 0.  1.
<scales pt_clust_3="14000.00000" pt_clust_4="84.57791" pt_clust_5="54.01451" pt_clust_6="64.18015"></scales>
<clustering>
<clus scale="   64.180">  2  6  1 -1</clus>
<clus scale="   54.015">  2  5  1 -1</clus>
<clus scale="   84.578">  2  4  1 -1</clus>
<clus scale="   84.578">  1  3  2 -1</clus>
</clustering>
</event>
<event>
 6    0  0.6687079E+002  0.1048432E+03  0.7546771E-02  0.1270429E+00
         21   -1    0    0  506  501  0.00000000000E+00  0.00000000000E+00  0.12877425041E+04  0.12877425041E+04  0.00000000000E+00 0.  1.
         21   -1    0    0  503  502 -0.00000000000E+00 -0.00000000000E+00 -0.35321935262E+03  0.35321935262E+03  0.00000000000E+00 0.  1.
         21    1    1    2  503  501  0.40993780457E+01  0.48446570116E+02  0.29710599527E+01  0.48710391639E+02  0.00000000000E+00 0.  1.
         21    1    1    2  504  505  0.12320589691E+03  0.35376824396E+02 -0.47880773557E+02  0.13683486841E+03  0.00000000000E+00 0.  1.
         21    1    1    2  505  502 -0.94981460252E+02  0.15133998452E+02 -0.22593857553E+03  0.24555804938E+03  0.00000000000E+00 0.  1.
         21    1    1    2  506  504 -0.32323814701E+02 -0.98957392964E+02  0.12053714406E+04  0.12098585473E+04  0.00000000000E+00 0.  1.
<scales pt_clust_3="48.61970" pt_clust_4="104.84322" pt_clust_5="14000.00000" pt_clust_6="103.78143"></scales>
<clustering>
<clus scale="   48.620">  2  3  1 -1</clus>
<clus scale="  103.781">  1  6  2 -1</clus>
<clus scale="  104.843">  1  4  2 -1</clus>
<clus scale="  103.781">  1  3  2 -1</clus>
</clustering>
</event>
<event>
 6    0  0.6687079E+002  0.3121148E+03  0.7546771E-02  0.1079337E+00
         21   -1    0    0  503  501  0.00000000000E+00  0.00000000000E+00  0.41437937259E+03  0.41437937259E+03  0.00000000000E+00 0. -1.
         21   -1    0    0  505  502 -0.00000000000E+00 -0.00000000000E+00 -0.25572584708E+03  0.25572584708E+03  0.00000000000E+00 0. -1.
         21    1    1    2  503  502 -0.26943414707E+03 -0.86306805210E+02 -0.59755460201E+02  0.28916144151E+03  0.00000000000E+00 0. -1.
         21    1    1    2  504  501  0.30078520223E+02 -0.14471307302E+02  0.55552366030E+02  0.64808961458E+02  0.00000000000E+00 0.  1.
         21    1    1    2  505  506  0.87819259114E+02  0.42002716883E+02  0.19219962596E+02  0.99226294192E+02  0.00000000000E+00 0. -1.
         21    1    1    2  506  504  0.15153636774E+03  0.58775395628E+02  0.14363665708E+03  0.21690852250E+03  0.00000000000E+00 0. -1.
<scales pt_clust_3="282.91982" pt_clust_4="31.20508" pt_clust_5="74.56102" pt_clust_6="74.56102"></scales>
<clustering>
<clus scale="   31.205">  4  6 -1 -1</clus>
<clus scale="   74.561">  4  5 -1 -1</clus>
<clus scale="  282.920">  2  3  1 -1</clus>
<clus scale="  312.115">  1  3  2 -1</clus>
</clustering>
</event>
<event>
 6    0  0.6687079E+002  0.1349075E+03  0.7546771E-02  0.1220350E+00
         21   -1    0    0  504  501  0.00000000000E+00  0.00000000000E+00  0.20847223892E+04  0.20847223892E+04  0.00000000000E+00 0.  1.
         21   -1    0    0  505  502 -0.00000000000E+00 -0.00000000000E+00 -0.50331163229E+03  0.50331163229E+03  0.00000000000E+00 0. -1.
         21    1    1    2  503  506 -0.16806892889E+03  0.22989288857E+01  0.85426490753E+02  0.18854743503E+03  0.00000000000E+00 0.  1.
         21    1    1    2  504  503  0.16740081251E+03 -0.95166702735E+00  0.15339199391E+04  0.15430276463E+04  0.00000000000E+00 0.  1.
         21    1    1    2  505  501 -0.38352335782E+02 -0.32218794473E+01  0.40750000338E+03  0.40931349223E+03  0.00000000000E+00 0.  1.
         21    1    1    2  506  502  0.39020452162E+02  0.18746175890E+01 -0.44543567632E+03  0.44714544794E+03  0.00000000000E+00 0. -1.
<scales pt_clust_3="14000.00000" pt_clust_4="134.90745" pt_clust_5="38.48743" pt_clust_6="39.04584"></scales>
<clustering>
<clus scale="   38.487">  1  5  2 -1</clus>
<clus scale="   39.046">  2  6  1 -1</clus>
<clus scale="  134.907">  1  4  2 -1</clus>
<clus scale="   38.487">  1  3  2 -1</clus>
</clustering>
</event>
<event>
 6    0  0.6687079E+002  0.1073337E+03  0.7546771E-02  0.1265589E+00
         21   -1    0    0  505  501  0.00000000000E+00  0.00000000000E+00  0.65401543254E+03  0.65401543254E+03  0.00000000000E+00 0. -1.
         21   -1    0    0  503  502 -0.00000000000E+00 -0.00000000000E+00 -0.30616894872E+03  0.30616894872E+03  0.00000000000E+00 0. -1.
         21    1    1    2  503  506  0.51897621209E+02  0.12557664567E+02 -0.38089952274E+02  0.65588889995E+02  0.00000000000E+00 0. -1.
         21    1    1    2  504  502 -0.32880497632E+02 -0.61684260151E+01 -0.19406516427E+03  0.19692756177E+03  0.00000000000E+00 0. -1.
         21    1    1    2  505  504 -0.67250779160E+02 -0.67817593746E+02  0.60742763878E+03  0.61489042086E+03  0.00000000000E+00 0. -1.
         21    1    1    2  506  501  0.48233655582E+02  0.61428355193E+02 -0.27426038416E+02  0.82777508635E+02  0.00000000000E+00 0. -1.
<scales pt_clust_3="35.50529" pt_clust_4="33.45410" pt_clust_5="96.43900" pt_clust_6="35.50529"></scales>
<clustering>
<clus scale="   33.454">  2  4  1 -1</clus>
<clus scale="   35.505">  3  6 -1 -1</clus>
<clus scale="   96.439">  1  5  2 -1</clus>
<clus scale="   96.439">  1  3  2 -1</clus>
</clustering>
</event>
<event>
 6    0  0.6687079E+002  0.6756700E+03  0.7546771E-02  0.9759769E-01
         21   -1    0    0  502  501  0.00000000000E+00  0.00000000000E+00  0.39363708513E+03  0.39363708513E+03  0.00000000000E+00 0. -1.
         21   -1    0    0  503  502 -0.00000000000E+00 -0.00000000000E+00 -0.22827119962E+04  0.22827119962E+04  0.00000000000E+00 0.  1.
         21    1    1    2  503  506 -0.23316016577E+02 -0.33206691315E+02 -0.26405109923E+03  0.26715033967E+03  0.00000000000E+00 0.  1.
         21    1    1    2  504  501 -0.65533494527E+03 -0.43732890394E+02 -0.17506821787E+02  0.65702583283E+03  0.00000000000E+00 0. -1.
         21    1    1    2  505  504  0.68196530620E+02  0.62803007808E+01 -0.77884390948E+02  0.10371204038E+03  0.00000000000E+00 0. -1.
         21    1    1    2  506  505  0.61045443123E+03  0.70659280929E+02 -0.15296325991E+04  0.16484608684E+04  0.00000000000E+00 0.  1.
<scales pt_clust_3="40.57488" pt_clust_4="661.07319" pt_clust_5="47.03405" pt_clust_6="47.03405"></scales>
<clustering>
<clus scale="   40.575">  2  3  1 -1</clus>
<clus scale="   47.034">  5  6 -1 -1</clus>
<clus scale="  661.073">  1  4  2 -1</clus>
<clus scale="  661.073">  1  3  2 -1</clus>
</clustering>
</event>
<event>
 6    0  0.6687079E+002  0.1762291E+03  0.7546771E-02  0.1171503E+00
         21   -1    0    0  504  501  0.00000000000E+00  0.00000000000E+00  0.11808441227E+03  0.11808441227E+03  0.00000000000E+00 0. -1.
         21   -1    0    0  506  502 -0.00000000000E+00 -0.00000000000E+00 -0.12936385132E+04  0.12936385132E+04  0.00000000000E+00 0.  1.
         21    1    1    2  503  502  0.94594603224E+02 -0.83368950299E+02 -0.76632543976E+03  0.77662938423E+03  0.00000000000E+00 0.  1.
         21    1    1    2  504  503  0.17296363689E+02 -0.59857639010E+02 -0.26060891937E+03  0.26795355941E+03  0.00000000000E+00 0.  1.
         21    1    1    2  505  501 -0.40212866261E+02  0.29735417738E+02  0.84468373206E+02  0.98164024740E+02  0.00000000000E+00 0. -1.
         21    1    1    2  506  505 -0.71678100652E+02  0.11349117157E+03 -0.23308811504E+03  0.26897595713E+03  0.00000000000E+00 0. -1.
<scales pt_clust_3="41.74099" pt_clust_4="41.74099" pt_clust_5="50.01270" pt_clust_6="165.92402"></scales>
<clustering>
<clus scale="   41.741">  3  4 -1 -1</clus>
<clus scale="   50.013">  1  5  2 -1</clus>
<clus scale="  165.924">  1  6  2 -1</clus>
<clus scale="   50.013">  1  3  2 -1</clus>
</clustering>
</event>
<event>
 6    0  0.6687079E+002  0.1891029E+03  0.7546771E-02  0.1159273E+00
         21   -1    0    0  504  501  0.00000000000E+00  0.00000000000E+00  0.60983087902E+03  0.60983087902E+03  0.00000000000E+00 0.  1.
         21   -1    0    0  505  502 -0.00000000000E+00 -0.00000000000E+00 -0.16216359702E+03  0.16216359702E+03  0.00000000000E+00 0.  1.
         21    1    1    2  503  502  0.13064327520E+03 -0.26056862412E+02  0.59426694370E+02  0.14587034461E+03  0.00000000000E+00 0.  1.
         21    1    1    2  504  506 -0.16967600047E+02  0.31732322837E+02  0.36243691401E+03  0.36421883038E+03  0.00000000000E+00 0.  1.
         21    1    1    2  505  501 -0.15285158466E+03  0.54839239811E+02 -0.36707236601E+02  0.16648834906E+03  0.00000000000E+00 0.  1.
         21    1    1    2  506  503  0.39175909506E+02 -0.60514700236E+02  0.62510910226E+02  0.95416951993E+02  0.00000000000E+00 0.  1.
<scales pt_clust_3="58.50973" pt_clust_4="35.98388" pt_clust_5="169.53561" pt_clust_6="58.50973"></scales>
<clustering>
<clus scale="   35.984">  1  4  2 -1</clus>
<clus scale="   58.510">  3  6 -1 -1</clus>
<clus scale="  169.536">  2  5  1 -1</clus>
<clus scale="   35.984">  1  3  2 -1</clus>
</clustering>
</event>
<event>
 6    0  0.6687079E+002  0.1791809E+03  0.7546771E-02  0.1168598E+00
         21   -1    0    0  505  501  0.00000000000E+00  0.00000000000E+00  0.42275388267E+03  0.42275388267E+03  0.00000000000E+00 0.  1.
         21   -1    0    0  504  502 -0.00000000000E+00 -0.00000000000E+00 -0.41093487886E+03  0.41093487886E+03  0.00000000000E+00 0.  1.
         21    1    1    2  503  502 -0.16689802007E+03 -0.61301316639E+02 -0.13214915050E+03  0.22153148422E+03  0.00000000000E+00 0.  1.
         21    1    1    2  504  501 -0.15528884408E+02  0.39019733240E+02 -0.79707708051E+02  0.90094420225E+02  0.00000000000E+00 0. -1.
         21    1    1    2  505  506  0.10839771787E+02 -0.33600156626E+02  0.31696014201E+03  0.31892037063E+03  0.00000000000E+00 0.  1.
         21    1    1    2  506  503  0.17158713269E+03  0.55881740025E+02 -0.93284279653E+02  0.20314248646E+03  0.00000000000E+00 0.  1.
<scales pt_clust_3="179.18091" pt_clust_4="40.25099" pt_clust_5="35.30540" pt_clust_6="14000.00000"></scales>
<clustering>
<clus scale="   35.305">  1  5  2 -1</clus>
<clus scale="   40.251">  2  4  1 -1</clus>
<clus scale="  179.181">  2  3  1 -1</clus>
<clus scale="   35.305">  1  3  2 -1</clus>
</clustering>
</event>
<event>
 6    0  0.6687079E+002  0.1194346E+03  0.7546771E-02  0.1244033E+00
         21   -1    0    0  502  501  0.00000000000E+00  0.00000000000E+00  0.47650169953E+02  0.47650169953E+02  0.00000000000E+00 0.  1.
         21   -1    0    0  505  502 -0.00000000000E+00 -0.00000000000E+00 -0.11509427517E+04  0.11509427517E+04  0.00000000000E+00 0.  1.
         21    1    1    2  503  501  0.30231538107E+02 -0.10737149111E+03 -0.32778441571E+02  0.11626267342E+03  0.00000000000E+00 0.  1.
         21    1    1    2  504  506 -0.35360181239E+02  0.67608049452E+02 -0.66835593827E+03  0.67269670059E+03  0.00000000000E+00 0.  1.
         21    1    1    2  505  504  0.35010660546E+02  0.15087992167E+02 -0.23256505666E+03  0.23566904642E+03  0.00000000000E+00 0.  1.
         21    1    1    2  506  503 -0.29882017415E+02  0.24675449486E+02 -0.16959314525E+03  0.17396450123E+03  0.00000000000E+00 0.  1.
<scales pt_clust_3="111.17954" pt_clust_4="31.09598" pt_clust_5="38.12340" pt_clust_6="31.09598"></scales>
<clustering>
<clus scale="   31.096">  4  6 -1 -1</clus>
<clus scale="   38.123">  2  5  1 -1</clus>
<clus scale="  111.180">  1  3  2 -1</clus>
<clus scale="  111.180">  1  3  2 -1</clus>
</clustering>
</event>
<event>
 6    0  0.6687079E+002  0.9200921E+02  0.7546771E-02  0.1298058E+00
         21   -1    0    0  505  501  0.00000000000E+00  0.00000000000E+00  0.91318695761E+03  0.91318695761E+03  0.00000000000E+00 0.  1.
         21   -1    0    0  504  502 -0.00000000000E+00 -0.00000000000E+00 -0.12191574465E+03  0.12191574465E+03  0.00000000000E+00 0. -1.
         21    1    1    2  503  502  0.69338589454E+02  0.47834658869E+01 -0.38318486221E+02  0.79366415565E+02  0.00000000000E+00 0. -1.
         21    1    1    2  504  501 -0.51671898741E+02 -0.23047491550E+02 -0.11593949962E+02  0.57754581308E+02  0.00000000000E+00 0. -1.
         21    1    1    2  505  506 -0.55419223076E+02  0.76429603311E+02  0.82008290677E+03  0.82549909057E+03  0.00000000000E+00 0.  1.
         21    1    1    2  506  503  0.37752532363E+02 -0.58165577648E+02  0.21100742367E+02  0.72482614822E+02  0.00000000000E+00 0. -1.
<scales pt_clust_3="36.12709" pt_clust_4="56.57890" pt_clust_5="92.00921" pt_clust_6="14000.00000"></scales>
<clustering>
<clus scale="   56.579">  2  4  1 -1</clus>
<clus scale="   36.127">  2  3  1 -1</clus>
<clus scale="   92.009">  1  5  2 -1</clus>
<clus scale="   92.009">  1  3  2 -1</clus>
</clustering>
</event>
<event>
 6    0  0.6687079E+002  0.1631959E+03  0.7546771E-02  0.1185135E+00
         21   -1    0    0  503  501  0.00000000000E+00  0.00000000000E+00  0.60002461496E+02  0.60002461496E+02  0.00000000000E+00 0. -1.
         21   -1    0    0  505  502 -0.00000000000E+00 -0.00000000000E+00 -0.11543497495E+04  0.11543497495E+04  0.00000000000E+00 0. -1.
         21    1    1    2  503  504 -0.14168056981E+03  0.63365332559E+02 -0.33730199335E+03  0.37129662529E+03  0.00000000000E+00 0. -1.
         21    1    1    2  504  502  0.28219300847E+02  0.35269480527E+02 -0.77093893713E+02  0.89351741141E+02  0.00000000000E+00 0. -1.
         21    1    1    2  505  506 -0.29717582016E+02 -0.10652785584E+02 -0.52238646727E+03  0.52333950520E+03  0.00000000000E+00 0. -1.
         21    1    1    2  506  501  0.14317885098E+03 -0.87982027502E+02 -0.15756493370E+03  0.23036433940E+03  0.00000000000E+00 0. -1.
<scales pt_clust_3="163.19592" pt_clust_4="41.68339" pt_clust_5="31.56923" pt_clust_6="14000.00000"></scales>
<clustering>
<clus scale="   31.569">  2  5  1 -1</clus>
<clus scale="   41.683">  2  4  1 -1</clus>
<clus scale="  163.196">  2  3  1 -1</clus>
<clus scale="  163.196">  1  3  2 -1</clus>
</clustering>
</event>
<event>
 6    0  0.6687079E+002  0.1123936E+03  0.7546771E-02  0.1256200E+00
         21   -1    0    0  503  501  0.00000000000E+00  0.00000000000E+00  0.18445621599E+03  0.18445621599E+03  0.00000000000E+00 0.  1.
         21   -1    0    0  506  502 -0.00000000000E+00 -0.00000000000E+00 -0.13551357214E+04  0.13551357214E+04  0.00000000000E+00 0. -1.
         21    1    1    2  503  502  0.29162462641E+02  0.79031990747E+01  0.88694721589E+02  0.93699858168E+02  0.00000000000E+00 0.  1.
         21    1    1    2  504  505 -0.31686067157E+02 -0.75756790147E+02 -0.15588075861E+03  0.17618714201E+03  0.00000000000E+00 0. -1.
         21    1    1    2  505  501  0.31228577838E+02  0.10137492675E+03  0.48661586546E+02  0.11670496927E+03  0.00000000000E+00 0.  1.
         21    1    1    2  506  504 -0.28704973322E+02 -0.33521335680E+02 -0.11521550550E+04  0.11529999680E+04  0.00000000000E+00 0. -1.
<scales pt_clust_3="30.21440" pt_clust_4="112.39359" pt_clust_5="14000.00000" pt_clust_6="44.01920"></scales>
<clustering>
<clus scale="   30.214">  1  3  2 -1</clus>
<clus scale="   44.019">  2  6  1 -1</clus>
<clus scale="  112.394">  2  4  1 -1</clus>
<clus scale="   30.214">  1  3  2 -1</clus>
</clustering>
</event>
<event>
 6    0  0.6687079E+002  0.1118185E+03  0.7546771E-02  0.1257239E+00
         21   -1    0    0  504  501  0.00000000000E+00  0.00000000000E+00  0.65443080980E+02  0.65443080980E+02  0.00000000000E+00 0. -1.
         21   -1    0    0  506  502 -0.00000000000E+00 -0.00000000000E+00 -0.49350034621E+03  0.49350034621E+03  0.00000000000E+00 0.  1.
         21    1    1    2  503  501  0.77885007528E+02 -0.88854718202E+02 -0.70839515923E+02  0.13776600582E+03  0.00000000000E+00 0. -1.
         21    1    1    2  504  505 -0.57647838488E+02 -0.42807312709E+02 -0.77992581863E+02  0.10601217916E+03  0.00000000000E+00 0.  1.
         21    1    1    2  505  502 -0.24492473267E+02  0.19935197124E+02 -0.89959060368E+02  0.95341102749E+02  0.00000000000E+00 0.  1.
         21    1    1    2  506  503  0.42553042275E+01  0.11172683379E+03 -0.18926610708E+03  0.21982413946E+03  0.00000000000E+00 0.  1.
<scales pt_clust_3="14000.00000" pt_clust_4="73.92346" pt_clust_5="31.57995" pt_clust_6="111.81852"></scales>
<clustering>
<clus scale="   31.580">  2  5  1 -1</clus>
<clus scale="   73.923">  1  4  2 -1</clus>
<clus scale="  111.819">  2  6  1 -1</clus>
<clus scale="   73.923">  1  3  2 -1</clus>
</clustering>
</event>
<event>
 6    0  0.6687079E+002  0.9932921E+02  0.7546771E-02  0.1281713E+00
         21   -1    0    0  503  501  0.00000000000E+00  0.00000000000E+00  0.44698744979E+03  0.44698744979E+03  0.00000000000E+00 0.  1.
         21   -1    0    0  501  502 -0.00000000000E+00 -0.00000000000E+00 -0.11390624153E+03  0.11390624153E+03  0.00000000000E+00 0.  1.
         21    1    1    2  503  505 -0.33954400500E+02 -0.27923247555E+02  0.20211825626E+03  0.20684389907E+03  0.00000000000E+00 0.  1.
         21    1    1    2  504  506  0.85482645521E+01  0.73966600374E+02 -0.23332644869E+01  0.74495469130E+02  0.00000000000E+00 0.  1.
         21    1    1    2  505  504  0.98520881305E+01 -0.92052649095E+02  0.18607298577E+03  0.20783144584E+03  0.00000000000E+00 0.  1.
         21    1    1    2  506  502  0.15554047817E+02  0.46009296276E+02 -0.52776769294E+02  0.71722877273E+02  0.00000000000E+00 0.  1.
<scales pt_clust_3="43.96145" pt_clust_4="99.32921" pt_clust_5="14000.00000" pt_clust_6="47.11795"></scales>
<clustering>
<clus scale="   43.961">  1  3  2 -1</clus>
<clus scale="   47.118">  2  6  1 -1</clus>
<clus scale="   99.329">  2  4  1 -1</clus>
<clus scale="   43.961">  1  3  2 -1</clus>
</clustering>
</event>
<event>
 6    0  0.6687079E+002  0.2327214E+03  0.7546771E-02  0.1124739E+00
         21   -1    0    0  503  501  0.00000000000E+00  0.00000000000E+00  0.70022259040E+03  0.70022259040E+03  0.00000000000E+00 0. -1.
         21   -1    0    0  505  502 -0.00000000000E+00 -0.00000000000E+00 -0.15870948127E+03  0.15870948127E+03  0.00000000000E+00 0. -1.
         21    1    1    2  503  504 -0.16137405497E+03  0.16605246978E+03  0.46507926732E+03  0.51953222540E+03  0.00000000000E+00 0. -1.
         21    1    1    2  504  502 -0.19152893465E+02  0.33450019875E+02  0.15189810702E+02  0.41430272831E+02  0.00000000000E+00 0. -1.
         21    1    1    2  505  506 -0.34027044139E+01 -0.47815635217E+02  0.32314903497E+02  0.57811472534E+02  0.00000000000E+00 0. -1.
         21    1    1    2  506  501  0.18392965285E+03 -0.15168685444E+03  0.28929127610E+02  0.24015810091E+03  0.00000000000E+00 0. -1.
<scales pt_clust_3="14000.00000" pt_clust_4="38.54526" pt_clust_5="45.17316" pt_clust_6="232.72142"></scales>
<clustering>
<clus scale="   38.545">  2  4  1 -1</clus>
<clus scale="   45.173">  2  5  1 -1</clus>
<clus scale="  232.721">  2  6  1 -1</clus>
<clus scale="  232.721">  1  3  2 -1</clus>
</clustering>
</event>
<event>
 6    0  0.6687079E+002  0.2302966E+03  0.7546771E-02  0.1126431E+00
         21   -1    0    0  506  501  0.00000000000E+00  0.00000000000E+00  0.11862199262E+04  0.11862199262E+04  0.00000000000E+00 0. -1.
         21   -1    0    0  505  502 -0.00000000000E+00 -0.00000000000E+00 -0.51462039485E+03  0.51462039485E+03  0.00000000000E+00 0.  1.
         21    1    1    2  503  501  0.62708979297E+02  0.20621529815E+03 -0.20275452265E+03  0.29591647763E+03  0.00000000000E+00 0.  1.
         21    1    1    2  504  502 -0.14262477135E+03 -0.22172310224E+03 -0.12330783233E+03  0.29104601180E+03  0.00000000000E+00 0.  1.
         21    1    1    2  505  503  0.26728959459E+02 -0.14875911420E+02 -0.53127484462E+02  0.61304645987E+02  0.00000000000E+00 0. -1.
         21    1    1    2  506  504  0.53186832597E+02  0.30383715508E+02  0.10507893708E+04  0.10525731856E+04  0.00000000000E+00 0. -1.
<scales pt_clust_3="14000.00000" pt_clust_4="230.29663" pt_clust_5="30.58970" pt_clust_6="61.28454"></scales>
<clustering>
<clus scale="   30.590">  2  5  1 -1</clus>
<clus scale="   61.285">  1  6  2 -1</clus>
<clus scale="  230.297">  1  4  2 -1</clus>
<clus scale="   61.285">  1  3  2 -1</clus>
</clustering>
</event>
<event>
 6    0  0.6687079E+002  0.1525168E+03  0.7546771E-02  0.1197414E+00
         21   -1    0    0  505  501  0.00000000000E+00  0.00000000000E+00  0.14576358792E+03  0.14576358792E+03  0.00000000000E+00 0. -1.
         21   -1    0    0  504  502 -0.00000000000E+00 -0.00000000000E+00 -0.53799373272E+03  0.53799373272E+03  0.00000000000E+00 0.  1.
         21    1    1    2  503  501 -0.12677733334E+03 -0.65164434890E+02  0.83684363422E+02  0.16529358277E+03  0.00000000000E+00 0. -1.
         21    1    1    2  504  503  0.25004239271E+02 -0.39719737888E+02 -0.14764500210E+03  0.15492551825E+03  0.00000000000E+00 0.  1.
         21    1    1    2  505  506  0.96408802293E+01  0.33349521350E+02 -0.42472860750E+02  0.54855091342E+02  0.00000000000E+00 0. -1.
         21    1    1    2  506  502  0.92132213836E+02  0.71534651428E+02 -0.28579664537E+03  0.30868312829E+03  0.00000000000E+00 0.  1.
<scales pt_clust_3="142.19941" pt_clust_4="46.93474" pt_clust_5="30.08278" pt_clust_6="30.08278"></scales>
<clustering>
<clus scale="   30.083">  5  6 -1 -1</clus>
<clus scale="   46.935">  2  4  1 -1</clus>
<clus scale="  142.199">  1  3  2 -1</clus>
<clus scale="  142.199">  1  3  2 -1</clus>
</clustering>
</event>
<event>
 6    0  0.6687079E+002  0.9485774E+02  0.7546771E-02  0.1291497E+00
         21   -1    0    0  504  501  0.00000000000E+00  0.00000000000E+00  0.26045524428E+03  0.26045524428E+03  0.00000000000E+00 0. -1.
         21   -1    0    0  503  502 -0.00000000000E+00 -0.00000000000E+00 -0.96845316981E+03  0.96845316981E+03  0.00000000000E+00 0.  1.
         21    1    1    2  503  506 -0.40852880755E+02  0.14102552637E+03  0.54289086846E+02  0.15653901080E+03  0.00000000000E+00 0. -1.
         21    1    1    2  504  505  0.33629876817E+01 -0.45093928115E+02 -0.88509239697E+01  0.46077227500E+02  0.00000000000E+00 0. -1.
         21    1    1    2  505  502 -0.32401799734E+01 -0.59198661093E+02 -0.88331746329E+03  0.88530487471E+03  0.00000000000E+00 0.  1.
         21    1    1    2  506  501  0.40730073047E+02 -0.36732937159E+02  0.12988137488E+03  0.14098730107E+03  0.00000000000E+00 0. -1.
<scales pt_clust_3="14000.00000" pt_clust_4="45.21916" pt_clust_5="59.47153" pt_clust_6="94.85774"></scales>
<clustering>
<clus scale="   45.219">  1  4  2 -1</clus>
<clus scale="   59.472">  2  5  1 -1</clus>
<clus scale="   94.858">  1  6  2 -1</clus>
<clus scale="   45.219">  1  3  2 -1</clus>
</clustering>
</event>
<event>
 6    0  0.6687079E+002  0.1019583E+03  0.7546771E-02  0.1276231E+00
         21   -1    0    0  506  501  0.00000000000E+00  0.00000000000E+00  0.40528871772E+03  0.40528871772E+03  0.00000000000E+00 0. -1.
         21   -1    0    0  503  502 -0.00000000000E+00 -0.00000000000E+00 -0.28868793842E+03  0.28868793842E+03  0.00000000000E+00 0. -1.
         21    1    1    2  503  504  0.67285581941E+02 -0.25541766719E+02 -0.14164547184E+03  0.15888099659E+03  0.00000000000E+00 0. -1.
         21    1    1    2  504  501  0.40598362058E+02 -0.81127118700E+02  0.29298555893E+03  0.30670894042E+03  0.00000000000E+00 0. -1.
         21    1    1    2  505  502  0.34723475255E+02  0.53386860460E+02 -0.41477156253E+02  0.76001520343E+02  0.00000000000E+00 0. -1.
         21    1    1    2  506  505 -0.14260741925E+03  0.53282024958E+02  0.67378484616E+01  0.15238519879E+03  0.00000000000E+00 0. -1.
<scales pt_clust_3="101.95830" pt_clust_4="89.77248" pt_clust_5="63.68576" pt_clust_6="14000.00000"></scales>
<clustering>
<clus scale="   63.686">  2  5  1 -1</clus>
<clus scale="   89.772">  1  4  2 -1</clus>
<clus scale="  101.958">  2  3  1 -1</clus>
<clus scale="   89.772">  1  3  2 -1</clus>
</clustering>
</event>
<event>
 6    0  0.6687079E+002  0.2089793E+03  0.7546771E-02  0.1142377E+00
         21   -1    0    0  503  501  0.00000000000E+00  0.00000000000E+00  0.83618017929E+02  0.83618017929E+02  0.00000000000E+00 0.  1.
         21   -1    0    0  505  502 -0.00000000000E+00 -0.00000000000E+00 -0.13238449145E+04  0.13238449145E+04  0.00000000000E+00 0.  1.
         21    1    1    2  503  506 -0.19472043696E+02  0.40689717044E+02  0.42503042249E+02  0.61978400748E+02  0.00000000000E+00 0.  1.
         21    1    1    2  504  501  0.54609720943E+02 -0.15955948605E+03 -0.65673166980E+03  0.67803977562E+03  0.00000000000E+00 0.  1.
         21    1    1    2  505  504 -0.25371328799E+02 -0.52954966892E+02 -0.18303417131E+03  0.19222237307E+03  0.00000000000E+00 0. -1.
         21    1    1    2  506  502 -0.97663484475E+01  0.17182473590E+03 -0.44296409775E+03  0.47522238302E+03  0.00000000000E+00 0.  1.
<scales pt_clust_3="45.10891" pt_clust_4="46.80650" pt_clust_5="46.80650" pt_clust_6="193.75269"></scales>
<clustering>
<clus scale="   45.109">  1  3  2 -1</clus>
<clus scale="   46.807">  4  5 -1 -1</clus>
<clus scale="  193.753">  1  6  2 -1</clus>
<clus scale="   45.109">  1  3  2 -1</clus>
</clustering>
</event>
<event>
 6    0  0.6687079E+002  0.7247512E+02  0.7546771E-02  0.1351873E+00
         21   -1    0    0  506  501  0.00000000000E+00  0.00000000000E+00  0.38334872584E+02  0.38334872584E+02  0.00000000000E+00 0. -1.
         21   -1    0    0  505  502 -0.00000000000E+00 -0.00000000000E+00 -0.19825146174E+04  0.19825146174E+04  0.00000000000E+00 0.  1.
         21    1    1    2  503  502  0.22367501744E+02  0.23876261081E+02 -0.69630187596E+03  0.69707007069E+03  0.00000000000E+00 0.  1.
         21    1    1    2  504  501 -0.60749656755E+02 -0.42321014692E+02 -0.95118838032E+01  0.74646265907E+02  0.00000000000E+00 0. -1.
         21    1    1    2  505  504  0.27410694688E+01  0.84645652909E+02 -0.52106588500E+03  0.52790345380E+03  0.00000000000E+00 0.  1.
         21    1    1    2  506  503  0.35641085542E+02 -0.66200899298E+02 -0.71730010009E+03  0.72122969963E+03  0.00000000000E+00 0.  1.
<scales pt_clust_3="32.71668" pt_clust_4="72.47512" pt_clust_5="14000.00000" pt_clust_6="71.49341"></scales>
<clustering>
<clus scale="   32.717">  2  3  1 -1</clus>
<clus scale="   71.493">  2  6  1 -1</clus>
<clus scale="   72.475">  1  4  2 -1</clus>
<clus scale="   72.475">  1  3  2 -1</clus>
</clustering>
</event>
<event>
 6    0  0.6687079E+002  0.1198439E+03  0.7546771E-02  0.1243355E+00
         21   -1    0    0  506  501  0.00000000000E+00  0.00000000000E+00  0.20095679790E+04  0.20095679790E+04  0.00000000000E+00 0. -1.
         21   -1    0    0  505  502 -0.00000000000E+00 -0.00000000000E+00 -0.14683093249E+03  0.14683093249E+03  0.00000000000E+00 0. -1.
         21    1    1    2  503  501  0.63816554799E+02 -0.92277596033E+02  0.12649956509E+04  0.12699613003E+04  0.00000000000E+00 0. -1.
         21    1    1    2  504  502  0.35170865642E+02 -0.24622032184E+02 -0.12345905677E+03  0.13071102845E+03  0.00000000000E+00 0. -1.
         21    1    1    2  505  503 -0.47743253531E+02 -0.23578044386E+02  0.72136573060E+02  0.89660624622E+02  0.00000000000E+00 0. -1.
         21    1    1    2  506  504 -0.51244166910E+02  0.14047767260E+03  0.64906387927E+03  0.66606595808E+03  0.00000000000E+00 0. -1.
<scales pt_clust_3="14000.00000" pt_clust_4="42.93290" pt_clust_5="47.15158" pt_clust_6="119.84387"></scales>
<clustering>
<clus scale="   42.933">  2  4  1 -1</clus>
<clus scale="   47.152">  2  5  1 -1</clus>
<clus scale="  119.844">  2  6  1 -1</clus>
<clus scale="  119.844">  1  3  2 -1</clus>
</clustering>
</event>
<event>
 6    0  0.6687079E+002  0.8758233E+02  0.7546771E-02  0.1308814E+00
         21   -1    0    0  505  501  0.00000000000E+00  0.00000000000E+00  0.11198751917E+04  0.11198751917E+04  0.00000000000E+00 0.  1.
         21   -1    0    0  503  502 -0.00000000000E+00 -0.00000000000E+00 -0.24801916126E+03  0.24801916126E+03  0.00000000000E+00 0.  1.
         21    1    1    2  503  506  0.14779737579E+02  0.81229880557E+02  0.31239554296E+03  0.32312181821E+03  0.00000000000E+00 0.  1.
         21    1    1    2  504  502 -0.62481235019E+02 -0.62095745909E+02 -0.22660509031E+03  0.24312476909E+03  0.00000000000E+00 0.  1.
         21    1    1    2  505  504  0.25708485013E+02 -0.42054207101E+02  0.74233023302E+02  0.89106813910E+02  0.00000000000E+00 0.  1.
         21    1    1    2  506  501  0.21993012427E+02  0.22920072452E+02  0.71183255449E+03  0.71254095177E+03  0.00000000000E+00 0.  1.
<scales pt_clust_3="87.58233" pt_clust_4="14000.00000" pt_clust_5="48.06584" pt_clust_6="31.76511"></scales>
<clustering>
<clus scale="   31.765">  1  6  2 -1</clus>
<clus scale="   48.066">  1  5  2 -1</clus>
<clus scale="   87.582">  1  3  2 -1</clus>
<clus scale="   31.765">  1  3  2 -1</clus>
</clustering>
</event>
<event>
 6    0  0.6687079E+002  0.1073249E+03  0.7546771E-02  0.1265605E+00
         21   -1    0    0  503  501  0.00000000000E+00  0.00000000000E+00  0.43288649432E+03  0.43288649432E+03  0.00000000000E+00 0. -1.
         21   -1    0    0  505  502 -0.00000000000E+00 -0.00000000000E+00 -0.11602003263E+03  0.11602003263E+03  0.00000000000E+00 0. -1.
         21    1    1    2  503  504 -0.92474554175E+02  0.41678503165E+02  0.27192370088E+03  0.29022601519E+03  0.00000000000E+00 0. -1.
         21    1    1    2  504  506 -0.29443988741E+02 -0.15470780815E+02  0.55156121244E+02  0.64408782341E+02  0.00000000000E+00 0. -1.
         21    1    1    2  505  501  0.34065789403E+02 -0.11799395185E+02  0.67222880507E+02  0.76279875446E+02  0.00000000000E+00 0. -1.
         21    1    1    2  506  502  0.87852753513E+02 -0.14408327166E+02 -0.77436240940E+02  0.11799185397E+03  0.00000000000E+00 0. -1.
<scales pt_clust_3="32.56303" pt_clust_4="32.56303" pt_clust_5="36.05140" pt_clust_6="91.02190"></scales>
<clustering>
<clus scale="   32.563">  3  4 -1 -1</clus>
<clus scale="   36.051">  1  5  2 -1</clus>
<clus scale="   91.022">  2  6  1 -1</clus>
<clus scale="   36.051">  1  3  2 -1</clus>
</clustering>
</event>
<event>
 6    0  0.6687079E+002  0.9763412E+02  0.7546771E-02  0.1285351E+00
         21   -1    0    0  504  501  0.00000000000E+00  0.00000000000E+00  0.87357598969E+03  0.87357598969E+03  0.00000000000E+00 0. -1.
         21   -1    0    0  505  502 -0.00000000000E+00 -0.00000000000E+00 -0.14924608121E+03  0.14924608121E+03  0.00000000000E+00 0.  1.
         21    1    1    2  503  501  0.18066811497E+02  0.25021413246E+02  0.86156864697E+02  0.91517682078E+02  0.00000000000E+00 0. -1.
         21    1    1    2  504  506  0.74257282733E+02  0.10347955490E+02  0.70445046731E+03  0.70842902617E+03  0.00000000000E+00 0. -1.
         21    1    1    2  505  503  0.14175316547E+02  0.44029852012E+02  0.33183344595E+02  0.56927162461E+02  0.00000000000E+00 0. -1.
         21    1    1    2  506  502 -0.10649941078E+03 -0.79399220747E+02 -0.99460768124E+02  0.16594820019E+03  0.00000000000E+00 0.  1.
<scales pt_clust_3="30.86229" pt_clust_4="97.63412" pt_clust_5="47.94393" pt_clust_6="14000.00000"></scales>
<clustering>
<clus scale="   30.862">  1  3  2 -1</clus>
<clus scale="   47.944">  2  5  1 -1</clus>
<clus scale="   97.634">  1  4  2 -1</clus>
<clus scale="   30.862">  1  3  2 -1</clus>
</clustering>
</event>
<event>
 6    0  0.6687079E+002  0.2002759E+03  0.7546771E-02  0.1149506E+00
         21   -1    0    0  502  501  0.00000000000E+00  0.00000000000E+00  0.87335325963E+03  0.87335325963E+03  0.00000000000E+00 0.  1.
         21   -1    0    0  504  502 -0.00000000000E+00 -0.00000000000E+00 -0.15867002644E+04  0.15867002644E+04  0.00000000000E+00 0.  1.
         21    1    1    2  503  505 -0.67512203723E+02  0.67951412049E+02 -0.78658293697E+02  0.12394522669E+03  0.00000000000E+00 0. -1.
         21    1    1    2  504  503  0.18650251842E+03 -0.37502155469E+02 -0.13850628325E+04  0.13980660396E+04  0.00000000000E+00 0.  1.
         21    1    1    2  505  506 -0.85123254943E+02 -0.34538142828E+01 -0.73810557332E+02  0.11272043177E+03  0.00000000000E+00 0. -1.
         21    1    1    2  506  501 -0.33867059754E+02 -0.26995442298E+02  0.82418467880E+03  0.82532182596E+03  0.00000000000E+00 0.  1.
<scales pt_clust_3="72.73068" pt_clust_4="186.55852" pt_clust_5="72.73068" pt_clust_6="43.30972"></scales>
<clustering>
<clus scale="   43.310">  1  6  2 -1</clus>
<clus scale="   72.731">  3  5 -1 -1</clus>
<clus scale="  186.559">  2  4  1 -1</clus>
<clus scale="   43.310">  1  3  2 -1</clus>
</clustering>
</event>
<event>
 6    0  0.6687079E+002  0.1214704E+03  0.7546771E-02  0.1240691E+00
         21   -1    0    0  502  501  0.00000000000E+00  0.00000000000E+00  0.52446962370E+03  0.52446962370E+03  0.00000000000E+00 0. -1.
         21   -1    0    0  506  502 -0.00000000000E+00 -0.00000000000E+00 -0.54170067275E+02  0.54170067275E+02  0.00000000000E+00 0.  1.
         21    1    1    2  503  504 -0.27553657617E+02 -0.71224661926E+02  0.41449791072E+02  0.86892126769E+02  0.00000000000E+00 0.  1.
         21    1    1    2  504  501  0.67553204691E+02  0.90572678120E+02  0.33374812672E+03  0.35235586781E+03  0.00000000000E+00 0. -1.
         21    1    1    2  505  503 -0.89424213600E+01 -0.52294430041E+02  0.69308718818E+02  0.87283290596E+02  0.00000000000E+00 0.  1.
         21    1    1    2  506  505 -0.31057125714E+02  0.32946413848E+02  0.25792919813E+02  0.52108405804E+02  0.00000000000E+00 0.  1.
<scales pt_clust_3="32.07252" pt_clust_4="115.21437" pt_clust_5="32.07252" pt_clust_6="45.27705"></scales>
<clustering>
<clus scale="   32.073">  3  5 -1 -1</clus>
<clus scale="   45.277">  2  6  1 -1</clus>
<clus scale="  115.214">  1  4  2 -1</clus>
<clus scale="  115.214">  1  3  2 -1</clus>
</clustering>
</event>
<event>
 6    0  0.6687079E+002  0.1560181E+03  0.7546771E-02  0.1193267E+00
         21   -1    0    0  502  501  0.00000000000E+00  0.00000000000E+00  0.48377925565E+02  0.48377925565E+02  0.00000000000E+00 0.  1.
         21   -1    0    0  506  502 -0.00000000000E+00 -0.00000000000E+00 -0.13061415954E+04  0.13061415954E+04  0.00000000000E+00 0. -1.
         21    1    1    2  503  501 -0.58850704916E+02 -0.83001699170E+02 -0.71820525030E+02  0.12454266478E+03  0.00000000000E+00 0.  1.
         21    1    1    2  504  503 -0.49566588985E+01 -0.60106024472E+02 -0.67359885742E+02  0.90413808970E+02  0.00000000000E+00 0.  1.
         21    1    1    2  505  504  0.39699830168E+02  0.12370048404E+03 -0.40538081548E+03  0.42568943119E+03  0.00000000000E+00 0. -1.
         21    1    1    2  506  505  0.24107533647E+02  0.19407239598E+02 -0.71320244360E+03  0.71387361605E+03  0.00000000000E+00 0. -1.
<scales pt_clust_3="36.84373" pt_clust_4="36.84373" pt_clust_5="148.51853" pt_clust_6="30.94857"></scales>
<clustering>
<clus scale="   30.949">  2  6  1 -1</clus>
<clus scale="   36.844">  3  4 -1 -1</clus>
<clus scale="  148.519">  2  5  1 -1</clus>
<clus scale="  156.018">  1  3  2 -1</clus>
</clustering>
</event>
<event>
 6    0  0.6687079E+002  0.1002655E+03  0.7546771E-02  0.1279739E+00
         21   -1    0    0  504  501  0.00000000000E+00  0.00000000000E+00  0.24713758064E+03  0.24713758064E+03  0.00000000000E+00 0.  1.
         21   -1    0    0  503  502 -0.00000000000E+00 -0.00000000000E+00 -0.84674333312E+03  0.84674333312E+03  0.00000000000E+00 0.  1.
         21    1    1    2  503  506 -0.75054311491E+02  0.57399685696E+02 -0.43142755972E+03  0.44165327224E+03  0.00000000000E+00 0.  1.
         21    1    1    2  504  505  0.15262193640E+02 -0.74332054263E+02 -0.47513063703E+01  0.76031334053E+02  0.00000000000E+00 0.  1.
         21    1    1    2  505  502  0.11459621965E+02  0.31629517228E+02 -0.36593707947E+03  0.36748019732E+03  0.00000000000E+00 0.  1.
         21    1    1    2  506  501  0.48332495886E+02 -0.14697148661E+02  0.20251019308E+03  0.20871611015E+03  0.00000000000E+00 0.  1.
<scales pt_clust_3="100.26554" pt_clust_4="14000.00000" pt_clust_5="33.64148" pt_clust_6="50.52954"></scales>
<clustering>
<clus scale="   33.641">  2  5  1 -1</clus>
<clus scale="   50.530">  1  6  2 -1</clus>
<clus scale="  100.266">  2  3  1 -1</clus>
<clus scale="   50.530">  1  3  2 -1</clus>
</clustering>
</event>
<event>
 6    0  0.6687079E+002  0.8103983E+02  0.7546771E-02  0.1326126E+00
         21   -1    0    0  503  501  0.00000000000E+00  0.00000000000E+00  0.50243870792E+03  0.50243870792E+03  0.00000000000E+00 0.  1.
         21   -1    0    0  506  502 -0.00000000000E+00 -0.00000000000E+00 -0.56083509216E+03  0.56083509216E+03  0.00000000000E+00 0.  1.
         21    1    1    2  503  504 -0.41382546152E+02  0.10858843198E+03  0.38922139256E+03  0.40619854149E+03  0.00000000000E+00 0.  1.
         21    1    1    2  504  502 -0.22303294034E+02 -0.58305058321E+02 -0.14740826317E+01  0.62442691087E+02  0.00000000000E+00 0.  1.
         21    1    1    2  505  501  0.35312668346E+02 -0.22307289387E+02  0.67536686034E+02  0.79409090575E+02  0.00000000000E+00 0.  1.
         21    1    1    2  506  505  0.28373171840E+02 -0.27976084268E+02 -0.51368038020E+03  0.51522347692E+03  0.00000000000E+00 0.  1.
<scales pt_clust_3="81.03983" pt_clust_4="14000.00000" pt_clust_5="46.76326" pt_clust_6="39.84593"></scales>
<clustering>
<clus scale="   39.846">  2  6  1 -1</clus>
<clus scale="   46.763">  1  5  2 -1</clus>
<clus scale="   81.040">  1  3  2 -1</clus>
<clus scale="   46.763">  1  3  2 -1</clus>
</clustering>
</event>
<event>
 6    0  0.6687079E+002  0.8282792E+02  0.7546771E-02  0.1321212E+00
         21   -1    0    0  503  501  0.00000000000E+00  0.00000000000E+00  0.19174383162E+03  0.19174383162E+03  0.00000000000E+00 0. -1.
         21   -1    0    0  506  502 -0.00000000000E+00 -0.00000000000E+00 -0.31758030723E+03  0.31758030723E+03  0.00000000000E+00 0. -1.
         21    1    1    2  503  505  0.50775582399E+02  0.22437376991E+02  0.12647562818E+03  0.13812197573E+03  0.00000000000E+00 0. -1.
         21    1    1    2  504  502 -0.97069263258E+02  0.42834092128E+02 -0.19019636437E+03  0.21778856337E+03  0.00000000000E+00 0. -1.
         21    1    1    2  505  504  0.53013130997E+02  0.16858347188E+02 -0.11814074492E+02  0.56869748409E+02  0.00000000000E+00 0. -1.
         21    1    1    2  506  501 -0.67194501381E+01 -0.82129816307E+02 -0.50301664937E+02  0.96543851343E+02  0.00000000000E+00 0. -1.
<scales pt_clust_3="55.51212" pt_clust_4="82.82792" pt_clust_5="14000.00000" pt_clust_6="74.55029"></scales>
<clustering>
<clus scale="   55.512">  1  3  2 -1</clus>
<clus scale="   74.550">  1  6  2 -1</clus>
<clus scale="   82.828">  2  4  1 -1</clus>
<clus scale="   55.512">  1  3  2 -1</clus>
</clustering>
</event>
<event>
 6    0  0.6687079E+002  0.1123217E+03  0.7546771E-02  0.1256330E+00
         21   -1    0    0  503  501  0.00000000000E+00  0.00000000000E+00  0.33228318629E+03  0.33228318629E+03  0.00000000000E+00 0. -1.
         21   -1    0    0  506  502 -0.00000000000E+00 -0.00000000000E+00 -0.10171387337E+03  0.10171387337E+03  0.00000000000E+00 0. -1.
         21    1    1    2  503  505 -0.26485168582E+02 -0.55396740198E+02  0.19806395045E+02  0.64517875539E+02  0.00000000000E+00 0. -1.
         21    1    1    2  504  502 -0.26755928247E+02  0.58109818509E+02 -0.18110989113E+02  0.66487883334E+02  0.00000000000E+00 0. -1.
         21    1    1    2  505  504 -0.51256762471E+02 -0.23017733628E+02  0.66422600132E+01  0.56579071913E+02  0.00000000000E+00 0. -1.
         21    1    1    2  506  501  0.10449785930E+03  0.20304655316E+02  0.22223164697E+03  0.24641222888E+03  0.00000000000E+00 0. -1.
<scales pt_clust_3="40.27143" pt_clust_4="63.97367" pt_clust_5="40.27143" pt_clust_6="104.13383"></scales>
<clustering>
<clus scale="   40.271">  3  5 -1 -1</clus>
<clus scale="   63.974">  2  4  1 -1</clus>
<clus scale="  104.134">  1  6  2 -1</clus>
<clus scale="  104.134">  1  3  2 -1</clus>
</clustering>
</event>
<event>
 6    0  0.6687079E+002  0.7198472E+02  0.7546771E-02  0.1353471E+00
         21   -1    0    0  504  501  0.00000000000E+00  0.00000000000E+00  0.72884632712E+03  0.72884632712E+03  0.00000000000E+00 0.  1.
         21   -1    0    0  506  502 -0.00000000000E+00 -0.00000000000E+00 -0.67638025581E+03  0.67638025581E+03  0.00000000000E+00 0.  1.
         21    1    1    2  503  502  0.39046345372E+02  0.61789174398E+01 -0.11024256557E+03  0.11711626433E+03  0.00000000000E+00 0. -1.
         21    1    1    2  504  503 -0.68478200447E+02 -0.11734513747E+02  0.70724998782E+03  0.71065428164E+03  0.00000000000E+00 0.  1.
         21    1    1    2  505  501  0.11154326032E+02  0.72525889461E+02 -0.83260277045E+02  0.11098061707E+03  0.00000000000E+00 0. -1.
         21    1    1    2  506  505  0.18277529043E+02 -0.66970293154E+02 -0.46128107388E+03  0.46647541988E+03  0.00000000000E+00 0.  1.
<scales pt_clust_3="39.53222" pt_clust_4="69.35677" pt_clust_5="71.98472" pt_clust_6="14000.00000"></scales>
<clustering>
<clus scale="   39.532">  2  3  1 -1</clus>
<clus scale="   69.357">  1  4  2 -1</clus>
<clus scale="   71.985">  1  5  2 -1</clus>
<clus scale="   69.357">  1  3  2 -1</clus>
</clustering>
</event>
<event>
 6    0  0.6687079E+002  0.4199797E+03  0.7546771E-02  0.1037073E+00
         21   -1    0    0  503  501  0.00000000000E+00  0.00000000000E+00  0.12468751069E+03  0.12468751069E+03  0.00000000000E+00 0. -1.
         21   -1    0    0  506  502 -0.00000000000E+00 -0.00000000000E+00 -0.27556377524E+04  0.27556377524E+04  0.00000000000E+00 0. -1.
         21    1    1    2  503  502 -0.18980993198E+03 -0.31937990926E+03 -0.30415812493E+03  0.48014945765E+03  0.00000000000E+00 0. -1.
         21    1    1    2  504  505  0.88851478592E+02  0.24147777919E+03 -0.10982131995E+04  0.11279531615E+04  0.00000000000E+00 0. -1.
         21    1    1    2  505  501  0.95711822007E+01 -0.37200211803E+02 -0.37352305195E+01  0.38592942799E+02  0.00000000000E+00 0. -1.
         21    1    1    2  506  504  0.91387271188E+02  0.11510234188E+03 -0.12248436868E+04  0.12336297011E+04  0.00000000000E+00 0. -1.
<scales pt_clust_3="394.38311" pt_clust_4="109.69958" pt_clust_5="38.41176" pt_clust_6="109.69958"></scales>
<clustering>
<clus scale="   38.412">  1  5  2 -1</clus>
<clus scale="  109.700">  4  6 -1 -1</clus>
<clus scale="  394.383">  1  3  2 -1</clus>
<clus scale="   38.412">  1  3  2 -1</clus>
</clustering>
</event>
<event>
 6    0  0.6687079E+002  0.8426528E+02  0.7546771E-02  0.1317365E+00
         21   -1    0    0  504  501  0.00000000000E+00  0.00000000000E+00  0.25606754280E+03  0.25606754280E+03  0.00000000000E+00 0. -1.
         21   -1    0    0  505  502 -0.00000000000E+00 -0.00000000000E+00 -0.48098108745E+03  0.48098108745E+03  0.00000000000E+00 0. -1.
         21    1    1    2  503  502 -0.26916969508E+02  0.18989399379E+02 -0.19612855223E+02  0.38337770231E+02  0.00000000000E+00 0. -1.
         21    1    1    2  504  503  0.59271840937E+02  0.68232661130E+02 -0.30832187810E+03  0.32129616818E+03  0.00000000000E+00 0. -1.
         21    1    1    2  505  506  0.10222480666E+02 -0.87442582775E+02 -0.12085738417E+03  0.14952328147E+03  0.00000000000E+00 0. -1.
         21    1    1    2  506  501 -0.42577352095E+02  0.22052226701E+00  0.22387857284E+03  0.22789141037E+03  0.00000000000E+00 0. -1.
<scales pt_clust_3="32.94117" pt_clust_4="14000.00000" pt_clust_5="84.26528" pt_clust_6="42.69792"></scales>
<clustering>
<clus scale="   32.941">  2  3  1 -1</clus>
<clus scale="   42.698">  1  6  2 -1</clus>
<clus scale="   84.265">  1  5  2 -1</clus>
<clus scale="   42.698">  1  3  2 -1</clus>
</clustering>
</event>
<event>
 6    0  0.6687079E+002  0.1748785E+03  0.7546771E-02  0.1172854E+00
         21   -1    0    0  503  501  0.00000000000E+00  0.00000000000E+00  0.75797082129E+03  0.75797082129E+03  0.00000000000E+00 0. -1.
         21   -1    0    0  506  502 -0.00000000000E+00 -0.00000000000E+00 -0.16102719600E+03  0.16102719600E+03  0.00000000000E+00 0. -1.
         21    1    1    2  503  505 -0.15535197442E+03 -0.37771253744E+02  0.52977523028E+03  0.55337392257E+03  0.00000000000E+00 0. -1.
         21    1    1    2  504  501  0.54089957208E+02 -0.91699572670E+01  0.26028441690E+02  0.60723071100E+02  0.00000000000E+00 0.  1.
         21    1    1    2  505  502 -0.24271092262E+02  0.13138498745E+03  0.70070819569E+02  0.15086755980E+03  0.00000000000E+00 0. -1.
         21    1    1    2  506  504  0.12553310948E+03 -0.84443776434E+02 -0.28930866239E+02  0.15403346381E+03  0.00000000000E+00 0. -1.
<scales pt_clust_3="159.68251" pt_clust_4="42.93664" pt_clust_5="133.60801" pt_clust_6="42.93664"></scales>
<clustering>
<clus scale="   42.937">  4  6 -1 -1</clus>
<clus scale="  133.608">  2  5  1 -1</clus>
<clus scale="  159.683">  1  3  2 -1</clus>
<clus scale="  159.683">  1  3  2 -1</clus>
</clustering>
</event>
<event>
 6    0  0.6687079E+002  0.1725539E+03  0.7546771E-02  0.1175210E+00
         21   -1    0    0  504  501  0.00000000000E+00  0.00000000000E+00  0.15257449841E+04  0.15257449841E+04  0.00000000000E+00 0.  1.
         21   -1    0    0  503  502 -0.00000000000E+00 -0.00000000000E+00 -0.15231815155E+04  0.15231815155E+04  0.00000000000E+00 0. -1.
         21    1    1    2  503  505 -0.15639526859E+02 -0.28945485179E+02 -0.13374373720E+04  0.13378419787E+04  0.00000000000E+00 0. -1.
         21    1    1    2  504  502  0.79837248220E+01 -0.14578356125E+03 -0.99987608106E+02  0.17695792824E+03  0.00000000000E+00 0. -1.
         21    1    1    2  505  506 -0.16087543441E+02  0.19976531569E+03  0.16756011941E+03  0.26123051893E+03  0.00000000000E+00 0. -1.
         21    1    1    2  506  501  0.23743345478E+02 -0.25036269258E+02  0.12724283293E+04  0.12728960737E+04  0.00000000000E+00 0.  1.
<scales pt_clust_3="32.90039" pt_clust_4="172.55391" pt_clust_5="14000.00000" pt_clust_6="34.51744"></scales>
<clustering>
<clus scale="   32.900">  2  3  1 -1</clus>
<clus scale="   34.517">  1  6  2 -1</clus>
<clus scale="  172.554">  2  4  1 -1</clus>
<clus scale="   34.517">  1  3  2 -1</clus>
</clustering>
</event>
<event>
 6    0  0.6687079E+002  0.1271333E+03  0.7546771E-02  0.1231773E+00
         21   -1    0    0  505  501  0.00000000000E+00  0.00000000000E+00  0.40917553565E+03  0.40917553565E+03  0.00000000000E+00 0. -1.
         21   -1    0    0  504  502 -0.00000000000E+00 -0.00000000000E+00 -0.18161285023E+03  0.18161285023E+03  0.00000000000E+00 0.  1.
         21    1    1    2  503  501 -0.75067639144E+02  0.16185848075E+02  0.12408548505E+03  0.14592580212E+03  0.00000000000E+00 0. -1.
         21    1    1    2  504  503 -0.94547384926E+02 -0.22824964377E+02 -0.11971269338E+03  0.15424433848E+03  0.00000000000E+00 0.  1.
         21    1    1    2  505  506  0.48405646041E+02  0.11903286812E+01  0.16886025210E+02  0.51280223268E+02  0.00000000000E+00 0.  1.
         21    1    1    2  506  502  0.12120937803E+03  0.54487876210E+01  0.20630386854E+03  0.23933802202E+03  0.00000000000E+00 0. -1.
<scales pt_clust_3="76.79279" pt_clust_4="101.64136" pt_clust_5="48.24268" pt_clust_6="48.24268"></scales>
<clustering>
<clus scale="   48.243">  5  6 -1 -1</clus>
<clus scale="   76.793">  1  3  2 -1</clus>
<clus scale="  101.641">  2  4  1 -1</clus>
<clus scale="   76.793">  1  3  2 -1</clus>
</clustering>
</event>
<event>
 6    0  0.6687079E+002  0.1472730E+03  0.7546771E-02  0.1203865E+00
         21   -1    0    0  503  501  0.00000000000E+00  0.00000000000E+00  0.12591280122E+04  0.12591280122E+04  0.00000000000E+00 0.  1.
         21   -1    0    0  505  502 -0.00000000000E+00 -0.00000000000E+00 -0.24353321140E+03  0.24353321140E+03  0.00000000000E+00 0.  1.
         21    1    1    2  503  502  0.65398708181E+02 -0.70476168765E+02  0.11743935584E+04  0.11783225838E+04  0.00000000000E+00 0.  1.
         21    1    1    2  504  506 -0.20794800144E+02  0.54128445156E+02 -0.10650237405E+03  0.12126445467E+03  0.00000000000E+00 0.  1.
         21    1    1    2  505  504 -0.81722157465E+02  0.31984433419E+02 -0.10493421081E+03  0.13679438439E+03  0.00000000000E+00 0.  1.
         21    1    1    2  506  501  0.37118249428E+02 -0.15636709809E+02  0.52637827298E+02  0.66279800822E+02  0.00000000000E+00 0. -1.
<scales pt_clust_3="133.13736" pt_clust_4="51.25714" pt_clust_5="51.25714" pt_clust_6="40.27743"></scales>
<clustering>
<clus scale="   40.277">  1  6  2 -1</clus>
<clus scale="   51.257">  4  5 -1 -1</clus>
<clus scale="  133.137">  1  3  2 -1</clus>
<clus scale="   40.277">  1  3  2 -1</clus>
</clustering>
</event>
<event>
 6    0  0.6687079E+002  0.7469469E+02  0.7546771E-02  0.1344819E+00
         21   -1    0    0  505  501  0.00000000000E+00  0.00000000000E+00  0.86439839530E+03  0.86439839530E+03  0.00000000000E+00 0. -1.
         21   -1    0    0  506  502 -0.00000000000E+00 -0.00000000000E+00 -0.22553593606E+03  0.22553593606E+03  0.00000000000E+00 0.  1.
         21    1    1    2  503  504 -0.82159315084E+02 -0.51871377276E+02  0.79345083323E+02  0.12544494842E+03  0.00000000000E+00 0. -1.
         21    1    1    2  504  502  0.60983505486E+02 -0.36628584446E+02 -0.22526393203E+02  0.74619565334E+02  0.00000000000E+00 0. -1.
         21    1    1    2  505  503  0.33453814838E+01  0.38165443599E+02  0.73080822152E+03  0.73181175810E+03  0.00000000000E+00 0. -1.
         21    1    1    2  506  501  0.17830428114E+02  0.50334518123E+02 -0.14876445239E+03  0.15805805951E+03  0.00000000000E+00 0.  1.
<scales pt_clust_3="14000.00000" pt_clust_4="74.69469" pt_clust_5="38.31178" pt_clust_6="54.69542"></scales>
<clustering>
<clus scale="   38.312">  1  5  2 -1</clus>
<clus scale="   54.695">  2  6  1 -1</clus>
<clus scale="   74.695">  2  4  1 -1</clus>
<clus scale="   38.312">  1  3  2 -1</clus>
</clustering>
</event>
<event>
 6    0  0.6687079E+002  0.2911516E+03  0.7546771E-02  0.1089749E+00
         21   -1    0    0  505  501  0.00000000000E+00  0.00000000000E+00  0.30566828874E+03  0.30566828874E+03  0.00000000000E+00 0.  1.
         21   -1    0    0  503  502 -0.00000000000E+00 -0.00000000000E+00 -0.11540236283E+04  0.11540236283E+04  0.00000000000E+00 0.  1.
         21    1    1    2  503  504  0.11751214050E+03  0.38116492960E+02 -0.11208066618E+03  0.16680541337E+03  0.00000000000E+00 0.  1.
         21    1    1    2  504  501 -0.39430320307E+02 -0.31178971034E+03 -0.80968828764E+03  0.86854055563E+03  0.00000000000E+00 0.  1.
         21    1    1    2  505  506  0.60868478779E+02 -0.61475191062E+01  0.92992622502E+02  0.11131213564E+03  0.00000000000E+00 0. -1.
         21    1    1    2  506  502 -0.13895029897E+03  0.27982073649E+03 -0.19579008267E+02  0.31303381242E+03  0.00000000000E+00 0.  1.
<scales pt_clust_3="131.11055" pt_clust_4="14000.00000" pt_clust_5="61.17813" pt_clust_6="291.15163"></scales>
<clustering>
<clus scale="   61.178">  1  5  2 -1</clus>
<clus scale="  131.111">  2  3  1 -1</clus>
<clus scale="  291.152">  1  6  2 -1</clus>
<clus scale="   61.178">  1  3  2 -1</clus>
</clustering>
</event>
<event>
 6    0  0.6687079E+002  0.1545692E+03  0.7546771E-02  0.1194968E+00
         21   -1    0    0  506  501  0.00000000000E+00  0.00000000000E+00  0.17882912176E+03  0.17882912176E+03  0.00000000000E+00 0.  1.
         21   -1    0    0  504  502 -0.00000000000E+00 -0.00000000000E+00 -0.29640508644E+03  0.29640508644E+03  0.00000000000E+00 0.  1.
         21    1    1    2  503  502 -0.12357678874E+03 -0.13533256414E+02 -0.19560453267E+02  0.12584507570E+03  0.00000000000E+00 0.  1.
         21    1    1    2  504  505  0.78739077848E+02 -0.40318654558E+01 -0.90935182875E+02  0.12035491599E+03  0.00000000000E+00 0.  1.
         21    1    1    2  505  501  0.80764103425E+02  0.40266808435E+02 -0.95215606602E+02  0.13118791104E+03  0.00000000000E+00 0.  1.
         21    1    1    2  506  503 -0.35926392530E+02 -0.22701686566E+02  0.88135278060E+02  0.97846305458E+02  0.00000000000E+00 0.  1.
<scales pt_clust_3="148.40550" pt_clust_4="40.39151" pt_clust_5="40.39151" pt_clust_6="42.49791"></scales>
<clustering>
<clus scale="   40.392">  4  5 -1 -1</clus>
<clus scale="   42.498">  1  6  2 -1</clus>
<clus scale="  148.405">  1  3  2 -1</clus>
<clus scale="   42.498">  1  3  2 -1</clus>
</clustering>
</event>
<event>
 6    0  0.6687079E+002  0.1792401E+03  0.7546771E-02  0.1168540E+00
         21   -1    0    0  504  501  0.00000000000E+00  0.00000000000E+00  0.64330659035E+03  0.64330659035E+03  0.00000000000E+00 0.  1.
         21   -1    0    0  503  502 -0.00000000000E+00 -0.00000000000E+00 -0.12445629035E+04  0.12445629035E+04  0.00000000000E+00 0.  1.
         21    1    1    2  503  501  0.35405109114E+02 -0.38005028824E+01  0.33812796521E+02  0.49104692058E+02  0.00000000000E+00 0. -1.
         21    1    1    2  504  505 -0.16205940914E+02 -0.33467179637E+02  0.36888414062E+03  0.37075354865E+03  0.00000000000E+00 0.  1.
         21    1    1    2  505  506 -0.38708236360E+02 -0.14192238915E+03  0.20131732562E+03  0.24933703635E+03  0.00000000000E+00 0.  1.
         21    1    1    2  506  502  0.19509068160E+02  0.17919007167E+03 -0.12052705759E+04  0.12186742168E+04  0.00000000000E+00 0.  1.
<scales pt_clust_3="35.60850" pt_clust_4="36.23003" pt_clust_5="14000.00000" pt_clust_6="179.24012"></scales>
<clustering>
<clus scale="   35.609">  1  3  2 -1</clus>
<clus scale="   36.230">  1  4  2 -1</clus>
<clus scale="  179.240">  2  6  1 -1</clus>
<clus scale="   35.609">  1  3  2 -1</clus>
</clustering>
</event>
<event>
 6    0  0.6687079E+002  0.1848626E+03  0.7546771E-02  0.1163178E+00
         21   -1    0    0  506  501  0.00000000000E+00  0.00000000000E+00  0.21707234212E+03  0.21707234212E+03  0.00000000000E+00 0. -1.
         21   -1    0    0  501  502 -0.00000000000E+00 -0.00000000000E+00 -0.42507377824E+03  0.42507377824E+03  0.00000000000E+00 0. -1.
         21    1    1    2  503  505  0.36218816618E+02 -0.12532427682E+02 -0.54191722844E+02  0.66374748555E+02  0.00000000000E+00 0. -1.
         21    1    1    2  504  503 -0.73334595922E+02 -0.62164556254E+01  0.29628781221E+02  0.79337708287E+02  0.00000000000E+00 0. -1.
         21    1    1    2  505  502  0.12174995082E+03  0.77980350205E+02 -0.30462408801E+03  0.33719403989E+03  0.00000000000E+00 0. -1.
         21    1    1    2  506  504 -0.84634171518E+02 -0.59231466898E+02  0.12118559351E+03  0.15923962363E+03  0.00000000000E+00 0. -1.
<scales pt_clust_3="35.97172" pt_clust_4="59.30504" pt_clust_5="184.71324" pt_clust_6="59.30504"></scales>
<clustering>
<clus scale="   35.972">  3  5 -1 -1</clus>
<clus scale="   59.305">  4  6 -1 -1</clus>
<clus scale="  184.713">  2  3  1 -1</clus>
<clus scale="  184.863">  1  3  2 -1</clus>
</clustering>
</event>
<event>
 6    0  0.6687079E+002  0.1241840E+03  0.7546771E-02  0.1236350E+00
         21   -1    0    0  506  501  0.00000000000E+00  0.00000000000E+00  0.11462039217E+03  0.11462039217E+03  0.00000000000E+00 0.  1.
         21   -1    0    0  503  502 -0.00000000000E+00 -0.00000000000E+00 -0.12545943082E+04  0.12545943082E+04  0.00000000000E+00 0. -1.
         21    1    1    2  503  505 -0.36043707391E+02  0.16772433681E+02 -0.15497064827E+03  0.15998864085E+03  0.00000000000E+00 0. -1.
         21    1    1    2  504  501  0.87358372091E+02  0.90700885892E+02  0.67398859249E+02  0.14283116643E+03  0.00000000000E+00 0.  1.
         21    1    1    2  505  504  0.18266582870E+02 -0.58057839251E+02 -0.18390726994E+03  0.19371697056E+03  0.00000000000E+00 0. -1.
         21    1    1    2  506  502 -0.69581247570E+02 -0.49415480322E+02 -0.86849485706E+03  0.87267792252E+03  0.00000000000E+00 0. -1.
<scales pt_clust_3="39.75504" pt_clust_4="14000.00000" pt_clust_5="56.47480" pt_clust_6="124.18400"></scales>
<clustering>
<clus scale="   39.755">  2  3  1 -1</clus>
<clus scale="   56.475">  2  5  1 -1</clus>
<clus scale="  124.184">  2  6  1 -1</clus>
<clus scale="  124.184">  1  3  2 -1</clus>
</clustering>
</event>
<event>
 6    0  0.6687079E+002  0.7866879E+02  0.7546771E-02  0.1332872E+00
         21   -1    0    0  504  501  0.00000000000E+00  0.00000000000E+00  0.15113642172E+04  0.15113642172E+04  0.00000000000E+00 0.  1.
         21   -1    0    0  505  502 -0.00000000000E+00 -0.00000000000E+00 -0.13038658558E+04  0.13038658558E+04  0.00000000000E+00 0.  1.
         21    1    1    2  503  501 -0.41637019751E+02 -0.19854217970E+02  0.14786700609E+04  0.14793893944E+04  0.00000000000E+00 0.  1.
         21    1    1    2  504  502 -0.16818403264E+02 -0.70051223019E+02 -0.79150239706E+03  0.79477423026E+03  0.00000000000E+00 0.  1.
         21    1    1    2  505  506 -0.31997043270E+02  0.11056220748E+02 -0.38950057787E+03  0.39096898976E+03  0.00000000000E+00 0.  1.
         21    1    1    2  506  503  0.90452466284E+02  0.78849220240E+02 -0.90168724561E+02  0.15009745860E+03  0.00000000000E+00 0.  1.
<scales pt_clust_3="46.13792" pt_clust_4="78.66879" pt_clust_5="33.85337" pt_clust_6="14000.00000"></scales>
<clustering>
<clus scale="   33.853">  2  5  1 -1</clus>
<clus scale="   46.138">  1  3  2 -1</clus>
<clus scale="   78.669">  2  4  1 -1</clus>
<clus scale="   46.138">  1  3  2 -1</clus>
</clustering>
</event>
<event>
 6    0  0.6687079E+002  0.1058234E+03  0.7546771E-02  0.1268506E+00
         21   -1    0    0  506  501  0.00000000000E+00  0.00000000000E+00  0.28125269958E+03  0.28125269958E+03  0.00000000000E+00 0. -1.
         21   -1    0    0  505  502 -0.00000000000E+00 -0.00000000000E+00 -0.60185088167E+03  0.60185088167E+03  0.00000000000E+00 0. -1.
         21    1    1    2  503  501 -0.30839831931E+02  0.12086305758E+02  0.23420322819E+03  0.23653398511E+03  0.00000000000E+00 0. -1.
         21    1    1    2  504  503 -0.78423218675E+02  0.17099625485E+02 -0.17244738596E+02  0.82097377718E+02  0.00000000000E+00 0. -1.
         21    1    1    2  505  504  0.11214037678E+03 -0.59753630451E+02 -0.50035327097E+03  0.51623575644E+03  0.00000000000E+00 0. -1.
         21    1    1    2  506  502 -0.28773261700E+01  0.30567699208E+02 -0.37203400701E+02  0.48236461981E+02  0.00000000000E+00 0. -1.
<scales pt_clust_3="33.15250" pt_clust_4="105.82341" pt_clust_5="14000.00000" pt_clust_6="30.70282"></scales>
<clustering>
<clus scale="   30.703">  2  6  1 -1</clus>
<clus scale="   33.152">  1  3  2 -1</clus>
<clus scale="  105.823">  1  4  2 -1</clus>
<clus scale="   33.152">  1  3  2 -1</clus>
</clustering>
</event>
<event>
 6    0  0.6687079E+002  0.1285528E+03  0.7546771E-02  0.1229619E+00
         21   -1    0    0  506  501  0.00000000000E+00  0.00000000000E+00  0.13836242147E+03  0.13836242147E+03  0.00000000000E+00 0. -1.
         21   -1    0    0  505  502 -0.00000000000E+00 -0.00000000000E+00 -0.37889165377E+03  0.37889165377E+03  0.00000000000E+00 0.  1.
         21    1    1    2  503  501  0.97072250128E+02 -0.80067053135E+02 -0.62356247878E+02  0.14043523914E+03  0.00000000000E+00 0.  1.
         21    1    1    2  504  503 -0.91205369226E+00  0.34342326959E+02 -0.15330743008E+02  0.37619927486E+02  0.00000000000E+00 0.  1.
         21    1    1    2  505  504  0.30430880634E+02  0.50327069395E+01 -0.19901908644E+03  0.20139504315E+03  0.00000000000E+00 0.  1.
         21    1    1    2  506  502 -0.12659107707E+03  0.40692019237E+02  0.36176845031E+02  0.13780386547E+03  0.00000000000E+00 0. -1.
<scales pt_clust_3="128.55285" pt_clust_4="35.27188" pt_clust_5="30.84423" pt_clust_6="14000.00000"></scales>
<clustering>
<clus scale="   30.844">  2  5  1 -1</clus>
<clus scale="   35.272">  2  4  1 -1</clus>
<clus scale="  128.553">  2  3  1 -1</clus>
<clus scale="  128.553">  1  3  2 -1</clus>
</clustering>
</event>
<event>
 6    0  0.6687079E+002  0.2116458E+03  0.7546771E-02  0.1140269E+00
         21   -1    0    0  506  501  0.00000000000E+00  0.00000000000E+00  0.34514189909E+03  0.34514189909E+03  0.00000000000E+00 0. -1.
         21   -1    0    0  503  502 -0.00000000000E+00 -0.00000000000E+00 -0.20171754865E+03  0.20171754865E+03  0.00000000000E+00 0. -1.
         21    1    1    2  503  501  0.16799514332E+03 -0.12887906533E+03  0.76614004393E+02  0.22517079591E+03  0.00000000000E+00 0. -1.
         21    1    1    2  504  502 -0.32228743894E+02  0.61403952206E+01 -0.70927153327E+02  0.78147664492E+02  0.00000000000E+00 0. -1.
         21    1    1    2  505  504 -0.50064597375E+02  0.19783602589E+01  0.18459216346E+02  0.53395884558E+02  0.00000000000E+00 0. -1.
         21    1    1    2  506  505 -0.85701802051E+02  0.12076030985E+03  0.11927828302E+03  0.19014510278E+03  0.00000000000E+00 0. -1.
<scales pt_clust_3="194.80926" pt_clust_4="32.80848" pt_clust_5="49.11324" pt_clust_6="49.11324"></scales>
<clustering>
<clus scale="   32.808">  2  4  1 -1</clus>
<clus scale="   49.113">  5  6 -1 -1</clus>
<clus scale="  194.809">  2  3  1 -1</clus>
<clus scale="  211.646">  1  3  2 -1</clus>
</clustering>
</event>
<event>
 6    0  0.6687079E+002  0.1008099E+03  0.7546771E-02  0.1278602E+00
         21   -1    0    0  503  501  0.00000000000E+00  0.00000000000E+00  0.19104152809E+04  0.19104152809E+04  0.00000000000E+00 0.  1.
         21   -1    0    0  504  502 -0.00000000000E+00 -0.00000000000E+00 -0.79958857891E+02  0.79958857891E+02  0.00000000000E+00 0.  1.
         21    1    1    2  503  505  0.71920819470E+02  0.22092289817E+02  0.16295878052E+04  0.16313237227E+04  0.00000000000E+00 0.  1.
         21    1    1    2  504  506 -0.49672142677E+02  0.53098511371E+02 -0.43593003023E+02  0.84776904759E+02  0.00000000000E+00 0.  1.
         21    1    1    2  505  502 -0.57902508955E+02 -0.41897699522E+02  0.10944413209E+03  0.13071394653E+03  0.00000000000E+00 0. -1.
         21    1    1    2  506  501  0.35653832162E+02 -0.33293101666E+02  0.13501748876E+03  0.14355956477E+03  0.00000000000E+00 0.  1.
<scales pt_clust_3="14000.00000" pt_clust_4="100.80986" pt_clust_5="70.91029" pt_clust_6="48.78141"></scales>
<clustering>
<clus scale="   48.781">  1  6  2 -1</clus>
<clus scale="   70.910">  2  5  1 -1</clus>
<clus scale="  100.810">  2  4  1 -1</clus>
<clus scale="   48.781">  1  3  2 -1</clus>
</clustering>
</event>
<event>
 6    0  0.6687079E+002  0.1595268E+03  0.7546771E-02  0.1189232E+00
         21   -1    0    0  506  501  0.00000000000E+00  0.00000000000E+00  0.27886043796E+03  0.27886043796E+03  0.00000000000E+00 0.  1.
         21   -1    0    0  503  502 -0.00000000000E+00 -0.00000000000E+00 -0.18929145085E+04  0.18929145085E+04  0.00000000000E+00 0.  1.
         21    1    1    2  503  501  0.23071627335E+02  0.38650494675E+02 -0.14592203701E+04  0.14599144665E+04  0.00000000000E+00 0.  1.
         21    1    1    2  504  502 -0.99446219848E+02  0.90048565840E+02 -0.39824158812E+03  0.42023167106E+03  0.00000000000E+00 0. -1.
         21    1    1    2  505  504  0.39187029074E+02 -0.16753100657E+02  0.67668924490E+02  0.79971075839E+02  0.00000000000E+00 0.  1.
         21    1    1    2  506  505  0.37187563439E+02 -0.11194595986E+03  0.17573896321E+03  0.21165773313E+03  0.00000000000E+00 0.  1.
<scales pt_clust_3="45.01290" pt_clust_4="148.47680" pt_clust_5="35.06596" pt_clust_6="35.06596"></scales>
<clustering>
<clus scale="   35.066">  5  6 -1 -1</clus>
<clus scale="   45.013">  2  3  1 -1</clus>
<clus scale="  148.477">  2  4  1 -1</clus>
<clus scale="  159.527">  1  3  2 -1</clus>
</clustering>
</event>
<event>
 6    0  0.6687079E+002  0.1368140E+03  0.7546771E-02  0.1217681E+00
         21   -1    0    0  504  501  0.00000000000E+00  0.00000000000E+00  0.20301318520E+03  0.20301318520E+03  0.00000000000E+00 0.  1.
         21   -1    0    0  505  502 -0.00000000000E+00 -0.00000000000E+00 -0.80530766090E+03  0.80530766090E+03  0.00000000000E+00 0.  1.
         21    1    1    2  503  502 -0.79088908043E+02  0.33200622702E+01 -0.45771029904E+03  0.46450489344E+03  0.00000000000E+00 0.  1.
         21    1    1    2  504  506  0.11850877336E+03  0.74548295062E+02  0.15415362323E+03  0.20824292837E+03  0.00000000000E+00 0.  1.
         21    1    1    2  505  501  0.41585238219E+02 -0.16574518254E+01 -0.79093052161E+02  0.89374437533E+02  0.00000000000E+00 0. -1.
         21    1    1    2  506  503 -0.81005103533E+02 -0.76210905507E+02 -0.21964474773E+03  0.24619858676E+03  0.00000000000E+00 0. -1.
<scales pt_clust_3="52.54489" pt_clust_4="14000.00000" pt_clust_5="41.61826" pt_clust_6="136.81404"></scales>
<clustering>
<clus scale="   41.618">  2  5  1 -1</clus>
<clus scale="   52.545">  2  3  1 -1</clus>
<clus scale="  136.814">  2  6  1 -1</clus>
<clus scale="  136.814">  1  3  2 -1</clus>
</clustering>
</event>
<event>
 6    0  0.6687079E+002  0.1001374E+03  0.7546771E-02  0.1280007E+00
         21   -1    0    0  506  501  0.00000000000E+00  0.00000000000E+00  0.28014372973E+03  0.28014372973E+03  0.00000000000E+00 0.  1.
         21   -1    0    0  503  502 -0.00000000000E+00 -0.00000000000E+00 -0.21992026860E+03  0.21992026860E+03  0.00000000000E+00 0.  1.
         21    1    1    2  503  501 -0.81476900951E+02 -0.12614398592E+03 -0.55147931307E+02  0.15997526340E+03  0.00000000000E+00 0.  1.
         21    1    1    2  504  505  0.38297339321E+02  0.36800135562E+02  0.18312347003E+02  0.56180763872E+02  0.00000000000E+00 0.  1.
         21    1    1    2  505  502  0.57407639909E+02  0.59787111006E+02 -0.73160899118E+02  0.11055610757E+03  0.00000000000E+00 0.  1.
         21    1    1    2  506  504 -0.14228078278E+02  0.29556739347E+02  0.17021994455E+03  0.17335186349E+03  0.00000000000E+00 0.  1.
<scales pt_clust_3="14000.00000" pt_clust_4="57.63013" pt_clust_5="100.13740" pt_clust_6="32.80303"></scales>
<clustering>
<clus scale="   32.803">  1  6  2 -1</clus>
<clus scale="   57.630">  1  4  2 -1</clus>
<clus scale="  100.137">  2  5  1 -1</clus>
<clus scale="   32.803">  1  3  2 -1</clus>
</clustering>
</event>
<event>
 6    0  0.6687079E+002  0.1100600E+03  0.7546771E-02  0.1260459E+00
         21   -1    0    0  505  501  0.00000000000E+00  0.00000000000E+00  0.25245308482E+03  0.25245308482E+03  0.00000000000E+00 0. -1.
         21   -1    0    0  503  502 -0.00000000000E+00 -0.00000000000E+00 -0.23498284235E+03  0.23498284235E+03  0.00000000000E+00 0.  1.
         21    1    1    2  503  501  0.12596538753E+03  0.52092740487E+02  0.59478225300E+02  0.14872320516E+03  0.00000000000E+00 0. -1.
         21    1    1    2  504  502 -0.33401361810E+02 -0.14182895010E+02 -0.16022054771E+03  0.16427851165E+03  0.00000000000E+00 0.  1.
         21    1    1    2  505  506 -0.19804600316E+02  0.24888846954E+02  0.23982544288E+02  0.39835151900E+02  0.00000000000E+00 0.  1.
         21    1    1    2  506  504 -0.72759425408E+02 -0.62798692431E+02  0.94230020596E+02  0.13459905846E+03  0.00000000000E+00 0.  1.
<scales pt_clust_3="110.05996" pt_clust_4="36.36712" pt_clust_5="31.80687" pt_clust_6="14000.00000"></scales>
<clustering>
<clus scale="   31.807">  1  5  2 -1</clus>
<clus scale="   36.367">  2  4  1 -1</clus>
<clus scale="  110.060">  2  3  1 -1</clus>
<clus scale="   31.807">  1  3  2 -1</clus>
</clustering>
</event>
<event>
 6    0  0.6687079E+002  0.8887814E+02  0.7546771E-02  0.1305591E+00
         21   -1    0    0  504  501  0.00000000000E+00  0.00000000000E+00  0.51964488359E+02  0.51964488359E+02  0.00000000000E+00 0. -1.
         21   -1    0    0  505  502 -0.00000000000E+00 -0.00000000000E+00 -0.14037746702E+04  0.14037746702E+04  0.00000000000E+00 0. -1.
         21    1    1    2  503  506 -0.38532811081E+02  0.51121546839E+02 -0.11014308458E+03  0.12739579727E+03  0.00000000000E+00 0. -1.
         21    1    1    2  504  502  0.33409831332E+02  0.64221456521E+02 -0.11087130451E+04  0.11110739079E+04  0.00000000000E+00 0. -1.
         21    1    1    2  505  503 -0.28554829071E+02 -0.16133548492E+02 -0.10330339066E+03  0.10838477832E+03  0.00000000000E+00 0. -1.
         21    1    1    2  506  501  0.33677808820E+02 -0.99209454868E+02 -0.29650661450E+02  0.10888467508E+03  0.00000000000E+00 0. -1.
<scales pt_clust_3="14000.00000" pt_clust_4="51.22069" pt_clust_5="32.79740" pt_clust_6="88.87814"></scales>
<clustering>
<clus scale="   32.797">  2  5  1 -1</clus>
<clus scale="   51.221">  2  4  1 -1</clus>
<clus scale="   88.878">  1  6  2 -1</clus>
<clus scale="   88.878">  1  3  2 -1</clus>
</clustering>
</event>
<event>
 6    0  0.6687079E+002  0.1431022E+03  0.7546771E-02  0.1209215E+00
         21   -1    0    0  502  501  0.00000000000E+00  0.00000000000E+00  0.44119424465E+02  0.44119424465E+02  0.00000000000E+00 0.  1.
         21   -1    0    0  503  502 -0.00000000000E+00 -0.00000000000E+00 -0.10858289399E+04  0.10858289399E+04  0.00000000000E+00 0.  1.
         21    1    1    2  503  506  0.36728393417E+02  0.34713618278E+02 -0.46820688547E+03  0.47092642501E+03  0.00000000000E+00 0.  1.
         21    1    1    2  504  501  0.27741773752E+02 -0.14051771627E+03 -0.11932044435E+03  0.18641942774E+03  0.00000000000E+00 0.  1.
         21    1    1    2  505  504 -0.46610909031E+02  0.38487838666E+02 -0.23309406576E+03  0.24080434809E+03  0.00000000000E+00 0.  1.
         21    1    1    2  506  505 -0.17859258138E+02  0.67316259330E+02 -0.22108811987E+03  0.23179816353E+03  0.00000000000E+00 0.  1.
<scales pt_clust_3="50.53722" pt_clust_4="136.95796" pt_clust_5="38.64602" pt_clust_6="38.64602"></scales>
<clustering>
<clus scale="   38.646">  5  6 -1 -1</clus>
<clus scale="   50.537">  2  3  1 -1</clus>
<clus scale="  136.958">  1  4  2 -1</clus>
<clus scale="  136.958">  1  3  2 -1</clus>
</clustering>
</event>
<event>
 6    0  0.6687079E+002  0.1616771E+03  0.7546771E-02  0.1186816E+00
         21   -1    0    0  504  501  0.00000000000E+00  0.00000000000E+00  0.82992771292E+03  0.82992771292E+03  0.00000000000E+00 0.  1.
         21   -1    0    0  506  502 -0.00000000000E+00 -0.00000000000E+00 -0.98871481961E+02  0.98871481961E+02  0.00000000000E+00 0. -1.
         21    1    1    2  503  505  0.45339554813E+02  0.46383560037E+02  0.18708615313E+03  0.19801095567E+03  0.00000000000E+00 0.  1.
         21    1    1    2  504  503  0.19426042520E+02 -0.29502077308E+02  0.37989495801E+03  0.38153364572E+03  0.00000000000E+00 0. -1.
         21    1    1    2  505  502  0.82533593658E+02  0.38629246457E+02  0.16873978455E+03  0.19177363649E+03  0.00000000000E+00 0.  1.
         21    1    1    2  506  501 -0.14729919099E+03 -0.55510729186E+02 -0.46646647276E+01  0.15748095700E+03  0.00000000000E+00 0. -1.
<scales pt_clust_3="35.20462" pt_clust_4="35.32342" pt_clust_5="35.20462" pt_clust_6="156.19951"></scales>
<clustering>
<clus scale="   35.205">  3  5 -1 -1</clus>
<clus scale="   35.323">  1  4  2 -1</clus>
<clus scale="  156.200">  2  6  1 -1</clus>
<clus scale="   35.323">  1  3  2 -1</clus>
</clustering>
</event>
<event>
 6    0  0.6687079E+002  0.1673068E+03  0.7546771E-02  0.1180686E+00
         21   -1    0    0  505  501  0.00000000000E+00  0.00000000000E+00  0.17511209716E+02  0.17511209716E+02  0.00000000000E+00 0.  1.
         21   -1    0    0  503  502 -0.00000000000E+00 -0.00000000000E+00 -0.19077672708E+04  0.19077672708E+04  0.00000000000E+00 0.  1.
         21    1    1    2  503  504 -0.57791394177E+02  0.14566549564E+02 -0.42989173512E+03  0.43400337963E+03  0.00000000000E+00 0.  1.
         21    1    1    2  504  501 -0.61228924066E+02  0.87769201384E+02 -0.93489572987E+03  0.94100076492E+03  0.00000000000E+00 0.  1.
         21    1    1    2  505  506  0.83876308419E+02 -0.55395552944E+02 -0.26846220061E+03  0.28666331393E+03  0.00000000000E+00 0.  1.
         21    1    1    2  506  502  0.35144009824E+02 -0.46940198003E+02 -0.25700639551E+03  0.26361102205E+03  0.00000000000E+00 0.  1.
<scales pt_clust_3="43.21357" pt_clust_4="43.21357" pt_clust_5="163.35421" pt_clust_6="34.54928"></scales>
<clustering>
<clus scale="   34.549">  5  6 -1 -1</clus>
<clus scale="   43.214">  3  4 -1 -1</clus>
<clus scale="  163.354">  1  5  2 -1</clus>
<clus scale="  163.354">  1  3  2 -1</clus>
</clustering>
</event>
<event>
 6    0  0.6687079E+002  0.1019820E+03  0.7546771E-02  0.1276182E+00
         21   -1    0    0  504  501  0.00000000000E+00  0.00000000000E+00  0.73080924884E+02  0.73080924884E+02  0.00000000000E+00 0. -1.
         21   -1    0    0  503  502 -0.00000000000E+00 -0.00000000000E+00 -0.71606276068E+03  0.71606276068E+03  0.00000000000E+00 0. -1.
         21    1    1    2  503  505  0.18815741835E+02 -0.61610981244E+02 -0.25587242349E+03  0.26385723839E+03  0.00000000000E+00 0. -1.
         21    1    1    2  504  502  0.52756289922E+02  0.60115407098E+02 -0.18365933513E+03  0.20031934424E+03  0.00000000000E+00 0. -1.
         21    1    1    2  505  506 -0.26292604281E+02 -0.45588081884E+02 -0.24298045854E+03  0.24861431472E+03  0.00000000000E+00 0. -1.
         21    1    1    2  506  501 -0.45279427476E+02  0.47083656030E+02  0.39530381360E+02  0.76352788215E+02  0.00000000000E+00 0. -1.
<scales pt_clust_3="42.63753" pt_clust_4="90.41555" pt_clust_5="42.63753" pt_clust_6="65.32302"></scales>
<clustering>
<clus scale="   42.638">  3  5 -1 -1</clus>
<clus scale="   65.323">  1  6  2 -1</clus>
<clus scale="   90.416">  1  4  2 -1</clus>
<clus scale="   65.323">  1  3  2 -1</clus>
</clustering>
</event>
<event>
 6    0  0.6687079E+002  0.1532961E+03  0.7546771E-02  0.1196480E+00
         21   -1    0    0  505  501  0.00000000000E+00  0.00000000000E+00  0.32984041227E+02  0.32984041227E+02  0.00000000000E+00 0.  1.
         21   -1    0    0  501  502 -0.00000000000E+00 -0.00000000000E+00 -0.16082078863E+04  0.16082078863E+04  0.00000000000E+00 0.  1.
         21    1    1    2  503  502 -0.66134034735E+02 -0.67543089388E+02 -0.97230044144E+03  0.97688480790E+03  0.00000000000E+00 0.  1.
         21    1    1    2  504  503 -0.49649558603E+02 -0.39244524923E+02 -0.30875585069E+03  0.31517516834E+03  0.00000000000E+00 0.  1.
         21    1    1    2  505  506  0.81684436005E+02  0.63187976153E+01 -0.13017683132E+03  0.15381248877E+03  0.00000000000E+00 0.  1.
         21    1    1    2  506  504  0.34099157333E+02  0.10046881670E+03 -0.16399072161E+03  0.19531946251E+03  0.00000000000E+00 0.  1.
<scales pt_clust_3="48.43679" pt_clust_4="48.43679" pt_clust_5="81.92847" pt_clust_6="141.40502"></scales>
<clustering>
<clus scale="   48.437">  3  4 -1 -1</clus>
<clus scale="   81.928">  1  5  2 -1</clus>
<clus scale="  141.405">  1  6  2 -1</clus>
<clus scale="   81.928">  1  3  2 -1</clus>
</clustering>
</event>
<event>
 6    0  0.6687079E+002  0.1350251E+03  0.7546771E-02  0.1220184E+00
         21   -1    0    0  504  501  0.00000000000E+00  0.00000000000E+00  0.30866792382E+03  0.30866792382E+03  0.00000000000E+00 0. -1.
         21   -1    0    0  506  502 -0.00000000000E+00 -0.00000000000E+00 -0.84358223857E+03  0.84358223857E+03  0.00000000000E+00 0. -1.
         21    1    1    2  503  505 -0.38602233679E+02 -0.66497041202E+02 -0.25247864141E+03  0.26392698479E+03  0.00000000000E+00 0. -1.
         21    1    1    2  504  503  0.39732953192E+02  0.72000105145E+00  0.28681125083E+03  0.28955123825E+03  0.00000000000E+00 0. -1.
         21    1    1    2  505  502  0.15599215958E+02 -0.58321611995E+02 -0.19496374102E+03  0.20409705112E+03  0.00000000000E+00 0. -1.
         21    1    1    2  506  501 -0.16729935471E+02  0.12409865215E+03 -0.37428318315E+03  0.39467488823E+03  0.00000000000E+00 0. -1.
<scales pt_clust_3="49.01503" pt_clust_4="39.73948" pt_clust_5="49.01503" pt_clust_6="124.49421"></scales>
<clustering>
<clus scale="   39.739">  1  4  2 -1</clus>
<clus scale="   49.015">  3  5 -1 -1</clus>
<clus scale="  124.494">  1  6  2 -1</clus>
<clus scale="   39.739">  1  3  2 -1</clus>
</clustering>
</event>
<event>
 6    0  0.6687079E+002  0.1606021E+03  0.7546771E-02  0.1188019E+00
         21   -1    0    0  504  501  0.00000000000E+00  0.00000000000E+00  0.66694560299E+02  0.66694560299E+02  0.00000000000E+00 0.  1.
         21   -1    0    0  503  502 -0.00000000000E+00 -0.00000000000E+00 -0.84875777444E+03  0.84875777444E+03  0.00000000000E+00 0.  1.
         21    1    1    2  503  506 -0.52092017568E+02  0.49646865764E+01 -0.39044906993E+02  0.65289594647E+02  0.00000000000E+00 0.  1.
         21    1    1    2  504  505  0.35100772113E+02  0.93543922333E+01 -0.32360534177E+02  0.48649491562E+02  0.00000000000E+00 0.  1.
         21    1    1    2  505  502  0.10105278163E+03 -0.10618427311E+03 -0.64360429999E+03  0.66008579707E+03  0.00000000000E+00 0.  1.
         21    1    1    2  506  501 -0.84061536170E+02  0.91865194303E+02 -0.67053472983E+02  0.14142745146E+03  0.00000000000E+00 0.  1.
<scales pt_clust_3="37.13165" pt_clust_4="36.32587" pt_clust_5="149.10321" pt_clust_6="37.13165"></scales>
<clustering>
<clus scale="   36.326">  1  4  2 -1</clus>
<clus scale="   37.132">  3  6 -1 -1</clus>
<clus scale="  149.103">  2  5  1 -1</clus>
<clus scale="   36.326">  1  3  2 -1</clus>
</clustering>
</event>
<event>
 6    0  0.6687079E+002  0.1178134E+03  0.7546771E-02  0.1246749E+00
         21   -1    0    0  504  501  0.00000000000E+00  0.00000000000E+00  0.46600728335E+02  0.46600728335E+02  0.00000000000E+00 0.  1.
         21   -1    0    0  505  502 -0.00000000000E+00 -0.00000000000E+00 -0.18305492828E+04  0.18305492828E+04  0.00000000000E+00 0.  1.
         21    1    1    2  503  501  0.44310266201E+02  0.97275072638E+02 -0.18647088639E+03  0.21493541104E+03  0.00000000000E+00 0.  1.
         21    1    1    2  504  506 -0.14697079175E+03  0.43620913103E+01 -0.20399298108E+03  0.25146088721E+03  0.00000000000E+00 0.  1.
         21    1    1    2  505  503  0.95748854465E+02  0.18981405392E+02 -0.53856221368E+03  0.54733663762E+03  0.00000000000E+00 0.  1.
         21    1    1    2  506  502  0.69116710837E+01 -0.12061856934E+03 -0.85492247329E+03  0.86341707523E+03  0.00000000000E+00 0.  1.
<scales pt_clust_3="116.42850" pt_clust_4="117.81336" pt_clust_5="97.61218" pt_clust_6="14000.00000"></scales>
<clustering>
<clus scale="   97.612">  2  5  1 -1</clus>
<clus scale="  116.429">  1  3  2 -1</clus>
<clus scale="  117.813">  1  4  2 -1</clus>
<clus scale="  116.429">  1  3  2 -1</clus>
</clustering>
</event>
<event>
 6    0  0.6687079E+002  0.8960732E+02  0.7546771E-02  0.1303805E+00
         21   -1    0    0  505  501  0.00000000000E+00  0.00000000000E+00  0.20259255824E+03  0.20259255824E+03  0.00000000000E+00 0. -1.
         21   -1    0    0  506  502 -0.00000000000E+00 -0.00000000000E+00 -0.31886433873E+03  0.31886433873E+03  0.00000000000E+00 0.  1.
         21    1    1    2  503  501 -0.22217856496E+01 -0.33973805210E+02  0.84290910806E+02  0.90907169224E+02  0.00000000000E+00 0. -1.
         21    1    1    2  504  503 -0.52991231124E+02 -0.40508575274E+02  0.47279392572E+02  0.81757912209E+02  0.00000000000E+00 0.  1.
         21    1    1    2  505  502 -0.71453797519E+02 -0.29088957655E+02 -0.49464205346E+02  0.91643440834E+02  0.00000000000E+00 0.  1.
         21    1    1    2  506  504  0.12666681429E+03  0.10357133814E+03 -0.19837787852E+03  0.25714837470E+03  0.00000000000E+00 0.  1.
<scales pt_clust_3="34.04638" pt_clust_4="14000.00000" pt_clust_5="80.07199" pt_clust_6="89.60732"></scales>
<clustering>
<clus scale="   34.046">  1  3  2 -1</clus>
<clus scale="   80.072">  2  5  1 -1</clus>
<clus scale="   89.607">  2  6  1 -1</clus>
<clus scale="   34.046">  1  3  2 -1</clus>
</clustering>
</event>
<event>
 6    0  0.6687079E+002  0.7444703E+02  0.7546771E-02  0.1345592E+00
         21   -1    0    0  506  501  0.00000000000E+00  0.00000000000E+00  0.32779107628E+03  0.32779107628E+03  0.00000000000E+00 0. -1.
         21   -1    0    0  505  502 -0.00000000000E+00 -0.00000000000E+00 -0.60657144036E+03  0.60657144036E+03  0.00000000000E+00 0. -1.
         21    1    1    2  503  501 -0.54438127388E+02 -0.45009757887E+02  0.23411767282E+03  0.24454135181E+03  0.00000000000E+00 0. -1.
         21    1    1    2  504  503  0.92675449356E+02  0.10152532144E+03 -0.28636785472E+02  0.14041436995E+03  0.00000000000E+00 0. -1.
         21    1    1    2  505  504 -0.69865939778E+01 -0.33092833833E+02 -0.50435411809E+03  0.50548691830E+03  0.00000000000E+00 0. -1.
         21    1    1    2  506  502 -0.31250727990E+02 -0.23422729720E+02  0.20092866658E+02  0.43919876571E+02  0.00000000000E+00 0.  1.
<scales pt_clust_3="74.44703" pt_clust_4="14000.00000" pt_clust_5="33.82230" pt_clust_6="42.11666"></scales>
<clustering>
<clus scale="   33.822">  2  5  1 -1</clus>
<clus scale="   42.117">  2  6  1 -1</clus>
<clus scale="   74.447">  1  3  2 -1</clus>
<clus scale="   74.447">  1  3  2 -1</clus>
</clustering>
</event>
<event>
 6    0  0.6687079E+002  0.8374765E+02  0.7546771E-02  0.1318740E+00
         21   -1    0    0  504  501  0.00000000000E+00  0.00000000000E+00  0.13443455838E+04  0.13443455838E+04  0.00000000000E+00 0.  1.
         21   -1    0    0  503  502 -0.00000000000E+00 -0.00000000000E+00 -0.69241584092E+02  0.69241584092E+02  0.00000000000E+00 0.  1.
         21    1    1    2  503  505  0.38562192690E+02 -0.38909641895E+02 -0.36866423115E+02  0.66031326587E+02  0.00000000000E+00 0.  1.
         21    1    1    2  504  502  0.48539146451E+02  0.10667774834E+03  0.29539153863E+03  0.31779293860E+03  0.00000000000E+00 0.  1.
         21    1    1    2  505  506 -0.65827941520E+02 -0.25798622225E+02  0.20554433000E+03  0.21736457482E+03  0.00000000000E+00 0.  1.
         21    1    1    2  506  501 -0.21273397621E+02 -0.41969484217E+02  0.81103455415E+03  0.81239832784E+03  0.00000000000E+00 0.  1.
<scales pt_clust_3="55.20110" pt_clust_4="83.74765" pt_clust_5="14000.00000" pt_clust_6="47.05311"></scales>
<clustering>
<clus scale="   47.053">  1  6  2 -1</clus>
<clus scale="   55.201">  2  3  1 -1</clus>
<clus scale="   83.748">  1  4  2 -1</clus>
<clus scale="   47.053">  1  3  2 -1</clus>
</clustering>
</event>
<event>
 6    0  0.1114588E+003  0.1174718E+03  0.7546771E-02  0.1247327E+00
         21   -1    0    0  506  501  0.00000000000E+00  0.00000000000E+00  0.28749750376E+03  0.28749750376E+03  0.00000000000E+00 0. -1.
         21   -1    0    0  504  502 -0.00000000000E+00 -0.00000000000E+00 -0.19804120736E+04  0.19804120736E+04  0.00000000000E+00 0. -1.
         21    1    1    2  503  502 -0.69296548514E+02  0.33569940787E+02 -0.18644932376E+04  0.18660825238E+04  0.00000000000E+00 0. -1.
         21    1    1    2  504  505 -0.49373475552E+02 -0.19882079982E+02 -0.84874713710E+02  0.10018360255E+03  0.00000000000E+00 0.  1.
         21    1    1    2  505  501  0.40059614881E+02  0.25962532534E+02  0.24740513817E+02  0.53767265729E+02  0.00000000000E+00 0.  1.
         21    1    1    2  506  503  0.78610409185E+02 -0.39650393340E+02  0.23171286773E+03  0.24787618521E+03  0.00000000000E+00 0. -1.
<scales pt_clust_3="14000.00000" pt_clust_4="51.78221" pt_clust_5="47.73705" pt_clust_6="117.47176"></scales>
<clustering>
<clus scale="   47.737">  1  5  2 -1</clus>
<clus scale="   51.782">  2  4  1 -1</clus>
<clus scale="  117.472">  1  6  2 -1</clus>
<clus scale="   47.737">  1  3  2 -1</clus>
</clustering>
</event>
<event>
 6    0  0.6687079E+002  0.1710978E+03  0.7546771E-02  0.1176708E+00
         21   -1    0    0  502  501  0.00000000000E+00  0.00000000000E+00  0.86588840097E+02  0.86588840097E+02  0.00000000000E+00 0. -1.
         21   -1    0    0  504  502 -0.00000000000E+00 -0.00000000000E+00 -0.10791428734E+04  0.10791428734E+04  0.00000000000E+00 0. -1.
         21    1    1    2  503  505 -0.49243067808E+01  0.52901344368E+02 -0.16594768366E+03  0.17424532920E+03  0.00000000000E+00 0.  1.
         21    1    1    2  504  503  0.44103007215E+02  0.10996057597E+03 -0.77863177158E+03  0.78759370187E+03  0.00000000000E+00 0. -1.
         21    1    1    2  505  506 -0.21192969042E+02 -0.11494631120E+03 -0.81693961971E+02  0.14260329526E+03  0.00000000000E+00 0. -1.
         21    1    1    2  506  501 -0.17985731392E+02 -0.47915609137E+02  0.33719383892E+02  0.61289387195E+02  0.00000000000E+00 0. -1.
<scales pt_clust_3="46.61256" pt_clust_4="46.61256" pt_clust_5="156.29921" pt_clust_6="51.18000"></scales>
<clustering>
<clus scale="   46.613">  3  4 -1 -1</clus>
<clus scale="   51.180">  1  6  2 -1</clus>
<clus scale="  156.299">  1  5  2 -1</clus>
<clus scale="   51.180">  1  3  2 -1</clus>
</clustering>
</event>
<event>
 6    0  0.6687079E+002  0.7735373E+02  0.7546771E-02  0.1336733E+00
         21   -1    0    0  505  501  0.00000000000E+00  0.00000000000E+00  0.76250283692E+02  0.76250283692E+02  0.00000000000E+00 0.  1.
         21   -1    0    0  503  502 -0.00000000000E+00 -0.00000000000E+00 -0.50025605900E+03  0.50025605900E+03  0.00000000000E+00 0.  1.
         21    1    1    2  503  504  0.70802570883E+01 -0.33367679292E+02 -0.32024573416E+03  0.32205723453E+03  0.00000000000E+00 0.  1.
         21    1    1    2  504  506 -0.20640291679E+02 -0.43807210979E+02 -0.44496844247E+02  0.65765207537E+02  0.00000000000E+00 0.  1.
         21    1    1    2  505  502  0.85202202280E+02  0.38100854407E+02 -0.51784980383E+02  0.10673694100E+03  0.00000000000E+00 0.  1.
         21    1    1    2  506  501 -0.71642167690E+02  0.39074035864E+02 -0.74782165109E+01  0.81946959628E+02  0.00000000000E+00 0.  1.
<scales pt_clust_3="34.11059" pt_clust_4="57.14249" pt_clust_5="14000.00000" pt_clust_6="77.35373"></scales>
<clustering>
<clus scale="   34.111">  2  3  1 -1</clus>
<clus scale="   57.142">  2  4  1 -1</clus>
<clus scale="   77.354">  1  6  2 -1</clus>
<clus scale="   77.354">  1  3  2 -1</clus>
</clustering>
</event>
<event>
 6    0  0.6687079E+002  0.1169818E+03  0.7546771E-02  0.1248161E+00
         21   -1    0    0  503  501  0.00000000000E+00  0.00000000000E+00  0.29042844986E+03  0.29042844986E+03  0.00000000000E+00 0. -1.
         21   -1    0    0  504  502 -0.00000000000E+00 -0.00000000000E+00 -0.14412504854E+03  0.14412504854E+03  0.00000000000E+00 0. -1.
         21    1    1    2  503  506 -0.33705698057E+02  0.17952525021E+01  0.17809009438E+02  0.38163566792E+02  0.00000000000E+00 0. -1.
         21    1    1    2  504  505  0.89630718379E+02 -0.54639231991E+02  0.16332831209E+03  0.19415264324E+03  0.00000000000E+00 0. -1.
         21    1    1    2  505  501  0.11085645847E+02 -0.47809431766E+02  0.37114560636E+02  0.61531487231E+02  0.00000000000E+00 0. -1.
         21    1    1    2  506  502 -0.67010666169E+02  0.10065341126E+03 -0.71948480838E+02  0.14070580113E+03  0.00000000000E+00 0. -1.
<scales pt_clust_3="33.75347" pt_clust_4="116.98183" pt_clust_5="47.70919" pt_clust_6="14000.00000"></scales>
<clustering>
<clus scale="   33.753">  1  3  2 -1</clus>
<clus scale="   47.709">  1  5  2 -1</clus>
<clus scale="  116.982">  1  4  2 -1</clus>
<clus scale="   33.753">  1  3  2 -1</clus>
</clustering>
</event>
<event>
 6    0  0.6687079E+002  0.1345539E+03  0.7546771E-02  0.1220851E+00
         21   -1    0    0  506  501  0.00000000000E+00  0.00000000000E+00  0.64866194436E+02  0.64866194436E+02  0.00000000000E+00 0. -1.
         21   -1    0    0  504  502 -0.00000000000E+00 -0.00000000000E+00 -0.84663405583E+03  0.84663405583E+03  0.00000000000E+00 0.  1.
         21    1    1    2  503  502  0.94017646119E+02 -0.55783998921E+02 -0.51935901041E+03  0.53074000604E+03  0.00000000000E+00 0.  1.
         21    1    1    2  504  501  0.37630619750E+02  0.28386759300E+02 -0.23469207790E+03  0.23937886932E+03  0.00000000000E+00 0.  1.
         21    1    1    2  505  503 -0.65870799091E+02  0.23306051305E+02 -0.28528216880E+02  0.75471805058E+02  0.00000000000E+00 0. -1.
         21    1    1    2  506  505 -0.65777466777E+02  0.40911883164E+01  0.81144379171E+00  0.65909569855E+02  0.00000000000E+00 0. -1.
<scales pt_clust_3="130.25415" pt_clust_4="47.13673" pt_clust_5="32.77108" pt_clust_6="32.77108"></scales>
<clustering>
<clus scale="   32.771">  5  6 -1 -1</clus>
<clus scale="   47.137">  2  4  1 -1</clus>
<clus scale="  130.254">  2  3  1 -1</clus>
<clus scale="  134.554">  1  3  2 -1</clus>
</clustering>
</event>
<event>
 6    0  0.6687079E+002  0.7151282E+02  0.7546771E-02  0.1355023E+00
         21   -1    0    0  506  501  0.00000000000E+00  0.00000000000E+00  0.55837542457E+03  0.55837542457E+03  0.00000000000E+00 0.  1.
         21   -1    0    0  504  502 -0.00000000000E+00 -0.00000000000E+00 -0.11348519298E+04  0.11348519298E+04  0.00000000000E+00 0. -1.
         21    1    1    2  503  505  0.48054149586E+02  0.26828684491E+02 -0.19605721379E+01  0.55071076320E+02  0.00000000000E+00 0.  1.
         21    1    1    2  504  501  0.31120540639E+02 -0.66424567990E+02  0.42070368860E+03  0.42705070529E+03  0.00000000000E+00 0.  1.
         21    1    1    2  505  502  0.20360135955E+02  0.28989799125E+02 -0.10796035111E+04  0.10801845605E+04  0.00000000000E+00 0. -1.
         21    1    1    2  506  503 -0.99534826180E+02  0.10606084374E+02  0.84383889427E+02  0.13092101223E+03  0.00000000000E+00 0.  1.
<scales pt_clust_3="72.03646" pt_clust_4="14000.00000" pt_clust_5="35.42518" pt_clust_6="71.51282"></scales>
<clustering>
<clus scale="   35.425">  2  5  1 -1</clus>
<clus scale="   72.036">  2  3  1 -1</clus>
<clus scale="   71.513">  2  6  1 -1</clus>
<clus scale="   71.513">  1  3  2 -1</clus>
</clustering>
</event>
<event>
 6    0  0.6687079E+002  0.1152543E+03  0.7546771E-02  0.1251138E+00
         21   -1    0    0  506  501  0.00000000000E+00  0.00000000000E+00  0.53085516753E+03  0.53085516753E+03  0.00000000000E+00 0.  1.
         21   -1    0    0  504  502 -0.00000000000E+00 -0.00000000000E+00 -0.56145189648E+02  0.56145189648E+02  0.00000000000E+00 0.  1.
         21    1    1    2  503  502  0.41190839825E+02 -0.81462983903E+02  0.45340719672E+02  0.10192489339E+03  0.00000000000E+00 0.  1.
         21    1    1    2  504  505 -0.46716926805E+02  0.82855562548E+02  0.79540080939E+02  0.12399249966E+03  0.00000000000E+00 0.  1.
         21    1    1    2  505  501 -0.67480150754E+01  0.37570874325E+02  0.85745975501E+02  0.93858822812E+02  0.00000000000E+00 0.  1.
         21    1    1    2  506  503  0.12274102056E+02 -0.38963452970E+02  0.26408320177E+03  0.26722414132E+03  0.00000000000E+00 0.  1.
<scales pt_clust_3="102.49319" pt_clust_4="33.39340" pt_clust_5="33.39340" pt_clust_6="40.85100"></scales>
<clustering>
<clus scale="   33.393">  4  5 -1 -1</clus>
<clus scale="   40.851">  1  6  2 -1</clus>
<clus scale="  102.493">  2  3  1 -1</clus>
<clus scale="   40.851">  1  3  2 -1</clus>
</clustering>
</event>
<event>
 6    0  0.6687079E+002  0.9213981E+02  0.7546771E-02  0.1297751E+00
         21   -1    0    0  504  501  0.00000000000E+00  0.00000000000E+00  0.62127193894E+03  0.62127193894E+03  0.00000000000E+00 0. -1.
         21   -1    0    0  503  502 -0.00000000000E+00 -0.00000000000E+00 -0.41228238689E+02  0.41228238689E+02  0.00000000000E+00 0. -1.
         21    1    1    2  503  501 -0.70581023190E+02  0.77042780549E+02  0.25557283924E+03  0.27610640526E+03  0.00000000000E+00 0. -1.
         21    1    1    2  504  505  0.43657113625E+02  0.24183795748E+02  0.16017037140E+03  0.16776575164E+03  0.00000000000E+00 0. -1.
         21    1    1    2  505  506  0.38281490997E+02 -0.16869998707E+02  0.10994577427E+03  0.11763563529E+03  0.00000000000E+00 0. -1.
         21    1    1    2  506  502 -0.11357581432E+02 -0.84356577590E+02  0.54354715341E+02  0.10099238545E+03  0.00000000000E+00 0. -1.
<scales pt_clust_3="82.25541" pt_clust_4="38.01208" pt_clust_5="38.01208" pt_clust_6="85.11772"></scales>
<clustering>
<clus scale="   38.012">  4  5 -1 -1</clus>
<clus scale="   85.118">  2  6  1 -1</clus>
<clus scale="   82.255">  2  3  1 -1</clus>
<clus scale="   92.140">  1  3  2 -1</clus>
</clustering>
</event>
<event>
 6    0  0.6687079E+002  0.1027128E+03  0.7546771E-02  0.1274692E+00
         21   -1    0    0  504  501  0.00000000000E+00  0.00000000000E+00  0.58471685628E+03  0.58471685628E+03  0.00000000000E+00 0.  1.
         21   -1    0    0  505  502 -0.00000000000E+00 -0.00000000000E+00 -0.61502963594E+03  0.61502963594E+03  0.00000000000E+00 0.  1.
         21    1    1    2  503  501 -0.39864501484E+02 -0.52390101056E+01  0.47091571996E+03  0.47262907339E+03  0.00000000000E+00 0.  1.
         21    1    1    2  504  502  0.37948714778E+02  0.54288390477E+02 -0.37486816976E+02  0.76109104192E+02  0.00000000000E+00 0.  1.
         21    1    1    2  505  506  0.17901077413E+02 -0.10381021627E+03 -0.54312889938E+03  0.55325040525E+03  0.00000000000E+00 0.  1.
         21    1    1    2  506  503 -0.15985290707E+02  0.54760835902E+02  0.79387216726E+02  0.97757909384E+02  0.00000000000E+00 0.  1.
<scales pt_clust_3="40.20728" pt_clust_4="61.80630" pt_clust_5="102.71285" pt_clust_6="14000.00000"></scales>
<clustering>
<clus scale="   40.207">  1  3  2 -1</clus>
<clus scale="   61.806">  1  4  2 -1</clus>
<clus scale="  102.713">  2  5  1 -1</clus>
<clus scale="   40.207">  1  3  2 -1</clus>
</clustering>
</event>
<event>
 6    0  0.6687079E+002  0.1176671E+03  0.7546771E-02  0.1246996E+00
         21   -1    0    0  505  501  0.00000000000E+00  0.00000000000E+00  0.27069829438E+03  0.27069829438E+03  0.00000000000E+00 0. -1.
         21   -1    0    0  506  502 -0.00000000000E+00 -0.00000000000E+00 -0.99194231367E+03  0.99194231367E+03  0.00000000000E+00 0. -1.
         21    1    1    2  503  504 -0.31886286730E+02  0.10207207003E+03 -0.32787301497E+02  0.11185012249E+03  0.00000000000E+00 0. -1.
         21    1    1    2  504  501  0.73536509777E+02  0.13751711334E+02  0.93649032733E+02  0.11986187537E+03  0.00000000000E+00 0. -1.
         21    1    1    2  505  502  0.12208712159E+02 -0.11957814380E+03  0.94352964463E+02  0.15280859606E+03  0.00000000000E+00 0. -1.
         21    1    1    2  506  503 -0.53858935205E+02  0.37543624292E+01 -0.87645871499E+03  0.87812001413E+03  0.00000000000E+00 0. -1.
<scales pt_clust_3="117.66710" pt_clust_4="68.85579" pt_clust_5="14000.00000" pt_clust_6="53.98963"></scales>
<clustering>
<clus scale="   53.990">  2  6  1 -1</clus>
<clus scale="   68.856">  1  4  2 -1</clus>
<clus scale="  117.667">  2  3  1 -1</clus>
<clus scale="   68.856">  1  3  2 -1</clus>
</clustering>
</event>
<event>
 6    0  0.6687079E+002  0.9788630E+02  0.7546771E-02  0.1284805E+00
         21   -1    0    0  503  501  0.00000000000E+00  0.00000000000E+00  0.55310747787E+03  0.55310747787E+03  0.00000000000E+00 0. -1.
         21   -1    0    0  504  502 -0.00000000000E+00 -0.00000000000E+00 -0.21465761278E+03  0.21465761278E+03  0.00000000000E+00 0.  1.
         21    1    1    2  503  505  0.39232452337E+02  0.71328980459E+02  0.29757337617E+03  0.30850757361E+03  0.00000000000E+00 0. -1.
         21    1    1    2  504  501 -0.15129286348E+02 -0.36504035034E+02  0.50012095171E+02  0.63738917018E+02  0.00000000000E+00 0. -1.
         21    1    1    2  505  506 -0.25700016397E+02  0.65321633668E+02  0.17353296227E+03  0.18719266990E+03  0.00000000000E+00 0. -1.
         21    1    1    2  506  502  0.15968504083E+01 -0.10014657909E+03 -0.18266856853E+03  0.20832593013E+03  0.00000000000E+00 0.  1.
<scales pt_clust_3="57.48201" pt_clust_4="39.51506" pt_clust_5="14000.00000" pt_clust_6="97.88630"></scales>
<clustering>
<clus scale="   39.515">  1  4  2 -1</clus>
<clus scale="   57.482">  1  3  2 -1</clus>
<clus scale="   97.886">  2  6  1 -1</clus>
<clus scale="   39.515">  1  3  2 -1</clus>
</clustering>
</event>
<event>
 6    0  0.6687079E+002  0.9995905E+02  0.7546771E-02  0.1280382E+00
         21   -1    0    0  505  501  0.00000000000E+00  0.00000000000E+00  0.10793811005E+04  0.10793811005E+04  0.00000000000E+00 0. -1.
         21   -1    0    0  504  502 -0.00000000000E+00 -0.00000000000E+00 -0.97721232291E+02  0.97721232291E+02  0.00000000000E+00 0. -1.
         21    1    1    2  503  506 -0.46336152788E+01  0.86149403526E+02 -0.17359248375E+02  0.88003031895E+02  0.00000000000E+00 0. -1.
         21    1    1    2  504  501 -0.30145490846E+02 -0.12823709369E+02  0.29244028795E+02  0.43913680790E+02  0.00000000000E+00 0.  1.
         21    1    1    2  505  503 -0.22378057741E+01 -0.10060843121E+03  0.98989128758E+03  0.99499337959E+03  0.00000000000E+00 0. -1.
         21    1    1    2  506  502  0.37016911898E+02  0.27282737057E+02 -0.20116199834E+02  0.50192240472E+02  0.00000000000E+00 0. -1.
<scales pt_clust_3="99.95905" pt_clust_4="32.75970" pt_clust_5="14000.00000" pt_clust_6="33.71614"></scales>
<clustering>
<clus scale="   32.760">  2  4  1 -1</clus>
<clus scale="   33.716">  2  6  1 -1</clus>
<clus scale="   99.959">  2  3  1 -1</clus>
<clus scale="   99.959">  1  3  2 -1</clus>
</clustering>
</event>
<event>
 6    0  0.6687079E+002  0.9694608E+02  0.7546771E-02  0.1286852E+00
         21   -1    0    0  504  501  0.00000000000E+00  0.00000000000E+00  0.57136093989E+02  0.57136093989E+02  0.00000000000E+00 0.  1.
         21   -1    0    0  506  502 -0.00000000000E+00 -0.00000000000E+00 -0.72533011100E+03  0.72533011100E+03  0.00000000000E+00 0. -1.
         21    1    1    2  503  501 -0.89084454090E+02  0.38853243507E+02 -0.12639369609E+02  0.98006980138E+02  0.00000000000E+00 0.  1.
         21    1    1    2  504  505 -0.19990655531E+02 -0.40057895159E+02 -0.58380407788E+02  0.73569921073E+02  0.00000000000E+00 0.  1.
         21    1    1    2  505  502  0.61296983644E+02 -0.26310149426E+01 -0.48552561190E+03  0.48938672055E+03  0.00000000000E+00 0. -1.
         21    1    1    2  506  503  0.47778125977E+02  0.38356665941E+01 -0.11164862771E+03  0.12150258322E+03  0.00000000000E+00 0. -1.
<scales pt_clust_3="14000.00000" pt_clust_4="44.76898" pt_clust_5="96.94608" pt_clust_6="45.79026"></scales>
<clustering>
<clus scale="   44.769">  1  4  2 -1</clus>
<clus scale="   45.790">  2  6  1 -1</clus>
<clus scale="   96.946">  2  5  1 -1</clus>
<clus scale="   44.769">  1  3  2 -1</clus>
</clustering>
</event>
<event>
 6    0  0.6687079E+002  0.1388238E+03  0.7546771E-02  0.1214920E+00
         21   -1    0    0  504  501  0.00000000000E+00  0.00000000000E+00  0.39973743322E+03  0.39973743322E+03  0.00000000000E+00 0. -1.
         21   -1    0    0  505  502 -0.00000000000E+00 -0.00000000000E+00 -0.18190590578E+03  0.18190590578E+03  0.00000000000E+00 0.  1.
         21    1    1    2  503  502 -0.10890206539E+02  0.37439409444E+02 -0.13408773750E+03  0.13964178217E+03  0.00000000000E+00 0.  1.
         21    1    1    2  504  506  0.41580804286E+02 -0.24623380284E+02  0.93626085485E+02  0.10536184331E+03  0.00000000000E+00 0. -1.
         21    1    1    2  505  501 -0.11942758723E+03 -0.29062048069E+02  0.17502777501E+03  0.21387443338E+03  0.00000000000E+00 0. -1.
         21    1    1    2  506  503  0.88736989481E+02  0.16246018908E+02  0.83265404440E+02  0.12276528014E+03  0.00000000000E+00 0. -1.
<scales pt_clust_3="38.99110" pt_clust_4="42.86318" pt_clust_5="124.79411" pt_clust_6="42.86318"></scales>
<clustering>
<clus scale="   38.991">  2  3  1 -1</clus>
<clus scale="   42.863">  4  6 -1 -1</clus>
<clus scale="  124.794">  1  5  2 -1</clus>
<clus scale="  124.794">  1  3  2 -1</clus>
</clustering>
</event>
<event>
 6    0  0.6687079E+002  0.9661459E+02  0.7546771E-02  0.1287580E+00
         21   -1    0    0  503  501  0.00000000000E+00  0.00000000000E+00  0.31440606000E+03  0.31440606000E+03  0.00000000000E+00 0. -1.
         21   -1    0    0  506  502 -0.00000000000E+00 -0.00000000000E+00 -0.14906549998E+03  0.14906549998E+03  0.00000000000E+00 0.  1.
         21    1    1    2  503  504  0.29857946857E+02 -0.77451802903E+01  0.20065173808E+03  0.20300887863E+03  0.00000000000E+00 0. -1.
         21    1    1    2  504  502 -0.19472106229E+01 -0.84438492926E+02  0.22834062796E+02  0.87493114818E+02  0.00000000000E+00 0.  1.
         21    1    1    2  505  501  0.21217033912E+01  0.11381742857E+03 -0.12978952068E+02  0.11457469995E+03  0.00000000000E+00 0. -1.
         21    1    1    2  506  505 -0.30032439625E+02 -0.21633755352E+02 -0.45166288791E+02  0.58394866586E+02  0.00000000000E+00 0. -1.
<scales pt_clust_3="30.84615" pt_clust_4="96.61459" pt_clust_5="14000.00000" pt_clust_6="35.88273"></scales>
<clustering>
<clus scale="   30.846">  1  3  2 -1</clus>
<clus scale="   35.883">  2  6  1 -1</clus>
<clus scale="   96.615">  1  4  2 -1</clus>
<clus scale="   30.846">  1  3  2 -1</clus>
</clustering>
</event>
<event>
 6    0  0.6687079E+002  0.8865529E+02  0.7546771E-02  0.1306141E+00
         21   -1    0    0  506  501  0.00000000000E+00  0.00000000000E+00  0.22552108701E+02  0.22552108701E+02  0.00000000000E+00 0. -1.
         21   -1    0    0  505  502 -0.00000000000E+00 -0.00000000000E+00 -0.11138952842E+04  0.11138952842E+04  0.00000000000E+00 0. -1.
         21    1    1    2  503  501  0.38800592745E+02 -0.13201472952E+02 -0.96085165310E+02  0.10446111180E+03  0.00000000000E+00 0. -1.
         21    1    1    2  504  502 -0.55581626103E+02 -0.50239405060E+02 -0.19868803431E+03  0.21234464900E+03  0.00000000000E+00 0. -1.
         21    1    1    2  505  503  0.61852492710E+02  0.72001026171E+02 -0.74331360846E+03  0.74934971752E+03  0.00000000000E+00 0. -1.
         21    1    1    2  506  504 -0.45071459351E+02 -0.85601481598E+01 -0.53256367399E+02  0.70291914564E+02  0.00000000000E+00 0. -1.
<scales pt_clust_3="40.98493" pt_clust_4="14000.00000" pt_clust_5="88.65529" pt_clust_6="30.80001"></scales>
<clustering>
<clus scale="   40.985">  1  3  2 -1</clus>
<clus scale="   30.800">  1  6  2 -1</clus>
<clus scale="   88.655">  2  5  1 -1</clus>
<clus scale="   40.985">  1  3  2 -1</clus>
</clustering>
</event>
<event>
 6    0  0.6687079E+002  0.1483083E+03  0.7546771E-02  0.1202567E+00
         21   -1    0    0  503  501  0.00000000000E+00  0.00000000000E+00  0.19768151854E+03  0.19768151854E+03  0.00000000000E+00 0.  1.
         21   -1    0    0  504  502 -0.00000000000E+00 -0.00000000000E+00 -0.89319741612E+03  0.89319741612E+03  0.00000000000E+00 0.  1.
         21    1    1    2  503  506  0.17204340635E+02 -0.11306670911E+03  0.82137650009E+02  0.14080718588E+03  0.00000000000E+00 0.  1.
         21    1    1    2  504  505 -0.10922452217E+03  0.98527687512E+00 -0.49334696375E+03  0.50529416546E+03  0.00000000000E+00 0.  1.
         21    1    1    2  505  501  0.20757866893E+03  0.70493815498E+02 -0.18400508967E+03  0.28620998383E+03  0.00000000000E+00 0.  1.
         21    1    1    2  506  502 -0.11555848739E+03  0.41587616736E+02 -0.10030149417E+03  0.15856759949E+03  0.00000000000E+00 0.  1.
<scales pt_clust_3="113.35674" pt_clust_4="109.22897" pt_clust_5="148.30830" pt_clust_6="14000.00000"></scales>
<clustering>
<clus scale="  109.229">  2  4  1 -1</clus>
<clus scale="  113.357">  1  3  2 -1</clus>
<clus scale="  148.308">  2  5  1 -1</clus>
<clus scale="  113.357">  1  3  2 -1</clus>
</clustering>
</event>
<event>
 6    0  0.6687079E+002  0.9888382E+02  0.7546771E-02  0.1282661E+00
         21   -1    0    0  506  501  0.00000000000E+00  0.00000000000E+00  0.37667361588E+03  0.37667361588E+03  0.00000000000E+00 0. -1.
         21   -1    0    0  505  502 -0.00000000000E+00 -0.00000000000E+00 -0.17964381609E+03  0.17964381609E+03  0.00000000000E+00 0.  1.
         21    1    1    2  503  501  0.80169128200E+02  0.26048982864E+02  0.16971032376E+03  0.18949203840E+03  0.00000000000E+00 0. -1.
         21    1    1    2  504  502  0.88984155147E+01  0.42525935664E+02 -0.21065065772E+02  0.48284303855E+02  0.00000000000E+00 0.  1.
         21    1    1    2  505  503  0.31808331303E+02  0.29622478654E+02 -0.96496623208E+02  0.10583411299E+03  0.00000000000E+00 0.  1.
         21    1    1    2  506  504 -0.12087587502E+03 -0.98197397182E+02  0.14488116500E+03  0.21270697673E+03  0.00000000000E+00 0.  1.
<scales pt_clust_3="14000.00000" pt_clust_4="43.44694" pt_clust_5="70.43946" pt_clust_6="98.88382"></scales>
<clustering>
<clus scale="   43.447">  2  4  1 -1</clus>
<clus scale="   70.439">  2  5  1 -1</clus>
<clus scale="   98.884">  2  6  1 -1</clus>
<clus scale="   98.884">  1  3  2 -1</clus>
</clustering>
</event>
<event>
 6    0  0.6687079E+002  0.2723558E+03  0.7546771E-02  0.1099939E+00
         21   -1    0    0  505  501  0.00000000000E+00  0.00000000000E+00  0.18735734547E+03  0.18735734547E+03  0.00000000000E+00 0.  1.
         21   -1    0    0  503  502 -0.00000000000E+00 -0.00000000000E+00 -0.11419188682E+04  0.11419188682E+04  0.00000000000E+00 0.  1.
         21    1    1    2  503  501  0.25282812630E+02 -0.47785456187E+02 -0.12717570593E+02  0.55537438177E+02  0.00000000000E+00 0.  1.
         21    1    1    2  504  506 -0.67991580272E+02 -0.47642697521E+02  0.32040136670E+02  0.88990179080E+02  0.00000000000E+00 0.  1.
         21    1    1    2  505  504 -0.17227463049E+03 -0.61218621019E+02 -0.81056881505E+01  0.18300811471E+03  0.00000000000E+00 0.  1.
         21    1    1    2  506  502  0.21498339813E+03  0.15664677473E+03 -0.96577840068E+03  0.10017404817E+04  0.00000000000E+00 0.  1.
<scales pt_clust_3="54.06173" pt_clust_4="41.71226" pt_clust_5="41.71226" pt_clust_6="265.22844"></scales>
<clustering>
<clus scale="   41.712">  4  5 -1 -1</clus>
<clus scale="   54.062">  1  3  2 -1</clus>
<clus scale="  265.228">  2  6  1 -1</clus>
<clus scale="   54.062">  1  3  2 -1</clus>
</clustering>
</event>
<event>
 6    0  0.6687079E+002  0.1194685E+03  0.7546771E-02  0.1243977E+00
         21   -1    0    0  504  501  0.00000000000E+00  0.00000000000E+00  0.75775354119E+03  0.75775354119E+03  0.00000000000E+00 0. -1.
         21   -1    0    0  506  502 -0.00000000000E+00 -0.00000000000E+00 -0.88073578818E+03  0.88073578818E+03  0.00000000000E+00 0.  1.
         21    1    1    2  503  501 -0.11808410328E+03  0.21983729371E+02  0.73743016999E+03  0.74714817500E+03  0.00000000000E+00 0. -1.
         21    1    1    2  504  505  0.57996080881E+02 -0.70057574945E+02 -0.36720088644E+03  0.37829631270E+03  0.00000000000E+00 0.  1.
         21    1    1    2  505  502  0.53237857876E+02  0.77347872977E+02 -0.45413589562E+03  0.46374171114E+03  0.00000000000E+00 0.  1.
         21    1    1    2  506  503  0.68501645186E+01 -0.29274027403E+02 -0.39075634930E+02  0.49303130525E+02  0.00000000000E+00 0. -1.
<scales pt_clust_3="14000.00000" pt_clust_4="119.46846" pt_clust_5="83.69428" pt_clust_6="30.06482"></scales>
<clustering>
<clus scale="   30.065">  2  6  1 -1</clus>
<clus scale="   83.694">  2  5  1 -1</clus>
<clus scale="  119.468">  2  4  1 -1</clus>
<clus scale="  119.468">  1  3  2 -1</clus>
</clustering>
</event>
<event>
 6    0  0.6687079E+002  0.1229606E+03  0.7546771E-02  0.1238291E+00
         21   -1    0    0  505  501  0.00000000000E+00  0.00000000000E+00  0.29545165589E+03  0.29545165589E+03  0.00000000000E+00 0.  1.
         21   -1    0    0  503  502 -0.00000000000E+00 -0.00000000000E+00 -0.35172838639E+03  0.35172838639E+03  0.00000000000E+00 0.  1.
         21    1    1    2  503  506 -0.86536593193E+02  0.76454879110E+02 -0.26558624402E+03  0.28960314832E+03  0.00000000000E+00 0.  1.
         21    1    1    2  504  502  0.15566548452E+02 -0.51124462293E+02  0.63714492540E+01  0.53820288378E+02  0.00000000000E+00 0.  1.
         21    1    1    2  505  504  0.43247216240E+02 -0.37356985100E+02 -0.32932799159E+02  0.65957829776E+02  0.00000000000E+00 0.  1.
         21    1    1    2  506  501  0.27722828501E+02  0.12026568284E+02  0.23587086342E+03  0.23779877581E+03  0.00000000000E+00 0.  1.
<scales pt_clust_3="112.98692" pt_clust_4="45.49220" pt_clust_5="45.49220" pt_clust_6="30.21909"></scales>
<clustering>
<clus scale="   30.219">  1  6  2 -1</clus>
<clus scale="   45.492">  4  5 -1 -1</clus>
<clus scale="  112.987">  2  3  1 -1</clus>
<clus scale="   30.219">  1  3  2 -1</clus>
</clustering>
</event>
<event>
 6    0  0.6687079E+002  0.6405874E+02  0.7546771E-02  0.1381548E+00
         21   -1    0    0  505  501  0.00000000000E+00  0.00000000000E+00  0.31154728678E+04  0.31154728678E+04  0.00000000000E+00 0.  1.
         21   -1    0    0  506  502 -0.00000000000E+00 -0.00000000000E+00 -0.45199515389E+03  0.45199515389E+03  0.00000000000E+00 0. -1.
         21    1    1    2  503  501  0.55695226644E+02 -0.31490790585E+02  0.30655896638E+04  0.30662572649E+04  0.00000000000E+00 0.  1.
         21    1    1    2  504  503 -0.98036774069E+02  0.87772855436E+02 -0.26305041651E+03  0.29412719162E+03  0.00000000000E+00 0. -1.
         21    1    1    2  505  502  0.40119651720E+02  0.54795988679E+01  0.13335925860E+02  0.42631671049E+02  0.00000000000E+00 0. -1.
         21    1    1    2  506  504  0.22218957051E+01 -0.61761663719E+02 -0.15239745916E+03  0.16445189414E+03  0.00000000000E+00 0. -1.
<scales pt_clust_3="14000.00000" pt_clust_4="64.05874" pt_clust_5="40.49213" pt_clust_6="62.08045"></scales>
<clustering>
<clus scale="   40.492">  2  5  1 -1</clus>
<clus scale="   62.080">  2  6  1 -1</clus>
<clus scale="   64.059">  2  4  1 -1</clus>
<clus scale="   64.059">  1  3  2 -1</clus>
</clustering>
</event>
<event>
 6    0  0.6687079E+002  0.2681285E+03  0.7546771E-02  0.1102356E+00
         21   -1    0    0  502  501  0.00000000000E+00  0.00000000000E+00  0.37301969223E+03  0.37301969223E+03  0.00000000000E+00 0.  1.
         21   -1    0    0  505  502 -0.00000000000E+00 -0.00000000000E+00 -0.27011023771E+03  0.27011023771E+03  0.00000000000E+00 0.  1.
         21    1    1    2  503  501 -0.24290607702E+02  0.56870201385E+02  0.80070804132E+02  0.10117107839E+03  0.00000000000E+00 0.  1.
         21    1    1    2  504  506 -0.76518160854E+02  0.80497839030E+01  0.82619273064E+02  0.11289717553E+03  0.00000000000E+00 0.  1.
         21    1    1    2  505  504  0.21706428828E+03 -0.15452477339E+03 -0.85947592016E+02  0.27996749706E+03  0.00000000000E+00 0.  1.
         21    1    1    2  506  503 -0.11625551973E+03  0.89604788098E+02  0.26166969340E+02  0.14909417896E+03  0.00000000000E+00 0.  1.
<scales pt_clust_3="61.84055" pt_clust_4="74.24886" pt_clust_5="248.56781" pt_clust_6="74.24886"></scales>
<clustering>
<clus scale="   61.841">  1  3  2 -1</clus>
<clus scale="   74.249">  4  6 -1 -1</clus>
<clus scale="  248.568">  2  5  1 -1</clus>
<clus scale="   61.841">  1  3  2 -1</clus>
</clustering>
</event>
<event>
 6    0  0.6687079E+002  0.7015825E+02  0.7546771E-02  0.1359556E+00
         21   -1    0    0  506  501  0.00000000000E+00  0.00000000000E+00  0.15843228976E+03  0.15843228976E+03  0.00000000000E+00 0.  1.
         21   -1    0    0  504  502 -0.00000000000E+00 -0.00000000000E+00 -0.46668939363E+03  0.46668939363E+03  0.00000000000E+00 0. -1.
         21    1    1    2  503  502 -0.27489889622E+02  0.32963710586E+02 -0.39212322965E+03  0.39446536917E+03  0.00000000000E+00 0. -1.
         21    1    1    2  504  501 -0.37962012971E+02 -0.20684508285E+02  0.50235559569E+01  0.43522401430E+02  0.00000000000E+00 0.  1.
         21    1    1    2  505  503  0.86967034260E+02 -0.66537653127E+02  0.38050964835E+02  0.11592411422E+03  0.00000000000E+00 0.  1.
         21    1    1    2  506  505 -0.21515131668E+02  0.54258450827E+02  0.40791604985E+02  0.71209798582E+02  0.00000000000E+00 0.  1.
<scales pt_clust_3="42.92203" pt_clust_4="46.74861" pt_clust_5="14000.00000" pt_clust_6="70.15825"></scales>
<clustering>
<clus scale="   42.922">  2  3  1 -1</clus>
<clus scale="   46.749">  2  4  1 -1</clus>
<clus scale="   70.158">  1  6  2 -1</clus>
<clus scale="   70.158">  1  3  2 -1</clus>
</clustering>
</event>
<event>
 6    0  0.6687079E+002  0.1084553E+03  0.7546771E-02  0.1263458E+00
         21   -1    0    0  503  501  0.00000000000E+00  0.00000000000E+00  0.74994040666E+03  0.74994040666E+03  0.00000000000E+00 0.  1.
         21   -1    0    0  506  502 -0.00000000000E+00 -0.00000000000E+00 -0.86648453708E+03  0.86648453708E+03  0.00000000000E+00 0.  1.
         21    1    1    2  503  504 -0.57510742939E+02  0.92007836917E+02  0.72592786095E+03  0.73399195289E+03  0.00000000000E+00 0.  1.
         21    1    1    2  504  505  0.50386648691E+02 -0.15809806411E+02 -0.61833001582E+02  0.81314724556E+02  0.00000000000E+00 0.  1.
         21    1    1    2  505  502 -0.16529347345E+02  0.26326729953E+02 -0.30203588080E+02  0.43342505311E+02  0.00000000000E+00 0. -1.
         21    1    1    2  506  501  0.23653441594E+02 -0.10252476046E+03 -0.75043540171E+03  0.75777576099E+03  0.00000000000E+00 0.  1.
<scales pt_clust_3="14000.00000" pt_clust_4="50.79818" pt_clust_5="31.08562" pt_clust_6="108.45526"></scales>
<clustering>
<clus scale="   31.086">  2  5  1 -1</clus>
<clus scale="   50.798">  2  4  1 -1</clus>
<clus scale="  108.455">  2  6  1 -1</clus>
<clus scale="  108.455">  1  3  2 -1</clus>
</clustering>
</event>
<event>
 6    0  0.6687079E+002  0.1058848E+03  0.7546771E-02  0.1268386E+00
         21   -1    0    0  504  501  0.00000000000E+00  0.00000000000E+00  0.26323485113E+03  0.26323485113E+03  0.00000000000E+00 0. -1.
         21   -1    0    0  503  502 -0.00000000000E+00 -0.00000000000E+00 -0.29889292056E+03  0.29889292056E+03  0.00000000000E+00 0. -1.
         21    1    1    2  503  505 -0.22380588647E+02  0.12822025084E+03 -0.13195777479E+03  0.18534880038E+03  0.00000000000E+00 0. -1.
         21    1    1    2  504  502 -0.66443180883E+02 -0.22934067737E+02 -0.43494992393E+02  0.82658829608E+02  0.00000000000E+00 0. -1.
         21    1    1    2  505  506  0.19132939384E+02 -0.82516171472E+02 -0.44567727022E+02  0.95714524581E+02  0.00000000000E+00 0. -1.
         21    1    1    2  506  501  0.69690830146E+02 -0.22770011627E+02  0.18436242478E+03  0.19840561712E+03  0.00000000000E+00 0. -1.
<scales pt_clust_3="105.88481" pt_clust_4="70.28988" pt_clust_5="14000.00000" pt_clust_6="71.65900"></scales>
<clustering>
<clus scale="   70.290">  2  4  1 -1</clus>
<clus scale="   71.659">  1  6  2 -1</clus>
<clus scale="  105.885">  2  3  1 -1</clus>
<clus scale="   71.659">  1  3  2 -1</clus>
</clustering>
</event>
<event>
 6    0  0.6687079E+002  0.8729776E+02  0.7546771E-02  0.1309531E+00
         21   -1    0    0  506  501  0.00000000000E+00  0.00000000000E+00  0.41013738629E+03  0.41013738629E+03  0.00000000000E+00 0. -1.
         21   -1    0    0  504  502 -0.00000000000E+00 -0.00000000000E+00 -0.10285110482E+03  0.10285110482E+03  0.00000000000E+00 0. -1.
         21    1    1    2  503  505 -0.26807449264E+02 -0.10988589904E+03  0.75087765535E+02  0.13576348064E+03  0.00000000000E+00 0. -1.
         21    1    1    2  504  503 -0.50747658744E+02  0.39081261306E+02 -0.43133870771E+02  0.77221762871E+02  0.00000000000E+00 0. -1.
         21    1    1    2  505  501  0.52633057498E+02  0.30134660254E+02  0.21328618765E+03  0.22174159361E+03  0.00000000000E+00 0. -1.
         21    1    1    2  506  502  0.24922050509E+02  0.40669977477E+02  0.62046199050E+02  0.78261653996E+02  0.00000000000E+00 0. -1.
<scales pt_clust_3="87.29776" pt_clust_4="64.35016" pt_clust_5="14000.00000" pt_clust_6="47.69859"></scales>
<clustering>
<clus scale="   47.699">  1  6  2 -1</clus>
<clus scale="   64.350">  2  4  1 -1</clus>
<clus scale="   87.298">  2  3  1 -1</clus>
<clus scale="   47.699">  1  3  2 -1</clus>
</clustering>
</event>
<event>
 6    0  0.6687079E+002  0.1445041E+03  0.7546771E-02  0.1207394E+00
         21   -1    0    0  505  501  0.00000000000E+00  0.00000000000E+00  0.11037939596E+04  0.11037939596E+04  0.00000000000E+00 0.  1.
         21   -1    0    0  503  502 -0.00000000000E+00 -0.00000000000E+00 -0.80308635619E+03  0.80308635619E+03  0.00000000000E+00 0. -1.
         21    1    1    2  503  501  0.19884275985E+01 -0.31623627491E+02  0.10700302695E+04  0.10704993158E+04  0.00000000000E+00 0.  1.
         21    1    1    2  504  502 -0.22695342710E+02  0.41251447023E+02 -0.36351132878E+03  0.36654774125E+03  0.00000000000E+00 0. -1.
         21    1    1    2  505  506  0.79764241841E+02 -0.80639299318E+02 -0.10286853206E+03  0.15312402084E+03  0.00000000000E+00 0. -1.
         21    1    1    2  506  504 -0.59057326729E+02  0.71011479787E+02 -0.30294280523E+03  0.31670923785E+03  0.00000000000E+00 0. -1.
<scales pt_clust_3="31.68608" pt_clust_4="42.20862" pt_clust_5="132.24562" pt_clust_6="42.20862"></scales>
<clustering>
<clus scale="   31.686">  1  3  2 -1</clus>
<clus scale="   42.209">  4  6 -1 -1</clus>
<clus scale="  132.246">  1  5  2 -1</clus>
<clus scale="   31.686">  1  3  2 -1</clus>
</clustering>
</event>
<event>
 6    0  0.6687079E+002  0.8837891E+02  0.7546771E-02  0.1306826E+00
         21   -1    0    0  504  501  0.00000000000E+00  0.00000000000E+00  0.69219480517E+03  0.69219480517E+03  0.00000000000E+00 0. -1.
         21   -1    0    0  505  502 -0.00000000000E+00 -0.00000000000E+00 -0.23666025186E+03  0.23666025186E+03  0.00000000000E+00 0. -1.
         21    1    1    2  503  506 -0.15337343351E+02  0.75855124417E+02 -0.87612184542E+01  0.77884484657E+02  0.00000000000E+00 0. -1.
         21    1    1    2  504  503  0.97835894048E+02  0.19426153123E+02  0.46999738550E+03  0.48046517040E+03  0.00000000000E+00 0. -1.
         21    1    1    2  505  501 -0.43721836317E+02 -0.75029094422E+02  0.16921756579E+03  0.19019870808E+03  0.00000000000E+00 0.  1.
         21    1    1    2  506  502 -0.38776714379E+02 -0.20252183118E+02 -0.17491917952E+03  0.18030669390E+03  0.00000000000E+00 0. -1.
<scales pt_clust_3="75.08591" pt_clust_4="88.37891" pt_clust_5="14000.00000" pt_clust_6="43.74682"></scales>
<clustering>
<clus scale="   43.747">  2  6  1 -1</clus>
<clus scale="   75.086">  2  3  1 -1</clus>
<clus scale="   88.379">  1  4  2 -1</clus>
<clus scale="   88.379">  1  3  2 -1</clus>
</clustering>
</event>
<event>
 6    0  0.6687079E+002  0.1094765E+03  0.7546771E-02  0.1261542E+00
         21   -1    0    0  505  501  0.00000000000E+00  0.00000000000E+00  0.46493177189E+03  0.46493177189E+03  0.00000000000E+00 0.  1.
         21   -1    0    0  503  502 -0.00000000000E+00 -0.00000000000E+00 -0.51669156546E+03  0.51669156546E+03  0.00000000000E+00 0. -1.
         21    1    1    2  503  504 -0.97952060747E+02 -0.56703694614E+02 -0.48122621867E+03  0.49435674236E+03  0.00000000000E+00 0. -1.
         21    1    1    2  504  501  0.29060308585E+01 -0.37799238477E+02  0.35617997072E+02  0.52017969589E+02  0.00000000000E+00 0. -1.
         21    1    1    2  505  506  0.49292915283E+02  0.38336615652E+02  0.33815261276E+03  0.34387014571E+03  0.00000000000E+00 0.  1.
         21    1    1    2  506  502  0.45753114606E+02  0.56166317438E+02  0.55695815270E+02  0.91378479683E+02  0.00000000000E+00 0. -1.
<scales pt_clust_3="109.47646" pt_clust_4="37.91078" pt_clust_5="52.22107" pt_clust_6="14000.00000"></scales>
<clustering>
<clus scale="   37.911">  1  4  2 -1</clus>
<clus scale="   52.221">  1  5  2 -1</clus>
<clus scale="  109.476">  2  3  1 -1</clus>
<clus scale="   37.911">  1  3  2 -1</clus>
</clustering>
</event>
<event>
 6    0  0.6687079E+002  0.1061574E+03  0.7546771E-02  0.1267856E+00
         21   -1    0    0  502  501  0.00000000000E+00  0.00000000000E+00  0.21487912897E+04  0.21487912897E+04  0.00000000000E+00 0.  1.
         21   -1    0    0  504  502 -0.00000000000E+00 -0.00000000000E+00 -0.18723009334E+03  0.18723009334E+03  0.00000000000E+00 0.  1.
         21    1    1    2  503  506 -0.81979328350E+02  0.56248562692E+02 -0.24808327556E+02  0.10246933296E+03  0.00000000000E+00 0.  1.
         21    1    1    2  504  505  0.47404106782E+02 -0.41252310984E+02 -0.73125016609E+02  0.96416650820E+02  0.00000000000E+00 0.  1.
         21    1    1    2  505  503 -0.55219374050E+02 -0.88748085399E+01 -0.17183247125E+02  0.58508165916E+02  0.00000000000E+00 0.  1.
         21    1    1    2  506  501  0.89794595619E+02 -0.61214431682E+01  0.20766777877E+04  0.20786272334E+04  0.00000000000E+00 0.  1.
<scales pt_clust_3="41.64299" pt_clust_4="62.84029" pt_clust_5="41.64299" pt_clust_6="90.48034"></scales>
<clustering>
<clus scale="   41.643">  3  5 -1 -1</clus>
<clus scale="   62.840">  2  4  1 -1</clus>
<clus scale="   90.480">  1  6  2 -1</clus>
<clus scale="   90.480">  1  3  2 -1</clus>
</clustering>
</event>
<event>
 6    0  0.6687079E+002  0.1163288E+03  0.7546771E-02  0.1249279E+00
         21   -1    0    0  504  501  0.00000000000E+00  0.00000000000E+00  0.77203254565E+03  0.77203254565E+03  0.00000000000E+00 0. -1.
         21   -1    0    0  503  502 -0.00000000000E+00 -0.00000000000E+00 -0.77195723781E+02  0.77195723781E+02  0.00000000000E+00 0.  1.
         21    1    1    2  503  505 -0.35900472972E+02 -0.19719268690E+02 -0.35202461321E+02  0.54008395647E+02  0.00000000000E+00 0.  1.
         21    1    1    2  504  502 -0.10397008986E+03 -0.14985879937E+02  0.14157627505E+03  0.17629009570E+03  0.00000000000E+00 0.  1.
         21    1    1    2  505  506  0.18882941133E+02  0.36697019082E+02  0.40708861534E+02  0.57969371937E+02  0.00000000000E+00 0.  1.
         21    1    1    2  506  501  0.12098762170E+03 -0.19918704556E+01  0.54775414660E+03  0.56096040615E+03  0.00000000000E+00 0. -1.
<scales pt_clust_3="40.95966" pt_clust_4="14000.00000" pt_clust_5="32.84199" pt_clust_6="116.32881"></scales>
<clustering>
<clus scale="   40.960">  2  3  1 -1</clus>
<clus scale="   32.842">  2  5  1 -1</clus>
<clus scale="  116.329">  1  6  2 -1</clus>
<clus scale="  116.329">  1  3  2 -1</clus>
</clustering>
</event>
<event>
 6    0  0.6687079E+002  0.1033823E+03  0.7546771E-02  0.1273340E+00
         21   -1    0    0  505  501  0.00000000000E+00  0.00000000000E+00  0.28732141639E+03  0.28732141639E+03  0.00000000000E+00 0.  1.
         21   -1    0    0  503  502 -0.00000000000E+00 -0.00000000000E+00 -0.20611779821E+03  0.20611779821E+03  0.00000000000E+00 0.  1.
         21    1    1    2  503  506 -0.25143992440E+02 -0.11273453529E+03 -0.13866849192E+03  0.18047228722E+03  0.00000000000E+00 0.  1.
         21    1    1    2  504  501  0.38785962379E+01  0.65202978438E+02  0.11335086095E+03  0.13082388767E+03  0.00000000000E+00 0.  1.
         21    1    1    2  505  502  0.30715914526E+02 -0.31100316904E+02  0.91679143533E+02  0.10156654211E+03  0.00000000000E+00 0.  1.
         21    1    1    2  506  504 -0.94505183233E+01  0.78631873752E+02  0.14842105613E+02  0.80576497599E+02  0.00000000000E+00 0.  1.
<scales pt_clust_3="14000.00000" pt_clust_4="51.04576" pt_clust_5="43.71152" pt_clust_6="103.38225"></scales>
<clustering>
<clus scale="   43.712">  1  5  2 -1</clus>
<clus scale="   51.046">  1  4  2 -1</clus>
<clus scale="  103.382">  1  6  2 -1</clus>
<clus scale="   43.712">  1  3  2 -1</clus>
</clustering>
</event>
<event>
 6    0  0.6687079E+002  0.2001573E+03  0.7546771E-02  0.1149606E+00
         21   -1    0    0  503  501  0.00000000000E+00  0.00000000000E+00  0.94400038432E+02  0.94400038432E+02  0.00000000000E+00 0. -1.
         21   -1    0    0  506  502 -0.00000000000E+00 -0.00000000000E+00 -0.16195933644E+04  0.16195933644E+04  0.00000000000E+00 0. -1.
         21    1    1    2  503  505 -0.61138366950E+02  0.17342389149E+03 -0.18683498345E+02  0.18483186729E+03  0.00000000000E+00 0. -1.
         21    1    1    2  504  501  0.89715130338E+01 -0.14413257089E+03 -0.68227443921E+03  0.69739020386E+03  0.00000000000E+00 0. -1.
         21    1    1    2  505  502  0.21207149683E+02  0.32819725695E+02 -0.20782861193E+03  0.21147011498E+03  0.00000000000E+00 0. -1.
         21    1    1    2  506  504  0.30959704233E+02 -0.62111046299E+02 -0.61640677646E+03  0.62030121669E+03  0.00000000000E+00 0. -1.
<scales pt_clust_3="185.62357" pt_clust_4="51.98567" pt_clust_5="39.07528" pt_clust_6="51.98567"></scales>
<clustering>
<clus scale="   39.075">  2  5  1 -1</clus>
<clus scale="   51.986">  4  6 -1 -1</clus>
<clus scale="  185.624">  1  3  2 -1</clus>
<clus scale="  185.624">  1  3  2 -1</clus>
</clustering>
</event>
<event>
 6    0  0.6687079E+002  0.2311038E+03  0.7546771E-02  0.1125865E+00
         21   -1    0    0  505  501  0.00000000000E+00  0.00000000000E+00  0.10322602302E+04  0.10322602302E+04  0.00000000000E+00 0.  1.
         21   -1    0    0  504  502 -0.00000000000E+00 -0.00000000000E+00 -0.26357302043E+03  0.26357302043E+03  0.00000000000E+00 0. -1.
         21    1    1    2  503  502 -0.94529839087E+02 -0.24358790531E+02  0.54246232326E+02  0.11167763821E+03  0.00000000000E+00 0.  1.
         21    1    1    2  504  501 -0.11654028207E+03 -0.14788928803E+02 -0.20415763592E+03  0.23554339317E+03  0.00000000000E+00 0. -1.
         21    1    1    2  505  506  0.10291471831E+03  0.50539010242E+02  0.62692975805E+03  0.63732766481E+03  0.00000000000E+00 0.  1.
         21    1    1    2  506  503  0.10815540284E+03 -0.11391290909E+02  0.29166885527E+03  0.31128455440E+03  0.00000000000E+00 0.  1.
<scales pt_clust_3="97.61783" pt_clust_4="208.44750" pt_clust_5="97.19087" pt_clust_6="97.19087"></scales>
<clustering>
<clus scale="   97.191">  5  6 -1 -1</clus>
<clus scale="   97.618">  2  3  1 -1</clus>
<clus scale="  208.448">  2  4  1 -1</clus>
<clus scale="  231.104">  1  3  2 -1</clus>
</clustering>
</event>
<event>
 6    0  0.6687079E+002  0.2346292E+03  0.7546771E-02  0.1123423E+00
         21   -1    0    0  504  501  0.00000000000E+00  0.00000000000E+00  0.11052141470E+04  0.11052141470E+04  0.00000000000E+00 0. -1.
         21   -1    0    0  503  502 -0.00000000000E+00 -0.00000000000E+00 -0.11821819500E+03  0.11821819500E+03  0.00000000000E+00 0.  1.
         21    1    1    2  503  501 -0.25571597125E+01 -0.20357265209E+03  0.22686069092E+02  0.20484877709E+03  0.00000000000E+00 0.  1.
         21    1    1    2  504  506 -0.17593301301E+02  0.25703410416E+02  0.86206647581E+02  0.91661200324E+02  0.00000000000E+00 0.  1.
         21    1    1    2  505  502 -0.49575422964E+02 -0.14953591030E+02  0.43889827376E+02  0.67879668486E+02  0.00000000000E+00 0.  1.
         21    1    1    2  506  505  0.69725883977E+02  0.19282283270E+03  0.83421340793E+03  0.85904269607E+03  0.00000000000E+00 0. -1.
<scales pt_clust_3="221.03746" pt_clust_4="30.67279" pt_clust_5="51.78158" pt_clust_6="30.67279"></scales>
<clustering>
<clus scale="   30.673">  4  6 -1 -1</clus>
<clus scale="   51.782">  2  5  1 -1</clus>
<clus scale="  221.037">  2  3  1 -1</clus>
<clus scale="  234.629">  1  3  2 -1</clus>
</clustering>
</event>
<event>
 6    0  0.6687079E+002  0.2552693E+03  0.7546771E-02  0.1110019E+00
         21   -1    0    0  506  501  0.00000000000E+00  0.00000000000E+00  0.48905463005E+03  0.48905463005E+03  0.00000000000E+00 0.  1.
         21   -1    0    0  503  502 -0.00000000000E+00 -0.00000000000E+00 -0.88832806942E+03  0.88832806942E+03  0.00000000000E+00 0. -1.
         21    1    1    2  503  504 -0.16899294261E+03 -0.19530447234E+03 -0.84782214084E+02  0.27182802540E+03  0.00000000000E+00 0. -1.
         21    1    1    2  504  501  0.33342492962E+02 -0.15318299327E+02  0.37185299577E+03  0.37365896563E+03  0.00000000000E+00 0.  1.
         21    1    1    2  505  502  0.40100849274E+02  0.10084999492E+03 -0.28267442618E+03  0.30279304947E+03  0.00000000000E+00 0. -1.
         21    1    1    2  506  505  0.95549600373E+02  0.10977277675E+03 -0.40366979487E+03  0.42910265898E+03  0.00000000000E+00 0. -1.
<scales pt_clust_3="251.63954" pt_clust_4="36.69294" pt_clust_5="36.87257" pt_clust_6="36.87257"></scales>
<clustering>
<clus scale="   36.693">  1  4  2 -1</clus>
<clus scale="   36.873">  5  6 -1 -1</clus>
<clus scale="  251.640">  1  3  2 -1</clus>
<clus scale="   36.693">  1  3  2 -1</clus>
</clustering>
</event>
<event>
 6    0  0.6687079E+002  0.2008133E+03  0.7546771E-02  0.1149055E+00
         21   -1    0    0  506  501  0.00000000000E+00  0.00000000000E+00  0.85233477920E+03  0.85233477920E+03  0.00000000000E+00 0. -1.
         21   -1    0    0  503  502 -0.00000000000E+00 -0.00000000000E+00 -0.91665734247E+03  0.91665734247E+03  0.00000000000E+00 0. -1.
         21    1    1    2  503  505 -0.94587108325E+02 -0.14496089776E+03 -0.14525182426E+02  0.17369906121E+03  0.00000000000E+00 0.  1.
         21    1    1    2  504  502  0.90915201173E+02 -0.65917598163E+02 -0.78841281758E+03  0.79637018683E+03  0.00000000000E+00 0. -1.
         21    1    1    2  505  501 -0.22077063269E+02  0.23617017127E+03  0.72049684858E+03  0.75853770857E+03  0.00000000000E+00 0. -1.
         21    1    1    2  506  504  0.25748970421E+02 -0.25291675343E+02  0.18118588157E+02  0.40385165051E+02  0.00000000000E+00 0. -1.
<scales pt_clust_3="14000.00000" pt_clust_4="112.46992" pt_clust_5="200.81332" pt_clust_6="36.09264"></scales>
<clustering>
<clus scale="   36.093">  1  6  2 -1</clus>
<clus scale="  112.470">  2  4  1 -1</clus>
<clus scale="  200.813">  1  5  2 -1</clus>
<clus scale="   36.093">  1  3  2 -1</clus>
</clustering>
</event>
<event>
 6    0  0.6687079E+002  0.1203550E+03  0.7546771E-02  0.1242513E+00
         21   -1    0    0  504  501  0.00000000000E+00  0.00000000000E+00  0.43058298672E+03  0.43058298672E+03  0.00000000000E+00 0. -1.
         21   -1    0    0  506  502 -0.00000000000E+00 -0.00000000000E+00 -0.10791436000E+04  0.10791436000E+04  0.00000000000E+00 0.  1.
         21    1    1    2  503  502  0.52854273941E+02  0.11210791490E+03 -0.95587748473E+03  0.96387941397E+03  0.00000000000E+00 0.  1.
         21    1    1    2  504  503 -0.29186060672E+02 -0.38703031532E+02  0.40951439016E+03  0.41237335818E+03  0.00000000000E+00 0. -1.
         21    1    1    2  505  501 -0.21973290489E+02 -0.33258940573E+02 -0.26787702031E+02  0.48026696774E+02  0.00000000000E+00 0. -1.
         21    1    1    2  506  505 -0.16949227799E+01 -0.40145942794E+02 -0.75409816678E+02  0.85447117783E+02  0.00000000000E+00 0.  1.
<scales pt_clust_3="114.29288" pt_clust_4="48.47423" pt_clust_5="37.56526" pt_clust_6="37.56526"></scales>
<clustering>
<clus scale="   37.565">  5  6 -1 -1</clus>
<clus scale="   48.474">  1  4  2 -1</clus>
<clus scale="  114.293">  2  3  1 -1</clus>
<clus scale="   48.474">  1  3  2 -1</clus>
</clustering>
</event>
<event>
 6    0  0.6687079E+002  0.1259405E+03  0.7546771E-02  0.1233607E+00
         21   -1    0    0  505  501  0.00000000000E+00  0.00000000000E+00  0.31258670582E+03  0.31258670582E+03  0.00000000000E+00 0. -1.
         21   -1    0    0  504  502 -0.00000000000E+00 -0.00000000000E+00 -0.29164103677E+03  0.29164103677E+03  0.00000000000E+00 0. -1.
         21    1    1    2  503  506  0.12604108306E+02  0.81359748214E+02 -0.62628778009E+02  0.10344387855E+03  0.00000000000E+00 0. -1.
         21    1    1    2  504  501  0.95261465466E+01  0.45286230493E+02 -0.13818270913E+03  0.14572594567E+03  0.00000000000E+00 0. -1.
         21    1    1    2  505  503  0.95092489856E+01 -0.13437531575E+03  0.26714795913E+03  0.29919088115E+03  0.00000000000E+00 0. -1.
         21    1    1    2  506  502 -0.31639503838E+02  0.77293370398E+01 -0.45390802944E+02  0.55867037205E+02  0.00000000000E+00 0. -1.
<scales pt_clust_3="125.94047" pt_clust_4="50.66439" pt_clust_5="14000.00000" pt_clust_6="32.56994"></scales>
<clustering>
<clus scale="   32.570">  2  6  1 -1</clus>
<clus scale="   50.664">  2  4  1 -1</clus>
<clus scale="  125.940">  2  3  1 -1</clus>
<clus scale="  125.940">  1  3  2 -1</clus>
</clustering>
</event>
<event>
 6    0  0.6687079E+002  0.1289322E+03  0.7546771E-02  0.1229049E+00
         21   -1    0    0  506  501  0.00000000000E+00  0.00000000000E+00  0.14199902269E+03  0.14199902269E+03  0.00000000000E+00 0.  1.
         21   -1    0    0  501  502 -0.00000000000E+00 -0.00000000000E+00 -0.28540977631E+04  0.28540977631E+04  0.00000000000E+00 0. -1.
         21    1    1    2  503  504  0.51053181282E+02 -0.11786349659E+03 -0.49423512118E+02  0.13762599572E+03  0.00000000000E+00 0. -1.
         21    1    1    2  504  502  0.43453725670E+02  0.12268260437E+03 -0.26652016664E+04  0.26683776289E+04  0.00000000000E+00 0. -1.
         21    1    1    2  505  503 -0.59263351538E+02 -0.11921818181E+02 -0.79885987979E+02  0.10018006618E+03  0.00000000000E+00 0. -1.
         21    1    1    2  506  505 -0.35243555415E+02  0.71027104031E+01  0.82412426054E+02  0.89913095050E+02  0.00000000000E+00 0.  1.
<scales pt_clust_3="128.93217" pt_clust_4="14000.00000" pt_clust_5="66.52308" pt_clust_6="35.95214"></scales>
<clustering>
<clus scale="   35.952">  1  6  2 -1</clus>
<clus scale="   66.523">  1  5  2 -1</clus>
<clus scale="  128.932">  1  3  2 -1</clus>
<clus scale="   35.952">  1  3  2 -1</clus>
</clustering>
</event>
<event>
 6    0  0.6687079E+002  0.6953295E+02  0.7546771E-02  0.1361688E+00
         21   -1    0    0  505  501  0.00000000000E+00  0.00000000000E+00  0.14203789450E+04  0.14203789450E+04  0.00000000000E+00 0. -1.
         21   -1    0    0  504  502 -0.00000000000E+00 -0.00000000000E+00 -0.46444939282E+02  0.46444939282E+02  0.00000000000E+00 0. -1.
         21    1    1    2  503  502 -0.50310858869E+02  0.46816884630E+02 -0.70030025778E+01  0.69079991688E+02  0.00000000000E+00 0. -1.
         21    1    1    2  504  501  0.91597973329E+02 -0.29561832692E+02  0.69395945162E+03  0.70060246300E+03  0.00000000000E+00 0. -1.
         21    1    1    2  505  506 -0.10891302397E+02  0.38466569315E+02  0.45126377422E+03  0.45303122558E+03  0.00000000000E+00 0. -1.
         21    1    1    2  506  503 -0.30395812063E+02 -0.55721621253E+02  0.23571378247E+03  0.24411020403E+03  0.00000000000E+00 0. -1.
<scales pt_clust_3="14000.00000" pt_clust_4="69.53295" pt_clust_5="39.97871" pt_clust_6="56.82238"></scales>
<clustering>
<clus scale="   39.979">  1  5  2 -1</clus>
<clus scale="   56.822">  1  6  2 -1</clus>
<clus scale="   69.533">  1  4  2 -1</clus>
<clus scale="   39.979">  1  3  2 -1</clus>
</clustering>
</event>
<event>
 6    0  0.6687079E+002  0.9635036E+02  0.7546771E-02  0.1288163E+00
         21   -1    0    0  506  501  0.00000000000E+00  0.00000000000E+00  0.27996262159E+03  0.27996262159E+03  0.00000000000E+00 0. -1.
         21   -1    0    0  503  502 -0.00000000000E+00 -0.00000000000E+00 -0.18584240947E+03  0.18584240947E+03  0.00000000000E+00 0.  1.
         21    1    1    2  503  505  0.26098883773E+02  0.37916103631E+02 -0.99887010636E+01  0.47101558336E+02  0.00000000000E+00 0.  1.
         21    1    1    2  504  502 -0.53334700242E+01 -0.37671851505E+02  0.57392519372E+01  0.38477958771E+02  0.00000000000E+00 0.  1.
         21    1    1    2  505  501  0.70103417467E+02  0.35904287622E+02 -0.11852165969E+03  0.14230597607E+03  0.00000000000E+00 0.  1.
         21    1    1    2  506  504 -0.90868831216E+02 -0.36148539747E+02  0.21689132094E+03  0.23791953789E+03  0.00000000000E+00 0. -1.
<scales pt_clust_3="40.39538" pt_clust_4="38.04753" pt_clust_5="14000.00000" pt_clust_6="96.35036"></scales>
<clustering>
<clus scale="   38.048">  2  4  1 -1</clus>
<clus scale="   40.395">  2  3  1 -1</clus>
<clus scale="   96.350">  1  6  2 -1</clus>
<clus scale="   96.350">  1  3  2 -1</clus>
</clustering>
</event>
<event>
 6    0  0.6687079E+002  0.8763404E+02  0.7546771E-02  0.1308685E+00
         21   -1    0    0  505  501  0.00000000000E+00  0.00000000000E+00  0.14849852772E+04  0.14849852772E+04  0.00000000000E+00 0. -1.
         21   -1    0    0  504  502 -0.00000000000E+00 -0.00000000000E+00 -0.22528163914E+03  0.22528163914E+03  0.00000000000E+00 0. -1.
         21    1    1    2  503  506  0.95631231169E+02  0.64532602687E+02  0.25334484735E+03  0.27837636549E+03  0.00000000000E+00 0. -1.
         21    1    1    2  504  503  0.17391406208E+01 -0.88440050644E+02 -0.19753436483E+03  0.21643588532E+03  0.00000000000E+00 0. -1.
         21    1    1    2  505  502 -0.72477261502E+02 -0.24945822856E+01  0.23621854406E+03  0.24709993310E+03  0.00000000000E+00 0.  1.
         21    1    1    2  506  501 -0.24893110287E+02  0.26402030242E+02  0.96767461144E+03  0.96835473240E+03  0.00000000000E+00 0. -1.
<scales pt_clust_3="87.63404" pt_clust_4="14000.00000" pt_clust_5="84.68805" pt_clust_6="36.28683"></scales>
<clustering>
<clus scale="   36.287">  1  6  2 -1</clus>
<clus scale="   84.688">  1  5  2 -1</clus>
<clus scale="   87.634">  1  3  2 -1</clus>
<clus scale="   36.287">  1  3  2 -1</clus>
</clustering>
</event>
<event>
 6    0  0.6687079E+002  0.1131519E+03  0.7546771E-02  0.1254842E+00
         21   -1    0    0  505  501  0.00000000000E+00  0.00000000000E+00  0.34179565000E+02  0.34179565000E+02  0.00000000000E+00 0.  1.
         21   -1    0    0  503  502 -0.00000000000E+00 -0.00000000000E+00 -0.25352734576E+04  0.25352734576E+04  0.00000000000E+00 0.  1.
         21    1    1    2  503  504  0.49907560863E+02 -0.11215766900E+02 -0.15100810493E+04  0.15109471644E+04  0.00000000000E+00 0.  1.
         21    1    1    2  504  506  0.20169148221E+01 -0.10208928797E+03 -0.66471814006E+03  0.67251505291E+03  0.00000000000E+00 0.  1.
         21    1    1    2  505  502  0.28241925393E+02  0.12216828621E+03 -0.20594230913E+03  0.24111186448E+03  0.00000000000E+00 0.  1.
         21    1    1    2  506  501 -0.80166401078E+02 -0.88632313363E+01 -0.12035239412E+03  0.14487894085E+03  0.00000000000E+00 0.  1.
<scales pt_clust_3="51.15230" pt_clust_4="14000.00000" pt_clust_5="113.15193" pt_clust_6="74.42601"></scales>
<clustering>
<clus scale="   51.152">  2  3  1 -1</clus>
<clus scale="   74.426">  1  6  2 -1</clus>
<clus scale="  113.152">  1  5  2 -1</clus>
<clus scale="   74.426">  1  3  2 -1</clus>
</clustering>
</event>
<event>
 6    0  0.6687079E+002  0.1145036E+03  0.7546771E-02  0.1252450E+00
         21   -1    0    0  504  501  0.00000000000E+00  0.00000000000E+00  0.21107075026E+03  0.21107075026E+03  0.00000000000E+00 0. -1.
         21   -1    0    0  506  502 -0.00000000000E+00 -0.00000000000E+00 -0.10609642369E+04  0.10609642369E+04  0.00000000000E+00 0.  1.
         21    1    1    2  503  505 -0.69751980590E+02  0.98808659902E+02 -0.36147518070E+03  0.38117292183E+03  0.00000000000E+00 0.  1.
         21    1    1    2  504  503  0.99868634502E+02 -0.56493591171E+02  0.15206365983E+03  0.19049573917E+03  0.00000000000E+00 0. -1.
         21    1    1    2  505  502 -0.92957797918E+02 -0.12347547938E+03 -0.22900583084E+03  0.27628068474E+03  0.00000000000E+00 0. -1.
         21    1    1    2  506  501  0.62841144005E+02  0.81160410650E+02 -0.41147613489E+03  0.42408564137E+03  0.00000000000E+00 0.  1.
<scales pt_clust_3="114.50356" pt_clust_4="14000.00000" pt_clust_5="114.24118" pt_clust_6="102.64512"></scales>
<clustering>
<clus scale="  102.645">  2  6  1 -1</clus>
<clus scale="  114.241">  2  5  1 -1</clus>
<clus scale="  114.504">  2  3  1 -1</clus>
<clus scale="  114.504">  1  3  2 -1</clus>
</clustering>
</event>
<event>
 6    0  0.6687079E+002  0.1079200E+03  0.7546771E-02  0.1264471E+00
         21   -1    0    0  506  501  0.00000000000E+00  0.00000000000E+00  0.19483559473E+03  0.19483559473E+03  0.00000000000E+00 0.  1.
         21   -1    0    0  504  502 -0.00000000000E+00 -0.00000000000E+00 -0.18389575922E+03  0.18389575922E+03  0.00000000000E+00 0. -1.
         21    1    1    2  503  502  0.86901154625E+02  0.61470228819E+02 -0.95911614544E+02  0.14328097400E+03  0.00000000000E+00 0. -1.
         21    1    1    2  504  501 -0.13027339665E+03 -0.89316831646E+01  0.79283237240E+02  0.15276375403E+03  0.00000000000E+00 0.  1.
         21    1    1    2  505  503  0.40743982832E+02 -0.21371268367E+02  0.21673634184E+02  0.50858132755E+02  0.00000000000E+00 0. -1.
         21    1    1    2  506  505  0.26282591901E+01 -0.31167277288E+02  0.58945786219E+01  0.31828493163E+02  0.00000000000E+00 0. -1.
<scales pt_clust_3="107.92003" pt_clust_4="14000.00000" pt_clust_5="77.95558" pt_clust_6="31.24055"></scales>
<clustering>
<clus scale="   31.241">  5  6 -1 -1</clus>
<clus scale="   77.956">  1  5  2 -1</clus>
<clus scale="  107.920">  2  3  1 -1</clus>
<clus scale="   77.956">  1  3  2 -1</clus>
</clustering>
</event>
<event>
 6    0  0.6687079E+002  0.9745289E+02  0.7546771E-02  0.1285745E+00
         21   -1    0    0  506  501  0.00000000000E+00  0.00000000000E+00  0.41496399403E+02  0.41496399403E+02  0.00000000000E+00 0. -1.
         21   -1    0    0  505  502 -0.00000000000E+00 -0.00000000000E+00 -0.52456231003E+03  0.52456231003E+03  0.00000000000E+00 0. -1.
         21    1    1    2  503  501  0.90347861360E+02  0.33724408254E+02 -0.10098151408E+03  0.13963286845E+03  0.00000000000E+00 0. -1.
         21    1    1    2  504  502 -0.19345741093E+02 -0.33546592628E+02 -0.12354374939E+03  0.12947080593E+03  0.00000000000E+00 0.  1.
         21    1    1    2  505  503  0.34363218442E+02 -0.14274292056E+02 -0.93605866038E+02  0.10073055322E+03  0.00000000000E+00 0. -1.
         21    1    1    2  506  504 -0.10536533871E+03  0.14096476430E+02 -0.16493478112E+03  0.19622448183E+03  0.00000000000E+00 0. -1.
<scales pt_clust_3="97.45289" pt_clust_4="38.86994" pt_clust_5="37.21003" pt_clust_6="14000.00000"></scales>
<clustering>
<clus scale="   37.210">  2  5  1 -1</clus>
<clus scale="   38.870">  2  4  1 -1</clus>
<clus scale="   97.453">  1  3  2 -1</clus>
<clus scale="   97.453">  1  3  2 -1</clus>
</clustering>
</event>
<event>
 6    0  0.6687079E+002  0.1135374E+03  0.7546771E-02  0.1254156E+00
         21   -1    0    0  503  501  0.00000000000E+00  0.00000000000E+00  0.53250627422E+03  0.53250627422E+03  0.00000000000E+00 0.  1.
         21   -1    0    0  504  502 -0.00000000000E+00 -0.00000000000E+00 -0.15773714832E+03  0.15773714832E+03  0.00000000000E+00 0. -1.
         21    1    1    2  503  505 -0.88660322711E+02 -0.33347427480E+02  0.44605912525E+03  0.45600597250E+03  0.00000000000E+00 0.  1.
         21    1    1    2  504  506  0.68250910539E+02  0.56629044185E+02 -0.84145300789E+02  0.12225165471E+03  0.00000000000E+00 0. -1.
         21    1    1    2  505  502 -0.30248276991E+02 -0.45243722334E+02  0.15868617354E+02  0.56690084568E+02  0.00000000000E+00 0. -1.
         21    1    1    2  506  501  0.50657689163E+02  0.21962105629E+02 -0.30133159117E+01  0.55295710754E+02  0.00000000000E+00 0. -1.
<scales pt_clust_3="96.33339" pt_clust_4="47.41202" pt_clust_5="54.42382" pt_clust_6="47.41202"></scales>
<clustering>
<clus scale="   47.412">  4  6 -1 -1</clus>
<clus scale="   54.424">  2  5  1 -1</clus>
<clus scale="   96.333">  1  3  2 -1</clus>
<clus scale="   96.333">  1  3  2 -1</clus>
</clustering>
</event>
<event>
 6    0  0.6687079E+002  0.3173327E+03  0.7546771E-02  0.1076883E+00
         21   -1    0    0  506  501  0.00000000000E+00  0.00000000000E+00  0.74115990516E+02  0.74115990516E+02  0.00000000000E+00 0. -1.
         21   -1    0    0  504  502 -0.00000000000E+00 -0.00000000000E+00 -0.16045311738E+04  0.16045311738E+04  0.00000000000E+00 0. -1.
         21    1    1    2  503  505 -0.71161194294E+02  0.77511019776E+02 -0.22547343971E+03  0.24881749492E+03  0.00000000000E+00 0. -1.
         21    1    1    2  504  503 -0.18213434743E+03  0.81543030459E+02 -0.51066495804E+03  0.54827081420E+03  0.00000000000E+00 0. -1.
         21    1    1    2  505  501 -0.74065407065E+01  0.33385715186E+02 -0.14516497496E+02  0.37150928969E+02  0.00000000000E+00 0. -1.
         21    1    1    2  506  502  0.26070208243E+03 -0.19243976542E+03 -0.77976028806E+03  0.84440792626E+03  0.00000000000E+00 0. -1.
<scales pt_clust_3="46.35765" pt_clust_4="46.35765" pt_clust_5="34.19741" pt_clust_6="310.97723"></scales>
<clustering>
<clus scale="   34.197">  1  5  2 -1</clus>
<clus scale="   46.358">  3  4 -1 -1</clus>
<clus scale="  310.977">  1  6  2 -1</clus>
<clus scale="   34.197">  1  3  2 -1</clus>
</clustering>
</event>
<event>
 6    0  0.6687079E+002  0.2550301E+03  0.7546771E-02  0.1110167E+00
         21   -1    0    0  504  501  0.00000000000E+00  0.00000000000E+00  0.14949927970E+03  0.14949927970E+03  0.00000000000E+00 0.  1.
         21   -1    0    0  505  502 -0.00000000000E+00 -0.00000000000E+00 -0.52698670236E+03  0.52698670236E+03  0.00000000000E+00 0.  1.
         21    1    1    2  503  501  0.21165900720E+01 -0.62145500553E+02 -0.34052978266E+02  0.70895334975E+02  0.00000000000E+00 0.  1.
         21    1    1    2  504  506  0.15665928106E+03  0.20033488000E+03 -0.12777212978E+03  0.28460834780E+03  0.00000000000E+00 0.  1.
         21    1    1    2  505  503 -0.13583899676E+03 -0.11390976222E+03 -0.10646470852E+03  0.20679071819E+03  0.00000000000E+00 0.  1.
         21    1    1    2  506  502 -0.22936874376E+02 -0.24279617225E+02 -0.10919760609E+03  0.11419158110E+03  0.00000000000E+00 0.  1.
<scales pt_clust_3="54.00346" pt_clust_4="237.80909" pt_clust_5="54.00346" pt_clust_6="33.40060"></scales>
<clustering>
<clus scale="   33.401">  2  6  1 -1</clus>
<clus scale="   54.003">  3  5 -1 -1</clus>
<clus scale="  237.809">  2  4  1 -1</clus>
<clus scale="  255.030">  1  3  2 -1</clus>
</clustering>
</event>
<event>
 6    0  0.6687079E+002  0.2550531E+03  0.7546771E-02  0.1110152E+00
         21   -1    0    0  505  501  0.00000000000E+00  0.00000000000E+00  0.20788180954E+04  0.20788180954E+04  0.00000000000E+00 0.  1.
         21   -1    0    0  503  502 -0.00000000000E+00 -0.00000000000E+00 -0.92098666933E+02  0.92098666933E+02  0.00000000000E+00 0.  1.
         21    1    1    2  503  506  0.28376926691E+03  0.10128083672E+03  0.75982918989E+03  0.81738803670E+03  0.00000000000E+00 0.  1.
         21    1    1    2  504  502 -0.19989191068E+03 -0.13449124112E+03  0.22835078864E+03  0.33194691227E+03  0.00000000000E+00 0.  1.
         21    1    1    2  505  504 -0.10684795670E+03  0.81622983030E+01  0.24662414747E+03  0.26889882684E+03  0.00000000000E+00 0.  1.
         21    1    1    2  506  501  0.22970600473E+02  0.25048106097E+02  0.75191530243E+03  0.75268298648E+03  0.00000000000E+00 0. -1.
<scales pt_clust_3="255.05312" pt_clust_4="14000.00000" pt_clust_5="103.21018" pt_clust_6="33.98612"></scales>
<clustering>
<clus scale="   33.986">  1  6  2 -1</clus>
<clus scale="  103.210">  1  5  2 -1</clus>
<clus scale="  255.053">  1  3  2 -1</clus>
<clus scale="   33.986">  1  3  2 -1</clus>
</clustering>
</event>
<event>
 6    0  0.6687079E+002  0.1009640E+03  0.7546771E-02  0.1278282E+00
         21   -1    0    0  504  501  0.00000000000E+00  0.00000000000E+00  0.15305225907E+04  0.15305225907E+04  0.00000000000E+00 0. -1.
         21   -1    0    0  503  502 -0.00000000000E+00 -0.00000000000E+00 -0.25387494858E+02  0.25387494858E+02  0.00000000000E+00 0. -1.
         21    1    1    2  503  505  0.94533897008E+02  0.49752783519E+00  0.11068518767E+03  0.14556138220E+03  0.00000000000E+00 0. -1.
         21    1    1    2  504  506 -0.71704113179E+02 -0.58423160502E+02  0.11519360461E+04  0.11556432840E+04  0.00000000000E+00 0. -1.
         21    1    1    2  505  501 -0.29043828324E+02  0.20790304572E+02  0.16102105691E+03  0.16493502204E+03  0.00000000000E+00 0. -1.
         21    1    1    2  506  502  0.62140444951E+01  0.37135328096E+02  0.81492805073E+02  0.89770397239E+02  0.00000000000E+00 0. -1.
<scales pt_clust_3="100.96403" pt_clust_4="14000.00000" pt_clust_5="35.71807" pt_clust_6="38.68765"></scales>
<clustering>
<clus scale="   35.718">  1  5  2 -1</clus>
<clus scale="   38.688">  2  6  1 -1</clus>
<clus scale="  100.964">  2  3  1 -1</clus>
<clus scale="   35.718">  1  3  2 -1</clus>
</clustering>
</event>
<event>
 6    0  0.6687079E+002  0.7785261E+02  0.7546771E-02  0.1335258E+00
         21   -1    0    0  505  501  0.00000000000E+00  0.00000000000E+00  0.11169892016E+03  0.11169892016E+03  0.00000000000E+00 0. -1.
         21   -1    0    0  506  502 -0.00000000000E+00 -0.00000000000E+00 -0.18662287901E+03  0.18662287901E+03  0.00000000000E+00 0. -1.
         21    1    1    2  503  504  0.12947615252E+02  0.94055061759E+02 -0.22774427610E+02  0.97635392846E+02  0.00000000000E+00 0. -1.
         21    1    1    2  504  501  0.21111377090E+02 -0.66148264848E+02 -0.12246210247E+02  0.70507112056E+02  0.00000000000E+00 0. -1.
         21    1    1    2  505  502 -0.70674676059E+02 -0.38793852896E+02 -0.91517375719E+01  0.81139553605E+02  0.00000000000E+00 0.  1.
         21    1    1    2  506  503  0.36615683717E+02  0.10887055985E+02 -0.30751583416E+02  0.49039740667E+02  0.00000000000E+00 0.  1.
<scales pt_clust_3="77.85261" pt_clust_4="14000.00000" pt_clust_5="69.17850" pt_clust_6="38.19995"></scales>
<clustering>
<clus scale="   38.200">  2  6  1 -1</clus>
<clus scale="   69.179">  2  5  1 -1</clus>
<clus scale="   77.853">  2  3  1 -1</clus>
<clus scale="   77.853">  1  3  2 -1</clus>
</clustering>
</event>
<event>
 6    0  0.6687079E+002  0.3862925E+03  0.7546771E-02  0.1048632E+00
         21   -1    0    0  506  501  0.00000000000E+00  0.00000000000E+00  0.14909959828E+04  0.14909959828E+04  0.00000000000E+00 0.  1.
         21   -1    0    0  503  502 -0.00000000000E+00 -0.00000000000E+00 -0.12768549431E+04  0.12768549431E+04  0.00000000000E+00 0.  1.
         21    1    1    2  503  505 -0.22584772586E+02 -0.44970216884E+02 -0.68406818517E+03  0.68591666718E+03  0.00000000000E+00 0.  1.
         21    1    1    2  504  501 -0.30568445274E+03 -0.24836325599E+03  0.13162090635E+04  0.13738753912E+04  0.00000000000E+00 0.  1.
         21    1    1    2  505  504  0.21706186044E+03 -0.96935789579E+00 -0.47862598061E+02  0.22227824726E+03  0.00000000000E+00 0.  1.
         21    1    1    2  506  502  0.11120736488E+03  0.29430283077E+03 -0.37013724060E+03  0.48578062032E+03  0.00000000000E+00 0.  1.
<scales pt_clust_3="50.32288" pt_clust_4="386.29246" pt_clust_5="212.20520" pt_clust_6="14000.00000"></scales>
<clustering>
<clus scale="   50.323">  2  3  1 -1</clus>
<clus scale="  212.205">  2  5  1 -1</clus>
<clus scale="  386.292">  1  4  2 -1</clus>
<clus scale="  386.292">  1  3  2 -1</clus>
</clustering>
</event>
<event>
 6    0  0.6687079E+002  0.7425749E+02  0.7546771E-02  0.1346186E+00
         21   -1    0    0  503  501  0.00000000000E+00  0.00000000000E+00  0.12688631555E+04  0.12688631555E+04  0.00000000000E+00 0. -1.
         21   -1    0    0  506  502 -0.00000000000E+00 -0.00000000000E+00 -0.12292183200E+03  0.12292183200E+03  0.00000000000E+00 0.  1.
         21    1    1    2  503  505 -0.33845926929E+02 -0.50277651033E+01  0.92332754704E+02  0.98469095572E+02  0.00000000000E+00 0.  1.
         21    1    1    2  504  502  0.21613370497E+01  0.71660161123E+02 -0.85890007310E+02  0.11187914652E+03  0.00000000000E+00 0.  1.
         21    1    1    2  505  504 -0.26861739430E+02 -0.99559556544E+02  0.11391704655E+03  0.15365790523E+03  0.00000000000E+00 0.  1.
         21    1    1    2  506  501  0.58546329308E+02  0.32927160525E+02  0.10255815296E+04  0.10277788402E+04  0.00000000000E+00 0. -1.
<scales pt_clust_3="34.21732" pt_clust_4="74.25749" pt_clust_5="14000.00000" pt_clust_6="40.63299"></scales>
<clustering>
<clus scale="   34.217">  1  3  2 -1</clus>
<clus scale="   40.633">  1  6  2 -1</clus>
<clus scale="   74.257">  2  4  1 -1</clus>
<clus scale="   34.217">  1  3  2 -1</clus>
</clustering>
</event>
<event>
 6    0  0.6687079E+002  0.9405234E+02  0.7546771E-02  0.1293325E+00
         21   -1    0    0  503  501  0.00000000000E+00  0.00000000000E+00  0.35201925446E+03  0.35201925446E+03  0.00000000000E+00 0.  1.
         21   -1    0    0  506  502 -0.00000000000E+00 -0.00000000000E+00 -0.57428063566E+02  0.57428063566E+02  0.00000000000E+00 0.  1.
         21    1    1    2  503  504 -0.30930045038E+02  0.12812388865E+02  0.11316658347E+03  0.11801483215E+03  0.00000000000E+00 0.  1.
         21    1    1    2  504  502 -0.82706863183E+02 -0.41419200660E+02  0.70522816969E+02  0.11631613437E+03  0.00000000000E+00 0.  1.
         21    1    1    2  505  501  0.12522478803E+02  0.29552828584E+02  0.41537252786E+02  0.52493099753E+02  0.00000000000E+00 0.  1.
         21    1    1    2  506  505  0.10111442942E+03 -0.94601678843E+00  0.69364537674E+02  0.12262325176E+03  0.00000000000E+00 0.  1.
<scales pt_clust_3="35.52757" pt_clust_4="14000.00000" pt_clust_5="32.09645" pt_clust_6="94.05234"></scales>
<clustering>
<clus scale="   32.096">  1  5  2 -1</clus>
<clus scale="   35.528">  1  3  2 -1</clus>
<clus scale="   94.052">  1  6  2 -1</clus>
<clus scale="   32.096">  1  3  2 -1</clus>
</clustering>
</event>
<event>
 6    0  0.6687079E+002  0.7741041E+02  0.7546771E-02  0.1336565E+00
         21   -1    0    0  506  501  0.00000000000E+00  0.00000000000E+00  0.92724801441E+03  0.92724801441E+03  0.00000000000E+00 0.  1.
         21   -1    0    0  505  502 -0.00000000000E+00 -0.00000000000E+00 -0.59044445329E+02  0.59044445329E+02  0.00000000000E+00 0.  1.
         21    1    1    2  503  501  0.79391142127E+02 -0.27875481898E+02  0.11821307904E+03  0.14510109578E+03  0.00000000000E+00 0.  1.
         21    1    1    2  504  502  0.13446069056E+02  0.67023613349E+02 -0.37011248380E+01  0.68459183785E+02  0.00000000000E+00 0.  1.
         21    1    1    2  505  503 -0.44868804229E+02  0.22873989434E+02  0.80269261533E+02  0.94760663424E+02  0.00000000000E+00 0.  1.
         21    1    1    2  506  504 -0.47968406954E+02 -0.62022120885E+02  0.67342235334E+03  0.67797151675E+03  0.00000000000E+00 0.  1.
<scales pt_clust_3="71.20950" pt_clust_4="14000.00000" pt_clust_5="50.36297" pt_clust_6="77.41041"></scales>
<clustering>
<clus scale="   50.363">  2  5  1 -1</clus>
<clus scale="   71.210">  2  3  1 -1</clus>
<clus scale="   77.410">  1  6  2 -1</clus>
<clus scale="   77.410">  1  3  2 -1</clus>
</clustering>
</event>
<event>
 6    0  0.6687079E+002  0.1493762E+03  0.7546771E-02  0.1201242E+00
         21   -1    0    0  504  501  0.00000000000E+00  0.00000000000E+00  0.12377392568E+03  0.12377392568E+03  0.00000000000E+00 0.  1.
         21   -1    0    0  506  502 -0.00000000000E+00 -0.00000000000E+00 -0.22290942439E+03  0.22290942439E+03  0.00000000000E+00 0.  1.
         21    1    1    2  503  505  0.39570809853E+02  0.57443140418E+02 -0.15420110823E+02  0.71437687472E+02  0.00000000000E+00 0.  1.
         21    1    1    2  504  503 -0.24452611637E+02  0.17536763393E+02 -0.82758216884E+01  0.31208292340E+02  0.00000000000E+00 0.  1.
         21    1    1    2  505  502  0.16222531015E+02  0.67549023469E+02 -0.69072476334E+02  0.97964524554E+02  0.00000000000E+00 0.  1.
         21    1    1    2  506  501 -0.31340729231E+02 -0.14252892728E+03 -0.63670898656E+01  0.14607284571E+03  0.00000000000E+00 0.  1.
<scales pt_clust_3="52.85348" pt_clust_4="30.09100" pt_clust_5="52.85348" pt_clust_6="139.61046"></scales>
<clustering>
<clus scale="   30.091">  1  4  2 -1</clus>
<clus scale="   52.853">  3  5 -1 -1</clus>
<clus scale="  139.610">  1  6  2 -1</clus>
<clus scale="   30.091">  1  3  2 -1</clus>
</clustering>
</event>
<event>
 6    0  0.6687079E+002  0.7875008E+02  0.7546771E-02  0.1332636E+00
         21   -1    0    0  503  501  0.00000000000E+00  0.00000000000E+00  0.29266417687E+04  0.29266417687E+04  0.00000000000E+00 0.  1.
         21   -1    0    0  505  502 -0.00000000000E+00 -0.00000000000E+00 -0.10079919058E+02  0.10079919058E+02  0.00000000000E+00 0.  1.
         21    1    1    2  503  506 -0.16741819770E+01 -0.58182533370E+02  0.13508369493E+04  0.13520904089E+04  0.00000000000E+00 0.  1.
         21    1    1    2  504  501 -0.42202897908E+02  0.10590593777E+03  0.11430384373E+04  0.11487097202E+04  0.00000000000E+00 0.  1.
         21    1    1    2  505  504  0.25761538005E+02 -0.71880050002E+02  0.29684972433E+03  0.30651289902E+03  0.00000000000E+00 0.  1.
         21    1    1    2  506  502  0.18115541881E+02  0.24156645606E+02  0.12583673872E+03  0.12940865966E+03  0.00000000000E+00 0.  1.
<scales pt_clust_3="56.35797" pt_clust_4="14000.00000" pt_clust_5="78.75008" pt_clust_6="30.19464"></scales>
<clustering>
<clus scale="   30.195">  2  6  1 -1</clus>
<clus scale="   56.358">  1  3  2 -1</clus>
<clus scale="   78.750">  2  5  1 -1</clus>
<clus scale="   56.358">  1  3  2 -1</clus>
</clustering>
</event>
<event>
 6    0  0.6687079E+002  0.2254055E+03  0.7546771E-02  0.1129916E+00
         21   -1    0    0  506  501  0.00000000000E+00  0.00000000000E+00  0.20573932932E+03  0.20573932932E+03  0.00000000000E+00 0.  1.
         21   -1    0    0  504  502 -0.00000000000E+00 -0.00000000000E+00 -0.92887117547E+03  0.92887117547E+03  0.00000000000E+00 0.  1.
         21    1    1    2  503  502  0.29490623759E+01 -0.30655644213E+02 -0.24267678705E+03  0.24462315602E+03  0.00000000000E+00 0.  1.
         21    1    1    2  504  501 -0.19707124758E+03  0.81686004999E+02  0.12521598662E+03  0.24736354489E+03  0.00000000000E+00 0.  1.
         21    1    1    2  505  503  0.15059958546E+03 -0.58358453505E+02 -0.53891555643E+03  0.56259747706E+03  0.00000000000E+00 0.  1.
         21    1    1    2  506  505  0.43522599744E+02  0.73280927189E+01 -0.66755489300E+02  0.80026326812E+02  0.00000000000E+00 0.  1.
<scales pt_clust_3="30.79717" pt_clust_4="212.05477" pt_clust_5="38.43708" pt_clust_6="38.43708"></scales>
<clustering>
<clus scale="   30.797">  2  3  1 -1</clus>
<clus scale="   38.437">  5  6 -1 -1</clus>
<clus scale="  212.055">  1  4  2 -1</clus>
<clus scale="  212.055">  1  3  2 -1</clus>
</clustering>
</event>
<event>
 6    0  0.6687079E+002  0.9881882E+02  0.7546771E-02  0.1282800E+00
         21   -1    0    0  504  501  0.00000000000E+00  0.00000000000E+00  0.96124001181E+03  0.96124001181E+03  0.00000000000E+00 0.  1.
         21   -1    0    0  505  502 -0.00000000000E+00 -0.00000000000E+00 -0.27934814008E+03  0.27934814008E+03  0.00000000000E+00 0.  1.
         21    1    1    2  503  502 -0.22846955139E+02  0.20317255833E+02 -0.21644440664E+03  0.21859312755E+03  0.00000000000E+00 0.  1.
         21    1    1    2  504  506  0.84029938631E+02  0.54179717135E+02  0.86091497859E+03  0.86670125919E+03  0.00000000000E+00 0.  1.
         21    1    1    2  505  501  0.25638991801E+02 -0.55448454485E+02  0.22836962067E+02  0.65218217101E+02  0.00000000000E+00 0.  1.
         21    1    1    2  506  503 -0.86821975293E+02 -0.19048518483E+02  0.14584337722E+02  0.90075548053E+02  0.00000000000E+00 0.  1.
<scales pt_clust_3="30.57408" pt_clust_4="14000.00000" pt_clust_5="51.65232" pt_clust_6="98.81882"></scales>
<clustering>
<clus scale="   30.574">  2  3  1 -1</clus>
<clus scale="   51.652">  2  5  1 -1</clus>
<clus scale="   98.819">  2  6  1 -1</clus>
<clus scale="   98.819">  1  3  2 -1</clus>
</clustering>
</event>
<event>
 6    0  0.6687079E+002  0.1147784E+03  0.7546771E-02  0.1251968E+00
         21   -1    0    0  503  501  0.00000000000E+00  0.00000000000E+00  0.92832665647E+02  0.92832665647E+02  0.00000000000E+00 0.  1.
         21   -1    0    0  504  502 -0.00000000000E+00 -0.00000000000E+00 -0.24294137712E+03  0.24294137712E+03  0.00000000000E+00 0.  1.
         21    1    1    2  503  505  0.87690525235E+02 -0.35612434194E+02 -0.10724840342E+02  0.95251750039E+02  0.00000000000E+00 0.  1.
         21    1    1    2  504  506 -0.73623048134E+02 -0.26000448724E+01 -0.19643921121E+02  0.76243013365E+02  0.00000000000E+00 0.  1.
         21    1    1    2  505  502  0.43882391301E+02  0.13243790164E+02 -0.71158755857E+02  0.84644142026E+02  0.00000000000E+00 0. -1.
         21    1    1    2  506  501 -0.57949868402E+02  0.24968688902E+02 -0.48581194152E+02  0.79635137336E+02  0.00000000000E+00 0.  1.
<scales pt_clust_3="106.50141" pt_clust_4="39.60786" pt_clust_5="45.83735" pt_clust_6="39.60786"></scales>
<clustering>
<clus scale="   39.608">  4  6 -1 -1</clus>
<clus scale="   45.837">  2  5  1 -1</clus>
<clus scale="  106.501">  1  3  2 -1</clus>
<clus scale="  106.501">  1  3  2 -1</clus>
</clustering>
</event>
<event>
 6    0  0.6687079E+002  0.1179214E+03  0.7546771E-02  0.1246566E+00
         21   -1    0    0  502  501  0.00000000000E+00  0.00000000000E+00  0.30485633147E+03  0.30485633147E+03  0.00000000000E+00 0. -1.
         21   -1    0    0  504  502 -0.00000000000E+00 -0.00000000000E+00 -0.14558518993E+04  0.14558518993E+04  0.00000000000E+00 0.  1.
         21    1    1    2  503  501  0.48957146160E+02  0.29425521809E+02  0.19454127215E+03  0.20275347115E+03  0.00000000000E+00 0. -1.
         21    1    1    2  504  505  0.48027538969E+00 -0.11201482045E+03 -0.14236896299E+04  0.14280895325E+04  0.00000000000E+00 0.  1.
         21    1    1    2  505  506 -0.67246558751E+01  0.38880028640E+02  0.15644066766E+02  0.42445429067E+02  0.00000000000E+00 0. -1.
         21    1    1    2  506  503 -0.42712765674E+02  0.43709270005E+02  0.62508723076E+02  0.87419798081E+02  0.00000000000E+00 0. -1.
<scales pt_clust_3="57.11973" pt_clust_4="111.41534" pt_clust_5="31.03764" pt_clust_6="31.03764"></scales>
<clustering>
<clus scale="   31.038">  5  6 -1 -1</clus>
<clus scale="   57.120">  1  3  2 -1</clus>
<clus scale="  111.415">  2  4  1 -1</clus>
<clus scale="   57.120">  1  3  2 -1</clus>
</clustering>
</event>
<event>
 6    0  0.6687079E+002  0.8344841E+02  0.7546771E-02  0.1319541E+00
         21   -1    0    0  503  501  0.00000000000E+00  0.00000000000E+00  0.27055950936E+03  0.27055950936E+03  0.00000000000E+00 0. -1.
         21   -1    0    0  504  502 -0.00000000000E+00 -0.00000000000E+00 -0.47673090421E+03  0.47673090421E+03  0.00000000000E+00 0. -1.
         21    1    1    2  503  506  0.11231568369E+02 -0.28620270650E+02  0.23672976435E+03  0.23871792842E+03  0.00000000000E+00 0. -1.
         21    1    1    2  504  505  0.35032168047E+02  0.56630652700E+02 -0.13318060850E+03  0.14890049732E+03  0.00000000000E+00 0. -1.
         21    1    1    2  505  501  0.66112980193E+02 -0.12713099307E+02 -0.89852134539E+02  0.11227624471E+03  0.00000000000E+00 0. -1.
         21    1    1    2  506  502 -0.11237671661E+03 -0.15297282743E+02 -0.21986841616E+03  0.24739574313E+03  0.00000000000E+00 0. -1.
<scales pt_clust_3="30.74521" pt_clust_4="62.45698" pt_clust_5="83.44841" pt_clust_6="14000.00000"></scales>
<clustering>
<clus scale="   30.745">  1  3  2 -1</clus>
<clus scale="   62.457">  2  4  1 -1</clus>
<clus scale="   83.448">  1  5  2 -1</clus>
<clus scale="   30.745">  1  3  2 -1</clus>
</clustering>
</event>
<event>
 6    0  0.6687079E+002  0.1639853E+03  0.7546771E-02  0.1184269E+00
         21   -1    0    0  506  501  0.00000000000E+00  0.00000000000E+00  0.16236790612E+04  0.16236790612E+04  0.00000000000E+00 0. -1.
         21   -1    0    0  503  502 -0.00000000000E+00 -0.00000000000E+00 -0.39069167859E+02  0.39069167859E+02  0.00000000000E+00 0. -1.
         21    1    1    2  503  504 -0.10563771606E+02  0.45590060243E+02  0.22306929547E+02  0.51842511218E+02  0.00000000000E+00 0. -1.
         21    1    1    2  504  501  0.93990754994E+02  0.13865558322E+03  0.65725215108E+03  0.67826250293E+03  0.00000000000E+00 0. -1.
         21    1    1    2  505  502 -0.48437542521E+02 -0.16751832137E+03  0.59048256248E+03  0.61569330036E+03  0.00000000000E+00 0. -1.
         21    1    1    2  506  505 -0.34989440867E+02 -0.16727322085E+02  0.31456825020E+03  0.31694991452E+03  0.00000000000E+00 0.  1.
<scales pt_clust_3="46.57227" pt_clust_4="163.98528" pt_clust_5="14000.00000" pt_clust_6="38.78227"></scales>
<clustering>
<clus scale="   38.782">  1  6  2 -1</clus>
<clus scale="   46.572">  2  3  1 -1</clus>
<clus scale="  163.985">  1  4  2 -1</clus>
<clus scale="   38.782">  1  3  2 -1</clus>
</clustering>
</event>
<event>
 6    0  0.6687079E+002  0.8594980E+02  0.7546771E-02  0.1312967E+00
         21   -1    0    0  505  501  0.00000000000E+00  0.00000000000E+00  0.37432441945E+02  0.37432441945E+02  0.00000000000E+00 0. -1.
         21   -1    0    0  506  502 -0.00000000000E+00 -0.00000000000E+00 -0.64157574023E+03  0.64157574023E+03  0.00000000000E+00 0. -1.
         21    1    1    2  503  502 -0.80120890829E+00 -0.37088507708E+02 -0.80868324020E+02  0.88971260357E+02  0.00000000000E+00 0. -1.
         21    1    1    2  504  503 -0.15789223480E+01  0.74287394203E+02 -0.26635529342E+03  0.27652531939E+03  0.00000000000E+00 0. -1.
         21    1    1    2  505  504  0.86573680463E+02 -0.34280560347E+02 -0.15976394549E+03  0.18491802845E+03  0.00000000000E+00 0. -1.
         21    1    1    2  506  501 -0.84193549207E+02 -0.29183261472E+01 -0.97155735361E+02  0.12859357398E+03  0.00000000000E+00 0. -1.
<scales pt_clust_3="37.09716" pt_clust_4="56.23655" pt_clust_5="14000.00000" pt_clust_6="85.94980"></scales>
<clustering>
<clus scale="   37.097">  2  3  1 -1</clus>
<clus scale="   56.237">  2  4  1 -1</clus>
<clus scale="   85.950">  1  6  2 -1</clus>
<clus scale="   85.950">  1  3  2 -1</clus>
</clustering>
</event>
<event>
 6    0  0.6687079E+002  0.1318768E+03  0.7546771E-02  0.1224697E+00
         21   -1    0    0  506  501  0.00000000000E+00  0.00000000000E+00  0.10849121923E+03  0.10849121923E+03  0.00000000000E+00 0.  1.
         21   -1    0    0  505  502 -0.00000000000E+00 -0.00000000000E+00 -0.13367448524E+04  0.13367448524E+04  0.00000000000E+00 0. -1.
         21    1    1    2  503  504 -0.10995854287E+03  0.34923371398E+02 -0.74879630996E+03  0.75763212500E+03  0.00000000000E+00 0. -1.
         21    1    1    2  504  501  0.66639849904E+02 -0.51713643921E+02 -0.22428579777E+03  0.23962322434E+03  0.00000000000E+00 0. -1.
         21    1    1    2  505  503 -0.24415613943E+02  0.36803484882E+02 -0.33700269524E+03  0.33988444405E+03  0.00000000000E+00 0.  1.
         21    1    1    2  506  502  0.67734306905E+02 -0.20013212359E+02  0.81831169847E+02  0.10809627819E+03  0.00000000000E+00 0.  1.
<scales pt_clust_3="30.19699" pt_clust_4="122.51325" pt_clust_5="30.19699" pt_clust_6="70.62907"></scales>
<clustering>
<clus scale="   30.197">  3  5 -1 -1</clus>
<clus scale="   70.629">  1  6  2 -1</clus>
<clus scale="  122.513">  1  4  2 -1</clus>
<clus scale="   70.629">  1  3  2 -1</clus>
</clustering>
</event>
<event>
 6    0  0.6687079E+002  0.1290057E+03  0.7546771E-02  0.1228939E+00
         21   -1    0    0  503  501  0.00000000000E+00  0.00000000000E+00  0.68025214677E+02  0.68025214677E+02  0.00000000000E+00 0. -1.
         21   -1    0    0  505  502 -0.00000000000E+00 -0.00000000000E+00 -0.18934372237E+04  0.18934372237E+04  0.00000000000E+00 0.  1.
         21    1    1    2  503  506  0.60139364686E+02  0.67482763715E+02 -0.39093055321E+03  0.40124476821E+03  0.00000000000E+00 0.  1.
         21    1    1    2  504  501 -0.99831333090E+02 -0.12886775895E+01  0.14253011270E+02  0.10085189184E+03  0.00000000000E+00 0. -1.
         21    1    1    2  505  504  0.43679141488E+02 -0.11502263992E+03 -0.11597335127E+04  0.11662417827E+04  0.00000000000E+00 0.  1.
         21    1    1    2  506  502 -0.39871730839E+01  0.48828553798E+02 -0.28900095433E+03  0.29312399564E+03  0.00000000000E+00 0. -1.
<scales pt_clust_3="41.38275" pt_clust_4="99.83965" pt_clust_5="116.11519" pt_clust_6="41.38275"></scales>
<clustering>
<clus scale="   41.383">  3  6 -1 -1</clus>
<clus scale="   99.840">  1  4  2 -1</clus>
<clus scale="  116.115">  2  5  1 -1</clus>
<clus scale="   99.840">  1  3  2 -1</clus>
</clustering>
</event>
<event>
 6    0  0.6687079E+002  0.1307274E+03  0.7546771E-02  0.1226380E+00
         21   -1    0    0  503  501  0.00000000000E+00  0.00000000000E+00  0.89942052435E+02  0.89942052435E+02  0.00000000000E+00 0.  1.
         21   -1    0    0  505  502 -0.00000000000E+00 -0.00000000000E+00 -0.22179888221E+04  0.22179888221E+04  0.00000000000E+00 0. -1.
         21    1    1    2  503  504 -0.21932325623E+02 -0.29300729571E+02  0.23322920558E+02  0.43399519398E+02  0.00000000000E+00 0.  1.
         21    1    1    2  504  502 -0.88326029121E+02  0.89060400430E+02 -0.21278752894E+04  0.21315690206E+04  0.00000000000E+00 0. -1.
         21    1    1    2  505  506  0.40756459538E+02 -0.43254305417E+02 -0.11215367969E+02  0.60479818203E+02  0.00000000000E+00 0.  1.
         21    1    1    2  506  501  0.69501895206E+02 -0.16505365442E+02 -0.12279032848E+02  0.72482516328E+02  0.00000000000E+00 0.  1.
<scales pt_clust_3="36.60000" pt_clust_4="125.26283" pt_clust_5="34.11457" pt_clust_6="34.11457"></scales>
<clustering>
<clus scale="   34.115">  5  6 -1 -1</clus>
<clus scale="   36.600">  1  3  2 -1</clus>
<clus scale="  125.263">  2  4  1 -1</clus>
<clus scale="   36.600">  1  3  2 -1</clus>
</clustering>
</event>
<event>
 6    0  0.6687079E+002  0.9874528E+02  0.7546771E-02  0.1282957E+00
         21   -1    0    0  506  501  0.00000000000E+00  0.00000000000E+00  0.27037904926E+04  0.27037904926E+04  0.00000000000E+00 0. -1.
         21   -1    0    0  503  502 -0.00000000000E+00 -0.00000000000E+00 -0.23829761507E+02  0.23829761507E+02  0.00000000000E+00 0. -1.
         21    1    1    2  503  504 -0.17746474297E+02 -0.47868826875E+02  0.18322433265E+03  0.19020388538E+03  0.00000000000E+00 0. -1.
         21    1    1    2  504  505 -0.81157508968E+02  0.25912372985E+02  0.12719913986E+04  0.12748412099E+04  0.00000000000E+00 0. -1.
         21    1    1    2  505  501 -0.20296669564E+02 -0.24037740381E+02  0.10248725365E+04  0.10253552963E+04  0.00000000000E+00 0. -1.
         21    1    1    2  506  502  0.11920065283E+03  0.45994194271E+02  0.19987246340E+03  0.23721986251E+03  0.00000000000E+00 0. -1.
<scales pt_clust_3="54.35717" pt_clust_4="98.74528" pt_clust_5="31.46057" pt_clust_6="14000.00000"></scales>
<clustering>
<clus scale="   31.461">  1  5  2 -1</clus>
<clus scale="   54.357">  2  3  1 -1</clus>
<clus scale="   98.745">  1  4  2 -1</clus>
<clus scale="   31.461">  1  3  2 -1</clus>
</clustering>
</event>
<event>
 6    0  0.6687079E+002  0.2382070E+03  0.7546771E-02  0.1120993E+00
         21   -1    0    0  505  501  0.00000000000E+00  0.00000000000E+00  0.25424474866E+03  0.25424474866E+03  0.00000000000E+00 0. -1.
         21   -1    0    0  503  502 -0.00000000000E+00 -0.00000000000E+00 -0.16737879770E+04  0.16737879770E+04  0.00000000000E+00 0. -1.
         21    1    1    2  503  504  0.17330244024E+03 -0.16704245257E+03 -0.15370819362E+04  0.15558141905E+04  0.00000000000E+00 0. -1.
         21    1    1    2  504  501 -0.10193079221E+02  0.32280347502E+02 -0.30440770815E+02  0.45525380028E+02  0.00000000000E+00 0.  1.
         21    1    1    2  505  506 -0.64661795265E+02 -0.47377749517E+02  0.66647626612E+02  0.10424828559E+03  0.00000000000E+00 0. -1.
         21    1    1    2  506  502 -0.98447565755E+02  0.18213985459E+03  0.81331852054E+02  0.22244486955E+03  0.00000000000E+00 0. -1.
<scales pt_clust_3="238.20702" pt_clust_4="33.85144" pt_clust_5="77.20374" pt_clust_6="14000.00000"></scales>
<clustering>
<clus scale="   33.851">  1  4  2 -1</clus>
<clus scale="   77.204">  1  5  2 -1</clus>
<clus scale="  238.207">  2  3  1 -1</clus>
<clus scale="   33.851">  1  3  2 -1</clus>
</clustering>
</event>
<event>
 6    0  0.6687079E+002  0.1122359E+03  0.7546771E-02  0.1256485E+00
         21   -1    0    0  504  501  0.00000000000E+00  0.00000000000E+00  0.91692615103E+03  0.91692615103E+03  0.00000000000E+00 0. -1.
         21   -1    0    0  506  502 -0.00000000000E+00 -0.00000000000E+00 -0.13164018077E+03  0.13164018077E+03  0.00000000000E+00 0.  1.
         21    1    1    2  503  501 -0.89095237729E+02  0.82870245755E+02  0.26407390625E+03  0.29075843407E+03  0.00000000000E+00 0. -1.
         21    1    1    2  504  505  0.32852265712E+02  0.52894389059E+00  0.52857925300E+03  0.52959945038E+03  0.00000000000E+00 0. -1.
         21    1    1    2  505  502 -0.26319862957E+02  0.57411186679E+02  0.10424129007E+02  0.64011264692E+02  0.00000000000E+00 0. -1.
         21    1    1    2  506  503  0.82562834974E+02 -0.14081037633E+03 -0.17791317995E+02  0.16419718267E+03  0.00000000000E+00 0.  1.
<scales pt_clust_3="14000.00000" pt_clust_4="32.85652" pt_clust_5="61.95642" pt_clust_6="112.23588"></scales>
<clustering>
<clus scale="   32.857">  1  4  2 -1</clus>
<clus scale="   61.956">  2  5  1 -1</clus>
<clus scale="  112.236">  2  6  1 -1</clus>
<clus scale="   32.857">  1  3  2 -1</clus>
</clustering>
</event>
<event>
 6    0  0.6687079E+002  0.8244769E+02  0.7546771E-02  0.1322245E+00
         21   -1    0    0  505  501  0.00000000000E+00  0.00000000000E+00  0.13641287882E+04  0.13641287882E+04  0.00000000000E+00 0. -1.
         21   -1    0    0  503  502 -0.00000000000E+00 -0.00000000000E+00 -0.17428587193E+03  0.17428587193E+03  0.00000000000E+00 0. -1.
         21    1    1    2  503  501 -0.10826917063E+03 -0.70686605616E+02  0.10409179418E+04  0.10489180002E+04  0.00000000000E+00 0. -1.
         21    1    1    2  504  506  0.36235697427E+02  0.32343420994E+02  0.10423287924E+03  0.11499398143E+03  0.00000000000E+00 0. -1.
         21    1    1    2  505  504  0.25987823274E+02  0.20928891657E+02  0.20454110289E+03  0.20724489918E+03  0.00000000000E+00 0. -1.
         21    1    1    2  506  502  0.46045649926E+02  0.17414292965E+02 -0.15984900770E+03  0.16725777931E+03  0.00000000000E+00 0. -1.
<scales pt_clust_3="82.44769" pt_clust_4="14000.00000" pt_clust_5="33.36743" pt_clust_6="49.33008"></scales>
<clustering>
<clus scale="   33.367">  1  5  2 -1</clus>
<clus scale="   49.330">  2  6  1 -1</clus>
<clus scale="   82.448">  1  3  2 -1</clus>
<clus scale="   33.367">  1  3  2 -1</clus>
</clustering>
</event>
<event>
 6    0  0.6687079E+002  0.1998937E+03  0.7546771E-02  0.1149829E+00
         21   -1    0    0  506  501  0.00000000000E+00  0.00000000000E+00  0.15382979279E+04  0.15382979279E+04  0.00000000000E+00 0.  1.
         21   -1    0    0  503  502 -0.00000000000E+00 -0.00000000000E+00 -0.77221688248E+03  0.77221688248E+03  0.00000000000E+00 0.  1.
         21    1    1    2  503  501 -0.11445246956E+03  0.23228736201E+03  0.77624589383E+02  0.27033749873E+03  0.00000000000E+00 0.  1.
         21    1    1    2  504  505  0.31580641424E+02 -0.17361467774E+03  0.85767966859E+03  0.87564479508E+03  0.00000000000E+00 0.  1.
         21    1    1    2  505  502  0.32775262203E+02 -0.53159737003E+02 -0.66413316883E+03  0.66706299657E+03  0.00000000000E+00 0.  1.
         21    1    1    2  506  504  0.50096565933E+02 -0.55129472751E+01  0.49490995630E+03  0.49746952002E+03  0.00000000000E+00 0.  1.
<scales pt_clust_3="14000.00000" pt_clust_4="199.89374" pt_clust_5="62.49496" pt_clust_6="50.39899"></scales>
<clustering>
<clus scale="   50.399">  1  6  2 -1</clus>
<clus scale="   62.495">  2  5  1 -1</clus>
<clus scale="  199.894">  1  4  2 -1</clus>
<clus scale="   50.399">  1  3  2 -1</clus>
</clustering>
</event>
<event>
 6    0  0.6687079E+002  0.8973293E+02  0.7546771E-02  0.1303500E+00
         21   -1    0    0  504  501  0.00000000000E+00  0.00000000000E+00  0.18729752316E+04  0.18729752316E+04  0.00000000000E+00 0.  1.
         21   -1    0    0  505  502 -0.00000000000E+00 -0.00000000000E+00 -0.67870732087E+02  0.67870732087E+02  0.00000000000E+00 0.  1.
         21    1    1    2  503  501  0.69993565009E+02  0.12535809686E+03  0.11893504091E+04  0.11979850363E+04  0.00000000000E+00 0.  1.
         21    1    1    2  504  506 -0.50202289710E+02 -0.41809781269E+02  0.49550967185E+03  0.49979812184E+03  0.00000000000E+00 0.  1.
         21    1    1    2  505  503  0.51622444086E+02 -0.55648308060E+02  0.14401335838E+03  0.16279268508E+03  0.00000000000E+00 0.  1.
         21    1    1    2  506  502 -0.71413719386E+02 -0.27900007535E+02 -0.23768939821E+02  0.80270120451E+02  0.00000000000E+00 0.  1.
<scales pt_clust_3="14000.00000" pt_clust_4="65.33244" pt_clust_5="75.86577" pt_clust_6="89.73293"></scales>
<clustering>
<clus scale="   65.332">  1  4  2 -1</clus>
<clus scale="   75.866">  2  5  1 -1</clus>
<clus scale="   89.733">  2  6  1 -1</clus>
<clus scale="   65.332">  1  3  2 -1</clus>
</clustering>
</event>
<event>
 6    0  0.6687079E+002  0.1314934E+03  0.7546771E-02  0.1225257E+00
         21   -1    0    0  505  501  0.00000000000E+00  0.00000000000E+00  0.42866012881E+03  0.42866012881E+03  0.00000000000E+00 0. -1.
         21   -1    0    0  503  502 -0.00000000000E+00 -0.00000000000E+00 -0.16460758300E+03  0.16460758300E+03  0.00000000000E+00 0.  1.
         21    1    1    2  503  506  0.44469767769E+02  0.13201377530E+03  0.12323254409E+03  0.18598778733E+03  0.00000000000E+00 0. -1.
         21    1    1    2  504  501  0.47451161952E+02  0.81353309895E+00  0.96188950371E+02  0.10725944611E+03  0.00000000000E+00 0.  1.
         21    1    1    2  505  502 -0.14880256473E+02 -0.12938400727E+03 -0.80446955197E+02  0.15307957398E+03  0.00000000000E+00 0.  1.
         21    1    1    2  506  504 -0.77040673248E+02 -0.34433011219E+01  0.12507800655E+03  0.14694090438E+03  0.00000000000E+00 0. -1.
<scales pt_clust_3="14000.00000" pt_clust_4="47.45814" pt_clust_5="131.49338" pt_clust_6="57.38445"></scales>
<clustering>
<clus scale="   47.458">  1  4  2 -1</clus>
<clus scale="   57.384">  1  6  2 -1</clus>
<clus scale="  131.493">  2  5  1 -1</clus>
<clus scale="   47.458">  1  3  2 -1</clus>
</clustering>
</event>
<event>
 6    0  0.6687079E+002  0.1214001E+03  0.7546771E-02  0.1240805E+00
         21   -1    0    0  505  501  0.00000000000E+00  0.00000000000E+00  0.15086667737E+04  0.15086667737E+04  0.00000000000E+00 0.  1.
         21   -1    0    0  503  502 -0.00000000000E+00 -0.00000000000E+00 -0.25967983875E+03  0.25967983875E+03  0.00000000000E+00 0. -1.
         21    1    1    2  503  504 -0.97346234236E+02  0.43494433628E+02 -0.21808848872E+03  0.24275634696E+03  0.00000000000E+00 0. -1.
         21    1    1    2  504  501  0.65069718252E+02 -0.13547867672E+02  0.12647656697E+04  0.12665108812E+04  0.00000000000E+00 0.  1.
         21    1    1    2  505  506  0.58652067490E+02  0.96807110811E+01  0.20294562619E+03  0.21147271308E+03  0.00000000000E+00 0. -1.
         21    1    1    2  506  502 -0.26375551507E+02 -0.39627277036E+02 -0.63587229420E+00  0.47606671131E+02  0.00000000000E+00 0.  1.
<scales pt_clust_3="121.40006" pt_clust_4="14000.00000" pt_clust_5="58.86117" pt_clust_6="47.60242"></scales>
<clustering>
<clus scale="   47.602">  2  6  1 -1</clus>
<clus scale="   58.861">  1  5  2 -1</clus>
<clus scale="  121.400">  2  3  1 -1</clus>
<clus scale="   58.861">  1  3  2 -1</clus>
</clustering>
</event>
<event>
 6    0  0.6687079E+002  0.9442868E+02  0.7546771E-02  0.1292468E+00
         21   -1    0    0  504  501  0.00000000000E+00  0.00000000000E+00  0.75164632220E+03  0.75164632220E+03  0.00000000000E+00 0. -1.
         21   -1    0    0  503  502 -0.00000000000E+00 -0.00000000000E+00 -0.29802228972E+02  0.29802228972E+02  0.00000000000E+00 0. -1.
         21    1    1    2  503  501 -0.10334161177E+03  0.39483460652E+02  0.33537546616E+03  0.35315030184E+03  0.00000000000E+00 0. -1.
         21    1    1    2  504  505  0.71348980306E+02 -0.40388027445E+02  0.22997160757E+03  0.24414915531E+03  0.00000000000E+00 0. -1.
         21    1    1    2  505  506  0.23438320511E+02  0.36200638995E+02  0.13550220344E+03  0.14219946648E+03  0.00000000000E+00 0. -1.
         21    1    1    2  506  502  0.85543109554E+01 -0.35296072202E+02  0.20994816063E+02  0.41949627535E+02  0.00000000000E+00 0. -1.
<scales pt_clust_3="94.42868" pt_clust_4="14000.00000" pt_clust_5="39.06551" pt_clust_6="36.31789"></scales>
<clustering>
<clus scale="   36.318">  2  6  1 -1</clus>
<clus scale="   39.066">  2  5  1 -1</clus>
<clus scale="   94.429">  2  3  1 -1</clus>
<clus scale="   94.429">  1  3  2 -1</clus>
</clustering>
</event>
<event>
 6    0  0.6687079E+002  0.7993701E+02  0.7546771E-02  0.1329230E+00
         21   -1    0    0  506  501  0.00000000000E+00  0.00000000000E+00  0.13640322186E+03  0.13640322186E+03  0.00000000000E+00 0.  1.
         21   -1    0    0  503  502 -0.00000000000E+00 -0.00000000000E+00 -0.89740210642E+03  0.89740210642E+03  0.00000000000E+00 0.  1.
         21    1    1    2  503  501  0.86376622456E+02 -0.32831313105E+02  0.71738646103E+02  0.11698397058E+03  0.00000000000E+00 0.  1.
         21    1    1    2  504  502 -0.72920263314E+02 -0.33542217428E+02 -0.75734162109E+03  0.76158307242E+03  0.00000000000E+00 0.  1.
         21    1    1    2  505  504 -0.65776482468E+02  0.39232807898E+02 -0.46452081858E+02  0.89574297487E+02  0.00000000000E+00 0. -1.
         21    1    1    2  506  505  0.52320123326E+02  0.27140722636E+02 -0.28943827714E+02  0.65663987792E+02  0.00000000000E+00 0.  1.
<scales pt_clust_3="79.93701" pt_clust_4="14000.00000" pt_clust_5="71.50845" pt_clust_6="58.94077"></scales>
<clustering>
<clus scale="   58.941">  1  6  2 -1</clus>
<clus scale="   71.508">  1  5  2 -1</clus>
<clus scale="   79.937">  1  3  2 -1</clus>
<clus scale="   58.941">  1  3  2 -1</clus>
</clustering>
</event>
<event>
 6    0  0.6687079E+002  0.1163524E+03  0.7546771E-02  0.1249239E+00
         21   -1    0    0  504  501  0.00000000000E+00  0.00000000000E+00  0.33384518347E+03  0.33384518347E+03  0.00000000000E+00 0.  1.
         21   -1    0    0  505  502 -0.00000000000E+00 -0.00000000000E+00 -0.33439816584E+03  0.33439816584E+03  0.00000000000E+00 0. -1.
         21    1    1    2  503  506 -0.28814274618E+01 -0.62166424121E+02 -0.22209286148E+01  0.62272782467E+02  0.00000000000E+00 0.  1.
         21    1    1    2  504  502 -0.81668418534E+02 -0.23212863971E+02 -0.18185679902E+03  0.20069993271E+03  0.00000000000E+00 0. -1.
         21    1    1    2  505  503 -0.20597320566E+02  0.30866908515E+02 -0.95334533651E+02  0.10230194994E+03  0.00000000000E+00 0. -1.
         21    1    1    2  506  501  0.10514716656E+03  0.54512379576E+02  0.27885927892E+03  0.30296868419E+03  0.00000000000E+00 0.  1.
<scales pt_clust_3="58.22105" pt_clust_4="116.35240" pt_clust_5="37.10816" pt_clust_6="14000.00000"></scales>
<clustering>
<clus scale="   37.108">  2  5  1 -1</clus>
<clus scale="   58.221">  2  3  1 -1</clus>
<clus scale="  116.352">  2  4  1 -1</clus>
<clus scale="  116.352">  1  3  2 -1</clus>
</clustering>
</event>
<event>
 6    0  0.6687079E+002  0.1330095E+03  0.7546771E-02  0.1223057E+00
         21   -1    0    0  506  501  0.00000000000E+00  0.00000000000E+00  0.15647150410E+03  0.15647150410E+03  0.00000000000E+00 0.  1.
         21   -1    0    0  503  502 -0.00000000000E+00 -0.00000000000E+00 -0.15769137595E+03  0.15769137595E+03  0.00000000000E+00 0.  1.
         21    1    1    2  503  504  0.98824824852E+01 -0.39520996499E+02  0.56225041431E+01  0.41124021899E+02  0.00000000000E+00 0.  1.
         21    1    1    2  504  501  0.85652400013E+02 -0.38349355023E+02  0.20789302938E+02  0.96120766619E+02  0.00000000000E+00 0.  1.
         21    1    1    2  505  502 -0.62128554842E+02  0.10638095232E+03 -0.42855758386E+02  0.13043573272E+03  0.00000000000E+00 0.  1.
         21    1    1    2  506  505 -0.33406327657E+02 -0.28510600797E+02  0.15224079455E+02  0.46482358811E+02  0.00000000000E+00 0.  1.
<scales pt_clust_3="35.77208" pt_clust_4="35.77208" pt_clust_5="121.42362" pt_clust_6="43.91853"></scales>
<clustering>
<clus scale="   35.772">  3  4 -1 -1</clus>
<clus scale="   43.919">  1  6  2 -1</clus>
<clus scale="  121.424">  2  5  1 -1</clus>
<clus scale="   43.919">  1  3  2 -1</clus>
</clustering>
</event>
<event>
 6    0  0.6687079E+002  0.8918741E+02  0.7546771E-02  0.1304832E+00
         21   -1    0    0  502  501  0.00000000000E+00  0.00000000000E+00  0.21735756908E+03  0.21735756908E+03  0.00000000000E+00 0. -1.
         21   -1    0    0  503  502 -0.00000000000E+00 -0.00000000000E+00 -0.13956963612E+03  0.13956963612E+03  0.00000000000E+00 0. -1.
         21    1    1    2  503  506  0.60862593666E+02  0.10703775346E+02 -0.34885926042E+02  0.70963750959E+02  0.00000000000E+00 0. -1.
         21    1    1    2  504  501 -0.63108399106E+02  0.66935543046E+02  0.77745098626E+02  0.12044640850E+03  0.00000000000E+00 0. -1.
         21    1    1    2  505  504  0.71718833981E+02 -0.47420710545E+02  0.16504727055E+02  0.87548392055E+02  0.00000000000E+00 0. -1.
         21    1    1    2  506  505 -0.69473028541E+02 -0.30218607847E+02  0.18424033321E+02  0.77968653694E+02  0.00000000000E+00 0. -1.
<scales pt_clust_3="61.79665" pt_clust_4="14000.00000" pt_clust_5="89.18741" pt_clust_6="55.33952"></scales>
<clustering>
<clus scale="   61.797">  2  3  1 -1</clus>
<clus scale="   55.340">  2  6  1 -1</clus>
<clus scale="   89.187">  2  5  1 -1</clus>
<clus scale="   89.187">  1  3  2 -1</clus>
</clustering>
</event>
<event>
 6    0  0.6687079E+002  0.9485848E+02  0.7546771E-02  0.1291495E+00
         21   -1    0    0  503  501  0.00000000000E+00  0.00000000000E+00  0.34508671466E+02  0.34508671466E+02  0.00000000000E+00 0.  1.
         21   -1    0    0  504  502 -0.00000000000E+00 -0.00000000000E+00 -0.24230532267E+04  0.24230532267E+04  0.00000000000E+00 0.  1.
         21    1    1    2  503  505 -0.23618000517E+01 -0.11515025287E+03 -0.32009303028E+03  0.34018334302E+03  0.00000000000E+00 0.  1.
         21    1    1    2  504  506  0.70422314821E+01  0.36845570773E+02 -0.17554830851E+04  0.17558838376E+04  0.00000000000E+00 0.  1.
         21    1    1    2  505  502 -0.34749105035E+02  0.72067520556E+02 -0.32011790585E+03  0.32996469730E+03  0.00000000000E+00 0.  1.
         21    1    1    2  506  501  0.30068673604E+02  0.62371615370E+01  0.71494659384E+01  0.31530020291E+02  0.00000000000E+00 0.  1.
<scales pt_clust_3="94.85848" pt_clust_4="37.66987" pt_clust_5="14000.00000" pt_clust_6="30.70875"></scales>
<clustering>
<clus scale="   30.709">  1  6  2 -1</clus>
<clus scale="   37.670">  2  4  1 -1</clus>
<clus scale="   94.858">  1  3  2 -1</clus>
<clus scale="   30.709">  1  3  2 -1</clus>
</clustering>
</event>
<event>
 6    0  0.6687079E+002  0.1338242E+03  0.7546771E-02  0.1221889E+00
         21   -1    0    0  506  501  0.00000000000E+00  0.00000000000E+00  0.30770606028E+02  0.30770606028E+02  0.00000000000E+00 0.  1.
         21   -1    0    0  503  502 -0.00000000000E+00 -0.00000000000E+00 -0.73484958320E+03  0.73484958320E+03  0.00000000000E+00 0.  1.
         21    1    1    2  503  501 -0.29315743665E+02  0.18591210438E+02 -0.81335693351E+02  0.88433822405E+02  0.00000000000E+00 0.  1.
         21    1    1    2  504  505  0.55734606072E+02  0.64467266729E+02 -0.19642210648E+03  0.21411216385E+03  0.00000000000E+00 0.  1.
         21    1    1    2  505  502 -0.69846207527E+02 -0.96922581718E+02 -0.37893000844E+03  0.39731653734E+03  0.00000000000E+00 0.  1.
         21    1    1    2  506  504  0.43427345120E+02  0.13864104551E+02 -0.47391168904E+02  0.65757665631E+02  0.00000000000E+00 0.  1.
<scales pt_clust_3="34.71377" pt_clust_4="38.86433" pt_clust_5="122.45651" pt_clust_6="38.86433"></scales>
<clustering>
<clus scale="   34.714">  2  3  1 -1</clus>
<clus scale="   38.864">  4  6 -1 -1</clus>
<clus scale="  122.457">  2  5  1 -1</clus>
<clus scale="  133.824">  1  3  2 -1</clus>
</clustering>
</event>
<event>
 6    0  0.6687079E+002  0.1243385E+03  0.7546771E-02  0.1236107E+00
         21   -1    0    0  505  501  0.00000000000E+00  0.00000000000E+00  0.11217661032E+04  0.11217661032E+04  0.00000000000E+00 0.  1.
         21   -1    0    0  503  502 -0.00000000000E+00 -0.00000000000E+00 -0.19932006181E+02  0.19932006181E+02  0.00000000000E+00 0.  1.
         21    1    1    2  503  504 -0.14620413419E+02  0.77912424977E+02  0.22831464523E+03  0.24168508370E+03  0.00000000000E+00 0.  1.
         21    1    1    2  504  501 -0.39552883880E+02  0.49378397351E+02  0.29688908191E+03  0.30355523996E+03  0.00000000000E+00 0.  1.
         21    1    1    2  505  506  0.41885819676E+02 -0.93788424903E+02  0.51584283929E+03  0.52597008031E+03  0.00000000000E+00 0.  1.
         21    1    1    2  506  502  0.12287477622E+02 -0.33502397425E+02  0.60787530567E+02  0.70487705396E+02  0.00000000000E+00 0.  1.
<scales pt_clust_3="44.99661" pt_clust_4="44.99661" pt_clust_5="114.67219" pt_clust_6="35.68463"></scales>
<clustering>
<clus scale="   35.685">  2  6  1 -1</clus>
<clus scale="   44.997">  3  4 -1 -1</clus>
<clus scale="  114.672">  1  5  2 -1</clus>
<clus scale="  114.672">  1  3  2 -1</clus>
</clustering>
</event>
<event>
 6    0  0.6687079E+002  0.7821103E+02  0.7546771E-02  0.1334206E+00
         21   -1    0    0  505  501  0.00000000000E+00  0.00000000000E+00  0.16656137540E+03  0.16656137540E+03  0.00000000000E+00 0. -1.
         21   -1    0    0  503  502 -0.00000000000E+00 -0.00000000000E+00 -0.83731120417E+03  0.83731120417E+03  0.00000000000E+00 0. -1.
         21    1    1    2  503  506  0.34544816303E+02 -0.11427175319E+02 -0.70812391937E+03  0.70905811458E+03  0.00000000000E+00 0. -1.
         21    1    1    2  504  502  0.56456119587E+02  0.39222085361E+02 -0.38146406133E+02  0.78618151338E+02  0.00000000000E+00 0. -1.
         21    1    1    2  505  504 -0.34787301259E+02 -0.87744650166E+02 -0.13147033363E+02  0.95300180733E+02  0.00000000000E+00 0. -1.
         21    1    1    2  506  501 -0.56213634631E+02  0.59949740123E+02  0.88667530101E+02  0.12089613291E+03  0.00000000000E+00 0. -1.
<scales pt_clust_3="36.38578" pt_clust_4="77.09259" pt_clust_5="14000.00000" pt_clust_6="78.21103"></scales>
<clustering>
<clus scale="   36.386">  2  3  1 -1</clus>
<clus scale="   78.211">  1  6  2 -1</clus>
<clus scale="   77.093">  2  4  1 -1</clus>
<clus scale="   78.211">  1  3  2 -1</clus>
</clustering>
</event>
<event>
 6    0  0.6687079E+002  0.1077135E+03  0.7546771E-02  0.1264864E+00
         21   -1    0    0  505  501  0.00000000000E+00  0.00000000000E+00  0.27129241737E+03  0.27129241737E+03  0.00000000000E+00 0. -1.
         21   -1    0    0  504  502 -0.00000000000E+00 -0.00000000000E+00 -0.20378300613E+03  0.20378300613E+03  0.00000000000E+00 0.  1.
         21    1    1    2  503  502  0.54877170119E+01 -0.67121521823E+02 -0.74977347270E+02  0.10078202386E+03  0.00000000000E+00 0.  1.
         21    1    1    2  504  506 -0.18921267103E+01  0.78466529068E+02 -0.30565842963E+02  0.84230915248E+02  0.00000000000E+00 0. -1.
         21    1    1    2  505  503  0.30183478681E+02 -0.56168404427E+02 -0.36261429281E+02  0.73354095282E+02  0.00000000000E+00 0.  1.
         21    1    1    2  506  501 -0.33779068982E+02  0.44823397182E+02  0.20931403075E+03  0.21670838910E+03  0.00000000000E+00 0. -1.
<scales pt_clust_3="37.38953" pt_clust_4="100.62663" pt_clust_5="37.38953" pt_clust_6="56.12631"></scales>
<clustering>
<clus scale="   37.390">  3  5 -1 -1</clus>
<clus scale="   56.126">  1  6  2 -1</clus>
<clus scale="  100.627">  2  4  1 -1</clus>
<clus scale="   56.126">  1  3  2 -1</clus>
</clustering>
</event>
<event>
 6    0  0.6687079E+002  0.1181071E+03  0.7546771E-02  0.1246253E+00
         21   -1    0    0  506  501  0.00000000000E+00  0.00000000000E+00  0.11977653419E+03  0.11977653419E+03  0.00000000000E+00 0.  1.
         21   -1    0    0  501  502 -0.00000000000E+00 -0.00000000000E+00 -0.21124251824E+04  0.21124251824E+04  0.00000000000E+00 0.  1.
         21    1    1    2  503  502  0.42654133206E+02  0.96290368471E+02 -0.19155157052E+04  0.19184086183E+04  0.00000000000E+00 0.  1.
         21    1    1    2  504  505 -0.78407523725E+01 -0.84292112737E+02 -0.13809197935E+03  0.16197540686E+03  0.00000000000E+00 0. -1.
         21    1    1    2  505  503 -0.23033238271E+02 -0.41538706556E+02 -0.29512390236E+02  0.55919365028E+02  0.00000000000E+00 0. -1.
         21    1    1    2  506  504 -0.11780142562E+02  0.29540450822E+02  0.90471426508E+02  0.95898326408E+02  0.00000000000E+00 0.  1.
<scales pt_clust_3="106.53163" pt_clust_4="37.68548" pt_clust_5="37.68548" pt_clust_6="31.80267"></scales>
<clustering>
<clus scale="   31.803">  1  6  2 -1</clus>
<clus scale="   37.685">  4  5 -1 -1</clus>
<clus scale="  106.532">  2  3  1 -1</clus>
<clus scale="   31.803">  1  3  2 -1</clus>
</clustering>
</event>
<event>
 6    0  0.6687079E+002  0.1297215E+03  0.7546771E-02  0.1227869E+00
         21   -1    0    0  503  501  0.00000000000E+00  0.00000000000E+00  0.21474832111E+03  0.21474832111E+03  0.00000000000E+00 0.  1.
         21   -1    0    0  505  502 -0.00000000000E+00 -0.00000000000E+00 -0.31284400943E+03  0.31284400943E+03  0.00000000000E+00 0.  1.
         21    1    1    2  503  502  0.15362102600E+02  0.10292865487E+03  0.46780251809E+02  0.11409949232E+03  0.00000000000E+00 0.  1.
         21    1    1    2  504  501  0.62089336564E+00 -0.10893570564E+03  0.61275749378E+02  0.12498836320E+03  0.00000000000E+00 0.  1.
         21    1    1    2  505  506 -0.46643735286E+02  0.31965235737E+02 -0.23327597110E+03  0.24003144176E+03  0.00000000000E+00 0.  1.
         21    1    1    2  506  504  0.30660739320E+02 -0.25958184961E+02  0.27124281596E+02  0.48473033269E+02  0.00000000000E+00 0.  1.
<scales pt_clust_3="117.16779" pt_clust_4="33.80797" pt_clust_5="56.54568" pt_clust_6="33.80797"></scales>
<clustering>
<clus scale="   33.808">  4  6 -1 -1</clus>
<clus scale="   56.546">  2  5  1 -1</clus>
<clus scale="  117.168">  1  3  2 -1</clus>
<clus scale="  117.168">  1  3  2 -1</clus>
</clustering>
</event>
<event>
 6    0  0.6687079E+002  0.7383139E+02  0.7546771E-02  0.1347528E+00
         21   -1    0    0  506  501  0.00000000000E+00  0.00000000000E+00  0.29180479386E+03  0.29180479386E+03  0.00000000000E+00 0. -1.
         21   -1    0    0  504  502 -0.00000000000E+00 -0.00000000000E+00 -0.83583870046E+02  0.83583870046E+02  0.00000000000E+00 0. -1.
         21    1    1    2  503  501 -0.83862488396E+02 -0.14889725246E+02  0.76905908005E+02  0.11475687153E+03  0.00000000000E+00 0. -1.
         21    1    1    2  504  503 -0.34124710212E+02  0.44307969892E+02  0.92804738135E+01  0.56690556861E+02  0.00000000000E+00 0. -1.
         21    1    1    2  505  502  0.85757392717E+02 -0.22960726628E+02  0.12588884742E+02  0.89666077153E+02  0.00000000000E+00 0. -1.
         21    1    1    2  506  505  0.32229805890E+02 -0.64575180182E+01  0.10944565725E+03  0.11427515836E+03  0.00000000000E+00 0. -1.
<scales pt_clust_3="73.83139" pt_clust_4="51.53525" pt_clust_5="14000.00000" pt_clust_6="32.87035"></scales>
<clustering>
<clus scale="   32.870">  1  6  2 -1</clus>
<clus scale="   51.535">  2  4  1 -1</clus>
<clus scale="   73.831">  1  3  2 -1</clus>
<clus scale="   32.870">  1  3  2 -1</clus>
</clustering>
</event>
<event>
 6    0  0.6687079E+002  0.1004903E+03  0.7546771E-02  0.1279268E+00
         21   -1    0    0  506  501  0.00000000000E+00  0.00000000000E+00  0.48670961764E+03  0.48670961764E+03  0.00000000000E+00 0. -1.
         21   -1    0    0  504  502 -0.00000000000E+00 -0.00000000000E+00 -0.33903952949E+03  0.33903952949E+03  0.00000000000E+00 0. -1.
         21    1    1    2  503  502 -0.32572639401E+02  0.29697886570E+02 -0.82352076602E+02  0.93406669060E+02  0.00000000000E+00 0.  1.
         21    1    1    2  504  501 -0.81464061744E+01  0.31389718330E+02 -0.19683205862E+03  0.19948568282E+03  0.00000000000E+00 0. -1.
         21    1    1    2  505  503 -0.64593414674E+02 -0.51706242106E+02 -0.10044256008E+02  0.83347056162E+02  0.00000000000E+00 0.  1.
         21    1    1    2  506  505  0.10531246025E+03 -0.93813627933E+01  0.43689847938E+03  0.44950973909E+03  0.00000000000E+00 0. -1.
<scales pt_clust_3="62.01773" pt_clust_4="32.42959" pt_clust_5="100.49030" pt_clust_6="14000.00000"></scales>
<clustering>
<clus scale="   32.430">  2  4  1 -1</clus>
<clus scale="   62.018">  2  3  1 -1</clus>
<clus scale="  100.490">  2  5  1 -1</clus>
<clus scale="  100.490">  1  3  2 -1</clus>
</clustering>
</event>
<event>
 6    0  0.6687079E+002  0.9184569E+02  0.7546771E-02  0.1298443E+00
         21   -1    0    0  503  501  0.00000000000E+00  0.00000000000E+00  0.69214829628E+02  0.69214829628E+02  0.00000000000E+00 0. -1.
         21   -1    0    0  505  502 -0.00000000000E+00 -0.00000000000E+00 -0.26384963913E+04  0.26384963913E+04  0.00000000000E+00 0. -1.
         21    1    1    2  503  504 -0.41253753977E+02 -0.26284201902E+02  0.52348790241E+02  0.71645846540E+02  0.00000000000E+00 0. -1.
         21    1    1    2  504  506  0.11269376149E+03  0.85749485384E+02 -0.11394901128E+04  0.11482554486E+04  0.00000000000E+00 0. -1.
         21    1    1    2  505  501 -0.10895841260E+02 -0.66380642481E+02 -0.89155640753E+03  0.89409056413E+03  0.00000000000E+00 0. -1.
         21    1    1    2  506  502 -0.60544166254E+02  0.69153589987E+01 -0.59058383159E+03  0.59371936165E+03  0.00000000000E+00 0. -1.
<scales pt_clust_3="48.91555" pt_clust_4="14000.00000" pt_clust_5="91.84569" pt_clust_6="69.51564"></scales>
<clustering>
<clus scale="   48.916">  1  3  2 -1</clus>
<clus scale="   69.516">  2  6  1 -1</clus>
<clus scale="   91.846">  2  5  1 -1</clus>
<clus scale="   48.916">  1  3  2 -1</clus>
</clustering>
</event>
<event>
 6    0  0.6687079E+002  0.1154705E+03  0.7546771E-02  0.1250762E+00
         21   -1    0    0  505  501  0.00000000000E+00  0.00000000000E+00  0.18703263969E+02  0.18703263969E+02  0.00000000000E+00 0.  1.
         21   -1    0    0  504  502 -0.00000000000E+00 -0.00000000000E+00 -0.15502407828E+04  0.15502407828E+04  0.00000000000E+00 0.  1.
         21    1    1    2  503  501 -0.65204060345E+02  0.35965772372E+02 -0.22667366989E+03  0.23859182486E+03  0.00000000000E+00 0.  1.
         21    1    1    2  504  506  0.10594198645E+03 -0.24287531504E+02 -0.10179423212E+04  0.10237285568E+04  0.00000000000E+00 0.  1.
         21    1    1    2  505  502 -0.29389609365E+02 -0.47562145748E+02 -0.88622788652E+02  0.10478504433E+03  0.00000000000E+00 0.  1.
         21    1    1    2  506  503 -0.11348316738E+02  0.35883904880E+02 -0.19829873911E+03  0.20183862082E+03  0.00000000000E+00 0.  1.
<scales pt_clust_3="34.49831" pt_clust_4="104.77910" pt_clust_5="55.90981" pt_clust_6="34.49831"></scales>
<clustering>
<clus scale="   34.498">  3  6 -1 -1</clus>
<clus scale="   55.910">  1  5  2 -1</clus>
<clus scale="  104.779">  2  4  1 -1</clus>
<clus scale="   55.910">  1  3  2 -1</clus>
</clustering>
</event>
<event>
 6    0  0.6687079E+002  0.7563423E+02  0.7546771E-02  0.1341918E+00
         21   -1    0    0  504  501  0.00000000000E+00  0.00000000000E+00  0.10620323144E+04  0.10620323144E+04  0.00000000000E+00 0. -1.
         21   -1    0    0  506  502 -0.00000000000E+00 -0.00000000000E+00 -0.45963331391E+02  0.45963331391E+02  0.00000000000E+00 0.  1.
         21    1    1    2  503  502 -0.98550751398E+02 -0.54130059626E+02  0.46854255452E+02  0.12180983216E+03  0.00000000000E+00 0.  1.
         21    1    1    2  504  503  0.42808568753E+02 -0.31606563915E+02  0.32444386303E+03  0.32877860134E+03  0.00000000000E+00 0. -1.
         21    1    1    2  505  501  0.25630266963E+02  0.64403047819E+02  0.56814740384E+03  0.57236014505E+03  0.00000000000E+00 0. -1.
         21    1    1    2  506  505  0.30111915681E+02  0.21333575723E+02  0.76623460691E+02  0.85047067247E+02  0.00000000000E+00 0. -1.
<scales pt_clust_3="75.63423" pt_clust_4="53.84278" pt_clust_5="14000.00000" pt_clust_6="36.90324"></scales>
<clustering>
<clus scale="   36.903">  2  6  1 -1</clus>
<clus scale="   53.843">  1  4  2 -1</clus>
<clus scale="   75.634">  2  3  1 -1</clus>
<clus scale="   53.843">  1  3  2 -1</clus>
</clustering>
</event>
<event>
 6    0  0.6687079E+002  0.8729763E+02  0.7546771E-02  0.1309531E+00
         21   -1    0    0  506  501  0.00000000000E+00  0.00000000000E+00  0.47828716623E+03  0.47828716623E+03  0.00000000000E+00 0.  1.
         21   -1    0    0  503  502 -0.00000000000E+00 -0.00000000000E+00 -0.43301996602E+03  0.43301996602E+03  0.00000000000E+00 0.  1.
         21    1    1    2  503  505 -0.80118704298E+02  0.20782606526E+02 -0.23430719616E+03  0.24849705368E+03  0.00000000000E+00 0.  1.
         21    1    1    2  504  502  0.10696535153E+02 -0.93800615480E+02 -0.16063719752E+03  0.18632573777E+03  0.00000000000E+00 0.  1.
         21    1    1    2  505  501  0.94013842243E+00  0.48004886473E+02  0.37683603624E+03  0.37988254921E+03  0.00000000000E+00 0.  1.
         21    1    1    2  506  504  0.68482030722E+02  0.25013122481E+02  0.63375557659E+02  0.96601791581E+02  0.00000000000E+00 0.  1.
<scales pt_clust_3="83.62726" pt_clust_4="14000.00000" pt_clust_5="48.01409" pt_clust_6="87.29763"></scales>
<clustering>
<clus scale="   48.014">  1  5  2 -1</clus>
<clus scale="   83.627">  2  3  1 -1</clus>
<clus scale="   87.298">  1  6  2 -1</clus>
<clus scale="   48.014">  1  3  2 -1</clus>
</clustering>
</event>
<event>
 6    0  0.6687079E+002  0.7870120E+02  0.7546771E-02  0.1332778E+00
         21   -1    0    0  506  501  0.00000000000E+00  0.00000000000E+00  0.10609795853E+04  0.10609795853E+04  0.00000000000E+00 0.  1.
         21   -1    0    0  503  502 -0.00000000000E+00 -0.00000000000E+00 -0.29115673860E+03  0.29115673860E+03  0.00000000000E+00 0.  1.
         21    1    1    2  503  505  0.10377923351E+03 -0.12768159192E+02  0.22919597631E+03  0.25192052468E+03  0.00000000000E+00 0.  1.
         21    1    1    2  504  502 -0.73678828358E+02 -0.26675645526E+02 -0.27157450996E+03  0.28265327572E+03  0.00000000000E+00 0.  1.
         21    1    1    2  505  501  0.13646808156E+02  0.44809428521E+02  0.32286279371E+03  0.32624301344E+03  0.00000000000E+00 0.  1.
         21    1    1    2  506  504 -0.43747213310E+02 -0.53656238027E+01  0.48933858668E+03  0.49131951010E+03  0.00000000000E+00 0.  1.
<scales pt_clust_3="78.70120" pt_clust_4="14000.00000" pt_clust_5="43.24252" pt_clust_6="44.07503"></scales>
<clustering>
<clus scale="   44.075">  1  6  2 -1</clus>
<clus scale="   43.243">  1  5  2 -1</clus>
<clus scale="   78.701">  1  3  2 -1</clus>
<clus scale="   44.075">  1  3  2 -1</clus>
</clustering>
</event>
<event>
 6    0  0.6687079E+002  0.8578620E+02  0.7546771E-02  0.1313389E+00
         21   -1    0    0  505  501  0.00000000000E+00  0.00000000000E+00  0.72703644705E+03  0.72703644705E+03  0.00000000000E+00 0.  1.
         21   -1    0    0  506  502 -0.00000000000E+00 -0.00000000000E+00 -0.12778651905E+03  0.12778651905E+03  0.00000000000E+00 0. -1.
         21    1    1    2  503  502 -0.66363308612E+02  0.62334337407E+02  0.30328825015E+03  0.31665978752E+03  0.00000000000E+00 0.  1.
         21    1    1    2  504  501  0.27392782850E+02  0.45483308529E+02  0.87372836661E+02  0.10224044451E+03  0.00000000000E+00 0.  1.
         21    1    1    2  505  503 -0.20062217139E+02 -0.10452352355E+03  0.30488286528E+03  0.32292603034E+03  0.00000000000E+00 0.  1.
         21    1    1    2  506  504  0.59032742901E+02 -0.32941223883E+01 -0.96294024099E+02  0.11299670373E+03  0.00000000000E+00 0. -1.
<scales pt_clust_3="14000.00000" pt_clust_4="53.09516" pt_clust_5="85.78620" pt_clust_6="59.45562"></scales>
<clustering>
<clus scale="   53.095">  1  4  2 -1</clus>
<clus scale="   59.456">  2  6  1 -1</clus>
<clus scale="   85.786">  1  5  2 -1</clus>
<clus scale="   53.095">  1  3  2 -1</clus>
</clustering>
</event>
<event>
 6    0  0.6687079E+002  0.2097295E+03  0.7546771E-02  0.1141780E+00
         21   -1    0    0  505  501  0.00000000000E+00  0.00000000000E+00  0.47969475503E+03  0.47969475503E+03  0.00000000000E+00 0. -1.
         21   -1    0    0  504  502 -0.00000000000E+00 -0.00000000000E+00 -0.10670150035E+04  0.10670150035E+04  0.00000000000E+00 0.  1.
         21    1    1    2  503  506  0.13238801642E+03  0.86470414828E+02 -0.10497662146E+03  0.18979939564E+03  0.00000000000E+00 0.  1.
         21    1    1    2  504  503  0.87259814885E+01  0.11008477492E+03 -0.19393355401E+03  0.22317039184E+03  0.00000000000E+00 0.  1.
         21    1    1    2  505  502  0.65600610805E+01 -0.32487634955E+02 -0.68182443633E+03  0.68262950625E+03  0.00000000000E+00 0.  1.
         21    1    1    2  506  501 -0.14767405899E+03 -0.16406755479E+03  0.39341436330E+03  0.45111046483E+03  0.00000000000E+00 0. -1.
<scales pt_clust_3="14000.00000" pt_clust_4="93.28871" pt_clust_5="33.14334" pt_clust_6="209.72947"></scales>
<clustering>
<clus scale="   33.143">  2  5  1 -1</clus>
<clus scale="   93.289">  2  4  1 -1</clus>
<clus scale="  209.729">  1  6  2 -1</clus>
<clus scale="  209.729">  1  3  2 -1</clus>
</clustering>
</event>
<event>
 6    0  0.6687079E+002  0.1597988E+03  0.7546771E-02  0.1188924E+00
         21   -1    0    0  506  501  0.00000000000E+00  0.00000000000E+00  0.33553899164E+03  0.33553899164E+03  0.00000000000E+00 0.  1.
         21   -1    0    0  504  502 -0.00000000000E+00 -0.00000000000E+00 -0.34014754113E+04  0.34014754113E+04  0.00000000000E+00 0. -1.
         21    1    1    2  503  502  0.15402545283E+03 -0.42284261963E+02 -0.33092766839E+04  0.33131290300E+04  0.00000000000E+00 0. -1.
         21    1    1    2  504  501 -0.16255997441E+03  0.24115432995E+02  0.94667013173E+01  0.16461141462E+03  0.00000000000E+00 0.  1.
         21    1    1    2  505  503 -0.98865229408E+00  0.63892987886E+02  0.11511849250E+03  0.13166456869E+03  0.00000000000E+00 0.  1.
         21    1    1    2  506  505  0.95231738756E+01 -0.45724158919E+02  0.11875507046E+03  0.12760938958E+03  0.00000000000E+00 0. -1.
<scales pt_clust_3="159.79876" pt_clust_4="14000.00000" pt_clust_5="37.60030" pt_clust_6="46.70535"></scales>
<clustering>
<clus scale="   46.705">  1  6  2 -1</clus>
<clus scale="   37.600">  1  5  2 -1</clus>
<clus scale="  159.799">  2  3  1 -1</clus>
<clus scale="   46.705">  1  3  2 -1</clus>
</clustering>
</event>
<event>
 6    0  0.6687079E+002  0.1190870E+03  0.7546771E-02  0.1244611E+00
         21   -1    0    0  505  501  0.00000000000E+00  0.00000000000E+00  0.36830537391E+02  0.36830537391E+02  0.00000000000E+00 0.  1.
         21   -1    0    0  503  502 -0.00000000000E+00 -0.00000000000E+00 -0.14309436095E+04  0.14309436095E+04  0.00000000000E+00 0. -1.
         21    1    1    2  503  506 -0.85388948008E+01 -0.34775605289E+02 -0.48994843778E+03  0.49125525660E+03  0.00000000000E+00 0. -1.
         21    1    1    2  504  502  0.66802300863E+02  0.81903536454E+02 -0.68899248960E+02  0.12616593515E+03  0.00000000000E+00 0.  1.
         21    1    1    2  505  504  0.31828617469E+02 -0.78169100622E+00 -0.55103819815E+02  0.63640418674E+02  0.00000000000E+00 0.  1.
         21    1    1    2  506  501 -0.90092023531E+02 -0.46346240159E+02 -0.78016156552E+03  0.78671253644E+03  0.00000000000E+00 0. -1.
<scales pt_clust_3="35.67698" pt_clust_4="119.08696" pt_clust_5="31.83821" pt_clust_6="14000.00000"></scales>
<clustering>
<clus scale="   31.838">  1  5  2 -1</clus>
<clus scale="   35.677">  2  3  1 -1</clus>
<clus scale="  119.087">  1  4  2 -1</clus>
<clus scale="   31.838">  1  3  2 -1</clus>
</clustering>
</event>
<event>
 6    0  0.6687079E+002  0.1331762E+03  0.7546771E-02  0.1222817E+00
         21   -1    0    0  504  501  0.00000000000E+00  0.00000000000E+00  0.22639907512E+03  0.22639907512E+03  0.00000000000E+00 0. -1.
         21   -1    0    0  503  502 -0.00000000000E+00 -0.00000000000E+00 -0.19162746673E+03  0.19162746673E+03  0.00000000000E+00 0. -1.
         21    1    1    2  503  506  0.26846054667E+02 -0.36987961883E+02 -0.81348042875E+02  0.93307684866E+02  0.00000000000E+00 0. -1.
         21    1    1    2  504  502 -0.11722368253E+03  0.11164725163E+03  0.84797284269E+01  0.16210615761E+03  0.00000000000E+00 0. -1.
         21    1    1    2  505  501  0.41698524596E+02 -0.51518975583E+02  0.72705944417E+02  0.98382550038E+02  0.00000000000E+00 0. -1.
         21    1    1    2  506  505  0.48679103264E+02 -0.23140314167E+02  0.34933978419E+02  0.64230149326E+02  0.00000000000E+00 0.  1.
<scales pt_clust_3="45.70361" pt_clust_4="128.92437" pt_clust_5="30.10403" pt_clust_6="30.10403"></scales>
<clustering>
<clus scale="   30.104">  5  6 -1 -1</clus>
<clus scale="   45.704">  2  3  1 -1</clus>
<clus scale="  128.924">  2  4  1 -1</clus>
<clus scale="  133.176">  1  3  2 -1</clus>
</clustering>
</event>
<event>
 6    0  0.6687079E+002  0.1386742E+03  0.7546771E-02  0.1215124E+00
         21   -1    0    0  505  501  0.00000000000E+00  0.00000000000E+00  0.35400088900E+03  0.35400088900E+03  0.00000000000E+00 0.  1.
         21   -1    0    0  504  502 -0.00000000000E+00 -0.00000000000E+00 -0.16545876247E+03  0.16545876247E+03  0.00000000000E+00 0. -1.
         21    1    1    2  503  502  0.72648226625E+01 -0.79646876256E+02  0.69547928318E+01  0.80279335380E+02  0.00000000000E+00 0. -1.
         21    1    1    2  504  501 -0.89126970731E+02  0.16879309933E+03 -0.27658489167E+02  0.19287228758E+03  0.00000000000E+00 0.  1.
         21    1    1    2  505  506  0.57111590521E+02 -0.63185619278E+02  0.18304225423E+03  0.20188764967E+03  0.00000000000E+00 0.  1.
         21    1    1    2  506  503  0.24750557547E+02 -0.25960603792E+02  0.26203568636E+02  0.44420378852E+02  0.00000000000E+00 0. -1.
<scales pt_clust_3="79.97751" pt_clust_4="130.36545" pt_clust_5="30.68203" pt_clust_6="30.68203"></scales>
<clustering>
<clus scale="   30.682">  5  6 -1 -1</clus>
<clus scale="   79.978">  2  3  1 -1</clus>
<clus scale="  130.365">  2  4  1 -1</clus>
<clus scale="  138.674">  1  3  2 -1</clus>
</clustering>
</event>
<event>
 6    0  0.6687079E+002  0.7266383E+02  0.7546771E-02  0.1351262E+00
         21   -1    0    0  503  501  0.00000000000E+00  0.00000000000E+00  0.10263787344E+04  0.10263787344E+04  0.00000000000E+00 0.  1.
         21   -1    0    0  506  502 -0.00000000000E+00 -0.00000000000E+00 -0.22796772912E+02  0.22796772912E+02  0.00000000000E+00 0.  1.
         21    1    1    2  503  504 -0.45028689057E+01  0.71246762167E+02  0.46873867002E+03  0.47414377325E+03  0.00000000000E+00 0. -1.
         21    1    1    2  504  502  0.37465719888E+02  0.34494562605E+02  0.16656586097E+03  0.17417732647E+03  0.00000000000E+00 0.  1.
         21    1    1    2  505  501  0.21994488670E+02 -0.73017396582E+02  0.28952502393E+03  0.29939946095E+03  0.00000000000E+00 0.  1.
         21    1    1    2  506  505 -0.54957339652E+02 -0.32723928190E+02  0.78752406614E+02  0.10145494668E+03  0.00000000000E+00 0.  1.
<scales pt_clust_3="72.66383" pt_clust_4="50.92696" pt_clust_5="14000.00000" pt_clust_6="34.74091"></scales>
<clustering>
<clus scale="   50.927">  2  4  1 -1</clus>
<clus scale="   34.741">  2  6  1 -1</clus>
<clus scale="   72.664">  1  3  2 -1</clus>
<clus scale="   72.664">  1  3  2 -1</clus>
</clustering>
</event>
<event>
 6    0  0.6687079E+002  0.8245096E+02  0.7546771E-02  0.1322236E+00
         21   -1    0    0  503  501  0.00000000000E+00  0.00000000000E+00  0.85997096391E+02  0.85997096391E+02  0.00000000000E+00 0. -1.
         21   -1    0    0  505  502 -0.00000000000E+00 -0.00000000000E+00 -0.33264432765E+03  0.33264432765E+03  0.00000000000E+00 0. -1.
         21    1    1    2  503  506 -0.14929635138E+02  0.62058156010E+02 -0.16801571763E+01  0.63850854817E+02  0.00000000000E+00 0. -1.
         21    1    1    2  504  502  0.51871538834E+02 -0.60717380752E+02 -0.15178401514E+03  0.17150989510E+03  0.00000000000E+00 0. -1.
         21    1    1    2  505  501 -0.73493469135E+02  0.51869907709E+02 -0.72373093851E+02  0.11545406898E+03  0.00000000000E+00 0. -1.
         21    1    1    2  506  504  0.36551565439E+02 -0.53210682968E+02 -0.20809965098E+02  0.67826605144E+02  0.00000000000E+00 0.  1.
<scales pt_clust_3="63.82875" pt_clust_4="82.45096" pt_clust_5="14000.00000" pt_clust_6="40.24266"></scales>
<clustering>
<clus scale="   63.829">  1  3  2 -1</clus>
<clus scale="   40.243">  1  6  2 -1</clus>
<clus scale="   82.451">  2  4  1 -1</clus>
<clus scale="   63.829">  1  3  2 -1</clus>
</clustering>
</event>
<event>
 6    0  0.6687079E+002  0.1597872E+03  0.7546771E-02  0.1188937E+00
         21   -1    0    0  506  501  0.00000000000E+00  0.00000000000E+00  0.10902756983E+04  0.10902756983E+04  0.00000000000E+00 0. -1.
         21   -1    0    0  504  502 -0.00000000000E+00 -0.00000000000E+00 -0.86719209638E+03  0.86719209638E+03  0.00000000000E+00 0.  1.
         21    1    1    2  503  502 -0.19497518983E+02 -0.57176573187E+02 -0.55623188543E+03  0.55950265785E+03  0.00000000000E+00 0.  1.
         21    1    1    2  504  501 -0.65159800921E+02 -0.23859772229E+02 -0.94001976674E+02  0.11683946254E+03  0.00000000000E+00 0. -1.
         21    1    1    2  505  503 -0.69145237769E+01 -0.44174383958E+02 -0.19578614816E+03  0.20082679764E+03  0.00000000000E+00 0.  1.
         21    1    1    2  506  505  0.91571843681E+02  0.12521072937E+03  0.10691036122E+04  0.10802988767E+04  0.00000000000E+00 0. -1.
<scales pt_clust_3="34.41441" pt_clust_4="69.39084" pt_clust_5="34.41441" pt_clust_6="154.69904"></scales>
<clustering>
<clus scale="   34.414">  3  5 -1 -1</clus>
<clus scale="   69.391">  2  4  1 -1</clus>
<clus scale="  154.699">  1  6  2 -1</clus>
<clus scale="  154.699">  1  3  2 -1</clus>
</clustering>
</event>
<event>
 6    0  0.6687079E+002  0.1265109E+03  0.7546771E-02  0.1232727E+00
         21   -1    0    0  506  501  0.00000000000E+00  0.00000000000E+00  0.94452304191E+03  0.94452304191E+03  0.00000000000E+00 0. -1.
         21   -1    0    0  505  502 -0.00000000000E+00 -0.00000000000E+00 -0.10525630545E+03  0.10525630545E+03  0.00000000000E+00 0. -1.
         21    1    1    2  503  502  0.45775617052E+02  0.10405050344E+02 -0.53938896811E+02  0.71505781433E+02  0.00000000000E+00 0. -1.
         21    1    1    2  504  503 -0.97871517544E+01 -0.75422147659E+02  0.74008854452E+02  0.10612068241E+03  0.00000000000E+00 0. -1.
         21    1    1    2  505  501  0.66498393566E+02 -0.37090266016E+02  0.53869065898E+02  0.93271648644E+02  0.00000000000E+00 0. -1.
         21    1    1    2  506  504 -0.10248685886E+03  0.10210736333E+03  0.76532771292E+03  0.77888123488E+03  0.00000000000E+00 0. -1.
<scales pt_clust_3="46.94329" pt_clust_4="71.88592" pt_clust_5="126.51094" pt_clust_6="14000.00000"></scales>
<clustering>
<clus scale="   46.943">  2  3  1 -1</clus>
<clus scale="   71.886">  2  4  1 -1</clus>
<clus scale="  126.511">  2  5  1 -1</clus>
<clus scale="  126.511">  1  3  2 -1</clus>
</clustering>
</event>
<event>
 6    0  0.6687079E+002  0.1543055E+03  0.7546771E-02  0.1195280E+00
         21   -1    0    0  505  501  0.00000000000E+00  0.00000000000E+00  0.11270586171E+03  0.11270586171E+03  0.00000000000E+00 0. -1.
         21   -1    0    0  503  502 -0.00000000000E+00 -0.00000000000E+00 -0.82317218067E+03  0.82317218067E+03  0.00000000000E+00 0. -1.
         21    1    1    2  503  506 -0.38831010779E+02  0.49961744071E+02 -0.11617876329E+03  0.13229334189E+03  0.00000000000E+00 0.  1.
         21    1    1    2  504  502 -0.75312792022E+02 -0.16753582719E+03 -0.51702129013E+03  0.54868140527E+03  0.00000000000E+00 0. -1.
         21    1    1    2  505  504  0.48999025918E+02  0.12246949487E+03 -0.11877543678E+03  0.17750291856E+03  0.00000000000E+00 0. -1.
         21    1    1    2  506  501  0.65144776884E+02 -0.48954117437E+01  0.41509171247E+02  0.77400376672E+02  0.00000000000E+00 0.  1.
<scales pt_clust_3="63.27735" pt_clust_4="154.30547" pt_clust_5="14000.00000" pt_clust_6="64.24941"></scales>
<clustering>
<clus scale="   63.277">  2  3  1 -1</clus>
<clus scale="   64.249">  1  6  2 -1</clus>
<clus scale="  154.305">  2  4  1 -1</clus>
<clus scale="   64.249">  1  3  2 -1</clus>
</clustering>
</event>
<event>
 6    0  0.6687079E+002  0.1871249E+03  0.7546771E-02  0.1161080E+00
         21   -1    0    0  506  501  0.00000000000E+00  0.00000000000E+00  0.12839452766E+04  0.12839452766E+04  0.00000000000E+00 0.  1.
         21   -1    0    0  505  502 -0.00000000000E+00 -0.00000000000E+00 -0.11928458360E+03  0.11928458360E+03  0.00000000000E+00 0.  1.
         21    1    1    2  503  502  0.55126365306E+02 -0.60529966784E+02  0.45199984175E+03  0.45935460156E+03  0.00000000000E+00 0.  1.
         21    1    1    2  504  501 -0.54788845956E+02  0.13771463634E+03  0.15390390815E+03  0.21366691753E+03  0.00000000000E+00 0. -1.
         21    1    1    2  505  504 -0.12135137365E+02  0.35453332741E+02 -0.76367211024E+02  0.85065570478E+02  0.00000000000E+00 0.  1.
         21    1    1    2  506  503  0.11797618015E+02 -0.11263800229E+03  0.63512415411E+03  0.64514277062E+03  0.00000000000E+00 0.  1.
<scales pt_clust_3="51.13596" pt_clust_4="177.21690" pt_clust_5="37.47266" pt_clust_6="51.13596"></scales>
<clustering>
<clus scale="   37.473">  2  5  1 -1</clus>
<clus scale="   51.136">  3  6 -1 -1</clus>
<clus scale="  177.217">  2  4  1 -1</clus>
<clus scale="  187.125">  1  3  2 -1</clus>
</clustering>
</event>
<event>
 6    0  0.6687079E+002  0.9135004E+02  0.7546771E-02  0.1299615E+00
         21   -1    0    0  506  501  0.00000000000E+00  0.00000000000E+00  0.10116853610E+04  0.10116853610E+04  0.00000000000E+00 0.  1.
         21   -1    0    0  504  502 -0.00000000000E+00 -0.00000000000E+00 -0.31969088634E+03  0.31969088634E+03  0.00000000000E+00 0.  1.
         21    1    1    2  503  501  0.49947395878E+02 -0.39954220090E+00  0.40590950190E+02  0.64362467528E+02  0.00000000000E+00 0.  1.
         21    1    1    2  504  505  0.61043460452E+02 -0.69712297781E+02 -0.28148903787E+03  0.29634808413E+03  0.00000000000E+00 0.  1.
         21    1    1    2  505  503 -0.90437102197E+02  0.13167734026E+02  0.99594793557E+02  0.13517167446E+03  0.00000000000E+00 0.  1.
         21    1    1    2  506  502 -0.20553754133E+02  0.56944105956E+02  0.83329776880E+03  0.83549402122E+03  0.00000000000E+00 0.  1.
<scales pt_clust_3="49.94899" pt_clust_4="91.35004" pt_clust_5="14000.00000" pt_clust_6="61.05183"></scales>
<clustering>
<clus scale="   49.949">  1  3  2 -1</clus>
<clus scale="   61.052">  1  6  2 -1</clus>
<clus scale="   91.350">  2  4  1 -1</clus>
<clus scale="   49.949">  1  3  2 -1</clus>
</clustering>
</event>
<event>
 6    0  0.6687079E+002  0.8343425E+02  0.7546771E-02  0.1319579E+00
         21   -1    0    0  504  501  0.00000000000E+00  0.00000000000E+00  0.34217288373E+03  0.34217288373E+03  0.00000000000E+00 0. -1.
         21   -1    0    0  503  502 -0.00000000000E+00 -0.00000000000E+00 -0.78543708310E+02  0.78543708310E+02  0.00000000000E+00 0. -1.
         21    1    1    2  503  505 -0.45529003457E+02  0.72236937322E+01 -0.22000578269E+02  0.51079324105E+02  0.00000000000E+00 0. -1.
         21    1    1    2  504  506 -0.87636491962E+01 -0.31430567039E+02  0.55279379234E+02  0.64191057478E+02  0.00000000000E+00 0. -1.
         21    1    1    2  505  501  0.83962399215E+02  0.79128718373E+02  0.21032206415E+03  0.23988832656E+03  0.00000000000E+00 0. -1.
         21    1    1    2  506  502 -0.29669746562E+02 -0.54921845066E+02  0.20028310301E+02  0.65557883889E+02  0.00000000000E+00 0. -1.
<scales pt_clust_3="46.32059" pt_clust_4="32.62947" pt_clust_5="83.43425" pt_clust_6="14000.00000"></scales>
<clustering>
<clus scale="   32.629">  1  4  2 -1</clus>
<clus scale="   46.321">  2  3  1 -1</clus>
<clus scale="   83.434">  1  5  2 -1</clus>
<clus scale="   32.629">  1  3  2 -1</clus>
</clustering>
</event>
<event>
 6    0  0.6687079E+002  0.1188442E+03  0.7546771E-02  0.1245016E+00
         21   -1    0    0  503  501  0.00000000000E+00  0.00000000000E+00  0.20671209078E+02  0.20671209078E+02  0.00000000000E+00 0. -1.
         21   -1    0    0  501  502 -0.00000000000E+00 -0.00000000000E+00 -0.11128204395E+04  0.11128204395E+04  0.00000000000E+00 0. -1.
         21    1    1    2  503  504 -0.93449183309E+02 -0.49717009188E+02 -0.22168308622E+03  0.24565813966E+03  0.00000000000E+00 0. -1.
         21    1    1    2  504  506  0.35099017855E+02  0.24280741526E+02 -0.11857469206E+03  0.12602163727E+03  0.00000000000E+00 0. -1.
         21    1    1    2  505  502  0.24186415396E+02 -0.41103651010E+02 -0.28193942356E+03  0.28594462991E+03  0.00000000000E+00 0. -1.
         21    1    1    2  506  505  0.34163750059E+02  0.66539918672E+02 -0.46995202859E+03  0.47586724175E+03  0.00000000000E+00 0. -1.
<scales pt_clust_3="106.12795" pt_clust_4="40.40229" pt_clust_5="47.69164" pt_clust_6="40.40229"></scales>
<clustering>
<clus scale="   40.402">  4  6 -1 -1</clus>
<clus scale="   47.692">  2  5  1 -1</clus>
<clus scale="  106.128">  1  3  2 -1</clus>
<clus scale="  106.128">  1  3  2 -1</clus>
</clustering>
</event>
<event>
 6    0  0.6687079E+002  0.1516038E+03  0.7546771E-02  0.1198516E+00
         21   -1    0    0  506  501  0.00000000000E+00  0.00000000000E+00  0.50174064703E+03  0.50174064703E+03  0.00000000000E+00 0.  1.
         21   -1    0    0  503  502 -0.00000000000E+00 -0.00000000000E+00 -0.21430475133E+03  0.21430475133E+03  0.00000000000E+00 0. -1.
         21    1    1    2  503  501 -0.20671680294E+01 -0.97107100982E+02  0.77291235783E+02  0.12412895461E+03  0.00000000000E+00 0.  1.
         21    1    1    2  504  505 -0.48307203123E+02  0.72735685074E+02  0.11079599297E+03  0.14106671405E+03  0.00000000000E+00 0.  1.
         21    1    1    2  505  502  0.13294298526E+03 -0.35938922261E+02 -0.13643162366E+03  0.19385311810E+03  0.00000000000E+00 0. -1.
         21    1    1    2  506  504 -0.82568614108E+02  0.60310338169E+02  0.23578029061E+03  0.25699661159E+03  0.00000000000E+00 0.  1.
<scales pt_clust_3="97.12910" pt_clust_4="54.74486" pt_clust_5="139.54982" pt_clust_6="54.74486"></scales>
<clustering>
<clus scale="   54.745">  4  6 -1 -1</clus>
<clus scale="   97.129">  1  3  2 -1</clus>
<clus scale="  139.550">  2  5  1 -1</clus>
<clus scale="   97.129">  1  3  2 -1</clus>
</clustering>
</event>
<event>
 6    0  0.6687079E+002  0.7553186E+02  0.7546771E-02  0.1342232E+00
         21   -1    0    0  503  501  0.00000000000E+00  0.00000000000E+00  0.83234131378E+03  0.83234131378E+03  0.00000000000E+00 0.  1.
         21   -1    0    0  504  502 -0.00000000000E+00 -0.00000000000E+00 -0.50971396647E+02  0.50971396647E+02  0.00000000000E+00 0.  1.
         21    1    1    2  503  505 -0.54082176736E+02  0.48214522447E+02  0.59840014291E+03  0.60277048124E+03  0.00000000000E+00 0.  1.
         21    1    1    2  504  506  0.20473393350E+02  0.30147742550E+02  0.52034969522E+02  0.63527035735E+02  0.00000000000E+00 0.  1.
         21    1    1    2  505  502  0.89578852847E+02 -0.75247364887E+02  0.86995539152E+02  0.14579012529E+03  0.00000000000E+00 0.  1.
         21    1    1    2  506  501 -0.55970069461E+02 -0.31149001096E+01  0.43939265548E+02  0.71225068164E+02  0.00000000000E+00 0. -1.
<scales pt_clust_3="75.53186" pt_clust_4="36.44237" pt_clust_5="14000.00000" pt_clust_6="50.15172"></scales>
<clustering>
<clus scale="   36.442">  2  4  1 -1</clus>
<clus scale="   50.152">  2  6  1 -1</clus>
<clus scale="   75.532">  1  3  2 -1</clus>
<clus scale="   75.532">  1  3  2 -1</clus>
</clustering>
</event>
<event>
 6    0  0.6687079E+002  0.8172927E+02  0.7546771E-02  0.1324214E+00
         21   -1    0    0  505  501  0.00000000000E+00  0.00000000000E+00  0.49241515566E+03  0.49241515566E+03  0.00000000000E+00 0. -1.
         21   -1    0    0  506  502 -0.00000000000E+00 -0.00000000000E+00 -0.54741108661E+02  0.54741108661E+02  0.00000000000E+00 0.  1.
         21    1    1    2  503  501  0.49860315890E+02  0.60092687502E+02  0.12122909537E+03  0.14420012398E+03  0.00000000000E+00 0. -1.
         21    1    1    2  504  502 -0.37781392654E+02 -0.78189496057E+02  0.13800395534E+03  0.16305251490E+03  0.00000000000E+00 0. -1.
         21    1    1    2  505  504  0.54623647628E+02 -0.34816031768E+02  0.12084550652E+03  0.13711139775E+03  0.00000000000E+00 0. -1.
         21    1    1    2  506  503 -0.66702570864E+02  0.52912840323E+02  0.57595489763E+02  0.10279222768E+03  0.00000000000E+00 0.  1.
<scales pt_clust_3="14000.00000" pt_clust_4="81.72927" pt_clust_5="64.77576" pt_clust_6="70.93929"></scales>
<clustering>
<clus scale="   64.776">  1  5  2 -1</clus>
<clus scale="   70.939">  2  6  1 -1</clus>
<clus scale="   81.729">  2  4  1 -1</clus>
<clus scale="   64.776">  1  3  2 -1</clus>
</clustering>
</event>
<event>
 6    0  0.6687079E+002  0.8457308E+02  0.7546771E-02  0.1316553E+00
         21   -1    0    0  506  501  0.00000000000E+00  0.00000000000E+00  0.77556392003E+02  0.77556392003E+02  0.00000000000E+00 0.  1.
         21   -1    0    0  503  502 -0.00000000000E+00 -0.00000000000E+00 -0.25249797990E+04  0.25249797990E+04  0.00000000000E+00 0.  1.
         21    1    1    2  503  504  0.71470376829E+02  0.44974574366E+02 -0.22331011113E+04  0.22346971384E+04  0.00000000000E+00 0.  1.
         21    1    1    2  504  501  0.23516160607E+01 -0.48952154782E+02 -0.69303080779E+02  0.84880860984E+02  0.00000000000E+00 0.  1.
         21    1    1    2  505  502 -0.12169101206E+03  0.32116450293E+02 -0.17828197526E+03  0.21823068414E+03  0.00000000000E+00 0.  1.
         21    1    1    2  506  505  0.47869019173E+02 -0.28138869877E+02  0.33262760364E+02  0.64727507456E+02  0.00000000000E+00 0.  1.
<scales pt_clust_3="84.57308" pt_clust_4="49.00861" pt_clust_5="14000.00000" pt_clust_6="79.75304"></scales>
<clustering>
<clus scale="   49.009">  1  4  2 -1</clus>
<clus scale="   79.753">  1  6  2 -1</clus>
<clus scale="   84.573">  2  3  1 -1</clus>
<clus scale="   49.009">  1  3  2 -1</clus>
</clustering>
</event>
<event>
 6    0  0.6687079E+002  0.1513306E+03  0.7546771E-02  0.1198847E+00
         21   -1    0    0  503  501  0.00000000000E+00  0.00000000000E+00  0.30149066880E+03  0.30149066880E+03  0.00000000000E+00 0. -1.
         21   -1    0    0  504  502 -0.00000000000E+00 -0.00000000000E+00 -0.78187142141E+03  0.78187142141E+03  0.00000000000E+00 0.  1.
         21    1    1    2  503  506  0.54822415172E+02  0.54678854749E+02  0.15677497482E+03  0.17485327304E+03  0.00000000000E+00 0. -1.
         21    1    1    2  504  505 -0.85777422345E+02  0.11664920206E+02 -0.66279870166E+03  0.66842797329E+03  0.00000000000E+00 0.  1.
         21    1    1    2  505  501  0.27563044341E+02 -0.13653104330E+03 -0.38955773725E+02  0.14463056214E+03  0.00000000000E+00 0. -1.
         21    1    1    2  506  502  0.33919628314E+01  0.70187268342E+02  0.64598747955E+02  0.95450281752E+02  0.00000000000E+00 0. -1.
<scales pt_clust_3="67.88024" pt_clust_4="86.56695" pt_clust_5="133.50551" pt_clust_6="67.88024"></scales>
<clustering>
<clus scale="   67.880">  3  6 -1 -1</clus>
<clus scale="   86.567">  2  4  1 -1</clus>
<clus scale="  133.506">  2  5  1 -1</clus>
<clus scale="  151.331">  1  3  2 -1</clus>
</clustering>
</event>
<event>
 6    0  0.6687079E+002  0.1277015E+03  0.7546771E-02  0.1230907E+00
         21   -1    0    0  504  501  0.00000000000E+00  0.00000000000E+00  0.47154761067E+03  0.47154761067E+03  0.00000000000E+00 0.  1.
         21   -1    0    0  506  502 -0.00000000000E+00 -0.00000000000E+00 -0.10295934488E+03  0.10295934488E+03  0.00000000000E+00 0.  1.
         21    1    1    2  503  505 -0.62444707254E+02  0.38138287940E+01 -0.30691097718E+02  0.69683787449E+02  0.00000000000E+00 0. -1.
         21    1    1    2  504  502 -0.70617053071E+00  0.31124986566E+02  0.20208360040E+03  0.20446771142E+03  0.00000000000E+00 0. -1.
         21    1    1    2  505  501  0.11315289205E+03  0.61183886007E+01  0.20595055186E+03  0.23506731263E+03  0.00000000000E+00 0.  1.
         21    1    1    2  506  503 -0.50002014265E+02 -0.41057203961E+02 -0.87547887434E+01  0.65288144051E+02  0.00000000000E+00 0.  1.
<scales pt_clust_3="51.25900" pt_clust_4="31.13300" pt_clust_5="116.95113" pt_clust_6="51.25900"></scales>
<clustering>
<clus scale="   31.133">  1  4  2 -1</clus>
<clus scale="   51.259">  3  6 -1 -1</clus>
<clus scale="  116.951">  1  5  2 -1</clus>
<clus scale="   31.133">  1  3  2 -1</clus>
</clustering>
</event>
<event>
 6    0  0.6687079E+002  0.3012331E+03  0.7546771E-02  0.1084626E+00
         21   -1    0    0  506  501  0.00000000000E+00  0.00000000000E+00  0.77333364185E+03  0.77333364185E+03  0.00000000000E+00 0.  1.
         21   -1    0    0  505  502 -0.00000000000E+00 -0.00000000000E+00 -0.48867662434E+03  0.48867662434E+03  0.00000000000E+00 0.  1.
         21    1    1    2  503  502  0.42262866874E+02 -0.14550982158E+03  0.15991939939E+03  0.22030313751E+03  0.00000000000E+00 0.  1.
         21    1    1    2  504  503 -0.17508429924E+03 -0.25035233059E+03  0.19484977115E+03  0.36234960272E+03  0.00000000000E+00 0.  1.
         21    1    1    2  505  501  0.94704492275E+02  0.19110497160E+03 -0.30068295701E+03  0.36864656741E+03  0.00000000000E+00 0.  1.
         21    1    1    2  506  504  0.38116940091E+02  0.20475718057E+03  0.23057080398E+03  0.31071095855E+03  0.00000000000E+00 0. -1.
<scales pt_clust_3="139.56918" pt_clust_4="139.56918" pt_clust_5="226.86269" pt_clust_6="208.27483"></scales>
<clustering>
<clus scale="  139.569">  3  4 -1 -1</clus>
<clus scale="  208.275">  1  6  2 -1</clus>
<clus scale="  226.863">  2  5  1 -1</clus>
<clus scale="  208.275">  1  3  2 -1</clus>
</clustering>
</event>
<event>
 6    0  0.6687079E+002  0.1937471E+03  0.7546771E-02  0.1155124E+00
         21   -1    0    0  505  501  0.00000000000E+00  0.00000000000E+00  0.17886774966E+03  0.17886774966E+03  0.00000000000E+00 0. -1.
         21   -1    0    0  503  502 -0.00000000000E+00 -0.00000000000E+00 -0.83193720896E+03  0.83193720896E+03  0.00000000000E+00 0. -1.
         21    1    1    2  503  501  0.10346387003E+03 -0.12684175537E+03 -0.28724346997E+03  0.33060915648E+03  0.00000000000E+00 0. -1.
         21    1    1    2  504  506 -0.15454786164E+02  0.13075113610E+03 -0.21342350482E+03  0.25076742694E+03  0.00000000000E+00 0. -1.
         21    1    1    2  505  504 -0.65875307392E+02 -0.70431364012E+02  0.11667305142E+03  0.15136952827E+03  0.00000000000E+00 0. -1.
         21    1    1    2  506  502 -0.22133776477E+02  0.66521983282E+02 -0.26907553593E+03  0.27805884693E+03  0.00000000000E+00 0. -1.
<scales pt_clust_3="176.11253" pt_clust_4="58.93245" pt_clust_5="96.43720" pt_clust_6="58.93245"></scales>
<clustering>
<clus scale="   58.932">  4  6 -1 -1</clus>
<clus scale="   96.437">  1  5  2 -1</clus>
<clus scale="  176.113">  1  3  2 -1</clus>
<clus scale="   96.437">  1  3  2 -1</clus>
</clustering>
</event>
<event>
 6    0  0.6687079E+002  0.1515456E+03  0.7546771E-02  0.1198586E+00
         21   -1    0    0  504  501  0.00000000000E+00  0.00000000000E+00  0.38531083868E+03  0.38531083868E+03  0.00000000000E+00 0.  1.
         21   -1    0    0  505  502 -0.00000000000E+00 -0.00000000000E+00 -0.12754588460E+03  0.12754588460E+03  0.00000000000E+00 0.  1.
         21    1    1    2  503  502 -0.14782905033E+03  0.43346235726E+02 -0.42144969146E+02  0.15971387760E+03  0.00000000000E+00 0.  1.
         21    1    1    2  504  506  0.41273913025E+02 -0.12389346339E+02  0.12692579134E+03  0.13404174091E+03  0.00000000000E+00 0.  1.
         21    1    1    2  505  501  0.57990785033E+02  0.21449242933E+02  0.65858193832E+02  0.90334394701E+02  0.00000000000E+00 0.  1.
         21    1    1    2  506  503  0.48564352276E+02 -0.52406132320E+02  0.10712593806E+03  0.12876671007E+03  0.00000000000E+00 0.  1.
<scales pt_clust_3="144.73210" pt_clust_4="34.89347" pt_clust_5="61.83042" pt_clust_6="34.89347"></scales>
<clustering>
<clus scale="   34.893">  4  6 -1 -1</clus>
<clus scale="   61.830">  1  5  2 -1</clus>
<clus scale="  144.732">  2  3  1 -1</clus>
<clus scale="   61.830">  1  3  2 -1</clus>
</clustering>
</event>
<event>
 6    0  0.6687079E+002  0.1412682E+03  0.7546771E-02  0.1211633E+00
         21   -1    0    0  502  501  0.00000000000E+00  0.00000000000E+00  0.66117695005E+03  0.66117695005E+03  0.00000000000E+00 0.  1.
         21   -1    0    0  503  502 -0.00000000000E+00 -0.00000000000E+00 -0.19249842783E+03  0.19249842783E+03  0.00000000000E+00 0.  1.
         21    1    1    2  503  504  0.83250382062E+02 -0.96592206074E+02 -0.14963951877E+03  0.19660281271E+03  0.00000000000E+00 0.  1.
         21    1    1    2  504  506 -0.78892671252E+02  0.10696039014E+02  0.15213702044E+03  0.17170944009E+03  0.00000000000E+00 0.  1.
         21    1    1    2  505  501  0.39491590710E+02  0.27496256890E+02  0.30011732131E+03  0.30395071381E+03  0.00000000000E+00 0.  1.
         21    1    1    2  506  505 -0.43849301520E+02  0.58399910169E+02  0.16606369925E+03  0.18141241126E+03  0.00000000000E+00 0.  1.
<scales pt_clust_3="127.87960" pt_clust_4="55.70062" pt_clust_5="48.12099" pt_clust_6="55.70062"></scales>
<clustering>
<clus scale="   48.121">  1  5  2 -1</clus>
<clus scale="   55.701">  4  6 -1 -1</clus>
<clus scale="  127.880">  2  3  1 -1</clus>
<clus scale="   48.121">  1  3  2 -1</clus>
</clustering>
</event>
<event>
 6    0  0.6687079E+002  0.1435184E+03  0.7546771E-02  0.1208672E+00
         21   -1    0    0  503  501  0.00000000000E+00  0.00000000000E+00  0.30566339337E+04  0.30566339337E+04  0.00000000000E+00 0.  1.
         21   -1    0    0  505  502 -0.00000000000E+00 -0.00000000000E+00 -0.30654117972E+04  0.30654117972E+04  0.00000000000E+00 0.  1.
         21    1    1    2  503  502 -0.57195211049E+02  0.53161937203E+02  0.21039130049E+03  0.22441475677E+03  0.00000000000E+00 0. -1.
         21    1    1    2  504  501 -0.46449857069E+02  0.16062499852E+02  0.26179050495E+04  0.26183663688E+04  0.00000000000E+00 0.  1.
         21    1    1    2  505  506  0.14310789845E+03  0.18066966828E+02 -0.30460051000E+04  0.30494185274E+04  0.00000000000E+00 0.  1.
         21    1    1    2  506  504 -0.39462830330E+02 -0.87291403883E+02  0.20893088656E+03  0.22984607791E+03  0.00000000000E+00 0. -1.
<scales pt_clust_3="100.85791" pt_clust_4="49.14868" pt_clust_5="143.51838" pt_clust_6="14000.00000"></scales>
<clustering>
<clus scale="   49.149">  1  4  2 -1</clus>
<clus scale="  100.858">  1  3  2 -1</clus>
<clus scale="  143.518">  2  5  1 -1</clus>
<clus scale="   49.149">  1  3  2 -1</clus>
</clustering>
</event>
<event>
 6    0  0.6687079E+002  0.9593200E+02  0.7546771E-02  0.1289091E+00
         21   -1    0    0  506  501  0.00000000000E+00  0.00000000000E+00  0.12256572643E+04  0.12256572643E+04  0.00000000000E+00 0. -1.
         21   -1    0    0  503  502 -0.00000000000E+00 -0.00000000000E+00 -0.12710569725E+04  0.12710569725E+04  0.00000000000E+00 0. -1.
         21    1    1    2  503  505 -0.15715571528E+02 -0.26502807722E+02 -0.30599626446E+03  0.30754364222E+03  0.00000000000E+00 0.  1.
         21    1    1    2  504  502  0.15690241596E+03  0.31028444203E+02 -0.91479035266E+03  0.92866706725E+03  0.00000000000E+00 0. -1.
         21    1    1    2  505  501 -0.45382286215E+02 -0.51246960050E+01 -0.27827594025E+02  0.53480738593E+02  0.00000000000E+00 0.  1.
         21    1    1    2  506  504 -0.95804558216E+02  0.59905952414E+00  0.12032145030E+04  0.12070227887E+04  0.00000000000E+00 0. -1.
<scales pt_clust_3="30.81198" pt_clust_4="14000.00000" pt_clust_5="46.46603" pt_clust_6="95.93200"></scales>
<clustering>
<clus scale="   30.812">  2  3  1 -1</clus>
<clus scale="   46.466">  2  5  1 -1</clus>
<clus scale="   95.932">  1  6  2 -1</clus>
<clus scale="   95.932">  1  3  2 -1</clus>
</clustering>
</event>
<event>
 6    0  0.6687079E+002  0.1249313E+03  0.7546771E-02  0.1235177E+00
         21   -1    0    0  503  501  0.00000000000E+00  0.00000000000E+00  0.13235144122E+03  0.13235144122E+03  0.00000000000E+00 0. -1.
         21   -1    0    0  504  502 -0.00000000000E+00 -0.00000000000E+00 -0.65721687585E+03  0.65721687585E+03  0.00000000000E+00 0. -1.
         21    1    1    2  503  506 -0.96927249436E+02  0.15993554484E+03 -0.20056965143E+03  0.27423066069E+03  0.00000000000E+00 0. -1.
         21    1    1    2  504  505  0.40567830737E+02  0.71265265270E+01 -0.57535006257E+02  0.70758838431E+02  0.00000000000E+00 0. -1.
         21    1    1    2  505  501  0.70659284169E+02 -0.56837349638E+02  0.53700436442E+02  0.10538954230E+03  0.00000000000E+00 0. -1.
         21    1    1    2  506  502 -0.14299865470E+02 -0.11022472173E+03 -0.32046121338E+03  0.33918927565E+03  0.00000000000E+00 0. -1.
<scales pt_clust_3="124.93129" pt_clust_4="41.18903" pt_clust_5="91.87474" pt_clust_6="14000.00000"></scales>
<clustering>
<clus scale="   41.189">  2  4  1 -1</clus>
<clus scale="   91.875">  1  5  2 -1</clus>
<clus scale="  124.931">  1  3  2 -1</clus>
<clus scale="   91.875">  1  3  2 -1</clus>
</clustering>
</event>
<event>
 6    0  0.6687079E+002  0.2451185E+03  0.7546771E-02  0.1116429E+00
         21   -1    0    0  505  501  0.00000000000E+00  0.00000000000E+00  0.21596795057E+03  0.21596795057E+03  0.00000000000E+00 0. -1.
         21   -1    0    0  506  502 -0.00000000000E+00 -0.00000000000E+00 -0.93417111848E+03  0.93417111848E+03  0.00000000000E+00 0. -1.
         21    1    1    2  503  502  0.10540954940E+03 -0.19908894252E+03 -0.65016015830E+03  0.68808125362E+03  0.00000000000E+00 0. -1.
         21    1    1    2  504  503 -0.45958365968E+01  0.90143463972E+02 -0.11243832554E+03  0.14418509930E+03  0.00000000000E+00 0. -1.
         21    1    1    2  505  504 -0.73242349859E+02  0.14602119456E+03 -0.82368281323E+02  0.18295126357E+03  0.00000000000E+00 0. -1.
         21    1    1    2  506  501 -0.27571362940E+02 -0.37075716008E+02  0.12676359725E+03  0.13492145256E+03  0.00000000000E+00 0. -1.
<scales pt_clust_3="229.88479" pt_clust_4="62.94565" pt_clust_5="62.94565" pt_clust_6="46.20377"></scales>
<clustering>
<clus scale="   46.204">  1  6  2 -1</clus>
<clus scale="   62.946">  4  5 -1 -1</clus>
<clus scale="  229.885">  2  3  1 -1</clus>
<clus scale="   46.204">  1  3  2 -1</clus>
</clustering>
</event>
<event>
 6    0  0.6687079E+002  0.8349277E+02  0.7546771E-02  0.1319422E+00
         21   -1    0    0  505  501  0.00000000000E+00  0.00000000000E+00  0.14552321018E+04  0.14552321018E+04  0.00000000000E+00 0. -1.
         21   -1    0    0  503  502 -0.00000000000E+00 -0.00000000000E+00 -0.90768013037E+02  0.90768013037E+02  0.00000000000E+00 0. -1.
         21    1    1    2  503  506 -0.44272525497E+02 -0.60006286818E+02 -0.21116463084E+02  0.77503006295E+02  0.00000000000E+00 0. -1.
         21    1    1    2  504  502 -0.21125020397E+02  0.29998515561E+02  0.22118135895E+02  0.42841444398E+02  0.00000000000E+00 0. -1.
         21    1    1    2  505  504 -0.51719032134E+02  0.52380821375E+01  0.12768328324E+04  0.12778905969E+04  0.00000000000E+00 0. -1.
         21    1    1    2  506  501  0.11711657803E+03  0.24769689120E+02  0.86629583567E+02  0.14776506724E+03  0.00000000000E+00 0. -1.
<scales pt_clust_3="14000.00000" pt_clust_4="36.69029" pt_clust_5="52.14206" pt_clust_6="83.49277"></scales>
<clustering>
<clus scale="   36.690">  2  4  1 -1</clus>
<clus scale="   52.142">  1  5  2 -1</clus>
<clus scale="   83.493">  1  6  2 -1</clus>
<clus scale="   52.142">  1  3  2 -1</clus>
</clustering>
</event>
<event>
 6    0  0.6687079E+002  0.1148503E+03  0.7546771E-02  0.1251843E+00
         21   -1    0    0  503  501  0.00000000000E+00  0.00000000000E+00  0.32783669346E+02  0.32783669346E+02  0.00000000000E+00 0. -1.
         21   -1    0    0  506  502 -0.00000000000E+00 -0.00000000000E+00 -0.81087578492E+03  0.81087578492E+03  0.00000000000E+00 0. -1.
         21    1    1    2  503  502 -0.79276184133E+02 -0.19992091445E+02 -0.18988064956E+03  0.20673426946E+03  0.00000000000E+00 0. -1.
         21    1    1    2  504  501  0.20688620351E+02  0.68685769138E+02 -0.18692490535E+03  0.20021656808E+03  0.00000000000E+00 0. -1.
         21    1    1    2  505  504  0.39766100214E+02  0.53409999669E+02 -0.12636761412E+03  0.14283817658E+03  0.00000000000E+00 0. -1.
         21    1    1    2  506  505  0.18821463568E+02 -0.10210367736E+03 -0.27491894655E+03  0.29387044015E+03  0.00000000000E+00 0. -1.
<scales pt_clust_3="81.75816" pt_clust_4="30.04104" pt_clust_5="30.04104" pt_clust_6="110.53685"></scales>
<clustering>
<clus scale="   30.041">  4  5 -1 -1</clus>
<clus scale="   81.758">  1  3  2 -1</clus>
<clus scale="  110.537">  2  6  1 -1</clus>
<clus scale="   81.758">  1  3  2 -1</clus>
</clustering>
</event>
<event>
 6    0  0.6687079E+002  0.7816226E+02  0.7546771E-02  0.1334349E+00
         21   -1    0    0  503  501  0.00000000000E+00  0.00000000000E+00  0.22690766273E+02  0.22690766273E+02  0.00000000000E+00 0.  1.
         21   -1    0    0  505  502 -0.00000000000E+00 -0.00000000000E+00 -0.10999188325E+04  0.10999188325E+04  0.00000000000E+00 0.  1.
         21    1    1    2  503  506  0.53932121048E+02  0.48290647962E+02 -0.24980557330E+03  0.26008361120E+03  0.00000000000E+00 0. -1.
         21    1    1    2  504  501  0.10138837853E+02 -0.86035189303E+02 -0.14934112959E+03  0.17264884250E+03  0.00000000000E+00 0.  1.
         21    1    1    2  505  504 -0.37140251913E+02  0.59510472293E+02 -0.22999829766E+03  0.24045812848E+03  0.00000000000E+00 0.  1.
         21    1    1    2  506  502 -0.26930706988E+02 -0.21765930952E+02 -0.44808306565E+03  0.44941901657E+03  0.00000000000E+00 0.  1.
<scales pt_clust_3="58.85662" pt_clust_4="78.16226" pt_clust_5="14000.00000" pt_clust_6="34.62685"></scales>
<clustering>
<clus scale="   34.627">  2  6  1 -1</clus>
<clus scale="   58.857">  2  3  1 -1</clus>
<clus scale="   78.162">  1  4  2 -1</clus>
<clus scale="   78.162">  1  3  2 -1</clus>
</clustering>
</event>
<event>
 6    0  0.6687079E+002  0.8965061E+02  0.7546771E-02  0.1303700E+00
         21   -1    0    0  504  501  0.00000000000E+00  0.00000000000E+00  0.13055268842E+04  0.13055268842E+04  0.00000000000E+00 0. -1.
         21   -1    0    0  505  502 -0.00000000000E+00 -0.00000000000E+00 -0.36651136136E+02  0.36651136136E+02  0.00000000000E+00 0. -1.
         21    1    1    2  503  502 -0.75894387906E+02  0.48696527407E+02  0.37759521269E+02  0.97760377165E+02  0.00000000000E+00 0. -1.
         21    1    1    2  504  506 -0.10301696039E+02 -0.50598185327E+02  0.42489151650E+03  0.42801764227E+03  0.00000000000E+00 0. -1.
         21    1    1    2  505  501  0.64141009378E+01  0.33422484399E+02  0.11674252351E+03  0.12160189122E+03  0.00000000000E+00 0.  1.
         21    1    1    2  506  503  0.79781983007E+02 -0.31520826479E+02  0.68948218679E+03  0.69479810968E+03  0.00000000000E+00 0. -1.
<scales pt_clust_3="89.65061" pt_clust_4="39.40376" pt_clust_5="34.03238" pt_clust_6="14000.00000"></scales>
<clustering>
<clus scale="   34.032">  1  5  2 -1</clus>
<clus scale="   39.404">  1  4  2 -1</clus>
<clus scale="   89.651">  2  3  1 -1</clus>
<clus scale="   34.032">  1  3  2 -1</clus>
</clustering>
</event>
<event>
 6    0  0.6687079E+002  0.1722573E+03  0.7546771E-02  0.1175514E+00
         21   -1    0    0  504  501  0.00000000000E+00  0.00000000000E+00  0.71416276748E+02  0.71416276748E+02  0.00000000000E+00 0. -1.
         21   -1    0    0  505  502 -0.00000000000E+00 -0.00000000000E+00 -0.41878553338E+03  0.41878553338E+03  0.00000000000E+00 0. -1.
         21    1    1    2  503  501 -0.28612235812E+02  0.74933991965E+02 -0.81919184565E+02  0.11464953550E+03  0.00000000000E+00 0. -1.
         21    1    1    2  504  506 -0.91793409282E+01 -0.85105023370E+02 -0.11957700206E+03  0.14705707981E+03  0.00000000000E+00 0. -1.
         21    1    1    2  505  503  0.34322572505E+02  0.84750734933E+02 -0.11689409881E+03  0.14840807388E+03  0.00000000000E+00 0. -1.
         21    1    1    2  506  502  0.34690042345E+01 -0.74579703528E+02 -0.28978971201E+02  0.80087120941E+02  0.00000000000E+00 0. -1.
<scales pt_clust_3="60.26921" pt_clust_4="171.83018" pt_clust_5="60.26921" pt_clust_6="59.02068"></scales>
<clustering>
<clus scale="   59.021">  4  6 -1 -1</clus>
<clus scale="   60.269">  3  5 -1 -1</clus>
<clus scale="  171.830">  1  4  2 -1</clus>
<clus scale="  171.830">  1  3  2 -1</clus>
</clustering>
</event>
<event>
 6    0  0.6687079E+002  0.1252806E+03  0.7546771E-02  0.1234631E+00
         21   -1    0    0  503  501  0.00000000000E+00  0.00000000000E+00  0.42339193869E+03  0.42339193869E+03  0.00000000000E+00 0. -1.
         21   -1    0    0  504  502 -0.00000000000E+00 -0.00000000000E+00 -0.18801467187E+03  0.18801467187E+03  0.00000000000E+00 0. -1.
         21    1    1    2  503  505  0.11749558092E+03  0.10072095278E+03  0.16167437550E+03  0.22380465938E+03  0.00000000000E+00 0. -1.
         21    1    1    2  504  501  0.21715144982E+02 -0.12341964060E+03  0.16566102911E+03  0.20771983962E+03  0.00000000000E+00 0. -1.
         21    1    1    2  505  506 -0.10893411578E+03  0.27196813283E+02 -0.39268236258E+02  0.11894663767E+03  0.00000000000E+00 0. -1.
         21    1    1    2  506  502 -0.30276610129E+02 -0.44981254686E+01 -0.52689901541E+02  0.60935473889E+02  0.00000000000E+00 0. -1.
<scales pt_clust_3="14000.00000" pt_clust_4="125.28060" pt_clust_5="123.26458" pt_clust_6="30.60892"></scales>
<clustering>
<clus scale="   30.609">  2  6  1 -1</clus>
<clus scale="  125.281">  1  4  2 -1</clus>
<clus scale="  123.265">  2  5  1 -1</clus>
<clus scale="  125.281">  1  3  2 -1</clus>
</clustering>
</event>
<event>
 6    0  0.6687079E+002  0.1143282E+03  0.7546771E-02  0.1252758E+00
         21   -1    0    0  505  501  0.00000000000E+00  0.00000000000E+00  0.85361016711E+03  0.85361016711E+03  0.00000000000E+00 0.  1.
         21   -1    0    0  504  502 -0.00000000000E+00 -0.00000000000E+00 -0.52451321709E+02  0.52451321709E+02  0.00000000000E+00 0.  1.
         21    1    1    2  503  501  0.20590708052E+02  0.37052459773E+02  0.20359174958E+03  0.20795783835E+03  0.00000000000E+00 0.  1.
         21    1    1    2  504  503  0.33048544758E+02  0.12822741590E+03  0.22224620359E+03  0.25870417761E+03  0.00000000000E+00 0.  1.
         21    1    1    2  505  506  0.32095826304E+02 -0.11519108195E+03  0.26642719326E+03  0.29203180774E+03  0.00000000000E+00 0.  1.
         21    1    1    2  506  502 -0.85735079114E+02 -0.50088793728E+02  0.10889369897E+03  0.14736766512E+03  0.00000000000E+00 0.  1.
<scales pt_clust_3="42.38941" pt_clust_4="114.32823" pt_clust_5="14000.00000" pt_clust_6="92.18045"></scales>
<clustering>
<clus scale="   42.389">  1  3  2 -1</clus>
<clus scale="   92.180">  2  6  1 -1</clus>
<clus scale="  114.328">  2  4  1 -1</clus>
<clus scale="   42.389">  1  3  2 -1</clus>
</clustering>
</event>
<event>
 6    0  0.6687079E+002  0.1860078E+03  0.7546771E-02  0.1162112E+00
         21   -1    0    0  505  501  0.00000000000E+00  0.00000000000E+00  0.11019833488E+03  0.11019833488E+03  0.00000000000E+00 0. -1.
         21   -1    0    0  504  502 -0.00000000000E+00 -0.00000000000E+00 -0.84151278121E+03  0.84151278121E+03  0.00000000000E+00 0. -1.
         21    1    1    2  503  502 -0.88722205348E+02 -0.31237974608E+02 -0.11301397637E+03  0.14703604876E+03  0.00000000000E+00 0. -1.
         21    1    1    2  504  506 -0.16893628326E+02  0.91834733354E+02 -0.49900207456E+03  0.50766335632E+03  0.00000000000E+00 0. -1.
         21    1    1    2  505  503 -0.75774179653E+02 -0.49002748679E+02 -0.39959447529E+02  0.98690187592E+02  0.00000000000E+00 0. -1.
         21    1    1    2  506  501  0.18139001333E+03 -0.11594010067E+02 -0.79338947880E+02  0.19832152343E+03  0.00000000000E+00 0. -1.
<scales pt_clust_3="57.80440" pt_clust_4="93.37565" pt_clust_5="57.80440" pt_clust_6="176.39731"></scales>
<clustering>
<clus scale="   57.804">  3  5 -1 -1</clus>
<clus scale="   93.376">  2  4  1 -1</clus>
<clus scale="  176.397">  1  6  2 -1</clus>
<clus scale="  176.397">  1  3  2 -1</clus>
</clustering>
</event>
<event>
 6    0  0.6687079E+002  0.2535333E+03  0.7546771E-02  0.1111092E+00
         21   -1    0    0  506  501  0.00000000000E+00  0.00000000000E+00  0.22240937174E+03  0.22240937174E+03  0.00000000000E+00 0. -1.
         21   -1    0    0  503  502 -0.00000000000E+00 -0.00000000000E+00 -0.66576046618E+03  0.66576046618E+03  0.00000000000E+00 0. -1.
         21    1    1    2  503  505  0.22504659295E+03  0.53540876023E+02 -0.16533451536E+03  0.28433799671E+03  0.00000000000E+00 0. -1.
         21    1    1    2  504  502 -0.76728131172E+02  0.64377195354E+01 -0.29177049031E+03  0.30175929043E+03  0.00000000000E+00 0. -1.
         21    1    1    2  505  501  0.54634155542E+02  0.41506995387E+02 -0.22658767784E+02  0.72257465879E+02  0.00000000000E+00 0. -1.
         21    1    1    2  506  504 -0.20295261732E+03 -0.10148559095E+03  0.36412679017E+02  0.22981508489E+03  0.00000000000E+00 0. -1.
<scales pt_clust_3="36.79039" pt_clust_4="76.99773" pt_clust_5="36.79039" pt_clust_6="244.36797"></scales>
<clustering>
<clus scale="   36.790">  3  5 -1 -1</clus>
<clus scale="   76.998">  2  4  1 -1</clus>
<clus scale="  244.368">  1  6  2 -1</clus>
<clus scale="  244.368">  1  3  2 -1</clus>
</clustering>
</event>
<event>
 6    0  0.6687079E+002  0.7970714E+02  0.7546771E-02  0.1329885E+00
         21   -1    0    0  505  501  0.00000000000E+00  0.00000000000E+00  0.23997246300E+03  0.23997246300E+03  0.00000000000E+00 0.  1.
         21   -1    0    0  504  502 -0.00000000000E+00 -0.00000000000E+00 -0.19887510117E+03  0.19887510117E+03  0.00000000000E+00 0.  1.
         21    1    1    2  503  501  0.24975124546E+02 -0.73161187787E+02  0.80507330450E+02  0.11161427552E+03  0.00000000000E+00 0.  1.
         21    1    1    2  504  506 -0.88071327036E+02  0.40931793917E+02 -0.88209951862E+02  0.13119819361E+03  0.00000000000E+00 0.  1.
         21    1    1    2  505  502  0.50164425953E+02 -0.54906196413E+02 -0.27701454129E+02  0.79363282421E+02  0.00000000000E+00 0. -1.
         21    1    1    2  506  503  0.12931776538E+02  0.87135590283E+02  0.76501437373E+02  0.11667181261E+03  0.00000000000E+00 0. -1.
<scales pt_clust_3="79.70714" pt_clust_4="50.21004" pt_clust_5="74.37177" pt_clust_6="14000.00000"></scales>
<clustering>
<clus scale="   74.372">  2  5  1 -1</clus>
<clus scale="   50.210">  2  4  1 -1</clus>
<clus scale="   79.707">  1  3  2 -1</clus>
<clus scale="   79.707">  1  3  2 -1</clus>
</clustering>
</event>
<event>
 6    0  0.6687079E+002  0.8600402E+02  0.7546771E-02  0.1312828E+00
         21   -1    0    0  505  501  0.00000000000E+00  0.00000000000E+00  0.48092947423E+02  0.48092947423E+02  0.00000000000E+00 0.  1.
         21   -1    0    0  506  502 -0.00000000000E+00 -0.00000000000E+00 -0.75219308169E+03  0.75219308169E+03  0.00000000000E+00 0.  1.
         21    1    1    2  503  504 -0.41886393294E+02  0.10220773928E+02 -0.75508192343E+02  0.86950682997E+02  0.00000000000E+00 0.  1.
         21    1    1    2  504  502 -0.41461476544E+02 -0.77649454266E+01 -0.43045503643E+03  0.43251692083E+03  0.00000000000E+00 0.  1.
         21    1    1    2  505  503  0.75687045354E+02  0.81732925647E+02 -0.13656871105E+03  0.17623794372E+03  0.00000000000E+00 0.  1.
         21    1    1    2  506  501  0.76608244843E+01 -0.84188754149E+02 -0.61568194436E+02  0.10458048156E+03  0.00000000000E+00 0.  1.
<scales pt_clust_3="53.03411" pt_clust_4="42.18232" pt_clust_5="14000.00000" pt_clust_6="86.00402"></scales>
<clustering>
<clus scale="   42.182">  2  4  1 -1</clus>
<clus scale="   53.034">  2  3  1 -1</clus>
<clus scale="   86.004">  1  6  2 -1</clus>
<clus scale="   86.004">  1  3  2 -1</clus>
</clustering>
</event>
<event>
 6    0  0.6687079E+002  0.1109291E+03  0.7546771E-02  0.1258859E+00
         21   -1    0    0  505  501  0.00000000000E+00  0.00000000000E+00  0.63594512224E+03  0.63594512224E+03  0.00000000000E+00 0.  1.
         21   -1    0    0  504  502 -0.00000000000E+00 -0.00000000000E+00 -0.72017443493E+02  0.72017443493E+02  0.00000000000E+00 0.  1.
         21    1    1    2  503  502 -0.12209816394E+03  0.11246200910E+01  0.37952283190E+03  0.39868133433E+03  0.00000000000E+00 0.  1.
         21    1    1    2  504  506  0.10506398349E+03  0.32742075296E+02  0.23509986087E+01  0.11007275465E+03  0.00000000000E+00 0.  1.
         21    1    1    2  505  503 -0.19270731528E+02 -0.39665075545E+02  0.10078202811E+03  0.11000771111E+03  0.00000000000E+00 0.  1.
         21    1    1    2  506  501  0.36304911974E+02  0.57983801575E+01  0.81271820119E+02  0.89200765643E+02  0.00000000000E+00 0.  1.
<scales pt_clust_3="110.92908" pt_clust_4="14000.00000" pt_clust_5="40.47673" pt_clust_6="36.76504"></scales>
<clustering>
<clus scale="   36.765">  1  6  2 -1</clus>
<clus scale="   40.477">  1  5  2 -1</clus>
<clus scale="  110.929">  1  3  2 -1</clus>
<clus scale="   36.765">  1  3  2 -1</clus>
</clustering>
</event>
<event>
 6    0  0.6687079E+002  0.1613095E+03  0.7546771E-02  0.1187226E+00
         21   -1    0    0  502  501  0.00000000000E+00  0.00000000000E+00  0.12760087620E+03  0.12760087620E+03  0.00000000000E+00 0.  1.
         21   -1    0    0  505  502 -0.00000000000E+00 -0.00000000000E+00 -0.21863237605E+03  0.21863237605E+03  0.00000000000E+00 0.  1.
         21    1    1    2  503  504 -0.73752547547E+02  0.52027832732E+02 -0.31337846096E+01  0.90311429257E+02  0.00000000000E+00 0.  1.
         21    1    1    2  504  501 -0.31215092990E+02  0.58209912386E+02  0.10631247519E+02  0.66901415188E+02  0.00000000000E+00 0.  1.
         21    1    1    2  505  506  0.73510646584E+02 -0.69853871208E+02 -0.34654771782E+02  0.10716497418E+03  0.00000000000E+00 0.  1.
         21    1    1    2  506  503  0.31456993953E+02 -0.40383873910E+02 -0.63874190981E+02  0.81855433626E+02  0.00000000000E+00 0.  1.
<scales pt_clust_3="157.03397" pt_clust_4="33.01127" pt_clust_5="37.93106" pt_clust_6="37.93106"></scales>
<clustering>
<clus scale="   33.011">  3  4 -1 -1</clus>
<clus scale="   37.931">  5  6 -1 -1</clus>
<clus scale="  157.034">  1  3  2 -1</clus>
<clus scale="  157.034">  1  3  2 -1</clus>
</clustering>
</event>
<event>
 6    0  0.6687079E+002  0.1015926E+03  0.7546771E-02  0.1276982E+00
         21   -1    0    0  504  501  0.00000000000E+00  0.00000000000E+00  0.95980336363E+02  0.95980336363E+02  0.00000000000E+00 0.  1.
         21   -1    0    0  505  502 -0.00000000000E+00 -0.00000000000E+00 -0.19820597959E+04  0.19820597959E+04  0.00000000000E+00 0. -1.
         21    1    1    2  503  506  0.93867337806E+02  0.30237361584E+02 -0.94481039249E+03  0.94994318404E+03  0.00000000000E+00 0. -1.
         21    1    1    2  504  503 -0.71530195881E+02  0.74747107478E+02  0.55915312681E+02  0.11760196083E+03  0.00000000000E+00 0.  1.
         21    1    1    2  505  501  0.31207741240E+02 -0.25273286150E+02 -0.93978897601E+02  0.10219929207E+03  0.00000000000E+00 0.  1.
         21    1    1    2  506  502 -0.53544883165E+02 -0.79711182912E+02 -0.90320548217E+03  0.90829569537E+03  0.00000000000E+00 0. -1.
<scales pt_clust_3="14000.00000" pt_clust_4="101.59261" pt_clust_5="40.15796" pt_clust_6="99.61931"></scales>
<clustering>
<clus scale="   40.158">  2  5  1 -1</clus>
<clus scale="   99.619">  2  6  1 -1</clus>
<clus scale="  101.593">  1  4  2 -1</clus>
<clus scale="  101.593">  1  3  2 -1</clus>
</clustering>
</event>
<event>
 6    0  0.6687079E+002  0.7840432E+02  0.7546771E-02  0.1333642E+00
         21   -1    0    0  504  501  0.00000000000E+00  0.00000000000E+00  0.20996101165E+03  0.20996101165E+03  0.00000000000E+00 0.  1.
         21   -1    0    0  506  502 -0.00000000000E+00 -0.00000000000E+00 -0.24478957680E+03  0.24478957680E+03  0.00000000000E+00 0.  1.
         21    1    1    2  503  501  0.24646311394E+02  0.44887924351E+02  0.71908586413E+02  0.88279166386E+02  0.00000000000E+00 0. -1.
         21    1    1    2  504  505 -0.12586735629E-01 -0.65746499211E+02  0.54474128699E+02  0.85381690159E+02  0.00000000000E+00 0.  1.
         21    1    1    2  505  502  0.59138818997E+02  0.50178204260E+02 -0.17486262522E+03  0.19129085130E+03  0.00000000000E+00 0.  1.
         21    1    1    2  506  503 -0.83772543656E+02 -0.29319629400E+02  0.13651344953E+02  0.89798880604E+02  0.00000000000E+00 0.  1.
<scales pt_clust_3="51.20905" pt_clust_4="43.63910" pt_clust_5="14000.00000" pt_clust_6="78.40432"></scales>
<clustering>
<clus scale="   51.209">  1  3  2 -1</clus>
<clus scale="   43.639">  1  4  2 -1</clus>
<clus scale="   78.404">  1  6  2 -1</clus>
<clus scale="   51.209">  1  3  2 -1</clus>
</clustering>
</event>
<event>
 6    0  0.6687079E+002  0.9083522E+02  0.7546771E-02  0.1300842E+00
         21   -1    0    0  504  501  0.00000000000E+00  0.00000000000E+00  0.88807040251E+02  0.88807040251E+02  0.00000000000E+00 0.  1.
         21   -1    0    0  506  502 -0.00000000000E+00 -0.00000000000E+00 -0.37213304784E+03  0.37213304784E+03  0.00000000000E+00 0.  1.
         21    1    1    2  503  502  0.30653323780E+02  0.40956761329E+02 -0.86980685572E+02  0.10090947537E+03  0.00000000000E+00 0.  1.
         21    1    1    2  504  505 -0.46867275624E+02 -0.23198557692E+02  0.10730644989E+02  0.53384092624E+02  0.00000000000E+00 0.  1.
         21    1    1    2  505  503  0.58279405334E+02 -0.78662940476E+02 -0.12781986635E+02  0.98730575167E+02  0.00000000000E+00 0.  1.
         21    1    1    2  506  501 -0.42065453490E+02  0.60904736840E+02 -0.19429398037E+03  0.20791594493E+03  0.00000000000E+00 0.  1.
<scales pt_clust_3="51.15743" pt_clust_4="48.82767" pt_clust_5="90.83522" pt_clust_6="14000.00000"></scales>
<clustering>
<clus scale="   51.157">  2  3  1 -1</clus>
<clus scale="   48.828">  1  4  2 -1</clus>
<clus scale="   90.835">  1  5  2 -1</clus>
<clus scale="   48.828">  1  3  2 -1</clus>
</clustering>
</event>
<event>
 6    0  0.6687079E+002  0.1102884E+03  0.7546771E-02  0.1260037E+00
         21   -1    0    0  503  501  0.00000000000E+00  0.00000000000E+00  0.64854397122E+02  0.64854397122E+02  0.00000000000E+00 0.  1.
         21   -1    0    0  504  502 -0.00000000000E+00 -0.00000000000E+00 -0.40518222861E+03  0.40518222861E+03  0.00000000000E+00 0.  1.
         21    1    1    2  503  506  0.24583667163E+02 -0.19504038829E+02 -0.13346232889E+01  0.31409320928E+02  0.00000000000E+00 0. -1.
         21    1    1    2  504  501 -0.11487993757E+03  0.36421031963E+02 -0.10039348692E+03  0.15685261821E+03  0.00000000000E+00 0.  1.
         21    1    1    2  505  502  0.24655090411E+02 -0.30744000636E+02 -0.20109586642E+03  0.20492099587E+03  0.00000000000E+00 0.  1.
         21    1    1    2  506  505  0.65641179994E+02  0.13827007503E+02 -0.37503854860E+02  0.76853690717E+02  0.00000000000E+00 0.  1.
<scales pt_clust_3="30.88975" pt_clust_4="100.61728" pt_clust_5="39.40897" pt_clust_6="30.88975"></scales>
<clustering>
<clus scale="   30.890">  3  6 -1 -1</clus>
<clus scale="   39.409">  2  5  1 -1</clus>
<clus scale="  100.617">  2  4  1 -1</clus>
<clus scale="  110.288">  1  3  2 -1</clus>
</clustering>
</event>
<event>
 6    0  0.6687079E+002  0.1181775E+03  0.7546771E-02  0.1246134E+00
         21   -1    0    0  505  501  0.00000000000E+00  0.00000000000E+00  0.46411535120E+03  0.46411535120E+03  0.00000000000E+00 0.  1.
         21   -1    0    0  506  502 -0.00000000000E+00 -0.00000000000E+00 -0.21358820589E+03  0.21358820589E+03  0.00000000000E+00 0. -1.
         21    1    1    2  503  501  0.26751821762E+02  0.30611317656E+02  0.21312928237E+03  0.21697189620E+03  0.00000000000E+00 0.  1.
         21    1    1    2  504  502  0.11202170386E+02 -0.89539697823E+02  0.33784650124E+02  0.96354806272E+02  0.00000000000E+00 0. -1.
         21    1    1    2  505  504 -0.46235293215E+02 -0.70053955266E+02  0.14827682028E+03  0.17038566378E+03  0.00000000000E+00 0. -1.
         21    1    1    2  506  503  0.82813010673E+01  0.12898233543E+03 -0.14466360746E+03  0.19399119085E+03  0.00000000000E+00 0. -1.
<scales pt_clust_3="40.65357" pt_clust_4="118.17752" pt_clust_5="58.27030" pt_clust_6="14000.00000"></scales>
<clustering>
<clus scale="   40.654">  1  3  2 -1</clus>
<clus scale="   58.270">  1  5  2 -1</clus>
<clus scale="  118.178">  1  4  2 -1</clus>
<clus scale="   40.654">  1  3  2 -1</clus>
</clustering>
</event>
<event>
 6    0  0.6687079E+002  0.1445034E+03  0.7546771E-02  0.1207395E+00
         21   -1    0    0  504  501  0.00000000000E+00  0.00000000000E+00  0.12982956718E+04  0.12982956718E+04  0.00000000000E+00 0.  1.
         21   -1    0    0  505  502 -0.00000000000E+00 -0.00000000000E+00 -0.48336582543E+02  0.48336582543E+02  0.00000000000E+00 0.  1.
         21    1    1    2  503  506  0.49505178898E+02 -0.58331424342E+02  0.11911152944E+03  0.14156579477E+03  0.00000000000E+00 0.  1.
         21    1    1    2  504  502 -0.12431225731E+03  0.12345215941E+02  0.39629801608E+03  0.41552143052E+03  0.00000000000E+00 0. -1.
         21    1    1    2  505  503  0.39737685547E+02 -0.54394923492E+02  0.24659058990E+02  0.71735350732E+02  0.00000000000E+00 0.  1.
         21    1    1    2  506  501  0.35069392861E+02  0.10038113189E+03  0.70989048473E+03  0.71780967830E+03  0.00000000000E+00 0.  1.
<scales pt_clust_3="60.49151" pt_clust_4="129.32650" pt_clust_5="60.49151" pt_clust_6="106.33078"></scales>
<clustering>
<clus scale="   60.492">  3  5 -1 -1</clus>
<clus scale="  106.331">  1  6  2 -1</clus>
<clus scale="  129.326">  1  4  2 -1</clus>
<clus scale="  106.331">  1  3  2 -1</clus>
</clustering>
</event>
<event>
 6    0  0.6687079E+002  0.7943011E+02  0.7546771E-02  0.1330677E+00
         21   -1    0    0  505  501  0.00000000000E+00  0.00000000000E+00  0.17906133843E+04  0.17906133843E+04  0.00000000000E+00 0. -1.
         21   -1    0    0  503  502 -0.00000000000E+00 -0.00000000000E+00 -0.13876652780E+02  0.13876652780E+02  0.00000000000E+00 0. -1.
         21    1    1    2  503  504 -0.29363498414E+02 -0.28573623216E+02  0.18947274356E+03  0.19385197325E+03  0.00000000000E+00 0. -1.
         21    1    1    2  504  501 -0.74337110903E+02  0.27231176595E+02  0.96280634777E+03  0.96605569526E+03  0.00000000000E+00 0. -1.
         21    1    1    2  505  506  0.91703489188E+02  0.41467392341E+02  0.55019841059E+03  0.55932760130E+03  0.00000000000E+00 0. -1.
         21    1    1    2  506  502  0.11997120130E+02 -0.40124945720E+02  0.74259229565E+02  0.85254767234E+02  0.00000000000E+00 0. -1.
<scales pt_clust_3="40.97154" pt_clust_4="14000.00000" pt_clust_5="79.43011" pt_clust_6="53.59721"></scales>
<clustering>
<clus scale="   40.972">  2  3  1 -1</clus>
<clus scale="   53.597">  2  6  1 -1</clus>
<clus scale="   79.430">  2  5  1 -1</clus>
<clus scale="   79.430">  1  3  2 -1</clus>
</clustering>
</event>
<event>
 6    0  0.6687079E+002  0.2305230E+03  0.7546771E-02  0.1126272E+00
         21   -1    0    0  504  501  0.00000000000E+00  0.00000000000E+00  0.29941071410E+03  0.29941071410E+03  0.00000000000E+00 0. -1.
         21   -1    0    0  506  502 -0.00000000000E+00 -0.00000000000E+00 -0.36654169123E+03  0.36654169123E+03  0.00000000000E+00 0. -1.
         21    1    1    2  503  501 -0.20916682635E+02  0.19727320738E+03  0.27187757817E+02  0.20023336420E+03  0.00000000000E+00 0. -1.
         21    1    1    2  504  505 -0.37814122238E+02 -0.28574284163E+03  0.80810019851E+00  0.28823520328E+03  0.00000000000E+00 0. -1.
         21    1    1    2  505  502  0.67445245129E+02  0.14284810956E+02 -0.20564867865E+02  0.71943246416E+02  0.00000000000E+00 0. -1.
         21    1    1    2  506  503 -0.87144402568E+01  0.74184823292E+02 -0.74561967279E+02  0.10554059143E+03  0.00000000000E+00 0. -1.
<scales pt_clust_3="230.52298" pt_clust_4="14000.00000" pt_clust_5="68.94140" pt_clust_6="78.86977"></scales>
<clustering>
<clus scale="   68.941">  2  5  1 -1</clus>
<clus scale="   78.870">  2  6  1 -1</clus>
<clus scale="  230.523">  1  3  2 -1</clus>
<clus scale="  230.523">  1  3  2 -1</clus>
</clustering>
</event>
<event>
 6    0  0.6687079E+002  0.9544503E+02  0.7546771E-02  0.1290177E+00
         21   -1    0    0  506  501  0.00000000000E+00  0.00000000000E+00  0.94338557845E+02  0.94338557845E+02  0.00000000000E+00 0.  1.
         21   -1    0    0  505  502 -0.00000000000E+00 -0.00000000000E+00 -0.24410732920E+03  0.24410732920E+03  0.00000000000E+00 0.  1.
         21    1    1    2  503  502  0.50486287172E+02 -0.42459883675E+02 -0.12088046862E+03  0.13770909414E+03  0.00000000000E+00 0.  1.
         21    1    1    2  504  501 -0.16889424582E+02  0.42018950467E+02  0.19898710718E+02  0.49465175116E+02  0.00000000000E+00 0.  1.
         21    1    1    2  505  504 -0.74461259566E+02  0.41416642411E+02 -0.26082781490E+02  0.89107401124E+02  0.00000000000E+00 0.  1.
         21    1    1    2  506  503  0.40864396977E+02 -0.40975709203E+02 -0.22704231963E+02  0.62164216668E+02  0.00000000000E+00 0.  1.
<scales pt_clust_3="72.47126" pt_clust_4="45.28083" pt_clust_5="45.28083" pt_clust_6="57.86975"></scales>
<clustering>
<clus scale="   45.281">  4  5 -1 -1</clus>
<clus scale="   57.870">  1  6  2 -1</clus>
<clus scale="   72.471">  2  3  1 -1</clus>
<clus scale="   57.870">  1  3  2 -1</clus>
</clustering>
</event>
<event>
 6    0  0.6687079E+002  0.1176026E+03  0.7546771E-02  0.1247105E+00
         21   -1    0    0  505  501  0.00000000000E+00  0.00000000000E+00  0.26666790274E+03  0.26666790274E+03  0.00000000000E+00 0. -1.
         21   -1    0    0  506  502 -0.00000000000E+00 -0.00000000000E+00 -0.14691504866E+03  0.14691504866E+03  0.00000000000E+00 0. -1.
         21    1    1    2  503  504 -0.32441226868E+02 -0.87203559196E+01  0.44414640140E+01  0.33885165053E+02  0.00000000000E+00 0.  1.
         21    1    1    2  504  501 -0.35860876306E+02 -0.75036950399E+02  0.57415183448E+02  0.10105963420E+03  0.00000000000E+00 0. -1.
         21    1    1    2  505  502  0.66947923966E+02 -0.26569730877E+02  0.12873839326E+03  0.14751796169E+03  0.00000000000E+00 0. -1.
         21    1    1    2  506  503  0.13541792079E+01  0.11032703720E+03 -0.70842186644E+02  0.13112019046E+03  0.00000000000E+00 0. -1.
<scales pt_clust_3="33.04497" pt_clust_4="33.04497" pt_clust_5="72.02760" pt_clust_6="105.48449"></scales>
<clustering>
<clus scale="   33.045">  3  4 -1 -1</clus>
<clus scale="   72.028">  1  5  2 -1</clus>
<clus scale="  105.484">  2  6  1 -1</clus>
<clus scale="   72.028">  1  3  2 -1</clus>
</clustering>
</event>
<event>
 6    0  0.6687079E+002  0.1461597E+03  0.7546771E-02  0.1205273E+00
         21   -1    0    0  506  501  0.00000000000E+00  0.00000000000E+00  0.13581184508E+04  0.13581184508E+04  0.00000000000E+00 0. -1.
         21   -1    0    0  503  502 -0.00000000000E+00 -0.00000000000E+00 -0.77580292001E+02  0.77580292001E+02  0.00000000000E+00 0. -1.
         21    1    1    2  503  505 -0.68791350175E+01  0.41800593680E+02  0.95713821368E+02  0.10466970780E+03  0.00000000000E+00 0. -1.
         21    1    1    2  504  501  0.31522592291E+02 -0.20416571130E+02  0.72500712081E+03  0.72597922520E+03  0.00000000000E+00 0. -1.
         21    1    1    2  505  504  0.33370963233E+02  0.10146739139E+03  0.45683522027E+03  0.46915633981E+03  0.00000000000E+00 0. -1.
         21    1    1    2  506  502 -0.58014420507E+02 -0.12285141394E+03  0.29819963930E+01  0.13589347003E+03  0.00000000000E+00 0. -1.
<scales pt_clust_3="32.95516" pt_clust_4="37.55676" pt_clust_5="32.95516" pt_clust_6="136.47083"></scales>
<clustering>
<clus scale="   32.955">  3  5 -1 -1</clus>
<clus scale="   37.557">  1  4  2 -1</clus>
<clus scale="  136.471">  2  6  1 -1</clus>
<clus scale="   37.557">  1  3  2 -1</clus>
</clustering>
</event>
<event>
 6    0  0.6687079E+002  0.1245108E+03  0.7546771E-02  0.1235836E+00
         21   -1    0    0  503  501  0.00000000000E+00  0.00000000000E+00  0.19151299548E+04  0.19151299548E+04  0.00000000000E+00 0.  1.
         21   -1    0    0  506  502 -0.00000000000E+00 -0.00000000000E+00 -0.14083749495E+03  0.14083749495E+03  0.00000000000E+00 0.  1.
         21    1    1    2  503  505 -0.52433796101E+02  0.41601433522E+02  0.29964101490E+02  0.73333686820E+02  0.00000000000E+00 0. -1.
         21    1    1    2  504  501  0.10874063824E+03 -0.61998360435E+02  0.17951440236E+04  0.17995028170E+04  0.00000000000E+00 0.  1.
         21    1    1    2  505  502  0.99783710582E+01 -0.54139001503E+02  0.22363067778E+02  0.59419745651E+02  0.00000000000E+00 0.  1.
         21    1    1    2  506  504 -0.66285213197E+02  0.74535928417E+02 -0.73178732978E+02  0.12371120028E+03  0.00000000000E+00 0.  1.
<scales pt_clust_3="59.92573" pt_clust_4="14000.00000" pt_clust_5="55.05088" pt_clust_6="124.51077"></scales>
<clustering>
<clus scale="   55.051">  2  5  1 -1</clus>
<clus scale="   59.926">  2  3  1 -1</clus>
<clus scale="  124.511">  2  6  1 -1</clus>
<clus scale="  124.511">  1  3  2 -1</clus>
</clustering>
</event>
<event>
 6    0  0.6687079E+002  0.1066649E+03  0.7546771E-02  0.1266874E+00
         21   -1    0    0  504  501  0.00000000000E+00  0.00000000000E+00  0.14192108731E+04  0.14192108731E+04  0.00000000000E+00 0.  1.
         21   -1    0    0  505  502 -0.00000000000E+00 -0.00000000000E+00 -0.26443255383E+02  0.26443255383E+02  0.00000000000E+00 0.  1.
         21    1    1    2  503  502  0.10250928011E+01 -0.85138316955E+02  0.17574061875E+03  0.19528018053E+03  0.00000000000E+00 0.  1.
         21    1    1    2  504  503  0.29304890251E+02  0.13448952635E+03  0.36512223392E+03  0.39020565731E+03  0.00000000000E+00 0.  1.
         21    1    1    2  505  506 -0.46079257003E+02 -0.44261020705E+01  0.15824416789E+03  0.16487602912E+03  0.00000000000E+00 0.  1.
         21    1    1    2  506  501  0.15749273952E+02 -0.44925107328E+02  0.69366059713E+03  0.69529226151E+03  0.00000000000E+00 0.  1.
<scales pt_clust_3="14000.00000" pt_clust_4="106.66488" pt_clust_5="46.29134" pt_clust_6="47.24193"></scales>
<clustering>
<clus scale="   46.291">  2  5  1 -1</clus>
<clus scale="   47.242">  1  6  2 -1</clus>
<clus scale="  106.665">  1  4  2 -1</clus>
<clus scale="   47.242">  1  3  2 -1</clus>
</clustering>
</event>
<event>
 6    0  0.6687079E+002  0.7503429E+02  0.7546771E-02  0.1343765E+00
         21   -1    0    0  505  501  0.00000000000E+00  0.00000000000E+00  0.34156960287E+04  0.34156960287E+04  0.00000000000E+00 0. -1.
         21   -1    0    0  506  502 -0.00000000000E+00 -0.00000000000E+00 -0.90625704395E+01  0.90625704395E+01  0.00000000000E+00 0. -1.
         21    1    1    2  503  501  0.10778710838E+03  0.47045682004E+02  0.20369519122E+04  0.20403441987E+04  0.00000000000E+00 0. -1.
         21    1    1    2  504  502 -0.70174816135E+02  0.36341293411E+02  0.32715294809E+03  0.33656239521E+03  0.00000000000E+00 0. -1.
         21    1    1    2  505  504 -0.42519138619E+02 -0.44906214064E+02  0.78323476301E+03  0.78567241214E+03  0.00000000000E+00 0.  1.
         21    1    1    2  506  503  0.49068463792E+01 -0.38480761351E+02  0.25929383501E+03  0.26217959305E+03  0.00000000000E+00 0. -1.
<scales pt_clust_3="14000.00000" pt_clust_4="75.03429" pt_clust_5="65.94713" pt_clust_6="38.79235"></scales>
<clustering>
<clus scale="   38.792">  2  6  1 -1</clus>
<clus scale="   65.947">  1  5  2 -1</clus>
<clus scale="   75.034">  2  4  1 -1</clus>
<clus scale="   65.947">  1  3  2 -1</clus>
</clustering>
</event>
<event>
 6    0  0.6687079E+002  0.2614799E+03  0.7546771E-02  0.1106257E+00
         21   -1    0    0  504  501  0.00000000000E+00  0.00000000000E+00  0.11471775819E+03  0.11471775819E+03  0.00000000000E+00 0.  1.
         21   -1    0    0  505  502 -0.00000000000E+00 -0.00000000000E+00 -0.24273340486E+04  0.24273340486E+04  0.00000000000E+00 0. -1.
         21    1    1    2  503  502  0.42632692086E+02 -0.53130151590E+02  0.12691505037E+02  0.69292378676E+02  0.00000000000E+00 0.  1.
         21    1    1    2  504  506 -0.26510967106E+02 -0.34049100092E+02 -0.31108187229E+02  0.53196728345E+02  0.00000000000E+00 0.  1.
         21    1    1    2  505  501 -0.80123857842E+02  0.24053223706E+03 -0.22252620382E+04  0.22396577257E+04  0.00000000000E+00 0. -1.
         21    1    1    2  506  503  0.64002132862E+02 -0.15335298537E+03 -0.68937570025E+02  0.17990497407E+03  0.00000000000E+00 0. -1.
<scales pt_clust_3="45.16965" pt_clust_4="43.15290" pt_clust_5="251.87755" pt_clust_6="45.16965"></scales>
<clustering>
<clus scale="   43.153">  1  4  2 -1</clus>
<clus scale="   45.170">  3  6 -1 -1</clus>
<clus scale="  251.878">  2  5  1 -1</clus>
<clus scale="   43.153">  1  3  2 -1</clus>
</clustering>
</event>
<event>
 6    0  0.6687079E+002  0.1368983E+03  0.7546771E-02  0.1217565E+00
         21   -1    0    0  506  501  0.00000000000E+00  0.00000000000E+00  0.22565833436E+03  0.22565833436E+03  0.00000000000E+00 0. -1.
         21   -1    0    0  504  502 -0.00000000000E+00 -0.00000000000E+00 -0.47677032655E+03  0.47677032655E+03  0.00000000000E+00 0.  1.
         21    1    1    2  503  501 -0.13323924420E+03  0.36359542602E+01 -0.30106164328E+02  0.13664661536E+03  0.00000000000E+00 0.  1.
         21    1    1    2  504  503 -0.12009005073E+03  0.65389509641E+02 -0.22089895203E+03  0.25979560285E+03  0.00000000000E+00 0.  1.
         21    1    1    2  505  502  0.10918942731E+03 -0.85368117963E+02 -0.57403789465E+02  0.15001747114E+03  0.00000000000E+00 0. -1.
         21    1    1    2  506  505  0.14413986761E+03  0.16342654062E+02  0.57296913630E+02  0.15596897156E+03  0.00000000000E+00 0. -1.
<scales pt_clust_3="133.28885" pt_clust_4="136.89830" pt_clust_5="14000.00000" pt_clust_6="64.46222"></scales>
<clustering>
<clus scale="  133.289">  1  3  2 -1</clus>
<clus scale="   64.462">  1  6  2 -1</clus>
<clus scale="  136.898">  2  4  1 -1</clus>
<clus scale="  133.289">  1  3  2 -1</clus>
</clustering>
</event>
<event>
 6    0  0.6687079E+002  0.1229121E+03  0.7546771E-02  0.1238369E+00
         21   -1    0    0  504  501  0.00000000000E+00  0.00000000000E+00  0.24810382583E+03  0.24810382583E+03  0.00000000000E+00 0. -1.
         21   -1    0    0  506  502 -0.00000000000E+00 -0.00000000000E+00 -0.31766709535E+03  0.31766709535E+03  0.00000000000E+00 0. -1.
         21    1    1    2  503  501  0.32995328300E+02 -0.83464749298E+02 -0.81131691781E+02  0.12098515395E+03  0.00000000000E+00 0. -1.
         21    1    1    2  504  505  0.33089975235E+02 -0.31926607252E+01  0.13563820948E+03  0.13965265273E+03  0.00000000000E+00 0. -1.
         21    1    1    2  505  502 -0.10147587252E+03  0.11998471177E+03  0.14956821861E+02  0.15785243198E+03  0.00000000000E+00 0. -1.
         21    1    1    2  506  503  0.35390568986E+02 -0.33327301746E+02 -0.13902660907E+03  0.14728068252E+03  0.00000000000E+00 0. -1.
<scales pt_clust_3="122.91206" pt_clust_4="33.24364" pt_clust_5="14000.00000" pt_clust_6="49.60045"></scales>
<clustering>
<clus scale="   33.244">  1  4  2 -1</clus>
<clus scale="   49.600">  2  6  1 -1</clus>
<clus scale="  122.912">  2  3  1 -1</clus>
<clus scale="   33.244">  1  3  2 -1</clus>
</clustering>
</event>
<event>
 6    0  0.6687079E+002  0.7205830E+02  0.7546771E-02  0.1353230E+00
         21   -1    0    0  503  501  0.00000000000E+00  0.00000000000E+00  0.23721733887E+03  0.23721733887E+03  0.00000000000E+00 0.  1.
         21   -1    0    0  504  502 -0.00000000000E+00 -0.00000000000E+00 -0.53976400927E+03  0.53976400927E+03  0.00000000000E+00 0.  1.
         21    1    1    2  503  505 -0.34376601630E+02  0.23190516165E+02  0.20161520339E+03  0.20583547075E+03  0.00000000000E+00 0.  1.
         21    1    1    2  504  501  0.10129823001E+03 -0.65885985904E+02 -0.15479120585E+03  0.19637365391E+03  0.00000000000E+00 0.  1.
         21    1    1    2  505  506 -0.40637254346E+00  0.45926829950E+02 -0.49210519812E+02  0.67313550702E+02  0.00000000000E+00 0. -1.
         21    1    1    2  506  502 -0.66515255835E+02 -0.32313602121E+01 -0.30016014812E+03  0.30745867278E+03  0.00000000000E+00 0.  1.
<scales pt_clust_3="41.46747" pt_clust_4="14000.00000" pt_clust_5="53.08741" pt_clust_6="72.05830"></scales>
<clustering>
<clus scale="   41.467">  1  3  2 -1</clus>
<clus scale="   53.087">  1  5  2 -1</clus>
<clus scale="   72.058">  2  6  1 -1</clus>
<clus scale="   41.467">  1  3  2 -1</clus>
</clustering>
</event>
<event>
 6    0  0.6687079E+002  0.1125832E+03  0.7546771E-02  0.1255860E+00
         21   -1    0    0  506  501  0.00000000000E+00  0.00000000000E+00  0.34820736317E+03  0.34820736317E+03  0.00000000000E+00 0. -1.
         21   -1    0    0  504  502 -0.00000000000E+00 -0.00000000000E+00 -0.10446174726E+04  0.10446174726E+04  0.00000000000E+00 0. -1.
         21    1    1    2  503  505 -0.11054512726E+03  0.29938277524E+00  0.23288301078E+03  0.25778830753E+03  0.00000000000E+00 0. -1.
         21    1    1    2  504  503  0.71701924211E+02  0.13008778919E+02 -0.50845498701E+02  0.88857520799E+02  0.00000000000E+00 0. -1.
         21    1    1    2  505  501 -0.11201544091E+02 -0.28254227598E+02  0.80377696551E+02  0.85932241156E+02  0.00000000000E+00 0. -1.
         21    1    1    2  506  502  0.50044747141E+02  0.14946065904E+02 -0.95882531807E+03  0.96024676629E+03  0.00000000000E+00 0. -1.
<scales pt_clust_3="112.58325" pt_clust_4="14000.00000" pt_clust_5="30.39368" pt_clust_6="52.17851"></scales>
<clustering>
<clus scale="   30.394">  1  5  2 -1</clus>
<clus scale="   52.179">  2  6  1 -1</clus>
<clus scale="  112.583">  1  3  2 -1</clus>
<clus scale="   30.394">  1  3  2 -1</clus>
</clustering>
</event>
<event>
 6    0  0.6687079E+002  0.1486292E+03  0.7546771E-02  0.1202168E+00
         21   -1    0    0  505  501  0.00000000000E+00  0.00000000000E+00  0.51006016770E+02  0.51006016770E+02  0.00000000000E+00 0. -1.
         21   -1    0    0  506  502 -0.00000000000E+00 -0.00000000000E+00 -0.15324428722E+04  0.15324428722E+04  0.00000000000E+00 0. -1.
         21    1    1    2  503  501 -0.40165799252E+02 -0.15870207483E+02  0.11141644615E+02  0.44601470377E+02  0.00000000000E+00 0. -1.
         21    1    1    2  504  502  0.99308077522E+02 -0.10456786091E+03 -0.97839095120E+03  0.98896177134E+03  0.00000000000E+00 0. -1.
         21    1    1    2  505  504 -0.36226547811E+02  0.15074865272E+03 -0.37971387745E+03  0.41014649553E+03  0.00000000000E+00 0. -1.
         21    1    1    2  506  503 -0.22915730460E+02 -0.30310584336E+02 -0.13447367144E+03  0.13973915176E+03  0.00000000000E+00 0. -1.
<scales pt_clust_3="43.57716" pt_clust_4="14000.00000" pt_clust_5="148.62916" pt_clust_6="37.99819"></scales>
<clustering>
<clus scale="   37.998">  2  6  1 -1</clus>
<clus scale="   43.577">  1  3  2 -1</clus>
<clus scale="  148.629">  1  5  2 -1</clus>
<clus scale="   43.577">  1  3  2 -1</clus>
</clustering>
</event>
<event>
 6    0  0.6687079E+002  0.1184349E+03  0.7546771E-02  0.1245702E+00
         21   -1    0    0  504  501  0.00000000000E+00  0.00000000000E+00  0.46304348551E+03  0.46304348551E+03  0.00000000000E+00 0.  1.
         21   -1    0    0  503  502 -0.00000000000E+00 -0.00000000000E+00 -0.22258810504E+03  0.22258810504E+03  0.00000000000E+00 0.  1.
         21    1    1    2  503  505 -0.49736464252E+02  0.11080004708E+03 -0.15449233423E+03  0.19651526059E+03  0.00000000000E+00 0.  1.
         21    1    1    2  504  506  0.27384704759E+02 -0.46665234021E+02  0.22065435753E+03  0.22719135463E+03  0.00000000000E+00 0.  1.
         21    1    1    2  505  501 -0.26027183216E+02 -0.11223762160E+03  0.15078491833E+03  0.18976509048E+03  0.00000000000E+00 0.  1.
         21    1    1    2  506  502  0.48378942709E+02  0.48102808536E+02  0.23508438829E+02  0.72159884859E+02  0.00000000000E+00 0. -1.
<scales pt_clust_3="118.43486" pt_clust_4="54.10699" pt_clust_5="14000.00000" pt_clust_6="66.35904"></scales>
<clustering>
<clus scale="   54.107">  1  4  2 -1</clus>
<clus scale="   66.359">  1  6  2 -1</clus>
<clus scale="  118.435">  2  3  1 -1</clus>
<clus scale="   54.107">  1  3  2 -1</clus>
</clustering>
</event>
<event>
 6    0  0.6687079E+002  0.1140598E+03  0.7546771E-02  0.1253231E+00
         21   -1    0    0  506  501  0.00000000000E+00  0.00000000000E+00  0.38096760904E+03  0.38096760904E+03  0.00000000000E+00 0.  1.
         21   -1    0    0  505  502 -0.00000000000E+00 -0.00000000000E+00 -0.59502338840E+03  0.59502338840E+03  0.00000000000E+00 0.  1.
         21    1    1    2  503  502 -0.24199356521E+02  0.88362036082E+02 -0.55993120488E+03  0.56737678176E+03  0.00000000000E+00 0.  1.
         21    1    1    2  504  501  0.22487432493E+02 -0.45135863995E+02  0.13762198742E+03  0.14656992277E+03  0.00000000000E+00 0.  1.
         21    1    1    2  505  504  0.17267233666E+02 -0.95412094697E+02  0.91969145725E+02  0.13364111994E+03  0.00000000000E+00 0.  1.
         21    1    1    2  506  503 -0.15555309638E+02  0.52185922610E+02  0.11628429237E+03  0.12840317297E+03  0.00000000000E+00 0.  1.
<scales pt_clust_3="92.39948" pt_clust_4="48.22616" pt_clust_5="48.22616" pt_clust_6="54.45492"></scales>
<clustering>
<clus scale="   48.226">  4  5 -1 -1</clus>
<clus scale="   54.455">  1  6  2 -1</clus>
<clus scale="   92.399">  2  3  1 -1</clus>
<clus scale="   54.455">  1  3  2 -1</clus>
</clustering>
</event>
<event>
 6    0  0.6687079E+002  0.1315537E+03  0.7546771E-02  0.1225168E+00
         21   -1    0    0  506  501  0.00000000000E+00  0.00000000000E+00  0.81411493178E+03  0.81411493178E+03  0.00000000000E+00 0.  1.
         21   -1    0    0  505  502 -0.00000000000E+00 -0.00000000000E+00 -0.11720898500E+03  0.11720898500E+03  0.00000000000E+00 0.  1.
         21    1    1    2  503  502 -0.22456181985E+02  0.13001122331E+03 -0.53333342013E+02  0.14230826985E+03  0.00000000000E+00 0.  1.
         21    1    1    2  504  501 -0.27651071267E+02  0.35605172978E+02  0.13943901482E+03  0.14654538184E+03  0.00000000000E+00 0.  1.
         21    1    1    2  505  504  0.12194230801E+02 -0.43690460825E+02  0.50828041235E+02  0.68125218588E+02  0.00000000000E+00 0.  1.
         21    1    1    2  506  503  0.37913022451E+02 -0.12192593547E+03  0.55997223274E+03  0.57434504651E+03  0.00000000000E+00 0.  1.
<scales pt_clust_3="14000.00000" pt_clust_4="45.08115" pt_clust_5="41.68968" pt_clust_6="131.55374"></scales>
<clustering>
<clus scale="   45.081">  1  4  2 -1</clus>
<clus scale="   41.690">  1  5  2 -1</clus>
<clus scale="  131.554">  1  6  2 -1</clus>
<clus scale="   45.081">  1  3  2 -1</clus>
</clustering>
</event>
<event>
 6    0  0.6687079E+002  0.1914221E+03  0.7546771E-02  0.1157185E+00
         21   -1    0    0  503  501  0.00000000000E+00  0.00000000000E+00  0.62418482047E+03  0.62418482047E+03  0.00000000000E+00 0.  1.
         21   -1    0    0  505  502 -0.00000000000E+00 -0.00000000000E+00 -0.24005072439E+03  0.24005072439E+03  0.00000000000E+00 0.  1.
         21    1    1    2  503  504 -0.39431055164E+02  0.16188992544E+03  0.30735990725E+03  0.34961874758E+03  0.00000000000E+00 0.  1.
         21    1    1    2  504  502 -0.89402928071E+02 -0.18977695691E+01 -0.16537546223E+03  0.18800406534E+03  0.00000000000E+00 0.  1.
         21    1    1    2  505  506  0.43410101147E+02 -0.19074768185E+02  0.23784965233E+02  0.53047226450E+02  0.00000000000E+00 0.  1.
         21    1    1    2  506  501  0.85423882088E+02 -0.14091738769E+03  0.21836468582E+03  0.27356550550E+03  0.00000000000E+00 0.  1.
<scales pt_clust_3="175.49556" pt_clust_4="89.42307" pt_clust_5="41.00586" pt_clust_6="41.00586"></scales>
<clustering>
<clus scale="   41.006">  5  6 -1 -1</clus>
<clus scale="   89.423">  2  4  1 -1</clus>
<clus scale="  175.496">  1  3  2 -1</clus>
<clus scale="  175.496">  1  3  2 -1</clus>
</clustering>
</event>
<event>
 6    0  0.6687079E+002  0.9225330E+02  0.7546771E-02  0.1297485E+00
         21   -1    0    0  503  501  0.00000000000E+00  0.00000000000E+00  0.46853873740E+03  0.46853873740E+03  0.00000000000E+00 0.  1.
         21   -1    0    0  505  502 -0.00000000000E+00 -0.00000000000E+00 -0.25766120862E+03  0.25766120862E+03  0.00000000000E+00 0.  1.
         21    1    1    2  503  506 -0.14987215783E+02  0.26559741103E+02  0.25508098005E+03  0.25689753379E+03  0.00000000000E+00 0.  1.
         21    1    1    2  504  502 -0.67044862134E+02  0.30424883007E+02 -0.16711741368E+03  0.18261685848E+03  0.00000000000E+00 0.  1.
         21    1    1    2  505  501 -0.54419514020E+02  0.33104496693E+02  0.10417609371E+03  0.12210671443E+03  0.00000000000E+00 0.  1.
         21    1    1    2  506  504  0.13645159194E+03 -0.90089120804E+02  0.18737868695E+02  0.16457883932E+03  0.00000000000E+00 0.  1.
<scales pt_clust_3="30.49650" pt_clust_4="74.52599" pt_clust_5="14000.00000" pt_clust_6="92.25330"></scales>
<clustering>
<clus scale="   30.496">  1  3  2 -1</clus>
<clus scale="   74.526">  2  4  1 -1</clus>
<clus scale="   92.253">  2  6  1 -1</clus>
<clus scale="   30.496">  1  3  2 -1</clus>
</clustering>
</event>
<event>
 6    0  0.6687079E+002  0.8114534E+02  0.7546771E-02  0.1325832E+00
         21   -1    0    0  504  501  0.00000000000E+00  0.00000000000E+00  0.23203766202E+03  0.23203766202E+03  0.00000000000E+00 0.  1.
         21   -1    0    0  506  502 -0.00000000000E+00 -0.00000000000E+00 -0.12339404691E+03  0.12339404691E+03  0.00000000000E+00 0.  1.
         21    1    1    2  503  505 -0.43487319884E+02  0.10421690927E+02  0.10344748594E+03  0.11269933886E+03  0.00000000000E+00 0.  1.
         21    1    1    2  504  502 -0.36898450929E+02  0.51258182074E+02 -0.19722096925E+02  0.66165383832E+02  0.00000000000E+00 0.  1.
         21    1    1    2  505  501 -0.19266886785E+02  0.25972422944E+02  0.29499001180E+02  0.43771803145E+02  0.00000000000E+00 0.  1.
         21    1    1    2  506  503  0.99652657597E+02 -0.87652295946E+02 -0.45807750910E+01  0.13279518309E+03  0.00000000000E+00 0.  1.
<scales pt_clust_3="59.54738" pt_clust_4="81.14534" pt_clust_5="32.33852" pt_clust_6="14000.00000"></scales>
<clustering>
<clus scale="   32.339">  1  5  2 -1</clus>
<clus scale="   59.547">  1  3  2 -1</clus>
<clus scale="   81.145">  2  4  1 -1</clus>
<clus scale="   32.339">  1  3  2 -1</clus>
</clustering>
</event>
<event>
 6    0  0.6687079E+002  0.9516105E+02  0.7546771E-02  0.1290814E+00
         21   -1    0    0  505  501  0.00000000000E+00  0.00000000000E+00  0.16301173270E+04  0.16301173270E+04  0.00000000000E+00 0. -1.
         21   -1    0    0  506  502 -0.00000000000E+00 -0.00000000000E+00 -0.66946735755E+03  0.66946735755E+03  0.00000000000E+00 0.  1.
         21    1    1    2  503  502 -0.87916854261E+02 -0.12047035653E+03 -0.35786318637E+03  0.38769645371E+03  0.00000000000E+00 0.  1.
         21    1    1    2  504  503  0.70167554352E+01  0.69135702277E+02  0.33130750571E+02  0.76984588196E+02  0.00000000000E+00 0. -1.
         21    1    1    2  505  504  0.16526459076E+02  0.26443582677E+02  0.15556500509E+04  0.15559625535E+04  0.00000000000E+00 0. -1.
         21    1    1    2  506  501  0.64373639750E+02  0.24891071572E+02 -0.27026764566E+03  0.27894108917E+03  0.00000000000E+00 0. -1.
<scales pt_clust_3="95.16105" pt_clust_4="14000.00000" pt_clust_5="31.18312" pt_clust_6="70.48291"></scales>
<clustering>
<clus scale="   31.183">  1  5  2 -1</clus>
<clus scale="   70.483">  2  6  1 -1</clus>
<clus scale="   95.161">  2  3  1 -1</clus>
<clus scale="   31.183">  1  3  2 -1</clus>
</clustering>
</event>
<event>
 6    0  0.6687079E+002  0.1189339E+03  0.7546771E-02  0.1244866E+00
         21   -1    0    0  504  501  0.00000000000E+00  0.00000000000E+00  0.16258225584E+04  0.16258225584E+04  0.00000000000E+00 0. -1.
         21   -1    0    0  503  502 -0.00000000000E+00 -0.00000000000E+00 -0.18748081133E+02  0.18748081133E+02  0.00000000000E+00 0. -1.
         21    1    1    2  503  506  0.32378788453E+02  0.18568731522E+02  0.58091700737E+02  0.69049470864E+02  0.00000000000E+00 0. -1.
         21    1    1    2  504  502 -0.44932498142E+02  0.68264266847E+00  0.31007276055E+03  0.31331216418E+03  0.00000000000E+00 0. -1.
         21    1    1    2  505  501 -0.26968606431E+02 -0.12048712836E+03  0.82869393155E+03  0.83784132508E+03  0.00000000000E+00 0. -1.
         21    1    1    2  506  505  0.39522316120E+02  0.10123575417E+03  0.41021608446E+03  0.42436767943E+03  0.00000000000E+00 0. -1.
<scales pt_clust_3="37.32538" pt_clust_4="41.08617" pt_clust_5="118.93389" pt_clust_6="14000.00000"></scales>
<clustering>
<clus scale="   37.325">  2  3  1 -1</clus>
<clus scale="   41.086">  1  4  2 -1</clus>
<clus scale="  118.934">  1  5  2 -1</clus>
<clus scale="   41.086">  1  3  2 -1</clus>
</clustering>
</event>
<event>
 6    0  0.6687079E+002  0.1185210E+03  0.7546771E-02  0.1245557E+00
         21   -1    0    0  506  501  0.00000000000E+00  0.00000000000E+00  0.14485393372E+03  0.14485393372E+03  0.00000000000E+00 0. -1.
         21   -1    0    0  505  502 -0.00000000000E+00 -0.00000000000E+00 -0.12245307546E+04  0.12245307546E+04  0.00000000000E+00 0.  1.
         21    1    1    2  503  501  0.22055131509E+02  0.34923223599E+02 -0.34486463764E+02  0.53808703342E+02  0.00000000000E+00 0. -1.
         21    1    1    2  504  503 -0.12612699864E+02 -0.53113462430E+02 -0.14825498901E+02  0.56567795668E+02  0.00000000000E+00 0. -1.
         21    1    1    2  505  504 -0.81468377629E+02 -0.85825756417E+02 -0.11055301900E+04  0.11118453841E+04  0.00000000000E+00 0.  1.
         21    1    1    2  506  502  0.72025945983E+02  0.10401599525E+03  0.75165331755E+02  0.14716280529E+03  0.00000000000E+00 0. -1.
<scales pt_clust_3="41.30448" pt_clust_4="48.60219" pt_clust_5="14000.00000" pt_clust_6="118.52099"></scales>
<clustering>
<clus scale="   41.304">  1  3  2 -1</clus>
<clus scale="   48.602">  1  4  2 -1</clus>
<clus scale="  118.521">  1  6  2 -1</clus>
<clus scale="   41.304">  1  3  2 -1</clus>
</clustering>
</event>
<event>
 6    0  0.6687079E+002  0.9351605E+02  0.7546771E-02  0.1294554E+00
         21   -1    0    0  504  501  0.00000000000E+00  0.00000000000E+00  0.24750149320E+03  0.24750149320E+03  0.00000000000E+00 0.  1.
         21   -1    0    0  506  502 -0.00000000000E+00 -0.00000000000E+00 -0.23369907360E+03  0.23369907360E+03  0.00000000000E+00 0.  1.
         21    1    1    2  503  501  0.65625175350E+02 -0.92565865832E+00 -0.14493841960E+02  0.67213033992E+02  0.00000000000E+00 0.  1.
         21    1    1    2  504  505 -0.79907849326E+02 -0.41453081656E+01  0.15733542263E+03  0.17651312466E+03  0.00000000000E+00 0.  1.
         21    1    1    2  505  502 -0.62952427515E+02 -0.12202934895E+02 -0.14335832101E+03  0.15704626055E+03  0.00000000000E+00 0.  1.
         21    1    1    2  506  503  0.77235101491E+02  0.17273901719E+02  0.14319159941E+02  0.80428147587E+02  0.00000000000E+00 0.  1.
<scales pt_clust_3="30.49735" pt_clust_4="87.31373" pt_clust_5="64.12425" pt_clust_6="30.49735"></scales>
<clustering>
<clus scale="   30.497">  3  6 -1 -1</clus>
<clus scale="   64.124">  2  5  1 -1</clus>
<clus scale="   87.314">  1  4  2 -1</clus>
<clus scale="   87.314">  1  3  2 -1</clus>
</clustering>
</event>
<event>
 6    0  0.6687079E+002  0.1129225E+03  0.7546771E-02  0.1255252E+00
         21   -1    0    0  504  501  0.00000000000E+00  0.00000000000E+00  0.17460631193E+03  0.17460631193E+03  0.00000000000E+00 0. -1.
         21   -1    0    0  506  502 -0.00000000000E+00 -0.00000000000E+00 -0.45186219193E+03  0.45186219193E+03  0.00000000000E+00 0. -1.
         21    1    1    2  503  501  0.10323300641E+03  0.36778652273E+02  0.10961507542E+03  0.15500060527E+03  0.00000000000E+00 0. -1.
         21    1    1    2  504  505  0.10876537679E+02  0.45043984087E+02 -0.20875681420E+02  0.50823750836E+02  0.00000000000E+00 0. -1.
         21    1    1    2  505  502  0.19003911767E+02 -0.32567396545E+02 -0.19407966466E+03  0.19770862453E+03  0.00000000000E+00 0. -1.
         21    1    1    2  506  503 -0.13311345586E+03 -0.49255239815E+02 -0.17191560934E+03  0.22293552322E+03  0.00000000000E+00 0. -1.
<scales pt_clust_3="14000.00000" pt_clust_4="42.68646" pt_clust_5="37.70655" pt_clust_6="112.92252"></scales>
<clustering>
<clus scale="   37.707">  2  5  1 -1</clus>
<clus scale="   42.686">  2  4  1 -1</clus>
<clus scale="  112.923">  2  6  1 -1</clus>
<clus scale="  112.923">  1  3  2 -1</clus>
</clustering>
</event>
<event>
 6    0  0.6687079E+002  0.1004702E+03  0.7546771E-02  0.1279310E+00
         21   -1    0    0  503  501  0.00000000000E+00  0.00000000000E+00  0.13643165587E+04  0.13643165587E+04  0.00000000000E+00 0.  1.
         21   -1    0    0  505  502 -0.00000000000E+00 -0.00000000000E+00 -0.71039807145E+02  0.71039807145E+02  0.00000000000E+00 0. -1.
         21    1    1    2  503  506 -0.10306402191E+03 -0.60375001752E+02  0.86007886805E+03  0.86833345710E+03  0.00000000000E+00 0. -1.
         21    1    1    2  504  501  0.29929434284E+02 -0.27140852861E+01  0.20569813492E+03  0.20788184145E+03  0.00000000000E+00 0.  1.
         21    1    1    2  505  504  0.32042358366E+02  0.10057513563E+03  0.26950566601E+03  0.28943975996E+03  0.00000000000E+00 0.  1.
         21    1    1    2  506  502  0.41092229260E+02 -0.37486048588E+02 -0.42005917429E+02  0.69701307329E+02  0.00000000000E+00 0. -1.
<scales pt_clust_3="100.47022" pt_clust_4="30.05224" pt_clust_5="14000.00000" pt_clust_6="55.90854"></scales>
<clustering>
<clus scale="   30.052">  1  4  2 -1</clus>
<clus scale="   55.909">  2  6  1 -1</clus>
<clus scale="  100.470">  1  3  2 -1</clus>
<clus scale="   30.052">  1  3  2 -1</clus>
</clustering>
</event>
<event>
 6    0  0.6687079E+002  0.8232610E+02  0.7546771E-02  0.1322577E+00
         21   -1    0    0  503  501  0.00000000000E+00  0.00000000000E+00  0.12148456416E+02  0.12148456416E+02  0.00000000000E+00 0. -1.
         21   -1    0    0  505  502 -0.00000000000E+00 -0.00000000000E+00 -0.21459852217E+04  0.21459852217E+04  0.00000000000E+00 0. -1.
         21    1    1    2  503  506  0.45468761891E+02  0.66272831097E+02 -0.20885094202E+03  0.22378161773E+03  0.00000000000E+00 0. -1.
         21    1    1    2  504  502  0.25550072118E+02 -0.38619935735E+02 -0.41705997631E+03  0.41962284192E+03  0.00000000000E+00 0.  1.
         21    1    1    2  505  501 -0.21366777949E+02  0.47964318273E+02 -0.61170742574E+03  0.61395691196E+03  0.00000000000E+00 0. -1.
         21    1    1    2  506  504 -0.49652056060E+02 -0.75617213635E+02 -0.89621842125E+03  0.90077230655E+03  0.00000000000E+00 0. -1.
<scales pt_clust_3="14000.00000" pt_clust_4="46.30665" pt_clust_5="36.40700" pt_clust_6="82.32610"></scales>
<clustering>
<clus scale="   46.307">  2  4  1 -1</clus>
<clus scale="   36.407">  2  5  1 -1</clus>
<clus scale="   82.326">  2  6  1 -1</clus>
<clus scale="   82.326">  1  3  2 -1</clus>
</clustering>
</event>
<event>
 6    0  0.6687079E+002  0.1947291E+03  0.7546771E-02  0.1154264E+00
         21   -1    0    0  506  501  0.00000000000E+00  0.00000000000E+00  0.10272130837E+03  0.10272130837E+03  0.00000000000E+00 0. -1.
         21   -1    0    0  505  502 -0.00000000000E+00 -0.00000000000E+00 -0.15686519519E+04  0.15686519519E+04  0.00000000000E+00 0.  1.
         21    1    1    2  503  504  0.45615928664E+02  0.73289809292E+02 -0.16346773757E+03  0.18486186821E+03  0.00000000000E+00 0. -1.
         21    1    1    2  504  501  0.10172024918E+03 -0.13241649131E+03 -0.10295444768E+04  0.10429971073E+04  0.00000000000E+00 0.  1.
         21    1    1    2  505  503  0.49861604992E+02  0.14113483596E+02 -0.23126531609E+03  0.23700003481E+03  0.00000000000E+00 0. -1.
         21    1    1    2  506  502 -0.19719778284E+03  0.45013198426E+02 -0.41653113115E+02  0.20651424993E+03  0.00000000000E+00 0. -1.
<scales pt_clust_3="91.44183" pt_clust_4="194.72909" pt_clust_5="51.82056" pt_clust_6="14000.00000"></scales>
<clustering>
<clus scale="   51.821">  2  5  1 -1</clus>
<clus scale="   91.442">  2  3  1 -1</clus>
<clus scale="  194.729">  2  4  1 -1</clus>
<clus scale="  194.729">  1  3  2 -1</clus>
</clustering>
</event>
<event>
 6    0  0.6687079E+002  0.1388234E+03  0.7546771E-02  0.1214921E+00
         21   -1    0    0  505  501  0.00000000000E+00  0.00000000000E+00  0.13978267002E+03  0.13978267002E+03  0.00000000000E+00 0.  1.
         21   -1    0    0  506  502 -0.00000000000E+00 -0.00000000000E+00 -0.25651981208E+03  0.25651981208E+03  0.00000000000E+00 0.  1.
         21    1    1    2  503  504 -0.27057092980E+02  0.15800637207E+02 -0.37552496239E+02  0.48907426742E+02  0.00000000000E+00 0.  1.
         21    1    1    2  504  501 -0.74418258462E+01 -0.10973200814E+03  0.66226946344E+02  0.12838419998E+03  0.00000000000E+00 0.  1.
         21    1    1    2  505  502  0.39077989843E+02 -0.18639937461E+02 -0.13108244143E+02  0.45236739750E+02  0.00000000000E+00 0.  1.
         21    1    1    2  506  503 -0.45790710176E+01  0.11257130840E+03 -0.13230334802E+03  0.17377411563E+03  0.00000000000E+00 0.  1.
<scales pt_clust_3="30.09118" pt_clust_4="126.55460" pt_clust_5="43.29592" pt_clust_6="30.09118"></scales>
<clustering>
<clus scale="   30.091">  3  6 -1 -1</clus>
<clus scale="   43.296">  1  5  2 -1</clus>
<clus scale="  126.555">  1  4  2 -1</clus>
<clus scale="   43.296">  1  3  2 -1</clus>
</clustering>
</event>
<event>
 6    0  0.6687079E+002  0.3607132E+03  0.7546771E-02  0.1058302E+00
         21   -1    0    0  506  501  0.00000000000E+00  0.00000000000E+00  0.85176972957E+03  0.85176972957E+03  0.00000000000E+00 0.  1.
         21   -1    0    0  505  502 -0.00000000000E+00 -0.00000000000E+00 -0.38965439545E+03  0.38965439545E+03  0.00000000000E+00 0.  1.
         21    1    1    2  503  504 -0.63228039212E+02 -0.11485911841E+01  0.36003002238E+01  0.63340874371E+02  0.00000000000E+00 0. -1.
         21    1    1    2  504  502 -0.19422138043E+03  0.19420222243E+03 -0.15100768003E+03  0.31343223708E+03  0.00000000000E+00 0.  1.
         21    1    1    2  505  501  0.15299462631E+01  0.87310697923E+02  0.44058009127E+03  0.44915066017E+03  0.00000000000E+00 0.  1.
         21    1    1    2  506  503  0.25591947338E+03 -0.28036432917E+03  0.16894262266E+03  0.41550035340E+03  0.00000000000E+00 0.  1.
<scales pt_clust_3="61.97009" pt_clust_4="61.97009" pt_clust_5="87.32410" pt_clust_6="336.80096"></scales>
<clustering>
<clus scale="   61.970">  3  4 -1 -1</clus>
<clus scale="   87.324">  1  5  2 -1</clus>
<clus scale="  336.801">  1  6  2 -1</clus>
<clus scale="   87.324">  1  3  2 -1</clus>
</clustering>
</event>
<event>
 6    0  0.6687079E+002  0.1619622E+03  0.7546771E-02  0.1186499E+00
         21   -1    0    0  505  501  0.00000000000E+00  0.00000000000E+00  0.13705546921E+03  0.13705546921E+03  0.00000000000E+00 0.  1.
         21   -1    0    0  506  502 -0.00000000000E+00 -0.00000000000E+00 -0.66169408782E+03  0.66169408782E+03  0.00000000000E+00 0. -1.
         21    1    1    2  503  504  0.48972309060E+02  0.11898484043E+01 -0.22090608542E+02  0.53737303427E+02  0.00000000000E+00 0. -1.
         21    1    1    2  504  501 -0.77348446776E+01 -0.85497696008E+02  0.71962742975E+02  0.11201928504E+03  0.00000000000E+00 0.  1.
         21    1    1    2  505  502 -0.14137627567E+03  0.73215964114E+02 -0.41310713618E+03  0.44272489729E+03  0.00000000000E+00 0. -1.
         21    1    1    2  506  503  0.10013881129E+03  0.11091883490E+02 -0.16140361686E+03  0.19026807126E+03  0.00000000000E+00 0. -1.
<scales pt_clust_3="41.15510" pt_clust_4="85.84686" pt_clust_5="150.82517" pt_clust_6="41.15510"></scales>
<clustering>
<clus scale="   41.155">  3  6 -1 -1</clus>
<clus scale="   85.847">  1  4  2 -1</clus>
<clus scale="  150.825">  2  5  1 -1</clus>
<clus scale="   85.847">  1  3  2 -1</clus>
</clustering>
</event>
<event>
 6    0  0.6687079E+002  0.6704600E+02  0.7546771E-02  0.1370436E+00
         21   -1    0    0  503  501  0.00000000000E+00  0.00000000000E+00  0.57911497297E+03  0.57911497297E+03  0.00000000000E+00 0. -1.
         21   -1    0    0  505  502 -0.00000000000E+00 -0.00000000000E+00 -0.11462340407E+03  0.11462340407E+03  0.00000000000E+00 0.  1.
         21    1    1    2  503  506  0.54292602268E+02 -0.20920007369E+02  0.21350470467E+03  0.22129074153E+03  0.00000000000E+00 0. -1.
         21    1    1    2  504  501 -0.79595727064E+02  0.24550057157E+02  0.23756037999E+03  0.25174018196E+03  0.00000000000E+00 0.  1.
         21    1    1    2  505  504 -0.52154650697E+01  0.50015427723E+02 -0.88362083987E+02  0.10166908071E+03  0.00000000000E+00 0.  1.
         21    1    1    2  506  502  0.30518589866E+02 -0.53645477511E+02  0.10178856823E+03  0.11903837284E+03  0.00000000000E+00 0.  1.
<scales pt_clust_3="14000.00000" pt_clust_4="67.04600" pt_clust_5="50.28662" pt_clust_6="42.40326"></scales>
<clustering>
<clus scale="   50.287">  2  5  1 -1</clus>
<clus scale="   42.403">  2  6  1 -1</clus>
<clus scale="   67.046">  2  4  1 -1</clus>
<clus scale="   67.046">  1  3  2 -1</clus>
</clustering>
</event>
<event>
 6    0  0.6687079E+002  0.1397456E+03  0.7546771E-02  0.1213672E+00
         21   -1    0    0  503  501  0.00000000000E+00  0.00000000000E+00  0.47579257079E+03  0.47579257079E+03  0.00000000000E+00 0.  1.
         21   -1    0    0  504  502 -0.00000000000E+00 -0.00000000000E+00 -0.19139984903E+03  0.19139984903E+03  0.00000000000E+00 0.  1.
         21    1    1    2  503  502 -0.34775621097E+02  0.27761421606E+02 -0.10944574467E+03  0.11814572095E+03  0.00000000000E+00 0.  1.
         21    1    1    2  504  505 -0.99030191031E+02 -0.20566204757E+02 -0.26394546216E+02  0.10453047203E+03  0.00000000000E+00 0.  1.
         21    1    1    2  505  506  0.63066149526E+02 -0.14751062842E+02  0.12441783224E+03  0.14026663912E+03  0.00000000000E+00 0.  1.
         21    1    1    2  506  501  0.70739662602E+02  0.75558459929E+01  0.29581518040E+03  0.30424958772E+03  0.00000000000E+00 0.  1.
<scales pt_clust_3="44.49764" pt_clust_4="128.39664" pt_clust_5="51.57316" pt_clust_6="51.57316"></scales>
<clustering>
<clus scale="   44.498">  2  3  1 -1</clus>
<clus scale="   51.573">  5  6 -1 -1</clus>
<clus scale="  128.397">  2  4  1 -1</clus>
<clus scale="  139.746">  1  3  2 -1</clus>
</clustering>
</event>
<event>
 6    0  0.6687079E+002  0.9925288E+02  0.7546771E-02  0.1281875E+00
         21   -1    0    0  503  501  0.00000000000E+00  0.00000000000E+00  0.67153355937E+02  0.67153355937E+02  0.00000000000E+00 0. -1.
         21   -1    0    0  505  502 -0.00000000000E+00 -0.00000000000E+00 -0.12577339168E+04  0.12577339168E+04  0.00000000000E+00 0. -1.
         21    1    1    2  503  506  0.36161499180E+02 -0.69166082269E+01 -0.61744667276E+01  0.37331187119E+02  0.00000000000E+00 0. -1.
         21    1    1    2  504  502 -0.11750122182E+03 -0.59583876184E+02 -0.63208788663E+03  0.64567164399E+03  0.00000000000E+00 0. -1.
         21    1    1    2  505  501  0.31090352475E+02  0.41332452408E+02 -0.57784774461E+03  0.58015773509E+03  0.00000000000E+00 0. -1.
         21    1    1    2  506  504  0.50249370161E+02  0.25168032003E+02  0.25529537093E+02  0.61726706544E+02  0.00000000000E+00 0. -1.
<scales pt_clust_3="32.75666" pt_clust_4="90.62692" pt_clust_5="51.72022" pt_clust_6="32.75666"></scales>
<clustering>
<clus scale="   32.757">  3  6 -1 -1</clus>
<clus scale="   51.720">  2  5  1 -1</clus>
<clus scale="   90.627">  2  4  1 -1</clus>
<clus scale="   99.253">  1  3  2 -1</clus>
</clustering>
</event>
<event>
 6    0  0.6687079E+002  0.1274104E+03  0.7546771E-02  0.1231350E+00
         21   -1    0    0  503  501  0.00000000000E+00  0.00000000000E+00  0.19131990965E+04  0.19131990965E+04  0.00000000000E+00 0. -1.
         21   -1    0    0  505  502 -0.00000000000E+00 -0.00000000000E+00 -0.33474002009E+02  0.33474002009E+02  0.00000000000E+00 0. -1.
         21    1    1    2  503  504  0.34612105222E+02  0.29913341129E+02  0.38459387035E+03  0.38730511347E+03  0.00000000000E+00 0.  1.
         21    1    1    2  504  506  0.89578237906E+02 -0.22037930235E+01  0.76691692370E+03  0.77213385191E+03  0.00000000000E+00 0. -1.
         21    1    1    2  505  501 -0.11230350092E+03  0.30933805283E+02  0.71694477052E+03  0.72634618510E+03  0.00000000000E+00 0. -1.
         21    1    1    2  506  502 -0.11886842205E+02 -0.58643353389E+02  0.11269529952E+02  0.60887948066E+02  0.00000000000E+00 0. -1.
<scales pt_clust_3="32.98076" pt_clust_4="32.98076" pt_clust_5="118.75546" pt_clust_6="59.83594"></scales>
<clustering>
<clus scale="   32.981">  3  4 -1 -1</clus>
<clus scale="   59.836">  2  6  1 -1</clus>
<clus scale="  118.755">  2  5  1 -1</clus>
<clus scale="  127.410">  1  3  2 -1</clus>
</clustering>
</event>
<event>
 6    0  0.6687079E+002  0.2196361E+03  0.7546771E-02  0.1134155E+00
         21   -1    0    0  505  501  0.00000000000E+00  0.00000000000E+00  0.27722221651E+03  0.27722221651E+03  0.00000000000E+00 0.  1.
         21   -1    0    0  503  502 -0.00000000000E+00 -0.00000000000E+00 -0.95482942622E+03  0.95482942622E+03  0.00000000000E+00 0.  1.
         21    1    1    2  503  501  0.25735842646E+03 -0.43099405723E+02 -0.60146400485E+01  0.26101167472E+03  0.00000000000E+00 0.  1.
         21    1    1    2  504  506 -0.87162929875E+02  0.17982829240E+02  0.41198392686E+02  0.98071739313E+02  0.00000000000E+00 0.  1.
         21    1    1    2  505  504 -0.87624385527E+02  0.67452491796E+02  0.37649001992E+02  0.11681317965E+03  0.00000000000E+00 0.  1.
         21    1    1    2  506  502 -0.82571111062E+02 -0.42335915314E+02 -0.75043996435E+03  0.75615504905E+03  0.00000000000E+00 0.  1.
<scales pt_clust_3="214.78175" pt_clust_4="41.19774" pt_clust_5="41.19774" pt_clust_6="92.79180"></scales>
<clustering>
<clus scale="   41.198">  4  5 -1 -1</clus>
<clus scale="   92.792">  2  6  1 -1</clus>
<clus scale="  214.782">  2  3  1 -1</clus>
<clus scale="  219.636">  1  3  2 -1</clus>
</clustering>
</event>
<event>
 6    0  0.6687079E+002  0.1292590E+03  0.7546771E-02  0.1228559E+00
         21   -1    0    0  504  501  0.00000000000E+00  0.00000000000E+00  0.16336809869E+04  0.16336809869E+04  0.00000000000E+00 0.  1.
         21   -1    0    0  506  502 -0.00000000000E+00 -0.00000000000E+00 -0.19677948452E+03  0.19677948452E+03  0.00000000000E+00 0.  1.
         21    1    1    2  503  505 -0.10657577658E+03 -0.10621670190E+02  0.61725192075E+03  0.62647517884E+03  0.00000000000E+00 0.  1.
         21    1    1    2  504  502 -0.36157348911E+02 -0.75601423175E+02  0.35765910668E+03  0.36734583930E+03  0.00000000000E+00 0.  1.
         21    1    1    2  505  501  0.33334397585E+02  0.15078578313E+02  0.62598841997E+03  0.62705665416E+03  0.00000000000E+00 0. -1.
         21    1    1    2  506  503  0.10939872791E+03  0.71144515052E+02 -0.16399794505E+03  0.20958279908E+03  0.00000000000E+00 0.  1.
<scales pt_clust_3="14000.00000" pt_clust_4="74.21660" pt_clust_5="36.58614" pt_clust_6="129.25904"></scales>
<clustering>
<clus scale="   36.586">  1  5  2 -1</clus>
<clus scale="   74.217">  1  4  2 -1</clus>
<clus scale="  129.259">  2  6  1 -1</clus>
<clus scale="   36.586">  1  3  2 -1</clus>
</clustering>
</event>
<event>
 6    0  0.6687079E+002  0.1003372E+03  0.7546771E-02  0.1279589E+00
         21   -1    0    0  505  501  0.00000000000E+00  0.00000000000E+00  0.70511130535E+02  0.70511130535E+02  0.00000000000E+00 0.  1.
         21   -1    0    0  503  502 -0.00000000000E+00 -0.00000000000E+00 -0.31293261995E+03  0.31293261995E+03  0.00000000000E+00 0.  1.
         21    1    1    2  503  506 -0.71373579032E+02 -0.89425898592E+01 -0.12251149641E+03  0.14206767560E+03  0.00000000000E+00 0.  1.
         21    1    1    2  504  502  0.49716067343E+02  0.16466483914E+02 -0.92544701347E+02  0.10633604371E+03  0.00000000000E+00 0.  1.
         21    1    1    2  505  504  0.50222955455E+02  0.44857536862E+02 -0.33223795079E+02  0.75089043324E+02  0.00000000000E+00 0.  1.
         21    1    1    2  506  501 -0.28565443765E+02 -0.52381430916E+02  0.58585034205E+01  0.59950987854E+02  0.00000000000E+00 0.  1.
<scales pt_clust_3="81.96734" pt_clust_4="51.03496" pt_clust_5="51.03496" pt_clust_6="59.66405"></scales>
<clustering>
<clus scale="   51.035">  4  5 -1 -1</clus>
<clus scale="   59.664">  1  6  2 -1</clus>
<clus scale="   81.967">  2  3  1 -1</clus>
<clus scale="   59.664">  1  3  2 -1</clus>
</clustering>
</event>
<event>
 6    0  0.6687079E+002  0.1153690E+03  0.7546771E-02  0.1250938E+00
         21   -1    0    0  506  501  0.00000000000E+00  0.00000000000E+00  0.70386649605E+03  0.70386649605E+03  0.00000000000E+00 0. -1.
         21   -1    0    0  504  502 -0.00000000000E+00 -0.00000000000E+00 -0.28258506155E+03  0.28258506155E+03  0.00000000000E+00 0. -1.
         21    1    1    2  503  502  0.33874387009E+02  0.15763527993E+02 -0.22889803832E+03  0.23192730511E+03  0.00000000000E+00 0. -1.
         21    1    1    2  504  501 -0.66409122224E+02  0.10859152631E+03  0.56536152843E+03  0.57951354508E+03  0.00000000000E+00 0. -1.
         21    1    1    2  505  503  0.19266423306E+02 -0.34376303575E+02 -0.12948331852E+02  0.41479930234E+02  0.00000000000E+00 0. -1.
         21    1    1    2  506  505  0.13268311909E+02 -0.89978750727E+02  0.97766276246E+02  0.13353077718E+03  0.00000000000E+00 0. -1.
<scales pt_clust_3="37.36259" pt_clust_4="14000.00000" pt_clust_5="45.25797" pt_clust_6="115.36896"></scales>
<clustering>
<clus scale="   37.363">  2  3  1 -1</clus>
<clus scale="   45.258">  2  5  1 -1</clus>
<clus scale="  115.369">  2  6  1 -1</clus>
<clus scale="  115.369">  1  3  2 -1</clus>
</clustering>
</event>
<event>
 6    0  0.6687079E+002  0.9462510E+02  0.7546771E-02  0.1292023E+00
         21   -1    0    0  502  501  0.00000000000E+00  0.00000000000E+00  0.22582596872E+04  0.22582596872E+04  0.00000000000E+00 0.  1.
         21   -1    0    0  503  502 -0.00000000000E+00 -0.00000000000E+00 -0.23148826502E+02  0.23148826502E+02  0.00000000000E+00 0. -1.
         21    1    1    2  503  504  0.44235604152E+02  0.11055419453E+02  0.27619068941E+02  0.53308760472E+02  0.00000000000E+00 0. -1.
         21    1    1    2  504  505  0.61352333183E+02  0.43836114660E+02  0.17501675627E+03  0.19056909170E+03  0.00000000000E+00 0. -1.
         21    1    1    2  505  506 -0.44181555055E+02 -0.66233334355E+02  0.99661564476E+03  0.99979078199E+03  0.00000000000E+00 0.  1.
         21    1    1    2  506  501 -0.61406382279E+02  0.11341800242E+02  0.10358593907E+04  0.10377398796E+04  0.00000000000E+00 0.  1.
<scales pt_clust_3="45.59617" pt_clust_4="94.62510" pt_clust_5="14000.00000" pt_clust_6="58.68422"></scales>
<clustering>
<clus scale="   45.596">  2  3  1 -1</clus>
<clus scale="   58.684">  1  6  2 -1</clus>
<clus scale="   94.625">  2  4  1 -1</clus>
<clus scale="   58.684">  1  3  2 -1</clus>
</clustering>
</event>
<event>
 6    0  0.6687079E+002  0.6939449E+02  0.7546771E-02  0.1362164E+00
         21   -1    0    0  503  501  0.00000000000E+00  0.00000000000E+00  0.94545889450E+03  0.94545889450E+03  0.00000000000E+00 0.  1.
         21   -1    0    0  504  502 -0.00000000000E+00 -0.00000000000E+00 -0.11262605512E+03  0.11262605512E+03  0.00000000000E+00 0.  1.
         21    1    1    2  503  506  0.21516613890E+02  0.61509001052E+02  0.58831485425E+03  0.59191273817E+03  0.00000000000E+00 0.  1.
         21    1    1    2  504  505 -0.34873093139E+02  0.26568834560E+02 -0.89446480434E+02  0.99612792637E+02  0.00000000000E+00 0.  1.
         21    1    1    2  505  501 -0.32359618047E+02 -0.94385891232E+02  0.17973694553E+03  0.20557531694E+03  0.00000000000E+00 0.  1.
         21    1    1    2  506  502  0.45716097296E+02  0.63080556206E+01  0.15422752003E+03  0.16098410186E+03  0.00000000000E+00 0.  1.
<scales pt_clust_3="69.39449" pt_clust_4="43.84103" pt_clust_5="14000.00000" pt_clust_6="40.79301"></scales>
<clustering>
<clus scale="   43.841">  2  4  1 -1</clus>
<clus scale="   40.793">  2  6  1 -1</clus>
<clus scale="   69.394">  1  3  2 -1</clus>
<clus scale="   69.394">  1  3  2 -1</clus>
</clustering>
</event>
<event>
 6    0  0.6687079E+002  0.1130019E+03  0.7546771E-02  0.1255110E+00
         21   -1    0    0  503  501  0.00000000000E+00  0.00000000000E+00  0.28029108395E+03  0.28029108395E+03  0.00000000000E+00 0.  1.
         21   -1    0    0  506  502 -0.00000000000E+00 -0.00000000000E+00 -0.13062804370E+03  0.13062804370E+03  0.00000000000E+00 0. -1.
         21    1    1    2  503  505 -0.28392028383E+02 -0.40557047231E+02  0.17166735310E+03  0.17866354266E+03  0.00000000000E+00 0.  1.
         21    1    1    2  504  501 -0.57850926563E+02  0.31999058776E+02 -0.16509700979E+01  0.66131650282E+02  0.00000000000E+00 0. -1.
         21    1    1    2  505  502  0.12113646677E+03  0.81050409759E+01  0.72594799236E+01  0.12162415599E+03  0.00000000000E+00 0. -1.
         21    1    1    2  506  504 -0.34893511827E+02  0.45294747948E+00 -0.27612822680E+02  0.44499778712E+02  0.00000000000E+00 0.  1.
<scales pt_clust_3="49.50739" pt_clust_4="30.20374" pt_clust_5="105.07686" pt_clust_6="30.20374"></scales>
<clustering>
<clus scale="   30.204">  4  6 -1 -1</clus>
<clus scale="   49.507">  1  3  2 -1</clus>
<clus scale="  105.077">  1  5  2 -1</clus>
<clus scale="   49.507">  1  3  2 -1</clus>
</clustering>
</event>
<event>
 6    0  0.6687079E+002  0.1101562E+03  0.7546771E-02  0.1260281E+00
         21   -1    0    0  502  501  0.00000000000E+00  0.00000000000E+00  0.21249788965E+04  0.21249788965E+04  0.00000000000E+00 0.  1.
         21   -1    0    0  506  502 -0.00000000000E+00 -0.00000000000E+00 -0.11947235015E+03  0.11947235015E+03  0.00000000000E+00 0.  1.
         21    1    1    2  503  504  0.99362740139E+02 -0.19212406760E+02  0.29743769211E+03  0.31418346772E+03  0.00000000000E+00 0.  1.
         21    1    1    2  504  505 -0.87985543653E+02  0.99285903903E+02  0.52422802739E+03  0.54075333684E+03  0.00000000000E+00 0.  1.
         21    1    1    2  505  501 -0.78316593467E+01 -0.36789226556E+02  0.12818042499E+04  0.12823560025E+04  0.00000000000E+00 0.  1.
         21    1    1    2  506  503 -0.35455371393E+01 -0.43284270588E+02 -0.97963423066E+02  0.10715843958E+03  0.00000000000E+00 0.  1.
<scales pt_clust_3="110.15619" pt_clust_4="14000.00000" pt_clust_5="37.61359" pt_clust_6="43.63273"></scales>
<clustering>
<clus scale="   37.614">  1  5  2 -1</clus>
<clus scale="   43.633">  2  6  1 -1</clus>
<clus scale="  110.156">  2  3  1 -1</clus>
<clus scale="   37.614">  1  3  2 -1</clus>
</clustering>
</event>
<event>
 6    0  0.6687079E+002  0.9555693E+02  0.7546771E-02  0.1289927E+00
         21   -1    0    0  502  501  0.00000000000E+00  0.00000000000E+00  0.56498163110E+03  0.56498163110E+03  0.00000000000E+00 0. -1.
         21   -1    0    0  506  502 -0.00000000000E+00 -0.00000000000E+00 -0.16622623121E+03  0.16622623121E+03  0.00000000000E+00 0. -1.
         21    1    1    2  503  505 -0.71933497290E+02 -0.61194570981E+02  0.79454408609E+02  0.12341882594E+03  0.00000000000E+00 0. -1.
         21    1    1    2  504  503  0.31704261772E+02  0.11471783619E+03  0.94851414916E+02  0.15219110705E+03  0.00000000000E+00 0. -1.
         21    1    1    2  505  501  0.31102682173E+02  0.10005216617E+02  0.33024482424E+03  0.33185708541E+03  0.00000000000E+00 0. -1.
         21    1    1    2  506  504  0.91265533452E+01 -0.63528481825E+02 -0.10579524787E+03  0.12374084391E+03  0.00000000000E+00 0. -1.
<scales pt_clust_3="14000.00000" pt_clust_4="95.55693" pt_clust_5="32.67233" pt_clust_6="63.98240"></scales>
<clustering>
<clus scale="   32.672">  1  5  2 -1</clus>
<clus scale="   63.982">  2  6  1 -1</clus>
<clus scale="   95.557">  2  4  1 -1</clus>
<clus scale="   32.672">  1  3  2 -1</clus>
</clustering>
</event>
<event>
 6    0  0.6687079E+002  0.7714620E+02  0.7546771E-02  0.1337351E+00
         21   -1    0    0  505  501  0.00000000000E+00  0.00000000000E+00  0.16787031318E+04  0.16787031318E+04  0.00000000000E+00 0.  1.
         21   -1    0    0  503  502 -0.00000000000E+00 -0.00000000000E+00 -0.46744376961E+02  0.46744376961E+02  0.00000000000E+00 0.  1.
         21    1    1    2  503  504 -0.52962795310E+02 -0.56226998035E+02  0.18739353030E+01  0.77266063887E+02  0.00000000000E+00 0.  1.
         21    1    1    2  504  501  0.19900876272E+02 -0.58669649766E+02  0.21148890626E+03  0.22037633755E+03  0.00000000000E+00 0.  1.
         21    1    1    2  505  506  0.28083731927E+02  0.17826940045E+02  0.87201850252E+03  0.87265271703E+03  0.00000000000E+00 0.  1.
         21    1    1    2  506  502  0.49781871117E+01  0.97069707755E+02  0.54657741071E+03  0.55515239026E+03  0.00000000000E+00 0.  1.
<scales pt_clust_3="77.14620" pt_clust_4="60.47058" pt_clust_5="33.26403" pt_clust_6="14000.00000"></scales>
<clustering>
<clus scale="   33.264">  1  5  2 -1</clus>
<clus scale="   60.471">  1  4  2 -1</clus>
<clus scale="   77.146">  2  3  1 -1</clus>
<clus scale="   33.264">  1  3  2 -1</clus>
</clustering>
</event>
<event>
 6    0  0.6687079E+002  0.1758680E+03  0.7546771E-02  0.1171863E+00
         21   -1    0    0  503  501  0.00000000000E+00  0.00000000000E+00  0.21040742265E+03  0.21040742265E+03  0.00000000000E+00 0.  1.
         21   -1    0    0  501  502 -0.00000000000E+00 -0.00000000000E+00 -0.24751576031E+03  0.24751576031E+03  0.00000000000E+00 0.  1.
         21    1    1    2  503  505 -0.50822270915E+02  0.39913395069E+00  0.45480572517E+02  0.68202236073E+02  0.00000000000E+00 0.  1.
         21    1    1    2  504  506  0.13684508205E+03 -0.18291332394E+00 -0.36444174288E+02  0.14161492781E+03  0.00000000000E+00 0.  1.
         21    1    1    2  505  504 -0.13510194427E+03 -0.43657273139E+02  0.32577671668E+02  0.14567016694E+03  0.00000000000E+00 0.  1.
         21    1    1    2  506  502  0.49079133137E+02  0.43441052512E+02 -0.78722407554E+02  0.10243585214E+03  0.00000000000E+00 0.  1.
<scales pt_clust_3="33.89378" pt_clust_4="166.49417" pt_clust_5="33.89378" pt_clust_6="65.54301"></scales>
<clustering>
<clus scale="   33.894">  3  5 -1 -1</clus>
<clus scale="   65.543">  2  6  1 -1</clus>
<clus scale="  166.494">  2  4  1 -1</clus>
<clus scale="  175.868">  1  3  2 -1</clus>
</clustering>
</event>
<event>
 6    0  0.6687079E+002  0.1302799E+03  0.7546771E-02  0.1227041E+00
         21   -1    0    0  505  501  0.00000000000E+00  0.00000000000E+00  0.13036070301E+03  0.13036070301E+03  0.00000000000E+00 0. -1.
         21   -1    0    0  506  502 -0.00000000000E+00 -0.00000000000E+00 -0.47115339288E+03  0.47115339288E+03  0.00000000000E+00 0.  1.
         21    1    1    2  503  502  0.57990145195E+01  0.15182402478E+03 -0.35304112677E+03  0.38434645863E+03  0.00000000000E+00 0.  1.
         21    1    1    2  504  503  0.37211876038E+02 -0.33588708361E+02 -0.23251002962E+01  0.50182976586E+02  0.00000000000E+00 0. -1.
         21    1    1    2  505  504  0.51841812309E+01 -0.36510882080E+02  0.53045300427E+02  0.64604366282E+02  0.00000000000E+00 0. -1.
         21    1    1    2  506  501 -0.48195071788E+02 -0.81724434338E+02 -0.38471763231E+02  0.10238029439E+03  0.00000000000E+00 0. -1.
<scales pt_clust_3="130.27994" pt_clust_4="60.12143" pt_clust_5="36.87710" pt_clust_6="14000.00000"></scales>
<clustering>
<clus scale="   36.877">  1  5  2 -1</clus>
<clus scale="   60.121">  1  4  2 -1</clus>
<clus scale="  130.280">  2  3  1 -1</clus>
<clus scale="   36.877">  1  3  2 -1</clus>
</clustering>
</event>
<event>
 6    0  0.6687079E+002  0.9695189E+02  0.7546771E-02  0.1286839E+00
         21   -1    0    0  504  501  0.00000000000E+00  0.00000000000E+00  0.22392662069E+03  0.22392662069E+03  0.00000000000E+00 0.  1.
         21   -1    0    0  503  502 -0.00000000000E+00 -0.00000000000E+00 -0.63879501566E+03  0.63879501566E+03  0.00000000000E+00 0. -1.
         21    1    1    2  503  505  0.46475885633E+02 -0.59660946538E+01 -0.65584298673E+02  0.80603365086E+02  0.00000000000E+00 0.  1.
         21    1    1    2  504  506 -0.66902278509E+02 -0.23703970771E+02  0.18446307622E+03  0.19764720992E+03  0.00000000000E+00 0.  1.
         21    1    1    2  505  501 -0.50754321154E+02  0.59145135016E+02 -0.45631263435E+02  0.90312570080E+02  0.00000000000E+00 0.  1.
         21    1    1    2  506  502  0.71180714030E+02 -0.29475069591E+02 -0.48811590909E+03  0.49415849126E+03  0.00000000000E+00 0. -1.
<scales pt_clust_3="46.85725" pt_clust_4="70.49058" pt_clust_5="96.95189" pt_clust_6="14000.00000"></scales>
<clustering>
<clus scale="   46.857">  2  3  1 -1</clus>
<clus scale="   70.491">  1  4  2 -1</clus>
<clus scale="   96.952">  1  5  2 -1</clus>
<clus scale="   70.491">  1  3  2 -1</clus>
</clustering>
</event>
<event>
 6    0  0.6687079E+002  0.9761019E+02  0.7546771E-02  0.1285403E+00
         21   -1    0    0  504  501  0.00000000000E+00  0.00000000000E+00  0.19556104302E+03  0.19556104302E+03  0.00000000000E+00 0. -1.
         21   -1    0    0  501  502 -0.00000000000E+00 -0.00000000000E+00 -0.60151894225E+03  0.60151894225E+03  0.00000000000E+00 0.  1.
         21    1    1    2  503  502 -0.69888658859E+02  0.20631336058E+02 -0.29579389580E+03  0.30463766257E+03  0.00000000000E+00 0.  1.
         21    1    1    2  504  506 -0.30066337983E+01  0.31178172535E+02  0.14026559798E+03  0.14372041006E+03  0.00000000000E+00 0. -1.
         21    1    1    2  505  503  0.30856517210E+02  0.73314537395E+02 -0.18504723625E+03  0.20141903012E+03  0.00000000000E+00 0. -1.
         21    1    1    2  506  505  0.42038775448E+02 -0.12512404599E+03 -0.65382365165E+02  0.14730288253E+03  0.00000000000E+00 0. -1.
<scales pt_clust_3="73.87591" pt_clust_4="31.32281" pt_clust_5="14000.00000" pt_clust_6="97.61019"></scales>
<clustering>
<clus scale="   31.323">  1  4  2 -1</clus>
<clus scale="   73.876">  2  3  1 -1</clus>
<clus scale="   97.610">  1  6  2 -1</clus>
<clus scale="   31.323">  1  3  2 -1</clus>
</clustering>
</event>
<event>
 6    0  0.6687079E+002  0.9557733E+02  0.7546771E-02  0.1289881E+00
         21   -1    0    0  504  501  0.00000000000E+00  0.00000000000E+00  0.10453807748E+04  0.10453807748E+04  0.00000000000E+00 0.  1.
         21   -1    0    0  503  502 -0.00000000000E+00 -0.00000000000E+00 -0.12558797182E+03  0.12558797182E+03  0.00000000000E+00 0. -1.
         21    1    1    2  503  505 -0.97088175685E+01 -0.11052552742E+03 -0.23335211055E+02  0.11337850513E+03  0.00000000000E+00 0. -1.
         21    1    1    2  504  502  0.75354013782E+02  0.58246994001E+02  0.16308770165E+02  0.96627716973E+02  0.00000000000E+00 0. -1.
         21    1    1    2  505  506 -0.17834926058E+02  0.57412461006E+02  0.38602791847E+02  0.71445439355E+02  0.00000000000E+00 0.  1.
         21    1    1    2  506  501 -0.47810270155E+02 -0.51339275881E+01  0.88821645206E+03  0.88951708520E+03  0.00000000000E+00 0.  1.
<scales pt_clust_3="95.57733" pt_clust_4="14000.00000" pt_clust_5="65.51602" pt_clust_6="48.08512"></scales>
<clustering>
<clus scale="   48.085">  1  6  2 -1</clus>
<clus scale="   65.516">  1  5  2 -1</clus>
<clus scale="   95.577">  2  3  1 -1</clus>
<clus scale="   48.085">  1  3  2 -1</clus>
</clustering>
</event>
<event>
 6    0  0.6687079E+002  0.2562963E+03  0.7546771E-02  0.1109389E+00
         21   -1    0    0  505  501  0.00000000000E+00  0.00000000000E+00  0.10385150046E+04  0.10385150046E+04  0.00000000000E+00 0.  1.
         21   -1    0    0  503  502 -0.00000000000E+00 -0.00000000000E+00 -0.78767798545E+03  0.78767798545E+03  0.00000000000E+00 0. -1.
         21    1    1    2  503  506 -0.31814076864E+02 -0.14190331339E+02 -0.25168490133E+03  0.25408421940E+03  0.00000000000E+00 0. -1.
         21    1    1    2  504  502 -0.42010307956E+02 -0.14050305840E+03 -0.42009796581E+03  0.44495873547E+03  0.00000000000E+00 0. -1.
         21    1    1    2  505  504 -0.15161847158E+02 -0.68760643931E+02 -0.73865079260E+02  0.10204880057E+03  0.00000000000E+00 0.  1.
         21    1    1    2  506  501  0.88986231979E+02  0.22345403367E+03  0.99648496555E+03  0.10251012346E+04  0.00000000000E+00 0.  1.
<scales pt_clust_3="34.83534" pt_clust_4="60.21750" pt_clust_5="60.21750" pt_clust_6="239.85405"></scales>
<clustering>
<clus scale="   34.835">  2  3  1 -1</clus>
<clus scale="   60.217">  4  5 -1 -1</clus>
<clus scale="  239.854">  1  6  2 -1</clus>
<clus scale="  239.854">  1  3  2 -1</clus>
</clustering>
</event>
<event>
 6    0  0.6687079E+002  0.9325099E+02  0.7546771E-02  0.1295165E+00
         21   -1    0    0  505  501  0.00000000000E+00  0.00000000000E+00  0.65924913338E+03  0.65924913338E+03  0.00000000000E+00 0.  1.
         21   -1    0    0  506  502 -0.00000000000E+00 -0.00000000000E+00 -0.10746016189E+03  0.10746016189E+03  0.00000000000E+00 0.  1.
         21    1    1    2  503  504 -0.42987863126E+02  0.48490911848E+02  0.10331693433E+03  0.12195783627E+03  0.00000000000E+00 0.  1.
         21    1    1    2  504  502  0.11075560584E+03  0.64895713649E+01 -0.63800963443E+01  0.11112886389E+03  0.00000000000E+00 0.  1.
         21    1    1    2  505  503  0.95536421088E+01 -0.33932696976E+02  0.45206690250E+03  0.45343928407E+03  0.00000000000E+00 0.  1.
         21    1    1    2  506  501 -0.77321384821E+02 -0.21047786237E+02  0.27852310061E+01  0.80183311031E+02  0.00000000000E+00 0.  1.
<scales pt_clust_3="48.22835" pt_clust_4="93.25099" pt_clust_5="35.25195" pt_clust_6="14000.00000"></scales>
<clustering>
<clus scale="   35.252">  1  5  2 -1</clus>
<clus scale="   48.228">  1  3  2 -1</clus>
<clus scale="   93.251">  1  4  2 -1</clus>
<clus scale="   35.252">  1  3  2 -1</clus>
</clustering>
</event>
<event>
 6    0  0.6687079E+002  0.1184523E+03  0.7546771E-02  0.1245672E+00
         21   -1    0    0  504  501  0.00000000000E+00  0.00000000000E+00  0.83409780714E+03  0.83409780714E+03  0.00000000000E+00 0. -1.
         21   -1    0    0  503  502 -0.00000000000E+00 -0.00000000000E+00 -0.94924490984E+02  0.94924490984E+02  0.00000000000E+00 0. -1.
         21    1    1    2  503  505 -0.81020300496E+00  0.53404501964E+02  0.10469068944E+02  0.54427003073E+02  0.00000000000E+00 0.  1.
         21    1    1    2  504  506  0.39662790931E+02 -0.31935310911E+02  0.57752466074E+03  0.57976524113E+03  0.00000000000E+00 0. -1.
         21    1    1    2  505  501  0.62672170557E+02 -0.74036294158E+02  0.15221895064E+03  0.18049870567E+03  0.00000000000E+00 0.  1.
         21    1    1    2  506  502 -0.10152475848E+03  0.52567103105E+02 -0.10393641646E+01  0.11433134825E+03  0.00000000000E+00 0. -1.
<scales pt_clust_3="49.52880" pt_clust_4="50.92152" pt_clust_5="14000.00000" pt_clust_6="118.45232"></scales>
<clustering>
<clus scale="   50.922">  1  4  2 -1</clus>
<clus scale="   49.529">  2  3  1 -1</clus>
<clus scale="  118.452">  2  6  1 -1</clus>
<clus scale="   50.922">  1  3  2 -1</clus>
</clustering>
</event>
<event>
 6    0  0.6687079E+002  0.1280113E+03  0.7546771E-02  0.1230437E+00
         21   -1    0    0  504  501  0.00000000000E+00  0.00000000000E+00  0.49825273837E+03  0.49825273837E+03  0.00000000000E+00 0.  1.
         21   -1    0    0  506  502 -0.00000000000E+00 -0.00000000000E+00 -0.56791204382E+03  0.56791204382E+03  0.00000000000E+00 0.  1.
         21    1    1    2  503  501  0.94432912535E+02 -0.11330767267E+02  0.34193723363E+03  0.35491834695E+03  0.00000000000E+00 0.  1.
         21    1    1    2  504  505 -0.55484115073E+02 -0.19675949735E+02  0.49871850774E+02  0.77154594958E+02  0.00000000000E+00 0.  1.
         21    1    1    2  505  502 -0.90293650140E+02  0.97374993922E+02 -0.51679416941E+03  0.53358321398E+03  0.00000000000E+00 0.  1.
         21    1    1    2  506  503  0.51344852678E+02 -0.66368276920E+02  0.55325779553E+02  0.10050862630E+03  0.00000000000E+00 0.  1.
<scales pt_clust_3="56.84075" pt_clust_4="58.86960" pt_clust_5="128.01131" pt_clust_6="14000.00000"></scales>
<clustering>
<clus scale="   58.870">  1  4  2 -1</clus>
<clus scale="   56.841">  1  3  2 -1</clus>
<clus scale="  128.011">  2  5  1 -1</clus>
<clus scale="   58.870">  1  3  2 -1</clus>
</clustering>
</event>
<event>
 6    0  0.6687079E+002  0.9312145E+02  0.7546771E-02  0.1295464E+00
         21   -1    0    0  505  501  0.00000000000E+00  0.00000000000E+00  0.22972605638E+03  0.22972605638E+03  0.00000000000E+00 0.  1.
         21   -1    0    0  503  502 -0.00000000000E+00 -0.00000000000E+00 -0.27265833146E+03  0.27265833146E+03  0.00000000000E+00 0. -1.
         21    1    1    2  503  506 -0.69801167878E+02  0.93930330382E+01 -0.75168645051E+02  0.10300853026E+03  0.00000000000E+00 0. -1.
         21    1    1    2  504  502 -0.46687638913E+02 -0.58413818981E+02 -0.13773246535E+03  0.15672313769E+03  0.00000000000E+00 0. -1.
         21    1    1    2  505  504  0.66778360107E+02  0.39376103888E+02  0.14138969662E+02  0.78801887028E+02  0.00000000000E+00 0.  1.
         21    1    1    2  506  501  0.49710446684E+02  0.96446820550E+01  0.15582986566E+03  0.16385083287E+03  0.00000000000E+00 0.  1.
<scales pt_clust_3="60.95892" pt_clust_4="93.12145" pt_clust_5="14000.00000" pt_clust_6="50.63742"></scales>
<clustering>
<clus scale="   50.637">  1  6  2 -1</clus>
<clus scale="   60.959">  2  3  1 -1</clus>
<clus scale="   93.121">  2  4  1 -1</clus>
<clus scale="   50.637">  1  3  2 -1</clus>
</clustering>
</event>
<event>
 6    0  0.6687079E+002  0.1101435E+03  0.7546771E-02  0.1260304E+00
         21   -1    0    0  504  501  0.00000000000E+00  0.00000000000E+00  0.41369819466E+03  0.41369819466E+03  0.00000000000E+00 0.  1.
         21   -1    0    0  505  502 -0.00000000000E+00 -0.00000000000E+00 -0.25998968981E+03  0.25998968981E+03  0.00000000000E+00 0. -1.
         21    1    1    2  503  502 -0.90688159653E+00  0.46715451497E+02 -0.13720684510E+03  0.14494438307E+03  0.00000000000E+00 0. -1.
         21    1    1    2  504  503  0.11955727244E+02 -0.60964508327E+02  0.14493448659E+02  0.63793971059E+02  0.00000000000E+00 0.  1.
         21    1    1    2  505  506  0.52350730816E+02 -0.77929170082E+02 -0.59324686964E+02  0.11105391956E+03  0.00000000000E+00 0. -1.
         21    1    1    2  506  501 -0.63399576463E+02  0.92178226911E+02  0.33574658825E+03  0.35389561078E+03  0.00000000000E+00 0.  1.
<scales pt_clust_3="46.72425" pt_clust_4="52.61353" pt_clust_5="14000.00000" pt_clust_6="110.14350"></scales>
<clustering>
<clus scale="   46.724">  2  3  1 -1</clus>
<clus scale="   52.614">  2  4  1 -1</clus>
<clus scale="  110.144">  1  6  2 -1</clus>
<clus scale="  110.144">  1  3  2 -1</clus>
</clustering>
</event>
<event>
 6    0  0.6687079E+002  0.2022488E+03  0.7546771E-02  0.1147855E+00
         21   -1    0    0  504  501  0.00000000000E+00  0.00000000000E+00  0.26526468729E+04  0.26526468729E+04  0.00000000000E+00 0. -1.
         21   -1    0    0  503  502 -0.00000000000E+00 -0.00000000000E+00 -0.14508800230E+03  0.14508800230E+03  0.00000000000E+00 0.  1.
         21    1    1    2  503  505 -0.28933306876E+02  0.75026073916E+02 -0.10881828941E+03  0.13530509275E+03  0.00000000000E+00 0.  1.
         21    1    1    2  504  502 -0.90767746638E+02 -0.21827718657E+03  0.95159278457E+03  0.98051646679E+03  0.00000000000E+00 0. -1.
         21    1    1    2  505  506  0.81183250047E+02  0.16989863058E+03  0.14432682468E+04  0.14554997414E+04  0.00000000000E+00 0. -1.
         21    1    1    2  506  501  0.38517803467E+02 -0.26647517919E+02  0.22151612863E+03  0.22641357432E+03  0.00000000000E+00 0.  1.
<scales pt_clust_3="80.20072" pt_clust_4="14000.00000" pt_clust_5="202.24878" pt_clust_6="46.83707"></scales>
<clustering>
<clus scale="   46.837">  1  6  2 -1</clus>
<clus scale="   80.201">  2  3  1 -1</clus>
<clus scale="  202.249">  1  5  2 -1</clus>
<clus scale="   46.837">  1  3  2 -1</clus>
</clustering>
</event>
<event>
 6    0  0.6687079E+002  0.8456796E+02  0.7546771E-02  0.1316566E+00
         21   -1    0    0  502  501  0.00000000000E+00  0.00000000000E+00  0.31531420979E+03  0.31531420979E+03  0.00000000000E+00 0. -1.
         21   -1    0    0  506  502 -0.00000000000E+00 -0.00000000000E+00 -0.74250655876E+03  0.74250655876E+03  0.00000000000E+00 0.  1.
         21    1    1    2  503  501 -0.21934235743E+01 -0.50965764873E+02  0.22258143647E+03  0.22835239468E+03  0.00000000000E+00 0. -1.
         21    1    1    2  504  505 -0.14270831438E+02  0.10405596745E+03 -0.54903080379E+02  0.11851434186E+03  0.00000000000E+00 0. -1.
         21    1    1    2  505  503 -0.24551373837E+02 -0.50104543225E+02  0.43816340417E+02  0.70944392989E+02  0.00000000000E+00 0. -1.
         21    1    1    2  506  504  0.41015628849E+02 -0.29856593506E+01 -0.63868704548E+03  0.64000963901E+03  0.00000000000E+00 0.  1.
<scales pt_clust_3="51.06000" pt_clust_4="14000.00000" pt_clust_5="84.56796" pt_clust_6="41.12415"></scales>
<clustering>
<clus scale="   41.124">  2  6  1 -1</clus>
<clus scale="   51.060">  1  3  2 -1</clus>
<clus scale="   84.568">  1  5  2 -1</clus>
<clus scale="   51.060">  1  3  2 -1</clus>
</clustering>
</event>
<event>
 6    0  0.6687079E+002  0.1175493E+03  0.7546771E-02  0.1247196E+00
         21   -1    0    0  506  501  0.00000000000E+00  0.00000000000E+00  0.42403544883E+03  0.42403544883E+03  0.00000000000E+00 0. -1.
         21   -1    0    0  503  502 -0.00000000000E+00 -0.00000000000E+00 -0.55237705994E+03  0.55237705994E+03  0.00000000000E+00 0.  1.
         21    1    1    2  503  501 -0.46873845454E+02  0.42862193800E+02  0.87692147243E+01  0.64118828528E+02  0.00000000000E+00 0. -1.
         21    1    1    2  504  505  0.10000217581E+03 -0.45308038161E+02 -0.35291317715E+03  0.36959567651E+03  0.00000000000E+00 0.  1.
         21    1    1    2  505  502 -0.34456748199E+02 -0.58570325355E+02 -0.15352875891E+03  0.16789529571E+03  0.00000000000E+00 0.  1.
         21    1    1    2  506  504 -0.18671582156E+02  0.61016169716E+02  0.36933111023E+03  0.37480270801E+03  0.00000000000E+00 0. -1.
<scales pt_clust_3="63.51634" pt_clust_4="117.54931" pt_clust_5="67.71964" pt_clust_6="14000.00000"></scales>
<clustering>
<clus scale="   63.516">  1  3  2 -1</clus>
<clus scale="   67.720">  2  5  1 -1</clus>
<clus scale="  117.549">  2  4  1 -1</clus>
<clus scale="   63.516">  1  3  2 -1</clus>
</clustering>
</event>
<event>
 6    0  0.6687079E+002  0.1963541E+03  0.7546771E-02  0.1152852E+00
         21   -1    0    0  505  501  0.00000000000E+00  0.00000000000E+00  0.31336006679E+03  0.31336006679E+03  0.00000000000E+00 0.  1.
         21   -1    0    0  506  502 -0.00000000000E+00 -0.00000000000E+00 -0.35794724348E+03  0.35794724348E+03  0.00000000000E+00 0. -1.
         21    1    1    2  503  502  0.12177204247E+02 -0.34303156144E+02 -0.20492274353E+03  0.20813053990E+03  0.00000000000E+00 0. -1.
         21    1    1    2  504  501  0.93047096428E+01  0.14530195447E+03  0.16017632076E+03  0.21646175026E+03  0.00000000000E+00 0.  1.
         21    1    1    2  505  503 -0.51721162913E+02 -0.16033750019E+03 -0.43764918473E+02  0.17406481766E+03  0.00000000000E+00 0.  1.
         21    1    1    2  506  504  0.30239249023E+02  0.49338701863E+02  0.43924164553E+02  0.72650202440E+02  0.00000000000E+00 0.  1.
<scales pt_clust_3="36.40042" pt_clust_4="31.39538" pt_clust_5="189.93405" pt_clust_6="31.39538"></scales>
<clustering>
<clus scale="   31.395">  4  6 -1 -1</clus>
<clus scale="   36.400">  2  3  1 -1</clus>
<clus scale="  189.934">  2  5  1 -1</clus>
<clus scale="  196.354">  1  3  2 -1</clus>
</clustering>
</event>
<event>
 6    0  0.6687079E+002  0.1335695E+03  0.7546771E-02  0.1222253E+00
         21   -1    0    0  506  501  0.00000000000E+00  0.00000000000E+00  0.21878996587E+03  0.21878996587E+03  0.00000000000E+00 0. -1.
         21   -1    0    0  505  502 -0.00000000000E+00 -0.00000000000E+00 -0.27540105699E+03  0.27540105699E+03  0.00000000000E+00 0. -1.
         21    1    1    2  503  504 -0.56285979290E+02 -0.58669783777E+02  0.25686234477E+02  0.85264515683E+02  0.00000000000E+00 0. -1.
         21    1    1    2  504  501 -0.55807136740E+02 -0.57219725004E+02  0.66171380638E+02  0.10376504737E+03  0.00000000000E+00 0. -1.
         21    1    1    2  505  503  0.86810325944E+02  0.10544893117E+02 -0.17321251326E+03  0.19403556944E+03  0.00000000000E+00 0. -1.
         21    1    1    2  506  502  0.25282790087E+02  0.10534461566E+03  0.24743807017E+02  0.11112589037E+03  0.00000000000E+00 0. -1.
<scales pt_clust_3="35.73704" pt_clust_4="35.73704" pt_clust_5="87.44843" pt_clust_6="128.61452"></scales>
<clustering>
<clus scale="   35.737">  3  4 -1 -1</clus>
<clus scale="   87.448">  2  5  1 -1</clus>
<clus scale="  128.615">  1  6  2 -1</clus>
<clus scale="  128.615">  1  3  2 -1</clus>
</clustering>
</event>
<event>
 6    0  0.6687079E+002  0.7197048E+02  0.7546771E-02  0.1353518E+00
         21   -1    0    0  505  501  0.00000000000E+00  0.00000000000E+00  0.40766903236E+03  0.40766903236E+03  0.00000000000E+00 0.  1.
         21   -1    0    0  504  502 -0.00000000000E+00 -0.00000000000E+00 -0.58149687365E+03  0.58149687365E+03  0.00000000000E+00 0.  1.
         21    1    1    2  503  501  0.38959781166E+02 -0.21412654055E+02  0.17838217742E+03  0.18383842777E+03  0.00000000000E+00 0.  1.
         21    1    1    2  504  506 -0.51443418553E+02  0.41923156031E+02 -0.55239002524E+03  0.55636203708E+03  0.00000000000E+00 0.  1.
         21    1    1    2  505  502 -0.59292306829E+02 -0.41262523354E+02  0.83462884471E+02  0.11038218410E+03  0.00000000000E+00 0.  1.
         21    1    1    2  506  503  0.71775944216E+02  0.20752021378E+02  0.11671712205E+03  0.13858325707E+03  0.00000000000E+00 0.  1.
<scales pt_clust_3="44.45634" pt_clust_4="65.97918" pt_clust_5="71.97048" pt_clust_6="14000.00000"></scales>
<clustering>
<clus scale="   44.456">  1  3  2 -1</clus>
<clus scale="   65.979">  2  4  1 -1</clus>
<clus scale="   71.970">  1  5  2 -1</clus>
<clus scale="   44.456">  1  3  2 -1</clus>
</clustering>
</event>
<event>
 6    0  0.6687079E+002  0.9455772E+02  0.7546771E-02  0.1292175E+00
         21   -1    0    0  503  501  0.00000000000E+00  0.00000000000E+00  0.70215298523E+03  0.70215298523E+03  0.00000000000E+00 0.  1.
         21   -1    0    0  506  502 -0.00000000000E+00 -0.00000000000E+00 -0.84066934288E+02  0.84066934288E+02  0.00000000000E+00 0.  1.
         21    1    1    2  503  502  0.48161947288E+02  0.21286966990E+01  0.31966070908E+03  0.32327553796E+03  0.00000000000E+00 0.  1.
         21    1    1    2  504  501 -0.45192030907E+02  0.81420191206E+02  0.21200535026E+03  0.23155525417E+03  0.00000000000E+00 0.  1.
         21    1    1    2  505  504  0.20394268609E+02 -0.11285442461E+03  0.13036701567E+03  0.17363066008E+03  0.00000000000E+00 0.  1.
         21    1    1    2  506  505 -0.23364184990E+02  0.29305536708E+02 -0.43947024061E+02  0.57758467308E+02  0.00000000000E+00 0.  1.
<scales pt_clust_3="47.03814" pt_clust_4="94.55772" pt_clust_5="14000.00000" pt_clust_6="37.47932"></scales>
<clustering>
<clus scale="   37.479">  2  6  1 -1</clus>
<clus scale="   47.038">  1  3  2 -1</clus>
<clus scale="   94.558">  1  4  2 -1</clus>
<clus scale="   47.038">  1  3  2 -1</clus>
</clustering>
</event>
<event>
 6    0  0.6687079E+002  0.1298007E+03  0.7546771E-02  0.1227752E+00
         21   -1    0    0  503  501  0.00000000000E+00  0.00000000000E+00  0.74745795361E+03  0.74745795361E+03  0.00000000000E+00 0.  1.
         21   -1    0    0  501  502 -0.00000000000E+00 -0.00000000000E+00 -0.62984295708E+03  0.62984295708E+03  0.00000000000E+00 0. -1.
         21    1    1    2  503  506  0.83898796219E+02  0.68399579513E+02  0.66701758701E+03  0.67574401356E+03  0.00000000000E+00 0.  1.
         21    1    1    2  504  502  0.63263664985E+02  0.66819089295E+02 -0.46544825408E+03  0.47445669901E+03  0.00000000000E+00 0. -1.
         21    1    1    2  505  504 -0.83461541871E+02 -0.83156609430E+02 -0.13133600639E+02  0.11854679299E+03  0.00000000000E+00 0. -1.
         21    1    1    2  506  505 -0.63700919333E+02 -0.52062059378E+02 -0.70820735764E+02  0.10855340513E+03  0.00000000000E+00 0. -1.
<scales pt_clust_3="110.73816" pt_clust_4="92.01675" pt_clust_5="56.58467" pt_clust_6="56.58467"></scales>
<clustering>
<clus scale="   56.585">  5  6 -1 -1</clus>
<clus scale="   92.017">  2  4  1 -1</clus>
<clus scale="  110.738">  1  3  2 -1</clus>
<clus scale="  110.738">  1  3  2 -1</clus>
</clustering>
</event>
<event>
 6    0  0.6687079E+002  0.1862991E+03  0.7546771E-02  0.1161842E+00
         21   -1    0    0  505  501  0.00000000000E+00  0.00000000000E+00  0.73758332555E+03  0.73758332555E+03  0.00000000000E+00 0. -1.
         21   -1    0    0  506  502 -0.00000000000E+00 -0.00000000000E+00 -0.49014039724E+03  0.49014039724E+03  0.00000000000E+00 0.  1.
         21    1    1    2  503  501  0.23936973855E+02  0.44510176067E+02 -0.95694385658E+02  0.10821991470E+03  0.00000000000E+00 0.  1.
         21    1    1    2  504  503  0.43437291742E+02  0.78535798394E+01 -0.72649697556E+02  0.85008561834E+02  0.00000000000E+00 0.  1.
         21    1    1    2  505  502 -0.14347072526E+03 -0.83017647734E+02  0.70998247370E+03  0.72907536771E+03  0.00000000000E+00 0. -1.
         21    1    1    2  506  504  0.76096459665E+02  0.30653891828E+02 -0.29419546217E+03  0.30541987856E+03  0.00000000000E+00 0.  1.
<scales pt_clust_3="42.88053" pt_clust_4="33.51696" pt_clust_5="165.75819" pt_clust_6="42.88053"></scales>
<clustering>
<clus scale="   33.517">  4  6 -1 -1</clus>
<clus scale="   42.881">  3  4 -1 -1</clus>
<clus scale="  165.758">  1  5  2 -1</clus>
<clus scale="  165.758">  1  3  2 -1</clus>
</clustering>
</event>
<event>
 6    0  0.6687079E+002  0.1204434E+03  0.7546771E-02  0.1242367E+00
         21   -1    0    0  505  501  0.00000000000E+00  0.00000000000E+00  0.91937973890E+02  0.91937973890E+02  0.00000000000E+00 0. -1.
         21   -1    0    0  504  502 -0.00000000000E+00 -0.00000000000E+00 -0.19914337031E+04  0.19914337031E+04  0.00000000000E+00 0. -1.
         21    1    1    2  503  502 -0.28371207894E+02 -0.75661417140E+02 -0.16844093754E+04  0.16863465004E+04  0.00000000000E+00 0. -1.
         21    1    1    2  504  501  0.11034061516E+03 -0.38073736650E+02 -0.91337212929E+01  0.11708153416E+03  0.00000000000E+00 0. -1.
         21    1    1    2  505  506  0.27254384417E+02  0.62888292512E+02 -0.64238103039E+02  0.93937599964E+02  0.00000000000E+00 0. -1.
         21    1    1    2  506  503 -0.10922379168E+03  0.50846861278E+02 -0.14171452950E+03  0.18600604249E+03  0.00000000000E+00 0. -1.
<scales pt_clust_3="79.94572" pt_clust_4="120.44342" pt_clust_5="68.54005" pt_clust_6="14000.00000"></scales>
<clustering>
<clus scale="   68.540">  1  5  2 -1</clus>
<clus scale="   79.946">  2  3  1 -1</clus>
<clus scale="  120.443">  1  4  2 -1</clus>
<clus scale="   68.540">  1  3  2 -1</clus>
</clustering>
</event>
<event>
 6    0  0.6687079E+002  0.1118166E+03  0.7546771E-02  0.1257242E+00
         21   -1    0    0  505  501  0.00000000000E+00  0.00000000000E+00  0.12929820913E+04  0.12929820913E+04  0.00000000000E+00 0. -1.
         21   -1    0    0  506  502 -0.00000000000E+00 -0.00000000000E+00 -0.27451430190E+02  0.27451430190E+02  0.00000000000E+00 0. -1.
         21    1    1    2  503  504  0.24144256393E+02  0.49693167168E+02  0.15844586080E+03  0.16780180805E+03  0.00000000000E+00 0. -1.
         21    1    1    2  504  501 -0.11860012845E+03 -0.47429383665E+02  0.92864548161E+03  0.93738890938E+03  0.00000000000E+00 0. -1.
         21    1    1    2  505  502  0.54990664126E+02  0.14275039031E+02  0.37803351020E+02  0.68241067024E+02  0.00000000000E+00 0. -1.
         21    1    1    2  506  503  0.39465207934E+02 -0.16538822535E+02  0.14063596770E+03  0.14700173706E+03  0.00000000000E+00 0.  1.
<scales pt_clust_3="56.31065" pt_clust_4="14000.00000" pt_clust_5="111.81665" pt_clust_6="42.79060"></scales>
<clustering>
<clus scale="   42.791">  2  6  1 -1</clus>
<clus scale="   56.311">  2  3  1 -1</clus>
<clus scale="  111.817">  2  5  1 -1</clus>
<clus scale="  111.817">  1  3  2 -1</clus>
</clustering>
</event>
<event>
 6    0  0.6687079E+002  0.1079803E+03  0.7546771E-02  0.1264356E+00
         21   -1    0    0  505  501  0.00000000000E+00  0.00000000000E+00  0.13172041817E+03  0.13172041817E+03  0.00000000000E+00 0.  1.
         21   -1    0    0  504  502 -0.00000000000E+00 -0.00000000000E+00 -0.64111374601E+03  0.64111374601E+03  0.00000000000E+00 0.  1.
         21    1    1    2  503  502  0.34486510854E+02  0.89627852760E+02 -0.10347103038E+03  0.14116913809E+03  0.00000000000E+00 0.  1.
         21    1    1    2  504  506  0.45021493683E+02 -0.19067751377E+02 -0.44152619115E+03  0.44422504602E+03  0.00000000000E+00 0.  1.
         21    1    1    2  505  503 -0.90325048480E+02 -0.11006837216E+03  0.34291146835E+02  0.14645662731E+03  0.00000000000E+00 0.  1.
         21    1    1    2  506  501  0.10817043943E+02  0.39508270774E+02  0.13127468646E+01  0.40983352762E+02  0.00000000000E+00 0.  1.
<scales pt_clust_3="14000.00000" pt_clust_4="48.82892" pt_clust_5="107.98032" pt_clust_6="40.96232"></scales>
<clustering>
<clus scale="   40.962">  1  6  2 -1</clus>
<clus scale="   48.829">  2  4  1 -1</clus>
<clus scale="  107.980">  1  5  2 -1</clus>
<clus scale="   40.962">  1  3  2 -1</clus>
</clustering>
</event>
<event>
 6    0  0.6687079E+002  0.9635205E+02  0.7546771E-02  0.1288160E+00
         21   -1    0    0  504  501  0.00000000000E+00  0.00000000000E+00  0.62861231626E+03  0.62861231626E+03  0.00000000000E+00 0.  1.
         21   -1    0    0  506  502 -0.00000000000E+00 -0.00000000000E+00 -0.95336419878E+03  0.95336419878E+03  0.00000000000E+00 0.  1.
         21    1    1    2  503  502 -0.82440819161E+02 -0.50760656658E+02  0.52452509823E+01  0.96956926447E+02  0.00000000000E+00 0. -1.
         21    1    1    2  504  503  0.40063071025E+01 -0.32279723773E+02  0.50518536996E+03  0.50623145801E+03  0.00000000000E+00 0.  1.
         21    1    1    2  505  501  0.98378553698E+02  0.19562206950E+02  0.34871641060E+02  0.10619346081E+03  0.00000000000E+00 0. -1.
         21    1    1    2  506  505 -0.19944041640E+02  0.63478173481E+02 -0.87005414452E+03  0.87259466976E+03  0.00000000000E+00 0.  1.
<scales pt_clust_3="14000.00000" pt_clust_4="32.52739" pt_clust_5="96.35205" pt_clust_6="66.20686"></scales>
<clustering>
<clus scale="   32.527">  1  4  2 -1</clus>
<clus scale="   66.207">  2  6  1 -1</clus>
<clus scale="   96.352">  1  5  2 -1</clus>
<clus scale="   32.527">  1  3  2 -1</clus>
</clustering>
</event>
<event>
 6    0  0.6687079E+002  0.8490249E+02  0.7546771E-02  0.1315688E+00
         21   -1    0    0  503  501  0.00000000000E+00  0.00000000000E+00  0.51099936957E+02  0.51099936957E+02  0.00000000000E+00 0.  1.
         21   -1    0    0  506  502 -0.00000000000E+00 -0.00000000000E+00 -0.28773941902E+04  0.28773941902E+04  0.00000000000E+00 0.  1.
         21    1    1    2  503  505  0.17061312624E+02  0.25019783531E+02  0.33570613609E+02  0.45211326616E+02  0.00000000000E+00 0.  1.
         21    1    1    2  504  501 -0.84488089578E+02  0.17452835937E+02 -0.22324686312E+03  0.23933658445E+03  0.00000000000E+00 0. -1.
         21    1    1    2  505  502  0.12664452858E+03 -0.24352860864E+02 -0.20544232736E+04  0.20584671204E+04  0.00000000000E+00 0.  1.
         21    1    1    2  506  504 -0.59217751621E+02 -0.18119758603E+02 -0.58219473016E+03  0.58547909578E+03  0.00000000000E+00 0.  1.
<scales pt_clust_3="30.28330" pt_clust_4="84.90249" pt_clust_5="14000.00000" pt_clust_6="58.67319"></scales>
<clustering>
<clus scale="   30.283">  1  3  2 -1</clus>
<clus scale="   58.673">  2  6  1 -1</clus>
<clus scale="   84.902">  1  4  2 -1</clus>
<clus scale="   30.283">  1  3  2 -1</clus>
</clustering>
</event>
<event>
 6    0  0.6687079E+002  0.1303690E+03  0.7546771E-02  0.1226909E+00
         21   -1    0    0  504  501  0.00000000000E+00  0.00000000000E+00  0.10409499707E+03  0.10409499707E+03  0.00000000000E+00 0.  1.
         21   -1    0    0  505  502 -0.00000000000E+00 -0.00000000000E+00 -0.47379898251E+03  0.47379898251E+03  0.00000000000E+00 0. -1.
         21    1    1    2  503  506 -0.39749688099E+02  0.80707292033E+02 -0.46799861673E+02  0.10140972214E+03  0.00000000000E+00 0.  1.
         21    1    1    2  504  502  0.19218274077E+02 -0.91767133020E+02 -0.34878847465E+02  0.10003540754E+03  0.00000000000E+00 0.  1.
         21    1    1    2  505  503  0.52802551141E+02 -0.42115457946E+02 -0.30466355156E+03  0.31206041219E+03  0.00000000000E+00 0. -1.
         21    1    1    2  506  501 -0.32271137120E+02  0.53175298933E+02  0.16638275259E+02  0.64388437714E+02  0.00000000000E+00 0.  1.
<scales pt_clust_3="48.96531" pt_clust_4="116.31130" pt_clust_5="67.54126" pt_clust_6="48.96531"></scales>
<clustering>
<clus scale="   48.965">  3  6 -1 -1</clus>
<clus scale="   67.541">  2  5  1 -1</clus>
<clus scale="  116.311">  1  4  2 -1</clus>
<clus scale="  116.311">  1  3  2 -1</clus>
</clustering>
</event>
<event>
 6    0  0.6687079E+002  0.2024746E+03  0.7546771E-02  0.1147668E+00
         21   -1    0    0  505  501  0.00000000000E+00  0.00000000000E+00  0.34404803314E+03  0.34404803314E+03  0.00000000000E+00 0. -1.
         21   -1    0    0  506  502 -0.00000000000E+00 -0.00000000000E+00 -0.11007542769E+04  0.11007542769E+04  0.00000000000E+00 0.  1.
         21    1    1    2  503  501  0.18831104800E+03 -0.80417780383E+02  0.29035734479E+03  0.35529629589E+03  0.00000000000E+00 0. -1.
         21    1    1    2  504  503 -0.39401007114E+02 -0.44818295807E+02 -0.16177256922E+03  0.17242819709E+03  0.00000000000E+00 0.  1.
         21    1    1    2  505  502 -0.10654352555E+03  0.11334537598E+03 -0.83865057885E+03  0.85295573771E+03  0.00000000000E+00 0.  1.
         21    1    1    2  506  504 -0.42366515336E+02  0.11890700209E+02 -0.46640440523E+02  0.64122079390E+02  0.00000000000E+00 0.  1.
<scales pt_clust_3="14000.00000" pt_clust_4="63.03875" pt_clust_5="202.47464" pt_clust_6="44.00353"></scales>
<clustering>
<clus scale="   44.004">  2  6  1 -1</clus>
<clus scale="   63.039">  2  4  1 -1</clus>
<clus scale="  202.475">  2  5  1 -1</clus>
<clus scale="  202.475">  1  3  2 -1</clus>
</clustering>
</event>
<event>
 6    0  0.6687079E+002  0.1113647E+03  0.7546771E-02  0.1258063E+00
         21   -1    0    0  505  501  0.00000000000E+00  0.00000000000E+00  0.10234123616E+03  0.10234123616E+03  0.00000000000E+00 0.  1.
         21   -1    0    0  504  502 -0.00000000000E+00 -0.00000000000E+00 -0.52368516405E+03  0.52368516405E+03  0.00000000000E+00 0.  1.
         21    1    1    2  503  501  0.13140731094E+02  0.28681882103E+02  0.61136701282E+02  0.68796986985E+02  0.00000000000E+00 0.  1.
         21    1    1    2  504  503  0.20655352706E+02  0.24291252574E+02 -0.63666341174E+02  0.71204715753E+02  0.00000000000E+00 0.  1.
         21    1    1    2  505  506 -0.58841512300E+02  0.77465205724E+02 -0.94746535811E+02  0.13579428455E+03  0.00000000000E+00 0.  1.
         21    1    1    2  506  502  0.25045428500E+02 -0.13043834040E+03 -0.32406775218E+03  0.35023041293E+03  0.00000000000E+00 0.  1.
<scales pt_clust_3="31.54884" pt_clust_4="34.95863" pt_clust_5="111.36467" pt_clust_6="14000.00000"></scales>
<clustering>
<clus scale="   31.549">  1  3  2 -1</clus>
<clus scale="   34.959">  2  4  1 -1</clus>
<clus scale="  111.365">  1  5  2 -1</clus>
<clus scale="   31.549">  1  3  2 -1</clus>
</clustering>
</event>
<event>
 6    0  0.6687079E+002  0.1429220E+03  0.7546771E-02  0.1209450E+00
         21   -1    0    0  504  501  0.00000000000E+00  0.00000000000E+00  0.25797033391E+02  0.25797033391E+02  0.00000000000E+00 0.  1.
         21   -1    0    0  505  502 -0.00000000000E+00 -0.00000000000E+00 -0.25532636731E+04  0.25532636731E+04  0.00000000000E+00 0. -1.
         21    1    1    2  503  502 -0.32707097067E+02  0.87851259989E-01 -0.12662793190E+04  0.12667016522E+04  0.00000000000E+00 0. -1.
         21    1    1    2  504  503  0.15019616942E+03  0.67805034174E+02 -0.45402460549E+03  0.48300595685E+03  0.00000000000E+00 0.  1.
         21    1    1    2  505  506 -0.11516424688E+03 -0.32249606053E+02 -0.76410849545E+03  0.77341103798E+03  0.00000000000E+00 0.  1.
         21    1    1    2  506  501 -0.23248254704E+01 -0.35643279381E+02 -0.43054219786E+02  0.55942059489E+02  0.00000000000E+00 0. -1.
<scales pt_clust_3="32.70722" pt_clust_4="142.92195" pt_clust_5="14000.00000" pt_clust_6="35.81955"></scales>
<clustering>
<clus scale="   32.707">  2  3  1 -1</clus>
<clus scale="   35.820">  1  6  2 -1</clus>
<clus scale="  142.922">  1  4  2 -1</clus>
<clus scale="   35.820">  1  3  2 -1</clus>
</clustering>
</event>
<event>
 6    0  0.6687079E+002  0.1241304E+03  0.7546771E-02  0.1236435E+00
         21   -1    0    0  504  501  0.00000000000E+00  0.00000000000E+00  0.13062086233E+04  0.13062086233E+04  0.00000000000E+00 0. -1.
         21   -1    0    0  506  502 -0.00000000000E+00 -0.00000000000E+00 -0.74680878513E+03  0.74680878513E+03  0.00000000000E+00 0. -1.
         21    1    1    2  503  505 -0.27713927405E+02 -0.39359544813E+02  0.25706685087E+02  0.54571688615E+02  0.00000000000E+00 0.  1.
         21    1    1    2  504  503 -0.83354369836E+02 -0.25651159497E+02  0.99845999384E+02  0.13257132626E+03  0.00000000000E+00 0.  1.
         21    1    1    2  505  502  0.76097170959E+02  0.82792480877E+02 -0.71126041366E+03  0.72009495926E+03  0.00000000000E+00 0. -1.
         21    1    1    2  506  501  0.34971126282E+02 -0.17781776567E+02  0.11451075673E+04  0.11457794342E+04  0.00000000000E+00 0. -1.
<scales pt_clust_3="38.57913" pt_clust_4="38.57913" pt_clust_5="112.74696" pt_clust_6="39.23227"></scales>
<clustering>
<clus scale="   38.579">  3  4 -1 -1</clus>
<clus scale="   39.232">  1  6  2 -1</clus>
<clus scale="  112.747">  2  5  1 -1</clus>
<clus scale="   39.232">  1  3  2 -1</clus>
</clustering>
</event>
<event>
 6    0  0.6687079E+002  0.1077208E+03  0.7546771E-02  0.1264850E+00
         21   -1    0    0  506  501  0.00000000000E+00  0.00000000000E+00  0.20748546124E+04  0.20748546124E+04  0.00000000000E+00 0. -1.
         21   -1    0    0  503  502 -0.00000000000E+00 -0.00000000000E+00 -0.38296974476E+02  0.38296974476E+02  0.00000000000E+00 0.  1.
         21    1    1    2  503  504  0.53504177419E+02 -0.94784973310E+01  0.77969998117E+02  0.95036095876E+02  0.00000000000E+00 0.  1.
         21    1    1    2  504  501  0.39643661080E+02 -0.99856854074E+02  0.17679948805E+04  0.17712563080E+04  0.00000000000E+00 0. -1.
         21    1    1    2  505  502 -0.28960756357E+02  0.14413730121E+02  0.85354244070E+02  0.91278847525E+02  0.00000000000E+00 0. -1.
         21    1    1    2  506  505 -0.64187082141E+02  0.94921621284E+02  0.10523851529E+03  0.15558033552E+03  0.00000000000E+00 0.  1.
<scales pt_clust_3="46.89550" pt_clust_4="14000.00000" pt_clust_5="32.34936" pt_clust_6="107.72076"></scales>
<clustering>
<clus scale="   32.349">  2  5  1 -1</clus>
<clus scale="   46.895">  2  3  1 -1</clus>
<clus scale="  107.721">  2  6  1 -1</clus>
<clus scale="  107.721">  1  3  2 -1</clus>
</clustering>
</event>
<event>
 6    0  0.6687079E+002  0.9535603E+02  0.7546771E-02  0.1290376E+00
         21   -1    0    0  504  501  0.00000000000E+00  0.00000000000E+00  0.17960625471E+03  0.17960625471E+03  0.00000000000E+00 0.  1.
         21   -1    0    0  506  502 -0.00000000000E+00 -0.00000000000E+00 -0.26585330637E+03  0.26585330637E+03  0.00000000000E+00 0. -1.
         21    1    1    2  503  505 -0.66753134136E+02 -0.22905758525E+01  0.35642591633E+02  0.75707476467E+02  0.00000000000E+00 0.  1.
         21    1    1    2  504  503  0.14416129739E+02  0.35436898090E+02  0.86068592486E+02  0.94188115786E+02  0.00000000000E+00 0.  1.
         21    1    1    2  505  502  0.81414354959E+02 -0.66609201048E+02 -0.20586568232E+03  0.23118339476E+03  0.00000000000E+00 0. -1.
         21    1    1    2  506  501 -0.29077350562E+02  0.33462878811E+02 -0.20925534549E+01  0.44380574061E+02  0.00000000000E+00 0.  1.
<scales pt_clust_3="95.35603" pt_clust_4="38.25701" pt_clust_5="14000.00000" pt_clust_6="49.08465"></scales>
<clustering>
<clus scale="   38.257">  1  4  2 -1</clus>
<clus scale="   49.085">  1  6  2 -1</clus>
<clus scale="   95.356">  1  3  2 -1</clus>
<clus scale="   38.257">  1  3  2 -1</clus>
</clustering>
</event>
<event>
 6    0  0.6687079E+002  0.1314649E+03  0.7546771E-02  0.1225298E+00
         21   -1    0    0  504  501  0.00000000000E+00  0.00000000000E+00  0.13038391191E+03  0.13038391191E+03  0.00000000000E+00 0. -1.
         21   -1    0    0  506  502 -0.00000000000E+00 -0.00000000000E+00 -0.37873344217E+03  0.37873344217E+03  0.00000000000E+00 0. -1.
         21    1    1    2  503  501 -0.29583797845E+02 -0.99695246841E+01  0.18683695584E+02  0.36382317107E+02  0.00000000000E+00 0. -1.
         21    1    1    2  504  505  0.13130693542E+03  0.20796927551E+01 -0.15637815422E+03  0.20420568927E+03  0.00000000000E+00 0. -1.
         21    1    1    2  505  502 -0.10419996811E+00 -0.68295449613E+02 -0.12324264323E+03  0.14090077503E+03  0.00000000000E+00 0. -1.
         21    1    1    2  506  503 -0.10161893761E+03  0.76185281542E+02  0.12587571609E+02  0.12762857267E+03  0.00000000000E+00 0. -1.
<scales pt_clust_3="31.21846" pt_clust_4="14000.00000" pt_clust_5="69.20179" pt_clust_6="131.46488"></scales>
<clustering>
<clus scale="   31.218">  1  3  2 -1</clus>
<clus scale="   69.202">  2  5  1 -1</clus>
<clus scale="  131.465">  1  6  2 -1</clus>
<clus scale="   31.218">  1  3  2 -1</clus>
</clustering>
</event>
<event>
 6    0  0.6687079E+002  0.8853913E+02  0.7546771E-02  0.1306428E+00
         21   -1    0    0  503  501  0.00000000000E+00  0.00000000000E+00  0.88075046204E+02  0.88075046204E+02  0.00000000000E+00 0.  1.
         21   -1    0    0  505  502 -0.00000000000E+00 -0.00000000000E+00 -0.23124176308E+03  0.23124176308E+03  0.00000000000E+00 0. -1.
         21    1    1    2  503  502 -0.30385755577E+02  0.97420277008E+01 -0.34073413751E+02  0.46681889105E+02  0.00000000000E+00 0.  1.
         21    1    1    2  504  506  0.97116373273E+02 -0.14226802459E+02 -0.84088747565E+02  0.12924747322E+03  0.00000000000E+00 0. -1.
         21    1    1    2  505  504  0.15210598519E+02  0.38355386497E+02 -0.35070959812E+02  0.54152287142E+02  0.00000000000E+00 0. -1.
         21    1    1    2  506  501 -0.81941216214E+02 -0.33870611738E+02  0.10066404248E+02  0.89235159823E+02  0.00000000000E+00 0.  1.
<scales pt_clust_3="31.90927" pt_clust_4="14000.00000" pt_clust_5="41.43357" pt_clust_6="88.53913"></scales>
<clustering>
<clus scale="   31.909">  2  3  1 -1</clus>
<clus scale="   41.434">  2  5  1 -1</clus>
<clus scale="   88.539">  1  6  2 -1</clus>
<clus scale="   88.539">  1  3  2 -1</clus>
</clustering>
</event>
<event>
 6    0  0.6687079E+002  0.6531604E+02  0.7546771E-02  0.1376787E+00
         21   -1    0    0  506  501  0.00000000000E+00  0.00000000000E+00  0.70201613172E+03  0.70201613172E+03  0.00000000000E+00 0.  1.
         21   -1    0    0  504  502 -0.00000000000E+00 -0.00000000000E+00 -0.55845053710E+03  0.55845053710E+03  0.00000000000E+00 0. -1.
         21    1    1    2  503  505 -0.68035341882E+02  0.55506543638E+02  0.10443143727E+02  0.88424223958E+02  0.00000000000E+00 0.  1.
         21    1    1    2  504  503  0.24165150794E+02 -0.68049325838E+02 -0.13202094707E+03  0.15047988478E+03  0.00000000000E+00 0.  1.
         21    1    1    2  505  501  0.77575592759E+01 -0.36661423658E+02  0.64033926006E+03  0.64143480393E+03  0.00000000000E+00 0.  1.
         21    1    1    2  506  502  0.36112631812E+02  0.49204205858E+02 -0.37519586211E+03  0.38012775615E+03  0.00000000000E+00 0. -1.
<scales pt_clust_3="14000.00000" pt_clust_4="65.31604" pt_clust_5="37.47319" pt_clust_6="60.03770"></scales>
<clustering>
<clus scale="   37.473">  1  5  2 -1</clus>
<clus scale="   60.038">  2  6  1 -1</clus>
<clus scale="   65.316">  2  4  1 -1</clus>
<clus scale="   37.473">  1  3  2 -1</clus>
</clustering>
</event>
<event>
 6    0  0.6687079E+002  0.4131180E+03  0.7546771E-02  0.1039330E+00
         21   -1    0    0  504  501  0.00000000000E+00  0.00000000000E+00  0.63835955843E+03  0.63835955843E+03  0.00000000000E+00 0. -1.
         21   -1    0    0  505  502 -0.00000000000E+00 -0.00000000000E+00 -0.10678546867E+04  0.10678546867E+04  0.00000000000E+00 0. -1.
         21    1    1    2  503  502 -0.16575319417E+03  0.10972337885E+02  0.18041902229E+02  0.16709285985E+03  0.00000000000E+00 0.  1.
         21    1    1    2  504  503 -0.25068083860E+03 -0.34076675658E+02  0.70650564479E+02  0.26266633764E+03  0.00000000000E+00 0.  1.
         21    1    1    2  505  506  0.40819215356E+03 -0.18290816207E+02 -0.84939758798E+03  0.94256652320E+03  0.00000000000E+00 0. -1.
         21    1    1    2  506  501  0.82418792154E+01  0.41395153980E+02  0.33120999297E+03  0.33388852449E+03  0.00000000000E+00 0. -1.
<scales pt_clust_3="43.86819" pt_clust_4="43.86819" pt_clust_5="409.62302" pt_clust_6="42.20767"></scales>
<clustering>
<clus scale="   42.208">  1  6  2 -1</clus>
<clus scale="   43.868">  3  4 -1 -1</clus>
<clus scale="  409.623">  2  5  1 -1</clus>
<clus scale="   42.208">  1  3  2 -1</clus>
</clustering>
</event>
<event>
 6    0  0.6687079E+002  0.7991198E+02  0.7546771E-02  0.1329301E+00
         21   -1    0    0  505  501  0.00000000000E+00  0.00000000000E+00  0.16395035409E+03  0.16395035409E+03  0.00000000000E+00 0.  1.
         21   -1    0    0  504  502 -0.00000000000E+00 -0.00000000000E+00 -0.31891807960E+03  0.31891807960E+03  0.00000000000E+00 0.  1.
         21    1    1    2  503  506 -0.76957309318E+02 -0.57401918452E+02 -0.17748166487E+03  0.20178490792E+03  0.00000000000E+00 0.  1.
         21    1    1    2  504  501  0.41742487968E+02  0.45755231596E+02 -0.35046795134E+02  0.71163574737E+02  0.00000000000E+00 0.  1.
         21    1    1    2  505  503  0.80022945166E+02 -0.78930786234E+01  0.11127745611E+03  0.13729036631E+03  0.00000000000E+00 0.  1.
         21    1    1    2  506  502 -0.44808123816E+02  0.19539765479E+02 -0.53716721617E+02  0.72629584717E+02  0.00000000000E+00 0.  1.
<scales pt_clust_3="14000.00000" pt_clust_4="59.44352" pt_clust_5="79.91198" pt_clust_6="48.88323"></scales>
<clustering>
<clus scale="   48.883">  2  6  1 -1</clus>
<clus scale="   59.444">  2  4  1 -1</clus>
<clus scale="   79.912">  1  5  2 -1</clus>
<clus scale="   79.912">  1  3  2 -1</clus>
</clustering>
</event>
<event>
 6    0  0.6687079E+002  0.1054878E+03  0.7546771E-02  0.1269161E+00
         21   -1    0    0  504  501  0.00000000000E+00  0.00000000000E+00  0.98737410245E+02  0.98737410245E+02  0.00000000000E+00 0.  1.
         21   -1    0    0  506  502 -0.00000000000E+00 -0.00000000000E+00 -0.26310937489E+03  0.26310937489E+03  0.00000000000E+00 0.  1.
         21    1    1    2  503  501 -0.34059416143E+02  0.23009876247E+02 -0.34682587074E+02  0.53780852346E+02  0.00000000000E+00 0.  1.
         21    1    1    2  504  505 -0.31990184370E+02  0.26575014529E+02  0.48037967104E+02  0.63539354551E+02  0.00000000000E+00 0.  1.
         21    1    1    2  505  502  0.11296601214E+03 -0.32177519482E+02 -0.11628465334E+03  0.16528409864E+03  0.00000000000E+00 0.  1.
         21    1    1    2  506  503 -0.46916411627E+02 -0.17407371293E+02 -0.61442691328E+02  0.79242479599E+02  0.00000000000E+00 0.  1.
<scales pt_clust_3="39.15677" pt_clust_4="41.58850" pt_clust_5="96.23419" pt_clust_6="39.15677"></scales>
<clustering>
<clus scale="   39.157">  3  6 -1 -1</clus>
<clus scale="   41.588">  1  4  2 -1</clus>
<clus scale="   96.234">  1  5  2 -1</clus>
<clus scale="   41.588">  1  3  2 -1</clus>
</clustering>
</event>
<event>
 6    0  0.6687079E+002  0.1497905E+03  0.7546771E-02  0.1200731E+00
         21   -1    0    0  503  501  0.00000000000E+00  0.00000000000E+00  0.20851648181E+04  0.20851648181E+04  0.00000000000E+00 0.  1.
         21   -1    0    0  504  502 -0.00000000000E+00 -0.00000000000E+00 -0.17502315502E+02  0.17502315502E+02  0.00000000000E+00 0.  1.
         21    1    1    2  503  506  0.75272403267E+02 -0.24607550351E+01  0.44301452112E+03  0.44937051076E+03  0.00000000000E+00 0. -1.
         21    1    1    2  504  505 -0.41600650727E+02 -0.31567305248E+02  0.16882083530E+03  0.17671328001E+03  0.00000000000E+00 0. -1.
         21    1    1    2  505  501 -0.13173048506E+03  0.15299563464E+02  0.10642465283E+04  0.10724773519E+04  0.00000000000E+00 0.  1.
         21    1    1    2  506  502  0.98058732516E+02  0.18728496819E+02  0.39158061785E+03  0.40410599092E+03  0.00000000000E+00 0.  1.
<scales pt_clust_3="34.35786" pt_clust_4="52.22173" pt_clust_5="144.47290" pt_clust_6="34.35786"></scales>
<clustering>
<clus scale="   34.358">  3  6 -1 -1</clus>
<clus scale="   52.222">  2  4  1 -1</clus>
<clus scale="  144.473">  1  5  2 -1</clus>
<clus scale="  144.473">  1  3  2 -1</clus>
</clustering>
</event>
<event>
 6    0  0.6687079E+002  0.1774867E+03  0.7546771E-02  0.1170258E+00
         21   -1    0    0  503  501  0.00000000000E+00  0.00000000000E+00  0.36773868659E+02  0.36773868659E+02  0.00000000000E+00 0.  1.
         21   -1    0    0  505  502 -0.00000000000E+00 -0.00000000000E+00 -0.14015236442E+04  0.14015236442E+04  0.00000000000E+00 0.  1.
         21    1    1    2  503  504 -0.55996005381E+02  0.48196570966E+02 -0.14298245780E+03  0.16094236643E+03  0.00000000000E+00 0.  1.
         21    1    1    2  504  506 -0.24580317821E+02 -0.10005371575E+03 -0.21016644528E+03  0.23406168585E+03  0.00000000000E+00 0.  1.
         21    1    1    2  505  501  0.68171596668E+02  0.14444048747E+03 -0.70011982789E+03  0.71810736970E+03  0.00000000000E+00 0.  1.
         21    1    1    2  506  502  0.12404726534E+02 -0.92583342683E+02 -0.31148104461E+03  0.32518609093E+03  0.00000000000E+00 0. -1.
<scales pt_clust_3="73.88141" pt_clust_4="55.39600" pt_clust_5="167.68071" pt_clust_6="55.39600"></scales>
<clustering>
<clus scale="   55.396">  4  6 -1 -1</clus>
<clus scale="   73.881">  1  3  2 -1</clus>
<clus scale="  167.681">  2  5  1 -1</clus>
<clus scale="   73.881">  1  3  2 -1</clus>
</clustering>
</event>
<event>
 6    0  0.6687079E+002  0.7185570E+02  0.7546771E-02  0.1353894E+00
         21   -1    0    0  504  501  0.00000000000E+00  0.00000000000E+00  0.76665635653E+03  0.76665635653E+03  0.00000000000E+00 0.  1.
         21   -1    0    0  506  502 -0.00000000000E+00 -0.00000000000E+00 -0.63765061433E+02  0.63765061433E+02  0.00000000000E+00 0. -1.
         21    1    1    2  503  501 -0.43538338737E+02 -0.23289175125E+02  0.23956076588E+03  0.24459626565E+03  0.00000000000E+00 0.  1.
         21    1    1    2  504  505  0.48918149738E+02 -0.41298373323E+02  0.31366117035E+03  0.32012789756E+03  0.00000000000E+00 0.  1.
         21    1    1    2  505  502 -0.59319694995E+01  0.11143534242E+03  0.17862686116E+03  0.21061951317E+03  0.00000000000E+00 0.  1.
         21    1    1    2  506  503  0.55215849853E+00 -0.46847793973E+02 -0.28957502289E+02  0.55077741584E+02  0.00000000000E+00 0. -1.
<scales pt_clust_3="52.10041" pt_clust_4="71.85570" pt_clust_5="14000.00000" pt_clust_6="46.85105"></scales>
<clustering>
<clus scale="   46.851">  2  6  1 -1</clus>
<clus scale="   52.100">  1  3  2 -1</clus>
<clus scale="   71.856">  1  4  2 -1</clus>
<clus scale="   52.100">  1  3  2 -1</clus>
</clustering>
</event>
<event>
 6    0  0.6687079E+002  0.1167871E+03  0.7546771E-02  0.1248493E+00
         21   -1    0    0  504  501  0.00000000000E+00  0.00000000000E+00  0.19144028517E+04  0.19144028517E+04  0.00000000000E+00 0. -1.
         21   -1    0    0  503  502 -0.00000000000E+00 -0.00000000000E+00 -0.58443528977E+02  0.58443528977E+02  0.00000000000E+00 0.  1.
         21    1    1    2  503  505 -0.62611483572E+01  0.29571798523E+02 -0.93820325437E+01  0.31649893859E+02  0.00000000000E+00 0.  1.
         21    1    1    2  504  502 -0.26951560418E+02 -0.10781531395E+03  0.21019631311E+03  0.23776673143E+03  0.00000000000E+00 0.  1.
         21    1    1    2  505  506 -0.74551825557E+02  0.18767064326E+02  0.46010390642E+02  0.89594271269E+02  0.00000000000E+00 0.  1.
         21    1    1    2  506  501  0.10776453433E+03  0.59476451096E+02  0.16091346515E+04  0.16138354841E+04  0.00000000000E+00 0. -1.
<scales pt_clust_3="30.22736" pt_clust_4="14000.00000" pt_clust_5="85.94154" pt_clust_6="116.78714"></scales>
<clustering>
<clus scale="   30.227">  2  3  1 -1</clus>
<clus scale="   85.942">  2  5  1 -1</clus>
<clus scale="  116.787">  1  6  2 -1</clus>
<clus scale="  116.787">  1  3  2 -1</clus>
</clustering>
</event>
<event>
 6    0  0.6687079E+002  0.1893626E+03  0.7546771E-02  0.1159038E+00
         21   -1    0    0  504  501  0.00000000000E+00  0.00000000000E+00  0.17913839616E+03  0.17913839616E+03  0.00000000000E+00 0. -1.
         21   -1    0    0  506  502 -0.00000000000E+00 -0.00000000000E+00 -0.16676387080E+04  0.16676387080E+04  0.00000000000E+00 0.  1.
         21    1    1    2  503  505  0.81804045602E+02  0.89458323702E+02 -0.48288804335E+03  0.49787102343E+03  0.00000000000E+00 0.  1.
         21    1    1    2  504  503 -0.19246690302E+03 -0.18322757460E+02  0.10748532946E+03  0.22120652849E+03  0.00000000000E+00 0. -1.
         21    1    1    2  505  502 -0.12268434701E+02 -0.37616805414E+02 -0.11753725249E+03  0.12401832229E+03  0.00000000000E+00 0. -1.
         21    1    1    2  506  501  0.12293129212E+03 -0.33518760827E+02 -0.99556034542E+03  0.10036812299E+04  0.00000000000E+00 0.  1.
<scales pt_clust_3="109.91863" pt_clust_4="189.36256" pt_clust_5="39.56689" pt_clust_6="14000.00000"></scales>
<clustering>
<clus scale="   39.567">  2  5  1 -1</clus>
<clus scale="  109.919">  2  3  1 -1</clus>
<clus scale="  189.363">  1  4  2 -1</clus>
<clus scale="  189.363">  1  3  2 -1</clus>
</clustering>
</event>
<event>
 6    0  0.6687079E+002  0.1511508E+03  0.7546771E-02  0.1199066E+00
         21   -1    0    0  506  501  0.00000000000E+00  0.00000000000E+00  0.37016812013E+02  0.37016812013E+02  0.00000000000E+00 0.  1.
         21   -1    0    0  505  502 -0.00000000000E+00 -0.00000000000E+00 -0.97476340436E+03  0.97476340436E+03  0.00000000000E+00 0.  1.
         21    1    1    2  503  502  0.72345207225E+02  0.10183740844E+02 -0.16323032899E+03  0.17883421901E+03  0.00000000000E+00 0.  1.
         21    1    1    2  504  501 -0.26710370713E+02  0.28820792748E+02 -0.14385068792E+02  0.41845097711E+02  0.00000000000E+00 0. -1.
         21    1    1    2  505  504 -0.12676072934E+03 -0.45899116792E+02 -0.40868012492E+03  0.43034225441E+03  0.00000000000E+00 0.  1.
         21    1    1    2  506  503  0.81125892830E+02  0.68945832007E+01 -0.35145106964E+03  0.36075864524E+03  0.00000000000E+00 0.  1.
<scales pt_clust_3="45.72576" pt_clust_4="39.29481" pt_clust_5="142.92689" pt_clust_6="45.72576"></scales>
<clustering>
<clus scale="   39.295">  1  4  2 -1</clus>
<clus scale="   45.726">  3  6 -1 -1</clus>
<clus scale="  142.927">  2  5  1 -1</clus>
<clus scale="   39.295">  1  3  2 -1</clus>
</clustering>
</event>
<event>
 6    0  0.6687079E+002  0.2427383E+03  0.7546771E-02  0.1117982E+00
         21   -1    0    0  504  501  0.00000000000E+00  0.00000000000E+00  0.98516854182E+02  0.98516854182E+02  0.00000000000E+00 0. -1.
         21   -1    0    0  505  502 -0.00000000000E+00 -0.00000000000E+00 -0.10123037930E+04  0.10123037930E+04  0.00000000000E+00 0. -1.
         21    1    1    2  503  501  0.74518584430E+01 -0.70916306502E+02 -0.42385935377E+02  0.82953120737E+02  0.00000000000E+00 0. -1.
         21    1    1    2  504  502  0.78042943475E+02 -0.19251513619E+03 -0.57515659820E+03  0.61152096542E+03  0.00000000000E+00 0. -1.
         21    1    1    2  505  506 -0.20561130495E+02  0.16198135744E+03 -0.21932416161E+03  0.27342971329E+03  0.00000000000E+00 0. -1.
         21    1    1    2  506  503 -0.64933671423E+02  0.10145008526E+03 -0.76920243605E+02  0.14291684771E+03  0.00000000000E+00 0.  1.
<scales pt_clust_3="71.30675" pt_clust_4="223.70445" pt_clust_5="77.80669" pt_clust_6="77.80669"></scales>
<clustering>
<clus scale="   71.307">  1  3  2 -1</clus>
<clus scale="   77.807">  5  6 -1 -1</clus>
<clus scale="  223.704">  2  4  1 -1</clus>
<clus scale="   71.307">  1  3  2 -1</clus>
</clustering>
</event>
<event>
 6    0  0.6687079E+002  0.1256622E+03  0.7546771E-02  0.1234038E+00
         21   -1    0    0  505  501  0.00000000000E+00  0.00000000000E+00  0.83833604869E+03  0.83833604869E+03  0.00000000000E+00 0. -1.
         21   -1    0    0  506  502 -0.00000000000E+00 -0.00000000000E+00 -0.51692109088E+03  0.51692109088E+03  0.00000000000E+00 0.  1.
         21    1    1    2  503  504  0.10095073927E+03  0.47628238616E+02  0.31850430386E+03  0.33749739622E+03  0.00000000000E+00 0. -1.
         21    1    1    2  504  502 -0.12530388008E+03  0.16920509480E+02 -0.48691458745E+03  0.50306379464E+03  0.00000000000E+00 0.  1.
         21    1    1    2  505  503  0.64256111371E+02 -0.73146192335E+02  0.43818605999E+03  0.44887218277E+03  0.00000000000E+00 0. -1.
         21    1    1    2  506  501 -0.39902970560E+02  0.85974442395E+01  0.51639181410E+02  0.65823765949E+02  0.00000000000E+00 0. -1.
<scales pt_clust_3="14000.00000" pt_clust_4="125.66223" pt_clust_5="79.90954" pt_clust_6="40.81866"></scales>
<clustering>
<clus scale="   40.819">  1  6  2 -1</clus>
<clus scale="   79.910">  1  5  2 -1</clus>
<clus scale="  125.662">  2  4  1 -1</clus>
<clus scale="   40.819">  1  3  2 -1</clus>
</clustering>
</event>
<event>
 6    0  0.6687079E+002  0.1020484E+03  0.7546771E-02  0.1276046E+00
         21   -1    0    0  506  501  0.00000000000E+00  0.00000000000E+00  0.24838569221E+02  0.24838569221E+02  0.00000000000E+00 0. -1.
         21   -1    0    0  505  502 -0.00000000000E+00 -0.00000000000E+00 -0.21952031972E+04  0.21952031972E+04  0.00000000000E+00 0. -1.
         21    1    1    2  503  501  0.89611545841E+02  0.24809475498E+02 -0.89844236890E+02  0.12929704608E+03  0.00000000000E+00 0. -1.
         21    1    1    2  504  502 -0.76228566686E+02 -0.18013629567E+02 -0.11492974361E+04  0.11519634898E+04  0.00000000000E+00 0. -1.
         21    1    1    2  505  503  0.51108613591E+02  0.61445095234E+01 -0.33340893541E+03  0.33735939826E+03  0.00000000000E+00 0. -1.
         21    1    1    2  506  504 -0.64491592746E+02 -0.12940355454E+02 -0.59781401963E+03  0.60142183233E+03  0.00000000000E+00 0. -1.
<scales pt_clust_3="95.98202" pt_clust_4="31.76222" pt_clust_5="51.47665" pt_clust_6="31.76222"></scales>
<clustering>
<clus scale="   31.762">  4  6 -1 -1</clus>
<clus scale="   51.477">  2  5  1 -1</clus>
<clus scale="   95.982">  1  3  2 -1</clus>
<clus scale="   95.982">  1  3  2 -1</clus>
</clustering>
</event>
<event>
 6    0  0.6687079E+002  0.1528607E+03  0.7546771E-02  0.1197001E+00
         21   -1    0    0  505  501  0.00000000000E+00  0.00000000000E+00  0.33925393102E+03  0.33925393102E+03  0.00000000000E+00 0. -1.
         21   -1    0    0  504  502 -0.00000000000E+00 -0.00000000000E+00 -0.18862549337E+03  0.18862549337E+03  0.00000000000E+00 0. -1.
         21    1    1    2  503  501 -0.80624073740E+02  0.44414410293E+02  0.16813509142E+03  0.19168278503E+03  0.00000000000E+00 0. -1.
         21    1    1    2  504  503  0.37936884770E+02  0.11578205023E+03  0.73554476501E+02  0.14231989107E+03  0.00000000000E+00 0. -1.
         21    1    1    2  505  506  0.16533574984E+01 -0.88633637025E+02 -0.48625529465E+02  0.10110933349E+03  0.00000000000E+00 0. -1.
         21    1    1    2  506  502  0.41033831472E+02 -0.71562823498E+02 -0.42435600809E+02  0.92767414797E+02  0.00000000000E+00 0. -1.
<scales pt_clust_3="92.04825" pt_clust_4="146.81767" pt_clust_5="41.05111" pt_clust_6="41.05111"></scales>
<clustering>
<clus scale="   41.051">  5  6 -1 -1</clus>
<clus scale="   92.048">  1  3  2 -1</clus>
<clus scale="  146.818">  1  4  2 -1</clus>
<clus scale="   92.048">  1  3  2 -1</clus>
</clustering>
</event>
<event>
 6    0  0.6687079E+002  0.8123346E+02  0.7546771E-02  0.1325587E+00
         21   -1    0    0  503  501  0.00000000000E+00  0.00000000000E+00  0.36547628845E+03  0.36547628845E+03  0.00000000000E+00 0. -1.
         21   -1    0    0  506  502 -0.00000000000E+00 -0.00000000000E+00 -0.77103203876E+03  0.77103203876E+03  0.00000000000E+00 0. -1.
         21    1    1    2  503  505  0.66982279786E+00 -0.47470630813E+02  0.31967923713E+03  0.32318527829E+03  0.00000000000E+00 0. -1.
         21    1    1    2  504  501 -0.38120502699E+02  0.43188526856E+02 -0.24545973467E+01  0.57658014414E+02  0.00000000000E+00 0. -1.
         21    1    1    2  505  502 -0.34684872494E+02  0.70859610221E+02 -0.56034887361E+03  0.56587541465E+03  0.00000000000E+00 0. -1.
         21    1    1    2  506  504  0.72135552395E+02 -0.66577506263E+02 -0.16243151648E+03  0.18978961986E+03  0.00000000000E+00 0. -1.
<scales pt_clust_3="47.47536" pt_clust_4="40.02454" pt_clust_5="14000.00000" pt_clust_6="81.23346"></scales>
<clustering>
<clus scale="   47.475">  1  3  2 -1</clus>
<clus scale="   40.025">  1  4  2 -1</clus>
<clus scale="   81.233">  1  6  2 -1</clus>
<clus scale="   47.475">  1  3  2 -1</clus>
</clustering>
</event>
<event>
 6    0  0.6687079E+002  0.9862991E+02  0.7546771E-02  0.1283204E+00
         21   -1    0    0  505  501  0.00000000000E+00  0.00000000000E+00  0.12776739614E+04  0.12776739614E+04  0.00000000000E+00 0.  1.
         21   -1    0    0  506  502 -0.00000000000E+00 -0.00000000000E+00 -0.59311841792E+02  0.59311841792E+02  0.00000000000E+00 0.  1.
         21    1    1    2  503  501  0.82390856012E+02 -0.55635429836E+02  0.59707427012E+03  0.60529434017E+03  0.00000000000E+00 0.  1.
         21    1    1    2  504  503  0.10469032274E+02 -0.48696031022E+02  0.17386213916E+03  0.18085615143E+03  0.00000000000E+00 0.  1.
         21    1    1    2  505  502 -0.61821655803E+02  0.79065261148E+02  0.48539823064E+03  0.49566589045E+03  0.00000000000E+00 0.  1.
         21    1    1    2  506  504 -0.31038232483E+02  0.25266199710E+02 -0.37972520351E+02  0.55169421107E+02  0.00000000000E+00 0.  1.
<scales pt_clust_3="98.62991" pt_clust_4="41.80668" pt_clust_5="14000.00000" pt_clust_6="40.02190"></scales>
<clustering>
<clus scale="   40.022">  2  6  1 -1</clus>
<clus scale="   41.807">  2  4  1 -1</clus>
<clus scale="   98.630">  1  3  2 -1</clus>
<clus scale="   98.630">  1  3  2 -1</clus>
</clustering>
</event>
<event>
 6    0  0.6687079E+002  0.1123680E+03  0.7546771E-02  0.1256247E+00
         21   -1    0    0  504  501  0.00000000000E+00  0.00000000000E+00  0.11945069278E+03  0.11945069278E+03  0.00000000000E+00 0. -1.
         21   -1    0    0  501  502 -0.00000000000E+00 -0.00000000000E+00 -0.33525737218E+03  0.33525737218E+03  0.00000000000E+00 0. -1.
         21    1    1    2  503  502 -0.27854258832E+02 -0.12001936965E+02 -0.11846095256E+03  0.12228206536E+03  0.00000000000E+00 0. -1.
         21    1    1    2  504  506 -0.25652898996E+02  0.16603214984E+02 -0.75712859534E+01  0.31481142700E+02  0.00000000000E+00 0.  1.
         21    1    1    2  505  503  0.12949276053E+03  0.53038902654E+02 -0.13584493392E+03  0.19502652716E+03  0.00000000000E+00 0. -1.
         21    1    1    2  506  505 -0.75985602700E+02 -0.57640180673E+02  0.46070493048E+02  0.10591832974E+03  0.00000000000E+00 0. -1.
<scales pt_clust_3="30.32996" pt_clust_4="32.17106" pt_clust_5="14000.00000" pt_clust_6="112.36797"></scales>
<clustering>
<clus scale="   30.330">  2  3  1 -1</clus>
<clus scale="   32.171">  1  4  2 -1</clus>
<clus scale="  112.368">  1  6  2 -1</clus>
<clus scale="   32.171">  1  3  2 -1</clus>
</clustering>
</event>
<event>
 6    0  0.6687079E+002  0.1365374E+03  0.7546771E-02  0.1218065E+00
         21   -1    0    0  506  501  0.00000000000E+00  0.00000000000E+00  0.28649533027E+03  0.28649533027E+03  0.00000000000E+00 0.  1.
         21   -1    0    0  505  502 -0.00000000000E+00 -0.00000000000E+00 -0.33032933982E+03  0.33032933982E+03  0.00000000000E+00 0.  1.
         21    1    1    2  503  502  0.29652378003E+01  0.33401056036E+02 -0.12382855400E+03  0.12828847947E+03  0.00000000000E+00 0.  1.
         21    1    1    2  504  501  0.12211488914E+03 -0.33805782451E+02  0.15448523289E+03  0.19980131195E+03  0.00000000000E+00 0.  1.
         21    1    1    2  505  504  0.45408710046E+02 -0.77543837547E+02 -0.38917770083E+02  0.97926454637E+02  0.00000000000E+00 0.  1.
         21    1    1    2  506  503 -0.17048883699E+03  0.77948563962E+02 -0.35572918353E+02  0.19080842403E+03  0.00000000000E+00 0.  1.
<scales pt_clust_3="33.53242" pt_clust_4="14000.00000" pt_clust_5="80.97064" pt_clust_6="136.53745"></scales>
<clustering>
<clus scale="   33.532">  2  3  1 -1</clus>
<clus scale="   80.971">  2  5  1 -1</clus>
<clus scale="  136.537">  2  6  1 -1</clus>
<clus scale="  136.537">  1  3  2 -1</clus>
</clustering>
</event>
<event>
 6    0  0.6687079E+002  0.1923454E+03  0.7546771E-02  0.1156363E+00
         21   -1    0    0  503  501  0.00000000000E+00  0.00000000000E+00  0.76585020881E+03  0.76585020881E+03  0.00000000000E+00 0. -1.
         21   -1    0    0  504  502 -0.00000000000E+00 -0.00000000000E+00 -0.18765610902E+03  0.18765610902E+03  0.00000000000E+00 0.  1.
         21    1    1    2  503  502 -0.91031257973E+02  0.16556641273E+03  0.68173683757E+03  0.70743483280E+03  0.00000000000E+00 0. -1.
         21    1    1    2  504  505  0.32869246787E+02  0.93705777797E+01 -0.22594705847E+02  0.40972134977E+02  0.00000000000E+00 0. -1.
         21    1    1    2  505  506  0.16846035203E+02 -0.10791310830E+03 -0.39680033752E+02  0.11620470268E+03  0.00000000000E+00 0.  1.
         21    1    1    2  506  501  0.41315975983E+02 -0.67023882207E+02 -0.41267998183E+02  0.88894647373E+02  0.00000000000E+00 0.  1.
<scales pt_clust_3="188.33308" pt_clust_4="34.17887" pt_clust_5="33.18239" pt_clust_6="33.18239"></scales>
<clustering>
<clus scale="   33.182">  5  6 -1 -1</clus>
<clus scale="   34.179">  2  4  1 -1</clus>
<clus scale="  188.333">  1  3  2 -1</clus>
<clus scale="  188.333">  1  3  2 -1</clus>
</clustering>
</event>
<event>
 6    0  0.6687079E+002  0.1145137E+03  0.7546771E-02  0.1252432E+00
         21   -1    0    0  503  501  0.00000000000E+00  0.00000000000E+00  0.63827510961E+02  0.63827510961E+02  0.00000000000E+00 0.  1.
         21   -1    0    0  505  502 -0.00000000000E+00 -0.00000000000E+00 -0.44095108721E+03  0.44095108721E+03  0.00000000000E+00 0.  1.
         21    1    1    2  503  504 -0.29026340638E+02  0.12810456703E+02 -0.25219731879E+02  0.40529879445E+02  0.00000000000E+00 0.  1.
         21    1    1    2  504  502 -0.10150885964E+02 -0.28618469400E+02 -0.48193747195E+02  0.56962220334E+02  0.00000000000E+00 0. -1.
         21    1    1    2  505  506 -0.54846686832E+01  0.12835863389E+03 -0.23561094925E+03  0.26836270212E+03  0.00000000000E+00 0.  1.
         21    1    1    2  506  501  0.44661895285E+02 -0.11255062119E+03 -0.68099147923E+02  0.13892379627E+03  0.00000000000E+00 0.  1.
<scales pt_clust_3="31.63951" pt_clust_4="30.36540" pt_clust_5="14000.00000" pt_clust_6="114.51369"></scales>
<clustering>
<clus scale="   30.365">  2  4  1 -1</clus>
<clus scale="   31.640">  1  3  2 -1</clus>
<clus scale="  114.514">  1  6  2 -1</clus>
<clus scale="   31.640">  1  3  2 -1</clus>
</clustering>
</event>
<event>
 6    0  0.6687079E+002  0.8183924E+02  0.7546771E-02  0.1323911E+00
         21   -1    0    0  504  501  0.00000000000E+00  0.00000000000E+00  0.67053178187E+02  0.67053178187E+02  0.00000000000E+00 0. -1.
         21   -1    0    0  506  502 -0.00000000000E+00 -0.00000000000E+00 -0.43143672271E+03  0.43143672271E+03  0.00000000000E+00 0. -1.
         21    1    1    2  503  502  0.11064825671E+02  0.31908753426E+02 -0.14026992609E+03  0.14427838049E+03  0.00000000000E+00 0. -1.
         21    1    1    2  504  505  0.68460163173E+02 -0.34973091607E+02  0.56341067720E+01  0.77082126576E+02  0.00000000000E+00 0. -1.
         21    1    1    2  505  503  0.37003674854E+02 -0.60054057528E+01 -0.45754730465E+02  0.59150927388E+02  0.00000000000E+00 0. -1.
         21    1    1    2  506  501 -0.11652866370E+03  0.90697439339E+01 -0.18399299474E+03  0.21797846644E+03  0.00000000000E+00 0. -1.
<scales pt_clust_3="33.77275" pt_clust_4="14000.00000" pt_clust_5="39.01139" pt_clust_6="81.83924"></scales>
<clustering>
<clus scale="   33.773">  2  3  1 -1</clus>
<clus scale="   39.011">  2  5  1 -1</clus>
<clus scale="   81.839">  2  6  1 -1</clus>
<clus scale="   81.839">  1  3  2 -1</clus>
</clustering>
</event>
<event>
 6    0  0.6687079E+002  0.8747158E+02  0.7546771E-02  0.1309093E+00
         21   -1    0    0  503  501  0.00000000000E+00  0.00000000000E+00  0.46350950100E+03  0.46350950100E+03  0.00000000000E+00 0. -1.
         21   -1    0    0  506  502 -0.00000000000E+00 -0.00000000000E+00 -0.12067223610E+03  0.12067223610E+03  0.00000000000E+00 0.  1.
         21    1    1    2  503  502  0.32817664984E+02  0.13300425710E+02  0.11391943231E+03  0.11929600797E+03  0.00000000000E+00 0. -1.
         21    1    1    2  504  501 -0.24711144038E+02 -0.73967001785E+02  0.15482622564E+03  0.17335777495E+03  0.00000000000E+00 0. -1.
         21    1    1    2  505  504 -0.82454620884E+02  0.91931835215E+01  0.15134532497E+03  0.17259399329E+03  0.00000000000E+00 0. -1.
         21    1    1    2  506  505  0.74348099938E+02  0.51473392554E+02 -0.77253718018E+02  0.11893396089E+03  0.00000000000E+00 0.  1.
<scales pt_clust_3="35.41046" pt_clust_4="68.29643" pt_clust_5="87.47158" pt_clust_6="14000.00000"></scales>
<clustering>
<clus scale="   35.410">  1  3  2 -1</clus>
<clus scale="   68.296">  1  4  2 -1</clus>
<clus scale="   87.472">  1  5  2 -1</clus>
<clus scale="   35.410">  1  3  2 -1</clus>
</clustering>
</event>
<event>
 6    0  0.6687079E+002  0.9430469E+02  0.7546771E-02  0.1292750E+00
         21   -1    0    0  505  501  0.00000000000E+00  0.00000000000E+00  0.29462298434E+03  0.29462298434E+03  0.00000000000E+00 0. -1.
         21   -1    0    0  503  502 -0.00000000000E+00 -0.00000000000E+00 -0.43618889679E+03  0.43618889679E+03  0.00000000000E+00 0. -1.
         21    1    1    2  503  504 -0.79279271238E+02 -0.40692363282E+02 -0.60715954812E+02  0.10783087891E+03  0.00000000000E+00 0.  1.
         21    1    1    2  504  501  0.48746277189E+02  0.52790974187E+02  0.57161469161E+02  0.91817863469E+02  0.00000000000E+00 0. -1.
         21    1    1    2  505  506  0.60402657759E+02 -0.56206335177E+01  0.19117078722E+03  0.20056505795E+03  0.00000000000E+00 0. -1.
         21    1    1    2  506  502 -0.29869663710E+02 -0.64779773865E+01 -0.32918221402E+03  0.33059808079E+03  0.00000000000E+00 0. -1.
<scales pt_clust_3="14000.00000" pt_clust_4="94.30469" pt_clust_5="59.37732" pt_clust_6="30.56405"></scales>
<clustering>
<clus scale="   30.564">  2  6  1 -1</clus>
<clus scale="   59.377">  1  5  2 -1</clus>
<clus scale="   94.305">  1  4  2 -1</clus>
<clus scale="   59.377">  1  3  2 -1</clus>
</clustering>
</event>
<event>
 6    0  0.6687079E+002  0.1467589E+03  0.7546771E-02  0.1204513E+00
         21   -1    0    0  503  501  0.00000000000E+00  0.00000000000E+00  0.39178981224E+03  0.39178981224E+03  0.00000000000E+00 0.  1.
         21   -1    0    0  506  502 -0.00000000000E+00 -0.00000000000E+00 -0.65235223077E+03  0.65235223077E+03  0.00000000000E+00 0. -1.
         21    1    1    2  503  504 -0.37148743364E+02 -0.16178605898E+02  0.17780602758E+03  0.18236436019E+03  0.00000000000E+00 0.  1.
         21    1    1    2  504  505 -0.10905939231E+03 -0.43025622288E+01  0.79304408722E+02  0.13491349946E+03  0.00000000000E+00 0.  1.
         21    1    1    2  505  502  0.13954479955E+03  0.56337720486E+02 -0.60963496624E+03  0.62793429744E+03  0.00000000000E+00 0. -1.
         21    1    1    2  506  501  0.66633361260E+01 -0.35856552359E+02  0.91962111408E+02  0.98929885930E+02  0.00000000000E+00 0. -1.
<scales pt_clust_3="50.37030" pt_clust_4="14000.00000" pt_clust_5="146.75894" pt_clust_6="36.47043"></scales>
<clustering>
<clus scale="   36.470">  1  6  2 -1</clus>
<clus scale="   50.370">  1  3  2 -1</clus>
<clus scale="  146.759">  2  5  1 -1</clus>
<clus scale="   36.470">  1  3  2 -1</clus>
</clustering>
</event>
<event>
 6    0  0.6687079E+002  0.8993062E+02  0.7546771E-02  0.1303020E+00
         21   -1    0    0  502  501  0.00000000000E+00  0.00000000000E+00  0.25327272817E+03  0.25327272817E+03  0.00000000000E+00 0. -1.
         21   -1    0    0  503  502 -0.00000000000E+00 -0.00000000000E+00 -0.45403837987E+03  0.45403837987E+03  0.00000000000E+00 0. -1.
         21    1    1    2  503  505  0.30168770476E+01  0.46172048430E+02 -0.28910335856E+03  0.29278270361E+03  0.00000000000E+00 0. -1.
         21    1    1    2  504  506  0.96237919202E+02  0.40418947954E+02  0.13531474824E+03  0.17089619521E+03  0.00000000000E+00 0. -1.
         21    1    1    2  505  504 -0.54544422485E+02 -0.11115812209E+03 -0.10785360417E+03  0.16420603541E+03  0.00000000000E+00 0. -1.
         21    1    1    2  506  501 -0.44710373765E+02  0.24567125711E+02  0.60876562797E+02  0.79426173808E+02  0.00000000000E+00 0. -1.
<scales pt_clust_3="46.27050" pt_clust_4="89.93062" pt_clust_5="14000.00000" pt_clust_6="52.18385"></scales>
<clustering>
<clus scale="   46.271">  2  3  1 -1</clus>
<clus scale="   52.184">  1  6  2 -1</clus>
<clus scale="   89.931">  1  4  2 -1</clus>
<clus scale="   52.184">  1  3  2 -1</clus>
</clustering>
</event>
<event>
 6    0  0.6687079E+002  0.9652175E+02  0.7546771E-02  0.1287785E+00
         21   -1    0    0  503  501  0.00000000000E+00  0.00000000000E+00  0.12152743791E+04  0.12152743791E+04  0.00000000000E+00 0. -1.
         21   -1    0    0  501  502 -0.00000000000E+00 -0.00000000000E+00 -0.54497871332E+02  0.54497871332E+02  0.00000000000E+00 0. -1.
         21    1    1    2  503  506 -0.31750765916E+02  0.58571452246E+02  0.98036851008E+03  0.98262970732E+03  0.00000000000E+00 0. -1.
         21    1    1    2  504  505  0.75647509050E+02 -0.11748042595E+02  0.73679865292E+02  0.10625104555E+03  0.00000000000E+00 0. -1.
         21    1    1    2  505  502 -0.78018805207E+02 -0.23955965229E+02  0.18666831562E+02  0.83721400111E+02  0.00000000000E+00 0. -1.
         21    1    1    2  506  504  0.34122062074E+02 -0.22867444423E+02  0.88061300838E+02  0.97170097458E+02  0.00000000000E+00 0.  1.
<scales pt_clust_3="66.62377" pt_clust_4="32.53141" pt_clust_5="85.69762" pt_clust_6="32.53141"></scales>
<clustering>
<clus scale="   32.531">  4  6 -1 -1</clus>
<clus scale="   66.624">  1  3  2 -1</clus>
<clus scale="   85.698">  2  5  1 -1</clus>
<clus scale="   66.624">  1  3  2 -1</clus>
</clustering>
</event>
<event>
 6    0  0.6687079E+002  0.1059352E+03  0.7546771E-02  0.1268288E+00
         21   -1    0    0  504  501  0.00000000000E+00  0.00000000000E+00  0.75259781389E+03  0.75259781389E+03  0.00000000000E+00 0. -1.
         21   -1    0    0  503  502 -0.00000000000E+00 -0.00000000000E+00 -0.22693088752E+03  0.22693088752E+03  0.00000000000E+00 0. -1.
         21    1    1    2  503  505 -0.11360436095E+03 -0.23692281703E+02 -0.18133074236E+03  0.21528611930E+03  0.00000000000E+00 0. -1.
         21    1    1    2  504  502  0.61576842977E+01 -0.30538528201E+02  0.51621065582E+03  0.51714984286E+03  0.00000000000E+00 0. -1.
         21    1    1    2  505  506  0.45858573347E+02  0.65815789101E+02  0.54187730981E+02  0.96804116820E+02  0.00000000000E+00 0. -1.
         21    1    1    2  506  501  0.61588103303E+02 -0.11584979197E+02  0.13659928192E+03  0.15028862243E+03  0.00000000000E+00 0. -1.
<scales pt_clust_3="14000.00000" pt_clust_4="31.15315" pt_clust_5="105.93520" pt_clust_6="71.95487"></scales>
<clustering>
<clus scale="   31.153">  1  4  2 -1</clus>
<clus scale="   71.955">  1  6  2 -1</clus>
<clus scale="  105.935">  1  5  2 -1</clus>
<clus scale="   31.153">  1  3  2 -1</clus>
</clustering>
</event>
<event>
 6    0  0.6687079E+002  0.7966922E+02  0.7546771E-02  0.1329993E+00
         21   -1    0    0  505  501  0.00000000000E+00  0.00000000000E+00  0.26097660502E+03  0.26097660502E+03  0.00000000000E+00 0.  1.
         21   -1    0    0  506  502 -0.00000000000E+00 -0.00000000000E+00 -0.35182065359E+03  0.35182065359E+03  0.00000000000E+00 0.  1.
         21    1    1    2  503  502 -0.81410010198E+02 -0.64068219172E+02  0.18877780352E+03  0.21533551859E+03  0.00000000000E+00 0.  1.
         21    1    1    2  504  501  0.26412919123E+02  0.39926674863E+02 -0.95471267402E+01  0.48815256747E+02  0.00000000000E+00 0.  1.
         21    1    1    2  505  503 -0.24358765457E+02  0.19181971720E+02  0.27001364116E+02  0.41114123581E+02  0.00000000000E+00 0. -1.
         21    1    1    2  506  504  0.79355856532E+02  0.49595725886E+01 -0.29707608947E+03  0.30753235969E+03  0.00000000000E+00 0.  1.
<scales pt_clust_3="79.66922" pt_clust_4="48.16819" pt_clust_5="31.00480" pt_clust_6="14000.00000"></scales>
<clustering>
<clus scale="   31.005">  1  5  2 -1</clus>
<clus scale="   48.168">  1  4  2 -1</clus>
<clus scale="   79.669">  1  3  2 -1</clus>
<clus scale="   31.005">  1  3  2 -1</clus>
</clustering>
</event>
<event>
 6    0  0.6687079E+002  0.1179233E+03  0.7546771E-02  0.1246563E+00
         21   -1    0    0  503  501  0.00000000000E+00  0.00000000000E+00  0.27842210427E+03  0.27842210427E+03  0.00000000000E+00 0. -1.
         21   -1    0    0  504  502 -0.00000000000E+00 -0.00000000000E+00 -0.20500441566E+03  0.20500441566E+03  0.00000000000E+00 0. -1.
         21    1    1    2  503  506 -0.20800873093E+02 -0.48359902150E+02  0.63490484623E+01  0.53025153218E+02  0.00000000000E+00 0. -1.
         21    1    1    2  504  505  0.13616096245E+02 -0.76548310331E+02 -0.13230458254E+03  0.15345860827E+03  0.00000000000E+00 0. -1.
         21    1    1    2  505  501  0.43196343149E+02  0.11623481887E+03  0.20489095110E+03  0.23949271183E+03  0.00000000000E+00 0. -1.
         21    1    1    2  506  502 -0.36011566301E+02  0.86733936162E+01 -0.55177284084E+01  0.37450046610E+02  0.00000000000E+00 0. -1.
<scales pt_clust_3="53.64123" pt_clust_4="14000.00000" pt_clust_5="117.92327" pt_clust_6="37.04134"></scales>
<clustering>
<clus scale="   37.041">  2  6  1 -1</clus>
<clus scale="   53.641">  2  3  1 -1</clus>
<clus scale="  117.923">  1  5  2 -1</clus>
<clus scale="  117.923">  1  3  2 -1</clus>
</clustering>
</event>
<event>
 6    0  0.6687079E+002  0.1357596E+03  0.7546771E-02  0.1219151E+00
         21   -1    0    0  506  501  0.00000000000E+00  0.00000000000E+00  0.38886622843E+03  0.38886622843E+03  0.00000000000E+00 0. -1.
         21   -1    0    0  505  502 -0.00000000000E+00 -0.00000000000E+00 -0.35290585048E+03  0.35290585048E+03  0.00000000000E+00 0.  1.
         21    1    1    2  503  501 -0.89965472915E+02  0.34169341757E+01  0.32526065868E+03  0.33749067815E+03  0.00000000000E+00 0. -1.
         21    1    1    2  504  503  0.53634365076E+02 -0.81892870176E+02 -0.14638948776E+03  0.17610499547E+03  0.00000000000E+00 0.  1.
         21    1    1    2  505  504  0.59247852518E+02 -0.15446013532E+02 -0.11028656736E+03  0.12614283294E+03  0.00000000000E+00 0.  1.
         21    1    1    2  506  502 -0.22916744678E+02  0.93921949532E+02 -0.32624225607E+02  0.10203357235E+03  0.00000000000E+00 0.  1.
<scales pt_clust_3="90.03034" pt_clust_4="45.11296" pt_clust_5="45.11296" pt_clust_6="123.19405"></scales>
<clustering>
<clus scale="   45.113">  4  5 -1 -1</clus>
<clus scale="   90.030">  1  3  2 -1</clus>
<clus scale="  123.194">  1  6  2 -1</clus>
<clus scale="   90.030">  1  3  2 -1</clus>
</clustering>
</event>
<event>
 6    0  0.6687079E+002  0.2233349E+03  0.7546771E-02  0.1131421E+00
         21   -1    0    0  506  501  0.00000000000E+00  0.00000000000E+00  0.37226791756E+03  0.37226791756E+03  0.00000000000E+00 0.  1.
         21   -1    0    0  504  502 -0.00000000000E+00 -0.00000000000E+00 -0.13477770982E+04  0.13477770982E+04  0.00000000000E+00 0. -1.
         21    1    1    2  503  502 -0.36300711805E+02  0.41192396183E+01 -0.24834926654E+03  0.25102204684E+03  0.00000000000E+00 0. -1.
         21    1    1    2  504  505  0.23596799419E+02  0.21965497776E+03 -0.10396542726E+04  0.10628669365E+04  0.00000000000E+00 0. -1.
         21    1    1    2  505  501 -0.28312853922E+02 -0.21365976618E+03  0.24281926661E+03  0.32467415915E+03  0.00000000000E+00 0.  1.
         21    1    1    2  506  503  0.41016766308E+02 -0.10114451200E+02  0.69675091880E+02  0.81481873260E+02  0.00000000000E+00 0.  1.
<scales pt_clust_3="36.53368" pt_clust_4="223.33488" pt_clust_5="14000.00000" pt_clust_6="42.05067"></scales>
<clustering>
<clus scale="   36.534">  2  3  1 -1</clus>
<clus scale="   42.051">  1  6  2 -1</clus>
<clus scale="  223.335">  2  4  1 -1</clus>
<clus scale="   42.051">  1  3  2 -1</clus>
</clustering>
</event>
<event>
 6    0  0.6687079E+002  0.7314503E+02  0.7546771E-02  0.1349713E+00
         21   -1    0    0  505  501  0.00000000000E+00  0.00000000000E+00  0.13390509393E+03  0.13390509393E+03  0.00000000000E+00 0. -1.
         21   -1    0    0  506  502 -0.00000000000E+00 -0.00000000000E+00 -0.28356212929E+03  0.28356212929E+03  0.00000000000E+00 0.  1.
         21    1    1    2  503  502  0.67302042401E+02 -0.27809681091E+01 -0.16151382389E+03  0.17499718284E+03  0.00000000000E+00 0.  1.
         21    1    1    2  504  501 -0.94198976408E+02  0.52065304246E+02  0.78649380288E+02  0.13330404376E+03  0.00000000000E+00 0. -1.
         21    1    1    2  505  503  0.35685409704E+02 -0.10378085061E+02 -0.78304553418E+01  0.37979851844E+02  0.00000000000E+00 0. -1.
         21    1    1    2  506  504 -0.87884756968E+01 -0.38906251076E+02 -0.58962136420E+02  0.71186144783E+02  0.00000000000E+00 0.  1.
<scales pt_clust_3="73.14503" pt_clust_4="14000.00000" pt_clust_5="37.16387" pt_clust_6="40.04824"></scales>
<clustering>
<clus scale="   37.164">  1  5  2 -1</clus>
<clus scale="   40.048">  2  6  1 -1</clus>
<clus scale="   73.145">  2  3  1 -1</clus>
<clus scale="   37.164">  1  3  2 -1</clus>
</clustering>
</event>
<event>
 6    0  0.6687079E+002  0.1044430E+03  0.7546771E-02  0.1271221E+00
         21   -1    0    0  504  501  0.00000000000E+00  0.00000000000E+00  0.16694367315E+04  0.16694367315E+04  0.00000000000E+00 0. -1.
         21   -1    0    0  506  502 -0.00000000000E+00 -0.00000000000E+00 -0.66231557934E+03  0.66231557934E+03  0.00000000000E+00 0. -1.
         21    1    1    2  503  502  0.10242182749E+03 -0.19890864251E+02 -0.63245653410E+03  0.64100479309E+03  0.00000000000E+00 0. -1.
         21    1    1    2  504  503 -0.12807826651E+03  0.56257337740E+02  0.12681446282E+04  0.12758368738E+04  0.00000000000E+00 0. -1.
         21    1    1    2  505  501  0.18703362107E+02  0.69253664900E+02  0.20959974638E+03  0.22153541374E+03  0.00000000000E+00 0. -1.
         21    1    1    2  506  505  0.69530769116E+01 -0.10562013839E+03  0.16183331169E+03  0.19337523027E+03  0.00000000000E+00 0.  1.
<scales pt_clust_3="14000.00000" pt_clust_4="104.44302" pt_clust_5="71.73483" pt_clust_6="97.59830"></scales>
<clustering>
<clus scale="   71.735">  1  5  2 -1</clus>
<clus scale="   97.598">  1  6  2 -1</clus>
<clus scale="  104.443">  1  4  2 -1</clus>
<clus scale="   71.735">  1  3  2 -1</clus>
</clustering>
</event>
<event>
 6    0  0.6687079E+002  0.2472650E+03  0.7546771E-02  0.1115046E+00
         21   -1    0    0  505  501  0.00000000000E+00  0.00000000000E+00  0.10886783078E+03  0.10886783078E+03  0.00000000000E+00 0. -1.
         21   -1    0    0  504  502 -0.00000000000E+00 -0.00000000000E+00 -0.17897537622E+04  0.17897537622E+04  0.00000000000E+00 0. -1.
         21    1    1    2  503  506 -0.10101165703E+03 -0.14099938537E+03 -0.17847817101E+03  0.24887474572E+03  0.00000000000E+00 0. -1.
         21    1    1    2  504  503  0.43533014532E+02 -0.48707484504E+02 -0.12152190883E+04  0.12169736953E+04  0.00000000000E+00 0. -1.
         21    1    1    2  505  502  0.10053716111E+03  0.22756768117E+03 -0.16708921904E+03  0.29968913460E+03  0.00000000000E+00 0. -1.
         21    1    1    2  506  501 -0.43058518610E+02 -0.37860811299E+02 -0.12009945303E+03  0.13308401736E+03  0.00000000000E+00 0. -1.
<scales pt_clust_3="36.34818" pt_clust_4="65.32643" pt_clust_5="239.04660" pt_clust_6="36.34818"></scales>
<clustering>
<clus scale="   36.348">  3  6 -1 -1</clus>
<clus scale="   65.326">  2  4  1 -1</clus>
<clus scale="  239.047">  1  5  2 -1</clus>
<clus scale="  239.047">  1  3  2 -1</clus>
</clustering>
</event>
<event>
 6    0  0.6687079E+002  0.1063563E+03  0.7546771E-02  0.1267470E+00
         21   -1    0    0  505  501  0.00000000000E+00  0.00000000000E+00  0.52409616579E+03  0.52409616579E+03  0.00000000000E+00 0. -1.
         21   -1    0    0  503  502 -0.00000000000E+00 -0.00000000000E+00 -0.11787599776E+03  0.11787599776E+03  0.00000000000E+00 0. -1.
         21    1    1    2  503  504 -0.46677578585E+02  0.14726276824E+02 -0.12007325917E+02  0.50396780128E+02  0.00000000000E+00 0. -1.
         21    1    1    2  504  501  0.52557061781E+02 -0.23550555115E+02  0.34689927956E+03  0.35164752743E+03  0.00000000000E+00 0. -1.
         21    1    1    2  505  506  0.56104808260E+02  0.84771816463E+02  0.94937436891E+02  0.13909395134E+03  0.00000000000E+00 0. -1.
         21    1    1    2  506  502 -0.61984291457E+02 -0.75947538172E+02 -0.23609222500E+02  0.10083390466E+03  0.00000000000E+00 0. -1.
<scales pt_clust_3="48.94548" pt_clust_4="56.26079" pt_clust_5="106.35626" pt_clust_6="14000.00000"></scales>
<clustering>
<clus scale="   48.945">  2  3  1 -1</clus>
<clus scale="   56.261">  1  4  2 -1</clus>
<clus scale="  106.356">  1  5  2 -1</clus>
<clus scale="   56.261">  1  3  2 -1</clus>
</clustering>
</event>
<event>
 6    0  0.6687079E+002  0.7244651E+02  0.7546771E-02  0.1351966E+00
         21   -1    0    0  505  501  0.00000000000E+00  0.00000000000E+00  0.24802609772E+04  0.24802609772E+04  0.00000000000E+00 0. -1.
         21   -1    0    0  504  502 -0.00000000000E+00 -0.00000000000E+00 -0.11765386269E+02  0.11765386269E+02  0.00000000000E+00 0. -1.
         21    1    1    2  503  502  0.68393120784E+02 -0.47510244327E+02  0.22777572108E+03  0.24252138339E+03  0.00000000000E+00 0. -1.
         21    1    1    2  504  501 -0.35824946298E+02  0.41746497832E+02  0.45623156090E+03  0.45953610742E+03  0.00000000000E+00 0. -1.
         21    1    1    2  505  506  0.29595615749E+02  0.52703969261E+02  0.91716190760E+03  0.91915155094E+03  0.00000000000E+00 0.  1.
         21    1    1    2  506  503 -0.62163790236E+02 -0.46940222766E+02  0.86732640133E+03  0.87081732170E+03  0.00000000000E+00 0. -1.
<scales pt_clust_3="72.44651" pt_clust_4="55.01088" pt_clust_5="72.88635" pt_clust_6="14000.00000"></scales>
<clustering>
<clus scale="   55.011">  1  4  2 -1</clus>
<clus scale="   72.886">  1  5  2 -1</clus>
<clus scale="   72.447">  2  3  1 -1</clus>
<clus scale="   55.011">  1  3  2 -1</clus>
</clustering>
</event>
<event>
 6    0  0.6687079E+002  0.1427863E+03  0.7546771E-02  0.1209628E+00
         21   -1    0    0  505  501  0.00000000000E+00  0.00000000000E+00  0.13702976724E+03  0.13702976724E+03  0.00000000000E+00 0.  1.
         21   -1    0    0  503  502 -0.00000000000E+00 -0.00000000000E+00 -0.25254826519E+03  0.25254826519E+03  0.00000000000E+00 0.  1.
         21    1    1    2  503  501  0.12127724433E+03 -0.12135529816E+02 -0.69358748202E+02  0.14023579082E+03  0.00000000000E+00 0.  1.
         21    1    1    2  504  506 -0.94084475654E+02 -0.25370142129E+02 -0.59664829352E+02  0.11426033665E+03  0.00000000000E+00 0.  1.
         21    1    1    2  505  504  0.39489032899E+02  0.26194563259E+02  0.40424695450E+02  0.62287196644E+02  0.00000000000E+00 0.  1.
         21    1    1    2  506  502 -0.66681801574E+02  0.11311108686E+02 -0.26919615843E+02  0.72794708310E+02  0.00000000000E+00 0.  1.
<scales pt_clust_3="137.61782" pt_clust_4="31.71602" pt_clust_5="47.38712" pt_clust_6="31.71602"></scales>
<clustering>
<clus scale="   31.716">  4  6 -1 -1</clus>
<clus scale="   47.387">  1  5  2 -1</clus>
<clus scale="  137.618">  2  3  1 -1</clus>
<clus scale="   47.387">  1  3  2 -1</clus>
</clustering>
</event>
<event>
 6    0  0.6687079E+002  0.8549950E+02  0.7546771E-02  0.1314131E+00
         21   -1    0    0  505  501  0.00000000000E+00  0.00000000000E+00  0.40618968225E+02  0.40618968225E+02  0.00000000000E+00 0. -1.
         21   -1    0    0  506  502 -0.00000000000E+00 -0.00000000000E+00 -0.68772402409E+03  0.68772402409E+03  0.00000000000E+00 0.  1.
         21    1    1    2  503  501  0.54235615676E+02 -0.40711435790E+02 -0.86221455040E+02  0.10969531586E+03  0.00000000000E+00 0. -1.
         21    1    1    2  504  503 -0.62318050682E+02  0.91537113176E+02 -0.10075950453E+03  0.14971659989E+03  0.00000000000E+00 0. -1.
         21    1    1    2  505  502  0.36233532935E+02 -0.39315500704E+02 -0.36929904986E+03  0.37314925397E+03  0.00000000000E+00 0.  1.
         21    1    1    2  506  504 -0.28151097929E+02 -0.11510176682E+02 -0.90825046428E+02  0.95781822599E+02  0.00000000000E+00 0. -1.
<scales pt_clust_3="85.49950" pt_clust_4="14000.00000" pt_clust_5="50.10515" pt_clust_6="30.41329"></scales>
<clustering>
<clus scale="   30.413">  2  6  1 -1</clus>
<clus scale="   50.105">  2  5  1 -1</clus>
<clus scale="   85.499">  1  3  2 -1</clus>
<clus scale="   85.499">  1  3  2 -1</clus>
</clustering>
</event>
<event>
 6    0  0.6687079E+002  0.1048317E+03  0.7546771E-02  0.1270452E+00
         21   -1    0    0  504  501  0.00000000000E+00  0.00000000000E+00  0.41442448877E+03  0.41442448877E+03  0.00000000000E+00 0.  1.
         21   -1    0    0  506  502 -0.00000000000E+00 -0.00000000000E+00 -0.57202087850E+03  0.57202087850E+03  0.00000000000E+00 0.  1.
         21    1    1    2  503  505  0.60031668047E+02  0.62091132270E+01 -0.12541738346E+03  0.13918288088E+03  0.00000000000E+00 0.  1.
         21    1    1    2  504  503 -0.10547566897E+03  0.20110684897E+02  0.39491745873E+03  0.40925463418E+03  0.00000000000E+00 0.  1.
         21    1    1    2  505  502  0.86494201536E+01  0.29010074731E+02 -0.15366709987E+03  0.15662047914E+03  0.00000000000E+00 0.  1.
         21    1    1    2  506  501  0.36794580766E+02 -0.55329872855E+02 -0.27342936513E+03  0.28138737306E+03  0.00000000000E+00 0.  1.
<scales pt_clust_3="14000.00000" pt_clust_4="104.83174" pt_clust_5="30.27205" pt_clust_6="55.75256"></scales>
<clustering>
<clus scale="   30.272">  2  5  1 -1</clus>
<clus scale="   55.753">  2  6  1 -1</clus>
<clus scale="  104.832">  1  4  2 -1</clus>
<clus scale="  104.832">  1  3  2 -1</clus>
</clustering>
</event>
<event>
 6    0  0.6687079E+002  0.9010066E+02  0.7546771E-02  0.1302608E+00
         21   -1    0    0  506  501  0.00000000000E+00  0.00000000000E+00  0.45989422350E+02  0.45989422350E+02  0.00000000000E+00 0. -1.
         21   -1    0    0  505  502 -0.00000000000E+00 -0.00000000000E+00 -0.40175093850E+03  0.40175093850E+03  0.00000000000E+00 0.  1.
         21    1    1    2  503  502  0.26591390637E+02 -0.19053475403E+02 -0.45249278158E+02  0.55835778447E+02  0.00000000000E+00 0.  1.
         21    1    1    2  504  501 -0.82195991139E+02 -0.48796496168E+01 -0.10004312284E+03  0.12957090093E+03  0.00000000000E+00 0. -1.
         21    1    1    2  505  504 -0.37129480420E+02 -0.12076618670E+02 -0.12573558711E+03  0.13165819724E+03  0.00000000000E+00 0.  1.
         21    1    1    2  506  503  0.92734080922E+02  0.36009743691E+02 -0.84733528043E+02  0.13067548423E+03  0.00000000000E+00 0.  1.
<scales pt_clust_3="32.71295" pt_clust_4="90.10066" pt_clust_5="33.36443" pt_clust_6="14000.00000"></scales>
<clustering>
<clus scale="   32.713">  2  3  1 -1</clus>
<clus scale="   33.364">  2  5  1 -1</clus>
<clus scale="   90.101">  2  4  1 -1</clus>
<clus scale="   90.101">  1  3  2 -1</clus>
</clustering>
</event>
<event>
 6    0  0.6687079E+002  0.1061357E+03  0.7546771E-02  0.1267898E+00
         21   -1    0    0  506  501  0.00000000000E+00  0.00000000000E+00  0.59293058654E+03  0.59293058654E+03  0.00000000000E+00 0.  1.
         21   -1    0    0  503  502 -0.00000000000E+00 -0.00000000000E+00 -0.14915555546E+04  0.14915555546E+04  0.00000000000E+00 0. -1.
         21    1    1    2  503  501 -0.43458309093E+02 -0.26775987985E+02 -0.31335122258E+03  0.31748160081E+03  0.00000000000E+00 0.  1.
         21    1    1    2  504  505  0.17478296660E+02 -0.31265887435E+02 -0.29409639819E+03  0.29626970483E+03  0.00000000000E+00 0. -1.
         21    1    1    2  505  502  0.90119189790E+02 -0.61497627581E+01 -0.87512710589E+03  0.87977652811E+03  0.00000000000E+00 0. -1.
         21    1    1    2  506  504 -0.64139177358E+02  0.64191638178E+02  0.58394975861E+03  0.59095830738E+03  0.00000000000E+00 0.  1.
<scales pt_clust_3="51.04486" pt_clust_4="34.62882" pt_clust_5="34.62882" pt_clust_6="90.77880"></scales>
<clustering>
<clus scale="   34.629">  4  5 -1 -1</clus>
<clus scale="   51.045">  2  3  1 -1</clus>
<clus scale="   90.779">  1  6  2 -1</clus>
<clus scale="   90.779">  1  3  2 -1</clus>
</clustering>
</event>
<event>
 6    0  0.6687079E+002  0.1468447E+03  0.7546771E-02  0.1204405E+00
         21   -1    0    0  505  501  0.00000000000E+00  0.00000000000E+00  0.20882709669E+03  0.20882709669E+03  0.00000000000E+00 0.  1.
         21   -1    0    0  506  502 -0.00000000000E+00 -0.00000000000E+00 -0.78486843155E+03  0.78486843155E+03  0.00000000000E+00 0.  1.
         21    1    1    2  503  502 -0.15056153209E+02 -0.36604723815E+02 -0.34854305050E+03  0.35078319744E+03  0.00000000000E+00 0.  1.
         21    1    1    2  504  501  0.58386259868E+02 -0.17152382522E+02  0.17366383865E+02  0.63283100873E+02  0.00000000000E+00 0.  1.
         21    1    1    2  505  503 -0.13821092308E+03 -0.96331192717E+02  0.97001908012E+02  0.19439991797E+03  0.00000000000E+00 0.  1.
         21    1    1    2  506  504  0.94880816416E+02  0.15008829905E+03 -0.34186657623E+03  0.38522931195E+03  0.00000000000E+00 0.  1.
<scales pt_clust_3="39.58022" pt_clust_4="60.67137" pt_clust_5="14000.00000" pt_clust_6="146.84472"></scales>
<clustering>
<clus scale="   39.580">  2  3  1 -1</clus>
<clus scale="   60.671">  1  4  2 -1</clus>
<clus scale="  146.845">  2  6  1 -1</clus>
<clus scale="   60.671">  1  3  2 -1</clus>
</clustering>
</event>
<event>
 6    0  0.6687079E+002  0.1828572E+03  0.7546771E-02  0.1165066E+00
         21   -1    0    0  503  501  0.00000000000E+00  0.00000000000E+00  0.52840778266E+03  0.52840778266E+03  0.00000000000E+00 0. -1.
         21   -1    0    0  505  502 -0.00000000000E+00 -0.00000000000E+00 -0.92384897602E+03  0.92384897602E+03  0.00000000000E+00 0. -1.
         21    1    1    2  503  506 -0.74961886238E+02 -0.14543620505E+03  0.33459650622E+03  0.37245912004E+03  0.00000000000E+00 0. -1.
         21    1    1    2  504  502  0.77049026225E+02  0.14430761947E+03  0.10062390334E+03  0.19205835416E+03  0.00000000000E+00 0. -1.
         21    1    1    2  505  501  0.32705162965E+01 -0.44163937154E+02 -0.84001519953E+03  0.84118171941E+03  0.00000000000E+00 0. -1.
         21    1    1    2  506  504 -0.53576562835E+01  0.45292522731E+02  0.93535966208E+01  0.46557565077E+02  0.00000000000E+00 0. -1.
<scales pt_clust_3="172.28495" pt_clust_4="32.35412" pt_clust_5="44.28487" pt_clust_6="32.35412"></scales>
<clustering>
<clus scale="   32.354">  4  6 -1 -1</clus>
<clus scale="   44.285">  2  5  1 -1</clus>
<clus scale="  172.285">  1  3  2 -1</clus>
<clus scale="  172.285">  1  3  2 -1</clus>
</clustering>
</event>
<event>
 6    0  0.6687079E+002  0.2653500E+03  0.7546771E-02  0.1103971E+00
         21   -1    0    0  506  501  0.00000000000E+00  0.00000000000E+00  0.10251557689E+04  0.10251557689E+04  0.00000000000E+00 0.  1.
         21   -1    0    0  505  502 -0.00000000000E+00 -0.00000000000E+00 -0.73006765172E+03  0.73006765172E+03  0.00000000000E+00 0.  1.
         21    1    1    2  503  502  0.56097866672E+02 -0.31398297333E+02 -0.89194609857E+02  0.10994772462E+03  0.00000000000E+00 0.  1.
         21    1    1    2  504  503 -0.27014796506E+03  0.60749835094E+02 -0.54668642373E+03  0.61281033883E+03  0.00000000000E+00 0.  1.
         21    1    1    2  505  501 -0.51059552216E+02 -0.24321881088E+02 -0.76868674701E+01  0.57076437377E+02  0.00000000000E+00 0. -1.
         21    1    1    2  506  504  0.26510965061E+03 -0.50296566730E+01  0.93865601828E+03  0.97538891984E+03  0.00000000000E+00 0.  1.
<scales pt_clust_3="59.98645" pt_clust_4="14000.00000" pt_clust_5="56.55645" pt_clust_6="265.34999"></scales>
<clustering>
<clus scale="   56.556">  2  5  1 -1</clus>
<clus scale="   59.986">  2  3  1 -1</clus>
<clus scale="  265.350">  1  6  2 -1</clus>
<clus scale="  265.350">  1  3  2 -1</clus>
</clustering>
</event>
<event>
 6    0  0.6687079E+002  0.1671388E+03  0.7546771E-02  0.1180865E+00
         21   -1    0    0  506  501  0.00000000000E+00  0.00000000000E+00  0.61048707669E+03  0.61048707669E+03  0.00000000000E+00 0. -1.
         21   -1    0    0  503  502 -0.00000000000E+00 -0.00000000000E+00 -0.53316312319E+03  0.53316312319E+03  0.00000000000E+00 0. -1.
         21    1    1    2  503  501 -0.90097462222E+02  0.12737898562E+03 -0.48764855971E+03  0.51200007468E+03  0.00000000000E+00 0. -1.
         21    1    1    2  504  505  0.45312048495E+02 -0.47817237973E+02  0.32221357605E+03  0.32887879010E+03  0.00000000000E+00 0. -1.
         21    1    1    2  505  502 -0.26649405813E+02 -0.17330645285E+02 -0.96064731839E+01  0.33208830500E+02  0.00000000000E+00 0. -1.
         21    1    1    2  506  504  0.71434819539E+02 -0.62231102363E+02  0.25236541035E+03  0.26956250460E+03  0.00000000000E+00 0. -1.
<scales pt_clust_3="160.26502" pt_clust_4="39.57743" pt_clust_5="31.78902" pt_clust_6="39.57743"></scales>
<clustering>
<clus scale="   31.789">  2  5  1 -1</clus>
<clus scale="   39.577">  4  6 -1 -1</clus>
<clus scale="  160.265">  2  3  1 -1</clus>
<clus scale="  167.139">  1  3  2 -1</clus>
</clustering>
</event>
<event>
 6    0  0.6687079E+002  0.1193045E+03  0.7546771E-02  0.1244249E+00
         21   -1    0    0  504  501  0.00000000000E+00  0.00000000000E+00  0.53778471686E+03  0.53778471686E+03  0.00000000000E+00 0.  1.
         21   -1    0    0  505  502 -0.00000000000E+00 -0.00000000000E+00 -0.10108602405E+04  0.10108602405E+04  0.00000000000E+00 0.  1.
         21    1    1    2  503  501 -0.77234580144E+02 -0.56524248464E+02  0.51615752855E+03  0.52495596512E+03  0.00000000000E+00 0.  1.
         21    1    1    2  504  502 -0.27822425778E+02 -0.71000183976E+02 -0.19518350308E+03  0.20955121898E+03  0.00000000000E+00 0. -1.
         21    1    1    2  505  506  0.40220261411E+02  0.43239882887E+01 -0.18813980241E+03  0.19243947504E+03  0.00000000000E+00 0.  1.
         21    1    1    2  506  503  0.64836744511E+02  0.12320044415E+03 -0.60590974666E+03  0.62169829819E+03  0.00000000000E+00 0.  1.
<scales pt_clust_3="96.05937" pt_clust_4="76.25689" pt_clust_5="38.13928" pt_clust_6="38.13928"></scales>
<clustering>
<clus scale="   38.139">  5  6 -1 -1</clus>
<clus scale="   76.257">  2  4  1 -1</clus>
<clus scale="   96.059">  1  3  2 -1</clus>
<clus scale="   96.059">  1  3  2 -1</clus>
</clustering>
</event>
<event>
 6    0  0.6687079E+002  0.1356289E+03  0.7546771E-02  0.1219335E+00
         21   -1    0    0  506  501  0.00000000000E+00  0.00000000000E+00  0.28298474830E+03  0.28298474830E+03  0.00000000000E+00 0. -1.
         21   -1    0    0  503  502 -0.00000000000E+00 -0.00000000000E+00 -0.65354761099E+03  0.65354761099E+03  0.00000000000E+00 0. -1.
         21    1    1    2  503  504  0.13091006174E+02 -0.31576851198E+02 -0.69841175095E+02  0.77757711597E+02  0.00000000000E+00 0.  1.
         21    1    1    2  504  505  0.59615083699E+02 -0.14430766168E+02 -0.11017004675E+03  0.12609379215E+03  0.00000000000E+00 0.  1.
         21    1    1    2  505  501 -0.82576188934E+02  0.10439089949E+03  0.25263652518E+03  0.28555472458E+03  0.00000000000E+00 0. -1.
         21    1    1    2  506  502  0.98700990608E+01 -0.58383282124E+02 -0.44318816602E+03  0.44712613096E+03  0.00000000000E+00 0. -1.
<scales pt_clust_3="31.21614" pt_clust_4="31.21614" pt_clust_5="129.02198" pt_clust_6="59.21171"></scales>
<clustering>
<clus scale="   31.216">  3  4 -1 -1</clus>
<clus scale="   59.212">  2  6  1 -1</clus>
<clus scale="  129.022">  1  5  2 -1</clus>
<clus scale="  129.022">  1  3  2 -1</clus>
</clustering>
</event>
<event>
 6    0  0.6687079E+002  0.9192445E+02  0.7546771E-02  0.1298257E+00
         21   -1    0    0  504  501  0.00000000000E+00  0.00000000000E+00  0.46578823456E+02  0.46578823456E+02  0.00000000000E+00 0. -1.
         21   -1    0    0  505  502 -0.00000000000E+00 -0.00000000000E+00 -0.20073544838E+04  0.20073544838E+04  0.00000000000E+00 0. -1.
         21    1    1    2  503  501 -0.46796389120E+02  0.36200372569E+02 -0.12051556905E+02  0.60378879028E+02  0.00000000000E+00 0. -1.
         21    1    1    2  504  502 -0.68050413197E+02  0.26912925133E+02 -0.17396284572E+04  0.17411669458E+04  0.00000000000E+00 0. -1.
         21    1    1    2  505  506  0.76202363891E+02 -0.48524592295E+02 -0.18141347955E+03  0.20266298844E+03  0.00000000000E+00 0. -1.
         21    1    1    2  506  503  0.38644438426E+02 -0.14588705407E+02 -0.27682166761E+02  0.49724493998E+02  0.00000000000E+00 0. -1.
<scales pt_clust_3="59.16392" pt_clust_4="75.13141" pt_clust_5="35.81482" pt_clust_6="35.81482"></scales>
<clustering>
<clus scale="   35.815">  5  6 -1 -1</clus>
<clus scale="   59.164">  1  3  2 -1</clus>
<clus scale="   75.131">  2  4  1 -1</clus>
<clus scale="   59.164">  1  3  2 -1</clus>
</clustering>
</event>
<event>
 6    0  0.6687079E+002  0.7944847E+02  0.7546771E-02  0.1330624E+00
         21   -1    0    0  504  501  0.00000000000E+00  0.00000000000E+00  0.46790057629E+03  0.46790057629E+03  0.00000000000E+00 0. -1.
         21   -1    0    0  506  502 -0.00000000000E+00 -0.00000000000E+00 -0.50050078279E+02  0.50050078279E+02  0.00000000000E+00 0. -1.
         21    1    1    2  503  501  0.66878202324E+02  0.28444239794E+02  0.22034281018E+03  0.23201879821E+03  0.00000000000E+00 0. -1.
         21    1    1    2  504  505 -0.78382526800E+02 -0.54310098127E+02  0.16701866568E+03  0.19232431451E+03  0.00000000000E+00 0. -1.
         21    1    1    2  505  502 -0.33712171823E+02 -0.43715608956E+01  0.94294868642E+01  0.35277986000E+02  0.00000000000E+00 0. -1.
         21    1    1    2  506  503  0.45216496298E+02  0.30237419229E+02  0.21059535282E+02  0.58329555848E+02  0.00000000000E+00 0. -1.
<scales pt_clust_3="79.44847" pt_clust_4="14000.00000" pt_clust_5="33.99443" pt_clust_6="39.83745"></scales>
<clustering>
<clus scale="   33.994">  2  5  1 -1</clus>
<clus scale="   39.837">  2  6  1 -1</clus>
<clus scale="   79.448">  1  3  2 -1</clus>
<clus scale="   79.448">  1  3  2 -1</clus>
</clustering>
</event>
<event>
 6    0  0.6687079E+002  0.7302422E+02  0.7546771E-02  0.1350101E+00
         21   -1    0    0  506  501  0.00000000000E+00  0.00000000000E+00  0.12120623741E+03  0.12120623741E+03  0.00000000000E+00 0. -1.
         21   -1    0    0  503  502 -0.00000000000E+00 -0.00000000000E+00 -0.31478634625E+03  0.31478634625E+03  0.00000000000E+00 0. -1.
         21    1    1    2  503  504 -0.63527249023E+02  0.21408276477E+02 -0.10600146027E+03  0.12542063327E+03  0.00000000000E+00 0. -1.
         21    1    1    2  504  505  0.75444810541E+02 -0.65151972252E+02 -0.94662856983E+02  0.13746910714E+03  0.00000000000E+00 0. -1.
         21    1    1    2  505  501 -0.48633465769E+02  0.17732810073E+02  0.75304038904E+02  0.91380330602E+02  0.00000000000E+00 0. -1.
         21    1    1    2  506  502  0.36715904251E+02  0.26010885702E+02 -0.68219830500E+02  0.81722512647E+02  0.00000000000E+00 0. -1.
<scales pt_clust_3="73.02422" pt_clust_4="14000.00000" pt_clust_5="50.92308" pt_clust_6="44.99582"></scales>
<clustering>
<clus scale="   44.996">  2  6  1 -1</clus>
<clus scale="   50.923">  1  5  2 -1</clus>
<clus scale="   73.024">  2  3  1 -1</clus>
<clus scale="   50.923">  1  3  2 -1</clus>
</clustering>
</event>
<event>
 6    0  0.6687079E+002  0.1077982E+03  0.7546771E-02  0.1264702E+00
         21   -1    0    0  504  501  0.00000000000E+00  0.00000000000E+00  0.37019338505E+03  0.37019338505E+03  0.00000000000E+00 0.  1.
         21   -1    0    0  503  502 -0.00000000000E+00 -0.00000000000E+00 -0.20518968870E+03  0.20518968870E+03  0.00000000000E+00 0. -1.
         21    1    1    2  503  501 -0.57385627686E+02 -0.49074524357E+01  0.50717389881E+02  0.76742732494E+02  0.00000000000E+00 0.  1.
         21    1    1    2  504  506  0.78136260526E+02  0.78527627742E+01  0.18389462416E+03  0.19996043081E+03  0.00000000000E+00 0.  1.
         21    1    1    2  505  502 -0.10790135533E+03 -0.27122771098E+02 -0.14371939745E+03  0.18175151278E+03  0.00000000000E+00 0. -1.
         21    1    1    2  506  505  0.87150722486E+02  0.24177460760E+02  0.74111079754E+02  0.11692839767E+03  0.00000000000E+00 0.  1.
<scales pt_clust_3="57.59508" pt_clust_4="42.46740" pt_clust_5="14000.00000" pt_clust_6="107.79820"></scales>
<clustering>
<clus scale="   57.595">  1  3  2 -1</clus>
<clus scale="   42.467">  1  4  2 -1</clus>
<clus scale="  107.798">  1  6  2 -1</clus>
<clus scale="   57.595">  1  3  2 -1</clus>
</clustering>
</event>
<event>
 6    0  0.6687079E+002  0.1032489E+03  0.7546771E-02  0.1273609E+00
         21   -1    0    0  504  501  0.00000000000E+00  0.00000000000E+00  0.89567574197E+03  0.89567574197E+03  0.00000000000E+00 0. -1.
         21   -1    0    0  505  502 -0.00000000000E+00 -0.00000000000E+00 -0.28886716249E+03  0.28886716249E+03  0.00000000000E+00 0.  1.
         21    1    1    2  503  501  0.35632718817E+02 -0.25963155388E+01  0.79933079197E+03  0.80012883118E+03  0.00000000000E+00 0. -1.
         21    1    1    2  504  506 -0.92649572470E+02 -0.89074745671E+02  0.65400372411E+01  0.12868964870E+03  0.00000000000E+00 0.  1.
         21    1    1    2  505  503  0.25214557481E+02  0.83008300322E+02 -0.44144551811E+02  0.97339063515E+02  0.00000000000E+00 0.  1.
         21    1    1    2  506  502  0.31802296172E+02  0.86627608881E+01 -0.15491769792E+03  0.15838536105E+03  0.00000000000E+00 0.  1.
<scales pt_clust_3="35.82102" pt_clust_4="14000.00000" pt_clust_5="103.24887" pt_clust_6="32.96103"></scales>
<clustering>
<clus scale="   32.961">  2  6  1 -1</clus>
<clus scale="   35.821">  1  3  2 -1</clus>
<clus scale="  103.249">  2  5  1 -1</clus>
<clus scale="   35.821">  1  3  2 -1</clus>
</clustering>
</event>
<event>
 6    0  0.6687079E+002  0.1019013E+03  0.7546771E-02  0.1276348E+00
         21   -1    0    0  503  501  0.00000000000E+00  0.00000000000E+00  0.15976954695E+03  0.15976954695E+03  0.00000000000E+00 0. -1.
         21   -1    0    0  504  502 -0.00000000000E+00 -0.00000000000E+00 -0.43136914763E+03  0.43136914763E+03  0.00000000000E+00 0.  1.
         21    1    1    2  503  506  0.11324523290E+03  0.21627223550E+02 -0.18135137338E+03  0.21489658024E+03  0.00000000000E+00 0.  1.
         21    1    1    2  504  505  0.82209594562E+01 -0.42835504159E+02 -0.77989801933E+02  0.89358121044E+02  0.00000000000E+00 0.  1.
         21    1    1    2  505  501 -0.98686548528E+02 -0.19613115606E+02  0.11411712554E+03  0.15213950015E+03  0.00000000000E+00 0. -1.
         21    1    1    2  506  502 -0.22779643826E+02  0.40821396215E+02 -0.12637555092E+03  0.13474449314E+03  0.00000000000E+00 0.  1.
<scales pt_clust_3="14000.00000" pt_clust_4="43.61725" pt_clust_5="101.90128" pt_clust_6="31.61804"></scales>
<clustering>
<clus scale="   43.617">  2  4  1 -1</clus>
<clus scale="   31.618">  2  6  1 -1</clus>
<clus scale="  101.901">  1  5  2 -1</clus>
<clus scale="  101.901">  1  3  2 -1</clus>
</clustering>
</event>
<event>
 6    0  0.6687079E+002  0.1012615E+03  0.7546771E-02  0.1277665E+00
         21   -1    0    0  506  501  0.00000000000E+00  0.00000000000E+00  0.60414298299E+03  0.60414298299E+03  0.00000000000E+00 0.  1.
         21   -1    0    0  505  502 -0.00000000000E+00 -0.00000000000E+00 -0.58824302054E+03  0.58824302054E+03  0.00000000000E+00 0.  1.
         21    1    1    2  503  501 -0.12197960376E+03 -0.44981731180E+02 -0.15508386602E+03  0.20236942796E+03  0.00000000000E+00 0.  1.
         21    1    1    2  504  502  0.32955354740E+02 -0.33455696482E+02 -0.38346960070E+03  0.38633440656E+03  0.00000000000E+00 0.  1.
         21    1    1    2  505  503 -0.32529371445E+01  0.38519635115E+02 -0.15243334534E+01  0.38686786917E+02  0.00000000000E+00 0. -1.
         21    1    1    2  506  504  0.92277186163E+02  0.39917792547E+02  0.55597776263E+03  0.56499538209E+03  0.00000000000E+00 0.  1.
<scales pt_clust_3="14000.00000" pt_clust_4="31.61991" pt_clust_5="38.65674" pt_clust_6="101.26151"></scales>
<clustering>
<clus scale="   38.657">  2  5  1 -1</clus>
<clus scale="   31.620">  2  4  1 -1</clus>
<clus scale="  101.262">  1  6  2 -1</clus>
<clus scale="  101.262">  1  3  2 -1</clus>
</clustering>
</event>
<event>
 6    0  0.6687079E+002  0.1486521E+03  0.7546771E-02  0.1202139E+00
         21   -1    0    0  502  501  0.00000000000E+00  0.00000000000E+00  0.26738355104E+03  0.26738355104E+03  0.00000000000E+00 0. -1.
         21   -1    0    0  506  502 -0.00000000000E+00 -0.00000000000E+00 -0.13320756868E+03  0.13320756868E+03  0.00000000000E+00 0. -1.
         21    1    1    2  503  505 -0.51840732186E+02  0.29373841261E+02  0.96971706527E+02  0.11381474391E+03  0.00000000000E+00 0. -1.
         21    1    1    2  504  501 -0.42201662322E+01  0.39077126403E+02  0.74979004748E+02  0.84656262402E+02  0.00000000000E+00 0. -1.
         21    1    1    2  505  504 -0.27278360526E+02  0.33507021089E+02  0.31362447085E+02  0.53389441863E+02  0.00000000000E+00 0. -1.
         21    1    1    2  506  503  0.83339258944E+02 -0.10195798875E+03 -0.69137176007E+02  0.14873067155E+03  0.00000000000E+00 0. -1.
<scales pt_clust_3="33.35466" pt_clust_4="33.35466" pt_clust_5="30.39154" pt_clust_6="131.68471"></scales>
<clustering>
<clus scale="   30.392">  3  5 -1 -1</clus>
<clus scale="   33.355">  3  4 -1 -1</clus>
<clus scale="  131.685">  2  6  1 -1</clus>
<clus scale="  148.652">  1  3  2 -1</clus>
</clustering>
</event>
<event>
 6    0  0.6687079E+002  0.7079400E+02  0.7546771E-02  0.1357414E+00
         21   -1    0    0  505  501  0.00000000000E+00  0.00000000000E+00  0.65396858729E+02  0.65396858729E+02  0.00000000000E+00 0.  1.
         21   -1    0    0  503  502 -0.00000000000E+00 -0.00000000000E+00 -0.37534069638E+03  0.37534069638E+03  0.00000000000E+00 0.  1.
         21    1    1    2  503  504  0.53444733933E+02  0.33830904742E+02 -0.10964417448E+03  0.12658086229E+03  0.00000000000E+00 0.  1.
         21    1    1    2  504  501  0.57273023888E+02 -0.94556948205E+01  0.15201463058E+02  0.60005782295E+02  0.00000000000E+00 0.  1.
         21    1    1    2  505  506 -0.76445295478E+02 -0.47704792139E+02 -0.12022733882E+03  0.15024727417E+03  0.00000000000E+00 0.  1.
         21    1    1    2  506  502 -0.34272462342E+02  0.23329582218E+02 -0.95273787407E+02  0.10390363636E+03  0.00000000000E+00 0.  1.
<scales pt_clust_3="14000.00000" pt_clust_4="55.01073" pt_clust_5="70.79400" pt_clust_6="41.45927"></scales>
<clustering>
<clus scale="   41.459">  2  6  1 -1</clus>
<clus scale="   55.011">  1  4  2 -1</clus>
<clus scale="   70.794">  1  5  2 -1</clus>
<clus scale="   55.011">  1  3  2 -1</clus>
</clustering>
</event>
<event>
 6    0  0.6687079E+002  0.1307020E+03  0.7546771E-02  0.1226418E+00
         21   -1    0    0  505  501  0.00000000000E+00  0.00000000000E+00  0.20838811387E+03  0.20838811387E+03  0.00000000000E+00 0.  1.
         21   -1    0    0  504  502 -0.00000000000E+00 -0.00000000000E+00 -0.81581720014E+03  0.81581720014E+03  0.00000000000E+00 0. -1.
         21    1    1    2  503  502 -0.53188798088E+02  0.62028698451E+02 -0.68971544429E+03  0.69453869710E+03  0.00000000000E+00 0. -1.
         21    1    1    2  504  506 -0.29942036787E+02  0.48710350535E+02 -0.55610749757E+02  0.79760762939E+02  0.00000000000E+00 0. -1.
         21    1    1    2  505  503  0.32795884129E+02 -0.98548699135E+02  0.16227353472E+03  0.19266581478E+03  0.00000000000E+00 0.  1.
         21    1    1    2  506  501  0.50334950747E+02 -0.12190349850E+02 -0.24376426932E+02  0.57240039187E+02  0.00000000000E+00 0.  1.
<scales pt_clust_3="130.70202" pt_clust_4="54.91375" pt_clust_5="14000.00000" pt_clust_6="51.79008"></scales>
<clustering>
<clus scale="   51.790">  1  6  2 -1</clus>
<clus scale="   54.914">  2  4  1 -1</clus>
<clus scale="  130.702">  2  3  1 -1</clus>
<clus scale="   51.790">  1  3  2 -1</clus>
</clustering>
</event>
<event>
 6    0  0.6687079E+002  0.1140926E+03  0.7546771E-02  0.1253173E+00
         21   -1    0    0  505  501  0.00000000000E+00  0.00000000000E+00  0.23196899384E+03  0.23196899384E+03  0.00000000000E+00 0.  1.
         21   -1    0    0  504  502 -0.00000000000E+00 -0.00000000000E+00 -0.43243415630E+03  0.43243415630E+03  0.00000000000E+00 0. -1.
         21    1    1    2  503  502  0.58277650436E+01  0.32783744617E+02 -0.47675401496E+02  0.58152219772E+02  0.00000000000E+00 0. -1.
         21    1    1    2  504  506  0.82490190525E+02  0.37187013131E+02 -0.27321260237E+03  0.28780658709E+03  0.00000000000E+00 0. -1.
         21    1    1    2  505  503  0.11418788425E+02  0.46630010320E+02  0.15405660278E+03  0.16136351338E+03  0.00000000000E+00 0.  1.
         21    1    1    2  506  501 -0.99736743994E+02 -0.11660076807E+03 -0.33633761364E+02  0.15708082989E+03  0.00000000000E+00 0.  1.
<scales pt_clust_3="33.29770" pt_clust_4="14000.00000" pt_clust_5="48.32766" pt_clust_6="114.09264"></scales>
<clustering>
<clus scale="   33.298">  2  3  1 -1</clus>
<clus scale="   48.328">  1  5  2 -1</clus>
<clus scale="  114.093">  1  6  2 -1</clus>
<clus scale="   48.328">  1  3  2 -1</clus>
</clustering>
</event>
<event>
 6    0  0.6687079E+002  0.8082458E+02  0.7546771E-02  0.1326728E+00
         21   -1    0    0  503  501  0.00000000000E+00  0.00000000000E+00  0.19547851262E+04  0.19547851262E+04  0.00000000000E+00 0.  1.
         21   -1    0    0  504  502 -0.00000000000E+00 -0.00000000000E+00 -0.26216692445E+03  0.26216692445E+03  0.00000000000E+00 0.  1.
         21    1    1    2  503  505  0.41587954493E+02  0.34254147317E+02  0.18922040673E+04  0.18929709815E+04  0.00000000000E+00 0.  1.
         21    1    1    2  504  501 -0.60417080087E+02 -0.11381503716E+03 -0.14316832899E+03  0.19261686498E+03  0.00000000000E+00 0.  1.
         21    1    1    2  505  506 -0.29622792812E+02  0.58735783972E+02 -0.34137551923E+02  0.74113255387E+02  0.00000000000E+00 0.  1.
         21    1    1    2  506  502  0.48451918406E+02  0.20825105869E+02 -0.22279984550E+02  0.57250948842E+02  0.00000000000E+00 0.  1.
<scales pt_clust_3="53.96593" pt_clust_4="14000.00000" pt_clust_5="80.82458" pt_clust_6="52.73778"></scales>
<clustering>
<clus scale="   52.738">  2  6  1 -1</clus>
<clus scale="   53.966">  1  3  2 -1</clus>
<clus scale="   80.825">  1  5  2 -1</clus>
<clus scale="   53.966">  1  3  2 -1</clus>
</clustering>
</event>
<event>
 6    0  0.6687079E+002  0.1465989E+03  0.7546771E-02  0.1204716E+00
         21   -1    0    0  504  501  0.00000000000E+00  0.00000000000E+00  0.18558191486E+03  0.18558191486E+03  0.00000000000E+00 0. -1.
         21   -1    0    0  505  502 -0.00000000000E+00 -0.00000000000E+00 -0.97050102248E+03  0.97050102248E+03  0.00000000000E+00 0.  1.
         21    1    1    2  503  502 -0.15126762113E+02  0.13706248956E+03 -0.40516061556E+02  0.14372368009E+03  0.00000000000E+00 0.  1.
         21    1    1    2  504  503  0.26434464732E+01  0.68107515709E+02  0.47170190026E+02  0.82889374062E+02  0.00000000000E+00 0. -1.
         21    1    1    2  505  506 -0.26975326484E+02 -0.36885949124E+02 -0.75039394497E+03  0.75178408744E+03  0.00000000000E+00 0.  1.
         21    1    1    2  506  501  0.39458642123E+02 -0.16828405614E+03 -0.41179291118E+02  0.17768579574E+03  0.00000000000E+00 0.  1.
<scales pt_clust_3="14000.00000" pt_clust_4="65.10663" pt_clust_5="45.69728" pt_clust_6="146.59895"></scales>
<clustering>
<clus scale="   45.697">  2  5  1 -1</clus>
<clus scale="   65.107">  1  4  2 -1</clus>
<clus scale="  146.599">  1  6  2 -1</clus>
<clus scale="   65.107">  1  3  2 -1</clus>
</clustering>
</event>
<event>
 6    0  0.6687079E+002  0.9695816E+02  0.7546771E-02  0.1286826E+00
         21   -1    0    0  506  501  0.00000000000E+00  0.00000000000E+00  0.16466429687E+03  0.16466429687E+03  0.00000000000E+00 0.  1.
         21   -1    0    0  503  502 -0.00000000000E+00 -0.00000000000E+00 -0.66002559857E+03  0.66002559857E+03  0.00000000000E+00 0.  1.
         21    1    1    2  503  505  0.71633286164E+01 -0.34268020306E+02 -0.82277172382E+02  0.89415566809E+02  0.00000000000E+00 0.  1.
         21    1    1    2  504  502 -0.23397089174E+02 -0.78679763414E+02 -0.50586794656E+03  0.51248444689E+03  0.00000000000E+00 0.  1.
         21    1    1    2  505  501  0.32920237896E+02  0.16704248229E+02 -0.42265863245E+02  0.56117529952E+02  0.00000000000E+00 0.  1.
         21    1    1    2  506  504 -0.16686477338E+02  0.96243535491E+02  0.13504968048E+03  0.16667235178E+03  0.00000000000E+00 0.  1.
<scales pt_clust_3="35.00872" pt_clust_4="96.95816" pt_clust_5="36.25044" pt_clust_6="14000.00000"></scales>
<clustering>
<clus scale="   35.009">  2  3  1 -1</clus>
<clus scale="   36.250">  2  5  1 -1</clus>
<clus scale="   96.958">  2  4  1 -1</clus>
<clus scale="   96.958">  1  3  2 -1</clus>
</clustering>
</event>
<event>
 6    0  0.6687079E+002  0.1109122E+03  0.7546771E-02  0.1258890E+00
         21   -1    0    0  505  501  0.00000000000E+00  0.00000000000E+00  0.67587516733E+02  0.67587516733E+02  0.00000000000E+00 0. -1.
         21   -1    0    0  503  502 -0.00000000000E+00 -0.00000000000E+00 -0.27079479216E+04  0.27079479216E+04  0.00000000000E+00 0.  1.
         21    1    1    2  503  504 -0.50395210634E+02  0.41346919575E+01 -0.77567606779E+02  0.92593231685E+02  0.00000000000E+00 0.  1.
         21    1    1    2  504  501  0.45725960057E+02  0.61299140663E+01 -0.10584754444E+01  0.46147152023E+02  0.00000000000E+00 0.  1.
         21    1    1    2  505  506 -0.42196219713E+02 -0.11052515375E+03 -0.60068150162E+02  0.13268200041E+03  0.00000000000E+00 0. -1.
         21    1    1    2  506  502  0.46865470289E+02  0.10026054773E+03 -0.25016661724E+04  0.25041130542E+04  0.00000000000E+00 0.  1.
<scales pt_clust_3="43.07832" pt_clust_4="46.13501" pt_clust_5="110.91219" pt_clust_6="14000.00000"></scales>
<clustering>
<clus scale="   46.135">  1  4  2 -1</clus>
<clus scale="   43.078">  1  3  2 -1</clus>
<clus scale="  110.912">  1  5  2 -1</clus>
<clus scale="   46.135">  1  3  2 -1</clus>
</clustering>
</event>
<event>
 6    0  0.6687079E+002  0.1303795E+03  0.7546771E-02  0.1226894E+00
         21   -1    0    0  504  501  0.00000000000E+00  0.00000000000E+00  0.59251759163E+03  0.59251759163E+03  0.00000000000E+00 0.  1.
         21   -1    0    0  506  502 -0.00000000000E+00 -0.00000000000E+00 -0.11234397423E+03  0.11234397423E+03  0.00000000000E+00 0.  1.
         21    1    1    2  503  505  0.20766696856E+02 -0.57978068659E+02  0.14466667572E+03  0.15722963845E+03  0.00000000000E+00 0. -1.
         21    1    1    2  504  503  0.80954814091E+02 -0.30497297119E+02  0.25305524667E+03  0.26743358975E+03  0.00000000000E+00 0.  1.
         21    1    1    2  505  502 -0.45149404345E+02  0.11630890733E+02 -0.79536255328E+02  0.92194155149E+02  0.00000000000E+00 0.  1.
         21    1    1    2  506  501 -0.56572106602E+02  0.76844475045E+02  0.16198795033E+03  0.18800418251E+03  0.00000000000E+00 0.  1.
<scales pt_clust_3="54.97317" pt_clust_4="54.97317" pt_clust_5="46.62345" pt_clust_6="114.09571"></scales>
<clustering>
<clus scale="   46.623">  2  5  1 -1</clus>
<clus scale="   54.973">  3  4 -1 -1</clus>
<clus scale="  114.096">  2  6  1 -1</clus>
<clus scale="  130.379">  1  3  2 -1</clus>
</clustering>
</event>
<event>
 6    0  0.6687079E+002  0.1432340E+03  0.7546771E-02  0.1209042E+00
         21   -1    0    0  503  501  0.00000000000E+00  0.00000000000E+00  0.26696522409E+03  0.26696522409E+03  0.00000000000E+00 0.  1.
         21   -1    0    0  505  502 -0.00000000000E+00 -0.00000000000E+00 -0.29896646989E+03  0.29896646989E+03  0.00000000000E+00 0.  1.
         21    1    1    2  503  502  0.41008958510E+02 -0.37797746564E+02 -0.53481101719E+01  0.56026838263E+02  0.00000000000E+00 0.  1.
         21    1    1    2  504  506 -0.36982749618E+02 -0.10565074870E+03  0.17257951141E+03  0.20570243613E+03  0.00000000000E+00 0.  1.
         21    1    1    2  505  504  0.10620602360E+02  0.17621089412E+03 -0.20192966203E+03  0.26821384157E+03  0.00000000000E+00 0.  1.
         21    1    1    2  506  501 -0.14646811252E+02 -0.32762398853E+02  0.26970149884E+01  0.35988578026E+02  0.00000000000E+00 0. -1.
<scales pt_clust_3="57.04737" pt_clust_4="14000.00000" pt_clust_5="143.23401" pt_clust_6="35.88738"></scales>
<clustering>
<clus scale="   35.887">  1  6  2 -1</clus>
<clus scale="   57.047">  2  3  1 -1</clus>
<clus scale="  143.234">  2  5  1 -1</clus>
<clus scale="   35.887">  1  3  2 -1</clus>
</clustering>
</event>
<event>
 6    0  0.6687079E+002  0.1352835E+03  0.7546771E-02  0.1219820E+00
         21   -1    0    0  503  501  0.00000000000E+00  0.00000000000E+00  0.29452100635E+03  0.29452100635E+03  0.00000000000E+00 0. -1.
         21   -1    0    0  505  502 -0.00000000000E+00 -0.00000000000E+00 -0.77282337120E+03  0.77282337120E+03  0.00000000000E+00 0. -1.
         21    1    1    2  503  504  0.27178740969E+01 -0.45645884505E+02 -0.29441122666E+02  0.54384862927E+02  0.00000000000E+00 0. -1.
         21    1    1    2  504  502 -0.46935417612E+02 -0.43453784901E+02 -0.38859371745E+02  0.74841269504E+02  0.00000000000E+00 0. -1.
         21    1    1    2  505  506 -0.13009769969E+02 -0.29556413993E+02 -0.65720859034E+03  0.65800149463E+03  0.00000000000E+00 0. -1.
         21    1    1    2  506  501  0.57227313485E+02  0.11865608340E+03  0.24720671990E+03  0.28011675048E+03  0.00000000000E+00 0. -1.
<scales pt_clust_3="39.14396" pt_clust_4="39.14396" pt_clust_5="32.29297" pt_clust_6="127.12639"></scales>
<clustering>
<clus scale="   32.293">  2  5  1 -1</clus>
<clus scale="   39.144">  3  4 -1 -1</clus>
<clus scale="  127.126">  1  6  2 -1</clus>
<clus scale="  127.126">  1  3  2 -1</clus>
</clustering>
</event>
<event>
 6    0  0.6687079E+002  0.3367762E+03  0.7546771E-02  0.1068177E+00
         21   -1    0    0  505  501  0.00000000000E+00  0.00000000000E+00  0.31486035605E+03  0.31486035605E+03  0.00000000000E+00 0.  1.
         21   -1    0    0  506  502 -0.00000000000E+00 -0.00000000000E+00 -0.98798352516E+03  0.98798352516E+03  0.00000000000E+00 0.  1.
         21    1    1    2  503  504  0.51476532585E+01 -0.84417560462E+02  0.10482410003E+02  0.85221498273E+02  0.00000000000E+00 0. -1.
         21    1    1    2  504  501 -0.10876681703E+03 -0.26532239969E+03  0.12898768142E+03  0.31442649097E+03  0.00000000000E+00 0.  1.
         21    1    1    2  505  502  0.26889266594E+02  0.37645398379E+02 -0.25072083022E+02  0.52619559331E+02  0.00000000000E+00 0.  1.
         21    1    1    2  506  503  0.76729897181E+02  0.31209456177E+03 -0.78752117752E+03  0.85057633264E+03  0.00000000000E+00 0.  1.
<scales pt_clust_3="46.11941" pt_clust_4="46.11941" pt_clust_5="46.26239" pt_clust_6="325.89349"></scales>
<clustering>
<clus scale="   46.119">  3  4 -1 -1</clus>
<clus scale="   46.262">  1  5  2 -1</clus>
<clus scale="  325.893">  2  6  1 -1</clus>
<clus scale="   46.262">  1  3  2 -1</clus>
</clustering>
</event>
<event>
 6    0  0.6687079E+002  0.1513573E+03  0.7546771E-02  0.1198815E+00
         21   -1    0    0  506  501  0.00000000000E+00  0.00000000000E+00  0.84944382595E+03  0.84944382595E+03  0.00000000000E+00 0.  1.
         21   -1    0    0  505  502 -0.00000000000E+00 -0.00000000000E+00 -0.33238745189E+03  0.33238745189E+03  0.00000000000E+00 0.  1.
         21    1    1    2  503  504 -0.47273245081E+02 -0.19210237427E+02 -0.11614808228E+03  0.12686279967E+03  0.00000000000E+00 0.  1.
         21    1    1    2  504  501  0.13338715532E+03 -0.50306731552E+02  0.81265439668E+03  0.82506367565E+03  0.00000000000E+00 0.  1.
         21    1    1    2  505  503 -0.55004642135E+02  0.34701796098E+02 -0.17034243070E+03  0.18233559445E+03  0.00000000000E+00 0.  1.
         21    1    1    2  506  502 -0.31109268100E+02  0.34815172881E+02 -0.91075096338E+01  0.47569208067E+02  0.00000000000E+00 0. -1.
<scales pt_clust_3="43.05652" pt_clust_4="141.71439" pt_clust_5="43.05652" pt_clust_6="46.68922"></scales>
<clustering>
<clus scale="   46.689">  2  6  1 -1</clus>
<clus scale="   43.057">  3  5 -1 -1</clus>
<clus scale="  141.714">  1  4  2 -1</clus>
<clus scale="  141.714">  1  3  2 -1</clus>
</clustering>
</event>
<event>
 6    0  0.6687079E+002  0.1226347E+03  0.7546771E-02  0.1238813E+00
         21   -1    0    0  503  501  0.00000000000E+00  0.00000000000E+00  0.29067199355E+04  0.29067199355E+04  0.00000000000E+00 0.  1.
         21   -1    0    0  504  502 -0.00000000000E+00 -0.00000000000E+00 -0.22031457039E+03  0.22031457039E+03  0.00000000000E+00 0. -1.
         21    1    1    2  503  505 -0.11109365571E+03  0.13153868310E+03  0.14751853452E+03  0.22672878846E+03  0.00000000000E+00 0. -1.
         21    1    1    2  504  506  0.21829469131E+02  0.24730197996E+02  0.14157102281E+02  0.35896127374E+02  0.00000000000E+00 0. -1.
         21    1    1    2  505  502 -0.91213781356E+01 -0.13609077784E+03 -0.14135665020E+03  0.19643218145E+03  0.00000000000E+00 0. -1.
         21    1    1    2  506  501  0.98385564716E+02 -0.20178103251E+02  0.26660863785E+04  0.26679774086E+04  0.00000000000E+00 0.  1.
<scales pt_clust_3="122.63467" pt_clust_4="32.98649" pt_clust_5="14000.00000" pt_clust_6="100.50763"></scales>
<clustering>
<clus scale="   32.986">  2  4  1 -1</clus>
<clus scale="  100.508">  1  6  2 -1</clus>
<clus scale="  122.635">  1  3  2 -1</clus>
<clus scale="  100.508">  1  3  2 -1</clus>
</clustering>
</event>
<event>
 6    0  0.6687079E+002  0.9635580E+02  0.7546771E-02  0.1288151E+00
         21   -1    0    0  506  501  0.00000000000E+00  0.00000000000E+00  0.40533196152E+03  0.40533196152E+03  0.00000000000E+00 0.  1.
         21   -1    0    0  504  502 -0.00000000000E+00 -0.00000000000E+00 -0.13848310072E+03  0.13848310072E+03  0.00000000000E+00 0.  1.
         21    1    1    2  503  501  0.70203212911E+02  0.64450584094E+02  0.14483886345E+03  0.17338011783E+03  0.00000000000E+00 0.  1.
         21    1    1    2  504  503  0.52342000554E+02 -0.18561718753E+02 -0.76180996982E+02  0.94274952804E+02  0.00000000000E+00 0.  1.
         21    1    1    2  505  502 -0.91822451791E+02 -0.64447106042E+02  0.48484792480E+02  0.12221115838E+03  0.00000000000E+00 0.  1.
         21    1    1    2  506  505 -0.30722761674E+02  0.18558240700E+02  0.14970620185E+03  0.15394883324E+03  0.00000000000E+00 0.  1.
<scales pt_clust_3="96.35580" pt_clust_4="54.28166" pt_clust_5="14000.00000" pt_clust_6="35.89285"></scales>
<clustering>
<clus scale="   35.893">  1  6  2 -1</clus>
<clus scale="   54.282">  2  4  1 -1</clus>
<clus scale="   96.356">  1  3  2 -1</clus>
<clus scale="   35.893">  1  3  2 -1</clus>
</clustering>
</event>
<event>
 6    0  0.6687079E+002  0.1347578E+03  0.7546771E-02  0.1220562E+00
         21   -1    0    0  504  501  0.00000000000E+00  0.00000000000E+00  0.26187097155E+03  0.26187097155E+03  0.00000000000E+00 0.  1.
         21   -1    0    0  503  502 -0.00000000000E+00 -0.00000000000E+00 -0.21146398945E+03  0.21146398945E+03  0.00000000000E+00 0.  1.
         21    1    1    2  503  506 -0.52347280051E+02 -0.24724115654E+02  0.26576381376E+01  0.57953280012E+02  0.00000000000E+00 0.  1.
         21    1    1    2  504  505  0.69128684414E+02  0.42051545609E+02  0.15314934783E+03  0.17321036412E+03  0.00000000000E+00 0.  1.
         21    1    1    2  505  502  0.29750850010E+02  0.45066556635E+02  0.46647818317E+02  0.71359137866E+02  0.00000000000E+00 0.  1.
         21    1    1    2  506  501 -0.46532254372E+02 -0.62393986590E+02 -0.15204782220E+03  0.17081217900E+03  0.00000000000E+00 0.  1.
<scales pt_clust_3="57.89231" pt_clust_4="41.07989" pt_clust_5="41.07989" pt_clust_6="125.02424"></scales>
<clustering>
<clus scale="   41.080">  4  5 -1 -1</clus>
<clus scale="   57.892">  2  3  1 -1</clus>
<clus scale="  125.024">  2  6  1 -1</clus>
<clus scale="  134.758">  1  3  2 -1</clus>
</clustering>
</event>
<event>
 6    0  0.6687079E+002  0.1692649E+03  0.7546771E-02  0.1178617E+00
         21   -1    0    0  504  501  0.00000000000E+00  0.00000000000E+00  0.17305199556E+04  0.17305199556E+04  0.00000000000E+00 0.  1.
         21   -1    0    0  503  502 -0.00000000000E+00 -0.00000000000E+00 -0.91484840896E+02  0.91484840896E+02  0.00000000000E+00 0.  1.
         21    1    1    2  503  505 -0.58434051159E+02  0.83407975219E+02  0.68309487441E+03  0.69064465256E+03  0.00000000000E+00 0.  1.
         21    1    1    2  504  506  0.36545696008E+02 -0.15097698405E+03  0.60975830136E+03  0.62923352080E+03  0.00000000000E+00 0.  1.
         21    1    1    2  505  501 -0.19712819683E+02  0.73098993334E+02  0.41482150669E+03  0.42167397418E+03  0.00000000000E+00 0.  1.
         21    1    1    2  506  502  0.41601174834E+02 -0.55299845009E+01 -0.68639567715E+02  0.80452649007E+02  0.00000000000E+00 0.  1.
<scales pt_clust_3="30.25130" pt_clust_4="165.58870" pt_clust_5="30.25130" pt_clust_6="41.96711"></scales>
<clustering>
<clus scale="   30.251">  3  5 -1 -1</clus>
<clus scale="   41.967">  2  6  1 -1</clus>
<clus scale="  165.589">  2  4  1 -1</clus>
<clus scale="  169.265">  1  3  2 -1</clus>
</clustering>
</event>
<event>
 6    0  0.6687079E+002  0.7518740E+02  0.7546771E-02  0.1343292E+00
         21   -1    0    0  502  501  0.00000000000E+00  0.00000000000E+00  0.23277133347E+03  0.23277133347E+03  0.00000000000E+00 0.  1.
         21   -1    0    0  504  502 -0.00000000000E+00 -0.00000000000E+00 -0.41644262068E+03  0.41644262068E+03  0.00000000000E+00 0.  1.
         21    1    1    2  503  505  0.76224139147E+02 -0.27352845469E+02  0.42050045827E+02  0.91249678893E+02  0.00000000000E+00 0.  1.
         21    1    1    2  504  506  0.29451548632E+02  0.48948275516E+02 -0.33147979359E+03  0.33636614121E+03  0.00000000000E+00 0.  1.
         21    1    1    2  505  501 -0.30785480417E+02 -0.39366278076E+02  0.13130980018E+03  0.14049808994E+03  0.00000000000E+00 0.  1.
         21    1    1    2  506  503 -0.74890207362E+02  0.17770848030E+02 -0.25551339629E+02  0.81100044114E+02  0.00000000000E+00 0.  1.
<scales pt_clust_3="75.18740" pt_clust_4="55.87468" pt_clust_5="49.97449" pt_clust_6="14000.00000"></scales>
<clustering>
<clus scale="   49.974">  1  5  2 -1</clus>
<clus scale="   55.875">  2  4  1 -1</clus>
<clus scale="   75.187">  1  3  2 -1</clus>
<clus scale="   49.974">  1  3  2 -1</clus>
</clustering>
</event>
<event>
 6    0  0.6687079E+002  0.1192413E+03  0.7546771E-02  0.1244354E+00
         21   -1    0    0  503  501  0.00000000000E+00  0.00000000000E+00  0.29957216746E+03  0.29957216746E+03  0.00000000000E+00 0.  1.
         21   -1    0    0  505  502 -0.00000000000E+00 -0.00000000000E+00 -0.89405065591E+03  0.89405065591E+03  0.00000000000E+00 0.  1.
         21    1    1    2  503  506  0.16517254735E+02 -0.77606408887E+02  0.15384748640E+03  0.17310292741E+03  0.00000000000E+00 0.  1.
         21    1    1    2  504  501 -0.65358797727E+02 -0.44969271053E+02  0.64822750493E+02  0.10244997199E+03  0.00000000000E+00 0.  1.
         21    1    1    2  505  504  0.72713599824E+02  0.14902341992E+03 -0.80089700748E+02  0.18414561480E+03  0.00000000000E+00 0.  1.
         21    1    1    2  506  502 -0.23872056832E+02 -0.26447739982E+02 -0.73305902460E+03  0.73392430917E+03  0.00000000000E+00 0.  1.
<scales pt_clust_3="80.61640" pt_clust_4="14000.00000" pt_clust_5="119.24131" pt_clust_6="35.62805"></scales>
<clustering>
<clus scale="   35.628">  2  6  1 -1</clus>
<clus scale="   80.616">  1  3  2 -1</clus>
<clus scale="  119.241">  2  5  1 -1</clus>
<clus scale="   80.616">  1  3  2 -1</clus>
</clustering>
</event>
<event>
 6    0  0.6687079E+002  0.7824529E+02  0.7546771E-02  0.1334106E+00
         21   -1    0    0  503  501  0.00000000000E+00  0.00000000000E+00  0.10003329490E+04  0.10003329490E+04  0.00000000000E+00 0.  1.
         21   -1    0    0  506  502 -0.00000000000E+00 -0.00000000000E+00 -0.19487055906E+03  0.19487055906E+03  0.00000000000E+00 0.  1.
         21    1    1    2  503  504 -0.30739544179E+02 -0.37911917565E+02  0.93527443182E+03  0.93654711354E+03  0.00000000000E+00 0.  1.
         21    1    1    2  504  505  0.10180287042E+03  0.77990404727E+02 -0.66223690821E+02  0.14433261891E+03  0.00000000000E+00 0.  1.
         21    1    1    2  505  502 -0.47828822599E+02 -0.81622378073E+01 -0.56048204407E+02  0.74132446436E+02  0.00000000000E+00 0.  1.
         21    1    1    2  506  501 -0.23234503646E+02 -0.31916249355E+02 -0.75401466167E+01  0.40191329209E+02  0.00000000000E+00 0.  1.
<scales pt_clust_3="48.95483" pt_clust_4="78.24529" pt_clust_5="14000.00000" pt_clust_6="39.47770"></scales>
<clustering>
<clus scale="   39.478">  2  6  1 -1</clus>
<clus scale="   48.955">  1  3  2 -1</clus>
<clus scale="   78.245">  1  4  2 -1</clus>
<clus scale="   48.955">  1  3  2 -1</clus>
</clustering>
</event>
<event>
 6    0  0.6687079E+002  0.2124064E+03  0.7546771E-02  0.1139674E+00
         21   -1    0    0  503  501  0.00000000000E+00  0.00000000000E+00  0.16514833351E+03  0.16514833351E+03  0.00000000000E+00 0. -1.
         21   -1    0    0  506  502 -0.00000000000E+00 -0.00000000000E+00 -0.30576777024E+04  0.30576777024E+04  0.00000000000E+00 0.  1.
         21    1    1    2  503  504 -0.33349780706E+02 -0.39646664362E+02  0.14610012127E+03  0.15501390680E+03  0.00000000000E+00 0. -1.
         21    1    1    2  504  505  0.51985010579E+02  0.22002874480E+02 -0.70444015550E+03  0.70669830939E+03  0.00000000000E+00 0.  1.
         21    1    1    2  505  502  0.16551380852E+03 -0.76711236521E+01 -0.12774615377E+04  0.12881621199E+04  0.00000000000E+00 0.  1.
         21    1    1    2  506  501 -0.18414903839E+03  0.25314913535E+02 -0.10567277970E+04  0.10729516998E+04  0.00000000000E+00 0.  1.
<scales pt_clust_3="51.80797" pt_clust_4="37.02015" pt_clust_5="37.02015" pt_clust_6="202.71607"></scales>
<clustering>
<clus scale="   37.020">  4  5 -1 -1</clus>
<clus scale="   51.808">  1  3  2 -1</clus>
<clus scale="  202.716">  1  6  2 -1</clus>
<clus scale="   51.808">  1  3  2 -1</clus>
</clustering>
</event>
<event>
 6    0  0.6687079E+002  0.1501090E+03  0.7546771E-02  0.1200339E+00
         21   -1    0    0  506  501  0.00000000000E+00  0.00000000000E+00  0.18163489890E+03  0.18163489890E+03  0.00000000000E+00 0. -1.
         21   -1    0    0  504  502 -0.00000000000E+00 -0.00000000000E+00 -0.13745042420E+04  0.13745042420E+04  0.00000000000E+00 0. -1.
         21    1    1    2  503  502  0.95744472240E+01 -0.13984015840E+03 -0.13042470122E+04  0.13117572980E+04  0.00000000000E+00 0. -1.
         21    1    1    2  504  501  0.23643472009E+02  0.34718139059E+02 -0.33723513717E+02  0.53866857396E+02  0.00000000000E+00 0. -1.
         21    1    1    2  505  503  0.14541925403E+00  0.47115606114E+02  0.97833216708E+02  0.10858747523E+03  0.00000000000E+00 0. -1.
         21    1    1    2  506  505 -0.33363338487E+02  0.58006413231E+02  0.47267966078E+02  0.81927510325E+02  0.00000000000E+00 0.  1.
<scales pt_clust_3="139.44592" pt_clust_4="42.00432" pt_clust_5="53.43015" pt_clust_6="53.43015"></scales>
<clustering>
<clus scale="   42.004">  1  4  2 -1</clus>
<clus scale="   53.430">  5  6 -1 -1</clus>
<clus scale="  139.446">  2  3  1 -1</clus>
<clus scale="   42.004">  1  3  2 -1</clus>
</clustering>
</event>
<event>
 6    0  0.6687079E+002  0.9001198E+02  0.7546771E-02  0.1302823E+00
         21   -1    0    0  503  501  0.00000000000E+00  0.00000000000E+00  0.10943601019E+04  0.10943601019E+04  0.00000000000E+00 0.  1.
         21   -1    0    0  505  502 -0.00000000000E+00 -0.00000000000E+00 -0.51411967893E+03  0.51411967893E+03  0.00000000000E+00 0. -1.
         21    1    1    2  503  502  0.74176880994E+02 -0.10182171496E+03 -0.42408619973E+03  0.44240137444E+03  0.00000000000E+00 0. -1.
         21    1    1    2  504  506  0.55782952240E+01  0.70098411799E+02  0.84448219659E+01  0.70825276084E+02  0.00000000000E+00 0.  1.
         21    1    1    2  505  504 -0.34170215162E+02  0.14786148843E+02 -0.42060511327E+02  0.56172238828E+02  0.00000000000E+00 0.  1.
         21    1    1    2  506  501 -0.45584961056E+02  0.16937154321E+02  0.10379423121E+04  0.10390808915E+04  0.00000000000E+00 0.  1.
<scales pt_clust_3="90.01198" pt_clust_4="14000.00000" pt_clust_5="37.23216" pt_clust_6="48.67530"></scales>
<clustering>
<clus scale="   37.232">  2  5  1 -1</clus>
<clus scale="   48.675">  1  6  2 -1</clus>
<clus scale="   90.012">  2  3  1 -1</clus>
<clus scale="   48.675">  1  3  2 -1</clus>
</clustering>
</event>
<event>
 6    0  0.6687079E+002  0.1052469E+03  0.7546771E-02  0.1269634E+00
         21   -1    0    0  503  501  0.00000000000E+00  0.00000000000E+00  0.19316364746E+02  0.19316364746E+02  0.00000000000E+00 0.  1.
         21   -1    0    0  505  502 -0.00000000000E+00 -0.00000000000E+00 -0.25210997520E+04  0.25210997520E+04  0.00000000000E+00 0.  1.
         21    1    1    2  503  506  0.20520638899E+01  0.53139684461E+02 -0.15488508962E+03  0.16376027607E+03  0.00000000000E+00 0.  1.
         21    1    1    2  504  501  0.57963198266E+02 -0.56896358113E+02 -0.83800444671E+03  0.84193133962E+03  0.00000000000E+00 0.  1.
         21    1    1    2  505  504  0.22514987237E+02 -0.42000733890E+02 -0.13431839134E+04  0.13440290218E+04  0.00000000000E+00 0.  1.
         21    1    1    2  506  502 -0.82530249394E+02  0.45757407543E+02 -0.16570993757E+03  0.19069547929E+03  0.00000000000E+00 0.  1.
<scales pt_clust_3="47.72980" pt_clust_4="105.24691" pt_clust_5="47.65487" pt_clust_6="14000.00000"></scales>
<clustering>
<clus scale="   47.655">  2  5  1 -1</clus>
<clus scale="   47.730">  1  3  2 -1</clus>
<clus scale="  105.247">  2  4  1 -1</clus>
<clus scale="   47.730">  1  3  2 -1</clus>
</clustering>
</event>
<event>
 6    0  0.6687079E+002  0.9419416E+02  0.7546771E-02  0.1293001E+00
         21   -1    0    0  506  501  0.00000000000E+00  0.00000000000E+00  0.14369395066E+04  0.14369395066E+04  0.00000000000E+00 0.  1.
         21   -1    0    0  503  502 -0.00000000000E+00 -0.00000000000E+00 -0.36323587998E+02  0.36323587998E+02  0.00000000000E+00 0.  1.
         21    1    1    2  503  505  0.60592774997E+02  0.10801347305E+03  0.10972042976E+03  0.16545986658E+03  0.00000000000E+00 0.  1.
         21    1    1    2  504  502 -0.49283943431E+02 -0.37280333891E+02  0.16178546098E+03  0.17318563959E+03  0.00000000000E+00 0.  1.
         21    1    1    2  505  501 -0.35264785714E+02 -0.83413212087E+01  0.63159116834E+03  0.63262989708E+03  0.00000000000E+00 0.  1.
         21    1    1    2  506  504  0.23955954149E+02 -0.62391817953E+02  0.49751885952E+03  0.50198769135E+03  0.00000000000E+00 0.  1.
<scales pt_clust_3="14000.00000" pt_clust_4="94.19416" pt_clust_5="36.23786" pt_clust_6="67.60266"></scales>
<clustering>
<clus scale="   36.238">  1  5  2 -1</clus>
<clus scale="   67.603">  1  6  2 -1</clus>
<clus scale="   94.194">  1  4  2 -1</clus>
<clus scale="   36.238">  1  3  2 -1</clus>
</clustering>
</event>
<event>
 6    0  0.6687079E+002  0.5840972E+02  0.7546771E-02  0.1404629E+00
         21   -1    0    0  504  501  0.00000000000E+00  0.00000000000E+00  0.16957094675E+02  0.16957094675E+02  0.00000000000E+00 0. -1.
         21   -1    0    0  503  502 -0.00000000000E+00 -0.00000000000E+00 -0.14969201325E+04  0.14969201325E+04  0.00000000000E+00 0. -1.
         21    1    1    2  503  501  0.51530820451E+02  0.12511487297E+01 -0.20169688385E+03  0.20817930681E+03  0.00000000000E+00 0. -1.
         21    1    1    2  504  505 -0.28063229071E+02  0.58877342906E+02 -0.99509010012E+02  0.11897953356E+03  0.00000000000E+00 0. -1.
         21    1    1    2  505  506 -0.72891835791E+02 -0.31651611842E+02 -0.62522645228E+03  0.63025642471E+03  0.00000000000E+00 0. -1.
         21    1    1    2  506  502  0.49424244411E+02 -0.28476879794E+02 -0.55353069164E+03  0.55646196204E+03  0.00000000000E+00 0. -1.
<scales pt_clust_3="51.54601" pt_clust_4="60.36854" pt_clust_5="58.40972" pt_clust_6="14000.00000"></scales>
<clustering>
<clus scale="   51.546">  1  3  2 -1</clus>
<clus scale="   60.369">  1  4  2 -1</clus>
<clus scale="   58.410">  1  5  2 -1</clus>
<clus scale="   51.546">  1  3  2 -1</clus>
</clustering>
</event>
<event>
 6    0  0.6687079E+002  0.9921240E+02  0.7546771E-02  0.1281961E+00
         21   -1    0    0  506  501  0.00000000000E+00  0.00000000000E+00  0.31332488145E+03  0.31332488145E+03  0.00000000000E+00 0.  1.
         21   -1    0    0  501  502 -0.00000000000E+00 -0.00000000000E+00 -0.10724300774E+03  0.10724300774E+03  0.00000000000E+00 0.  1.
         21    1    1    2  503  505 -0.74187515037E+02 -0.36263546425E+02  0.58542057346E+02  0.10122255018E+03  0.00000000000E+00 0.  1.
         21    1    1    2  504  503 -0.42082038545E+02  0.14320580912E+02  0.17404012192E+02  0.47737581067E+02  0.00000000000E+00 0. -1.
         21    1    1    2  505  502  0.66111248764E+02  0.46585963809E+02 -0.41642620969E+02  0.90967340943E+02  0.00000000000E+00 0.  1.
         21    1    1    2  506  504  0.50158304818E+02 -0.24642998296E+02  0.17177842514E+03  0.18064041699E+03  0.00000000000E+00 0.  1.
<scales pt_clust_3="36.10226" pt_clust_4="36.10226" pt_clust_5="86.15039" pt_clust_6="55.88500"></scales>
<clustering>
<clus scale="   36.102">  3  4 -1 -1</clus>
<clus scale="   55.885">  1  6  2 -1</clus>
<clus scale="   86.150">  2  5  1 -1</clus>
<clus scale="   55.885">  1  3  2 -1</clus>
</clustering>
</event>
<event>
 6    0  0.6687079E+002  0.1004440E+03  0.7546771E-02  0.1279365E+00
         21   -1    0    0  505  501  0.00000000000E+00  0.00000000000E+00  0.29871971159E+03  0.29871971159E+03  0.00000000000E+00 0. -1.
         21   -1    0    0  504  502 -0.00000000000E+00 -0.00000000000E+00 -0.83006008672E+03  0.83006008672E+03  0.00000000000E+00 0.  1.
         21    1    1    2  503  501  0.17602419489E+02  0.66149303185E+02  0.25781519797E+03  0.26674754317E+03  0.00000000000E+00 0. -1.
         21    1    1    2  504  503  0.89455830867E+02 -0.12477912863E+03 -0.64261898514E+03  0.66070518136E+03  0.00000000000E+00 0.  1.
         21    1    1    2  505  506 -0.52488823022E+02  0.26644006338E+02 -0.24276262625E+02  0.63673515240E+02  0.00000000000E+00 0. -1.
         21    1    1    2  506  502 -0.54569427334E+02  0.31985819108E+02 -0.12226032534E+03  0.13765355853E+03  0.00000000000E+00 0. -1.
<scales pt_clust_3="14000.00000" pt_clust_4="100.44400" pt_clust_5="58.86408" pt_clust_6="64.87362"></scales>
<clustering>
<clus scale="   58.864">  1  5  2 -1</clus>
<clus scale="   64.874">  2  6  1 -1</clus>
<clus scale="  100.444">  2  4  1 -1</clus>
<clus scale="   58.864">  1  3  2 -1</clus>
</clustering>
</event>
<event>
 6    0  0.6687079E+002  0.1387268E+03  0.7546771E-02  0.1215052E+00
         21   -1    0    0  503  501  0.00000000000E+00  0.00000000000E+00  0.21971240023E+03  0.21971240023E+03  0.00000000000E+00 0. -1.
         21   -1    0    0  505  502 -0.00000000000E+00 -0.00000000000E+00 -0.50311120977E+03  0.50311120977E+03  0.00000000000E+00 0.  1.
         21    1    1    2  503  504 -0.14092813910E+01  0.37973008431E+02  0.15140347748E+03  0.15609916219E+03  0.00000000000E+00 0. -1.
         21    1    1    2  504  502  0.71883346122E+02  0.99800721323E+02 -0.31878417983E+02  0.12705759702E+03  0.00000000000E+00 0. -1.
         21    1    1    2  505  506 -0.78933262805E+01 -0.32906319338E+02 -0.23829855986E+02  0.41388313428E+02  0.00000000000E+00 0. -1.
         21    1    1    2  506  501 -0.62580738450E+02 -0.10486741042E+03 -0.37909401305E+03  0.39827853737E+03  0.00000000000E+00 0.  1.
<scales pt_clust_3="37.83655" pt_clust_4="14000.00000" pt_clust_5="33.83978" pt_clust_6="138.72681"></scales>
<clustering>
<clus scale="   33.840">  2  5  1 -1</clus>
<clus scale="   37.837">  1  3  2 -1</clus>
<clus scale="  138.727">  2  6  1 -1</clus>
<clus scale="   37.837">  1  3  2 -1</clus>
</clustering>
</event>
<event>
 6    0  0.6687079E+002  0.2788556E+03  0.7546771E-02  0.1096316E+00
         21   -1    0    0  506  501  0.00000000000E+00  0.00000000000E+00  0.12441471814E+03  0.12441471814E+03  0.00000000000E+00 0.  1.
         21   -1    0    0  505  502 -0.00000000000E+00 -0.00000000000E+00 -0.71845100301E+03  0.71845100301E+03  0.00000000000E+00 0.  1.
         21    1    1    2  503  502 -0.14398472471E+03 -0.83445645319E+02 -0.21908939267E+03  0.27512713180E+03  0.00000000000E+00 0.  1.
         21    1    1    2  504  501  0.88719468653E+01 -0.35686044517E+02  0.10983769515E+02  0.38377707165E+02  0.00000000000E+00 0. -1.
         21    1    1    2  505  504  0.23839948688E+03  0.77044533650E+02 -0.27610127648E+03  0.37282984105E+03  0.00000000000E+00 0.  1.
         21    1    1    2  506  503 -0.10328670903E+03  0.42087156187E+02 -0.10982938523E+03  0.15653104114E+03  0.00000000000E+00 0.  1.
<scales pt_clust_3="98.06864" pt_clust_4="36.77234" pt_clust_5="249.94585" pt_clust_6="98.06864"></scales>
<clustering>
<clus scale="   36.772">  1  4  2 -1</clus>
<clus scale="   98.069">  3  6 -1 -1</clus>
<clus scale="  249.946">  1  5  2 -1</clus>
<clus scale="   36.772">  1  3  2 -1</clus>
</clustering>
</event>
<event>
 6    0  0.2624408E+003  0.8703849E+02  0.7546771E-02  0.1310186E+00
         21   -1    0    0  505  501  0.00000000000E+00  0.00000000000E+00  0.24155770497E+04  0.24155770497E+04  0.00000000000E+00 0.  1.
         21   -1    0    0  503  502 -0.00000000000E+00 -0.00000000000E+00 -0.48862792997E+03  0.48862792997E+03  0.00000000000E+00 0. -1.
         21    1    1    2  503  504 -0.54056733141E+02 -0.94375893890E+02  0.19034602301E+04  0.19065649182E+04  0.00000000000E+00 0.  1.
         21    1    1    2  504  501  0.54795565884E+02 -0.16365371785E+02  0.45586988788E+03  0.45944285184E+03  0.00000000000E+00 0.  1.
         21    1    1    2  505  506  0.19772942559E+02  0.26137195438E+02  0.43474548874E+02  0.54444087306E+02  0.00000000000E+00 0. -1.
         21    1    1    2  506  502 -0.20511775303E+02  0.84604070237E+02 -0.47585554713E+03  0.48375312232E+03  0.00000000000E+00 0. -1.
<scales pt_clust_3="87.03849" pt_clust_4="59.70054" pt_clust_5="32.77380" pt_clust_6="14000.00000"></scales>
<clustering>
<clus scale="   32.774">  1  5  2 -1</clus>
<clus scale="   59.701">  1  4  2 -1</clus>
<clus scale="   87.038">  1  3  2 -1</clus>
<clus scale="   32.774">  1  3  2 -1</clus>
</clustering>
</event>
<event>
 6    0  0.6687079E+002  0.9263029E+02  0.7546771E-02  0.1296604E+00
         21   -1    0    0  503  501  0.00000000000E+00  0.00000000000E+00  0.45074050563E+02  0.45074050563E+02  0.00000000000E+00 0. -1.
         21   -1    0    0  505  502 -0.00000000000E+00 -0.00000000000E+00 -0.18236219116E+04  0.18236219116E+04  0.00000000000E+00 0. -1.
         21    1    1    2  503  506  0.95005272484E+02 -0.53996132899E+02 -0.13740646568E+03  0.17556229942E+03  0.00000000000E+00 0. -1.
         21    1    1    2  504  501 -0.34356480589E+02  0.82400107805E+02 -0.10146639551E+03  0.13515019401E+03  0.00000000000E+00 0. -1.
         21    1    1    2  505  504  0.14965995029E+02  0.34051203574E+02 -0.12778855490E+04  0.12784267448E+04  0.00000000000E+00 0. -1.
         21    1    1    2  506  502 -0.75614786924E+02 -0.62455178481E+02 -0.26178945092E+03  0.27955672400E+03  0.00000000000E+00 0. -1.
<scales pt_clust_3="14000.00000" pt_clust_4="92.63029" pt_clust_5="37.19497" pt_clust_6="82.00726"></scales>
<clustering>
<clus scale="   37.195">  2  5  1 -1</clus>
<clus scale="   82.007">  2  6  1 -1</clus>
<clus scale="   92.630">  1  4  2 -1</clus>
<clus scale="   92.630">  1  3  2 -1</clus>
</clustering>
</event>
<event>
 6    0  0.6687079E+002  0.1950742E+03  0.7546771E-02  0.1153963E+00
         21   -1    0    0  503  501  0.00000000000E+00  0.00000000000E+00  0.23467591608E+03  0.23467591608E+03  0.00000000000E+00 0. -1.
         21   -1    0    0  505  502 -0.00000000000E+00 -0.00000000000E+00 -0.34766113397E+03  0.34766113397E+03  0.00000000000E+00 0. -1.
         21    1    1    2  503  502  0.87972719174E+02  0.13681798017E+03 -0.15383120038E+03  0.22388031898E+03  0.00000000000E+00 0. -1.
         21    1    1    2  504  501  0.63799987136E+02  0.56756889511E+02  0.55167229520E+02  0.10166221559E+03  0.00000000000E+00 0. -1.
         21    1    1    2  505  506 -0.87019528667E+02 -0.15889160174E+03 -0.23846403222E+02  0.18272271457E+03  0.00000000000E+00 0. -1.
         21    1    1    2  506  504 -0.64753177643E+02 -0.34683267934E+02  0.95251561970E+01  0.74071800909E+02  0.00000000000E+00 0.  1.
<scales pt_clust_3="181.16794" pt_clust_4="85.39194" pt_clust_5="46.06007" pt_clust_6="46.06007"></scales>
<clustering>
<clus scale="   46.060">  5  6 -1 -1</clus>
<clus scale="   85.392">  1  4  2 -1</clus>
<clus scale="  181.168">  2  3  1 -1</clus>
<clus scale="   85.392">  1  3  2 -1</clus>
</clustering>
</event>
<event>
 6    0  0.6687079E+002  0.1170412E+03  0.7546771E-02  0.1248059E+00
         21   -1    0    0  504  501  0.00000000000E+00  0.00000000000E+00  0.30267253927E+03  0.30267253927E+03  0.00000000000E+00 0.  1.
         21   -1    0    0  505  502 -0.00000000000E+00 -0.00000000000E+00 -0.10906043175E+04  0.10906043175E+04  0.00000000000E+00 0.  1.
         21    1    1    2  503  501 -0.36825529467E+02  0.57755850595E+02 -0.11620244597E+03  0.13488834771E+03  0.00000000000E+00 0.  1.
         21    1    1    2  504  506  0.93091255275E+02 -0.79407834758E+02  0.27509690437E+03  0.30108120637E+03  0.00000000000E+00 0.  1.
         21    1    1    2  505  503 -0.52574435151E+02  0.52134632242E+02 -0.88678067725E+03  0.88986631617E+03  0.00000000000E+00 0.  1.
         21    1    1    2  506  502 -0.36912906570E+01 -0.30482648078E+02 -0.60045559381E+02  0.67440986513E+02  0.00000000000E+00 0.  1.
<scales pt_clust_3="117.04124" pt_clust_4="14000.00000" pt_clust_5="61.43166" pt_clust_6="30.70533"></scales>
<clustering>
<clus scale="   30.705">  2  6  1 -1</clus>
<clus scale="   61.432">  2  5  1 -1</clus>
<clus scale="  117.041">  2  3  1 -1</clus>
<clus scale="  117.041">  1  3  2 -1</clus>
</clustering>
</event>
<event>
 6    0  0.6687079E+002  0.1175577E+03  0.7546771E-02  0.1247181E+00
         21   -1    0    0  506  501  0.00000000000E+00  0.00000000000E+00  0.26225309771E+03  0.26225309771E+03  0.00000000000E+00 0. -1.
         21   -1    0    0  503  502 -0.00000000000E+00 -0.00000000000E+00 -0.30731746456E+03  0.30731746456E+03  0.00000000000E+00 0. -1.
         21    1    1    2  503  505 -0.29738992547E+02 -0.10175283146E+03 -0.26030346160E+03  0.28106216129E+03  0.00000000000E+00 0. -1.
         21    1    1    2  504  501  0.17284138250E+02  0.50376863479E+02  0.11634754110E+03  0.12795827496E+03  0.00000000000E+00 0. -1.
         21    1    1    2  505  504 -0.21557626415E+02  0.72606503993E+02  0.93135451269E+02  0.12004435831E+03  0.00000000000E+00 0. -1.
         21    1    1    2  506  502  0.34012480712E+02 -0.21230536015E+02  0.57561023845E+01  0.40505767716E+02  0.00000000000E+00 0. -1.
<scales pt_clust_3="106.49320" pt_clust_4="45.31610" pt_clust_5="45.31610" pt_clust_6="40.09469"></scales>
<clustering>
<clus scale="   40.095">  1  6  2 -1</clus>
<clus scale="   45.316">  4  5 -1 -1</clus>
<clus scale="  106.493">  2  3  1 -1</clus>
<clus scale="   40.095">  1  3  2 -1</clus>
</clustering>
</event>
<event>
 6    0  0.7108539E+002  0.1294743E+03  0.7546771E-02  0.1228238E+00
         21   -1    0    0  503  501  0.00000000000E+00  0.00000000000E+00  0.59682052029E+03  0.59682052029E+03  0.00000000000E+00 0. -1.
         21   -1    0    0  505  502 -0.00000000000E+00 -0.00000000000E+00 -0.10439623390E+04  0.10439623390E+04  0.00000000000E+00 0.  1.
         21    1    1    2  503  506 -0.37575141842E+02 -0.27154073402E+02  0.44651506140E+03  0.44891528716E+03  0.00000000000E+00 0. -1.
         21    1    1    2  504  501 -0.33116247401E+02 -0.21809745909E+01  0.10377337467E+03  0.10895116237E+03  0.00000000000E+00 0. -1.
         21    1    1    2  505  504 -0.24492382542E+02 -0.69357209747E+02  0.25312341606E+01  0.73598277785E+02  0.00000000000E+00 0. -1.
         21    1    1    2  506  502  0.95183771784E+02  0.98692257741E+02 -0.99996148898E+03  0.10093181320E+04  0.00000000000E+00 0.  1.
<scales pt_clust_3="73.80375" pt_clust_4="33.18799" pt_clust_5="129.47429" pt_clust_6="14000.00000"></scales>
<clustering>
<clus scale="   33.188">  1  4  2 -1</clus>
<clus scale="   73.804">  1  3  2 -1</clus>
<clus scale="  129.474">  1  5  2 -1</clus>
<clus scale="   33.188">  1  3  2 -1</clus>
</clustering>
</event>
<event>
 6    0  0.6687079E+002  0.1143906E+03  0.7546771E-02  0.1252649E+00
         21   -1    0    0  506  501  0.00000000000E+00  0.00000000000E+00  0.18844689342E+03  0.18844689342E+03  0.00000000000E+00 0.  1.
         21   -1    0    0  505  502 -0.00000000000E+00 -0.00000000000E+00 -0.43853946220E+03  0.43853946220E+03  0.00000000000E+00 0. -1.
         21    1    1    2  503  502  0.48830178198E+02 -0.12047476491E+03  0.61014405861E+02  0.14360122912E+03  0.00000000000E+00 0.  1.
         21    1    1    2  504  501 -0.48322143225E+02 -0.14393203050E+02 -0.81148416044E+01  0.51069016773E+02  0.00000000000E+00 0.  1.
         21    1    1    2  505  504 -0.42529665674E+02  0.10471387675E+03 -0.34666437982E+03  0.36462303916E+03  0.00000000000E+00 0. -1.
         21    1    1    2  506  503  0.42021630701E+02  0.30154091209E+02  0.43672246794E+02  0.67693070572E+02  0.00000000000E+00 0.  1.
<scales pt_clust_3="114.39061" pt_clust_4="50.42017" pt_clust_5="14000.00000" pt_clust_6="36.24898"></scales>
<clustering>
<clus scale="   50.420">  1  4  2 -1</clus>
<clus scale="   36.249">  1  6  2 -1</clus>
<clus scale="  114.391">  1  3  2 -1</clus>
<clus scale="   50.420">  1  3  2 -1</clus>
</clustering>
</event>
<event>
 6    0  0.6687079E+002  0.7836679E+02  0.7546771E-02  0.1333751E+00
         21   -1    0    0  503  501  0.00000000000E+00  0.00000000000E+00  0.80424783225E+03  0.80424783225E+03  0.00000000000E+00 0.  1.
         21   -1    0    0  506  502 -0.00000000000E+00 -0.00000000000E+00 -0.60336738787E+02  0.60336738787E+02  0.00000000000E+00 0.  1.
         21    1    1    2  503  504  0.56209417680E+02  0.13723787376E+02  0.24277461472E+03  0.24957434670E+03  0.00000000000E+00 0.  1.
         21    1    1    2  504  502  0.50714086327E+02 -0.61045714373E+02  0.32391684713E+03  0.33349755868E+03  0.00000000000E+00 0.  1.
         21    1    1    2  505  501 -0.69097323451E+02  0.37135278899E+02  0.21391005581E+03  0.22783981439E+03  0.00000000000E+00 0. -1.
         21    1    1    2  506  505 -0.37826180556E+02  0.10186648098E+02 -0.36690424196E+02  0.53672851262E+02  0.00000000000E+00 0.  1.
<scales pt_clust_3="50.33714" pt_clust_4="78.36679" pt_clust_5="14000.00000" pt_clust_6="39.17381"></scales>
<clustering>
<clus scale="   39.174">  2  6  1 -1</clus>
<clus scale="   50.337">  1  3  2 -1</clus>
<clus scale="   78.367">  2  4  1 -1</clus>
<clus scale="   50.337">  1  3  2 -1</clus>
</clustering>
</event>
<event>
 6    0  0.6687079E+002  0.9967866E+02  0.7546771E-02  0.1280973E+00
         21   -1    0    0  506  501  0.00000000000E+00  0.00000000000E+00  0.16010228106E+03  0.16010228106E+03  0.00000000000E+00 0.  1.
         21   -1    0    0  503  502 -0.00000000000E+00 -0.00000000000E+00 -0.16904853494E+03  0.16904853494E+03  0.00000000000E+00 0.  1.
         21    1    1    2  503  504 -0.35616711690E+02  0.10309336401E+03 -0.44271376438E+02  0.11771468314E+03  0.00000000000E+00 0.  1.
         21    1    1    2  504  501  0.75218474905E+02 -0.28355261831E+02 -0.49333165214E+01  0.80536808060E+02  0.00000000000E+00 0.  1.
         21    1    1    2  505  502 -0.62885252764E+01 -0.88178565610E+02  0.32199322726E+02  0.94084012282E+02  0.00000000000E+00 0.  1.
         21    1    1    2  506  505 -0.33313237938E+02  0.13440463432E+02  0.80591163563E+01  0.36815312516E+02  0.00000000000E+00 0.  1.
<scales pt_clust_3="14000.00000" pt_clust_4="70.52453" pt_clust_5="99.67866" pt_clust_6="35.92239"></scales>
<clustering>
<clus scale="   35.922">  1  6  2 -1</clus>
<clus scale="   70.525">  1  4  2 -1</clus>
<clus scale="   99.679">  1  5  2 -1</clus>
<clus scale="   35.922">  1  3  2 -1</clus>
</clustering>
</event>
<event>
 6    0  0.6687079E+002  0.3797677E+03  0.7546771E-02  0.1051020E+00
         21   -1    0    0  502  501  0.00000000000E+00  0.00000000000E+00  0.27341000545E+03  0.27341000545E+03  0.00000000000E+00 0. -1.
         21   -1    0    0  503  502 -0.00000000000E+00 -0.00000000000E+00 -0.66700789967E+03  0.66700789967E+03  0.00000000000E+00 0. -1.
         21    1    1    2  503  506  0.32302321055E+02 -0.18419671825E+01 -0.42210822512E+02  0.53184455679E+02  0.00000000000E+00 0. -1.
         21    1    1    2  504  501 -0.10123498581E+03  0.36590928259E+03 -0.81722022840E+01  0.37974321630E+03  0.00000000000E+00 0. -1.
         21    1    1    2  505  504  0.21634998931E+02 -0.22789909925E+03 -0.22618385630E+03  0.32181548979E+03  0.00000000000E+00 0. -1.
         21    1    1    2  506  505  0.47297665823E+02 -0.13616821616E+03 -0.11703101311E+03  0.18567474334E+03  0.00000000000E+00 0. -1.
<scales pt_clust_3="32.35480" pt_clust_4="376.52402" pt_clust_5="39.51295" pt_clust_6="39.51295"></scales>
<clustering>
<clus scale="   32.355">  2  3  1 -1</clus>
<clus scale="   39.513">  5  6 -1 -1</clus>
<clus scale="  376.524">  1  4  2 -1</clus>
<clus scale="  376.524">  1  3  2 -1</clus>
</clustering>
</event>
<event>
 6    0  0.6687079E+002  0.8191051E+02  0.7546771E-02  0.1323715E+00
         21   -1    0    0  505  501  0.00000000000E+00  0.00000000000E+00  0.10778104094E+04  0.10778104094E+04  0.00000000000E+00 0.  1.
         21   -1    0    0  504  502 -0.00000000000E+00 -0.00000000000E+00 -0.87618586836E+02  0.87618586836E+02  0.00000000000E+00 0.  1.
         21    1    1    2  503  501  0.23018851662E+02 -0.43036575250E+02  0.23408558121E+03  0.23911937118E+03  0.00000000000E+00 0.  1.
         21    1    1    2  504  506  0.46588583258E+02  0.15889483938E+02 -0.67327587061E+02  0.83402492584E+02  0.00000000000E+00 0.  1.
         21    1    1    2  505  502 -0.10294586245E+03 -0.32540438194E+02  0.58435136006E+03  0.59424173761E+03  0.00000000000E+00 0.  1.
         21    1    1    2  506  503  0.33338427534E+02  0.59687529506E+02  0.23908246834E+03  0.24866539486E+03  0.00000000000E+00 0.  1.
<scales pt_clust_3="48.80588" pt_clust_4="49.30127" pt_clust_5="81.91051" pt_clust_6="14000.00000"></scales>
<clustering>
<clus scale="   48.806">  1  3  2 -1</clus>
<clus scale="   49.301">  2  4  1 -1</clus>
<clus scale="   81.911">  1  5  2 -1</clus>
<clus scale="   48.806">  1  3  2 -1</clus>
</clustering>
</event>
<event>
 6    0  0.6687079E+002  0.9806912E+02  0.7546771E-02  0.1284410E+00
         21   -1    0    0  504  501  0.00000000000E+00  0.00000000000E+00  0.29981322691E+04  0.29981322691E+04  0.00000000000E+00 0.  1.
         21   -1    0    0  503  502 -0.00000000000E+00 -0.00000000000E+00 -0.99447502422E+02  0.99447502422E+02  0.00000000000E+00 0. -1.
         21    1    1    2  503  505 -0.33842688131E+02  0.73105775805E+02 -0.77199436700E+02  0.11157748439E+03  0.00000000000E+00 0. -1.
         21    1    1    2  504  506  0.15390002673E+02 -0.88334883478E+02  0.21018180045E+04  0.21037297421E+04  0.00000000000E+00 0.  1.
         21    1    1    2  505  501 -0.18456849605E+02  0.35370504850E+02  0.10934283929E+03  0.11639409098E+03  0.00000000000E+00 0.  1.
         21    1    1    2  506  502  0.36909535063E+02 -0.20141397177E+02  0.76472335965E+03  0.76587845410E+03  0.00000000000E+00 0.  1.
<scales pt_clust_3="80.79660" pt_clust_4="38.06262" pt_clust_5="39.89646" pt_clust_6="38.06262"></scales>
<clustering>
<clus scale="   38.063">  4  6 -1 -1</clus>
<clus scale="   39.896">  1  5  2 -1</clus>
<clus scale="   80.797">  2  3  1 -1</clus>
<clus scale="   39.896">  1  3  2 -1</clus>
</clustering>
</event>
<event>
 6    0  0.6687079E+002  0.6264986E+02  0.7546771E-02  0.1387036E+00
         21   -1    0    0  503  501  0.00000000000E+00  0.00000000000E+00  0.40847074992E+02  0.40847074992E+02  0.00000000000E+00 0. -1.
         21   -1    0    0  506  502 -0.00000000000E+00 -0.00000000000E+00 -0.67424603813E+03  0.67424603813E+03  0.00000000000E+00 0. -1.
         21    1    1    2  503  505 -0.28666417521E+02  0.37539025732E+02 -0.77722028637E+02  0.90948643101E+02  0.00000000000E+00 0.  1.
         21    1    1    2  504  502  0.27436040420E+02  0.46343719435E+02 -0.31124351699E+03  0.31586864914E+03  0.00000000000E+00 0. -1.
         21    1    1    2  505  504 -0.31039477469E+02 -0.10940598984E+03 -0.24160894676E+03  0.26703558364E+03  0.00000000000E+00 0. -1.
         21    1    1    2  506  501  0.32269854570E+02  0.25523244669E+02 -0.28244707487E+01  0.41240237238E+02  0.00000000000E+00 0. -1.
<scales pt_clust_3="49.08417" pt_clust_4="14000.00000" pt_clust_5="62.64986" pt_clust_6="41.14340"></scales>
<clustering>
<clus scale="   41.143">  1  6  2 -1</clus>
<clus scale="   49.084">  1  3  2 -1</clus>
<clus scale="   62.650">  1  5  2 -1</clus>
<clus scale="   41.143">  1  3  2 -1</clus>
</clustering>
</event>
<event>
 6    0  0.6687079E+002  0.1500208E+03  0.7546771E-02  0.1200447E+00
         21   -1    0    0  504  501  0.00000000000E+00  0.00000000000E+00  0.10986189456E+04  0.10986189456E+04  0.00000000000E+00 0. -1.
         21   -1    0    0  506  502 -0.00000000000E+00 -0.00000000000E+00 -0.94300897793E+03  0.94300897793E+03  0.00000000000E+00 0.  1.
         21    1    1    2  503  502  0.27037081455E+02 -0.93372966103E+02 -0.53339464317E+03  0.54218019139E+03  0.00000000000E+00 0.  1.
         21    1    1    2  504  503  0.29407222375E+02  0.50740270438E+02  0.87852111508E+01  0.59300419112E+02  0.00000000000E+00 0. -1.
         21    1    1    2  505  501  0.66821997109E+02  0.70778897172E+02  0.10473451181E+04  0.10518586540E+04  0.00000000000E+00 0. -1.
         21    1    1    2  506  505 -0.12326630094E+03 -0.28146201507E+02 -0.36712571841E+03  0.38828865902E+03  0.00000000000E+00 0.  1.
<scales pt_clust_3="97.04141" pt_clust_4="58.64606" pt_clust_5="14000.00000" pt_clust_6="150.02084"></scales>
<clustering>
<clus scale="   58.646">  1  4  2 -1</clus>
<clus scale="   97.041">  2  3  1 -1</clus>
<clus scale="  150.021">  2  6  1 -1</clus>
<clus scale="   58.646">  1  3  2 -1</clus>
</clustering>
</event>
<event>
 6    0  0.6687079E+002  0.8357046E+02  0.7546771E-02  0.1319214E+00
         21   -1    0    0  503  501  0.00000000000E+00  0.00000000000E+00  0.81656255384E+03  0.81656255384E+03  0.00000000000E+00 0.  1.
         21   -1    0    0  504  502 -0.00000000000E+00 -0.00000000000E+00 -0.21746294272E+03  0.21746294272E+03  0.00000000000E+00 0. -1.
         21    1    1    2  503  502  0.52899128704E+02 -0.24060439003E+02  0.66939023815E+03  0.67190811386E+03  0.00000000000E+00 0.  1.
         21    1    1    2  504  505  0.54638117834E+02 -0.49697259410E+02 -0.17608160027E+03  0.19094468169E+03  0.00000000000E+00 0. -1.
         21    1    1    2  505  506 -0.51418051850E+02  0.52254195941E+02  0.46886466589E+02  0.87021019292E+02  0.00000000000E+00 0.  1.
         21    1    1    2  506  501 -0.56119194688E+02  0.21503502473E+02  0.58904506658E+02  0.84151681716E+02  0.00000000000E+00 0.  1.
<scales pt_clust_3="58.11388" pt_clust_4="76.68192" pt_clust_5="30.08258" pt_clust_6="30.08258"></scales>
<clustering>
<clus scale="   30.083">  5  6 -1 -1</clus>
<clus scale="   58.114">  1  3  2 -1</clus>
<clus scale="   76.682">  2  4  1 -1</clus>
<clus scale="   58.114">  1  3  2 -1</clus>
</clustering>
</event>
<event>
 6    0  0.6687079E+002  0.1033906E+03  0.7546771E-02  0.1273323E+00
         21   -1    0    0  504  501  0.00000000000E+00  0.00000000000E+00  0.11480522043E+03  0.11480522043E+03  0.00000000000E+00 0. -1.
         21   -1    0    0  505  502 -0.00000000000E+00 -0.00000000000E+00 -0.56618020972E+03  0.56618020972E+03  0.00000000000E+00 0. -1.
         21    1    1    2  503  501 -0.33741380487E+02 -0.59768941257E+02  0.30311724009E+01  0.68702220505E+02  0.00000000000E+00 0. -1.
         21    1    1    2  504  506 -0.42221812117E+02  0.94364549669E+02 -0.56097263783E+02  0.11761909988E+03  0.00000000000E+00 0. -1.
         21    1    1    2  505  503  0.60851680743E+02 -0.78746110051E+02 -0.61173168735E+01  0.99706060313E+02  0.00000000000E+00 0. -1.
         21    1    1    2  506  502  0.15111511861E+02  0.44150501640E+02 -0.39219158104E+03  0.39495804945E+03  0.00000000000E+00 0. -1.
<scales pt_clust_3="59.93017" pt_clust_4="14000.00000" pt_clust_5="103.39060" pt_clust_6="46.66503"></scales>
<clustering>
<clus scale="   46.665">  2  6  1 -1</clus>
<clus scale="   59.930">  1  3  2 -1</clus>
<clus scale="  103.391">  2  5  1 -1</clus>
<clus scale="   59.930">  1  3  2 -1</clus>
</clustering>
</event>
<event>
 6    0  0.6687079E+002  0.1308662E+03  0.7546771E-02  0.1226176E+00
         21   -1    0    0  505  501  0.00000000000E+00  0.00000000000E+00  0.91795610744E+03  0.91795610744E+03  0.00000000000E+00 0.  1.
         21   -1    0    0  506  502 -0.00000000000E+00 -0.00000000000E+00 -0.37162526947E+02  0.37162526947E+02  0.00000000000E+00 0.  1.
         21    1    1    2  503  501 -0.87467986607E+02 -0.28949347917E+02  0.13997412864E+03  0.16757526701E+03  0.00000000000E+00 0.  1.
         21    1    1    2  504  503 -0.29866519798E+02 -0.41512326263E+02  0.53245951250E+02  0.73826916237E+02  0.00000000000E+00 0.  1.
         21    1    1    2  505  502  0.86436157286E+02  0.82441300796E+02  0.65966118573E+03  0.67038843764E+03  0.00000000000E+00 0.  1.
         21    1    1    2  506  504  0.30898349119E+02 -0.11979626617E+02  0.27912314876E+02  0.43328013500E+02  0.00000000000E+00 0.  1.
<scales pt_clust_3="36.80081" pt_clust_4="36.80081" pt_clust_5="122.13590" pt_clust_6="33.13939"></scales>
<clustering>
<clus scale="   33.139">  2  6  1 -1</clus>
<clus scale="   36.801">  3  4 -1 -1</clus>
<clus scale="  122.136">  1  5  2 -1</clus>
<clus scale="  122.136">  1  3  2 -1</clus>
</clustering>
</event>
<event>
 6    0  0.6687079E+002  0.1042611E+03  0.7546771E-02  0.1271582E+00
         21   -1    0    0  504  501  0.00000000000E+00  0.00000000000E+00  0.85445846127E+03  0.85445846127E+03  0.00000000000E+00 0.  1.
         21   -1    0    0  505  502 -0.00000000000E+00 -0.00000000000E+00 -0.17923238926E+04  0.17923238926E+04  0.00000000000E+00 0. -1.
         21    1    1    2  503  502 -0.78496559804E+02 -0.16803364422E+02 -0.51102684753E+03  0.51729343883E+03  0.00000000000E+00 0. -1.
         21    1    1    2  504  506 -0.60378565970E+02 -0.15034308032E+02  0.84286948230E+03  0.84516304098E+03  0.00000000000E+00 0.  1.
         21    1    1    2  505  501  0.21576666294E+02 -0.45000609656E+02 -0.24172405069E+03  0.24682204942E+03  0.00000000000E+00 0. -1.
         21    1    1    2  506  503  0.11729845948E+03  0.76838282110E+02 -0.10279840154E+04  0.10375038246E+04  0.00000000000E+00 0. -1.
<scales pt_clust_3="104.26107" pt_clust_4="62.21475" pt_clust_5="49.90599" pt_clust_6="14000.00000"></scales>
<clustering>
<clus scale="   49.906">  2  5  1 -1</clus>
<clus scale="   62.215">  1  4  2 -1</clus>
<clus scale="  104.261">  2  3  1 -1</clus>
<clus scale="   62.215">  1  3  2 -1</clus>
</clustering>
</event>
<event>
 6    0  0.6687079E+002  0.1166951E+03  0.7546771E-02  0.1248651E+00
         21   -1    0    0  505  501  0.00000000000E+00  0.00000000000E+00  0.94359204134E+03  0.94359204134E+03  0.00000000000E+00 0.  1.
         21   -1    0    0  504  502 -0.00000000000E+00 -0.00000000000E+00 -0.11059289660E+04  0.11059289660E+04  0.00000000000E+00 0.  1.
         21    1    1    2  503  506 -0.11008945529E+03  0.97059444916E+01  0.26857691960E+03  0.29042633363E+03  0.00000000000E+00 0.  1.
         21    1    1    2  504  501 -0.49509847295E+02  0.24099709275E+02  0.53518192062E+03  0.53800716456E+03  0.00000000000E+00 0.  1.
         21    1    1    2  505  503  0.52140864870E+02  0.12028257424E+02  0.11860315476E+03  0.13011555281E+03  0.00000000000E+00 0.  1.
         21    1    1    2  506  502  0.10745843772E+03 -0.45833911191E+02 -0.10846989196E+04  0.10909719563E+04  0.00000000000E+00 0.  1.
<scales pt_clust_3="14000.00000" pt_clust_4="35.47484" pt_clust_5="53.51027" pt_clust_6="116.69511"></scales>
<clustering>
<clus scale="   53.510">  1  5  2 -1</clus>
<clus scale="   35.475">  1  4  2 -1</clus>
<clus scale="  116.695">  2  6  1 -1</clus>
<clus scale="   53.510">  1  3  2 -1</clus>
</clustering>
</event>
<event>
 6    0  0.6687079E+002  0.1389023E+03  0.7546771E-02  0.1214814E+00
         21   -1    0    0  504  501  0.00000000000E+00  0.00000000000E+00  0.63016417058E+02  0.63016417058E+02  0.00000000000E+00 0.  1.
         21   -1    0    0  505  502 -0.00000000000E+00 -0.00000000000E+00 -0.24954939208E+04  0.24954939208E+04  0.00000000000E+00 0. -1.
         21    1    1    2  503  506 -0.38765452874E+02  0.31233656637E+02 -0.95526043344E+02  0.10771966673E+03  0.00000000000E+00 0. -1.
         21    1    1    2  504  503 -0.26154763524E+02 -0.14454596490E+03 -0.56443430887E+02  0.15736412715E+03  0.00000000000E+00 0.  1.
         21    1    1    2  505  501  0.24604884784E+02  0.10266699946E+03 -0.44155344854E+03  0.45399929631E+03  0.00000000000E+00 0.  1.
         21    1    1    2  506  502  0.40315331614E+02  0.10645308801E+02 -0.18389545810E+04  0.18394272477E+04  0.00000000000E+00 0. -1.
<scales pt_clust_3="46.24899" pt_clust_4="14000.00000" pt_clust_5="138.90232" pt_clust_6="41.69710"></scales>
<clustering>
<clus scale="   41.697">  2  6  1 -1</clus>
<clus scale="   46.249">  2  3  1 -1</clus>
<clus scale="  138.902">  2  5  1 -1</clus>
<clus scale="  138.902">  1  3  2 -1</clus>
</clustering>
</event>
<event>
 6    0  0.6687079E+002  0.1393044E+03  0.7546771E-02  0.1214268E+00
         21   -1    0    0  503  501  0.00000000000E+00  0.00000000000E+00  0.12016372273E+04  0.12016372273E+04  0.00000000000E+00 0.  1.
         21   -1    0    0  506  502 -0.00000000000E+00 -0.00000000000E+00 -0.12468744248E+03  0.12468744248E+03  0.00000000000E+00 0.  1.
         21    1    1    2  503  504 -0.93324752533E+02  0.10102869093E+03  0.11146856383E+04  0.11231386281E+04  0.00000000000E+00 0.  1.
         21    1    1    2  504  505  0.47178387088E+02 -0.44457570148E+01 -0.52438839171E+02  0.70678121206E+02  0.00000000000E+00 0.  1.
         21    1    1    2  505  502  0.33469858713E+02 -0.29641283074E+02 -0.27381390631E+02  0.52426879150E+02  0.00000000000E+00 0.  1.
         21    1    1    2  506  501  0.12676506731E+02 -0.66941650841E+02  0.42084376305E+02  0.80081041260E+02  0.00000000000E+00 0.  1.
<scales pt_clust_3="135.23389" pt_clust_4="32.47042" pt_clust_5="32.47042" pt_clust_6="68.13133"></scales>
<clustering>
<clus scale="   32.470">  4  5 -1 -1</clus>
<clus scale="   68.131">  2  6  1 -1</clus>
<clus scale="  135.234">  1  3  2 -1</clus>
<clus scale="  135.234">  1  3  2 -1</clus>
</clustering>
</event>
<event>
 6    0  0.6687079E+002  0.1225224E+03  0.7546771E-02  0.1238993E+00
         21   -1    0    0  506  501  0.00000000000E+00  0.00000000000E+00  0.78453667368E+03  0.78453667368E+03  0.00000000000E+00 0.  1.
         21   -1    0    0  504  502 -0.00000000000E+00 -0.00000000000E+00 -0.15953470796E+04  0.15953470796E+04  0.00000000000E+00 0. -1.
         21    1    1    2  503  502 -0.41012922499E+02  0.23969052051E+00 -0.84135373501E+02  0.93599563768E+02  0.00000000000E+00 0. -1.
         21    1    1    2  504  505  0.41524717871E+02  0.18136506453E+02 -0.15497689635E+03  0.16146539401E+03  0.00000000000E+00 0.  1.
         21    1    1    2  505  501 -0.33028400208E+02 -0.13643836257E+03 -0.13397406358E+04  0.13470750808E+04  0.00000000000E+00 0. -1.
         21    1    1    2  506  503  0.32516604836E+02  0.11806216560E+03  0.76804249970E+03  0.77774371478E+03  0.00000000000E+00 0.  1.
<scales pt_clust_3="41.01362" pt_clust_4="41.41220" pt_clust_5="14000.00000" pt_clust_6="122.52240"></scales>
<clustering>
<clus scale="   41.014">  2  3  1 -1</clus>
<clus scale="   41.412">  2  4  1 -1</clus>
<clus scale="  122.522">  1  6  2 -1</clus>
<clus scale="  122.522">  1  3  2 -1</clus>
</clustering>
</event>
<event>
 6    0  0.6687079E+002  0.1955247E+03  0.7546771E-02  0.1153571E+00
         21   -1    0    0  504  501  0.00000000000E+00  0.00000000000E+00  0.75631047939E+02  0.75631047939E+02  0.00000000000E+00 0. -1.
         21   -1    0    0  503  502 -0.00000000000E+00 -0.00000000000E+00 -0.91822387968E+03  0.91822387968E+03  0.00000000000E+00 0. -1.
         21    1    1    2  503  506 -0.66458158525E+02  0.30371313895E+02 -0.24152393294E+03  0.25233492371E+03  0.00000000000E+00 0.  1.
         21    1    1    2  504  502 -0.73361184014E+02 -0.17684772996E+03 -0.14204944246E+03  0.23840097948E+03  0.00000000000E+00 0. -1.
         21    1    1    2  505  501  0.67845783634E+02  0.92738736543E+02 -0.28483019310E+03  0.30713476279E+03  0.00000000000E+00 0. -1.
         21    1    1    2  506  505  0.71973558906E+02  0.53737679524E+02 -0.17418926324E+03  0.19598426164E+03  0.00000000000E+00 0. -1.
<scales pt_clust_3="73.06917" pt_clust_4="191.84578" pt_clust_5="33.37653" pt_clust_6="33.37653"></scales>
<clustering>
<clus scale="   33.377">  5  6 -1 -1</clus>
<clus scale="   73.069">  2  3  1 -1</clus>
<clus scale="  191.846">  1  4  2 -1</clus>
<clus scale="  191.846">  1  3  2 -1</clus>
</clustering>
</event>
<event>
 6    0  0.6687079E+002  0.9437317E+02  0.7546771E-02  0.1292594E+00
         21   -1    0    0  503  501  0.00000000000E+00  0.00000000000E+00  0.94201587293E+03  0.94201587293E+03  0.00000000000E+00 0.  1.
         21   -1    0    0  506  502 -0.00000000000E+00 -0.00000000000E+00 -0.20921191954E+03  0.20921191954E+03  0.00000000000E+00 0.  1.
         21    1    1    2  503  502 -0.70225604509E+02 -0.85209964675E+02 -0.11273064533E+02  0.11099304299E+03  0.00000000000E+00 0.  1.
         21    1    1    2  504  501 -0.40973799536E+02  0.41828226527E+02  0.73262405329E+03  0.73496017323E+03  0.00000000000E+00 0.  1.
         21    1    1    2  505  504  0.78039546092E+01  0.64399287102E+02  0.13078365834E+03  0.14598813368E+03  0.00000000000E+00 0.  1.
         21    1    1    2  506  505  0.10339544944E+03 -0.21017548954E+02 -0.11933069370E+03  0.15928644257E+03  0.00000000000E+00 0.  1.
<scales pt_clust_3="14000.00000" pt_clust_4="58.55299" pt_clust_5="94.22296" pt_clust_6="94.37317"></scales>
<clustering>
<clus scale="   58.553">  1  4  2 -1</clus>
<clus scale="   94.223">  1  5  2 -1</clus>
<clus scale="   94.373">  2  6  1 -1</clus>
<clus scale="   58.553">  1  3  2 -1</clus>
</clustering>
</event>
<event>
 6    0  0.6687079E+002  0.6585408E+02  0.7546771E-02  0.1374787E+00
         21   -1    0    0  506  501  0.00000000000E+00  0.00000000000E+00  0.25579274088E+02  0.25579274088E+02  0.00000000000E+00 0. -1.
         21   -1    0    0  505  502 -0.00000000000E+00 -0.00000000000E+00 -0.66750992873E+03  0.66750992873E+03  0.00000000000E+00 0. -1.
         21    1    1    2  503  502  0.76608766635E+02  0.66827805732E+01 -0.20865852471E+03  0.22237792745E+03  0.00000000000E+00 0. -1.
         21    1    1    2  504  501 -0.42192693193E+02  0.55210759511E+02 -0.17404313477E+03  0.18740187855E+03  0.00000000000E+00 0. -1.
         21    1    1    2  505  504 -0.55742636542E+02 -0.21913572845E+02 -0.19975007981E+03  0.20853666485E+03  0.00000000000E+00 0. -1.
         21    1    1    2  506  503  0.21326563100E+02 -0.39979967240E+02 -0.59478915348E+02  0.74772731962E+02  0.00000000000E+00 0. -1.
<scales pt_clust_3="65.85408" pt_clust_4="52.90213" pt_clust_5="14000.00000" pt_clust_6="45.31247"></scales>
<clustering>
<clus scale="   45.312">  1  6  2 -1</clus>
<clus scale="   52.902">  1  4  2 -1</clus>
<clus scale="   65.854">  1  3  2 -1</clus>
<clus scale="   45.312">  1  3  2 -1</clus>
</clustering>
</event>
<event>
 6    0  0.6687079E+002  0.1085140E+03  0.7546771E-02  0.1263347E+00
         21   -1    0    0  506  501  0.00000000000E+00  0.00000000000E+00  0.71464182101E+02  0.71464182101E+02  0.00000000000E+00 0. -1.
         21   -1    0    0  504  502 -0.00000000000E+00 -0.00000000000E+00 -0.12897110042E+04  0.12897110042E+04  0.00000000000E+00 0. -1.
         21    1    1    2  503  501 -0.81160197869E+01  0.29250658681E+02 -0.42829336222E+02  0.52495931763E+02  0.00000000000E+00 0. -1.
         21    1    1    2  504  503  0.54841318774E+02  0.10577460351E+03 -0.12523069274E+02  0.11980260539E+03  0.00000000000E+00 0. -1.
         21    1    1    2  505  502 -0.48364658229E+02 -0.96573807842E+02 -0.11378375166E+04  0.11429522539E+04  0.00000000000E+00 0. -1.
         21    1    1    2  506  505  0.16393592415E+01 -0.38451454352E+02 -0.25056899994E+02  0.45924395236E+02  0.00000000000E+00 0. -1.
<scales pt_clust_3="30.35574" pt_clust_4="14000.00000" pt_clust_5="108.51398" pt_clust_6="33.87309"></scales>
<clustering>
<clus scale="   30.356">  1  3  2 -1</clus>
<clus scale="   33.873">  1  6  2 -1</clus>
<clus scale="  108.514">  2  5  1 -1</clus>
<clus scale="   30.356">  1  3  2 -1</clus>
</clustering>
</event>
<event>
 6    0  0.6687079E+002  0.1174547E+03  0.7546771E-02  0.1247356E+00
         21   -1    0    0  506  501  0.00000000000E+00  0.00000000000E+00  0.34241463190E+03  0.34241463190E+03  0.00000000000E+00 0.  1.
         21   -1    0    0  503  502 -0.00000000000E+00 -0.00000000000E+00 -0.41007654993E+03  0.41007654993E+03  0.00000000000E+00 0.  1.
         21    1    1    2  503  505 -0.67778286777E+02  0.15151468340E+02 -0.18814240739E+03  0.20055181029E+03  0.00000000000E+00 0.  1.
         21    1    1    2  504  501  0.10636896880E+02  0.47470963288E+02  0.25637313302E+03  0.26094792443E+03  0.00000000000E+00 0.  1.
         21    1    1    2  505  504  0.39876506859E+02  0.82890318185E+02 -0.12494095307E+01  0.91991856554E+02  0.00000000000E+00 0.  1.
         21    1    1    2  506  502  0.17264883039E+02 -0.14551274981E+03 -0.13464323413E+03  0.19899959055E+03  0.00000000000E+00 0.  1.
<scales pt_clust_3="69.54280" pt_clust_4="48.64808" pt_clust_5="14000.00000" pt_clust_6="117.45466"></scales>
<clustering>
<clus scale="   48.648">  1  4  2 -1</clus>
<clus scale="   69.543">  2  3  1 -1</clus>
<clus scale="  117.455">  2  6  1 -1</clus>
<clus scale="   48.648">  1  3  2 -1</clus>
</clustering>
</event>
<event>
 6    0  0.6687079E+002  0.1368896E+03  0.7546771E-02  0.1217577E+00
         21   -1    0    0  506  501  0.00000000000E+00  0.00000000000E+00  0.67905913714E+02  0.67905913714E+02  0.00000000000E+00 0. -1.
         21   -1    0    0  503  502 -0.00000000000E+00 -0.00000000000E+00 -0.86352538453E+03  0.86352538453E+03  0.00000000000E+00 0. -1.
         21    1    1    2  503  505  0.36008994000E+02  0.58522835631E+01 -0.56817787141E+03  0.56934786417E+03  0.00000000000E+00 0. -1.
         21    1    1    2  504  502 -0.46676741205E+02 -0.25130309111E+02 -0.44309556513E+02  0.69091152863E+02  0.00000000000E+00 0. -1.
         21    1    1    2  505  501  0.95748162296E+02  0.41959910268E+02 -0.17593123714E+03  0.20464638979E+03  0.00000000000E+00 0.  1.
         21    1    1    2  506  504 -0.85080415091E+02 -0.22681884720E+02 -0.72008057447E+01  0.88345891415E+02  0.00000000000E+00 0. -1.
<scales pt_clust_3="36.48146" pt_clust_4="37.49037" pt_clust_5="127.48184" pt_clust_6="37.49037"></scales>
<clustering>
<clus scale="   36.481">  2  3  1 -1</clus>
<clus scale="   37.490">  4  6 -1 -1</clus>
<clus scale="  127.482">  2  5  1 -1</clus>
<clus scale="  136.890">  1  3  2 -1</clus>
</clustering>
</event>
<event>
 6    0  0.6687079E+002  0.4346930E+03  0.7546771E-02  0.1032388E+00
         21   -1    0    0  503  501  0.00000000000E+00  0.00000000000E+00  0.13012825703E+03  0.13012825703E+03  0.00000000000E+00 0.  1.
         21   -1    0    0  501  502 -0.00000000000E+00 -0.00000000000E+00 -0.14163846348E+04  0.14163846348E+04  0.00000000000E+00 0. -1.
         21    1    1    2  503  506  0.38103888798E+03 -0.10121502858E+03 -0.41254228569E+03  0.57063670899E+03  0.00000000000E+00 0.  1.
         21    1    1    2  504  502 -0.18679619405E+03  0.52813675388E+02 -0.58389352205E+03  0.61531597372E+03  0.00000000000E+00 0. -1.
         21    1    1    2  505  504 -0.15530685680E+03  0.14679844356E+02 -0.25305921985E+03  0.29727880239E+03  0.00000000000E+00 0. -1.
         21    1    1    2  506  505 -0.38935837133E+02  0.33721508836E+02 -0.36761350211E+02  0.63281406754E+02  0.00000000000E+00 0.  1.
<scales pt_clust_3="394.25260" pt_clust_4="142.45622" pt_clust_5="142.45622" pt_clust_6="44.26715"></scales>
<clustering>
<clus scale="   44.267">  5  6 -1 -1</clus>
<clus scale="  142.456">  4  5 -1 -1</clus>
<clus scale="  394.253">  1  3  2 -1</clus>
<clus scale="  394.253">  1  3  2 -1</clus>
</clustering>
</event>
<event>
 6    0  0.6687079E+002  0.1379225E+03  0.7546771E-02  0.1216152E+00
         21   -1    0    0  503  501  0.00000000000E+00  0.00000000000E+00  0.14017405740E+03  0.14017405740E+03  0.00000000000E+00 0.  1.
         21   -1    0    0  505  502 -0.00000000000E+00 -0.00000000000E+00 -0.18705216544E+03  0.18705216544E+03  0.00000000000E+00 0.  1.
         21    1    1    2  503  504  0.22894618091E+02  0.24657673853E+02  0.19298109395E+02  0.38788934551E+02  0.00000000000E+00 0. -1.
         21    1    1    2  504  502 -0.12078896043E+03  0.55078160011E+02 -0.76505420508E+02  0.15322093865E+03  0.00000000000E+00 0.  1.
         21    1    1    2  505  506  0.74652190703E+02 -0.37517261674E+02 -0.73743205662E+01  0.83874162315E+02  0.00000000000E+00 0.  1.
         21    1    1    2  506  501  0.23242151637E+02 -0.42218572191E+02  0.17703523639E+02  0.51342187329E+02  0.00000000000E+00 0.  1.
<scales pt_clust_3="33.64765" pt_clust_4="129.56450" pt_clust_5="34.28382" pt_clust_6="34.28382"></scales>
<clustering>
<clus scale="   33.648">  1  3  2 -1</clus>
<clus scale="   34.284">  5  6 -1 -1</clus>
<clus scale="  129.564">  2  4  1 -1</clus>
<clus scale="   33.648">  1  3  2 -1</clus>
</clustering>
</event>
<event>
 6    0  0.6687079E+002  0.1021713E+03  0.7546771E-02  0.1275795E+00
         21   -1    0    0  505  501  0.00000000000E+00  0.00000000000E+00  0.36872711487E+03  0.36872711487E+03  0.00000000000E+00 0. -1.
         21   -1    0    0  506  502 -0.00000000000E+00 -0.00000000000E+00 -0.46662000149E+03  0.46662000149E+03  0.00000000000E+00 0.  1.
         21    1    1    2  503  501 -0.13616187525E+02  0.74287902820E+02 -0.71845697010E+02  0.10423961458E+03  0.00000000000E+00 0.  1.
         21    1    1    2  504  502 -0.11013650582E+03 -0.43930492115E+02 -0.32621671835E+02  0.12298012655E+03  0.00000000000E+00 0.  1.
         21    1    1    2  505  504  0.28050929462E+02  0.12763545889E+02  0.29737211900E+03  0.29896478038E+03  0.00000000000E+00 0. -1.
         21    1    1    2  506  503  0.95701763888E+02 -0.43120956595E+02 -0.29079763677E+03  0.30916259486E+03  0.00000000000E+00 0.  1.
<scales pt_clust_3="77.55063" pt_clust_4="14000.00000" pt_clust_5="30.81822" pt_clust_6="102.17127"></scales>
<clustering>
<clus scale="   30.818">  1  5  2 -1</clus>
<clus scale="   77.551">  1  3  2 -1</clus>
<clus scale="  102.171">  2  6  1 -1</clus>
<clus scale="   30.818">  1  3  2 -1</clus>
</clustering>
</event>
<event>
 6    0  0.6687079E+002  0.1371255E+03  0.7546771E-02  0.1217250E+00
         21   -1    0    0  504  501  0.00000000000E+00  0.00000000000E+00  0.64942233945E+03  0.64942233945E+03  0.00000000000E+00 0. -1.
         21   -1    0    0  506  502 -0.00000000000E+00 -0.00000000000E+00 -0.14185174472E+04  0.14185174472E+04  0.00000000000E+00 0.  1.
         21    1    1    2  503  505  0.17311596907E+03 -0.86969494624E+02  0.17705308247E+03  0.26245118737E+03  0.00000000000E+00 0. -1.
         21    1    1    2  504  503 -0.13736379904E+03  0.39753771806E+01  0.35622089866E+03  0.38180878140E+03  0.00000000000E+00 0. -1.
         21    1    1    2  505  502 -0.68794455676E+02  0.60954892235E+02 -0.13547940035E+04  0.13579083062E+04  0.00000000000E+00 0.  1.
         21    1    1    2  506  501  0.33042285645E+02  0.22039225208E+02  0.52424914589E+02  0.65771511752E+02  0.00000000000E+00 0. -1.
<scales pt_clust_3="14000.00000" pt_clust_4="137.12548" pt_clust_5="91.88733" pt_clust_6="39.71801"></scales>
<clustering>
<clus scale="   39.718">  1  6  2 -1</clus>
<clus scale="   91.887">  2  5  1 -1</clus>
<clus scale="  137.125">  1  4  2 -1</clus>
<clus scale="   39.718">  1  3  2 -1</clus>
</clustering>
</event>
<event>
 6    0  0.6687079E+002  0.1050970E+03  0.7546771E-02  0.1269929E+00
         21   -1    0    0  506  501  0.00000000000E+00  0.00000000000E+00  0.55830636482E+03  0.55830636482E+03  0.00000000000E+00 0.  1.
         21   -1    0    0  504  502 -0.00000000000E+00 -0.00000000000E+00 -0.10130496805E+03  0.10130496805E+03  0.00000000000E+00 0. -1.
         21    1    1    2  503  505  0.44212678534E+02 -0.14671229567E+02 -0.83450936534E+01  0.47324903680E+02  0.00000000000E+00 0. -1.
         21    1    1    2  504  501  0.57241335714E+02  0.52795399983E+02 -0.33852174415E+02  0.84911097546E+02  0.00000000000E+00 0. -1.
         21    1    1    2  505  502  0.81451290431E+01 -0.32163992529E+02  0.27558397488E+02  0.43131552425E+02  0.00000000000E+00 0. -1.
         21    1    1    2  506  503 -0.10959914329E+03 -0.59601778873E+01  0.47164026734E+03  0.48424377922E+03  0.00000000000E+00 0.  1.
<scales pt_clust_3="52.56245" pt_clust_4="105.09705" pt_clust_5="33.17929" pt_clust_6="14000.00000"></scales>
<clustering>
<clus scale="   33.179">  2  5  1 -1</clus>
<clus scale="   52.562">  2  3  1 -1</clus>
<clus scale="  105.097">  2  4  1 -1</clus>
<clus scale="  105.097">  1  3  2 -1</clus>
</clustering>
</event>
<event>
 6    0  0.6687079E+002  0.1056572E+03  0.7546771E-02  0.1268830E+00
         21   -1    0    0  504  501  0.00000000000E+00  0.00000000000E+00  0.77333433199E+03  0.77333433199E+03  0.00000000000E+00 0. -1.
         21   -1    0    0  503  502 -0.00000000000E+00 -0.00000000000E+00 -0.18807987173E+03  0.18807987173E+03  0.00000000000E+00 0.  1.
         21    1    1    2  503  501 -0.25334349630E+02 -0.17921997269E+02  0.34004879096E+02  0.46036497039E+02  0.00000000000E+00 0.  1.
         21    1    1    2  504  506  0.49425613220E+01  0.44396696888E+02  0.44972647058E+02  0.63387968814E+02  0.00000000000E+00 0.  1.
         21    1    1    2  505  502 -0.51953377253E+02 -0.92365229031E+02 -0.15265402174E+03  0.18583255714E+03  0.00000000000E+00 0.  1.
         21    1    1    2  506  505  0.72345165562E+02  0.65890529412E+02  0.65893095585E+03  0.66615718072E+03  0.00000000000E+00 0. -1.
<scales pt_clust_3="31.03268" pt_clust_4="43.18187" pt_clust_5="105.65722" pt_clust_6="14000.00000"></scales>
<clustering>
<clus scale="   31.033">  1  3  2 -1</clus>
<clus scale="   43.182">  1  4  2 -1</clus>
<clus scale="  105.657">  2  5  1 -1</clus>
<clus scale="   31.033">  1  3  2 -1</clus>
</clustering>
</event>
<event>
 6    0  0.6687079E+002  0.1184002E+03  0.7546771E-02  0.1245760E+00
         21   -1    0    0  504  501  0.00000000000E+00  0.00000000000E+00  0.10032145888E+04  0.10032145888E+04  0.00000000000E+00 0.  1.
         21   -1    0    0  505  502 -0.00000000000E+00 -0.00000000000E+00 -0.95052206319E+02  0.95052206319E+02  0.00000000000E+00 0. -1.
         21    1    1    2  503  501 -0.41474832875E+02 -0.25536571512E+01  0.85155107327E+03  0.85256431623E+03  0.00000000000E+00 0.  1.
         21    1    1    2  504  506  0.17036796955E+02  0.75612174620E+02  0.63217396903E+02  0.10001946147E+03  0.00000000000E+00 0. -1.
         21    1    1    2  505  503  0.13008614132E+02 -0.10796016984E+03 -0.30212314756E+01  0.10878304166E+03  0.00000000000E+00 0. -1.
         21    1    1    2  506  502  0.11429421788E+02  0.34901652367E+02 -0.35848561752E+01  0.36899975802E+02  0.00000000000E+00 0.  1.
<scales pt_clust_3="41.55337" pt_clust_4="32.04545" pt_clust_5="108.86389" pt_clust_6="32.04545"></scales>
<clustering>
<clus scale="   32.045">  4  6 -1 -1</clus>
<clus scale="   41.553">  1  3  2 -1</clus>
<clus scale="  108.864">  2  5  1 -1</clus>
<clus scale="   41.553">  1  3  2 -1</clus>
</clustering>
</event>
<event>
 6    0  0.6687079E+002  0.7565300E+02  0.7546771E-02  0.1341861E+00
         21   -1    0    0  503  501  0.00000000000E+00  0.00000000000E+00  0.51244351347E+03  0.51244351347E+03  0.00000000000E+00 0. -1.
         21   -1    0    0  505  502 -0.00000000000E+00 -0.00000000000E+00 -0.12082822167E+03  0.12082822167E+03  0.00000000000E+00 0. -1.
         21    1    1    2  503  506  0.74667226358E+02 -0.22734330416E+02  0.44146270590E+03  0.44830945247E+03  0.00000000000E+00 0. -1.
         21    1    1    2  504  501 -0.49697448478E+02  0.21914223691E+02 -0.71584664172E+01  0.54784242504E+02  0.00000000000E+00 0. -1.
         21    1    1    2  505  504  0.19707022402E+02  0.50168422289E+02 -0.61732297830E+01  0.54252613696E+02  0.00000000000E+00 0. -1.
         21    1    1    2  506  502 -0.44676800282E+02 -0.49348315563E+02 -0.36515717898E+02  0.75925426478E+02  0.00000000000E+00 0. -1.
<scales pt_clust_3="14000.00000" pt_clust_4="75.65300" pt_clust_5="53.90025" pt_clust_6="37.21625"></scales>
<clustering>
<clus scale="   53.900">  2  5  1 -1</clus>
<clus scale="   37.216">  2  6  1 -1</clus>
<clus scale="   75.653">  2  4  1 -1</clus>
<clus scale="   75.653">  1  3  2 -1</clus>
</clustering>
</event>
<event>
 6    0  0.6687079E+002  0.1276885E+03  0.7546771E-02  0.1230926E+00
         21   -1    0    0  503  501  0.00000000000E+00  0.00000000000E+00  0.10601586959E+04  0.10601586959E+04  0.00000000000E+00 0.  1.
         21   -1    0    0  505  502 -0.00000000000E+00 -0.00000000000E+00 -0.76270827020E+02  0.76270827020E+02  0.00000000000E+00 0.  1.
         21    1    1    2  503  502 -0.11044214740E+03  0.88603390605E+02  0.36186883117E+03  0.38858342697E+03  0.00000000000E+00 0.  1.
         21    1    1    2  504  506  0.20154556012E+02 -0.48039254077E+02  0.44287835953E+03  0.44593185286E+03  0.00000000000E+00 0.  1.
         21    1    1    2  505  504  0.42262461231E+02 -0.64661176734E+01 -0.49732514245E+02  0.65583910224E+02  0.00000000000E+00 0.  1.
         21    1    1    2  506  501  0.48025130155E+02 -0.34098018854E+02  0.22887319242E+03  0.23633033285E+03  0.00000000000E+00 0.  1.
<scales pt_clust_3="116.05091" pt_clust_4="47.93858" pt_clust_5="42.75425" pt_clust_6="47.93858"></scales>
<clustering>
<clus scale="   42.754">  2  5  1 -1</clus>
<clus scale="   47.939">  4  6 -1 -1</clus>
<clus scale="  116.051">  2  3  1 -1</clus>
<clus scale="  127.689">  1  3  2 -1</clus>
</clustering>
</event>
<event>
 6    0  0.6687079E+002  0.1757173E+03  0.7546771E-02  0.1172013E+00
         21   -1    0    0  505  501  0.00000000000E+00  0.00000000000E+00  0.30207152429E+03  0.30207152429E+03  0.00000000000E+00 0.  1.
         21   -1    0    0  504  502 -0.00000000000E+00 -0.00000000000E+00 -0.55586725402E+03  0.55586725402E+03  0.00000000000E+00 0.  1.
         21    1    1    2  503  501 -0.27537572840E+02  0.25712448872E+02  0.42772143995E+00  0.37677989470E+02  0.00000000000E+00 0.  1.
         21    1    1    2  504  506 -0.38113152759E+02  0.19607208532E+02 -0.41528320329E+03  0.41748915431E+03  0.00000000000E+00 0.  1.
         21    1    1    2  505  502  0.68053906420E+02 -0.15815124235E+03  0.21684140709E+03  0.27688146465E+03  0.00000000000E+00 0.  1.
         21    1    1    2  506  503 -0.24031808213E+01  0.11283158494E+03 -0.55781654978E+02  0.12589016987E+03  0.00000000000E+00 0.  1.
<scales pt_clust_3="34.66503" pt_clust_4="42.86088" pt_clust_5="165.15740" pt_clust_6="34.66503"></scales>
<clustering>
<clus scale="   34.665">  3  6 -1 -1</clus>
<clus scale="   42.861">  2  4  1 -1</clus>
<clus scale="  165.157">  1  5  2 -1</clus>
<clus scale="  165.157">  1  3  2 -1</clus>
</clustering>
</event>
<event>
 6    0  0.6687079E+002  0.1196453E+03  0.7546771E-02  0.1243683E+00
         21   -1    0    0  506  501  0.00000000000E+00  0.00000000000E+00  0.17982390060E+04  0.17982390060E+04  0.00000000000E+00 0.  1.
         21   -1    0    0  505  502 -0.00000000000E+00 -0.00000000000E+00 -0.20395338120E+02  0.20395338120E+02  0.00000000000E+00 0.  1.
         21    1    1    2  503  501 -0.32947467453E+01 -0.33659749263E+02  0.51125665239E+03  0.51237408081E+03  0.00000000000E+00 0.  1.
         21    1    1    2  504  502  0.10707285177E+03  0.96262391081E+02  0.41356349858E+03  0.43791073391E+03  0.00000000000E+00 0.  1.
         21    1    1    2  505  503 -0.53312561328E+02 -0.83032328480E+02  0.39661966753E+03  0.40870986951E+03  0.00000000000E+00 0.  1.
         21    1    1    2  506  504 -0.50465543700E+02  0.20429686662E+02  0.45640384943E+03  0.45963965992E+03  0.00000000000E+00 0.  1.
<scales pt_clust_3="33.82062" pt_clust_4="14000.00000" pt_clust_5="119.64534" pt_clust_6="52.32467"></scales>
<clustering>
<clus scale="   33.821">  1  3  2 -1</clus>
<clus scale="   52.325">  1  6  2 -1</clus>
<clus scale="  119.645">  2  5  1 -1</clus>
<clus scale="   33.821">  1  3  2 -1</clus>
</clustering>
</event>
<event>
 6    0  0.6687079E+002  0.2399463E+03  0.7546771E-02  0.1119829E+00
         21   -1    0    0  506  501  0.00000000000E+00  0.00000000000E+00  0.33118131692E+03  0.33118131692E+03  0.00000000000E+00 0. -1.
         21   -1    0    0  505  502 -0.00000000000E+00 -0.00000000000E+00 -0.29553965083E+03  0.29553965083E+03  0.00000000000E+00 0. -1.
         21    1    1    2  503  502 -0.13685468480E+03  0.18057009434E+03 -0.98269338029E+02  0.24696482851E+03  0.00000000000E+00 0. -1.
         21    1    1    2  504  501  0.37982850201E+02 -0.15040782048E+03  0.12339148259E+02  0.15561961300E+03  0.00000000000E+00 0. -1.
         21    1    1    2  505  504  0.59983563934E+02 -0.85705990237E+02  0.27481873463E+02  0.10816098222E+03  0.00000000000E+00 0. -1.
         21    1    1    2  506  503  0.38888270669E+02  0.55543716375E+02  0.94089982399E+02  0.11597554403E+03  0.00000000000E+00 0. -1.
<scales pt_clust_3="234.36486" pt_clust_4="42.25196" pt_clust_5="42.25196" pt_clust_6="67.80414"></scales>
<clustering>
<clus scale="   42.252">  4  5 -1 -1</clus>
<clus scale="   67.804">  1  6  2 -1</clus>
<clus scale="  234.365">  2  3  1 -1</clus>
<clus scale="   67.804">  1  3  2 -1</clus>
</clustering>
</event>
<event>
 6    0  0.6687079E+002  0.2059726E+03  0.7546771E-02  0.1144796E+00
         21   -1    0    0  505  501  0.00000000000E+00  0.00000000000E+00  0.24621049145E+04  0.24621049145E+04  0.00000000000E+00 0. -1.
         21   -1    0    0  503  502 -0.00000000000E+00 -0.00000000000E+00 -0.40347829267E+03  0.40347829267E+03  0.00000000000E+00 0.  1.
         21    1    1    2  503  506  0.38292518366E+02  0.20257560642E+03  0.28988024583E+03  0.35571582788E+03  0.00000000000E+00 0. -1.
         21    1    1    2  504  502 -0.81673533126E+02 -0.18952300897E+03 -0.33099186598E+03  0.39005788325E+03  0.00000000000E+00 0.  1.
         21    1    1    2  505  504 -0.20549335930E+02 -0.55953904972E+02  0.86214727911E+02  0.10481456959E+03  0.00000000000E+00 0.  1.
         21    1    1    2  506  501  0.63930350690E+02  0.42901307527E+02  0.20135235141E+04  0.20149949265E+04  0.00000000000E+00 0. -1.
<scales pt_clust_3="205.97255" pt_clust_4="14000.00000" pt_clust_5="59.60801" pt_clust_6="46.67982"></scales>
<clustering>
<clus scale="   59.608">  1  5  2 -1</clus>
<clus scale="   46.680">  1  6  2 -1</clus>
<clus scale="  205.973">  1  3  2 -1</clus>
<clus scale="   59.608">  1  3  2 -1</clus>
</clustering>
</event>
<event>
 6    0  0.6687079E+002  0.7920739E+02  0.7546771E-02  0.1331316E+00
         21   -1    0    0  505  501  0.00000000000E+00  0.00000000000E+00  0.84714566290E+03  0.84714566290E+03  0.00000000000E+00 0. -1.
         21   -1    0    0  503  502 -0.00000000000E+00 -0.00000000000E+00 -0.23228695731E+03  0.23228695731E+03  0.00000000000E+00 0.  1.
         21    1    1    2  503  504  0.30751823210E+02  0.19690003829E+02  0.17384824672E+02  0.40442589067E+02  0.00000000000E+00 0. -1.
         21    1    1    2  504  501  0.44405324484E+02 -0.44342523625E+02  0.10444580713E+03  0.12184834374E+03  0.00000000000E+00 0.  1.
         21    1    1    2  505  506 -0.12342374563E+03  0.41476496959E+02  0.69587601255E+03  0.70795278488E+03  0.00000000000E+00 0. -1.
         21    1    1    2  506  502  0.48266597931E+02 -0.16823977164E+02 -0.20284793876E+03  0.20918890253E+03  0.00000000000E+00 0.  1.
<scales pt_clust_3="36.51535" pt_clust_4="63.07918" pt_clust_5="79.20739" pt_clust_6="14000.00000"></scales>
<clustering>
<clus scale="   36.515">  2  3  1 -1</clus>
<clus scale="   63.079">  1  4  2 -1</clus>
<clus scale="   79.207">  1  5  2 -1</clus>
<clus scale="   63.079">  1  3  2 -1</clus>
</clustering>
</event>
<event>
 6    0  0.6687079E+002  0.9139849E+02  0.7546771E-02  0.1299500E+00
         21   -1    0    0  502  501  0.00000000000E+00  0.00000000000E+00  0.12181766984E+04  0.12181766984E+04  0.00000000000E+00 0. -1.
         21   -1    0    0  503  502 -0.00000000000E+00 -0.00000000000E+00 -0.37846355317E+03  0.37846355317E+03  0.00000000000E+00 0.  1.
         21    1    1    2  503  504  0.45250312417E+02 -0.18390503167E+02 -0.36588464154E+03  0.36913056267E+03  0.00000000000E+00 0.  1.
         21    1    1    2  504  506  0.71782705789E+02  0.10729521725E+02  0.25784885690E+03  0.26786920781E+03  0.00000000000E+00 0.  1.
         21    1    1    2  505  501 -0.12271884844E+02  0.38601153233E+02  0.30456343507E+03  0.30724507184E+03  0.00000000000E+00 0.  1.
         21    1    1    2  506  505 -0.10476113336E+03 -0.30940171790E+02  0.64318549478E+03  0.65239540924E+03  0.00000000000E+00 0. -1.
<scales pt_clust_3="48.79862" pt_clust_4="14000.00000" pt_clust_5="40.50492" pt_clust_6="91.39849"></scales>
<clustering>
<clus scale="   40.505">  1  5  2 -1</clus>
<clus scale="   48.799">  2  3  1 -1</clus>
<clus scale="   91.398">  1  6  2 -1</clus>
<clus scale="   40.505">  1  3  2 -1</clus>
</clustering>
</event>
<event>
 6    0  0.6687079E+002  0.1669459E+03  0.7546771E-02  0.1181071E+00
         21   -1    0    0  502  501  0.00000000000E+00  0.00000000000E+00  0.26365144959E+04  0.26365144959E+04  0.00000000000E+00 0.  1.
         21   -1    0    0  503  502 -0.00000000000E+00 -0.00000000000E+00 -0.31648075044E+03  0.31648075044E+03  0.00000000000E+00 0. -1.
         21    1    1    2  503  504 -0.11120673546E+03 -0.10595820225E+03 -0.29242698417E+03  0.33031442552E+03  0.00000000000E+00 0. -1.
         21    1    1    2  504  505  0.96036762400E+01  0.69619002490E+02  0.61369935747E+03  0.61771023746E+03  0.00000000000E+00 0.  1.
         21    1    1    2  505  506  0.45729662110E+02  0.67896986199E+02  0.14788833483E+04  0.14811472447E+04  0.00000000000E+00 0.  1.
         21    1    1    2  506  501  0.55873397106E+02 -0.31557786437E+02  0.51987802392E+03  0.52382333868E+03  0.00000000000E+00 0.  1.
<scales pt_clust_3="153.43726" pt_clust_4="60.95540" pt_clust_5="60.95540" pt_clust_6="64.16954"></scales>
<clustering>
<clus scale="   60.955">  4  5 -1 -1</clus>
<clus scale="   64.170">  1  6  2 -1</clus>
<clus scale="  153.437">  2  3  1 -1</clus>
<clus scale="   64.170">  1  3  2 -1</clus>
</clustering>
</event>
<event>
 6    0  0.6687079E+002  0.1167562E+03  0.7546771E-02  0.1248546E+00
         21   -1    0    0  506  501  0.00000000000E+00  0.00000000000E+00  0.45348459058E+03  0.45348459058E+03  0.00000000000E+00 0.  1.
         21   -1    0    0  503  502 -0.00000000000E+00 -0.00000000000E+00 -0.26144440539E+04  0.26144440539E+04  0.00000000000E+00 0.  1.
         21    1    1    2  503  504 -0.55731162458E+02  0.10681173358E+03 -0.13043195748E+04  0.13098718495E+04  0.00000000000E+00 0.  1.
         21    1    1    2  504  501 -0.92664894346E+02 -0.71879473462E+02  0.43662262357E+03  0.45209817160E+03  0.00000000000E+00 0.  1.
         21    1    1    2  505  502  0.70557132956E+02 -0.12175144014E+02 -0.26497763326E+03  0.27448076302E+03  0.00000000000E+00 0.  1.
         21    1    1    2  506  505  0.77838923847E+02 -0.22757116107E+02 -0.10282848788E+04  0.10314778604E+04  0.00000000000E+00 0.  1.
<scales pt_clust_3="101.35976" pt_clust_4="14000.00000" pt_clust_5="71.59988" pt_clust_6="116.75619"></scales>
<clustering>
<clus scale="   71.600">  2  5  1 -1</clus>
<clus scale="  101.360">  2  3  1 -1</clus>
<clus scale="  116.756">  2  6  1 -1</clus>
<clus scale="  116.756">  1  3  2 -1</clus>
</clustering>
</event>
<event>
 6    0  0.6687079E+002  0.1375065E+03  0.7546771E-02  0.1216724E+00
         21   -1    0    0  506  501  0.00000000000E+00  0.00000000000E+00  0.72534065197E+03  0.72534065197E+03  0.00000000000E+00 0.  1.
         21   -1    0    0  505  502 -0.00000000000E+00 -0.00000000000E+00 -0.14190086278E+03  0.14190086278E+03  0.00000000000E+00 0. -1.
         21    1    1    2  503  502 -0.44328976214E+02  0.12094168244E+02  0.72949717642E+01  0.46524656375E+02  0.00000000000E+00 0. -1.
         21    1    1    2  504  501  0.12640363360E+02 -0.73857038160E+02  0.52179271680E+03  0.52714540705E+03  0.00000000000E+00 0.  1.
         21    1    1    2  505  504  0.24499503373E+02  0.16217726312E+03 -0.24313859988E+02  0.16580969250E+03  0.00000000000E+00 0. -1.
         21    1    1    2  506  503  0.71891094816E+01 -0.10041439320E+03  0.78665960611E+02  0.12776175882E+03  0.00000000000E+00 0. -1.
<scales pt_clust_3="45.94918" pt_clust_4="74.51192" pt_clust_5="137.50655" pt_clust_6="14000.00000"></scales>
<clustering>
<clus scale="   45.949">  2  3  1 -1</clus>
<clus scale="   74.512">  1  4  2 -1</clus>
<clus scale="  137.507">  2  5  1 -1</clus>
<clus scale="   74.512">  1  3  2 -1</clus>
</clustering>
</event>
<event>
 6    0  0.6687079E+002  0.1029290E+03  0.7546771E-02  0.1274255E+00
         21   -1    0    0  503  501  0.00000000000E+00  0.00000000000E+00  0.57866268671E+02  0.57866268671E+02  0.00000000000E+00 0.  1.
         21   -1    0    0  506  502 -0.00000000000E+00 -0.00000000000E+00 -0.12750108943E+04  0.12750108943E+04  0.00000000000E+00 0.  1.
         21    1    1    2  503  504  0.41114988082E+02 -0.13680286396E+00 -0.86912003175E+02  0.96146540530E+02  0.00000000000E+00 0. -1.
         21    1    1    2  504  505  0.79019296586E+02  0.97905553540E+02 -0.98481877945E+02  0.15977555173E+03  0.00000000000E+00 0.  1.
         21    1    1    2  505  502 -0.53698361906E+02 -0.37492447220E+02 -0.95960655294E+03  0.96183882959E+03  0.00000000000E+00 0.  1.
         21    1    1    2  506  501 -0.66435922762E+02 -0.60276303456E+02 -0.72144191565E+02  0.11511624111E+03  0.00000000000E+00 0.  1.
<scales pt_clust_3="41.11522" pt_clust_4="14000.00000" pt_clust_5="64.78889" pt_clust_6="102.92899"></scales>
<clustering>
<clus scale="   41.115">  1  3  2 -1</clus>
<clus scale="   64.789">  2  5  1 -1</clus>
<clus scale="  102.929">  1  6  2 -1</clus>
<clus scale="   41.115">  1  3  2 -1</clus>
</clustering>
</event>
<event>
 6    0  0.6687079E+002  0.2321164E+03  0.7546771E-02  0.1125159E+00
         21   -1    0    0  505  501  0.00000000000E+00  0.00000000000E+00  0.11882533426E+04  0.11882533426E+04  0.00000000000E+00 0. -1.
         21   -1    0    0  504  502 -0.00000000000E+00 -0.00000000000E+00 -0.38150436691E+03  0.38150436691E+03  0.00000000000E+00 0.  1.
         21    1    1    2  503  506  0.23748017768E+02  0.73219821434E+02  0.17235413201E+03  0.18876190669E+03  0.00000000000E+00 0. -1.
         21    1    1    2  504  501  0.53080013180E+02 -0.98942853588E+02  0.11207818693E+03  0.15864644988E+03  0.00000000000E+00 0. -1.
         21    1    1    2  505  503  0.80781525316E+02  0.17622906163E+03  0.82606613092E+03  0.84850903922E+03  0.00000000000E+00 0. -1.
         21    1    1    2  506  502 -0.15760955626E+03 -0.15050602947E+03 -0.30374947414E+03  0.37384031374E+03  0.00000000000E+00 0.  1.
<scales pt_clust_3="48.55179" pt_clust_4="112.28168" pt_clust_5="48.55179" pt_clust_6="218.95482"></scales>
<clustering>
<clus scale="   48.552">  3  5 -1 -1</clus>
<clus scale="  112.282">  1  4  2 -1</clus>
<clus scale="  218.955">  2  6  1 -1</clus>
<clus scale="  112.282">  1  3  2 -1</clus>
</clustering>
</event>
<event>
 6    0  0.6687079E+002  0.1625856E+03  0.7546771E-02  0.1185808E+00
         21   -1    0    0  505  501  0.00000000000E+00  0.00000000000E+00  0.10192884861E+04  0.10192884861E+04  0.00000000000E+00 0. -1.
         21   -1    0    0  506  502 -0.00000000000E+00 -0.00000000000E+00 -0.33699058168E+03  0.33699058168E+03  0.00000000000E+00 0.  1.
         21    1    1    2  503  501 -0.25233236213E+02 -0.12776509871E+03  0.38065121395E+03  0.40231329004E+03  0.00000000000E+00 0. -1.
         21    1    1    2  504  502 -0.49445025847E+02 -0.36082225462E+02 -0.27558759619E+03  0.28230349050E+03  0.00000000000E+00 0.  1.
         21    1    1    2  505  504  0.93149276813E+02  0.21594663860E+03  0.56911365330E+03  0.61579224489E+03  0.00000000000E+00 0. -1.
         21    1    1    2  506  503 -0.18471014753E+02 -0.52099314435E+02  0.81206333984E+01  0.55870042396E+02  0.00000000000E+00 0.  1.
<scales pt_clust_3="14000.00000" pt_clust_4="105.58613" pt_clust_5="162.58564" pt_clust_6="55.27673"></scales>
<clustering>
<clus scale="   55.277">  2  6  1 -1</clus>
<clus scale="  105.586">  2  4  1 -1</clus>
<clus scale="  162.586">  2  5  1 -1</clus>
<clus scale="  162.586">  1  3  2 -1</clus>
</clustering>
</event>
<event>
 6    0  0.1291681E+003  0.9561979E+02  0.7546771E-02  0.1289786E+00
         21   -1    0    0  504  501  0.00000000000E+00  0.00000000000E+00  0.22543717512E+03  0.22543717512E+03  0.00000000000E+00 0. -1.
         21   -1    0    0  505  502 -0.00000000000E+00 -0.00000000000E+00 -0.14202779717E+04  0.14202779717E+04  0.00000000000E+00 0. -1.
         21    1    1    2  503  501  0.84013986854E+02  0.46016462915E+02  0.17713104186E+03  0.20137346111E+03  0.00000000000E+00 0. -1.
         21    1    1    2  504  502  0.47792932785E+01  0.43798354355E+02 -0.29988367087E+02  0.53295775151E+02  0.00000000000E+00 0. -1.
         21    1    1    2  505  506 -0.37215805472E+02 -0.41126180472E+02 -0.13134066347E+04  0.13145772579E+04  0.00000000000E+00 0. -1.
         21    1    1    2  506  503 -0.51577474660E+02 -0.48688636798E+02 -0.28576836618E+02  0.76468652640E+02  0.00000000000E+00 0. -1.
<scales pt_clust_3="95.61979" pt_clust_4="44.05834" pt_clust_5="55.36747" pt_clust_6="14000.00000"></scales>
<clustering>
<clus scale="   44.058">  1  4  2 -1</clus>
<clus scale="   55.367">  2  5  1 -1</clus>
<clus scale="   95.620">  1  3  2 -1</clus>
<clus scale="   44.058">  1  3  2 -1</clus>
</clustering>
</event>
<event>
 6    0  0.6687079E+002  0.7441254E+02  0.7546771E-02  0.1345700E+00
         21   -1    0    0  504  501  0.00000000000E+00  0.00000000000E+00  0.14406363909E+03  0.14406363909E+03  0.00000000000E+00 0.  1.
         21   -1    0    0  505  502 -0.00000000000E+00 -0.00000000000E+00 -0.43699211929E+03  0.43699211929E+03  0.00000000000E+00 0.  1.
         21    1    1    2  503  501  0.30168713519E+02  0.49979245302E+02  0.22839962825E+02  0.62687639437E+02  0.00000000000E+00 0.  1.
         21    1    1    2  504  506 -0.38718103849E+02  0.22828337995E+02  0.42433090894E+02  0.61812553613E+02  0.00000000000E+00 0.  1.
         21    1    1    2  505  503 -0.10961561853E+02  0.35787450530E+02 -0.34316699587E+03  0.34520209227E+03  0.00000000000E+00 0.  1.
         21    1    1    2  506  502  0.19510952183E+02 -0.10859503383E+03 -0.15034538044E+02  0.11135347306E+03  0.00000000000E+00 0.  1.
<scales pt_clust_3="74.41254" pt_clust_4="47.90315" pt_clust_5="37.42856" pt_clust_6="14000.00000"></scales>
<clustering>
<clus scale="   37.429">  2  5  1 -1</clus>
<clus scale="   47.903">  1  4  2 -1</clus>
<clus scale="   74.413">  1  3  2 -1</clus>
<clus scale="   47.903">  1  3  2 -1</clus>
</clustering>
</event>
<event>
 6    0  0.6687079E+002  0.9680155E+02  0.7546771E-02  0.1287169E+00
         21   -1    0    0  506  501  0.00000000000E+00  0.00000000000E+00  0.15674445977E+03  0.15674445977E+03  0.00000000000E+00 0. -1.
         21   -1    0    0  504  502 -0.00000000000E+00 -0.00000000000E+00 -0.24661373189E+03  0.24661373189E+03  0.00000000000E+00 0.  1.
         21    1    1    2  503  501 -0.52977093829E+02 -0.16074217896E+02  0.26092154580E+02  0.61202561075E+02  0.00000000000E+00 0. -1.
         21    1    1    2  504  503  0.47579944478E+02  0.35190968424E+02  0.53874138880E+02  0.80029233504E+02  0.00000000000E+00 0. -1.
         21    1    1    2  505  502  0.15350201749E+02 -0.10330192583E+03 -0.13449910047E+03  0.17028483374E+03  0.00000000000E+00 0.  1.
         21    1    1    2  506  505 -0.99530523981E+01  0.84185175296E+02 -0.35336465107E+02  0.91841563347E+02  0.00000000000E+00 0. -1.
<scales pt_clust_3="55.36202" pt_clust_4="30.36865" pt_clust_5="96.80155" pt_clust_6="14000.00000"></scales>
<clustering>
<clus scale="   55.362">  1  3  2 -1</clus>
<clus scale="   30.369">  1  4  2 -1</clus>
<clus scale="   96.802">  2  5  1 -1</clus>
<clus scale="   55.362">  1  3  2 -1</clus>
</clustering>
</event>
<event>
 6    0  0.6687079E+002  0.8759834E+02  0.7546771E-02  0.1308774E+00
         21   -1    0    0  506  501  0.00000000000E+00  0.00000000000E+00  0.12662513025E+04  0.12662513025E+04  0.00000000000E+00 0. -1.
         21   -1    0    0  503  502 -0.00000000000E+00 -0.00000000000E+00 -0.66610749604E+03  0.66610749604E+03  0.00000000000E+00 0.  1.
         21    1    1    2  503  501 -0.95391335419E+02 -0.14010697214E+02 -0.50297427287E+03  0.51213174641E+03  0.00000000000E+00 0.  1.
         21    1    1    2  504  505 -0.19742474264E+02  0.39896080833E+02 -0.60430119954E+02  0.75055059480E+02  0.00000000000E+00 0.  1.
         21    1    1    2  505  502  0.35453450430E+02  0.10556652165E+02 -0.85445289181E+02  0.93109008670E+02  0.00000000000E+00 0. -1.
         21    1    1    2  506  504  0.79680359254E+02 -0.36442035783E+02  0.12489934885E+04  0.12520629840E+04  0.00000000000E+00 0. -1.
<scales pt_clust_3="14000.00000" pt_clust_4="43.98702" pt_clust_5="36.99176" pt_clust_6="87.59834"></scales>
<clustering>
<clus scale="   36.992">  2  5  1 -1</clus>
<clus scale="   43.987">  2  4  1 -1</clus>
<clus scale="   87.598">  1  6  2 -1</clus>
<clus scale="   87.598">  1  3  2 -1</clus>
</clustering>
</event>
<event>
 6    0  0.6687079E+002  0.1683663E+03  0.7546771E-02  0.1179562E+00
         21   -1    0    0  504  501  0.00000000000E+00  0.00000000000E+00  0.22944915576E+03  0.22944915576E+03  0.00000000000E+00 0. -1.
         21   -1    0    0  505  502 -0.00000000000E+00 -0.00000000000E+00 -0.82198644848E+03  0.82198644848E+03  0.00000000000E+00 0.  1.
         21    1    1    2  503  506  0.15085505831E+03 -0.64016918783E+02 -0.52861350300E+02  0.17219098949E+03  0.00000000000E+00 0. -1.
         21    1    1    2  504  503 -0.11781171432E+02 -0.69742721742E+02  0.13199161876E+03  0.14974855812E+03  0.00000000000E+00 0. -1.
         21    1    1    2  505  501 -0.12824986044E+03  0.96680622111E+02 -0.20118582643E+03  0.25743136202E+03  0.00000000000E+00 0. -1.
         21    1    1    2  506  502 -0.10824026437E+02  0.37079018414E+02 -0.47048173476E+03  0.47206469461E+03  0.00000000000E+00 0.  1.
<scales pt_clust_3="168.36626" pt_clust_4="69.85216" pt_clust_5="14000.00000" pt_clust_6="38.62659"></scales>
<clustering>
<clus scale="   38.627">  2  6  1 -1</clus>
<clus scale="   69.852">  1  4  2 -1</clus>
<clus scale="  168.366">  1  3  2 -1</clus>
<clus scale="   69.852">  1  3  2 -1</clus>
</clustering>
</event>
<event>
 6    0  0.6687079E+002  0.2444786E+03  0.7546771E-02  0.1116845E+00
         21   -1    0    0  505  501  0.00000000000E+00  0.00000000000E+00  0.22238993131E+03  0.22238993131E+03  0.00000000000E+00 0. -1.
         21   -1    0    0  504  502 -0.00000000000E+00 -0.00000000000E+00 -0.10334745165E+04  0.10334745165E+04  0.00000000000E+00 0. -1.
         21    1    1    2  503  502 -0.76199282888E+02  0.14626274300E+03 -0.44256827490E+03  0.47229842118E+03  0.00000000000E+00 0. -1.
         21    1    1    2  504  506  0.36732858540E+02 -0.71033763256E+02 -0.90644531343E+02  0.12087815965E+03  0.00000000000E+00 0. -1.
         21    1    1    2  505  503  0.26720681300E+02  0.14186089683E+03 -0.39154382579E+03  0.41730693306E+03  0.00000000000E+00 0. -1.
         21    1    1    2  506  501  0.12745743048E+02 -0.21708987658E+03  0.11367204687E+03  0.24538093389E+03  0.00000000000E+00 0. -1.
<scales pt_clust_3="98.24201" pt_clust_4="79.96936" pt_clust_5="98.24201" pt_clust_6="222.66222"></scales>
<clustering>
<clus scale="   79.969">  2  4  1 -1</clus>
<clus scale="   98.242">  3  5 -1 -1</clus>
<clus scale="  222.662">  1  6  2 -1</clus>
<clus scale="  222.662">  1  3  2 -1</clus>
</clustering>
</event>
<event>
 6    0  0.6687079E+002  0.1041651E+03  0.7546771E-02  0.1271773E+00
         21   -1    0    0  505  501  0.00000000000E+00  0.00000000000E+00  0.84798790548E+02  0.84798790548E+02  0.00000000000E+00 0.  1.
         21   -1    0    0  506  502 -0.00000000000E+00 -0.00000000000E+00 -0.54420222278E+03  0.54420222278E+03  0.00000000000E+00 0.  1.
         21    1    1    2  503  501  0.56670927038E+02  0.21467503556E+02  0.60620325684E+01  0.60903168384E+02  0.00000000000E+00 0.  1.
         21    1    1    2  504  502 -0.16031626528E+02 -0.35093099758E+02 -0.21810813860E+03  0.22149424106E+03  0.00000000000E+00 0.  1.
         21    1    1    2  505  504 -0.77610460032E+02  0.91518150148E+02 -0.47707842187E+02  0.12913169061E+03  0.00000000000E+00 0.  1.
         21    1    1    2  506  503  0.36971159522E+02 -0.77892553947E+02 -0.19964948401E+03  0.21747191327E+03  0.00000000000E+00 0.  1.
<scales pt_clust_3="58.32782" pt_clust_4="38.58158" pt_clust_5="104.16508" pt_clust_6="14000.00000"></scales>
<clustering>
<clus scale="   38.582">  2  4  1 -1</clus>
<clus scale="   58.328">  1  3  2 -1</clus>
<clus scale="  104.165">  1  5  2 -1</clus>
<clus scale="   58.328">  1  3  2 -1</clus>
</clustering>
</event>
<event>
 6    0  0.6687079E+002  0.9115529E+02  0.7546771E-02  0.1300078E+00
         21   -1    0    0  505  501  0.00000000000E+00  0.00000000000E+00  0.22693381065E+03  0.22693381065E+03  0.00000000000E+00 0.  1.
         21   -1    0    0  504  502 -0.00000000000E+00 -0.00000000000E+00 -0.93794696375E+03  0.93794696375E+03  0.00000000000E+00 0. -1.
         21    1    1    2  503  506 -0.74763747028E+02 -0.18025997584E+02 -0.14072456549E+03  0.16036819445E+03  0.00000000000E+00 0. -1.
         21    1    1    2  504  501  0.76685269832E+02  0.78962306419E+01  0.19461611368E+03  0.20932848056E+03  0.00000000000E+00 0.  1.
         21    1    1    2  505  503 -0.65265492600E+02  0.11628483613E+02 -0.66458616270E+02  0.93869877127E+02  0.00000000000E+00 0. -1.
         21    1    1    2  506  502  0.63343969796E+02 -0.14987166714E+01 -0.69844608503E+03  0.70131422227E+03  0.00000000000E+00 0. -1.
<scales pt_clust_3="42.17015" pt_clust_4="79.03339" pt_clust_5="42.17015" pt_clust_6="63.36170"></scales>
<clustering>
<clus scale="   42.170">  3  5 -1 -1</clus>
<clus scale="   63.362">  2  6  1 -1</clus>
<clus scale="   79.033">  1  4  2 -1</clus>
<clus scale="   79.033">  1  3  2 -1</clus>
</clustering>
</event>
<event>
 6    0  0.6687079E+002  0.2079053E+03  0.7546771E-02  0.1143236E+00
         21   -1    0    0  503  501  0.00000000000E+00  0.00000000000E+00  0.49668324005E+03  0.49668324005E+03  0.00000000000E+00 0. -1.
         21   -1    0    0  504  502 -0.00000000000E+00 -0.00000000000E+00 -0.32794502193E+03  0.32794502193E+03  0.00000000000E+00 0. -1.
         21    1    1    2  503  506 -0.23843419893E+03 -0.73525288675E+02  0.27246181003E+03  0.36944860700E+03  0.00000000000E+00 0. -1.
         21    1    1    2  504  505  0.23160366665E+03 -0.20865307431E+02 -0.49879626279E+02  0.23783102526E+03  0.00000000000E+00 0. -1.
         21    1    1    2  505  501  0.58422071848E+02  0.43235703736E+02  0.51716346303E+02  0.89202270327E+02  0.00000000000E+00 0. -1.
         21    1    1    2  506  502 -0.51591539569E+02  0.51154892370E+02 -0.10556031194E+03  0.12814635939E+03  0.00000000000E+00 0. -1.
<scales pt_clust_3="14000.00000" pt_clust_4="207.90530" pt_clust_5="71.98329" pt_clust_6="72.65335"></scales>
<clustering>
<clus scale="   72.653">  2  6  1 -1</clus>
<clus scale="   71.983">  1  5  2 -1</clus>
<clus scale="  207.905">  2  4  1 -1</clus>
<clus scale="   71.983">  1  3  2 -1</clus>
</clustering>
</event>
<event>
 6    0  0.6687079E+002  0.8029558E+02  0.7546771E-02  0.1328215E+00
         21   -1    0    0  505  501  0.00000000000E+00  0.00000000000E+00  0.51683229209E+02  0.51683229209E+02  0.00000000000E+00 0.  1.
         21   -1    0    0  501  502 -0.00000000000E+00 -0.00000000000E+00 -0.15944600512E+04  0.15944600512E+04  0.00000000000E+00 0.  1.
         21    1    1    2  503  504 -0.65441362994E+01  0.39069498688E+02 -0.23042694247E+03  0.23380724383E+03  0.00000000000E+00 0.  1.
         21    1    1    2  504  502 -0.36422978717E+02  0.99411258779E+01 -0.26714204242E+03  0.26979683132E+03  0.00000000000E+00 0.  1.
         21    1    1    2  505  506  0.58120821302E+02  0.55241399364E+02  0.11136575132E+02  0.80954711896E+02  0.00000000000E+00 0.  1.
         21    1    1    2  506  503 -0.15153706285E+02 -0.10425202393E+03 -0.10563444122E+04  0.10615844933E+04  0.00000000000E+00 0.  1.
<scales pt_clust_3="42.80608" pt_clust_4="37.75526" pt_clust_5="14000.00000" pt_clust_6="80.29558"></scales>
<clustering>
<clus scale="   37.755">  2  4  1 -1</clus>
<clus scale="   42.806">  2  3  1 -1</clus>
<clus scale="   80.296">  2  6  1 -1</clus>
<clus scale="   80.296">  1  3  2 -1</clus>
</clustering>
</event>
<event>
 6    0  0.6687079E+002  0.1859353E+03  0.7546771E-02  0.1162179E+00
         21   -1    0    0  502  501  0.00000000000E+00  0.00000000000E+00  0.20833738975E+04  0.20833738975E+04  0.00000000000E+00 0.  1.
         21   -1    0    0  503  502 -0.00000000000E+00 -0.00000000000E+00 -0.36468540834E+02  0.36468540834E+02  0.00000000000E+00 0.  1.
         21    1    1    2  503  506  0.16200235388E+03 -0.31399467694E+02  0.26812738942E+03  0.31483803168E+03  0.00000000000E+00 0.  1.
         21    1    1    2  504  501  0.26365565812E+02 -0.73824640940E+02  0.55386006108E+03  0.55938018192E+03  0.00000000000E+00 0.  1.
         21    1    1    2  505  504 -0.71037646087E+02  0.30665358749E+02  0.62712834940E+03  0.63188343704E+03  0.00000000000E+00 0.  1.
         21    1    1    2  506  505 -0.11733027361E+03  0.74558749886E+02  0.59778955676E+03  0.61374078768E+03  0.00000000000E+00 0.  1.
<scales pt_clust_3="173.12050" pt_clust_4="78.39146" pt_clust_5="50.60608" pt_clust_6="50.60608"></scales>
<clustering>
<clus scale="   50.606">  5  6 -1 -1</clus>
<clus scale="   78.391">  1  4  2 -1</clus>
<clus scale="  173.120">  2  3  1 -1</clus>
<clus scale="   78.391">  1  3  2 -1</clus>
</clustering>
</event>
<event>
 6    0  0.6687079E+002  0.1204290E+03  0.7546771E-02  0.1242391E+00
         21   -1    0    0  504  501  0.00000000000E+00  0.00000000000E+00  0.22360078932E+04  0.22360078932E+04  0.00000000000E+00 0. -1.
         21   -1    0    0  506  502 -0.00000000000E+00 -0.00000000000E+00 -0.89470496324E+02  0.89470496324E+02  0.00000000000E+00 0. -1.
         21    1    1    2  503  502 -0.65474982242E+01 -0.90702479440E+02  0.17703184690E+03  0.19902282363E+03  0.00000000000E+00 0. -1.
         21    1    1    2  504  503  0.26106510695E+02 -0.25912206769E+02  0.10808236843E+03  0.11417000799E+03  0.00000000000E+00 0. -1.
         21    1    1    2  505  501  0.30161500807E+02  0.21358713613E+02  0.18983169372E+04  0.18986766720E+04  0.00000000000E+00 0. -1.
         21    1    1    2  506  505 -0.49720513278E+02  0.95255972596E+02 -0.36893755621E+02  0.11360888592E+03  0.00000000000E+00 0. -1.
<scales pt_clust_3="33.76196" pt_clust_4="33.76196" pt_clust_5="36.95823" pt_clust_6="108.09742"></scales>
<clustering>
<clus scale="   33.762">  3  4 -1 -1</clus>
<clus scale="   36.958">  1  5  2 -1</clus>
<clus scale="  108.097">  2  6  1 -1</clus>
<clus scale="   36.958">  1  3  2 -1</clus>
</clustering>
</event>
<event>
 6    0  0.6687079E+002  0.1477627E+03  0.7546771E-02  0.1203249E+00
         21   -1    0    0  504  501  0.00000000000E+00  0.00000000000E+00  0.16611184333E+04  0.16611184333E+04  0.00000000000E+00 0. -1.
         21   -1    0    0  503  502 -0.00000000000E+00 -0.00000000000E+00 -0.70602145287E+02  0.70602145287E+02  0.00000000000E+00 0. -1.
         21    1    1    2  503  505  0.53589076219E+02 -0.39477876349E+02 -0.84720855975E+01  0.67097451855E+02  0.00000000000E+00 0. -1.
         21    1    1    2  504  506 -0.11961491176E+03  0.80551317295E+02  0.15229942271E+04  0.15298064118E+04  0.00000000000E+00 0. -1.
         21    1    1    2  505  501  0.59029085692E+02 -0.67279418969E+01  0.10216830568E+02  0.60283345849E+02  0.00000000000E+00 0. -1.
         21    1    1    2  506  502  0.69967498526E+01 -0.34345499050E+02  0.65777315984E+02  0.74533369115E+02  0.00000000000E+00 0.  1.
<scales pt_clust_3="33.20744" pt_clust_4="142.92941" pt_clust_5="33.20744" pt_clust_6="35.05093"></scales>
<clustering>
<clus scale="   35.051">  2  6  1 -1</clus>
<clus scale="   33.207">  3  5 -1 -1</clus>
<clus scale="  142.929">  1  4  2 -1</clus>
<clus scale="  142.929">  1  3  2 -1</clus>
</clustering>
</event>
<event>
 6    0  0.6687079E+002  0.1358765E+03  0.7546771E-02  0.1218988E+00
         21   -1    0    0  506  501  0.00000000000E+00  0.00000000000E+00  0.42691809518E+03  0.42691809518E+03  0.00000000000E+00 0. -1.
         21   -1    0    0  505  502 -0.00000000000E+00 -0.00000000000E+00 -0.58122156815E+03  0.58122156815E+03  0.00000000000E+00 0. -1.
         21    1    1    2  503  501  0.42506595504E+02 -0.12073128661E+03  0.36551178795E+03  0.38727473627E+03  0.00000000000E+00 0. -1.
         21    1    1    2  504  502 -0.49313374037E+02  0.26141515059E+02 -0.25976621529E+02  0.61562752818E+02  0.00000000000E+00 0. -1.
         21    1    1    2  505  503 -0.34326373254E+02  0.85370256914E+02 -0.50689049736E+03  0.51517410356E+03  0.00000000000E+00 0. -1.
         21    1    1    2  506  504  0.41133151786E+02  0.92195146369E+01  0.13051857972E+02  0.44128070687E+02  0.00000000000E+00 0. -1.
<scales pt_clust_3="14000.00000" pt_clust_4="54.39714" pt_clust_5="135.87650" pt_clust_6="42.15371"></scales>
<clustering>
<clus scale="   42.154">  1  6  2 -1</clus>
<clus scale="   54.397">  2  4  1 -1</clus>
<clus scale="  135.877">  2  5  1 -1</clus>
<clus scale="   42.154">  1  3  2 -1</clus>
</clustering>
</event>
<event>
 6    0  0.6687079E+002  0.1078164E+03  0.7546771E-02  0.1264668E+00
         21   -1    0    0  504  501  0.00000000000E+00  0.00000000000E+00  0.24685617608E+04  0.24685617608E+04  0.00000000000E+00 0. -1.
         21   -1    0    0  506  502 -0.00000000000E+00 -0.00000000000E+00 -0.63885436015E+02  0.63885436015E+02  0.00000000000E+00 0.  1.
         21    1    1    2  503  501  0.24154117334E+02  0.65377976101E+02  0.17430590840E+04  0.17444519688E+04  0.00000000000E+00 0. -1.
         21    1    1    2  504  505  0.12647203951E+02  0.49857468774E+02  0.49703333195E+03  0.49968775453E+03  0.00000000000E+00 0. -1.
         21    1    1    2  505  502  0.11012873616E+02 -0.33548195766E+02 -0.45671549000E+02  0.57729153922E+02  0.00000000000E+00 0.  1.
         21    1    1    2  506  503 -0.47814194901E+02 -0.81687249109E+02  0.21025545785E+03  0.23057831957E+03  0.00000000000E+00 0.  1.
<scales pt_clust_3="14000.00000" pt_clust_4="48.23363" pt_clust_5="35.30956" pt_clust_6="107.81644"></scales>
<clustering>
<clus scale="   35.310">  2  5  1 -1</clus>
<clus scale="   48.234">  1  4  2 -1</clus>
<clus scale="  107.816">  2  6  1 -1</clus>
<clus scale="   48.234">  1  3  2 -1</clus>
</clustering>
</event>
<event>
 6    0  0.6687079E+002  0.1365035E+03  0.7546771E-02  0.1218113E+00
         21   -1    0    0  503  501  0.00000000000E+00  0.00000000000E+00  0.61665380578E+03  0.61665380578E+03  0.00000000000E+00 0.  1.
         21   -1    0    0  506  502 -0.00000000000E+00 -0.00000000000E+00 -0.62323759210E+02  0.62323759210E+02  0.00000000000E+00 0. -1.
         21    1    1    2  503  505  0.89935868188E+02 -0.17468893709E+02  0.40049915904E+03  0.41084449494E+03  0.00000000000E+00 0.  1.
         21    1    1    2  504  501 -0.11337054082E+03  0.35303645965E+02  0.79188755735E+02  0.14272381013E+03  0.00000000000E+00 0. -1.
         21    1    1    2  505  502  0.38898593156E+02  0.10922155988E+02  0.82468060257E+02  0.91833408972E+02  0.00000000000E+00 0.  1.
         21    1    1    2  506  504 -0.15463920526E+02 -0.28756908245E+02 -0.78259284664E+01  0.33575850938E+02  0.00000000000E+00 0.  1.
<scales pt_clust_3="34.18250" pt_clust_4="125.88346" pt_clust_5="34.18250" pt_clust_6="32.65107"></scales>
<clustering>
<clus scale="   32.651">  2  6  1 -1</clus>
<clus scale="   34.183">  3  5 -1 -1</clus>
<clus scale="  125.883">  2  4  1 -1</clus>
<clus scale="  136.504">  1  3  2 -1</clus>
</clustering>
</event>
<event>
 6    0  0.6687079E+002  0.1187296E+03  0.7546771E-02  0.1245208E+00
         21   -1    0    0  504  501  0.00000000000E+00  0.00000000000E+00  0.12130112699E+04  0.12130112699E+04  0.00000000000E+00 0.  1.
         21   -1    0    0  503  502 -0.00000000000E+00 -0.00000000000E+00 -0.37930271433E+02  0.37930271433E+02  0.00000000000E+00 0.  1.
         21    1    1    2  503  501 -0.40396541945E+02 -0.79412751811E+02  0.37167296378E+03  0.38220290129E+03  0.00000000000E+00 0. -1.
         21    1    1    2  504  505  0.35709883725E+02  0.66588482613E+02  0.52267051864E+03  0.52810386560E+03  0.00000000000E+00 0.  1.
         21    1    1    2  505  506  0.28005885833E+02  0.61621417492E+02  0.27839063419E+03  0.28650108889E+03  0.00000000000E+00 0.  1.
         21    1    1    2  506  502 -0.23319227612E+02 -0.48797148294E+02  0.23468818844E+01  0.54133685563E+02  0.00000000000E+00 0.  1.
<scales pt_clust_3="112.74721" pt_clust_4="35.22081" pt_clust_5="35.22081" pt_clust_6="54.08279"></scales>
<clustering>
<clus scale="   35.221">  4  5 -1 -1</clus>
<clus scale="   54.083">  2  6  1 -1</clus>
<clus scale="  112.747">  1  3  2 -1</clus>
<clus scale="  112.747">  1  3  2 -1</clus>
</clustering>
</event>
<event>
 6    0  0.6687079E+002  0.1243788E+03  0.7546771E-02  0.1236043E+00
         21   -1    0    0  503  501  0.00000000000E+00  0.00000000000E+00  0.12519631128E+03  0.12519631128E+03  0.00000000000E+00 0. -1.
         21   -1    0    0  506  502 -0.00000000000E+00 -0.00000000000E+00 -0.13668660521E+04  0.13668660521E+04  0.00000000000E+00 0.  1.
         21    1    1    2  503  504  0.34856996654E+02  0.49671932573E+02  0.93442941820E+02  0.11141765783E+03  0.00000000000E+00 0. -1.
         21    1    1    2  504  505  0.24800648543E+02  0.82180814380E+02 -0.27497295553E+03  0.28806055734E+03  0.00000000000E+00 0.  1.
         21    1    1    2  505  502  0.72267680023E+02  0.65367811596E+01 -0.32323465374E+03  0.33127932091E+03  0.00000000000E+00 0.  1.
         21    1    1    2  506  501 -0.13192532522E+03 -0.13838952811E+03 -0.73690507337E+03  0.76130482731E+03  0.00000000000E+00 0.  1.
<scales pt_clust_3="60.68205" pt_clust_4="124.37884" pt_clust_5="79.90722" pt_clust_6="14000.00000"></scales>
<clustering>
<clus scale="   60.682">  1  3  2 -1</clus>
<clus scale="   79.907">  2  5  1 -1</clus>
<clus scale="  124.379">  1  4  2 -1</clus>
<clus scale="   60.682">  1  3  2 -1</clus>
</clustering>
</event>
<event>
 6    0  0.6687079E+002  0.2089335E+03  0.7546771E-02  0.1142413E+00
         21   -1    0    0  504  501  0.00000000000E+00  0.00000000000E+00  0.11087928029E+04  0.11087928029E+04  0.00000000000E+00 0.  1.
         21   -1    0    0  503  502 -0.00000000000E+00 -0.00000000000E+00 -0.13657315118E+03  0.13657315118E+03  0.00000000000E+00 0.  1.
         21    1    1    2  503  506 -0.61838872730E+02  0.92713333798E+02  0.75681190446E+02  0.13471247541E+03  0.00000000000E+00 0.  1.
         21    1    1    2  504  502  0.11910061629E+03 -0.28510342320E+03  0.17537948390E+03  0.35528422719E+03  0.00000000000E+00 0.  1.
         21    1    1    2  505  501 -0.15973883666E+01  0.30096139036E+02  0.28636980374E+03  0.28795137390E+03  0.00000000000E+00 0.  1.
         21    1    1    2  506  505 -0.55664355197E+02  0.16229395037E+03  0.43478917367E+03  0.46741787760E+03  0.00000000000E+00 0.  1.
<scales pt_clust_3="114.78024" pt_clust_4="208.93348" pt_clust_5="30.13850" pt_clust_6="14000.00000"></scales>
<clustering>
<clus scale="   30.139">  1  5  2 -1</clus>
<clus scale="  114.780">  2  3  1 -1</clus>
<clus scale="  208.933">  2  4  1 -1</clus>
<clus scale="   30.139">  1  3  2 -1</clus>
</clustering>
</event>
<event>
 6    0  0.6687079E+002  0.1323496E+03  0.7546771E-02  0.1224010E+00
         21   -1    0    0  505  501  0.00000000000E+00  0.00000000000E+00  0.31307196146E+03  0.31307196146E+03  0.00000000000E+00 0.  1.
         21   -1    0    0  506  502 -0.00000000000E+00 -0.00000000000E+00 -0.44815539425E+03  0.44815539425E+03  0.00000000000E+00 0.  1.
         21    1    1    2  503  502 -0.52616454249E+02  0.82507262208E+02 -0.36320594580E+03  0.37615754497E+03  0.00000000000E+00 0.  1.
         21    1    1    2  504  501 -0.10809363563E+02 -0.11960759283E+03  0.23895399198E+03  0.26743565373E+03  0.00000000000E+00 0.  1.
         21    1    1    2  505  503  0.40500736747E+02 -0.14803139221E+02  0.25653751961E+02  0.50175268784E+02  0.00000000000E+00 0.  1.
         21    1    1    2  506  504  0.22925081065E+02  0.51903469848E+02 -0.36485230931E+02  0.67458888222E+02  0.00000000000E+00 0. -1.
<scales pt_clust_3="132.34962" pt_clust_4="14000.00000" pt_clust_5="43.12125" pt_clust_6="56.95127"></scales>
<clustering>
<clus scale="   43.121">  1  5  2 -1</clus>
<clus scale="   56.951">  2  6  1 -1</clus>
<clus scale="  132.350">  2  3  1 -1</clus>
<clus scale="   43.121">  1  3  2 -1</clus>
</clustering>
</event>
<event>
 6    0  0.6687079E+002  0.9799344E+02  0.7546771E-02  0.1284573E+00
         21   -1    0    0  505  501  0.00000000000E+00  0.00000000000E+00  0.16046103752E+04  0.16046103752E+04  0.00000000000E+00 0. -1.
         21   -1    0    0  506  502 -0.00000000000E+00 -0.00000000000E+00 -0.21158338681E+02  0.21158338681E+02  0.00000000000E+00 0. -1.
         21    1    1    2  503  501 -0.64923411027E+02 -0.80168032662E+02  0.74819363821E+03  0.75527192654E+03  0.00000000000E+00 0. -1.
         21    1    1    2  504  502 -0.23771905778E+02  0.92722102001E+02  0.29200223185E+03  0.30729105927E+03  0.00000000000E+00 0. -1.
         21    1    1    2  505  504  0.11158260010E+03  0.76686274918E+01  0.48137900958E+03  0.49420161407E+03  0.00000000000E+00 0. -1.
         21    1    1    2  506  503 -0.22887283292E+02 -0.20222696831E+02  0.61877156840E+02  0.69004113951E+02  0.00000000000E+00 0. -1.
<scales pt_clust_3="14000.00000" pt_clust_4="90.45439" pt_clust_5="97.99344" pt_clust_6="30.54153"></scales>
<clustering>
<clus scale="   30.542">  2  6  1 -1</clus>
<clus scale="   90.454">  2  4  1 -1</clus>
<clus scale="   97.993">  2  5  1 -1</clus>
<clus scale="   97.993">  1  3  2 -1</clus>
</clustering>
</event>
<event>
 6    0  0.6687079E+002  0.8173386E+02  0.7546771E-02  0.1324202E+00
         21   -1    0    0  503  501  0.00000000000E+00  0.00000000000E+00  0.91583333064E+03  0.91583333064E+03  0.00000000000E+00 0.  1.
         21   -1    0    0  506  502 -0.00000000000E+00 -0.00000000000E+00 -0.46449120835E+03  0.46449120835E+03  0.00000000000E+00 0. -1.
         21    1    1    2  503  504 -0.48182892940E+02  0.47058311141E+02  0.40291303899E+03  0.40850335715E+03  0.00000000000E+00 0.  1.
         21    1    1    2  504  502  0.93531539470E+02 -0.59725183909E+02  0.39043095022E+03  0.40589601298E+03  0.00000000000E+00 0.  1.
         21    1    1    2  505  501 -0.18695188627E+02 -0.37469228016E+02  0.10619150389E+03  0.11414941359E+03  0.00000000000E+00 0.  1.
         21    1    1    2  506  505 -0.26653457902E+02  0.50136100784E+02 -0.44819337079E+03  0.45177575526E+03  0.00000000000E+00 0. -1.
<scales pt_clust_3="14000.00000" pt_clust_4="81.73386" pt_clust_5="41.87425" pt_clust_6="56.72660"></scales>
<clustering>
<clus scale="   41.874">  1  5  2 -1</clus>
<clus scale="   56.727">  2  6  1 -1</clus>
<clus scale="   81.734">  2  4  1 -1</clus>
<clus scale="   41.874">  1  3  2 -1</clus>
</clustering>
</event>
<event>
 6    0  0.6687079E+002  0.7594194E+02  0.7546771E-02  0.1340979E+00
         21   -1    0    0  506  501  0.00000000000E+00  0.00000000000E+00  0.12035159841E+03  0.12035159841E+03  0.00000000000E+00 0.  1.
         21   -1    0    0  503  502 -0.00000000000E+00 -0.00000000000E+00 -0.63604026035E+03  0.63604026035E+03  0.00000000000E+00 0.  1.
         21    1    1    2  503  501 -0.44720024810E+02  0.19709982060E+02 -0.29653476680E+02  0.57163735803E+02  0.00000000000E+00 0. -1.
         21    1    1    2  504  502  0.21249197000E+02  0.52703563406E+02 -0.47512884675E+03  0.47851501019E+03  0.00000000000E+00 0.  1.
         21    1    1    2  505  504 -0.20353266283E+02 -0.11524036495E+03 -0.69354764106E+02  0.13603190974E+03  0.00000000000E+00 0. -1.
         21    1    1    2  506  505  0.43824094093E+02  0.42826819488E+02  0.58448425595E+02  0.84681203021E+02  0.00000000000E+00 0.  1.
<scales pt_clust_3="48.87089" pt_clust_4="56.85603" pt_clust_5="75.94194" pt_clust_6="14000.00000"></scales>
<clustering>
<clus scale="   48.871">  1  3  2 -1</clus>
<clus scale="   56.856">  2  4  1 -1</clus>
<clus scale="   75.942">  2  5  1 -1</clus>
<clus scale="   48.871">  1  3  2 -1</clus>
</clustering>
</event>
<event>
 6    0  0.6687079E+002  0.1891222E+03  0.7546771E-02  0.1159255E+00
         21   -1    0    0  504  501  0.00000000000E+00  0.00000000000E+00  0.11093428470E+04  0.11093428470E+04  0.00000000000E+00 0.  1.
         21   -1    0    0  506  502 -0.00000000000E+00 -0.00000000000E+00 -0.18079371366E+03  0.18079371366E+03  0.00000000000E+00 0.  1.
         21    1    1    2  503  502  0.12815645010E+03  0.57393512161E+02  0.12802646144E+03  0.19002332954E+03  0.00000000000E+00 0.  1.
         21    1    1    2  504  503 -0.20532907859E+03 -0.45463022129E+02  0.87428033345E+03  0.89921800380E+03  0.00000000000E+00 0.  1.
         21    1    1    2  505  501  0.56406768624E+00 -0.39997815365E+02  0.42823572065E+02  0.58600356063E+02  0.00000000000E+00 0.  1.
         21    1    1    2  506  505  0.76608560801E+02  0.28067325332E+02 -0.11658123365E+03  0.14229487123E+03  0.00000000000E+00 0.  1.
<scales pt_clust_3="14000.00000" pt_clust_4="189.12221" pt_clust_5="40.00179" pt_clust_6="81.42889"></scales>
<clustering>
<clus scale="   40.002">  1  5  2 -1</clus>
<clus scale="   81.429">  2  6  1 -1</clus>
<clus scale="  189.122">  1  4  2 -1</clus>
<clus scale="   40.002">  1  3  2 -1</clus>
</clustering>
</event>
<event>
 6    0  0.6687079E+002  0.1123750E+03  0.7546771E-02  0.1256234E+00
         21   -1    0    0  505  501  0.00000000000E+00  0.00000000000E+00  0.20042602795E+04  0.20042602795E+04  0.00000000000E+00 0.  1.
         21   -1    0    0  506  502 -0.00000000000E+00 -0.00000000000E+00 -0.17048836757E+03  0.17048836757E+03  0.00000000000E+00 0.  1.
         21    1    1    2  503  501  0.86606353317E+02 -0.11028134430E+03  0.30648642662E+02  0.14353387974E+03  0.00000000000E+00 0.  1.
         21    1    1    2  504  503 -0.97671956917E+02  0.33844538106E+02  0.13504277986E+01  0.10337837096E+03  0.00000000000E+00 0.  1.
         21    1    1    2  505  502 -0.15643502221E+02  0.44263816868E+02  0.18575403468E+04  0.18581335110E+04  0.00000000000E+00 0.  1.
         21    1    1    2  506  504  0.26709105822E+02  0.32172989330E+02 -0.55767505344E+02  0.69702885367E+02  0.00000000000E+00 0.  1.
<scales pt_clust_3="14000.00000" pt_clust_4="112.37498" pt_clust_5="47.00593" pt_clust_6="41.81480"></scales>
<clustering>
<clus scale="   41.815">  2  6  1 -1</clus>
<clus scale="   47.006">  1  5  2 -1</clus>
<clus scale="  112.375">  2  4  1 -1</clus>
<clus scale="   47.006">  1  3  2 -1</clus>
</clustering>
</event>
<event>
 6    0  0.6687079E+002  0.1559954E+03  0.7546771E-02  0.1193294E+00
         21   -1    0    0  506  501  0.00000000000E+00  0.00000000000E+00  0.47251307112E+02  0.47251307112E+02  0.00000000000E+00 0. -1.
         21   -1    0    0  505  502 -0.00000000000E+00 -0.00000000000E+00 -0.13854856278E+04  0.13854856278E+04  0.00000000000E+00 0.  1.
         21    1    1    2  503  502 -0.28531434833E+02 -0.28404602203E+02 -0.37756068318E+03  0.37970111099E+03  0.00000000000E+00 0.  1.
         21    1    1    2  504  501  0.74278780654E+02  0.35929053965E+02 -0.43048984115E+03  0.43832606300E+03  0.00000000000E+00 0.  1.
         21    1    1    2  505  504  0.77434793169E+02  0.70630950464E+02 -0.41727456291E+03  0.43023591111E+03  0.00000000000E+00 0.  1.
         21    1    1    2  506  503 -0.12318213899E+03 -0.78155402226E+02 -0.11290923342E+03  0.18447384979E+03  0.00000000000E+00 0. -1.
<scales pt_clust_3="40.25996" pt_clust_4="32.27760" pt_clust_5="32.27760" pt_clust_6="151.69443"></scales>
<clustering>
<clus scale="   32.278">  4  5 -1 -1</clus>
<clus scale="   40.260">  2  3  1 -1</clus>
<clus scale="  151.694">  1  6  2 -1</clus>
<clus scale="  151.694">  1  3  2 -1</clus>
</clustering>
</event>
<event>
 6    0  0.6687079E+002  0.1700255E+03  0.7546771E-02  0.1177821E+00
         21   -1    0    0  506  501  0.00000000000E+00  0.00000000000E+00  0.81793113155E+03  0.81793113155E+03  0.00000000000E+00 0. -1.
         21   -1    0    0  504  502 -0.00000000000E+00 -0.00000000000E+00 -0.36174276121E+03  0.36174276121E+03  0.00000000000E+00 0. -1.
         21    1    1    2  503  501  0.36210976170E+02 -0.20914714968E+02  0.78904185145E+02  0.89300226936E+02  0.00000000000E+00 0.  1.
         21    1    1    2  504  503  0.92117191237E+02  0.16433681459E+02  0.82784009450E+02  0.12493532338E+03  0.00000000000E+00 0.  1.
         21    1    1    2  505  502  0.46487582520E+02  0.21039078389E+01 -0.32163220926E+03  0.32498122991E+03  0.00000000000E+00 0. -1.
         21    1    1    2  506  505 -0.17481574993E+03  0.23771256698E+01  0.61613238501E+03  0.64045711254E+03  0.00000000000E+00 0. -1.
<scales pt_clust_3="38.20198" pt_clust_4="38.20198" pt_clust_5="46.53517" pt_clust_6="160.13454"></scales>
<clustering>
<clus scale="   38.202">  3  4 -1 -1</clus>
<clus scale="   46.535">  2  5  1 -1</clus>
<clus scale="  160.135">  1  6  2 -1</clus>
<clus scale="  160.135">  1  3  2 -1</clus>
</clustering>
</event>
<event>
 6    0  0.2073946E+003  0.3460208E+03  0.7546771E-02  0.1064260E+00
         21   -1    0    0  503  501  0.00000000000E+00  0.00000000000E+00  0.23608593420E+04  0.23608593420E+04  0.00000000000E+00 0.  1.
         21   -1    0    0  506  502 -0.00000000000E+00 -0.00000000000E+00 -0.93389072099E+03  0.93389072099E+03  0.00000000000E+00 0. -1.
         21    1    1    2  503  504  0.18117256370E+02  0.55694358452E+02  0.13476500686E+04  0.13489220896E+04  0.00000000000E+00 0.  1.
         21    1    1    2  504  505  0.47360552578E+02 -0.36849002468E+02 -0.15308014647E+03  0.16442141639E+03  0.00000000000E+00 0. -1.
         21    1    1    2  505  502  0.69790899383E+02 -0.27886339927E+03 -0.72512572791E+03  0.78002749078E+03  0.00000000000E+00 0. -1.
         21    1    1    2  506  501 -0.13526870833E+03  0.26001804328E+03  0.95752442677E+03  0.10013790662E+04  0.00000000000E+00 0.  1.
<scales pt_clust_3="58.56703" pt_clust_4="39.14176" pt_clust_5="39.14176" pt_clust_6="335.24766"></scales>
<clustering>
<clus scale="   39.142">  4  5 -1 -1</clus>
<clus scale="   58.567">  1  3  2 -1</clus>
<clus scale="  335.248">  1  6  2 -1</clus>
<clus scale="   58.567">  1  3  2 -1</clus>
</clustering>
</event>
<event>
 6    0  0.6687079E+002  0.1323421E+03  0.7546771E-02  0.1224021E+00
         21   -1    0    0  503  501  0.00000000000E+00  0.00000000000E+00  0.13008730165E+03  0.13008730165E+03  0.00000000000E+00 0.  1.
         21   -1    0    0  506  502 -0.00000000000E+00 -0.00000000000E+00 -0.20781791532E+04  0.20781791532E+04  0.00000000000E+00 0.  1.
         21    1    1    2  503  502 -0.38588369531E+02 -0.64024967193E+02 -0.27892579933E+01  0.74806675152E+02  0.00000000000E+00 0.  1.
         21    1    1    2  504  501  0.12936407000E+03 -0.43203483246E+02  0.39693901180E+02  0.14204650423E+03  0.00000000000E+00 0.  1.
         21    1    1    2  505  504 -0.38571632088E+02  0.75171727426E+02 -0.72108233947E+03  0.72601535775E+03  0.00000000000E+00 0.  1.
         21    1    1    2  506  505 -0.52204068385E+02  0.32056723014E+02 -0.12639141553E+04  0.12653979177E+04  0.00000000000E+00 0.  1.
<scales pt_clust_3="74.78752" pt_clust_4="14000.00000" pt_clust_5="132.34213" pt_clust_6="61.26090"></scales>
<clustering>
<clus scale="   61.261">  2  6  1 -1</clus>
<clus scale="   74.788">  1  3  2 -1</clus>
<clus scale="  132.342">  2  5  1 -1</clus>
<clus scale="   74.788">  1  3  2 -1</clus>
</clustering>
</event>
<event>
 6    0  0.6687079E+002  0.1124570E+03  0.7546771E-02  0.1256086E+00
         21   -1    0    0  504  501  0.00000000000E+00  0.00000000000E+00  0.17532728607E+03  0.17532728607E+03  0.00000000000E+00 0. -1.
         21   -1    0    0  505  502 -0.00000000000E+00 -0.00000000000E+00 -0.13099670782E+04  0.13099670782E+04  0.00000000000E+00 0. -1.
         21    1    1    2  503  506 -0.30637114354E+02 -0.72145476885E+02 -0.23502701769E+03  0.24775250080E+03  0.00000000000E+00 0.  1.
         21    1    1    2  504  503  0.11644564130E+03  0.35424409794E+02  0.13803161465E+03  0.18403043995E+03  0.00000000000E+00 0. -1.
         21    1    1    2  505  501 -0.63186046411E+02  0.83445730012E+01 -0.12653875061E+03  0.14168332212E+03  0.00000000000E+00 0. -1.
         21    1    1    2  506  502 -0.22622480535E+02  0.28376494090E+02 -0.91110563845E+03  0.91182810138E+03  0.00000000000E+00 0. -1.
<scales pt_clust_3="70.61380" pt_clust_4="14000.00000" pt_clust_5="112.45705" pt_clust_6="36.29052"></scales>
<clustering>
<clus scale="   36.291">  2  6  1 -1</clus>
<clus scale="   70.614">  2  3  1 -1</clus>
<clus scale="  112.457">  2  5  1 -1</clus>
<clus scale="  112.457">  1  3  2 -1</clus>
</clustering>
</event>
<event>
 6    0  0.6687079E+002  0.6866056E+02  0.7546771E-02  0.1364708E+00
         21   -1    0    0  503  501  0.00000000000E+00  0.00000000000E+00  0.57876086928E+02  0.57876086928E+02  0.00000000000E+00 0. -1.
         21   -1    0    0  506  502 -0.00000000000E+00 -0.00000000000E+00 -0.66378754401E+03  0.66378754401E+03  0.00000000000E+00 0. -1.
         21    1    1    2  503  504  0.18866968275E+02 -0.34102726963E+02  0.14379835515E+02  0.41542004618E+02  0.00000000000E+00 0. -1.
         21    1    1    2  504  505 -0.90455015559E+01  0.11592644001E+03 -0.13791973471E+03  0.18039571451E+03  0.00000000000E+00 0. -1.
         21    1    1    2  505  502  0.27636964560E+02 -0.57565516906E+02 -0.40819468107E+03  0.41315915602E+03  0.00000000000E+00 0. -1.
         21    1    1    2  506  501 -0.37458431279E+02 -0.24258196141E+02 -0.74176876827E+02  0.86566755800E+02  0.00000000000E+00 0. -1.
<scales pt_clust_3="38.97382" pt_clust_4="68.66056" pt_clust_5="14000.00000" pt_clust_6="45.89834"></scales>
<clustering>
<clus scale="   38.974">  1  3  2 -1</clus>
<clus scale="   45.898">  1  6  2 -1</clus>
<clus scale="   68.661">  1  4  2 -1</clus>
<clus scale="   38.974">  1  3  2 -1</clus>
</clustering>
</event>
<event>
 6    0  0.6687079E+002  0.1576158E+03  0.7546771E-02  0.1191415E+00
         21   -1    0    0  505  501  0.00000000000E+00  0.00000000000E+00  0.18425920338E+03  0.18425920338E+03  0.00000000000E+00 0.  1.
         21   -1    0    0  504  502 -0.00000000000E+00 -0.00000000000E+00 -0.95978929319E+03  0.95978929319E+03  0.00000000000E+00 0. -1.
         21    1    1    2  503  501  0.88054291593E+02  0.83871200419E+02  0.17479591502E+02  0.12285549498E+03  0.00000000000E+00 0. -1.
         21    1    1    2  504  503  0.86000462446E+01  0.67897966542E+02 -0.82440626939E+03  0.82724228111E+03  0.00000000000E+00 0. -1.
         21    1    1    2  505  506 -0.84609930591E+02 -0.89722139423E+02  0.41126143156E+02  0.13000100887E+03  0.00000000000E+00 0.  1.
         21    1    1    2  506  502 -0.12044407246E+02 -0.62047027538E+02 -0.97295550722E+01  0.63949711603E+02  0.00000000000E+00 0.  1.
<scales pt_clust_3="143.48360" pt_clust_4="68.44045" pt_clust_5="46.69945" pt_clust_6="46.69945"></scales>
<clustering>
<clus scale="   46.699">  5  6 -1 -1</clus>
<clus scale="   68.440">  2  4  1 -1</clus>
<clus scale="  143.484">  1  3  2 -1</clus>
<clus scale="  143.484">  1  3  2 -1</clus>
</clustering>
</event>
<event>
 6    0  0.6687079E+002  0.2010586E+03  0.7546771E-02  0.1148849E+00
         21   -1    0    0  503  501  0.00000000000E+00  0.00000000000E+00  0.18842738011E+03  0.18842738011E+03  0.00000000000E+00 0. -1.
         21   -1    0    0  506  502 -0.00000000000E+00 -0.00000000000E+00 -0.83144712939E+03  0.83144712939E+03  0.00000000000E+00 0.  1.
         21    1    1    2  503  504  0.59633201937E+02 -0.13908023715E+02  0.12030955133E+02  0.62404292948E+02  0.00000000000E+00 0. -1.
         21    1    1    2  504  502  0.14906754788E+03  0.80230581317E+02  0.20402622775E+02  0.17051201431E+03  0.00000000000E+00 0. -1.
         21    1    1    2  505  501 -0.48932782281E+02  0.27267290373E+02  0.25798752260E+02  0.61672505415E+02  0.00000000000E+00 0. -1.
         21    1    1    2  506  505 -0.15976796754E+03 -0.93589847975E+02 -0.70125207944E+03  0.72528569682E+03  0.00000000000E+00 0.  1.
<scales pt_clust_3="43.55008" pt_clust_4="43.55008" pt_clust_5="56.01716" pt_clust_6="187.56650"></scales>
<clustering>
<clus scale="   43.550">  3  4 -1 -1</clus>
<clus scale="   56.017">  1  5  2 -1</clus>
<clus scale="  187.567">  2  6  1 -1</clus>
<clus scale="   56.017">  1  3  2 -1</clus>
</clustering>
</event>
<event>
 6    0  0.6687079E+002  0.1017886E+03  0.7546771E-02  0.1276579E+00
         21   -1    0    0  504  501  0.00000000000E+00  0.00000000000E+00  0.18070938569E+03  0.18070938569E+03  0.00000000000E+00 0. -1.
         21   -1    0    0  503  502 -0.00000000000E+00 -0.00000000000E+00 -0.33185624548E+03  0.33185624548E+03  0.00000000000E+00 0.  1.
         21    1    1    2  503  501 -0.77226611269E+02  0.41769470615E+02 -0.35468685040E+02  0.94692480071E+02  0.00000000000E+00 0.  1.
         21    1    1    2  504  505 -0.70419019488E+02 -0.61501248327E+02  0.11053846964E+03  0.14477567172E+03  0.00000000000E+00 0. -1.
         21    1    1    2  505  506  0.73444917590E+02  0.20027540409E+02 -0.89111480520E+02  0.11720117002E+03  0.00000000000E+00 0. -1.
         21    1    1    2  506  502  0.74200713167E+02 -0.29576269663E+00 -0.13710516388E+03  0.15589630936E+03  0.00000000000E+00 0.  1.
<scales pt_clust_3="87.79885" pt_clust_4="95.60976" pt_clust_5="34.47957" pt_clust_6="34.47957"></scales>
<clustering>
<clus scale="   34.480">  5  6 -1 -1</clus>
<clus scale="   87.799">  2  3  1 -1</clus>
<clus scale="   95.610">  1  4  2 -1</clus>
<clus scale="   95.610">  1  3  2 -1</clus>
</clustering>
</event>
<event>
 6    0  0.6687079E+002  0.2897626E+03  0.7546771E-02  0.1090473E+00
         21   -1    0    0  504  501  0.00000000000E+00  0.00000000000E+00  0.98015165890E+03  0.98015165890E+03  0.00000000000E+00 0. -1.
         21   -1    0    0  503  502 -0.00000000000E+00 -0.00000000000E+00 -0.80894058192E+03  0.80894058192E+03  0.00000000000E+00 0.  1.
         21    1    1    2  503  501  0.41350018367E+02  0.47727816421E+02 -0.35960305004E+03  0.36510563140E+03  0.00000000000E+00 0.  1.
         21    1    1    2  504  506 -0.28301885872E+03  0.53284054864E+02  0.91370072149E+03  0.95801245991E+03  0.00000000000E+00 0. -1.
         21    1    1    2  505  502  0.14846614262E+03 -0.69761999169E+02 -0.27336937391E+03  0.31880989104E+03  0.00000000000E+00 0.  1.
         21    1    1    2  506  505  0.93202697729E+02 -0.31249872116E+02 -0.10951722057E+03  0.14716425848E+03  0.00000000000E+00 0.  1.
<scales pt_clust_3="63.14878" pt_clust_4="286.42595" pt_clust_5="33.94256" pt_clust_6="33.94256"></scales>
<clustering>
<clus scale="   33.943">  5  6 -1 -1</clus>
<clus scale="   63.149">  2  3  1 -1</clus>
<clus scale="  286.426">  1  4  2 -1</clus>
<clus scale="  286.426">  1  3  2 -1</clus>
</clustering>
</event>
<event>
 6    0  0.6687079E+002  0.2230338E+03  0.7546771E-02  0.1131641E+00
         21   -1    0    0  506  501  0.00000000000E+00  0.00000000000E+00  0.30273652039E+04  0.30273652039E+04  0.00000000000E+00 0. -1.
         21   -1    0    0  503  502 -0.00000000000E+00 -0.00000000000E+00 -0.16296973099E+03  0.16296973099E+03  0.00000000000E+00 0.  1.
         21    1    1    2  503  504 -0.12286123446E+03 -0.18989461870E+03 -0.72871186823E+02  0.23762377619E+03  0.00000000000E+00 0.  1.
         21    1    1    2  504  501  0.91573167166E+02  0.99143989412E+02  0.23589583226E+04  0.23628160197E+04  0.00000000000E+00 0. -1.
         21    1    1    2  505  502  0.50186517482E+02  0.51105708119E+02  0.32407648134E+03  0.33189764341E+03  0.00000000000E+00 0.  1.
         21    1    1    2  506  505 -0.18898450192E+02  0.39644921169E+02  0.25423185585E+03  0.25799749558E+03  0.00000000000E+00 0. -1.
<scales pt_clust_3="223.03377" pt_clust_4="14000.00000" pt_clust_5="73.57025" pt_clust_6="43.91892"></scales>
<clustering>
<clus scale="   43.919">  1  6  2 -1</clus>
<clus scale="   73.570">  1  5  2 -1</clus>
<clus scale="  223.034">  2  3  1 -1</clus>
<clus scale="   43.919">  1  3  2 -1</clus>
</clustering>
</event>
<event>
 6    0  0.6687079E+002  0.1314425E+03  0.7546771E-02  0.1225331E+00
         21   -1    0    0  504  501  0.00000000000E+00  0.00000000000E+00  0.50556542900E+03  0.50556542900E+03  0.00000000000E+00 0.  1.
         21   -1    0    0  505  502 -0.00000000000E+00 -0.00000000000E+00 -0.80611472328E+02  0.80611472328E+02  0.00000000000E+00 0.  1.
         21    1    1    2  503  502  0.11649902954E+02 -0.12541837309E+03 -0.58051348891E+01  0.12609198285E+03  0.00000000000E+00 0.  1.
         21    1    1    2  504  506 -0.11784062742E+02  0.41480014982E+02  0.20451761609E+03  0.20901414083E+03  0.00000000000E+00 0.  1.
         21    1    1    2  505  501 -0.28123786550E+02  0.23579772000E+02  0.45647011916E+02  0.58571347213E+02  0.00000000000E+00 0. -1.
         21    1    1    2  506  503  0.28257946338E+02  0.60358586113E+02  0.18059446356E+03  0.19249943044E+03  0.00000000000E+00 0.  1.
<scales pt_clust_3="122.54709" pt_clust_4="42.55977" pt_clust_5="36.70086" pt_clust_6="42.55977"></scales>
<clustering>
<clus scale="   36.701">  1  5  2 -1</clus>
<clus scale="   42.560">  4  6 -1 -1</clus>
<clus scale="  122.547">  2  3  1 -1</clus>
<clus scale="   36.701">  1  3  2 -1</clus>
</clustering>
</event>
<event>
 6    0  0.6687079E+002  0.1884553E+03  0.7546771E-02  0.1159862E+00
         21   -1    0    0  503  501  0.00000000000E+00  0.00000000000E+00  0.26401855023E+03  0.26401855023E+03  0.00000000000E+00 0. -1.
         21   -1    0    0  504  502 -0.00000000000E+00 -0.00000000000E+00 -0.32417732803E+03  0.32417732803E+03  0.00000000000E+00 0. -1.
         21    1    1    2  503  505 -0.86331832523E+02 -0.74474350797E+02 -0.18648605222E+02  0.11553088206E+03  0.00000000000E+00 0. -1.
         21    1    1    2  504  501  0.18870103651E+02  0.56114122489E+02  0.12490174327E+03  0.13822199907E+03  0.00000000000E+00 0. -1.
         21    1    1    2  505  506 -0.95317081980E+02 -0.42905300240E+02 -0.18555633956E+02  0.10616271689E+03  0.00000000000E+00 0. -1.
         21    1    1    2  506  502  0.16277881085E+03  0.61265528549E+02 -0.14785628190E+03  0.22828028024E+03  0.00000000000E+00 0. -1.
<scales pt_clust_3="30.12045" pt_clust_4="59.20199" pt_clust_5="30.12045" pt_clust_6="185.81127"></scales>
<clustering>
<clus scale="   30.120">  3  5 -1 -1</clus>
<clus scale="   59.202">  1  4  2 -1</clus>
<clus scale="  185.811">  2  6  1 -1</clus>
<clus scale="   59.202">  1  3  2 -1</clus>
</clustering>
</event>
<event>
 6    0  0.6687079E+002  0.8721109E+02  0.7546771E-02  0.1309750E+00
         21   -1    0    0  504  501  0.00000000000E+00  0.00000000000E+00  0.10238827278E+04  0.10238827278E+04  0.00000000000E+00 0. -1.
         21   -1    0    0  505  502 -0.00000000000E+00 -0.00000000000E+00 -0.24166981433E+03  0.24166981433E+03  0.00000000000E+00 0.  1.
         21    1    1    2  503  506 -0.50595967474E+02 -0.59380612509E+02  0.44513095939E+02  0.89818844218E+02  0.00000000000E+00 0.  1.
         21    1    1    2  504  502 -0.53616662105E+02  0.66214257007E+02  0.25691722852E+03  0.27067607319E+03  0.00000000000E+00 0. -1.
         21    1    1    2  505  503  0.67688826744E+02 -0.55194919524E+02 -0.20174785689E+03  0.21984188447E+03  0.00000000000E+00 0.  1.
         21    1    1    2  506  501  0.36523802835E+02  0.48361275026E+02  0.68253044594E+03  0.68521574028E+03  0.00000000000E+00 0. -1.
<scales pt_clust_3="66.06563" pt_clust_4="14000.00000" pt_clust_5="87.21109" pt_clust_6="60.60364"></scales>
<clustering>
<clus scale="   60.604">  1  6  2 -1</clus>
<clus scale="   66.066">  1  3  2 -1</clus>
<clus scale="   87.211">  2  5  1 -1</clus>
<clus scale="   60.604">  1  3  2 -1</clus>
</clustering>
</event>
<event>
 6    0  0.6687079E+002  0.1169729E+03  0.7546771E-02  0.1248176E+00
         21   -1    0    0  505  501  0.00000000000E+00  0.00000000000E+00  0.78184336570E+03  0.78184336570E+03  0.00000000000E+00 0. -1.
         21   -1    0    0  506  502 -0.00000000000E+00 -0.00000000000E+00 -0.25233722872E+03  0.25233722872E+03  0.00000000000E+00 0.  1.
         21    1    1    2  503  501  0.11428295773E+03 -0.58593040729E+01  0.54428273895E+03  0.55618218759E+03  0.00000000000E+00 0. -1.
         21    1    1    2  504  503 -0.10332027963E+03  0.15067653070E+02  0.11436180645E+03  0.15485715071E+03  0.00000000000E+00 0. -1.
         21    1    1    2  505  502  0.13329601401E+02  0.38162980508E+02  0.89451766605E+02  0.98161651899E+02  0.00000000000E+00 0. -1.
         21    1    1    2  506  504 -0.24292279499E+02 -0.47371329505E+02 -0.21859017502E+03  0.22497960423E+03  0.00000000000E+00 0.  1.
<scales pt_clust_3="14000.00000" pt_clust_4="116.97286" pt_clust_5="40.42390" pt_clust_6="53.05090"></scales>
<clustering>
<clus scale="   40.424">  1  5  2 -1</clus>
<clus scale="   53.051">  2  6  1 -1</clus>
<clus scale="  116.973">  2  4  1 -1</clus>
<clus scale="   40.424">  1  3  2 -1</clus>
</clustering>
</event>
<event>
 6    0  0.6687079E+002  0.1227582E+03  0.7546771E-02  0.1238615E+00
         21   -1    0    0  504  501  0.00000000000E+00  0.00000000000E+00  0.10190070540E+03  0.10190070540E+03  0.00000000000E+00 0.  1.
         21   -1    0    0  503  502 -0.00000000000E+00 -0.00000000000E+00 -0.26391817172E+03  0.26391817172E+03  0.00000000000E+00 0.  1.
         21    1    1    2  503  505  0.99430157705E+02 -0.15276115121E+02 -0.12072605097E+03  0.15714482281E+03  0.00000000000E+00 0.  1.
         21    1    1    2  504  506 -0.53633778278E+02  0.37914622905E+02 -0.40947200780E+02  0.77400090788E+02  0.00000000000E+00 0.  1.
         21    1    1    2  505  501  0.31609397877E+02 -0.12339080108E+02  0.32103960164E+02  0.46712644864E+02  0.00000000000E+00 0.  1.
         21    1    1    2  506  502 -0.77405777303E+02 -0.10299427675E+02 -0.32448174732E+02  0.84561318662E+02  0.00000000000E+00 0.  1.
<scales pt_clust_3="110.26755" pt_clust_4="49.73039" pt_clust_5="33.93239" pt_clust_6="49.73039"></scales>
<clustering>
<clus scale="   33.932">  1  5  2 -1</clus>
<clus scale="   49.730">  4  6 -1 -1</clus>
<clus scale="  110.268">  2  3  1 -1</clus>
<clus scale="   33.932">  1  3  2 -1</clus>
</clustering>
</event>
<event>
 6    0  0.6687079E+002  0.7916576E+02  0.7546771E-02  0.1331436E+00
         21   -1    0    0  502  501  0.00000000000E+00  0.00000000000E+00  0.53590876720E+02  0.53590876720E+02  0.00000000000E+00 0.  1.
         21   -1    0    0  503  502 -0.00000000000E+00 -0.00000000000E+00 -0.71330332294E+03  0.71330332294E+03  0.00000000000E+00 0.  1.
         21    1    1    2  503  505  0.38475046009E+02  0.31896703561E+02 -0.25176783565E+03  0.25668029128E+03  0.00000000000E+00 0.  1.
         21    1    1    2  504  501  0.51785266220E+02 -0.54646273459E+02 -0.19954585034E+02  0.77885264745E+02  0.00000000000E+00 0.  1.
         21    1    1    2  505  506 -0.53795364373E+02 -0.65556255645E+02 -0.25387398090E+03  0.26766315036E+03  0.00000000000E+00 0.  1.
         21    1    1    2  506  504 -0.36464947855E+02  0.88305825543E+02 -0.13411604463E+03  0.16466549327E+03  0.00000000000E+00 0.  1.
<scales pt_clust_3="49.97728" pt_clust_4="14000.00000" pt_clust_5="57.18895" pt_clust_6="79.16576"></scales>
<clustering>
<clus scale="   49.977">  2  3  1 -1</clus>
<clus scale="   57.189">  2  5  1 -1</clus>
<clus scale="   79.166">  2  6  1 -1</clus>
<clus scale="   79.166">  1  3  2 -1</clus>
</clustering>
</event>
<event>
 6    0  0.6687079E+002  0.1040207E+03  0.7546771E-02  0.1272061E+00
         21   -1    0    0  505  501  0.00000000000E+00  0.00000000000E+00  0.96467670825E+03  0.96467670825E+03  0.00000000000E+00 0. -1.
         21   -1    0    0  503  502 -0.00000000000E+00 -0.00000000000E+00 -0.26673643632E+02  0.26673643632E+02  0.00000000000E+00 0. -1.
         21    1    1    2  503  501 -0.75532167941E+02  0.10090807165E+03  0.27141308563E+03  0.29925342165E+03  0.00000000000E+00 0. -1.
         21    1    1    2  504  502  0.41250080428E+02  0.39044669914E+00  0.90945333872E+02  0.99863783911E+02  0.00000000000E+00 0. -1.
         21    1    1    2  505  506  0.63818196145E+02 -0.71590509133E+02  0.43687389615E+03  0.44727705540E+03  0.00000000000E+00 0. -1.
         21    1    1    2  506  504 -0.29536108633E+02 -0.29708009214E+02  0.13877074896E+03  0.14495609091E+03  0.00000000000E+00 0.  1.
<scales pt_clust_3="104.02073" pt_clust_4="41.25193" pt_clust_5="14000.00000" pt_clust_6="38.01921"></scales>
<clustering>
<clus scale="   41.252">  2  4  1 -1</clus>
<clus scale="   38.019">  2  6  1 -1</clus>
<clus scale="  104.021">  2  3  1 -1</clus>
<clus scale="  104.021">  1  3  2 -1</clus>
</clustering>
</event>
<event>
 6    0  0.6687079E+002  0.9824206E+02  0.7546771E-02  0.1284037E+00
         21   -1    0    0  504  501  0.00000000000E+00  0.00000000000E+00  0.34726713548E+02  0.34726713548E+02  0.00000000000E+00 0. -1.
         21   -1    0    0  503  502 -0.00000000000E+00 -0.00000000000E+00 -0.73341295994E+03  0.73341295994E+03  0.00000000000E+00 0. -1.
         21    1    1    2  503  506  0.43702297851E+02 -0.52300568580E+01 -0.11593066034E+03  0.12400468676E+03  0.00000000000E+00 0.  1.
         21    1    1    2  504  502  0.13955825916E+02 -0.74259006224E+02 -0.16285246574E+03  0.17952740928E+03  0.00000000000E+00 0. -1.
         21    1    1    2  505  501 -0.10040566913E+03  0.68030332625E+02 -0.15899260647E+03  0.19997018143E+03  0.00000000000E+00 0. -1.
         21    1    1    2  506  505  0.42747545362E+02  0.11458730458E+02 -0.26091051384E+03  0.26463739601E+03  0.00000000000E+00 0. -1.
<scales pt_clust_3="38.89331" pt_clust_4="75.55902" pt_clust_5="90.16916" pt_clust_6="38.89331"></scales>
<clustering>
<clus scale="   38.893">  3  6 -1 -1</clus>
<clus scale="   75.559">  1  4  2 -1</clus>
<clus scale="   90.169">  1  5  2 -1</clus>
<clus scale="   75.559">  1  3  2 -1</clus>
</clustering>
</event>
<event>
 6    0  0.6687079E+002  0.1147270E+03  0.7546771E-02  0.1252058E+00
         21   -1    0    0  502  501  0.00000000000E+00  0.00000000000E+00  0.17771008217E+04  0.17771008217E+04  0.00000000000E+00 0. -1.
         21   -1    0    0  503  502 -0.00000000000E+00 -0.00000000000E+00 -0.91247551612E+02  0.91247551612E+02  0.00000000000E+00 0. -1.
         21    1    1    2  503  504  0.57623396304E+02 -0.24807308118E+02 -0.54523146287E+02  0.83118179833E+02  0.00000000000E+00 0. -1.
         21    1    1    2  504  506  0.74497157509E+02  0.59054370330E+00  0.58086463083E+02  0.94468049691E+02  0.00000000000E+00 0. -1.
         21    1    1    2  505  501 -0.36603016531E+02 -0.25590378921E+02  0.89785598928E+03  0.89896608712E+03  0.00000000000E+00 0. -1.
         21    1    1    2  506  505 -0.95517537283E+02  0.49807143335E+02  0.78443396399E+03  0.79179605664E+03  0.00000000000E+00 0.  1.
<scales pt_clust_3="62.35709" pt_clust_4="14000.00000" pt_clust_5="44.66149" pt_clust_6="114.72699"></scales>
<clustering>
<clus scale="   44.661">  1  5  2 -1</clus>
<clus scale="   62.357">  2  3  1 -1</clus>
<clus scale="  114.727">  1  6  2 -1</clus>
<clus scale="   44.661">  1  3  2 -1</clus>
</clustering>
</event>
<event>
 6    0  0.6687079E+002  0.7012694E+02  0.7546771E-02  0.1359662E+00
         21   -1    0    0  503  501  0.00000000000E+00  0.00000000000E+00  0.13571452924E+03  0.13571452924E+03  0.00000000000E+00 0.  1.
         21   -1    0    0  504  502 -0.00000000000E+00 -0.00000000000E+00 -0.17257298665E+03  0.17257298665E+03  0.00000000000E+00 0.  1.
         21    1    1    2  503  506  0.91532054279E+01  0.73788907878E+02  0.48769964967E+02  0.88921839715E+02  0.00000000000E+00 0.  1.
         21    1    1    2  504  501  0.12736184580E+01 -0.53190853911E+02 -0.13892875830E+01  0.53224234740E+02  0.00000000000E+00 0.  1.
         21    1    1    2  505  502  0.65027887478E+02 -0.17615194368E+02 -0.45241982462E+02  0.81152684488E+02  0.00000000000E+00 0.  1.
         21    1    1    2  506  505 -0.75454711364E+02 -0.29828595993E+01 -0.38997152330E+02  0.84988756952E+02  0.00000000000E+00 0.  1.
<scales pt_clust_3="41.64332" pt_clust_4="53.20610" pt_clust_5="14000.00000" pt_clust_6="70.12694"></scales>
<clustering>
<clus scale="   53.206">  1  4  2 -1</clus>
<clus scale="   41.643">  1  3  2 -1</clus>
<clus scale="   70.127">  1  6  2 -1</clus>
<clus scale="   53.206">  1  3  2 -1</clus>
</clustering>
</event>
<event>
 6    0  0.6687079E+002  0.3072713E+03  0.7546771E-02  0.1081661E+00
         21   -1    0    0  504  501  0.00000000000E+00  0.00000000000E+00  0.66374870184E+03  0.66374870184E+03  0.00000000000E+00 0. -1.
         21   -1    0    0  501  502 -0.00000000000E+00 -0.00000000000E+00 -0.22273256274E+03  0.22273256274E+03  0.00000000000E+00 0.  1.
         21    1    1    2  503  505  0.10321275571E+03  0.10576529327E+03  0.21838544690E+02  0.14938571631E+03  0.00000000000E+00 0. -1.
         21    1    1    2  504  506  0.35236409788E+02  0.11595997769E+02  0.27227601900E+03  0.27479137952E+03  0.00000000000E+00 0. -1.
         21    1    1    2  505  502 -0.13374514922E+03 -0.25893247375E+03  0.64694589960E+02  0.29852835857E+03  0.00000000000E+00 0.  1.
         21    1    1    2  506  503 -0.47040162844E+01  0.14157118271E+03  0.82206985449E+02  0.16377581017E+03  0.00000000000E+00 0. -1.
<scales pt_clust_3="123.86970" pt_clust_4="37.09544" pt_clust_5="279.37478" pt_clust_6="123.86970"></scales>
<clustering>
<clus scale="   37.095">  1  4  2 -1</clus>
<clus scale="  123.870">  3  6 -1 -1</clus>
<clus scale="  279.375">  2  5  1 -1</clus>
<clus scale="   37.095">  1  3  2 -1</clus>
</clustering>
</event>
<event>
 6    0  0.6687079E+002  0.9895569E+02  0.7546771E-02  0.1282507E+00
         21   -1    0    0  502  501  0.00000000000E+00  0.00000000000E+00  0.11868257497E+04  0.11868257497E+04  0.00000000000E+00 0.  1.
         21   -1    0    0  503  502 -0.00000000000E+00 -0.00000000000E+00 -0.24830705413E+03  0.24830705413E+03  0.00000000000E+00 0. -1.
         21    1    1    2  503  505  0.46538862493E+02 -0.79811609391E+02 -0.22917241222E+03  0.24709462406E+03  0.00000000000E+00 0. -1.
         21    1    1    2  504  501  0.62651886549E+02  0.53808617986E+02  0.26180272713E+03  0.27452011619E+03  0.00000000000E+00 0.  1.
         21    1    1    2  505  506 -0.48457331952E+02  0.18104020310E+02  0.28863852561E+03  0.29323721973E+03  0.00000000000E+00 0.  1.
         21    1    1    2  506  504 -0.60733417090E+02  0.78989710957E+01  0.61724985510E+03  0.62028084391E+03  0.00000000000E+00 0. -1.
<scales pt_clust_3="92.24700" pt_clust_4="82.58708" pt_clust_5="32.91523" pt_clust_6="32.91523"></scales>
<clustering>
<clus scale="   32.915">  5  6 -1 -1</clus>
<clus scale="   82.587">  1  4  2 -1</clus>
<clus scale="   92.247">  2  3  1 -1</clus>
<clus scale="   82.587">  1  3  2 -1</clus>
</clustering>
</event>
<event>
 6    0  0.6687079E+002  0.1608742E+03  0.7546771E-02  0.1187713E+00
         21   -1    0    0  506  501  0.00000000000E+00  0.00000000000E+00  0.48564021580E+03  0.48564021580E+03  0.00000000000E+00 0.  1.
         21   -1    0    0  503  502 -0.00000000000E+00 -0.00000000000E+00 -0.22693389275E+03  0.22693389275E+03  0.00000000000E+00 0. -1.
         21    1    1    2  503  505  0.30849801348E+02  0.12063572851E+03  0.17822611931E+02  0.12578686232E+03  0.00000000000E+00 0.  1.
         21    1    1    2  504  501  0.16319948967E+02  0.37670145360E+02  0.18475439522E+03  0.18926058000E+03  0.00000000000E+00 0.  1.
         21    1    1    2  505  504  0.14335207380E+03 -0.59671944532E+02  0.91292441139E+02  0.18012458976E+03  0.00000000000E+00 0. -1.
         21    1    1    2  506  502 -0.19052182411E+03 -0.98633929337E+02 -0.35163125245E+02  0.21740207648E+03  0.00000000000E+00 0.  1.
<scales pt_clust_3="134.27427" pt_clust_4="41.05339" pt_clust_5="160.87419" pt_clust_6="14000.00000"></scales>
<clustering>
<clus scale="   41.053">  1  4  2 -1</clus>
<clus scale="  134.274">  2  3  1 -1</clus>
<clus scale="  160.874">  1  5  2 -1</clus>
<clus scale="   41.053">  1  3  2 -1</clus>
</clustering>
</event>
<event>
 6    0  0.6687079E+002  0.1795792E+03  0.7546771E-02  0.1168211E+00
         21   -1    0    0  504  501  0.00000000000E+00  0.00000000000E+00  0.29958984112E+03  0.29958984112E+03  0.00000000000E+00 0.  1.
         21   -1    0    0  503  502 -0.00000000000E+00 -0.00000000000E+00 -0.61371591879E+03  0.61371591879E+03  0.00000000000E+00 0.  1.
         21    1    1    2  503  506  0.30600011812E+01  0.30435682585E+02 -0.51027400279E+03  0.51119003542E+03  0.00000000000E+00 0.  1.
         21    1    1    2  504  502 -0.16897635513E+03 -0.11664770081E+02  0.71634949218E+02  0.18390389176E+03  0.00000000000E+00 0.  1.
         21    1    1    2  505  501  0.13195246124E+03 -0.23803802956E+02  0.12579320203E+03  0.18385320976E+03  0.00000000000E+00 0.  1.
         21    1    1    2  506  505  0.33963892709E+02  0.50328904520E+01 -0.12802261290E+01  0.34358622981E+02  0.00000000000E+00 0.  1.
<scales pt_clust_3="30.58912" pt_clust_4="167.38088" pt_clust_5="33.75898" pt_clust_6="33.75898"></scales>
<clustering>
<clus scale="   30.589">  2  3  1 -1</clus>
<clus scale="   33.759">  5  6 -1 -1</clus>
<clus scale="  167.381">  2  4  1 -1</clus>
<clus scale="  179.579">  1  3  2 -1</clus>
</clustering>
</event>
<event>
 6    0  0.6687079E+002  0.9832313E+02  0.7546771E-02  0.1283862E+00
         21   -1    0    0  503  501  0.00000000000E+00  0.00000000000E+00  0.48657081153E+03  0.48657081153E+03  0.00000000000E+00 0. -1.
         21   -1    0    0  505  502 -0.00000000000E+00 -0.00000000000E+00 -0.23249017241E+03  0.23249017241E+03  0.00000000000E+00 0.  1.
         21    1    1    2  503  506 -0.35575310063E+02  0.72653496101E+02  0.41732485077E+03  0.42509312421E+03  0.00000000000E+00 0. -1.
         21    1    1    2  504  501 -0.31812943456E+02  0.51356212326E+00  0.33189350929E+02  0.45976734687E+02  0.00000000000E+00 0. -1.
         21    1    1    2  505  504  0.43770447656E+02 -0.95625509907E+02 -0.18617214633E+03  0.21382272635E+03  0.00000000000E+00 0.  1.
         21    1    1    2  506  502  0.23617805863E+02  0.22458451683E+02 -0.10261416252E+02  0.34168398693E+02  0.00000000000E+00 0.  1.
<scales pt_clust_3="98.32313" pt_clust_4="31.81709" pt_clust_5="14000.00000" pt_clust_6="31.98965"></scales>
<clustering>
<clus scale="   31.817">  1  4  2 -1</clus>
<clus scale="   31.990">  2  6  1 -1</clus>
<clus scale="   98.323">  1  3  2 -1</clus>
<clus scale="   31.817">  1  3  2 -1</clus>
</clustering>
</event>
<event>
 6    0  0.6687079E+002  0.9544257E+02  0.7546771E-02  0.1290182E+00
         21   -1    0    0  504  501  0.00000000000E+00  0.00000000000E+00  0.19299274218E+02  0.19299274218E+02  0.00000000000E+00 0.  1.
         21   -1    0    0  505  502 -0.00000000000E+00 -0.00000000000E+00 -0.15512383897E+04  0.15512383897E+04  0.00000000000E+00 0.  1.
         21    1    1    2  503  506  0.31674172409E+02 -0.43393516638E+02 -0.26389812889E+03  0.26931110804E+03  0.00000000000E+00 0.  1.
         21    1    1    2  504  502 -0.89653782292E+01  0.91019930484E+02 -0.81676073062E+03  0.82186561969E+03  0.00000000000E+00 0.  1.
         21    1    1    2  505  503  0.51903759997E+02 -0.67232036928E+00 -0.29842405367E+03  0.30290488297E+03  0.00000000000E+00 0.  1.
         21    1    1    2  506  501 -0.74612554176E+02 -0.46954093477E+02 -0.15285620234E+03  0.17645605325E+03  0.00000000000E+00 0.  1.
<scales pt_clust_3="47.11872" pt_clust_4="82.53151" pt_clust_5="47.11872" pt_clust_6="88.15736"></scales>
<clustering>
<clus scale="   47.119">  3  5 -1 -1</clus>
<clus scale="   88.157">  1  6  2 -1</clus>
<clus scale="   82.532">  2  4  1 -1</clus>
<clus scale="   88.157">  1  3  2 -1</clus>
</clustering>
</event>
<event>
 6    0  0.6687079E+002  0.8462840E+02  0.7546771E-02  0.1316407E+00
         21   -1    0    0  505  501  0.00000000000E+00  0.00000000000E+00  0.99029821589E+03  0.99029821589E+03  0.00000000000E+00 0. -1.
         21   -1    0    0  504  502 -0.00000000000E+00 -0.00000000000E+00 -0.96415659217E+02  0.96415659217E+02  0.00000000000E+00 0. -1.
         21    1    1    2  503  502 -0.76347972107E+02  0.43607232961E+02 -0.64916905202E+02  0.10929230619E+03  0.00000000000E+00 0. -1.
         21    1    1    2  504  506  0.52756573442E+02 -0.24378541952E+02  0.17514206345E+03  0.18453268474E+03  0.00000000000E+00 0. -1.
         21    1    1    2  505  503 -0.19862666957E+02  0.40052256484E+02  0.22329508372E+03  0.22772659748E+03  0.00000000000E+00 0. -1.
         21    1    1    2  506  501  0.43454065622E+02 -0.59280947494E+02  0.56036231471E+03  0.56516228669E+03  0.00000000000E+00 0. -1.
<scales pt_clust_3="14000.00000" pt_clust_4="84.62840" pt_clust_5="44.70692" pt_clust_6="41.47546"></scales>
<clustering>
<clus scale="   44.707">  1  5  2 -1</clus>
<clus scale="   41.475">  1  6  2 -1</clus>
<clus scale="   84.628">  1  4  2 -1</clus>
<clus scale="   44.707">  1  3  2 -1</clus>
</clustering>
</event>
<event>
 6    0  0.6687079E+002  0.2126129E+03  0.7546771E-02  0.1139513E+00
         21   -1    0    0  504  501  0.00000000000E+00  0.00000000000E+00  0.96533495158E+03  0.96533495158E+03  0.00000000000E+00 0.  1.
         21   -1    0    0  503  502 -0.00000000000E+00 -0.00000000000E+00 -0.26257015509E+03  0.26257015509E+03  0.00000000000E+00 0. -1.
         21    1    1    2  503  505  0.21544068966E+03 -0.35813506711E+02  0.98078738164E+02  0.23940914123E+03  0.00000000000E+00 0.  1.
         21    1    1    2  504  506 -0.78229282769E+01  0.50587606747E+02  0.52154846284E+02  0.73078260476E+02  0.00000000000E+00 0. -1.
         21    1    1    2  505  501  0.82869254772E+00 -0.44303572992E+02  0.67192953960E+03  0.67338904023E+03  0.00000000000E+00 0.  1.
         21    1    1    2  506  502 -0.20844645393E+03  0.29529472956E+02 -0.11939832756E+03  0.24202866474E+03  0.00000000000E+00 0. -1.
<scales pt_clust_3="212.61288" pt_clust_4="41.81401" pt_clust_5="44.31132" pt_clust_6="14000.00000"></scales>
<clustering>
<clus scale="   44.311">  1  5  2 -1</clus>
<clus scale="   41.814">  1  4  2 -1</clus>
<clus scale="  212.613">  1  3  2 -1</clus>
<clus scale="   44.311">  1  3  2 -1</clus>
</clustering>
</event>
<event>
 6    0  0.6687079E+002  0.8213432E+02  0.7546771E-02  0.1323101E+00
         21   -1    0    0  506  501  0.00000000000E+00  0.00000000000E+00  0.12112170999E+03  0.12112170999E+03  0.00000000000E+00 0.  1.
         21   -1    0    0  505  502 -0.00000000000E+00 -0.00000000000E+00 -0.41382679315E+03  0.41382679315E+03  0.00000000000E+00 0.  1.
         21    1    1    2  503  504 -0.36392282227E+02 -0.46518821542E+02 -0.14638480592E+03  0.15785091183E+03  0.00000000000E+00 0.  1.
         21    1    1    2  504  501 -0.31381254715E+02  0.74820791441E+02  0.71746026007E+02  0.10830709223E+03  0.00000000000E+00 0.  1.
         21    1    1    2  505  503 -0.13462793266E+02  0.30467590426E+02 -0.13359572412E+03  0.13768565057E+03  0.00000000000E+00 0.  1.
         21    1    1    2  506  502  0.81236330209E+02 -0.58769560325E+02 -0.84470579127E+02  0.13110484852E+03  0.00000000000E+00 0.  1.
<scales pt_clust_3="52.97117" pt_clust_4="82.13432" pt_clust_5="33.30947" pt_clust_6="14000.00000"></scales>
<clustering>
<clus scale="   33.309">  2  5  1 -1</clus>
<clus scale="   52.971">  2  3  1 -1</clus>
<clus scale="   82.134">  1  4  2 -1</clus>
<clus scale="   82.134">  1  3  2 -1</clus>
</clustering>
</event>
<event>
 6    0  0.6687079E+002  0.8696660E+02  0.7546771E-02  0.1310368E+00
         21   -1    0    0  502  501  0.00000000000E+00  0.00000000000E+00  0.38831284537E+02  0.38831284537E+02  0.00000000000E+00 0.  1.
         21   -1    0    0  504  502 -0.00000000000E+00 -0.00000000000E+00 -0.13426533693E+04  0.13426533693E+04  0.00000000000E+00 0.  1.
         21    1    1    2  503  505  0.32325089950E+02 -0.50847435919E+02 -0.90094521844E+02  0.10838540513E+03  0.00000000000E+00 0.  1.
         21    1    1    2  504  506 -0.35705073909E+02 -0.15254979137E+02 -0.81386307918E+03  0.81478873234E+03  0.00000000000E+00 0.  1.
         21    1    1    2  505  501  0.19535607118E+02 -0.48429106820E+02 -0.12020303283E+02  0.53586435074E+02  0.00000000000E+00 0.  1.
         21    1    1    2  506  503 -0.16155623159E+02  0.11453152188E+03 -0.38784418044E+03  0.40472408128E+03  0.00000000000E+00 0.  1.
<scales pt_clust_3="86.96660" pt_clust_4="38.82740" pt_clust_5="52.32546" pt_clust_6="14000.00000"></scales>
<clustering>
<clus scale="   38.827">  2  4  1 -1</clus>
<clus scale="   52.325">  1  5  2 -1</clus>
<clus scale="   86.967">  1  3  2 -1</clus>
<clus scale="   52.325">  1  3  2 -1</clus>
</clustering>
</event>
<event>
 6    0  0.6687079E+002  0.1196913E+03  0.7546771E-02  0.1243607E+00
         21   -1    0    0  505  501  0.00000000000E+00  0.00000000000E+00  0.35527687847E+02  0.35527687847E+02  0.00000000000E+00 0. -1.
         21   -1    0    0  501  502 -0.00000000000E+00 -0.00000000000E+00 -0.77848873622E+03  0.77848873622E+03  0.00000000000E+00 0.  1.
         21    1    1    2  503  506  0.11743682271E+03 -0.18212550364E+02 -0.29003398902E+03  0.31343710550E+03  0.00000000000E+00 0. -1.
         21    1    1    2  504  502 -0.48221923874E+02  0.19989188089E+02 -0.17545988892E+03  0.18306035672E+03  0.00000000000E+00 0.  1.
         21    1    1    2  505  503 -0.28405110072E+02 -0.61116145789E+02 -0.66837068160E+02  0.94916949143E+02  0.00000000000E+00 0. -1.
         21    1    1    2  506  504 -0.40809788760E+02  0.59339508064E+02 -0.21063010227E+03  0.22260201270E+03  0.00000000000E+00 0.  1.
<scales pt_clust_3="114.23316" pt_clust_4="30.42125" pt_clust_5="67.39461" pt_clust_6="30.42125"></scales>
<clustering>
<clus scale="   30.421">  4  6 -1 -1</clus>
<clus scale="   67.395">  1  5  2 -1</clus>
<clus scale="  114.233">  1  3  2 -1</clus>
<clus scale="   67.395">  1  3  2 -1</clus>
</clustering>
</event>
<event>
 6    0  0.6687079E+002  0.1420044E+03  0.7546771E-02  0.1210657E+00
         21   -1    0    0  503  501  0.00000000000E+00  0.00000000000E+00  0.74046340143E+03  0.74046340143E+03  0.00000000000E+00 0.  1.
         21   -1    0    0  504  502 -0.00000000000E+00 -0.00000000000E+00 -0.63386156783E+03  0.63386156783E+03  0.00000000000E+00 0.  1.
         21    1    1    2  503  506 -0.40149337466E+02 -0.36208988845E+02  0.39975019251E+03  0.40338973286E+03  0.00000000000E+00 0.  1.
         21    1    1    2  504  505  0.51594211190E+02  0.11928068971E+03 -0.60955901777E+03  0.62325920909E+03  0.00000000000E+00 0.  1.
         21    1    1    2  505  501  0.42540640176E+02 -0.19542557774E+02  0.49866149929E+02  0.68397737826E+02  0.00000000000E+00 0. -1.
         21    1    1    2  506  502 -0.53985513899E+02 -0.63529143090E+02  0.26654450893E+03  0.27927828948E+03  0.00000000000E+00 0.  1.
<scales pt_clust_3="46.10599" pt_clust_4="129.95125" pt_clust_5="46.81472" pt_clust_6="46.10599"></scales>
<clustering>
<clus scale="   46.106">  3  6 -1 -1</clus>
<clus scale="   46.815">  1  5  2 -1</clus>
<clus scale="  129.951">  2  4  1 -1</clus>
<clus scale="   46.815">  1  3  2 -1</clus>
</clustering>
</event>
<event>
 6    0  0.6687079E+002  0.8461912E+02  0.7546771E-02  0.1316432E+00
         21   -1    0    0  503  501  0.00000000000E+00  0.00000000000E+00  0.15642736637E+04  0.15642736637E+04  0.00000000000E+00 0.  1.
         21   -1    0    0  506  502 -0.00000000000E+00 -0.00000000000E+00 -0.47332769183E+02  0.47332769183E+02  0.00000000000E+00 0.  1.
         21    1    1    2  503  504  0.58922732601E+02 -0.25619481393E+02  0.12243913764E+04  0.12260760534E+04  0.00000000000E+00 0.  1.
         21    1    1    2  504  505 -0.50631033883E+02 -0.77934840519E+02  0.98955197974E+02  0.13575519204E+03  0.00000000000E+00 0.  1.
         21    1    1    2  505  502  0.44488885961E+02  0.71850855712E+01  0.36105283640E+02  0.57744938614E+02  0.00000000000E+00 0.  1.
         21    1    1    2  506  501 -0.52780584679E+02  0.96369236342E+02  0.15748903656E+03  0.19203024884E+03  0.00000000000E+00 0.  1.
<scales pt_clust_3="65.12898" pt_clust_4="84.61912" pt_clust_5="45.06536" pt_clust_6="14000.00000"></scales>
<clustering>
<clus scale="   45.065">  2  5  1 -1</clus>
<clus scale="   65.129">  1  3  2 -1</clus>
<clus scale="   84.619">  2  4  1 -1</clus>
<clus scale="   65.129">  1  3  2 -1</clus>
</clustering>
</event>
<event>
 6    0  0.6687079E+002  0.1347758E+03  0.7546771E-02  0.1220536E+00
         21   -1    0    0  504  501  0.00000000000E+00  0.00000000000E+00  0.54491545931E+02  0.54491545931E+02  0.00000000000E+00 0.  1.
         21   -1    0    0  503  502 -0.00000000000E+00 -0.00000000000E+00 -0.10185326706E+04  0.10185326706E+04  0.00000000000E+00 0.  1.
         21    1    1    2  503  506 -0.34576567677E+02  0.11785159398E+03 -0.85746106604E+03  0.86621245490E+03  0.00000000000E+00 0.  1.
         21    1    1    2  504  502  0.40580496944E+02  0.40166751649E+01 -0.37832082798E+02  0.55625326071E+02  0.00000000000E+00 0. -1.
         21    1    1    2  505  501  0.11263398159E+02 -0.50919651807E+02 -0.18941117540E+01  0.52184889935E+02  0.00000000000E+00 0.  1.
         21    1    1    2  506  505 -0.17267327427E+02 -0.70948617337E+02 -0.66853864122E+02  0.99001545677E+02  0.00000000000E+00 0.  1.
<scales pt_clust_3="122.15317" pt_clust_4="40.77880" pt_clust_5="52.52093" pt_clust_6="52.52093"></scales>
<clustering>
<clus scale="   40.779">  1  4  2 -1</clus>
<clus scale="   52.521">  5  6 -1 -1</clus>
<clus scale="  122.153">  2  3  1 -1</clus>
<clus scale="   40.779">  1  3  2 -1</clus>
</clustering>
</event>
<event>
 6    0  0.6687079E+002  0.1293200E+03  0.7546771E-02  0.1228468E+00
         21   -1    0    0  505  501  0.00000000000E+00  0.00000000000E+00  0.35943917240E+03  0.35943917240E+03  0.00000000000E+00 0.  1.
         21   -1    0    0  503  502 -0.00000000000E+00 -0.00000000000E+00 -0.83878923784E+03  0.83878923784E+03  0.00000000000E+00 0. -1.
         21    1    1    2  503  506 -0.30331257492E+02  0.77679640799E+02 -0.38476438439E+03  0.39369752764E+03  0.00000000000E+00 0. -1.
         21    1    1    2  504  502 -0.22820095688E+02 -0.75374476358E+02 -0.17533996628E+03  0.19221387106E+03  0.00000000000E+00 0. -1.
         21    1    1    2  505  504  0.97990420635E+02 -0.73586965484E+02  0.32851973787E+03  0.35063140503E+03  0.00000000000E+00 0.  1.
         21    1    1    2  506  501 -0.44839067455E+02  0.71281801043E+02 -0.24776545264E+03  0.26168560651E+03  0.00000000000E+00 0. -1.
<scales pt_clust_3="39.71709" pt_clust_4="78.75321" pt_clust_5="123.00684" pt_clust_6="39.71709"></scales>
<clustering>
<clus scale="   39.717">  3  6 -1 -1</clus>
<clus scale="   78.753">  2  4  1 -1</clus>
<clus scale="  123.007">  1  5  2 -1</clus>
<clus scale="  123.007">  1  3  2 -1</clus>
</clustering>
</event>
<event>
 6    0  0.6687079E+002  0.1974301E+03  0.7546771E-02  0.1151926E+00
         21   -1    0    0  506  501  0.00000000000E+00  0.00000000000E+00  0.20334389171E+03  0.20334389171E+03  0.00000000000E+00 0. -1.
         21   -1    0    0  504  502 -0.00000000000E+00 -0.00000000000E+00 -0.35711209526E+03  0.35711209526E+03  0.00000000000E+00 0. -1.
         21    1    1    2  503  505 -0.24186507102E+02 -0.72773283518E+02  0.13979253699E+01  0.76700013788E+02  0.00000000000E+00 0. -1.
         21    1    1    2  504  501  0.14763386693E+03  0.13522388586E+03 -0.13105167145E+03  0.23928183918E+03  0.00000000000E+00 0. -1.
         21    1    1    2  505  502 -0.32370634391E+02 -0.10788099135E+03 -0.70231122350E+02  0.13273498714E+03  0.00000000000E+00 0. -1.
         21    1    1    2  506  503 -0.91076725434E+02  0.45430389004E+02  0.46116664892E+02  0.11173914686E+03  0.00000000000E+00 0. -1.
<scales pt_clust_3="47.33136" pt_clust_4="188.91348" pt_clust_5="47.33136" pt_clust_6="101.77863"></scales>
<clustering>
<clus scale="   47.331">  3  5 -1 -1</clus>
<clus scale="  101.779">  1  6  2 -1</clus>
<clus scale="  188.913">  2  4  1 -1</clus>
<clus scale="  101.779">  1  3  2 -1</clus>
</clustering>
</event>
<event>
 6    0  0.6687079E+002  0.8763234E+02  0.7546771E-02  0.1308689E+00
         21   -1    0    0  504  501  0.00000000000E+00  0.00000000000E+00  0.55314723293E+02  0.55314723293E+02  0.00000000000E+00 0.  1.
         21   -1    0    0  506  502 -0.00000000000E+00 -0.00000000000E+00 -0.13054428633E+04  0.13054428633E+04  0.00000000000E+00 0.  1.
         21    1    1    2  503  502  0.25460526120E+02  0.26898956277E+02 -0.55123361307E+03  0.55247650485E+03  0.00000000000E+00 0.  1.
         21    1    1    2  504  505 -0.12874453192E+02 -0.36566735114E+02  0.23870761576E+02  0.45526815396E+02  0.00000000000E+00 0.  1.
         21    1    1    2  505  503 -0.82253594946E+01  0.10945006487E+03 -0.17960420077E+03  0.21048667933E+03  0.00000000000E+00 0.  1.
         21    1    1    2  506  501 -0.43607134328E+01 -0.99782286037E+02 -0.54316108769E+03  0.55226758697E+03  0.00000000000E+00 0.  1.
<scales pt_clust_3="37.03771" pt_clust_4="38.28152" pt_clust_5="14000.00000" pt_clust_6="87.63234"></scales>
<clustering>
<clus scale="   37.038">  2  3  1 -1</clus>
<clus scale="   38.282">  1  4  2 -1</clus>
<clus scale="   87.632">  2  6  1 -1</clus>
<clus scale="   38.282">  1  3  2 -1</clus>
</clustering>
</event>
<event>
 6    0  0.6687079E+002  0.1200362E+03  0.7546771E-02  0.1243037E+00
         21   -1    0    0  503  501  0.00000000000E+00  0.00000000000E+00  0.20271497495E+03  0.20271497495E+03  0.00000000000E+00 0. -1.
         21   -1    0    0  505  502 -0.00000000000E+00 -0.00000000000E+00 -0.34241110227E+03  0.34241110227E+03  0.00000000000E+00 0. -1.
         21    1    1    2  503  504 -0.17972777971E+02  0.34610136391E+02  0.14333610482E+03  0.14854669715E+03  0.00000000000E+00 0. -1.
         21    1    1    2  504  502 -0.96688840874E+02 -0.97526940821E+01 -0.11999563890E+02  0.97917498563E+02  0.00000000000E+00 0. -1.
         21    1    1    2  505  506  0.67506168611E+02 -0.14635861284E+02 -0.20871433295E+03  0.21984759270E+03  0.00000000000E+00 0. -1.
         21    1    1    2  506  501  0.47155450234E+02 -0.10221581024E+02 -0.62318335306E+02  0.78814288811E+02  0.00000000000E+00 0. -1.
<scales pt_clust_3="38.99849" pt_clust_4="111.50629" pt_clust_5="37.14321" pt_clust_6="37.14321"></scales>
<clustering>
<clus scale="   37.143">  5  6 -1 -1</clus>
<clus scale="   38.998">  1  3  2 -1</clus>
<clus scale="  111.506">  1  4  2 -1</clus>
<clus scale="   38.998">  1  3  2 -1</clus>
</clustering>
</event>
<event>
 6    0  0.6687079E+002  0.1209042E+03  0.7546771E-02  0.1241613E+00
         21   -1    0    0  506  501  0.00000000000E+00  0.00000000000E+00  0.63223985908E+02  0.63223985908E+02  0.00000000000E+00 0.  1.
         21   -1    0    0  503  502 -0.00000000000E+00 -0.00000000000E+00 -0.16405749663E+04  0.16405749663E+04  0.00000000000E+00 0.  1.
         21    1    1    2  503  501 -0.17012038096E+03 -0.83718710942E+02 -0.20095544178E+03  0.27628401358E+03  0.00000000000E+00 0.  1.
         21    1    1    2  504  505  0.47589068245E+02  0.69653021307E+02 -0.13375059194E+03  0.15813122284E+03  0.00000000000E+00 0.  1.
         21    1    1    2  505  502  0.10414778734E+03  0.50786353640E+02 -0.12135184968E+04  0.12190377998E+04  0.00000000000E+00 0.  1.
         21    1    1    2  506  504  0.18383525383E+02 -0.36720664005E+02 -0.29126449851E+02  0.50345915936E+02  0.00000000000E+00 0.  1.
<scales pt_clust_3="120.90423" pt_clust_4="80.16846" pt_clust_5="14000.00000" pt_clust_6="41.06533"></scales>
<clustering>
<clus scale="   41.065">  1  6  2 -1</clus>
<clus scale="   80.168">  1  4  2 -1</clus>
<clus scale="  120.904">  1  3  2 -1</clus>
<clus scale="   41.065">  1  3  2 -1</clus>
</clustering>
</event>
<event>
 6    0  0.6687079E+002  0.1338116E+03  0.7546771E-02  0.1221907E+00
         21   -1    0    0  504  501  0.00000000000E+00  0.00000000000E+00  0.93956488091E+03  0.93956488091E+03  0.00000000000E+00 0.  1.
         21   -1    0    0  506  502 -0.00000000000E+00 -0.00000000000E+00 -0.56388749352E+02  0.56388749352E+02  0.00000000000E+00 0.  1.
         21    1    1    2  503  505 -0.13520473297E+03  0.36186210285E+02  0.15626167052E+03  0.20977957791E+03  0.00000000000E+00 0.  1.
         21    1    1    2  504  503  0.68043167737E+02 -0.89371480869E+02  0.54561928377E+03  0.55706152002E+03  0.00000000000E+00 0.  1.
         21    1    1    2  505  502 -0.21372780848E+02  0.33073017221E+02  0.20349381392E+02  0.44325134543E+02  0.00000000000E+00 0.  1.
         21    1    1    2  506  501  0.88534346082E+02  0.20112253363E+02  0.16094579588E+03  0.18478739779E+03  0.00000000000E+00 0.  1.
<scales pt_clust_3="33.81554" pt_clust_4="117.64848" pt_clust_5="33.81554" pt_clust_6="90.79005"></scales>
<clustering>
<clus scale="   33.816">  3  5 -1 -1</clus>
<clus scale="   90.790">  2  6  1 -1</clus>
<clus scale="  117.648">  1  4  2 -1</clus>
<clus scale="  117.648">  1  3  2 -1</clus>
</clustering>
</event>
<event>
 6    0  0.6687079E+002  0.1980434E+03  0.7546771E-02  0.1151400E+00
         21   -1    0    0  505  501  0.00000000000E+00  0.00000000000E+00  0.14204932318E+04  0.14204932318E+04  0.00000000000E+00 0. -1.
         21   -1    0    0  504  502 -0.00000000000E+00 -0.00000000000E+00 -0.29189287011E+02  0.29189287011E+02  0.00000000000E+00 0. -1.
         21    1    1    2  503  501 -0.22450704470E+02 -0.53877552562E+02  0.34101411697E+03  0.34597319661E+03  0.00000000000E+00 0. -1.
         21    1    1    2  504  503  0.56863096062E+02 -0.12399637240E+03  0.53027301707E+03  0.54753811255E+03  0.00000000000E+00 0. -1.
         21    1    1    2  505  506 -0.82845968936E+00  0.14444401737E+03  0.44079766104E+03  0.46386133540E+03  0.00000000000E+00 0. -1.
         21    1    1    2  506  502 -0.33583931903E+02  0.33429907593E+02  0.79219149714E+02  0.92309874256E+02  0.00000000000E+00 0.  1.
<scales pt_clust_3="52.32104" pt_clust_4="52.32104" pt_clust_5="197.25347" pt_clust_6="44.68103"></scales>
<clustering>
<clus scale="   44.681">  5  6 -1 -1</clus>
<clus scale="   52.321">  3  4 -1 -1</clus>
<clus scale="  197.253">  2  5  1 -1</clus>
<clus scale="  198.043">  1  3  2 -1</clus>
</clustering>
</event>
<event>
 6    0  0.6687079E+002  0.1512838E+03  0.7546771E-02  0.1198904E+00
         21   -1    0    0  503  501  0.00000000000E+00  0.00000000000E+00  0.92050607931E+03  0.92050607931E+03  0.00000000000E+00 0.  1.
         21   -1    0    0  501  502 -0.00000000000E+00 -0.00000000000E+00 -0.29611818614E+02  0.29611818614E+02  0.00000000000E+00 0.  1.
         21    1    1    2  503  505 -0.68086833384E+02  0.61229463625E+02  0.54151641491E+03  0.54920387081E+03  0.00000000000E+00 0.  1.
         21    1    1    2  504  506  0.55015521248E+02 -0.28025036388E+02  0.71622734001E+02  0.94561759018E+02  0.00000000000E+00 0.  1.
         21    1    1    2  505  504 -0.36561815092E+02  0.30805272736E+02  0.11548221531E+03  0.12498749219E+03  0.00000000000E+00 0.  1.
         21    1    1    2  506  502  0.49633127227E+02 -0.64009699973E+02  0.16227289648E+03  0.18136477591E+03  0.00000000000E+00 0.  1.
<scales pt_clust_3="42.53415" pt_clust_4="39.10925" pt_clust_5="42.53415" pt_clust_6="146.38404"></scales>
<clustering>
<clus scale="   39.109">  4  6 -1 -1</clus>
<clus scale="   42.534">  3  5 -1 -1</clus>
<clus scale="  146.384">  2  4  1 -1</clus>
<clus scale="  151.284">  1  3  2 -1</clus>
</clustering>
</event>
<event>
 6    0  0.6687079E+002  0.1540209E+03  0.7546771E-02  0.1195617E+00
         21   -1    0    0  505  501  0.00000000000E+00  0.00000000000E+00  0.72293520224E+02  0.72293520224E+02  0.00000000000E+00 0. -1.
         21   -1    0    0  506  502 -0.00000000000E+00 -0.00000000000E+00 -0.42556361443E+03  0.42556361443E+03  0.00000000000E+00 0. -1.
         21    1    1    2  503  501  0.63735275126E+02 -0.60577844871E+02 -0.30431039466E+02  0.93047884165E+02  0.00000000000E+00 0. -1.
         21    1    1    2  504  502 -0.40049307779E+02  0.13360851098E+03 -0.22625711034E+03  0.26579590147E+03  0.00000000000E+00 0. -1.
         21    1    1    2  505  504 -0.33363023328E+02 -0.80974505266E+01 -0.33491971952E+02  0.47962195695E+02  0.00000000000E+00 0. -1.
         21    1    1    2  506  503  0.96770559802E+01 -0.64933215581E+02 -0.63089972453E+02  0.91051153328E+02  0.00000000000E+00 0. -1.
<scales pt_clust_3="57.71802" pt_clust_4="140.42276" pt_clust_5="34.33162" pt_clust_6="57.71802"></scales>
<clustering>
<clus scale="   34.332">  1  5  2 -1</clus>
<clus scale="   57.718">  3  6 -1 -1</clus>
<clus scale="  140.423">  2  4  1 -1</clus>
<clus scale="   34.332">  1  3  2 -1</clus>
</clustering>
</event>
<event>
 6    0  0.6687079E+002  0.8513544E+02  0.7546771E-02  0.1315079E+00
         21   -1    0    0  503  501  0.00000000000E+00  0.00000000000E+00  0.80096273111E+03  0.80096273111E+03  0.00000000000E+00 0. -1.
         21   -1    0    0  506  502 -0.00000000000E+00 -0.00000000000E+00 -0.15823745195E+04  0.15823745195E+04  0.00000000000E+00 0. -1.
         21    1    1    2  503  504 -0.47880430577E+02 -0.28691189466E+02 -0.15744605144E+03  0.16704783477E+03  0.00000000000E+00 0. -1.
         21    1    1    2  504  502  0.17359374776E+02  0.10218578614E+03 -0.71082238294E+03  0.71833957351E+03  0.00000000000E+00 0. -1.
         21    1    1    2  505  501  0.34129227363E+02  0.18502153224E+01  0.79001655849E+03  0.79075558180E+03  0.00000000000E+00 0. -1.
         21    1    1    2  506  505 -0.36081715624E+01 -0.75344811999E+02 -0.70315991248E+03  0.70719426052E+03  0.00000000000E+00 0. -1.
<scales pt_clust_3="42.71681" pt_clust_4="14000.00000" pt_clust_5="34.17934" pt_clust_6="85.13544"></scales>
<clustering>
<clus scale="   34.179">  1  5  2 -1</clus>
<clus scale="   42.717">  1  3  2 -1</clus>
<clus scale="   85.135">  2  6  1 -1</clus>
<clus scale="   34.179">  1  3  2 -1</clus>
</clustering>
</event>
<event>
 6    0  0.6687079E+002  0.7724791E+02  0.7546771E-02  0.1337048E+00
         21   -1    0    0  506  501  0.00000000000E+00  0.00000000000E+00  0.45343032464E+03  0.45343032464E+03  0.00000000000E+00 0.  1.
         21   -1    0    0  503  502 -0.00000000000E+00 -0.00000000000E+00 -0.18397332405E+03  0.18397332405E+03  0.00000000000E+00 0. -1.
         21    1    1    2  503  504  0.52589749784E+02 -0.45930871184E+02  0.13925952087E+02  0.71198727879E+02  0.00000000000E+00 0.  1.
         21    1    1    2  504  501  0.36626233470E+02  0.40104694688E+02  0.43431400080E+01  0.54486056743E+02  0.00000000000E+00 0. -1.
         21    1    1    2  505  502 -0.15316274759E+02  0.41233518094E+02 -0.12197547492E+03  0.12966421159E+03  0.00000000000E+00 0. -1.
         21    1    1    2  506  505 -0.73899708495E+02 -0.35407341599E+02  0.37316338342E+03  0.38205465248E+03  0.00000000000E+00 0.  1.
<scales pt_clust_3="51.82658" pt_clust_4="14000.00000" pt_clust_5="43.98626" pt_clust_6="77.24791"></scales>
<clustering>
<clus scale="   43.986">  2  5  1 -1</clus>
<clus scale="   51.827">  2  3  1 -1</clus>
<clus scale="   77.248">  1  6  2 -1</clus>
<clus scale="   77.248">  1  3  2 -1</clus>
</clustering>
</event>
<event>
 6    0  0.6687079E+002  0.7055805E+02  0.7546771E-02  0.1358206E+00
         21   -1    0    0  503  501  0.00000000000E+00  0.00000000000E+00  0.37681909184E+02  0.37681909184E+02  0.00000000000E+00 0.  1.
         21   -1    0    0  504  502 -0.00000000000E+00 -0.00000000000E+00 -0.15019338000E+04  0.15019338000E+04  0.00000000000E+00 0. -1.
         21    1    1    2  503  506 -0.47821292151E+02  0.63904280201E+02 -0.37771956191E+02  0.88302625587E+02  0.00000000000E+00 0.  1.
         21    1    1    2  504  505  0.46225339389E+01 -0.77682334494E+02 -0.11935360460E+04  0.11960703182E+04  0.00000000000E+00 0. -1.
         21    1    1    2  505  501  0.66297605939E+02 -0.87579358226E+01 -0.11567227873E+03  0.13361193831E+03  0.00000000000E+00 0.  1.
         21    1    1    2  506  502 -0.23098847726E+02  0.22535990116E+02 -0.11727160991E+03  0.12163082713E+03  0.00000000000E+00 0.  1.
<scales pt_clust_3="70.55805" pt_clust_4="60.19334" pt_clust_5="14000.00000" pt_clust_6="32.27116"></scales>
<clustering>
<clus scale="   32.271">  2  6  1 -1</clus>
<clus scale="   60.193">  2  4  1 -1</clus>
<clus scale="   70.558">  1  3  2 -1</clus>
<clus scale="   70.558">  1  3  2 -1</clus>
</clustering>
</event>
<event>
 6    0  0.6687079E+002  0.1252169E+03  0.7546771E-02  0.1234731E+00
         21   -1    0    0  505  501  0.00000000000E+00  0.00000000000E+00  0.42628057714E+03  0.42628057714E+03  0.00000000000E+00 0.  1.
         21   -1    0    0  506  502 -0.00000000000E+00 -0.00000000000E+00 -0.62324553152E+02  0.62324553152E+02  0.00000000000E+00 0. -1.
         21    1    1    2  503  502  0.14554849130E+02 -0.44555035744E+02  0.15983317820E+03  0.16656422094E+03  0.00000000000E+00 0.  1.
         21    1    1    2  504  503  0.12883431890E+02 -0.46916753804E+02  0.63779766957E+02  0.80218596833E+02  0.00000000000E+00 0.  1.
         21    1    1    2  505  504  0.53304121010E+02 -0.96467305359E+01  0.85641737596E+02  0.10133556111E+03  0.00000000000E+00 0.  1.
         21    1    1    2  506  501 -0.80742402030E+02  0.10111852008E+03  0.54701341237E+02  0.14048675141E+03  0.00000000000E+00 0. -1.
<scales pt_clust_3="41.39956" pt_clust_4="41.39956" pt_clust_5="54.17000" pt_clust_6="117.89916"></scales>
<clustering>
<clus scale="   41.400">  3  4 -1 -1</clus>
<clus scale="   54.170">  1  5  2 -1</clus>
<clus scale="  117.899">  2  6  1 -1</clus>
<clus scale="   54.170">  1  3  2 -1</clus>
</clustering>
</event>
<event>
 6    0  0.6687079E+002  0.2177491E+03  0.7546771E-02  0.1135572E+00
         21   -1    0    0  506  501  0.00000000000E+00  0.00000000000E+00  0.20597547776E+04  0.20597547776E+04  0.00000000000E+00 0.  1.
         21   -1    0    0  503  502 -0.00000000000E+00 -0.00000000000E+00 -0.82810028594E+02  0.82810028594E+02  0.00000000000E+00 0.  1.
         21    1    1    2  503  505  0.18663202451E+03 -0.87300028856E+02  0.16600904933E+03  0.26459745288E+03  0.00000000000E+00 0.  1.
         21    1    1    2  504  501 -0.49175472971E+02 -0.16254646712E+02  0.67166496780E+03  0.67365886742E+03  0.00000000000E+00 0. -1.
         21    1    1    2  505  504  0.10998663768E+03  0.42621936929E+02  0.54643919599E+03  0.55902547786E+03  0.00000000000E+00 0.  1.
         21    1    1    2  506  502 -0.24744318922E+03  0.60932738639E+02  0.59283153588E+03  0.64528300803E+03  0.00000000000E+00 0.  1.
<scales pt_clust_3="217.74906" pt_clust_4="51.79228" pt_clust_5="97.34982" pt_clust_6="14000.00000"></scales>
<clustering>
<clus scale="   51.792">  1  4  2 -1</clus>
<clus scale="   97.350">  1  5  2 -1</clus>
<clus scale="  217.749">  2  3  1 -1</clus>
<clus scale="   51.792">  1  3  2 -1</clus>
</clustering>
</event>
<event>
 6    0  0.6687079E+002  0.2112010E+03  0.7546771E-02  0.1140618E+00
         21   -1    0    0  503  501  0.00000000000E+00  0.00000000000E+00  0.33731963608E+03  0.33731963608E+03  0.00000000000E+00 0.  1.
         21   -1    0    0  506  502 -0.00000000000E+00 -0.00000000000E+00 -0.20548658763E+04  0.20548658763E+04  0.00000000000E+00 0. -1.
         21    1    1    2  503  502 -0.58872325475E+00  0.44581412623E+02 -0.60964730626E+02  0.75528453756E+02  0.00000000000E+00 0. -1.
         21    1    1    2  504  505 -0.54366924248E+02 -0.10819744690E+03 -0.84644401926E+03  0.85506135903E+03  0.00000000000E+00 0. -1.
         21    1    1    2  505  501  0.12450291951E+03  0.16671276475E+03  0.28863106632E+03  0.35581176954E+03  0.00000000000E+00 0.  1.
         21    1    1    2  506  504 -0.69547272006E+02 -0.10309673048E+03 -0.10987685567E+04  0.11057839301E+04  0.00000000000E+00 0. -1.
<scales pt_clust_3="44.58530" pt_clust_4="32.16159" pt_clust_5="208.67091" pt_clust_6="32.16159"></scales>
<clustering>
<clus scale="   32.162">  4  6 -1 -1</clus>
<clus scale="   44.585">  2  3  1 -1</clus>
<clus scale="  208.671">  1  5  2 -1</clus>
<clus scale="  208.671">  1  3  2 -1</clus>
</clustering>
</event>
<event>
 6    0  0.6687079E+002  0.1679773E+03  0.7546771E-02  0.1179974E+00
         21   -1    0    0  506  501  0.00000000000E+00  0.00000000000E+00  0.16433356218E+03  0.16433356218E+03  0.00000000000E+00 0. -1.
         21   -1    0    0  503  502 -0.00000000000E+00 -0.00000000000E+00 -0.37296887116E+03  0.37296887116E+03  0.00000000000E+00 0. -1.
         21    1    1    2  503  501  0.25449914545E+02 -0.13388561295E+03 -0.12875646110E+03  0.18748675095E+03  0.00000000000E+00 0. -1.
         21    1    1    2  504  505 -0.40510274339E+02  0.11386086581E+03  0.42096693477E+02  0.12797464863E+03  0.00000000000E+00 0. -1.
         21    1    1    2  505  502 -0.25631272179E+01 -0.30396960240E+02 -0.15570810866E+03  0.15866808096E+03  0.00000000000E+00 0. -1.
         21    1    1    2  506  504  0.17623487012E+02  0.50421707383E+02  0.33732567295E+02  0.63172952806E+02  0.00000000000E+00 0. -1.
<scales pt_clust_3="157.92915" pt_clust_4="38.19969" pt_clust_5="30.50483" pt_clust_6="38.19969"></scales>
<clustering>
<clus scale="   30.505">  2  5  1 -1</clus>
<clus scale="   38.200">  4  6 -1 -1</clus>
<clus scale="  157.929">  2  3  1 -1</clus>
<clus scale="  167.977">  1  3  2 -1</clus>
</clustering>
</event>
<event>
 6    0  0.6687079E+002  0.1078909E+03  0.7546771E-02  0.1264526E+00
         21   -1    0    0  504  501  0.00000000000E+00  0.00000000000E+00  0.18247800134E+03  0.18247800134E+03  0.00000000000E+00 0. -1.
         21   -1    0    0  505  502 -0.00000000000E+00 -0.00000000000E+00 -0.76810479996E+03  0.76810479996E+03  0.00000000000E+00 0. -1.
         21    1    1    2  503  501 -0.73866875075E+02 -0.70055163916E+01 -0.28261385382E+02  0.79398352609E+02  0.00000000000E+00 0. -1.
         21    1    1    2  504  506 -0.36237342273E+02 -0.31621519349E+02  0.13777162232E+03  0.14592493062E+03  0.00000000000E+00 0. -1.
         21    1    1    2  505  503 -0.33520046478E+02 -0.23912057690E+02 -0.74108466050E+02  0.84778798995E+02  0.00000000000E+00 0. -1.
         21    1    1    2  506  502  0.14362426383E+03  0.62539093430E+02 -0.62102856950E+03  0.64048071907E+03  0.00000000000E+00 0. -1.
<scales pt_clust_3="14000.00000" pt_clust_4="48.33692" pt_clust_5="41.17499" pt_clust_6="107.89093"></scales>
<clustering>
<clus scale="   41.175">  2  5  1 -1</clus>
<clus scale="   48.337">  1  4  2 -1</clus>
<clus scale="  107.891">  2  6  1 -1</clus>
<clus scale="   48.337">  1  3  2 -1</clus>
</clustering>
</event>
<event>
 6    0  0.6687079E+002  0.1204742E+03  0.7546771E-02  0.1242317E+00
         21   -1    0    0  506  501  0.00000000000E+00  0.00000000000E+00  0.30045325070E+03  0.30045325070E+03  0.00000000000E+00 0.  1.
         21   -1    0    0  505  502 -0.00000000000E+00 -0.00000000000E+00 -0.86479262975E+02  0.86479262975E+02  0.00000000000E+00 0.  1.
         21    1    1    2  503  502  0.10183964966E+01  0.39841185760E+02  0.20157199902E+02  0.44661727711E+02  0.00000000000E+00 0.  1.
         21    1    1    2  504  501  0.11318370178E+03  0.36683871543E+02  0.43353949474E+02  0.12663262500E+03  0.00000000000E+00 0.  1.
         21    1    1    2  505  504 -0.19402709998E+01 -0.30213704601E+02  0.15260592022E+02  0.33904546393E+02  0.00000000000E+00 0. -1.
         21    1    1    2  506  503 -0.11226182728E+03 -0.46311352702E+02  0.13520224632E+03  0.18173361457E+03  0.00000000000E+00 0.  1.
<scales pt_clust_3="35.05057" pt_clust_4="14000.00000" pt_clust_5="30.27594" pt_clust_6="120.47418"></scales>
<clustering>
<clus scale="   30.276">  2  5  1 -1</clus>
<clus scale="   35.051">  2  3  1 -1</clus>
<clus scale="  120.474">  1  6  2 -1</clus>
<clus scale="  120.474">  1  3  2 -1</clus>
</clustering>
</event>
<event>
 6    0  0.6687079E+002  0.3019012E+03  0.7546771E-02  0.1084294E+00
         21   -1    0    0  506  501  0.00000000000E+00  0.00000000000E+00  0.78944490013E+03  0.78944490013E+03  0.00000000000E+00 0. -1.
         21   -1    0    0  503  502 -0.00000000000E+00 -0.00000000000E+00 -0.27820376692E+03  0.27820376692E+03  0.00000000000E+00 0. -1.
         21    1    1    2  503  505  0.27375631114E+03 -0.15060518322E+03  0.40142296939E+02  0.31501721081E+03  0.00000000000E+00 0. -1.
         21    1    1    2  504  502 -0.10345557568E+03  0.50895941489E+02  0.27396348522E+01  0.11532978193E+03  0.00000000000E+00 0.  1.
         21    1    1    2  505  501 -0.37465744307E+02 -0.16497730023E+02  0.45872451865E+03  0.46054754489E+03  0.00000000000E+00 0. -1.
         21    1    1    2  506  504 -0.13283499115E+03  0.11620697175E+03  0.96346827789E+01  0.17675412943E+03  0.00000000000E+00 0. -1.
<scales pt_clust_3="299.56813" pt_clust_4="30.27741" pt_clust_5="40.93723" pt_clust_6="30.27741"></scales>
<clustering>
<clus scale="   30.277">  4  6 -1 -1</clus>
<clus scale="   40.937">  1  5  2 -1</clus>
<clus scale="  299.568">  1  3  2 -1</clus>
<clus scale="   40.937">  1  3  2 -1</clus>
</clustering>
</event>
<event>
 6    0  0.6687079E+002  0.8707484E+02  0.7546771E-02  0.1310094E+00
         21   -1    0    0  503  501  0.00000000000E+00  0.00000000000E+00  0.13512532154E+03  0.13512532154E+03  0.00000000000E+00 0. -1.
         21   -1    0    0  505  502 -0.00000000000E+00 -0.00000000000E+00 -0.26033765554E+04  0.26033765554E+04  0.00000000000E+00 0.  1.
         21    1    1    2  503  506  0.93051188928E+00  0.93291162283E+02 -0.18189339339E+04  0.18213250019E+04  0.00000000000E+00 0.  1.
         21    1    1    2  504  501  0.25762165575E+02 -0.83161476788E+02  0.11554466423E+03  0.14467235337E+03  0.00000000000E+00 0. -1.
         21    1    1    2  505  504  0.96076391263E+01 -0.28730373947E+02 -0.67917590278E+02  0.74367601722E+02  0.00000000000E+00 0.  1.
         21    1    1    2  506  502 -0.36300316591E+02  0.18600688451E+02 -0.69694437390E+03  0.69813691988E+03  0.00000000000E+00 0.  1.
<scales pt_clust_3="14000.00000" pt_clust_4="87.07484" pt_clust_5="30.29424" pt_clust_6="35.30972"></scales>
<clustering>
<clus scale="   30.294">  2  5  1 -1</clus>
<clus scale="   35.310">  2  6  1 -1</clus>
<clus scale="   87.075">  1  4  2 -1</clus>
<clus scale="   87.075">  1  3  2 -1</clus>
</clustering>
</event>
<event>
 6    0  0.6687079E+002  0.8846416E+02  0.7546771E-02  0.1306614E+00
         21   -1    0    0  504  501  0.00000000000E+00  0.00000000000E+00  0.51949123138E+03  0.51949123138E+03  0.00000000000E+00 0. -1.
         21   -1    0    0  503  502 -0.00000000000E+00 -0.00000000000E+00 -0.22288591767E+03  0.22288591767E+03  0.00000000000E+00 0.  1.
         21    1    1    2  503  506 -0.37779385811E+02 -0.32036531509E+02 -0.19067254846E+03  0.19700162964E+03  0.00000000000E+00 0.  1.
         21    1    1    2  504  502 -0.73387226828E+02 -0.50499091147E+02  0.20650202880E+03  0.22489760151E+03  0.00000000000E+00 0. -1.
         21    1    1    2  505  501  0.43664943901E+02  0.17235421453E+02  0.38757946759E+02  0.60875820451E+02  0.00000000000E+00 0.  1.
         21    1    1    2  506  505  0.67501668737E+02  0.65300201202E+02  0.24201788661E+03  0.25960209744E+03  0.00000000000E+00 0.  1.
<scales pt_clust_3="49.23465" pt_clust_4="14000.00000" pt_clust_5="46.94345" pt_clust_6="88.46416"></scales>
<clustering>
<clus scale="   46.943">  1  5  2 -1</clus>
<clus scale="   49.235">  2  3  1 -1</clus>
<clus scale="   88.464">  2  6  1 -1</clus>
<clus scale="   46.943">  1  3  2 -1</clus>
</clustering>
</event>
<event>
 6    0  0.6687079E+002  0.1804982E+03  0.7546771E-02  0.1167322E+00
         21   -1    0    0  503  501  0.00000000000E+00  0.00000000000E+00  0.12740634800E+04  0.12740634800E+04  0.00000000000E+00 0.  1.
         21   -1    0    0  506  502 -0.00000000000E+00 -0.00000000000E+00 -0.16819674107E+04  0.16819674107E+04  0.00000000000E+00 0. -1.
         21    1    1    2  503  502  0.24529476998E+01  0.33247086682E+02 -0.12746373070E+04  0.12750731940E+04  0.00000000000E+00 0. -1.
         21    1    1    2  504  505 -0.16120495841E+03 -0.13863716023E+03  0.16571844380E+03  0.26957355848E+03  0.00000000000E+00 0. -1.
         21    1    1    2  505  501  0.48417761109E+02 -0.32083256534E+01  0.10387366301E+04  0.10398693955E+04  0.00000000000E+00 0.  1.
         21    1    1    2  506  504  0.11033424961E+03  0.10859839920E+03 -0.33772169768E+03  0.37151474268E+03  0.00000000000E+00 0. -1.
<scales pt_clust_3="33.33745" pt_clust_4="14000.00000" pt_clust_5="48.52431" pt_clust_6="180.49818"></scales>
<clustering>
<clus scale="   33.337">  2  3  1 -1</clus>
<clus scale="   48.524">  1  5  2 -1</clus>
<clus scale="  180.498">  2  6  1 -1</clus>
<clus scale="   48.524">  1  3  2 -1</clus>
</clustering>
</event>
<event>
 6    0  0.6687079E+002  0.1077723E+03  0.7546771E-02  0.1264752E+00
         21   -1    0    0  504  501  0.00000000000E+00  0.00000000000E+00  0.21935596813E+03  0.21935596813E+03  0.00000000000E+00 0. -1.
         21   -1    0    0  506  502 -0.00000000000E+00 -0.00000000000E+00 -0.14606901761E+04  0.14606901761E+04  0.00000000000E+00 0.  1.
         21    1    1    2  503  501  0.50765571937E+02  0.95010258021E+02  0.19123442743E+03  0.21948735421E+03  0.00000000000E+00 0. -1.
         21    1    1    2  504  502  0.49205209313E+02  0.25489800889E+02 -0.19304262976E+03  0.20083908852E+03  0.00000000000E+00 0. -1.
         21    1    1    2  505  503 -0.73574973254E+02 -0.84052102877E+02 -0.31716129639E+03  0.33625781867E+03  0.00000000000E+00 0.  1.
         21    1    1    2  506  505 -0.26395807996E+02 -0.36447956033E+02 -0.92236470924E+03  0.92346188282E+03  0.00000000000E+00 0.  1.
<scales pt_clust_3="14000.00000" pt_clust_4="41.36110" pt_clust_5="107.77232" pt_clust_6="45.00214"></scales>
<clustering>
<clus scale="   45.002">  2  6  1 -1</clus>
<clus scale="   41.361">  2  4  1 -1</clus>
<clus scale="  107.772">  2  5  1 -1</clus>
<clus scale="  107.772">  1  3  2 -1</clus>
</clustering>
</event>
<event>
 6    0  0.6687079E+002  0.9932993E+02  0.7546771E-02  0.1281711E+00
         21   -1    0    0  505  501  0.00000000000E+00  0.00000000000E+00  0.16058167994E+04  0.16058167994E+04  0.00000000000E+00 0. -1.
         21   -1    0    0  504  502 -0.00000000000E+00 -0.00000000000E+00 -0.61970222071E+03  0.61970222071E+03  0.00000000000E+00 0. -1.
         21    1    1    2  503  502  0.14035945074E+03 -0.12982403776E+02  0.77473200509E+03  0.78745094954E+03  0.00000000000E+00 0. -1.
         21    1    1    2  504  506 -0.98860611332E+02 -0.72425964960E+01 -0.60720162682E+03  0.61523953976E+03  0.00000000000E+00 0. -1.
         21    1    1    2  505  503 -0.35258576921E+00  0.38263377829E+02  0.34346076449E+03  0.34558574500E+03  0.00000000000E+00 0. -1.
         21    1    1    2  506  501 -0.41146253637E+02 -0.18038377557E+02  0.47512343594E+03  0.47724278584E+03  0.00000000000E+00 0. -1.
<scales pt_clust_3="99.32993" pt_clust_4="14000.00000" pt_clust_5="38.26500" pt_clust_6="41.43541"></scales>
<clustering>
<clus scale="   38.265">  1  5  2 -1</clus>
<clus scale="   41.435">  1  6  2 -1</clus>
<clus scale="   99.330">  1  3  2 -1</clus>
<clus scale="   38.265">  1  3  2 -1</clus>
</clustering>
</event>
<event>
 6    0  0.6687079E+002  0.9310530E+02  0.7546771E-02  0.1295501E+00
         21   -1    0    0  504  501  0.00000000000E+00  0.00000000000E+00  0.17493655168E+03  0.17493655168E+03  0.00000000000E+00 0. -1.
         21   -1    0    0  505  502 -0.00000000000E+00 -0.00000000000E+00 -0.58789287240E+03  0.58789287240E+03  0.00000000000E+00 0. -1.
         21    1    1    2  503  501  0.49563132452E+02 -0.45899624498E+01  0.13317987601E+03  0.14217753419E+03  0.00000000000E+00 0. -1.
         21    1    1    2  504  506  0.35492152354E+02 -0.98960169806E+02 -0.30038821085E+03  0.31825443486E+03  0.00000000000E+00 0. -1.
         21    1    1    2  505  503 -0.40006660505E+02  0.92696392850E+02 -0.75809346662E+02  0.12625454912E+03  0.00000000000E+00 0. -1.
         21    1    1    2  506  502 -0.45048624301E+02  0.10853739405E+02 -0.16993863921E+03  0.17614290592E+03  0.00000000000E+00 0. -1.
<scales pt_clust_3="49.27797" pt_clust_4="93.10530" pt_clust_5="14000.00000" pt_clust_6="46.33770"></scales>
<clustering>
<clus scale="   46.338">  2  6  1 -1</clus>
<clus scale="   49.278">  1  3  2 -1</clus>
<clus scale="   93.105">  2  4  1 -1</clus>
<clus scale="   49.278">  1  3  2 -1</clus>
</clustering>
</event>
<event>
 6    0  0.6687079E+002  0.6096977E+02  0.7546771E-02  0.1393807E+00
         21   -1    0    0  506  501  0.00000000000E+00  0.00000000000E+00  0.18079645852E+04  0.18079645852E+04  0.00000000000E+00 0. -1.
         21   -1    0    0  504  502 -0.00000000000E+00 -0.00000000000E+00 -0.14064568228E+03  0.14064568228E+03  0.00000000000E+00 0.  1.
         21    1    1    2  503  502 -0.17218636610E+02 -0.48889613564E+02 -0.12024326737E+03  0.13093937188E+03  0.00000000000E+00 0.  1.
         21    1    1    2  504  505  0.50880072992E+02 -0.24116132260E+01  0.76583508018E+02  0.91976254579E+02  0.00000000000E+00 0. -1.
         21    1    1    2  505  501 -0.10263004421E+01  0.94574851692E+02  0.15936259030E+04  0.15964300720E+04  0.00000000000E+00 0. -1.
         21    1    1    2  506  503 -0.32635135940E+02 -0.43273624902E+02  0.11735275926E+03  0.12926456907E+03  0.00000000000E+00 0.  1.
<scales pt_clust_3="60.96977" pt_clust_4="50.93719" pt_clust_5="14000.00000" pt_clust_6="52.94755"></scales>
<clustering>
<clus scale="   50.937">  2  4  1 -1</clus>
<clus scale="   52.948">  1  6  2 -1</clus>
<clus scale="   60.970">  2  3  1 -1</clus>
<clus scale="   52.948">  1  3  2 -1</clus>
</clustering>
</event>
<event>
 6    0  0.6687079E+002  0.8727169E+02  0.7546771E-02  0.1309596E+00
         21   -1    0    0  506  501  0.00000000000E+00  0.00000000000E+00  0.32776121069E+03  0.32776121069E+03  0.00000000000E+00 0. -1.
         21   -1    0    0  504  502 -0.00000000000E+00 -0.00000000000E+00 -0.11357366803E+04  0.11357366803E+04  0.00000000000E+00 0.  1.
         21    1    1    2  503  505 -0.54171234083E+02 -0.50871498742E+02  0.90560866833E+02  0.11714820779E+03  0.00000000000E+00 0. -1.
         21    1    1    2  504  501 -0.32961709979E+02  0.39228441393E+02  0.35067702665E+02  0.62089360676E+02  0.00000000000E+00 0. -1.
         21    1    1    2  505  502  0.91785205634E+01 -0.53541023745E+02 -0.10934774851E+04  0.10948259664E+04  0.00000000000E+00 0.  1.
         21    1    1    2  506  503  0.77954423498E+02  0.65184081094E+02  0.15987344592E+03  0.18943435612E+03  0.00000000000E+00 0. -1.
<scales pt_clust_3="87.27169" pt_clust_4="51.23812" pt_clust_5="54.21527" pt_clust_6="14000.00000"></scales>
<clustering>
<clus scale="   51.238">  1  4  2 -1</clus>
<clus scale="   54.215">  2  5  1 -1</clus>
<clus scale="   87.272">  2  3  1 -1</clus>
<clus scale="   51.238">  1  3  2 -1</clus>
</clustering>
</event>
<event>
 6    0  0.6687079E+002  0.1200426E+03  0.7546771E-02  0.1243027E+00
         21   -1    0    0  503  501  0.00000000000E+00  0.00000000000E+00  0.10662278158E+04  0.10662278158E+04  0.00000000000E+00 0. -1.
         21   -1    0    0  504  502 -0.00000000000E+00 -0.00000000000E+00 -0.37530354068E+03  0.37530354068E+03  0.00000000000E+00 0.  1.
         21    1    1    2  503  506  0.78079009384E+02 -0.92321168299E+02  0.10252793852E+04  0.10323843023E+04  0.00000000000E+00 0. -1.
         21    1    1    2  504  501 -0.71061609155E+02 -0.32143653075E+02 -0.55663058044E+02  0.95819323518E+02  0.00000000000E+00 0.  1.
         21    1    1    2  505  502  0.62281891621E+01  0.53561944278E+02 -0.50023349023E+02  0.73552754283E+02  0.00000000000E+00 0.  1.
         21    1    1    2  506  505 -0.13245589392E+02  0.70902877095E+02 -0.22866870297E+03  0.23977497647E+03  0.00000000000E+00 0.  1.
<scales pt_clust_3="14000.00000" pt_clust_4="72.15925" pt_clust_5="53.92284" pt_clust_6="120.04259"></scales>
<clustering>
<clus scale="   53.923">  2  5  1 -1</clus>
<clus scale="   72.159">  2  4  1 -1</clus>
<clus scale="  120.043">  2  6  1 -1</clus>
<clus scale="  120.043">  1  3  2 -1</clus>
</clustering>
</event>
<event>
 6    0  0.6687079E+002  0.1682992E+03  0.7546771E-02  0.1179633E+00
         21   -1    0    0  503  501  0.00000000000E+00  0.00000000000E+00  0.14583718617E+03  0.14583718617E+03  0.00000000000E+00 0.  1.
         21   -1    0    0  501  502 -0.00000000000E+00 -0.00000000000E+00 -0.68376643514E+03  0.68376643514E+03  0.00000000000E+00 0. -1.
         21    1    1    2  503  505  0.14879051383E+02 -0.62505623821E+02 -0.10585814796E+02  0.65118343455E+02  0.00000000000E+00 0.  1.
         21    1    1    2  504  502 -0.12999514790E+02  0.12393009960E+03 -0.48658800412E+03  0.50229029726E+03  0.00000000000E+00 0. -1.
         21    1    1    2  505  506 -0.31623231010E+02 -0.97682417518E+02  0.81606104034E+02  0.13115425897E+03  0.00000000000E+00 0.  1.
         21    1    1    2  506  504  0.29743694416E+02  0.36257941741E+02 -0.12236153409E+03  0.13104072162E+03  0.00000000000E+00 0. -1.
<scales pt_clust_3="64.25215" pt_clust_4="40.45236" pt_clust_5="154.84368" pt_clust_6="40.45236"></scales>
<clustering>
<clus scale="   40.452">  4  6 -1 -1</clus>
<clus scale="   64.252">  1  3  2 -1</clus>
<clus scale="  154.844">  1  5  2 -1</clus>
<clus scale="   64.252">  1  3  2 -1</clus>
</clustering>
</event>
<event>
 6    0  0.6687079E+002  0.1079668E+03  0.7546771E-02  0.1264382E+00
         21   -1    0    0  504  501  0.00000000000E+00  0.00000000000E+00  0.36966756964E+03  0.36966756964E+03  0.00000000000E+00 0. -1.
         21   -1    0    0  506  502 -0.00000000000E+00 -0.00000000000E+00 -0.75288651579E+03  0.75288651579E+03  0.00000000000E+00 0.  1.
         21    1    1    2  503  501 -0.33977264696E+02 -0.31437015865E+02 -0.21159980877E+01  0.46338082941E+02  0.00000000000E+00 0. -1.
         21    1    1    2  504  505  0.26179342448E+02 -0.77453428486E+02  0.33546603222E+03  0.34528517247E+03  0.00000000000E+00 0. -1.
         21    1    1    2  505  502  0.36749024175E+02  0.63150949983E+01 -0.20756320066E+03  0.21088587784E+03  0.00000000000E+00 0.  1.
         21    1    1    2  506  503 -0.28951101927E+02  0.10257534935E+03 -0.50900577963E+03  0.52004495218E+03  0.00000000000E+00 0.  1.
<scales pt_clust_3="44.90571" pt_clust_4="14000.00000" pt_clust_5="37.28768" pt_clust_6="107.96678"></scales>
<clustering>
<clus scale="   37.288">  2  5  1 -1</clus>
<clus scale="   44.906">  1  3  2 -1</clus>
<clus scale="  107.967">  2  6  1 -1</clus>
<clus scale="   44.906">  1  3  2 -1</clus>
</clustering>
</event>
<event>
 6    0  0.6687079E+002  0.9667008E+02  0.7546771E-02  0.1287458E+00
         21   -1    0    0  503  501  0.00000000000E+00  0.00000000000E+00  0.64656517011E+02  0.64656517011E+02  0.00000000000E+00 0. -1.
         21   -1    0    0  505  502 -0.00000000000E+00 -0.00000000000E+00 -0.62487799985E+03  0.62487799985E+03  0.00000000000E+00 0. -1.
         21    1    1    2  503  502 -0.27979579724E+02  0.29540438964E+02 -0.26387210893E+02  0.48495147328E+02  0.00000000000E+00 0. -1.
         21    1    1    2  504  506  0.38765255795E+02  0.47722847023E+02 -0.56772298047E+02  0.83685775437E+02  0.00000000000E+00 0. -1.
         21    1    1    2  505  504 -0.75949776212E+02 -0.85427537250E+02 -0.47819804766E+03  0.49167022018E+03  0.00000000000E+00 0. -1.
         21    1    1    2  506  501  0.65164100140E+02  0.81642512634E+01  0.11360737580E+01  0.65683373919E+02  0.00000000000E+00 0. -1.
<scales pt_clust_3="40.68777" pt_clust_4="96.67008" pt_clust_5="14000.00000" pt_clust_6="54.62566"></scales>
<clustering>
<clus scale="   40.688">  1  3  2 -1</clus>
<clus scale="   54.626">  1  6  2 -1</clus>
<clus scale="   96.670">  1  4  2 -1</clus>
<clus scale="   40.688">  1  3  2 -1</clus>
</clustering>
</event>
<event>
 6    0  0.6687079E+002  0.1505454E+03  0.7546771E-02  0.1199804E+00
         21   -1    0    0  504  501  0.00000000000E+00  0.00000000000E+00  0.34008115548E+03  0.34008115548E+03  0.00000000000E+00 0. -1.
         21   -1    0    0  505  502 -0.00000000000E+00 -0.00000000000E+00 -0.21026590767E+03  0.21026590767E+03  0.00000000000E+00 0. -1.
         21    1    1    2  503  502  0.24990130628E+01 -0.10036853083E+03  0.25060160840E+01  0.10043090742E+03  0.00000000000E+00 0. -1.
         21    1    1    2  504  503  0.11331766004E+03 -0.64085976466E+02  0.88847911488E+02  0.15761299386E+03  0.00000000000E+00 0. -1.
         21    1    1    2  505  506 -0.14862822943E+03  0.13242600586E+03 -0.38465705146E+02  0.20274764631E+03  0.00000000000E+00 0. -1.
         21    1    1    2  506  501  0.32811556325E+02  0.32028501439E+02  0.76927025390E+02  0.89555515565E+02  0.00000000000E+00 0.  1.
<scales pt_clust_3="94.38750" pt_clust_4="150.54542" pt_clust_5="14000.00000" pt_clust_6="45.85219"></scales>
<clustering>
<clus scale="   45.852">  1  6  2 -1</clus>
<clus scale="   94.387">  2  3  1 -1</clus>
<clus scale="  150.545">  1  4  2 -1</clus>
<clus scale="   45.852">  1  3  2 -1</clus>
</clustering>
</event>
<event>
 6    0  0.6687079E+002  0.1264655E+03  0.7546771E-02  0.1232797E+00
         21   -1    0    0  505  501  0.00000000000E+00  0.00000000000E+00  0.12431838419E+03  0.12431838419E+03  0.00000000000E+00 0.  1.
         21   -1    0    0  504  502 -0.00000000000E+00 -0.00000000000E+00 -0.21142283306E+03  0.21142283306E+03  0.00000000000E+00 0.  1.
         21    1    1    2  503  502 -0.28702230508E+02  0.23835968668E+02 -0.79385162204E+02  0.87715308906E+02  0.00000000000E+00 0.  1.
         21    1    1    2  504  501 -0.58851476499E+02  0.79898752862E+02  0.77023495615E+01  0.99532071132E+02  0.00000000000E+00 0.  1.
         21    1    1    2  505  506  0.81313324194E+02 -0.54149616217E+02 -0.90159226545E+01  0.98108738088E+02  0.00000000000E+00 0.  1.
         21    1    1    2  506  503  0.62403828138E+01 -0.49585105312E+02 -0.64057135722E+01  0.50385099115E+02  0.00000000000E+00 0.  1.
<scales pt_clust_3="37.30913" pt_clust_4="112.28306" pt_clust_5="42.72243" pt_clust_6="42.72243"></scales>
<clustering>
<clus scale="   37.309">  2  3  1 -1</clus>
<clus scale="   42.722">  5  6 -1 -1</clus>
<clus scale="  112.283">  1  4  2 -1</clus>
<clus scale="  112.283">  1  3  2 -1</clus>
</clustering>
</event>
<event>
 6    0  0.6687079E+002  0.1887730E+03  0.7546771E-02  0.1159573E+00
         21   -1    0    0  506  501  0.00000000000E+00  0.00000000000E+00  0.48838022550E+03  0.48838022550E+03  0.00000000000E+00 0. -1.
         21   -1    0    0  504  502 -0.00000000000E+00 -0.00000000000E+00 -0.97704203511E+03  0.97704203511E+03  0.00000000000E+00 0. -1.
         21    1    1    2  503  505  0.79728081050E+02 -0.15499870426E+02  0.15565830360E+03  0.17557425885E+03  0.00000000000E+00 0. -1.
         21    1    1    2  504  501 -0.20599678097E+03  0.82498916245E+02 -0.90799240773E+03  0.93471437212E+03  0.00000000000E+00 0. -1.
         21    1    1    2  505  502  0.42459481343E+02 -0.50869484389E+01 -0.24094059649E+02  0.49083686808E+02  0.00000000000E+00 0.  1.
         21    1    1    2  506  503  0.83809218573E+02 -0.61912097380E+02  0.28776635417E+03  0.30604994284E+03  0.00000000000E+00 0. -1.
<scales pt_clust_3="45.06010" pt_clust_4="181.75767" pt_clust_5="42.76312" pt_clust_6="45.06010"></scales>
<clustering>
<clus scale="   42.763">  2  5  1 -1</clus>
<clus scale="   45.060">  3  6 -1 -1</clus>
<clus scale="  181.758">  2  4  1 -1</clus>
<clus scale="  188.773">  1  3  2 -1</clus>
</clustering>
</event>
<event>
 6    0  0.6687079E+002  0.1528479E+03  0.7546771E-02  0.1197017E+00
         21   -1    0    0  505  501  0.00000000000E+00  0.00000000000E+00  0.23086605884E+03  0.23086605884E+03  0.00000000000E+00 0. -1.
         21   -1    0    0  506  502 -0.00000000000E+00 -0.00000000000E+00 -0.68632392055E+03  0.68632392055E+03  0.00000000000E+00 0. -1.
         21    1    1    2  503  502 -0.91752154143E+02 -0.11549061402E+03 -0.34833868792E+03  0.37828082322E+03  0.00000000000E+00 0. -1.
         21    1    1    2  504  503 -0.66080542420E+02  0.17919053331E+02 -0.27872704811E+02  0.73923056162E+02  0.00000000000E+00 0.  1.
         21    1    1    2  505  504 -0.77260643403E+01  0.31706554274E+02  0.16189848562E+03  0.16515482827E+03  0.00000000000E+00 0. -1.
         21    1    1    2  506  501  0.16555876090E+03  0.65865006411E+02 -0.24114495461E+03  0.29983127174E+03  0.00000000000E+00 0. -1.
<scales pt_clust_3="14000.00000" pt_clust_4="74.49774" pt_clust_5="32.63430" pt_clust_6="152.84792"></scales>
<clustering>
<clus scale="   32.634">  1  5  2 -1</clus>
<clus scale="   74.498">  1  4  2 -1</clus>
<clus scale="  152.848">  1  6  2 -1</clus>
<clus scale="   32.634">  1  3  2 -1</clus>
</clustering>
</event>
<event>
 6    0  0.6687079E+002  0.1791264E+03  0.7546771E-02  0.1168651E+00
         21   -1    0    0  506  501  0.00000000000E+00  0.00000000000E+00  0.14108594901E+04  0.14108594901E+04  0.00000000000E+00 0.  1.
         21   -1    0    0  503  502 -0.00000000000E+00 -0.00000000000E+00 -0.28111132852E+03  0.28111132852E+03  0.00000000000E+00 0.  1.
         21    1    1    2  503  505 -0.51918647345E+02 -0.45828334762E+02 -0.21068014683E+03  0.22176994042E+03  0.00000000000E+00 0.  1.
         21    1    1    2  504  502  0.32712304292E+02  0.17087601914E+03  0.10914675728E+03  0.20538189646E+03  0.00000000000E+00 0.  1.
         21    1    1    2  505  501  0.54638117099E+02  0.51344223298E+02  0.14006709542E+03  0.15887210053E+03  0.00000000000E+00 0.  1.
         21    1    1    2  506  504 -0.35431774047E+02 -0.17639190768E+03  0.10912144557E+04  0.11059468812E+04  0.00000000000E+00 0.  1.
<scales pt_clust_3="69.25159" pt_clust_4="14000.00000" pt_clust_5="64.94757" pt_clust_6="179.12635"></scales>
<clustering>
<clus scale="   69.252">  2  3  1 -1</clus>
<clus scale="   64.948">  2  5  1 -1</clus>
<clus scale="  179.126">  1  6  2 -1</clus>
<clus scale="  179.126">  1  3  2 -1</clus>
</clustering>
</event>
<event>
 6    0  0.6687079E+002  0.1275800E+03  0.7546771E-02  0.1231091E+00
         21   -1    0    0  505  501  0.00000000000E+00  0.00000000000E+00  0.21991455918E+02  0.21991455918E+02  0.00000000000E+00 0. -1.
         21   -1    0    0  504  502 -0.00000000000E+00 -0.00000000000E+00 -0.13018982940E+04  0.13018982940E+04  0.00000000000E+00 0. -1.
         21    1    1    2  503  501 -0.44461379856E+02  0.18903014030E+02 -0.16368983683E+03  0.17067073832E+03  0.00000000000E+00 0. -1.
         21    1    1    2  504  503 -0.10325319919E+03 -0.51347999400E+02 -0.37851533831E+03  0.39569142210E+03  0.00000000000E+00 0. -1.
         21    1    1    2  505  506  0.58398561782E+02 -0.92736742934E+01 -0.14351487898E+03  0.15521892134E+03  0.00000000000E+00 0. -1.
         21    1    1    2  506  502  0.89316017265E+02  0.41718659663E+02 -0.59418678398E+03  0.60230866817E+03  0.00000000000E+00 0. -1.
<scales pt_clust_3="40.46026" pt_clust_4="40.46026" pt_clust_5="59.13031" pt_clust_6="111.21729"></scales>
<clustering>
<clus scale="   40.460">  3  4 -1 -1</clus>
<clus scale="   59.130">  1  5  2 -1</clus>
<clus scale="  111.217">  2  6  1 -1</clus>
<clus scale="   59.130">  1  3  2 -1</clus>
</clustering>
</event>
<event>
 6    0  0.6687079E+002  0.1214665E+03  0.7546771E-02  0.1240697E+00
         21   -1    0    0  504  501  0.00000000000E+00  0.00000000000E+00  0.48001429270E+03  0.48001429270E+03  0.00000000000E+00 0.  1.
         21   -1    0    0  506  502 -0.00000000000E+00 -0.00000000000E+00 -0.16289106148E+03  0.16289106148E+03  0.00000000000E+00 0.  1.
         21    1    1    2  503  501 -0.11660146559E+02 -0.34073421439E+02  0.17109819014E+03  0.17484721255E+03  0.00000000000E+00 0.  1.
         21    1    1    2  504  502 -0.85178178600E+02 -0.91158789512E+02 -0.10457800902E+03  0.16279375598E+03  0.00000000000E+00 0.  1.
         21    1    1    2  505  503  0.17876915380E+02  0.64561439960E+02  0.58726191009E+02  0.89087199662E+02  0.00000000000E+00 0.  1.
         21    1    1    2  506  505  0.78961409779E+02  0.60670770991E+02  0.19187685909E+03  0.21617718598E+03  0.00000000000E+00 0.  1.
<scales pt_clust_3="36.01329" pt_clust_4="14000.00000" pt_clust_5="58.33983" pt_clust_6="121.46649"></scales>
<clustering>
<clus scale="   36.013">  1  3  2 -1</clus>
<clus scale="   58.340">  1  5  2 -1</clus>
<clus scale="  121.466">  1  6  2 -1</clus>
<clus scale="   36.013">  1  3  2 -1</clus>
</clustering>
</event>
<event>
 6    0  0.6687079E+002  0.1318947E+03  0.7546771E-02  0.1224671E+00
         21   -1    0    0  503  501  0.00000000000E+00  0.00000000000E+00  0.58059768071E+03  0.58059768071E+03  0.00000000000E+00 0.  1.
         21   -1    0    0  501  502 -0.00000000000E+00 -0.00000000000E+00 -0.52953861600E+03  0.52953861600E+03  0.00000000000E+00 0. -1.
         21    1    1    2  503  506 -0.33998721881E+02 -0.44139384256E+01  0.18296590068E+03  0.18615025317E+03  0.00000000000E+00 0.  1.
         21    1    1    2  504  502 -0.70922780773E+02 -0.48168341609E+02 -0.43602009434E+03  0.44436893752E+03  0.00000000000E+00 0. -1.
         21    1    1    2  505  504  0.16715456711E+03 -0.44867393725E+02  0.21670075885E+02  0.17442283254E+03  0.00000000000E+00 0.  1.
         21    1    1    2  506  505 -0.62233064452E+02  0.97449673759E+02  0.28244318249E+03  0.30519427348E+03  0.00000000000E+00 0.  1.
<scales pt_clust_3="34.28405" pt_clust_4="86.05623" pt_clust_5="131.89474" pt_clust_6="14000.00000"></scales>
<clustering>
<clus scale="   34.284">  1  3  2 -1</clus>
<clus scale="   86.056">  2  4  1 -1</clus>
<clus scale="  131.895">  2  5  1 -1</clus>
<clus scale="   34.284">  1  3  2 -1</clus>
</clustering>
</event>
<event>
 6    0  0.6687079E+002  0.1153589E+03  0.7546771E-02  0.1250956E+00
         21   -1    0    0  503  501  0.00000000000E+00  0.00000000000E+00  0.39256127938E+03  0.39256127938E+03  0.00000000000E+00 0.  1.
         21   -1    0    0  504  502 -0.00000000000E+00 -0.00000000000E+00 -0.18459173304E+03  0.18459173304E+03  0.00000000000E+00 0. -1.
         21    1    1    2  503  505  0.20176161986E+01 -0.48790363709E+02  0.56386344577E+02  0.74592159244E+02  0.00000000000E+00 0.  1.
         21    1    1    2  504  506 -0.31258632699E+02  0.11478898337E+03 -0.13750689764E+03  0.18182892982E+03  0.00000000000E+00 0. -1.
         21    1    1    2  505  502 -0.41573426321E+01 -0.73554962717E+02  0.27324231234E+03  0.28299995988E+03  0.00000000000E+00 0.  1.
         21    1    1    2  506  501  0.33398359133E+02  0.75563430572E+01  0.15847787064E+02  0.37731963479E+02  0.00000000000E+00 0. -1.
<scales pt_clust_3="48.10686" pt_clust_4="115.35889" pt_clust_5="14000.00000" pt_clust_6="34.24250"></scales>
<clustering>
<clus scale="   34.242">  1  6  2 -1</clus>
<clus scale="   48.107">  1  3  2 -1</clus>
<clus scale="  115.359">  2  4  1 -1</clus>
<clus scale="   34.242">  1  3  2 -1</clus>
</clustering>
</event>
<event>
 6    0  0.6687079E+002  0.2376578E+03  0.7546771E-02  0.1121363E+00
         21   -1    0    0  504  501  0.00000000000E+00  0.00000000000E+00  0.11944017052E+04  0.11944017052E+04  0.00000000000E+00 0. -1.
         21   -1    0    0  505  502 -0.00000000000E+00 -0.00000000000E+00 -0.86016031853E+02  0.86016031853E+02  0.00000000000E+00 0. -1.
         21    1    1    2  503  501 -0.21996113650E+03 -0.75129818937E+02  0.55855331759E+03  0.60498694189E+03  0.00000000000E+00 0. -1.
         21    1    1    2  504  506  0.23276951035E+03  0.71835772448E+02  0.54026907174E+03  0.59264887837E+03  0.00000000000E+00 0. -1.
         21    1    1    2  505  503 -0.44228916206E+02  0.64202153122E+01  0.20761447502E+02  0.49279345529E+02  0.00000000000E+00 0. -1.
         21    1    1    2  506  502  0.31420542354E+02 -0.31261688236E+01 -0.11198163515E+02  0.33502571236E+02  0.00000000000E+00 0. -1.
<scales pt_clust_3="237.65781" pt_clust_4="14000.00000" pt_clust_5="37.62908" pt_clust_6="31.57568"></scales>
<clustering>
<clus scale="   31.576">  2  6  1 -1</clus>
<clus scale="   37.629">  2  5  1 -1</clus>
<clus scale="  237.658">  1  3  2 -1</clus>
<clus scale="  237.658">  1  3  2 -1</clus>
</clustering>
</event>
<event>
 6    0  0.6687079E+002  0.1196653E+03  0.7546771E-02  0.1243650E+00
         21   -1    0    0  505  501  0.00000000000E+00  0.00000000000E+00  0.83045407834E+02  0.83045407834E+02  0.00000000000E+00 0.  1.
         21   -1    0    0  503  502 -0.00000000000E+00 -0.00000000000E+00 -0.76823017440E+03  0.76823017440E+03  0.00000000000E+00 0.  1.
         21    1    1    2  503  506  0.23229472074E+02 -0.69649036297E+02 -0.15641627163E+03  0.17279075977E+03  0.00000000000E+00 0.  1.
         21    1    1    2  504  501  0.11984501197E+03  0.14435115500E+02  0.70793342512E-01  0.12071124416E+03  0.00000000000E+00 0.  1.
         21    1    1    2  505  502 -0.25215965436E+02 -0.23717449689E+02 -0.83566726632E+02  0.90453082493E+02  0.00000000000E+00 0.  1.
         21    1    1    2  506  504 -0.11785851861E+03  0.78931370485E+02 -0.44527256164E+03  0.46732049581E+03  0.00000000000E+00 0.  1.
<scales pt_clust_3="77.30323" pt_clust_4="119.66525" pt_clust_5="34.61737" pt_clust_6="14000.00000"></scales>
<clustering>
<clus scale="   34.617">  2  5  1 -1</clus>
<clus scale="   77.303">  2  3  1 -1</clus>
<clus scale="  119.665">  1  4  2 -1</clus>
<clus scale="  119.665">  1  3  2 -1</clus>
</clustering>
</event>
<event>
 6    0  0.6687079E+002  0.8434938E+02  0.7546771E-02  0.1317143E+00
         21   -1    0    0  503  501  0.00000000000E+00  0.00000000000E+00  0.47584666357E+02  0.47584666357E+02  0.00000000000E+00 0.  1.
         21   -1    0    0  506  502 -0.00000000000E+00 -0.00000000000E+00 -0.53581931659E+03  0.53581931659E+03  0.00000000000E+00 0.  1.
         21    1    1    2  503  504  0.16670014035E+01 -0.47065112921E+02 -0.24136379590E+01  0.47156435363E+02  0.00000000000E+00 0.  1.
         21    1    1    2  504  502 -0.81910075035E+02  0.13414755334E+01 -0.23056865223E+03  0.24468952437E+03  0.00000000000E+00 0.  1.
         21    1    1    2  505  501 -0.75351409376E+01  0.51370204635E+02 -0.78301197629E+02  0.93950805336E+02  0.00000000000E+00 0.  1.
         21    1    1    2  506  505  0.87778214569E+02 -0.56465672469E+01 -0.17695116242E+03  0.19760721787E+03  0.00000000000E+00 0.  1.
<scales pt_clust_3="47.09463" pt_clust_4="14000.00000" pt_clust_5="37.42761" pt_clust_6="84.34938"></scales>
<clustering>
<clus scale="   47.095">  1  3  2 -1</clus>
<clus scale="   37.428">  1  5  2 -1</clus>
<clus scale="   84.349">  1  6  2 -1</clus>
<clus scale="   47.095">  1  3  2 -1</clus>
</clustering>
</event>
<event>
 6    0  0.6687079E+002  0.6892789E+02  0.7546771E-02  0.1363777E+00
         21   -1    0    0  506  501  0.00000000000E+00  0.00000000000E+00  0.45599107057E+03  0.45599107057E+03  0.00000000000E+00 0.  1.
         21   -1    0    0  503  502 -0.00000000000E+00 -0.00000000000E+00 -0.12177632638E+03  0.12177632638E+03  0.00000000000E+00 0.  1.
         21    1    1    2  503  504  0.19216589381E+02  0.74161619014E+02 -0.32576952035E+02  0.83249509585E+02  0.00000000000E+00 0.  1.
         21    1    1    2  504  505 -0.85270014596E+02  0.57815218779E+01  0.61458924026E+02  0.10526918223E+03  0.00000000000E+00 0.  1.
         21    1    1    2  505  501  0.16983978263E+02 -0.46787748060E+02  0.32349779474E+03  0.32730470832E+03  0.00000000000E+00 0.  1.
         21    1    1    2  506  502  0.49069446952E+02 -0.33155392832E+02 -0.18165022543E+02  0.61943996820E+02  0.00000000000E+00 0.  1.
<scales pt_clust_3="14000.00000" pt_clust_4="68.92789" pt_clust_5="49.77498" pt_clust_6="66.15237"></scales>
<clustering>
<clus scale="   49.775">  1  5  2 -1</clus>
<clus scale="   66.152">  2  6  1 -1</clus>
<clus scale="   68.928">  1  4  2 -1</clus>
<clus scale="   49.775">  1  3  2 -1</clus>
</clustering>
</event>
<event>
 6    0  0.6687079E+002  0.1774038E+03  0.7546771E-02  0.1170340E+00
         21   -1    0    0  506  501  0.00000000000E+00  0.00000000000E+00  0.69431629973E+03  0.69431629973E+03  0.00000000000E+00 0.  1.
         21   -1    0    0  505  502 -0.00000000000E+00 -0.00000000000E+00 -0.12174622599E+04  0.12174622599E+04  0.00000000000E+00 0. -1.
         21    1    1    2  503  501  0.66178404252E+02 -0.11299376089E+03  0.11647460192E+03  0.17525268637E+03  0.00000000000E+00 0. -1.
         21    1    1    2  504  502 -0.93026935376E+02 -0.87418708379E+02  0.13952561201E+03  0.18911223569E+03  0.00000000000E+00 0.  1.
         21    1    1    2  505  503 -0.12981088718E+02  0.17978771613E+03 -0.11549554554E+04  0.11689372248E+04  0.00000000000E+00 0. -1.
         21    1    1    2  506  504  0.39829619841E+02  0.20624753135E+02  0.37580928134E+03  0.37847641274E+03  0.00000000000E+00 0.  1.
<scales pt_clust_3="177.40377" pt_clust_4="105.49259" pt_clust_5="14000.00000" pt_clust_6="44.85286"></scales>
<clustering>
<clus scale="   44.853">  1  6  2 -1</clus>
<clus scale="  105.493">  1  4  2 -1</clus>
<clus scale="  177.404">  1  3  2 -1</clus>
<clus scale="   44.853">  1  3  2 -1</clus>
</clustering>
</event>
<event>
 6    0  0.6687079E+002  0.1775942E+03  0.7546771E-02  0.1170152E+00
         21   -1    0    0  503  501  0.00000000000E+00  0.00000000000E+00  0.15070404136E+04  0.15070404136E+04  0.00000000000E+00 0.  1.
         21   -1    0    0  506  502 -0.00000000000E+00 -0.00000000000E+00 -0.11243384965E+03  0.11243384965E+03  0.00000000000E+00 0.  1.
         21    1    1    2  503  502 -0.11658708859E+03 -0.45985884323E+02  0.21246774605E+03  0.24667750991E+03  0.00000000000E+00 0.  1.
         21    1    1    2  504  505  0.39741308380E+02  0.14563161749E+03  0.33128338076E+03  0.36405578964E+03  0.00000000000E+00 0.  1.
         21    1    1    2  505  501  0.10478692995E+03 -0.19721466092E+03  0.87613459694E+03  0.90414918853E+03  0.00000000000E+00 0.  1.
         21    1    1    2  506  504 -0.27941149735E+02  0.97568927761E+02 -0.25279159803E+02  0.10459177517E+03  0.00000000000E+00 0.  1.
<scales pt_clust_3="127.11301" pt_clust_4="177.59422" pt_clust_5="14000.00000" pt_clust_6="101.49090"></scales>
<clustering>
<clus scale="  101.491">  2  6  1 -1</clus>
<clus scale="  127.113">  2  3  1 -1</clus>
<clus scale="  177.594">  2  4  1 -1</clus>
<clus scale="  177.594">  1  3  2 -1</clus>
</clustering>
</event>
<event>
 6    0  0.6687079E+002  0.2274293E+03  0.7546771E-02  0.1128462E+00
         21   -1    0    0  503  501  0.00000000000E+00  0.00000000000E+00  0.15511000570E+03  0.15511000570E+03  0.00000000000E+00 0.  1.
         21   -1    0    0  505  502 -0.00000000000E+00 -0.00000000000E+00 -0.53872785428E+03  0.53872785428E+03  0.00000000000E+00 0.  1.
         21    1    1    2  503  504  0.24122578555E+02  0.37384366670E+02  0.54403867428E+02  0.70279943502E+02  0.00000000000E+00 0.  1.
         21    1    1    2  504  502 -0.14626857192E+03  0.14548634882E+03 -0.16872664089E+03  0.26651351217E+03  0.00000000000E+00 0.  1.
         21    1    1    2  505  506  0.87554422539E+02 -0.17785282514E+03 -0.24112866947E+03  0.31215451232E+03  0.00000000000E+00 0.  1.
         21    1    1    2  506  501  0.34591570821E+02 -0.50178903521E+01 -0.28166405644E+02  0.44889891984E+02  0.00000000000E+00 0. -1.
<scales pt_clust_3="44.49146" pt_clust_4="212.42537" pt_clust_5="34.11234" pt_clust_6="34.11234"></scales>
<clustering>
<clus scale="   34.112">  5  6 -1 -1</clus>
<clus scale="   44.491">  1  3  2 -1</clus>
<clus scale="  212.425">  1  4  2 -1</clus>
<clus scale="   44.491">  1  3  2 -1</clus>
</clustering>
</event>
<event>
 6    0  0.8731459E+002  0.1488047E+03  0.7546771E-02  0.1201950E+00
         21   -1    0    0  504  501  0.00000000000E+00  0.00000000000E+00  0.13504347915E+04  0.13504347915E+04  0.00000000000E+00 0.  1.
         21   -1    0    0  506  502 -0.00000000000E+00 -0.00000000000E+00 -0.15457637167E+03  0.15457637167E+03  0.00000000000E+00 0.  1.
         21    1    1    2  503  505  0.11813106554E+03 -0.24041954961E+02  0.11994136827E+04  0.12054568207E+04  0.00000000000E+00 0.  1.
         21    1    1    2  504  503  0.29703395542E+02 -0.12798342987E+02  0.76226064443E+02  0.82803998638E+02  0.00000000000E+00 0. -1.
         21    1    1    2  505  502 -0.11614915076E+03  0.19320308658E+02 -0.11617778328E+03  0.16541214247E+03  0.00000000000E+00 0.  1.
         21    1    1    2  506  501 -0.31685310320E+02  0.17519989289E+02  0.36396455912E+02  0.51338201349E+02  0.00000000000E+00 0. -1.
<scales pt_clust_3="148.80469" pt_clust_4="32.34330" pt_clust_5="14000.00000" pt_clust_6="35.09566"></scales>
<clustering>
<clus scale="   32.343">  1  4  2 -1</clus>
<clus scale="   35.096">  2  6  1 -1</clus>
<clus scale="  148.805">  1  3  2 -1</clus>
<clus scale="   32.343">  1  3  2 -1</clus>
</clustering>
</event>
<event>
 6    0  0.6687079E+002  0.1290768E+03  0.7546771E-02  0.1228832E+00
         21   -1    0    0  506  501  0.00000000000E+00  0.00000000000E+00  0.81467919280E+03  0.81467919280E+03  0.00000000000E+00 0.  1.
         21   -1    0    0  504  502 -0.00000000000E+00 -0.00000000000E+00 -0.10516369517E+03  0.10516369517E+03  0.00000000000E+00 0. -1.
         21    1    1    2  503  502 -0.43781251867E+02 -0.12253832745E+03 -0.16840236172E+02  0.13120988249E+03  0.00000000000E+00 0. -1.
         21    1    1    2  504  505 -0.50764442698E+02  0.23663481308E+02  0.11684027298E+02  0.57214556574E+02  0.00000000000E+00 0. -1.
         21    1    1    2  505  501  0.68366006032E+02  0.62951021397E+02  0.61884139546E+03  0.62578064417E+03  0.00000000000E+00 0.  1.
         21    1    1    2  506  503  0.26179688532E+02  0.35923824748E+02  0.95830311041E+02  0.10563780474E+03  0.00000000000E+00 0.  1.
<scales pt_clust_3="14000.00000" pt_clust_4="55.63607" pt_clust_5="129.07680" pt_clust_6="44.45107"></scales>
<clustering>
<clus scale="   44.451">  1  6  2 -1</clus>
<clus scale="   55.636">  2  4  1 -1</clus>
<clus scale="  129.077">  1  5  2 -1</clus>
<clus scale="   44.451">  1  3  2 -1</clus>
</clustering>
</event>
<event>
 6    0  0.1363724E+003  0.9461459E+02  0.7546771E-02  0.1292046E+00
         21   -1    0    0  504  501  0.00000000000E+00  0.00000000000E+00  0.28405504751E+04  0.28405504751E+04  0.00000000000E+00 0. -1.
         21   -1    0    0  503  502 -0.00000000000E+00 -0.00000000000E+00 -0.82396013324E+03  0.82396013324E+03  0.00000000000E+00 0.  1.
         21    1    1    2  503  505 -0.86506494757E+01 -0.51933088947E+02 -0.80557813211E+03  0.80729672760E+03  0.00000000000E+00 0.  1.
         21    1    1    2  504  506  0.71788464346E+02  0.13251236174E+01  0.15711085757E+04  0.15727483894E+04  0.00000000000E+00 0.  1.
         21    1    1    2  505  501 -0.43407570878E+02 -0.41676931894E+02  0.46072229239E+02  0.75788087248E+02  0.00000000000E+00 0.  1.
         21    1    1    2  506  502 -0.19730243993E+02  0.92284897224E+02  0.12049876690E+04  0.12086774042E+04  0.00000000000E+00 0. -1.
<scales pt_clust_3="52.64864" pt_clust_4="71.39224" pt_clust_5="94.61459" pt_clust_6="14000.00000"></scales>
<clustering>
<clus scale="   52.649">  2  3  1 -1</clus>
<clus scale="   71.392">  1  4  2 -1</clus>
<clus scale="   94.615">  2  5  1 -1</clus>
<clus scale="   71.392">  1  3  2 -1</clus>
</clustering>
</event>
<event>
 6    0  0.6687079E+002  0.8478158E+02  0.7546771E-02  0.1316005E+00
         21   -1    0    0  506  501  0.00000000000E+00  0.00000000000E+00  0.18525803403E+04  0.18525803403E+04  0.00000000000E+00 0. -1.
         21   -1    0    0  505  502 -0.00000000000E+00 -0.00000000000E+00 -0.67855530204E+02  0.67855530204E+02  0.00000000000E+00 0.  1.
         21    1    1    2  503  501 -0.17664978188E+02  0.89829664995E+02  0.62494555149E+03  0.63161567626E+03  0.00000000000E+00 0.  1.
         21    1    1    2  504  503  0.58562715229E+02 -0.34066325477E+01  0.97295214751E+03  0.97471897391E+03  0.00000000000E+00 0. -1.
         21    1    1    2  505  504 -0.75005537641E+02 -0.41846261124E+02 -0.29342895931E+02  0.90763130116E+02  0.00000000000E+00 0.  1.
         21    1    1    2  506  502  0.34107800600E+02 -0.44576771323E+02  0.21617000698E+03  0.22333809017E+03  0.00000000000E+00 0.  1.
<scales pt_clust_3="72.81909" pt_clust_4="14000.00000" pt_clust_5="84.78158" pt_clust_6="56.12870"></scales>
<clustering>
<clus scale="   56.129">  1  6  2 -1</clus>
<clus scale="   72.819">  1  3  2 -1</clus>
<clus scale="   84.782">  2  5  1 -1</clus>
<clus scale="   56.129">  1  3  2 -1</clus>
</clustering>
</event>
<event>
 6    0  0.6687079E+002  0.1141181E+03  0.7546771E-02  0.1253128E+00
         21   -1    0    0  502  501  0.00000000000E+00  0.00000000000E+00  0.44634891258E+03  0.44634891258E+03  0.00000000000E+00 0.  1.
         21   -1    0    0  505  502 -0.00000000000E+00 -0.00000000000E+00 -0.15604186911E+03  0.15604186911E+03  0.00000000000E+00 0.  1.
         21    1    1    2  503  504 -0.35453532354E+02  0.66390695819E+02  0.17951826427E+02  0.77375354731E+02  0.00000000000E+00 0.  1.
         21    1    1    2  504  501  0.21561061473E+00 -0.49171358770E+02  0.30638114324E+03  0.31030190773E+03  0.00000000000E+00 0.  1.
         21    1    1    2  505  506  0.53009201144E+02 -0.86936574036E+02 -0.79862689276E+02  0.12940630761E+03  0.00000000000E+00 0.  1.
         21    1    1    2  506  503 -0.17771279404E+02  0.69717236988E+02  0.45836763081E+02  0.85307211622E+02  0.00000000000E+00 0.  1.
<scales pt_clust_3="31.50577" pt_clust_4="49.17183" pt_clust_5="109.47404" pt_clust_6="31.50577"></scales>
<clustering>
<clus scale="   31.506">  3  6 -1 -1</clus>
<clus scale="   49.172">  1  4  2 -1</clus>
<clus scale="  109.474">  2  5  1 -1</clus>
<clus scale="   49.172">  1  3  2 -1</clus>
</clustering>
</event>
<event>
 6    0  0.6687079E+002  0.1615113E+03  0.7546771E-02  0.1187001E+00
         21   -1    0    0  503  501  0.00000000000E+00  0.00000000000E+00  0.13614535404E+04  0.13614535404E+04  0.00000000000E+00 0. -1.
         21   -1    0    0  506  502 -0.00000000000E+00 -0.00000000000E+00 -0.17875425370E+04  0.17875425370E+04  0.00000000000E+00 0.  1.
         21    1    1    2  503  504 -0.79052472258E+02 -0.37785756815E+02  0.57586017412E+02  0.10484849159E+03  0.00000000000E+00 0.  1.
         21    1    1    2  504  502 -0.39284127749E+02  0.14899839918E+03 -0.17549107392E+04  0.17616626999E+04  0.00000000000E+00 0.  1.
         21    1    1    2  505  501  0.65425033745E+02 -0.54711126035E+02  0.48440512426E+03  0.49185573775E+03  0.00000000000E+00 0. -1.
         21    1    1    2  506  505  0.52911566262E+02 -0.56501516327E+02  0.78683060099E+03  0.79062914811E+03  0.00000000000E+00 0. -1.
<scales pt_clust_3="87.61882" pt_clust_4="154.04709" pt_clust_5="46.23680" pt_clust_6="46.23680"></scales>
<clustering>
<clus scale="   46.237">  5  6 -1 -1</clus>
<clus scale="   87.619">  1  3  2 -1</clus>
<clus scale="  154.047">  2  4  1 -1</clus>
<clus scale="   87.619">  1  3  2 -1</clus>
</clustering>
</event>
<event>
 6    0  0.6687079E+002  0.8380198E+02  0.7546771E-02  0.1318596E+00
         21   -1    0    0  506  501  0.00000000000E+00  0.00000000000E+00  0.25115033708E+03  0.25115033708E+03  0.00000000000E+00 0. -1.
         21   -1    0    0  504  502 -0.00000000000E+00 -0.00000000000E+00 -0.14806275533E+03  0.14806275533E+03  0.00000000000E+00 0. -1.
         21    1    1    2  503  502 -0.55978992385E+02  0.21593525504E+02 -0.28152947105E+02  0.66276061763E+02  0.00000000000E+00 0. -1.
         21    1    1    2  504  505  0.31574150501E+02 -0.65190438532E+01 -0.12454079999E+02  0.34561959164E+02  0.00000000000E+00 0. -1.
         21    1    1    2  505  501 -0.18394511341E+02 -0.86979089386E+02 -0.39265112532E+02  0.97187803247E+02  0.00000000000E+00 0. -1.
         21    1    1    2  506  503  0.42799353225E+02  0.71904607735E+02  0.18295972139E+03  0.20118726824E+03  0.00000000000E+00 0. -1.
<scales pt_clust_3="47.98512" pt_clust_4="32.24011" pt_clust_5="14000.00000" pt_clust_6="83.80198"></scales>
<clustering>
<clus scale="   32.240">  2  4  1 -1</clus>
<clus scale="   47.985">  2  3  1 -1</clus>
<clus scale="   83.802">  1  6  2 -1</clus>
<clus scale="   83.802">  1  3  2 -1</clus>
</clustering>
</event>
<event>
 6    0  0.6687079E+002  0.8955827E+02  0.7546771E-02  0.1303925E+00
         21   -1    0    0  504  501  0.00000000000E+00  0.00000000000E+00  0.50365111343E+03  0.50365111343E+03  0.00000000000E+00 0. -1.
         21   -1    0    0  506  502 -0.00000000000E+00 -0.00000000000E+00 -0.39404652207E+03  0.39404652207E+03  0.00000000000E+00 0. -1.
         21    1    1    2  503  501  0.87599484011E+00  0.37478169988E+02  0.46143363704E+03  0.46295397394E+03  0.00000000000E+00 0. -1.
         21    1    1    2  504  502 -0.86648294683E+01  0.40740524819E+02 -0.62771410836E+02  0.75333390011E+02  0.00000000000E+00 0.  1.
         21    1    1    2  505  503 -0.59988353078E+02 -0.10427212301E+03 -0.98471701608E+02  0.15546045851E+03  0.00000000000E+00 0. -1.
         21    1    1    2  506  505  0.67777187706E+02  0.26053428204E+02 -0.19058593323E+03  0.20394981304E+03  0.00000000000E+00 0. -1.
<scales pt_clust_3="37.48841" pt_clust_4="47.19628" pt_clust_5="14000.00000" pt_clust_6="89.55827"></scales>
<clustering>
<clus scale="   37.488">  1  3  2 -1</clus>
<clus scale="   47.196">  2  4  1 -1</clus>
<clus scale="   89.558">  2  6  1 -1</clus>
<clus scale="   37.488">  1  3  2 -1</clus>
</clustering>
</event>
<event>
 6    0  0.6687079E+002  0.1539722E+03  0.7546771E-02  0.1195675E+00
         21   -1    0    0  506  501  0.00000000000E+00  0.00000000000E+00  0.19365356075E+04  0.19365356075E+04  0.00000000000E+00 0. -1.
         21   -1    0    0  504  502 -0.00000000000E+00 -0.00000000000E+00 -0.11251191760E+03  0.11251191760E+03  0.00000000000E+00 0.  1.
         21    1    1    2  503  501  0.41144135106E+02 -0.20791416362E+02  0.21851243942E+03  0.22332220899E+03  0.00000000000E+00 0.  1.
         21    1    1    2  504  503  0.92557296380E+02  0.29157263385E+02  0.62805370400E+03  0.63550645491E+03  0.00000000000E+00 0. -1.
         21    1    1    2  505  502  0.11575600135E+02  0.51700188078E+02 -0.93670921178E+02  0.10761573045E+03  0.00000000000E+00 0.  1.
         21    1    1    2  506  505 -0.14527703162E+03 -0.60066035101E+02  0.10711284676E+04  0.10826031307E+04  0.00000000000E+00 0. -1.
<scales pt_clust_3="37.53887" pt_clust_4="37.53887" pt_clust_5="52.98022" pt_clust_6="144.01755"></scales>
<clustering>
<clus scale="   37.539">  3  4 -1 -1</clus>
<clus scale="   52.980">  2  5  1 -1</clus>
<clus scale="  144.018">  2  6  1 -1</clus>
<clus scale="  153.972">  1  3  2 -1</clus>
</clustering>
</event>
<event>
 6    0  0.6687079E+002  0.1632757E+03  0.7546771E-02  0.1185047E+00
         21   -1    0    0  504  501  0.00000000000E+00  0.00000000000E+00  0.19991809541E+03  0.19991809541E+03  0.00000000000E+00 0. -1.
         21   -1    0    0  506  502 -0.00000000000E+00 -0.00000000000E+00 -0.64313419011E+03  0.64313419011E+03  0.00000000000E+00 0. -1.
         21    1    1    2  503  505 -0.64365299334E+02 -0.43530048452E+02 -0.27998012546E+02  0.82593253860E+02  0.00000000000E+00 0. -1.
         21    1    1    2  504  502  0.14609989700E+03  0.46677303567E+02 -0.48929136324E+03  0.51276699261E+03  0.00000000000E+00 0. -1.
         21    1    1    2  505  501  0.31938071182E+02  0.18695782925E+02  0.11816641860E+03  0.12382598748E+03  0.00000000000E+00 0. -1.
         21    1    1    2  506  503 -0.11367266885E+03 -0.21843038040E+02 -0.44093137525E+02  0.12386605157E+03  0.00000000000E+00 0. -1.
<scales pt_clust_3="31.27567" pt_clust_4="158.75071" pt_clust_5="37.00774" pt_clust_6="31.27567"></scales>
<clustering>
<clus scale="   31.276">  3  6 -1 -1</clus>
<clus scale="   37.008">  1  5  2 -1</clus>
<clus scale="  158.751">  2  4  1 -1</clus>
<clus scale="   37.008">  1  3  2 -1</clus>
</clustering>
</event>
<event>
 6    0  0.6687079E+002  0.8761748E+02  0.7546771E-02  0.1308726E+00
         21   -1    0    0  503  501  0.00000000000E+00  0.00000000000E+00  0.53733336784E+03  0.53733336784E+03  0.00000000000E+00 0.  1.
         21   -1    0    0  505  502 -0.00000000000E+00 -0.00000000000E+00 -0.99730501180E+02  0.99730501180E+02  0.00000000000E+00 0. -1.
         21    1    1    2  503  506 -0.53562061451E+02 -0.95068405468E+02  0.31811436653E+03  0.33630885557E+03  0.00000000000E+00 0.  1.
         21    1    1    2  504  502 -0.13797317005E+02  0.33118058591E+02 -0.72541339136E+02  0.80928472400E+02  0.00000000000E+00 0. -1.
         21    1    1    2  505  501  0.40476129821E+02  0.25958050745E+01  0.90690076998E+02  0.99346592066E+02  0.00000000000E+00 0.  1.
         21    1    1    2  506  504  0.26883248635E+02  0.59354541802E+02  0.10133976227E+03  0.12047994898E+03  0.00000000000E+00 0.  1.
<scales pt_clust_3="87.61748" pt_clust_4="35.87718" pt_clust_5="38.89459" pt_clust_6="14000.00000"></scales>
<clustering>
<clus scale="   35.877">  2  4  1 -1</clus>
<clus scale="   38.895">  2  5  1 -1</clus>
<clus scale="   87.617">  1  3  2 -1</clus>
<clus scale="   87.617">  1  3  2 -1</clus>
</clustering>
</event>
<event>
 6    0  0.6687079E+002  0.1143111E+03  0.7546771E-02  0.1252788E+00
         21   -1    0    0  504  501  0.00000000000E+00  0.00000000000E+00  0.11114018278E+04  0.11114018278E+04  0.00000000000E+00 0.  1.
         21   -1    0    0  506  502 -0.00000000000E+00 -0.00000000000E+00 -0.87988424192E+02  0.87988424192E+02  0.00000000000E+00 0.  1.
         21    1    1    2  503  502  0.40144634490E+02 -0.61831766399E+02  0.14495808592E+03  0.16262719849E+03  0.00000000000E+00 0.  1.
         21    1    1    2  504  503  0.20030695683E+02  0.61574470680E+02  0.67407373625E+03  0.67717652507E+03  0.00000000000E+00 0.  1.
         21    1    1    2  505  501 -0.15404074826E+03 -0.43856422667E+02  0.19939178630E+03  0.25575187659E+03  0.00000000000E+00 0.  1.
         21    1    1    2  506  505  0.93865418088E+02  0.44113718387E+02  0.49897951113E+01  0.10383465182E+03  0.00000000000E+00 0.  1.
<scales pt_clust_3="61.94549" pt_clust_4="64.75063" pt_clust_5="114.31113" pt_clust_6="14000.00000"></scales>
<clustering>
<clus scale="   64.751">  1  4  2 -1</clus>
<clus scale="   61.945">  1  3  2 -1</clus>
<clus scale="  114.311">  1  5  2 -1</clus>
<clus scale="   64.751">  1  3  2 -1</clus>
</clustering>
</event>
<event>
 6    0  0.6687079E+002  0.2954846E+03  0.7546771E-02  0.1087520E+00
         21   -1    0    0  504  501  0.00000000000E+00  0.00000000000E+00  0.12212355082E+04  0.12212355082E+04  0.00000000000E+00 0. -1.
         21   -1    0    0  503  502 -0.00000000000E+00 -0.00000000000E+00 -0.13638801242E+03  0.13638801242E+03  0.00000000000E+00 0.  1.
         21    1    1    2  503  506 -0.18350080886E+03  0.21254772591E+03  0.70804024219E+02  0.28958986945E+03  0.00000000000E+00 0.  1.
         21    1    1    2  504  502  0.24835236229E+02  0.21752221220E+02  0.57495525268E+02  0.66299951074E+02  0.00000000000E+00 0. -1.
         21    1    1    2  505  501  0.14522367845E+03 -0.17265936568E+03  0.63080232972E+03  0.66993488678E+03  0.00000000000E+00 0. -1.
         21    1    1    2  506  505  0.13441894182E+02 -0.61640581455E+02  0.32574561655E+03  0.33179881329E+03  0.00000000000E+00 0. -1.
<scales pt_clust_3="280.88425" pt_clust_4="33.01436" pt_clust_5="46.92375" pt_clust_6="46.92375"></scales>
<clustering>
<clus scale="   33.014">  1  4  2 -1</clus>
<clus scale="   46.924">  5  6 -1 -1</clus>
<clus scale="  280.884">  2  3  1 -1</clus>
<clus scale="   33.014">  1  3  2 -1</clus>
</clustering>
</event>
<event>
 6    0  0.6687079E+002  0.1332019E+03  0.7546771E-02  0.1222781E+00
         21   -1    0    0  502  501  0.00000000000E+00  0.00000000000E+00  0.16604830690E+03  0.16604830690E+03  0.00000000000E+00 0. -1.
         21   -1    0    0  504  502 -0.00000000000E+00 -0.00000000000E+00 -0.45686636605E+03  0.45686636605E+03  0.00000000000E+00 0.  1.
         21    1    1    2  503  506  0.57738897624E+02  0.14958384320E+02  0.30419134710E+02  0.66954143388E+02  0.00000000000E+00 0.  1.
         21    1    1    2  504  505 -0.13191350392E+02  0.41566863462E+02 -0.35081033964E+03  0.35351055184E+03  0.00000000000E+00 0.  1.
         21    1    1    2  505  503 -0.10915810666E+03 -0.68450374565E+01 -0.13606927288E+02  0.11021567609E+03  0.00000000000E+00 0.  1.
         21    1    1    2  506  501  0.64610559424E+02 -0.49680210325E+02  0.43180073065E+02  0.92234301628E+02  0.00000000000E+00 0. -1.
<scales pt_clust_3="55.24951" pt_clust_4="43.60981" pt_clust_5="118.29466" pt_clust_6="55.24951"></scales>
<clustering>
<clus scale="   43.610">  2  4  1 -1</clus>
<clus scale="   55.250">  3  6 -1 -1</clus>
<clus scale="  118.295">  2  5  1 -1</clus>
<clus scale="  133.202">  1  3  2 -1</clus>
</clustering>
</event>
<event>
 6    0  0.6687079E+002  0.2468563E+03  0.7546771E-02  0.1115308E+00
         21   -1    0    0  505  501  0.00000000000E+00  0.00000000000E+00  0.91953275805E+03  0.91953275805E+03  0.00000000000E+00 0.  1.
         21   -1    0    0  504  502 -0.00000000000E+00 -0.00000000000E+00 -0.93757041255E+03  0.93757041255E+03  0.00000000000E+00 0.  1.
         21    1    1    2  503  506 -0.19912913995E+02 -0.66121288939E+02 -0.38663763433E+03  0.39275591564E+03  0.00000000000E+00 0.  1.
         21    1    1    2  504  501 -0.42733120151E+02  0.37365759633E+02 -0.39149708781E+02  0.68956647602E+02  0.00000000000E+00 0.  1.
         21    1    1    2  505  503  0.83520263525E+02  0.21268236207E+03  0.86891819329E+03  0.89845881830E+03  0.00000000000E+00 0.  1.
         21    1    1    2  506  502 -0.20874229378E+02 -0.18392683277E+03 -0.46116850469E+03  0.49693178906E+03  0.00000000000E+00 0.  1.
<scales pt_clust_3="56.57978" pt_clust_4="56.76548" pt_clust_5="228.81587" pt_clust_6="56.57978"></scales>
<clustering>
<clus scale="   56.580">  3  6 -1 -1</clus>
<clus scale="   56.765">  2  4  1 -1</clus>
<clus scale="  228.816">  1  5  2 -1</clus>
<clus scale="  228.816">  1  3  2 -1</clus>
</clustering>
</event>
<event>
 6    0  0.6687079E+002  0.1112986E+03  0.7546771E-02  0.1258184E+00
         21   -1    0    0  502  501  0.00000000000E+00  0.00000000000E+00  0.18074018562E+04  0.18074018562E+04  0.00000000000E+00 0. -1.
         21   -1    0    0  505  502 -0.00000000000E+00 -0.00000000000E+00 -0.63510374264E+02  0.63510374264E+02  0.00000000000E+00 0. -1.
         21    1    1    2  503  501 -0.86317448714E+02 -0.28295773186E+02  0.13977542437E+04  0.14007027802E+04  0.00000000000E+00 0. -1.
         21    1    1    2  504  503  0.28854473332E+02  0.13357852147E+02  0.15169468793E+03  0.15499126166E+03  0.00000000000E+00 0. -1.
         21    1    1    2  505  506 -0.20929987812E+02 -0.67315840226E+02 -0.19353299292E+02  0.73102920110E+02  0.00000000000E+00 0. -1.
         21    1    1    2  506  504  0.78392963194E+02  0.82253761265E+02  0.21379584956E+03  0.24211526843E+03  0.00000000000E+00 0. -1.
<scales pt_clust_3="94.44954" pt_clust_4="31.14614" pt_clust_5="70.49459" pt_clust_6="31.14614"></scales>
<clustering>
<clus scale="   31.146">  4  6 -1 -1</clus>
<clus scale="   70.495">  2  5  1 -1</clus>
<clus scale="   94.450">  1  3  2 -1</clus>
<clus scale="   94.450">  1  3  2 -1</clus>
</clustering>
</event>
<event>
 6    0  0.6687079E+002  0.1301636E+03  0.7546771E-02  0.1227213E+00
         21   -1    0    0  505  501  0.00000000000E+00  0.00000000000E+00  0.26478447328E+03  0.26478447328E+03  0.00000000000E+00 0. -1.
         21   -1    0    0  506  502 -0.00000000000E+00 -0.00000000000E+00 -0.12338179439E+03  0.12338179439E+03  0.00000000000E+00 0. -1.
         21    1    1    2  503  501 -0.25802829080E+02 -0.20345069743E+02  0.17797518309E+02  0.37369232122E+02  0.00000000000E+00 0. -1.
         21    1    1    2  504  502  0.68700077098E+02 -0.10570135196E+03  0.10200572840E+03  0.16216548654E+03  0.00000000000E+00 0. -1.
         21    1    1    2  505  504  0.38224973201E+02  0.21704199118E+02  0.34440300537E+02  0.55842234345E+02  0.00000000000E+00 0.  1.
         21    1    1    2  506  503 -0.81122221219E+02  0.10434222258E+03 -0.12840868350E+02  0.13278931466E+03  0.00000000000E+00 0. -1.
<scales pt_clust_3="32.85891" pt_clust_4="130.16358" pt_clust_5="37.78688" pt_clust_6="14000.00000"></scales>
<clustering>
<clus scale="   32.859">  1  3  2 -1</clus>
<clus scale="   37.787">  1  5  2 -1</clus>
<clus scale="  130.164">  1  4  2 -1</clus>
<clus scale="   32.859">  1  3  2 -1</clus>
</clustering>
</event>
<event>
 6    0  0.6687079E+002  0.1257565E+03  0.7546771E-02  0.1233892E+00
         21   -1    0    0  504  501  0.00000000000E+00  0.00000000000E+00  0.47642066486E+03  0.47642066486E+03  0.00000000000E+00 0.  1.
         21   -1    0    0  503  502 -0.00000000000E+00 -0.00000000000E+00 -0.11569783458E+04  0.11569783458E+04  0.00000000000E+00 0.  1.
         21    1    1    2  503  506  0.13331650797E+03  0.58534947266E+02  0.18278882011E+03  0.23369078738E+03  0.00000000000E+00 0.  1.
         21    1    1    2  504  505 -0.36456442928E+02 -0.46484537349E+02  0.86312277742E+02  0.10459299084E+03  0.00000000000E+00 0.  1.
         21    1    1    2  505  502 -0.11928532621E+03 -0.38790028533E+02 -0.11170775663E+04  0.11240978358E+04  0.00000000000E+00 0.  1.
         21    1    1    2  506  501  0.22425261172E+02  0.26739618615E+02  0.16741878750E+03  0.17101739663E+03  0.00000000000E+00 0. -1.
<scales pt_clust_3="125.75651" pt_clust_4="48.23890" pt_clust_5="14000.00000" pt_clust_6="34.89842"></scales>
<clustering>
<clus scale="   34.898">  1  6  2 -1</clus>
<clus scale="   48.239">  1  4  2 -1</clus>
<clus scale="  125.757">  1  3  2 -1</clus>
<clus scale="   34.898">  1  3  2 -1</clus>
</clustering>
</event>
<event>
 6    0  0.6687079E+002  0.1074681E+03  0.7546771E-02  0.1265332E+00
         21   -1    0    0  503  501  0.00000000000E+00  0.00000000000E+00  0.16193007601E+04  0.16193007601E+04  0.00000000000E+00 0.  1.
         21   -1    0    0  504  502 -0.00000000000E+00 -0.00000000000E+00 -0.36631140715E+03  0.36631140715E+03  0.00000000000E+00 0. -1.
         21    1    1    2  503  505  0.88926151095E+02 -0.12543964593E+02  0.12881041182E+04  0.12912309750E+04  0.00000000000E+00 0.  1.
         21    1    1    2  504  501 -0.13175671258E+02  0.40333318150E+02  0.60478442518E+02  0.73878392480E+02  0.00000000000E+00 0. -1.
         21    1    1    2  505  506 -0.82759300973E+02 -0.13394268948E+03  0.22957271018E+03  0.27837631944E+03  0.00000000000E+00 0. -1.
         21    1    1    2  506  502  0.70088211361E+01  0.10615333592E+03 -0.32516591801E+03  0.34212648032E+03  0.00000000000E+00 0. -1.
<scales pt_clust_3="80.74863" pt_clust_4="42.43082" pt_clust_5="14000.00000" pt_clust_6="107.46811"></scales>
<clustering>
<clus scale="   42.431">  1  4  2 -1</clus>
<clus scale="   80.749">  1  3  2 -1</clus>
<clus scale="  107.468">  2  6  1 -1</clus>
<clus scale="   42.431">  1  3  2 -1</clus>
</clustering>
</event>
<event>
 6    0  0.6687079E+002  0.1278323E+03  0.7546771E-02  0.1230708E+00
         21   -1    0    0  504  501  0.00000000000E+00  0.00000000000E+00  0.18081618107E+04  0.18081618107E+04  0.00000000000E+00 0. -1.
         21   -1    0    0  503  502 -0.00000000000E+00 -0.00000000000E+00 -0.19180423493E+02  0.19180423493E+02  0.00000000000E+00 0. -1.
         21    1    1    2  503  505 -0.55062754667E+02 -0.23512868001E+02  0.90598304887E+02  0.10859472714E+03  0.00000000000E+00 0. -1.
         21    1    1    2  504  506  0.13104102604E+02 -0.57960037184E+02  0.36720053173E+03  0.37197757179E+03  0.00000000000E+00 0. -1.
         21    1    1    2  505  501  0.19073736941E+02  0.13235297109E+03  0.11336759021E+04  0.11415350049E+04  0.00000000000E+00 0. -1.
         21    1    1    2  506  502  0.22884915122E+02 -0.50880065902E+02  0.19750664850E+03  0.20523493038E+03  0.00000000000E+00 0. -1.
<scales pt_clust_3="59.87288" pt_clust_4="32.69672" pt_clust_5="123.29802" pt_clust_6="32.69672"></scales>
<clustering>
<clus scale="   32.697">  4  6 -1 -1</clus>
<clus scale="   59.873">  2  3  1 -1</clus>
<clus scale="  123.298">  1  5  2 -1</clus>
<clus scale="  123.298">  1  3  2 -1</clus>
</clustering>
</event>
<event>
 6    0  0.6687079E+002  0.9749076E+02  0.7546771E-02  0.1285663E+00
         21   -1    0    0  506  501  0.00000000000E+00  0.00000000000E+00  0.37219601697E+03  0.37219601697E+03  0.00000000000E+00 0. -1.
         21   -1    0    0  503  502 -0.00000000000E+00 -0.00000000000E+00 -0.64609517181E+02  0.64609517181E+02  0.00000000000E+00 0. -1.
         21    1    1    2  503  501 -0.68117418059E+02 -0.10495429233E+03  0.12344540888E+03  0.17576733228E+03  0.00000000000E+00 0. -1.
         21    1    1    2  504  505 -0.26115055126E+02  0.27345812980E+02  0.56254890755E+02  0.67782020667E+02  0.00000000000E+00 0. -1.
         21    1    1    2  505  502  0.86379438771E+02  0.28468846268E+02  0.59512016008E+02  0.10869021437E+03  0.00000000000E+00 0. -1.
         21    1    1    2  506  504  0.78530344141E+01  0.49139633086E+02  0.68374184149E+02  0.84565966839E+02  0.00000000000E+00 0. -1.
<scales pt_clust_3="14000.00000" pt_clust_4="33.69272" pt_clust_5="97.49076" pt_clust_6="87.62136"></scales>
<clustering>
<clus scale="   33.693">  4  6 -1 -1</clus>
<clus scale="   87.621">  1  4  2 -1</clus>
<clus scale="   97.491">  2  5  1 -1</clus>
<clus scale="   87.621">  1  3  2 -1</clus>
</clustering>
</event>
<event>
 6    0  0.6687079E+002  0.8711802E+02  0.7546771E-02  0.1309985E+00
         21   -1    0    0  506  501  0.00000000000E+00  0.00000000000E+00  0.49514523763E+02  0.49514523763E+02  0.00000000000E+00 0. -1.
         21   -1    0    0  504  502 -0.00000000000E+00 -0.00000000000E+00 -0.53152980097E+03  0.53152980097E+03  0.00000000000E+00 0. -1.
         21    1    1    2  503  502 -0.68102355583E+02  0.21139400272E+02 -0.22769401337E+03  0.23859876111E+03  0.00000000000E+00 0. -1.
         21    1    1    2  504  505  0.41650930574E+01  0.33512611084E+02 -0.12120781757E+03  0.12582439406E+03  0.00000000000E+00 0. -1.
         21    1    1    2  505  501  0.94886647556E+02 -0.85106345878E+02 -0.10048631126E+03  0.16230854797E+03  0.00000000000E+00 0. -1.
         21    1    1    2  506  503 -0.30949385030E+02  0.30454334522E+02 -0.32627135009E+02  0.54312621588E+02  0.00000000000E+00 0. -1.
<scales pt_clust_3="87.11802" pt_clust_4="33.77045" pt_clust_5="14000.00000" pt_clust_6="45.69769"></scales>
<clustering>
<clus scale="   33.770">  2  4  1 -1</clus>
<clus scale="   45.698">  1  6  2 -1</clus>
<clus scale="   87.118">  2  3  1 -1</clus>
<clus scale="   45.698">  1  3  2 -1</clus>
</clustering>
</event>
<event>
 6    0  0.6687079E+002  0.9958952E+02  0.7546771E-02  0.1281161E+00
         21   -1    0    0  503  501  0.00000000000E+00  0.00000000000E+00  0.10306887930E+04  0.10306887930E+04  0.00000000000E+00 0. -1.
         21   -1    0    0  504  502 -0.00000000000E+00 -0.00000000000E+00 -0.13826248628E+03  0.13826248628E+03  0.00000000000E+00 0.  1.
         21    1    1    2  503  505 -0.61013121598E+01 -0.56033864149E+02  0.15899753886E+03  0.16869273045E+03  0.00000000000E+00 0. -1.
         21    1    1    2  504  501  0.50879265482E+02 -0.32954199624E+02  0.69940577477E+03  0.70202786035E+03  0.00000000000E+00 0. -1.
         21    1    1    2  505  506  0.45361020114E+02  0.44034676113E+02  0.13902695467E+03  0.15272579668E+03  0.00000000000E+00 0. -1.
         21    1    1    2  506  502 -0.90138973436E+02  0.44953387660E+02 -0.10500396158E+03  0.14550489181E+03  0.00000000000E+00 0.  1.
<scales pt_clust_3="56.36506" pt_clust_4="99.58952" pt_clust_5="56.24087" pt_clust_6="14000.00000"></scales>
<clustering>
<clus scale="   56.365">  1  3  2 -1</clus>
<clus scale="   56.241">  1  5  2 -1</clus>
<clus scale="   99.590">  1  4  2 -1</clus>
<clus scale="   56.365">  1  3  2 -1</clus>
</clustering>
</event>
<event>
 6    0  0.6687079E+002  0.7177290E+02  0.7546771E-02  0.1354166E+00
         21   -1    0    0  506  501  0.00000000000E+00  0.00000000000E+00  0.57627534999E+03  0.57627534999E+03  0.00000000000E+00 0.  1.
         21   -1    0    0  504  502 -0.00000000000E+00 -0.00000000000E+00 -0.21987604203E+03  0.21987604203E+03  0.00000000000E+00 0. -1.
         21    1    1    2  503  501 -0.11887331929E+02 -0.49161990092E+02  0.13539960392E+03  0.14453810111E+03  0.00000000000E+00 0.  1.
         21    1    1    2  504  503 -0.27584076422E+02  0.19423922216E+02 -0.15227247705E+03  0.15596498739E+03  0.00000000000E+00 0. -1.
         21    1    1    2  505  502 -0.16665641538E+02 -0.72394542117E+02 -0.26778728460E+02  0.78967168077E+02  0.00000000000E+00 0.  1.
         21    1    1    2  506  505  0.56137049890E+02  0.10213260999E+03  0.40005090955E+03  0.41668113543E+03  0.00000000000E+00 0.  1.
<scales pt_clust_3="49.76512" pt_clust_4="33.73678" pt_clust_5="14000.00000" pt_clust_6="71.77290"></scales>
<clustering>
<clus scale="   33.737">  2  4  1 -1</clus>
<clus scale="   49.765">  1  3  2 -1</clus>
<clus scale="   71.773">  1  6  2 -1</clus>
<clus scale="   49.765">  1  3  2 -1</clus>
</clustering>
</event>
<event>
 6    0  0.6687079E+002  0.1309394E+03  0.7546771E-02  0.1226068E+00
         21   -1    0    0  503  501  0.00000000000E+00  0.00000000000E+00  0.46253949161E+03  0.46253949161E+03  0.00000000000E+00 0. -1.
         21   -1    0    0  505  502 -0.00000000000E+00 -0.00000000000E+00 -0.62617878690E+02  0.62617878690E+02  0.00000000000E+00 0. -1.
         21    1    1    2  503  506 -0.55726158084E+02 -0.20476552356E+02  0.61591979483E+02  0.85546863343E+02  0.00000000000E+00 0.  1.
         21    1    1    2  504  502  0.52197926585E+02  0.16776260931E+01  0.47013693853E+02  0.70268950318E+02  0.00000000000E+00 0.  1.
         21    1    1    2  505  501  0.47956170996E+02  0.99877958697E+02  0.23822417685E+03  0.26272829959E+03  0.00000000000E+00 0. -1.
         21    1    1    2  506  504 -0.44427939497E+02 -0.81079032435E+02  0.53091762737E+02  0.10661325705E+03  0.00000000000E+00 0. -1.
<scales pt_clust_3="46.92323" pt_clust_4="52.22488" pt_clust_5="117.11682" pt_clust_6="46.92323"></scales>
<clustering>
<clus scale="   46.923">  3  6 -1 -1</clus>
<clus scale="   52.225">  2  4  1 -1</clus>
<clus scale="  117.117">  1  5  2 -1</clus>
<clus scale="  117.117">  1  3  2 -1</clus>
</clustering>
</event>
<event>
 6    0  0.7809744E+002  0.1093903E+03  0.7546771E-02  0.1261703E+00
         21   -1    0    0  503  501  0.00000000000E+00  0.00000000000E+00  0.72781272559E+03  0.72781272559E+03  0.00000000000E+00 0.  1.
         21   -1    0    0  504  502 -0.00000000000E+00 -0.00000000000E+00 -0.95246259592E+03  0.95246259592E+03  0.00000000000E+00 0. -1.
         21    1    1    2  503  506  0.19924078812E+01 -0.37724713600E+02  0.16610567608E+03  0.17034734906E+03  0.00000000000E+00 0.  1.
         21    1    1    2  504  501  0.69933784977E+02 -0.82310382618E+01  0.56664956066E+02  0.90384741622E+02  0.00000000000E+00 0.  1.
         21    1    1    2  505  502 -0.31903631854E+02  0.94958416663E+02 -0.92871798568E+03  0.93410494033E+03  0.00000000000E+00 0. -1.
         21    1    1    2  506  505 -0.40022561004E+02 -0.49002664802E+02  0.48129748320E+03  0.48543829050E+03  0.00000000000E+00 0.  1.
<scales pt_clust_3="34.17466" pt_clust_4="70.41651" pt_clust_5="100.05110" pt_clust_6="34.17466"></scales>
<clustering>
<clus scale="   34.175">  3  6 -1 -1</clus>
<clus scale="   70.417">  1  4  2 -1</clus>
<clus scale="  100.051">  2  5  1 -1</clus>
<clus scale="   70.417">  1  3  2 -1</clus>
</clustering>
</event>
<event>
 6    0  0.6687079E+002  0.1944575E+03  0.7546771E-02  0.1154501E+00
         21   -1    0    0  504  501  0.00000000000E+00  0.00000000000E+00  0.62721985013E+03  0.62721985013E+03  0.00000000000E+00 0. -1.
         21   -1    0    0  506  502 -0.00000000000E+00 -0.00000000000E+00 -0.54818345226E+03  0.54818345226E+03  0.00000000000E+00 0. -1.
         21    1    1    2  503  501  0.19648181015E+02  0.88325207585E+02  0.13990194769E+03  0.16661316959E+03  0.00000000000E+00 0.  1.
         21    1    1    2  504  505  0.43832875934E+02 -0.38633435465E+02  0.30868272975E+03  0.31416379644E+03  0.00000000000E+00 0. -1.
         21    1    1    2  505  502 -0.10929331047E+02 -0.17375966831E+03 -0.48618411935E+03  0.51641734141E+03  0.00000000000E+00 0. -1.
         21    1    1    2  506  503 -0.52551725902E+02  0.12406789619E+03  0.11663583978E+03  0.17820899495E+03  0.00000000000E+00 0. -1.
<scales pt_clust_3="70.89022" pt_clust_4="58.42828" pt_clust_5="175.83089" pt_clust_6="70.89022"></scales>
<clustering>
<clus scale="   58.428">  1  4  2 -1</clus>
<clus scale="   70.890">  3  6 -1 -1</clus>
<clus scale="  175.831">  2  5  1 -1</clus>
<clus scale="   58.428">  1  3  2 -1</clus>
</clustering>
</event>
<event>
 6    0  0.6687079E+002  0.1988704E+03  0.7546771E-02  0.1150696E+00
         21   -1    0    0  505  501  0.00000000000E+00  0.00000000000E+00  0.52403847048E+03  0.52403847048E+03  0.00000000000E+00 0.  1.
         21   -1    0    0  506  502 -0.00000000000E+00 -0.00000000000E+00 -0.14167843197E+04  0.14167843197E+04  0.00000000000E+00 0. -1.
         21    1    1    2  503  504  0.11526206030E+03  0.42401153736E+02  0.14435695934E+03  0.18953134857E+03  0.00000000000E+00 0.  1.
         21    1    1    2  504  501  0.86936099028E+02  0.21834617128E+02  0.32839973898E+03  0.34041302029E+03  0.00000000000E+00 0.  1.
         21    1    1    2  505  502 -0.13756001003E+03 -0.83980491263E+02 -0.13190681617E+04  0.13288778328E+04  0.00000000000E+00 0. -1.
         21    1    1    2  506  503 -0.64638149304E+02  0.19744720398E+02 -0.46434385805E+02  0.82000588498E+02  0.00000000000E+00 0. -1.
<scales pt_clust_3="198.87044" pt_clust_4="89.37922" pt_clust_5="14000.00000" pt_clust_6="67.58657"></scales>
<clustering>
<clus scale="   67.587">  2  6  1 -1</clus>
<clus scale="   89.379">  1  4  2 -1</clus>
<clus scale="  198.870">  1  3  2 -1</clus>
<clus scale="   89.379">  1  3  2 -1</clus>
</clustering>
</event>
<event>
 6    0  0.6687079E+002  0.1528732E+03  0.7546771E-02  0.1196986E+00
         21   -1    0    0  504  501  0.00000000000E+00  0.00000000000E+00  0.74772501327E+03  0.74772501327E+03  0.00000000000E+00 0. -1.
         21   -1    0    0  503  502 -0.00000000000E+00 -0.00000000000E+00 -0.26330259146E+03  0.26330259146E+03  0.00000000000E+00 0. -1.
         21    1    1    2  503  501  0.33572191024E+02 -0.17314172737E+02  0.66173553330E+03  0.66281278550E+03  0.00000000000E+00 0. -1.
         21    1    1    2  504  506 -0.77717718147E+02  0.10177313820E+02 -0.81280202446E+02  0.11291630857E+03  0.00000000000E+00 0. -1.
         21    1    1    2  505  502  0.12361469728E+03 -0.29473280362E+02 -0.62239660998E+02  0.14150280224E+03  0.00000000000E+00 0. -1.
         21    1    1    2  506  505 -0.79469170161E+02  0.36610139280E+02 -0.33793248050E+02  0.93795708420E+02  0.00000000000E+00 0. -1.
<scales pt_clust_3="37.77397" pt_clust_4="50.07149" pt_clust_5="144.14940" pt_clust_6="50.07149"></scales>
<clustering>
<clus scale="   37.774">  1  3  2 -1</clus>
<clus scale="   50.071">  4  6 -1 -1</clus>
<clus scale="  144.149">  2  5  1 -1</clus>
<clus scale="   37.774">  1  3  2 -1</clus>
</clustering>
</event>
<event>
 6    0  0.6687079E+002  0.1096944E+03  0.7546771E-02  0.1261137E+00
         21   -1    0    0  505  501  0.00000000000E+00  0.00000000000E+00  0.14991864927E+03  0.14991864927E+03  0.00000000000E+00 0. -1.
         21   -1    0    0  506  502 -0.00000000000E+00 -0.00000000000E+00 -0.14500609067E+03  0.14500609067E+03  0.00000000000E+00 0.  1.
         21    1    1    2  503  504  0.77039337323E+02 -0.25422120226E+02 -0.64621996328E+01  0.81382453368E+02  0.00000000000E+00 0. -1.
         21    1    1    2  504  502  0.27960863271E+02 -0.42834635419E+02  0.14855048619E+02  0.53266202566E+02  0.00000000000E+00 0. -1.
         21    1    1    2  505  503 -0.87010320241E+02  0.13885413989E+02  0.31025546278E+02  0.93414051791E+02  0.00000000000E+00 0. -1.
         21    1    1    2  506  501 -0.17989880353E+02  0.54371341657E+02 -0.34505836656E+02  0.66862032215E+02  0.00000000000E+00 0.  1.
<scales pt_clust_3="38.70443" pt_clust_4="38.70443" pt_clust_5="98.27036" pt_clust_6="57.27022"></scales>
<clustering>
<clus scale="   38.704">  3  4 -1 -1</clus>
<clus scale="   57.270">  2  6  1 -1</clus>
<clus scale="   98.270">  1  5  2 -1</clus>
<clus scale="   98.270">  1  3  2 -1</clus>
</clustering>
</event>
<event>
 6    0  0.6687079E+002  0.7687658E+02  0.7546771E-02  0.1338156E+00
         21   -1    0    0  505  501  0.00000000000E+00  0.00000000000E+00  0.26690163978E+03  0.26690163978E+03  0.00000000000E+00 0.  1.
         21   -1    0    0  503  502 -0.00000000000E+00 -0.00000000000E+00 -0.13987245834E+03  0.13987245834E+03  0.00000000000E+00 0. -1.
         21    1    1    2  503  506  0.29196718403E+02  0.38084838008E+02 -0.90467344702E+02  0.10240724442E+03  0.00000000000E+00 0. -1.
         21    1    1    2  504  502  0.12291499997E+02 -0.51294508877E+02  0.46718100348E+02  0.70461255405E+02  0.00000000000E+00 0.  1.
         21    1    1    2  505  504 -0.95868484133E+02 -0.11491719673E+02  0.12848154887E+03  0.16071818277E+03  0.00000000000E+00 0.  1.
         21    1    1    2  506  501  0.54380265732E+02  0.24701390542E+02  0.42296876915E+02  0.73187415534E+02  0.00000000000E+00 0.  1.
<scales pt_clust_3="47.98857" pt_clust_4="45.63483" pt_clust_5="14000.00000" pt_clust_6="76.87658"></scales>
<clustering>
<clus scale="   47.989">  2  3  1 -1</clus>
<clus scale="   45.635">  2  4  1 -1</clus>
<clus scale="   76.877">  1  6  2 -1</clus>
<clus scale="   76.877">  1  3  2 -1</clus>
</clustering>
</event>
<event>
 6    0  0.6687079E+002  0.1063597E+03  0.7546771E-02  0.1267464E+00
         21   -1    0    0  503  501  0.00000000000E+00  0.00000000000E+00  0.24572486357E+03  0.24572486357E+03  0.00000000000E+00 0. -1.
         21   -1    0    0  505  502 -0.00000000000E+00 -0.00000000000E+00 -0.51586000810E+03  0.51586000810E+03  0.00000000000E+00 0.  1.
         21    1    1    2  503  504 -0.77237885891E+01  0.93372458745E+02 -0.69194250210E+02  0.11647281753E+03  0.00000000000E+00 0.  1.
         21    1    1    2  504  502 -0.17408271930E+02  0.62755342972E+02 -0.38027320514E+03  0.38580952755E+03  0.00000000000E+00 0.  1.
         21    1    1    2  505  506  0.31237142172E+02 -0.88353772549E+02  0.35548357438E+02  0.10022890746E+03  0.00000000000E+00 0. -1.
         21    1    1    2  506  501 -0.61050816534E+01 -0.67774029168E+02  0.14378395337E+03  0.15907361912E+03  0.00000000000E+00 0. -1.
<scales pt_clust_3="106.35968" pt_clust_4="65.12512" pt_clust_5="14000.00000" pt_clust_6="64.55435"></scales>
<clustering>
<clus scale="   65.125">  2  4  1 -1</clus>
<clus scale="   64.554">  1  6  2 -1</clus>
<clus scale="  106.360">  2  3  1 -1</clus>
<clus scale="   64.554">  1  3  2 -1</clus>
</clustering>
</event>
<event>
 6    0  0.6687079E+002  0.1073358E+03  0.7546771E-02  0.1265585E+00
         21   -1    0    0  503  501  0.00000000000E+00  0.00000000000E+00  0.10663449879E+03  0.10663449879E+03  0.00000000000E+00 0. -1.
         21   -1    0    0  506  502 -0.00000000000E+00 -0.00000000000E+00 -0.54346348282E+03  0.54346348282E+03  0.00000000000E+00 0.  1.
         21    1    1    2  503  504  0.34856593545E+02  0.17275700880E+02  0.63692185068E+02  0.74633279395E+02  0.00000000000E+00 0. -1.
         21    1    1    2  504  502 -0.86730228095E+02 -0.94825820245E+02 -0.15367362074E+03  0.20032386369E+03  0.00000000000E+00 0.  1.
         21    1    1    2  505  501  0.26102255319E+02  0.10278910515E+03 -0.24056699967E+03  0.26290570401E+03  0.00000000000E+00 0.  1.
         21    1    1    2  506  505  0.25771379232E+02 -0.25238985781E+02 -0.10628054868E+03  0.11223513451E+03  0.00000000000E+00 0.  1.
<scales pt_clust_3="39.05492" pt_clust_4="107.33578" pt_clust_5="14000.00000" pt_clust_6="36.07174"></scales>
<clustering>
<clus scale="   36.072">  2  6  1 -1</clus>
<clus scale="   39.055">  1  3  2 -1</clus>
<clus scale="  107.336">  1  4  2 -1</clus>
<clus scale="   39.055">  1  3  2 -1</clus>
</clustering>
</event>
<event>
 6    0  0.6687079E+002  0.7685046E+02  0.7546771E-02  0.1338235E+00
         21   -1    0    0  506  501  0.00000000000E+00  0.00000000000E+00  0.45878635228E+03  0.45878635228E+03  0.00000000000E+00 0. -1.
         21   -1    0    0  504  502 -0.00000000000E+00 -0.00000000000E+00 -0.67263811521E+02  0.67263811521E+02  0.00000000000E+00 0. -1.
         21    1    1    2  503  505 -0.32085280362E+02 -0.68866665228E+02  0.70797410398E+02  0.10384775450E+03  0.00000000000E+00 0. -1.
         21    1    1    2  504  503 -0.34955820665E+02 -0.20865477911E+02 -0.26305467609E+02  0.48469115868E+02  0.00000000000E+00 0. -1.
         21    1    1    2  505  501  0.64470612249E+02  0.18791508222E+02  0.18595811003E+03  0.19771190988E+03  0.00000000000E+00 0. -1.
         21    1    1    2  506  502  0.25704887780E+01  0.70940634917E+02  0.16107248795E+03  0.17602138356E+03  0.00000000000E+00 0. -1.
<scales pt_clust_3="76.85046" pt_clust_4="40.70967" pt_clust_5="59.43776" pt_clust_6="14000.00000"></scales>
<clustering>
<clus scale="   40.710">  2  4  1 -1</clus>
<clus scale="   59.438">  1  5  2 -1</clus>
<clus scale="   76.850">  2  3  1 -1</clus>
<clus scale="   59.438">  1  3  2 -1</clus>
</clustering>
</event>
<event>
 6    0  0.6687079E+002  0.2595400E+03  0.7546771E-02  0.1107420E+00
         21   -1    0    0  505  501  0.00000000000E+00  0.00000000000E+00  0.13491618939E+04  0.13491618939E+04  0.00000000000E+00 0.  1.
         21   -1    0    0  501  502 -0.00000000000E+00 -0.00000000000E+00 -0.17632258028E+03  0.17632258028E+03  0.00000000000E+00 0.  1.
         21    1    1    2  503  506 -0.16792722914E+03 -0.67542078667E+02  0.50601750509E+03  0.53741529764E+03  0.00000000000E+00 0. -1.
         21    1    1    2  504  503 -0.66376381311E+02 -0.41716486708E+00  0.26064898781E+03  0.26896820048E+03  0.00000000000E+00 0.  1.
         21    1    1    2  505  504 -0.10728504377E+01 -0.30828497681E+02  0.45765594512E+03  0.45869435508E+03  0.00000000000E+00 0.  1.
         21    1    1    2  506  502  0.23537646089E+03  0.98787741215E+02 -0.51483124392E+02  0.26040662099E+03  0.00000000000E+00 0.  1.
<scales pt_clust_3="32.48213" pt_clust_4="32.48213" pt_clust_5="30.84716" pt_clust_6="253.77321"></scales>
<clustering>
<clus scale="   30.847">  1  5  2 -1</clus>
<clus scale="   32.482">  3  4 -1 -1</clus>
<clus scale="  253.773">  2  6  1 -1</clus>
<clus scale="   30.847">  1  3  2 -1</clus>
</clustering>
</event>
<event>
 6    0  0.6687079E+002  0.1961931E+03  0.7546771E-02  0.1152991E+00
         21   -1    0    0  503  501  0.00000000000E+00  0.00000000000E+00  0.66428188596E+02  0.66428188596E+02  0.00000000000E+00 0. -1.
         21   -1    0    0  506  502 -0.00000000000E+00 -0.00000000000E+00 -0.14349725147E+04  0.14349725147E+04  0.00000000000E+00 0.  1.
         21    1    1    2  503  504 -0.44668340586E+02 -0.88055802332E+01 -0.15842736612E+02  0.48205717475E+02  0.00000000000E+00 0. -1.
         21    1    1    2  504  505 -0.14081703143E+03  0.55056350828E+02 -0.16602575756E+03  0.22455553941E+03  0.00000000000E+00 0. -1.
         21    1    1    2  505  502  0.10348156785E+02 -0.51573490124E+02 -0.82581645622E+03  0.82749001722E+03  0.00000000000E+00 0.  1.
         21    1    1    2  506  501  0.17513721523E+03  0.53227195293E+01 -0.36085937576E+03  0.40114942924E+03  0.00000000000E+00 0. -1.
<scales pt_clust_3="37.93302" pt_clust_4="37.93302" pt_clust_5="52.60142" pt_clust_6="183.61140"></scales>
<clustering>
<clus scale="   37.933">  3  4 -1 -1</clus>
<clus scale="   52.601">  2  5  1 -1</clus>
<clus scale="  183.611">  2  6  1 -1</clus>
<clus scale="  196.193">  1  3  2 -1</clus>
</clustering>
</event>
<event>
 6    0  0.6687079E+002  0.1240016E+03  0.7546771E-02  0.1236638E+00
         21   -1    0    0  505  501  0.00000000000E+00  0.00000000000E+00  0.21418105542E+04  0.21418105542E+04  0.00000000000E+00 0. -1.
         21   -1    0    0  504  502 -0.00000000000E+00 -0.00000000000E+00 -0.16762282674E+04  0.16762282674E+04  0.00000000000E+00 0. -1.
         21    1    1    2  503  502  0.18931470455E+02 -0.12257328283E+03 -0.16618377517E+04  0.16664595174E+04  0.00000000000E+00 0. -1.
         21    1    1    2  504  501  0.23112856582E+02  0.10953774921E+03  0.17727563052E+04  0.17762876006E+04  0.00000000000E+00 0. -1.
         21    1    1    2  505  506  0.69085848824E+01  0.56543041739E+02  0.17704081943E+03  0.18597928879E+03  0.00000000000E+00 0.  1.
         21    1    1    2  506  503 -0.48952911920E+02 -0.43507508124E+02  0.17762291387E+03  0.18931241476E+03  0.00000000000E+00 0. -1.
<scales pt_clust_3="14000.00000" pt_clust_4="124.00156" pt_clust_5="56.96353" pt_clust_6="61.59488"></scales>
<clustering>
<clus scale="   56.964">  1  5  2 -1</clus>
<clus scale="   61.595">  1  6  2 -1</clus>
<clus scale="  124.002">  1  4  2 -1</clus>
<clus scale="   56.964">  1  3  2 -1</clus>
</clustering>
</event>
<event>
 6    0  0.6687079E+002  0.8722019E+02  0.7546771E-02  0.1309727E+00
         21   -1    0    0  504  501  0.00000000000E+00  0.00000000000E+00  0.27040249998E+03  0.27040249998E+03  0.00000000000E+00 0. -1.
         21   -1    0    0  506  502 -0.00000000000E+00 -0.00000000000E+00 -0.99694017988E+02  0.99694017988E+02  0.00000000000E+00 0.  1.
         21    1    1    2  503  501  0.12033770663E+02 -0.33783468407E+02  0.35584204406E+02  0.50520985513E+02  0.00000000000E+00 0. -1.
         21    1    1    2  504  505 -0.11349082013E+03  0.33907398934E+02 -0.26967480798E+02  0.12147889930E+03  0.00000000000E+00 0.  1.
         21    1    1    2  505  502  0.31335945750E+02 -0.41781111562E+01  0.14781625020E+02  0.34898345908E+02  0.00000000000E+00 0. -1.
         21    1    1    2  506  503  0.70121103714E+02  0.40541806292E+01  0.14731013336E+03  0.16319828724E+03  0.00000000000E+00 0. -1.
<scales pt_clust_3="37.14070" pt_clust_4="87.22019" pt_clust_5="31.61326" pt_clust_6="14000.00000"></scales>
<clustering>
<clus scale="   31.613">  2  5  1 -1</clus>
<clus scale="   37.141">  1  3  2 -1</clus>
<clus scale="   87.220">  2  4  1 -1</clus>
<clus scale="   37.141">  1  3  2 -1</clus>
</clustering>
</event>
<event>
 6    0  0.6687079E+002  0.2738104E+03  0.7546771E-02  0.1099118E+00
         21   -1    0    0  505  501  0.00000000000E+00  0.00000000000E+00  0.15405192481E+04  0.15405192481E+04  0.00000000000E+00 0.  1.
         21   -1    0    0  503  502 -0.00000000000E+00 -0.00000000000E+00 -0.89813535381E+02  0.89813535381E+02  0.00000000000E+00 0. -1.
         21    1    1    2  503  506 -0.16621082287E+01  0.60018966739E+02  0.27162088264E+02  0.65900060782E+02  0.00000000000E+00 0. -1.
         21    1    1    2  504  501  0.52500813000E+02  0.30476079383E+02  0.10091547932E+03  0.11776697647E+03  0.00000000000E+00 0.  1.
         21    1    1    2  505  502 -0.24973286324E+03 -0.85393379279E+02  0.11601484410E+04  0.11897911318E+04  0.00000000000E+00 0.  1.
         21    1    1    2  506  504  0.19889415847E+03 -0.51016668425E+01  0.16247970417E+03  0.25687461444E+03  0.00000000000E+00 0. -1.
<scales pt_clust_3="60.04198" pt_clust_4="46.66146" pt_clust_5="260.45367" pt_clust_6="46.66146"></scales>
<clustering>
<clus scale="   46.661">  4  6 -1 -1</clus>
<clus scale="   60.042">  2  3  1 -1</clus>
<clus scale="  260.454">  1  5  2 -1</clus>
<clus scale="  260.454">  1  3  2 -1</clus>
</clustering>
</event>
<event>
 6    0  0.6687079E+002  0.2088290E+03  0.7546771E-02  0.1142497E+00
         21   -1    0    0  506  501  0.00000000000E+00  0.00000000000E+00  0.17933960064E+04  0.17933960064E+04  0.00000000000E+00 0. -1.
         21   -1    0    0  505  502 -0.00000000000E+00 -0.00000000000E+00 -0.41416574239E+02  0.41416574239E+02  0.00000000000E+00 0. -1.
         21    1    1    2  503  504 -0.92694469475E+02 -0.37322327784E+00  0.58696292837E+03  0.59423722809E+03  0.00000000000E+00 0. -1.
         21    1    1    2  504  502  0.19921656847E+03  0.32446427655E+02  0.29456008967E+03  0.35707934447E+03  0.00000000000E+00 0. -1.
         21    1    1    2  505  501 -0.13851910702E+02  0.30122458375E+02  0.10983039257E+03  0.11472555540E+03  0.00000000000E+00 0. -1.
         21    1    1    2  506  503 -0.92670188289E+02 -0.62195662752E+02  0.76062602154E+03  0.76877045267E+03  0.00000000000E+00 0. -1.
<scales pt_clust_3="55.96490" pt_clust_4="200.22611" pt_clust_5="33.15476" pt_clust_6="55.96490"></scales>
<clustering>
<clus scale="   33.155">  1  5  2 -1</clus>
<clus scale="   55.965">  3  6 -1 -1</clus>
<clus scale="  200.226">  2  4  1 -1</clus>
<clus scale="   33.155">  1  3  2 -1</clus>
</clustering>
</event>
<event>
 6    0  0.6687079E+002  0.1023472E+03  0.7546771E-02  0.1275436E+00
         21   -1    0    0  505  501  0.00000000000E+00  0.00000000000E+00  0.13410937055E+03  0.13410937055E+03  0.00000000000E+00 0. -1.
         21   -1    0    0  504  502 -0.00000000000E+00 -0.00000000000E+00 -0.26165845689E+03  0.26165845689E+03  0.00000000000E+00 0.  1.
         21    1    1    2  503  502 -0.24338335693E+02  0.10380760794E+03 -0.14604666992E+03  0.18082589374E+03  0.00000000000E+00 0.  1.
         21    1    1    2  504  501  0.19595753018E+02 -0.87235310358E+02  0.14667370173E+02  0.90604219865E+02  0.00000000000E+00 0. -1.
         21    1    1    2  505  506  0.49262144142E+02  0.14054975743E+02  0.34917647516E+02  0.61996316799E+02  0.00000000000E+00 0. -1.
         21    1    1    2  506  503 -0.44519561467E+02 -0.30627273329E+02 -0.31087434110E+02  0.62341397035E+02  0.00000000000E+00 0. -1.
<scales pt_clust_3="102.34716" pt_clust_4="14000.00000" pt_clust_5="51.22793" pt_clust_6="45.27741"></scales>
<clustering>
<clus scale="   51.228">  1  5  2 -1</clus>
<clus scale="   45.277">  1  6  2 -1</clus>
<clus scale="  102.347">  2  3  1 -1</clus>
<clus scale="   51.228">  1  3  2 -1</clus>
</clustering>
</event>
<event>
 6    0  0.6687079E+002  0.8096446E+02  0.7546771E-02  0.1326337E+00
         21   -1    0    0  504  501  0.00000000000E+00  0.00000000000E+00  0.23141647464E+02  0.23141647464E+02  0.00000000000E+00 0.  1.
         21   -1    0    0  506  502 -0.00000000000E+00 -0.00000000000E+00 -0.19264800368E+04  0.19264800368E+04  0.00000000000E+00 0.  1.
         21    1    1    2  503  505 -0.41334228352E+02 -0.12144999749E+02 -0.11713142956E+03  0.12480300975E+03  0.00000000000E+00 0.  1.
         21    1    1    2  504  502  0.61463964931E+02  0.10389304364E+03 -0.11248133042E+04  0.11312720949E+04  0.00000000000E+00 0.  1.
         21    1    1    2  505  501 -0.21527103473E+02 -0.26108963662E+02 -0.53901038792E+01  0.34265834111E+02  0.00000000000E+00 0.  1.
         21    1    1    2  506  503  0.13973668939E+01 -0.65639080228E+02 -0.65600355168E+03  0.65928074544E+03  0.00000000000E+00 0. -1.
<scales pt_clust_3="56.05524" pt_clust_4="80.96446" pt_clust_5="33.83924" pt_clust_6="14000.00000"></scales>
<clustering>
<clus scale="   33.839">  1  5  2 -1</clus>
<clus scale="   56.055">  1  3  2 -1</clus>
<clus scale="   80.964">  1  4  2 -1</clus>
<clus scale="   33.839">  1  3  2 -1</clus>
</clustering>
</event>
<event>
 6    0  0.6687079E+002  0.9665363E+02  0.7546771E-02  0.1287495E+00
         21   -1    0    0  506  501  0.00000000000E+00  0.00000000000E+00  0.91145767657E+03  0.91145767657E+03  0.00000000000E+00 0. -1.
         21   -1    0    0  503  502 -0.00000000000E+00 -0.00000000000E+00 -0.41992594262E+03  0.41992594262E+03  0.00000000000E+00 0. -1.
         21    1    1    2  503  501  0.30140196926E+02 -0.53373522673E+02 -0.93461272656E+02  0.11176839392E+03  0.00000000000E+00 0. -1.
         21    1    1    2  504  505 -0.76948415408E+02  0.22235376405E+02 -0.14580858079E+03  0.16635988949E+03  0.00000000000E+00 0. -1.
         21    1    1    2  505  502 -0.27977098788E+02  0.51259040940E+02 -0.15419187694E+03  0.16487978120E+03  0.00000000000E+00 0. -1.
         21    1    1    2  506  504  0.74785317270E+02 -0.20120894672E+02  0.88499346433E+03  0.88837555458E+03  0.00000000000E+00 0. -1.
<scales pt_clust_3="61.29571" pt_clust_4="49.11494" pt_clust_5="49.11494" pt_clust_6="77.67414"></scales>
<clustering>
<clus scale="   49.115">  4  5 -1 -1</clus>
<clus scale="   61.296">  2  3  1 -1</clus>
<clus scale="   77.674">  1  6  2 -1</clus>
<clus scale="   77.674">  1  3  2 -1</clus>
</clustering>
</event>
<event>
 6    0  0.6687079E+002  0.1005487E+03  0.7546771E-02  0.1279146E+00
         21   -1    0    0  503  501  0.00000000000E+00  0.00000000000E+00  0.48938638673E+02  0.48938638673E+02  0.00000000000E+00 0. -1.
         21   -1    0    0  505  502 -0.00000000000E+00 -0.00000000000E+00 -0.69771345872E+03  0.69771345872E+03  0.00000000000E+00 0.  1.
         21    1    1    2  503  502  0.80163713041E+02 -0.89453693870E+02 -0.42090116038E+03  0.43770534729E+03  0.00000000000E+00 0.  1.
         21    1    1    2  504  506 -0.67411290375E+02  0.59255564441E+02 -0.83247505239E+02  0.12241589405E+03  0.00000000000E+00 0.  1.
         21    1    1    2  505  504 -0.35888792125E+02 -0.14858030750E+01 -0.14280859605E+03  0.14725660636E+03  0.00000000000E+00 0. -1.
         21    1    1    2  506  501  0.23136369459E+02  0.31683932504E+02 -0.18175583768E+01  0.39274249695E+02  0.00000000000E+00 0. -1.
<scales pt_clust_3="100.54868" pt_clust_4="14000.00000" pt_clust_5="35.91954" pt_clust_6="38.41498"></scales>
<clustering>
<clus scale="   35.920">  2  5  1 -1</clus>
<clus scale="   38.415">  1  6  2 -1</clus>
<clus scale="  100.549">  2  3  1 -1</clus>
<clus scale="   38.415">  1  3  2 -1</clus>
</clustering>
</event>
<event>
 6    0  0.6687079E+002  0.8870823E+02  0.7546771E-02  0.1306010E+00
         21   -1    0    0  503  501  0.00000000000E+00  0.00000000000E+00  0.42097402778E+03  0.42097402778E+03  0.00000000000E+00 0.  1.
         21   -1    0    0  506  502 -0.00000000000E+00 -0.00000000000E+00 -0.50384128277E+03  0.50384128277E+03  0.00000000000E+00 0.  1.
         21    1    1    2  503  502  0.16595565239E+01  0.42230530138E+02 -0.21207738778E+03  0.21624752070E+03  0.00000000000E+00 0.  1.
         21    1    1    2  504  505 -0.35487476216E+02  0.37692270640E+02 -0.74162676562E+02  0.90444296829E+02  0.00000000000E+00 0.  1.
         21    1    1    2  505  501  0.84908592600E+02 -0.33602075093E+02  0.39972111430E+03  0.41001894806E+03  0.00000000000E+00 0.  1.
         21    1    1    2  506  504 -0.51080672908E+02 -0.46320725685E+02 -0.19634830496E+03  0.20810454496E+03  0.00000000000E+00 0.  1.
<scales pt_clust_3="42.26313" pt_clust_4="14000.00000" pt_clust_5="88.70823" pt_clust_6="52.68570"></scales>
<clustering>
<clus scale="   42.263">  2  3  1 -1</clus>
<clus scale="   52.686">  2  6  1 -1</clus>
<clus scale="   88.708">  1  5  2 -1</clus>
<clus scale="   88.708">  1  3  2 -1</clus>
</clustering>
</event>
<event>
 6    0  0.6687079E+002  0.8950998E+02  0.7546771E-02  0.1304043E+00
         21   -1    0    0  505  501  0.00000000000E+00  0.00000000000E+00  0.37586769462E+03  0.37586769462E+03  0.00000000000E+00 0.  1.
         21   -1    0    0  504  502 -0.00000000000E+00 -0.00000000000E+00 -0.20188222133E+03  0.20188222133E+03  0.00000000000E+00 0.  1.
         21    1    1    2  503  501  0.48900478622E+02  0.48198437943E+02  0.10023583975E+03  0.12149720079E+03  0.00000000000E+00 0.  1.
         21    1    1    2  504  503  0.52802820194E+02  0.55897075067E+02  0.19493194658E+03  0.20954971873E+03  0.00000000000E+00 0.  1.
         21    1    1    2  505  506 -0.45086078396E+02 -0.47557766374E+02  0.32718061597E+02  0.73245936148E+02  0.00000000000E+00 0.  1.
         21    1    1    2  506  502 -0.56617220420E+02 -0.56537746636E+02 -0.15390037464E+03  0.17345706027E+03  0.00000000000E+00 0.  1.
<scales pt_clust_3="33.92111" pt_clust_4="33.92111" pt_clust_5="65.53240" pt_clust_6="81.99654"></scales>
<clustering>
<clus scale="   33.921">  3  4 -1 -1</clus>
<clus scale="   65.532">  1  5  2 -1</clus>
<clus scale="   81.997">  2  6  1 -1</clus>
<clus scale="   65.532">  1  3  2 -1</clus>
</clustering>
</event>
<event>
 6    0  0.6687079E+002  0.1107728E+03  0.7546771E-02  0.1259145E+00
         21   -1    0    0  503  501  0.00000000000E+00  0.00000000000E+00  0.25110362551E+04  0.25110362551E+04  0.00000000000E+00 0. -1.
         21   -1    0    0  505  502 -0.00000000000E+00 -0.00000000000E+00 -0.91576876279E+02  0.91576876279E+02  0.00000000000E+00 0. -1.
         21    1    1    2  503  506 -0.54132268853E+02 -0.77233871245E+02 -0.32429639538E+02  0.99734923268E+02  0.00000000000E+00 0. -1.
         21    1    1    2  504  501  0.75914461778E+02  0.81129857093E+02  0.24178009076E+04  0.24203525132E+04  0.00000000000E+00 0. -1.
         21    1    1    2  505  504  0.10991587219E+02 -0.28469492461E+02  0.27413633360E+02  0.41022363225E+02  0.00000000000E+00 0.  1.
         21    1    1    2  506  502 -0.32773780144E+02  0.24573506613E+02  0.66744773588E+01  0.41503331675E+02  0.00000000000E+00 0.  1.
<scales pt_clust_3="14000.00000" pt_clust_4="110.77284" pt_clust_5="30.51765" pt_clust_6="35.80289"></scales>
<clustering>
<clus scale="   30.518">  2  5  1 -1</clus>
<clus scale="   35.803">  2  6  1 -1</clus>
<clus scale="  110.773">  1  4  2 -1</clus>
<clus scale="  110.773">  1  3  2 -1</clus>
</clustering>
</event>
<event>
 6    0  0.6687079E+002  0.2046702E+03  0.7546771E-02  0.1145857E+00
         21   -1    0    0  506  501  0.00000000000E+00  0.00000000000E+00  0.32651894991E+03  0.32651894991E+03  0.00000000000E+00 0. -1.
         21   -1    0    0  501  502 -0.00000000000E+00 -0.00000000000E+00 -0.48346122328E+03  0.48346122328E+03  0.00000000000E+00 0. -1.
         21    1    1    2  503  502 -0.20119561801E+03  0.43300097002E+02 -0.34044186253E+03  0.39781306775E+03  0.00000000000E+00 0. -1.
         21    1    1    2  504  505  0.66564391989E+01 -0.52958780538E+02  0.13013247546E+02  0.54938922729E+02  0.00000000000E+00 0. -1.
         21    1    1    2  505  503  0.58172945342E+02 -0.99023129936E+02  0.13853288747E+03  0.17994730546E+03  0.00000000000E+00 0. -1.
         21    1    1    2  506  504  0.13636623346E+03  0.10868181347E+03  0.31953454139E+02  0.17728087726E+03  0.00000000000E+00 0. -1.
<scales pt_clust_3="192.31729" pt_clust_4="47.74037" pt_clust_5="47.74037" pt_clust_6="174.37742"></scales>
<clustering>
<clus scale="   47.740">  4  5 -1 -1</clus>
<clus scale="  174.377">  1  6  2 -1</clus>
<clus scale="  192.317">  2  3  1 -1</clus>
<clus scale="  174.377">  1  3  2 -1</clus>
</clustering>
</event>
<event>
 6    0  0.6687079E+002  0.8924450E+02  0.7546771E-02  0.1304692E+00
         21   -1    0    0  506  501  0.00000000000E+00  0.00000000000E+00  0.62471673464E+03  0.62471673464E+03  0.00000000000E+00 0. -1.
         21   -1    0    0  503  502 -0.00000000000E+00 -0.00000000000E+00 -0.84304704490E+02  0.84304704490E+02  0.00000000000E+00 0. -1.
         21    1    1    2  503  504 -0.49393605081E+02  0.55110395646E+01  0.66620665149E+02  0.83116862338E+02  0.00000000000E+00 0.  1.
         21    1    1    2  504  501 -0.57203839710E+02 -0.60165965786E+02  0.23848570257E+03  0.25252257928E+03  0.00000000000E+00 0. -1.
         21    1    1    2  505  502  0.30330093127E+02 -0.47326572170E+01 -0.57419510826E+02  0.65110005505E+02  0.00000000000E+00 0. -1.
         21    1    1    2  506  505  0.76267351664E+02  0.59387583439E+02  0.29272517325E+03  0.30827199200E+03  0.00000000000E+00 0. -1.
<scales pt_clust_3="38.72425" pt_clust_4="14000.00000" pt_clust_5="30.69711" pt_clust_6="89.24450"></scales>
<clustering>
<clus scale="   30.697">  2  5  1 -1</clus>
<clus scale="   38.724">  2  3  1 -1</clus>
<clus scale="   89.245">  2  6  1 -1</clus>
<clus scale="   89.245">  1  3  2 -1</clus>
</clustering>
</event>
<event>
 6    0  0.6687079E+002  0.8105851E+02  0.7546771E-02  0.1326074E+00
         21   -1    0    0  506  501  0.00000000000E+00  0.00000000000E+00  0.10742955782E+04  0.10742955782E+04  0.00000000000E+00 0. -1.
         21   -1    0    0  504  502 -0.00000000000E+00 -0.00000000000E+00 -0.15177264028E+04  0.15177264028E+04  0.00000000000E+00 0. -1.
         21    1    1    2  503  501  0.95645358501E+02  0.79410398624E+01  0.98627713535E+03  0.99093576100E+03  0.00000000000E+00 0. -1.
         21    1    1    2  504  505 -0.64324677248E+01 -0.41120981584E+02 -0.13127666747E+04  0.13134263032E+04  0.00000000000E+00 0. -1.
         21    1    1    2  505  503 -0.49846650671E+02 -0.21088189396E+02 -0.18462377604E+03  0.19239370830E+03  0.00000000000E+00 0.  1.
         21    1    1    2  506  502 -0.39366240105E+02  0.54268131118E+02  0.67682490809E+02  0.95266208475E+02  0.00000000000E+00 0.  1.
<scales pt_clust_3="81.05851" pt_clust_4="41.62105" pt_clust_5="14000.00000" pt_clust_6="65.08398"></scales>
<clustering>
<clus scale="   41.621">  2  4  1 -1</clus>
<clus scale="   65.084">  1  6  2 -1</clus>
<clus scale="   81.059">  1  3  2 -1</clus>
<clus scale="   65.084">  1  3  2 -1</clus>
</clustering>
</event>
<event>
 6    0  0.6687079E+002  0.1534415E+03  0.7546771E-02  0.1196307E+00
         21   -1    0    0  505  501  0.00000000000E+00  0.00000000000E+00  0.71729025974E+03  0.71729025974E+03  0.00000000000E+00 0.  1.
         21   -1    0    0  503  502 -0.00000000000E+00 -0.00000000000E+00 -0.16010265578E+04  0.16010265578E+04  0.00000000000E+00 0.  1.
         21    1    1    2  503  506 -0.99133348040E+02 -0.38334639494E+02 -0.12690833774E+04  0.12735264363E+04  0.00000000000E+00 0.  1.
         21    1    1    2  504  502 -0.36828803516E+02 -0.39274915153E+02 -0.25545101690E+03  0.26106340564E+03  0.00000000000E+00 0. -1.
         21    1    1    2  505  504  0.73635132248E+02 -0.58310555077E+02 -0.28321000654E+02  0.98103682972E+02  0.00000000000E+00 0.  1.
         21    1    1    2  506  501  0.62327019308E+02  0.13592010972E+03  0.66911909687E+03  0.68562329260E+03  0.00000000000E+00 0.  1.
<scales pt_clust_3="14000.00000" pt_clust_4="53.84125" pt_clust_5="93.74950" pt_clust_6="153.44149"></scales>
<clustering>
<clus scale="   53.841">  2  4  1 -1</clus>
<clus scale="   93.750">  1  5  2 -1</clus>
<clus scale="  153.441">  1  6  2 -1</clus>
<clus scale="   93.750">  1  3  2 -1</clus>
</clustering>
</event>
<event>
 6    0  0.6687079E+002  0.7024196E+02  0.7546771E-02  0.1359272E+00
         21   -1    0    0  506  501  0.00000000000E+00  0.00000000000E+00  0.12583314085E+04  0.12583314085E+04  0.00000000000E+00 0. -1.
         21   -1    0    0  505  502 -0.00000000000E+00 -0.00000000000E+00 -0.93499469049E+02  0.93499469049E+02  0.00000000000E+00 0.  1.
         21    1    1    2  503  502  0.18826671360E+02 -0.29264502801E+02 -0.68042082119E+02  0.76423684927E+02  0.00000000000E+00 0.  1.
         21    1    1    2  504  503 -0.10944012466E+01 -0.57765378239E+02  0.56936766957E+02  0.81116164041E+02  0.00000000000E+00 0.  1.
         21    1    1    2  505  501  0.58892349704E+02  0.33573405304E+02  0.90808990291E+03  0.91061668893E+03  0.00000000000E+00 0. -1.
         21    1    1    2  506  504 -0.76624619817E+02  0.53456475736E+02  0.26784735171E+03  0.28367433966E+03  0.00000000000E+00 0. -1.
<scales pt_clust_3="34.79734" pt_clust_4="14000.00000" pt_clust_5="67.93199" pt_clust_6="70.24196"></scales>
<clustering>
<clus scale="   34.797">  2  3  1 -1</clus>
<clus scale="   67.932">  1  5  2 -1</clus>
<clus scale="   70.242">  1  6  2 -1</clus>
<clus scale="   67.932">  1  3  2 -1</clus>
</clustering>
</event>
<event>
 6    0  0.6687079E+002  0.1748161E+03  0.7546771E-02  0.1172916E+00
         21   -1    0    0  505  501  0.00000000000E+00  0.00000000000E+00  0.72284163251E+03  0.72284163251E+03  0.00000000000E+00 0. -1.
         21   -1    0    0  506  502 -0.00000000000E+00 -0.00000000000E+00 -0.42033114454E+03  0.42033114454E+03  0.00000000000E+00 0. -1.
         21    1    1    2  503  501 -0.32066750041E+02  0.64874152745E+02  0.79250720192E+02  0.10732012301E+03  0.00000000000E+00 0. -1.
         21    1    1    2  504  502  0.96121988006E+01 -0.15685579158E+03 -0.37469892867E+03  0.40631935822E+03  0.00000000000E+00 0. -1.
         21    1    1    2  505  504  0.30363137393E+01 -0.31813430717E+02  0.35243552678E+03  0.35388149727E+03  0.00000000000E+00 0. -1.
         21    1    1    2  506  503  0.19418237501E+02  0.12379506955E+03  0.24552316967E+03  0.27565179854E+03  0.00000000000E+00 0. -1.
<scales pt_clust_3="58.32824" pt_clust_4="158.51600" pt_clust_5="31.95800" pt_clust_6="58.32824"></scales>
<clustering>
<clus scale="   31.958">  1  5  2 -1</clus>
<clus scale="   58.328">  3  6 -1 -1</clus>
<clus scale="  158.516">  2  4  1 -1</clus>
<clus scale="   31.958">  1  3  2 -1</clus>
</clustering>
</event>
<event>
 6    0  0.6687079E+002  0.1043945E+03  0.7546771E-02  0.1271317E+00
         21   -1    0    0  504  501  0.00000000000E+00  0.00000000000E+00  0.26794195746E+03  0.26794195746E+03  0.00000000000E+00 0. -1.
         21   -1    0    0  506  502 -0.00000000000E+00 -0.00000000000E+00 -0.18597133688E+03  0.18597133688E+03  0.00000000000E+00 0. -1.
         21    1    1    2  503  501  0.30157558800E+02 -0.93482489673E+01  0.42915378084E+02  0.53278492731E+02  0.00000000000E+00 0. -1.
         21    1    1    2  504  505 -0.35301129050E+02  0.66333526200E+02  0.15162859455E+03  0.16922628961E+03  0.00000000000E+00 0. -1.
         21    1    1    2  505  502  0.38257829375E+02 -0.10091612949E+03 -0.13427307899E+03  0.17227009735E+03  0.00000000000E+00 0. -1.
         21    1    1    2  506  503 -0.33114259126E+02  0.43930852258E+02  0.21699726942E+02  0.59138414646E+02  0.00000000000E+00 0. -1.
<scales pt_clust_3="31.57322" pt_clust_4="14000.00000" pt_clust_5="104.39451" pt_clust_6="50.41780"></scales>
<clustering>
<clus scale="   31.573">  1  3  2 -1</clus>
<clus scale="   50.418">  1  6  2 -1</clus>
<clus scale="  104.395">  2  5  1 -1</clus>
<clus scale="   31.573">  1  3  2 -1</clus>
</clustering>
</event>
<event>
 6    0  0.6687079E+002  0.2165293E+03  0.7546771E-02  0.1136497E+00
         21   -1    0    0  503  501  0.00000000000E+00  0.00000000000E+00  0.30731753046E+03  0.30731753046E+03  0.00000000000E+00 0. -1.
         21   -1    0    0  504  502 -0.00000000000E+00 -0.00000000000E+00 -0.65621704883E+03  0.65621704883E+03  0.00000000000E+00 0. -1.
         21    1    1    2  503  505  0.22651066574E+02  0.36761566168E+02  0.47455488681E+01  0.43439656975E+02  0.00000000000E+00 0.  1.
         21    1    1    2  504  506 -0.44930610246E+02 -0.20626174385E+03 -0.58642085886E+03  0.62325924816E+03  0.00000000000E+00 0. -1.
         21    1    1    2  505  502  0.23255628956E+02  0.12891850352E+03  0.12260180587E+03  0.17942131320E+03  0.00000000000E+00 0. -1.
         21    1    1    2  506  501 -0.97608528400E+00  0.40581674165E+02  0.11017398575E+03  0.11741436094E+03  0.00000000000E+00 0.  1.
<scales pt_clust_3="35.81883" pt_clust_4="207.34651" pt_clust_5="35.81883" pt_clust_6="40.59341"></scales>
<clustering>
<clus scale="   35.819">  3  5 -1 -1</clus>
<clus scale="   40.593">  1  6  2 -1</clus>
<clus scale="  207.347">  2  4  1 -1</clus>
<clus scale="   40.593">  1  3  2 -1</clus>
</clustering>
</event>
<event>
 6    0  0.6687079E+002  0.2281534E+03  0.7546771E-02  0.1127946E+00
         21   -1    0    0  503  501  0.00000000000E+00  0.00000000000E+00  0.22787210884E+03  0.22787210884E+03  0.00000000000E+00 0.  1.
         21   -1    0    0  505  502 -0.00000000000E+00 -0.00000000000E+00 -0.80276041037E+03  0.80276041037E+03  0.00000000000E+00 0. -1.
         21    1    1    2  503  506 -0.55690807740E+02 -0.24361487767E+02  0.77412225865E+02  0.98425610825E+02  0.00000000000E+00 0.  1.
         21    1    1    2  504  501  0.14635363308E+03  0.63149473804E+02 -0.21643086285E+03  0.26879278329E+03  0.00000000000E+00 0. -1.
         21    1    1    2  505  504  0.65425452486E+02  0.25304189007E+02 -0.48312201302E+03  0.48818815152E+03  0.00000000000E+00 0. -1.
         21    1    1    2  506  502 -0.15608827783E+03 -0.64092175045E+02  0.47252348483E+02  0.17522597357E+03  0.00000000000E+00 0.  1.
<scales pt_clust_3="49.01700" pt_clust_4="213.03633" pt_clust_5="70.14836" pt_clust_6="49.01700"></scales>
<clustering>
<clus scale="   49.017">  3  6 -1 -1</clus>
<clus scale="   70.148">  2  5  1 -1</clus>
<clus scale="  213.036">  2  4  1 -1</clus>
<clus scale="  228.153">  1  3  2 -1</clus>
</clustering>
</event>
<event>
 6    0  0.6687079E+002  0.1526413E+03  0.7546771E-02  0.1197264E+00
         21   -1    0    0  504  501  0.00000000000E+00  0.00000000000E+00  0.31641156852E+02  0.31641156852E+02  0.00000000000E+00 0. -1.
         21   -1    0    0  506  502 -0.00000000000E+00 -0.00000000000E+00 -0.13727587566E+04  0.13727587566E+04  0.00000000000E+00 0. -1.
         21    1    1    2  503  501 -0.20038972196E+02  0.49620807157E+02 -0.42047930868E+03  0.42387101097E+03  0.00000000000E+00 0. -1.
         21    1    1    2  504  505  0.34617290238E+02  0.53174176863E+02 -0.99148236483E+02  0.11771245757E+03  0.00000000000E+00 0. -1.
         21    1    1    2  505  502  0.47788926648E+02 -0.16294291379E+03 -0.44044611013E+03  0.47204549632E+03  0.00000000000E+00 0. -1.
         21    1    1    2  506  503 -0.62367244691E+02  0.60147929771E+02 -0.38104394445E+03  0.39077094860E+03  0.00000000000E+00 0. -1.
<scales pt_clust_3="38.19490" pt_clust_4="63.44959" pt_clust_5="144.69742" pt_clust_6="38.19490"></scales>
<clustering>
<clus scale="   38.195">  3  6 -1 -1</clus>
<clus scale="   63.450">  1  4  2 -1</clus>
<clus scale="  144.697">  1  5  2 -1</clus>
<clus scale="   63.450">  1  3  2 -1</clus>
</clustering>
</event>
<event>
 6    0  0.6687079E+002  0.1844153E+03  0.7546771E-02  0.1163597E+00
         21   -1    0    0  504  501  0.00000000000E+00  0.00000000000E+00  0.78756709693E+03  0.78756709693E+03  0.00000000000E+00 0.  1.
         21   -1    0    0  506  502 -0.00000000000E+00 -0.00000000000E+00 -0.27361433042E+03  0.27361433042E+03  0.00000000000E+00 0. -1.
         21    1    1    2  503  502 -0.11256437783E+03 -0.77375338794E+02  0.31454997607E+03  0.34292764492E+03  0.00000000000E+00 0.  1.
         21    1    1    2  504  503  0.34383855441E+02 -0.59784596607E+02  0.33276132580E+03  0.33983311707E+03  0.00000000000E+00 0.  1.
         21    1    1    2  505  501  0.22353375277E+02 -0.47680445423E+02  0.76740742490E+02  0.93071154608E+02  0.00000000000E+00 0. -1.
         21    1    1    2  506  505  0.55827147107E+02  0.18484038082E+03 -0.21009927785E+03  0.28534951076E+03  0.00000000000E+00 0. -1.
<scales pt_clust_3="184.41528" pt_clust_4="94.10606" pt_clust_5="52.66022" pt_clust_6="14000.00000"></scales>
<clustering>
<clus scale="   52.660">  1  5  2 -1</clus>
<clus scale="   94.106">  1  4  2 -1</clus>
<clus scale="  184.415">  1  3  2 -1</clus>
<clus scale="   52.660">  1  3  2 -1</clus>
</clustering>
</event>
<event>
 6    0  0.6687079E+002  0.1539715E+03  0.7546771E-02  0.1195676E+00
         21   -1    0    0  505  501  0.00000000000E+00  0.00000000000E+00  0.13117200075E+04  0.13117200075E+04  0.00000000000E+00 0.  1.
         21   -1    0    0  506  502 -0.00000000000E+00 -0.00000000000E+00 -0.41924091215E+03  0.41924091215E+03  0.00000000000E+00 0.  1.
         21    1    1    2  503  502 -0.47222651925E+01  0.81737999580E+02 -0.78697773227E+01  0.82251648974E+02  0.00000000000E+00 0. -1.
         21    1    1    2  504  501 -0.14837362587E+03 -0.15541810163E+02  0.85606406471E+02  0.17200214402E+03  0.00000000000E+00 0. -1.
         21    1    1    2  505  503  0.44541109157E+02 -0.13347287113E+03  0.11288726721E+04  0.11376082048E+04  0.00000000000E+00 0.  1.
         21    1    1    2  506  504  0.10855478191E+03  0.67276681716E+02 -0.31413020589E+03  0.33909892190E+03  0.00000000000E+00 0.  1.
<scales pt_clust_3="81.87430" pt_clust_4="153.97148" pt_clust_5="139.78635" pt_clust_6="14000.00000"></scales>
<clustering>
<clus scale="   81.874">  2  3  1 -1</clus>
<clus scale="  139.786">  1  5  2 -1</clus>
<clus scale="  153.971">  1  4  2 -1</clus>
<clus scale="  139.786">  1  3  2 -1</clus>
</clustering>
</event>
<event>
 6    0  0.6687079E+002  0.1535683E+03  0.7546771E-02  0.1196156E+00
         21   -1    0    0  506  501  0.00000000000E+00  0.00000000000E+00  0.30989930319E+03  0.30989930319E+03  0.00000000000E+00 0. -1.
         21   -1    0    0  503  502 -0.00000000000E+00 -0.00000000000E+00 -0.15884178904E+04  0.15884178904E+04  0.00000000000E+00 0.  1.
         21    1    1    2  503  504 -0.24246761040E+03 -0.16179480657E+01 -0.49690453325E+02  0.24751222394E+03  0.00000000000E+00 0.  1.
         21    1    1    2  504  505  0.60860467488E+02  0.42769342035E+02 -0.51897401857E+02  0.90700349726E+02  0.00000000000E+00 0.  1.
         21    1    1    2  505  501  0.36941721341E+02 -0.65578856959E+00  0.18563818555E+03  0.18927930888E+03  0.00000000000E+00 0. -1.
         21    1    1    2  506  502  0.14466542157E+03 -0.40495605400E+02 -0.13625689176E+04  0.13708253111E+04  0.00000000000E+00 0.  1.
<scales pt_clust_3="14000.00000" pt_clust_4="79.19035" pt_clust_5="36.94754" pt_clust_6="153.56834"></scales>
<clustering>
<clus scale="   36.948">  1  5  2 -1</clus>
<clus scale="   79.190">  1  4  2 -1</clus>
<clus scale="  153.568">  2  6  1 -1</clus>
<clus scale="   36.948">  1  3  2 -1</clus>
</clustering>
</event>
<event>
 6    0  0.6687079E+002  0.6719273E+02  0.7546771E-02  0.1369908E+00
         21   -1    0    0  504  501  0.00000000000E+00  0.00000000000E+00  0.16377697108E+03  0.16377697108E+03  0.00000000000E+00 0.  1.
         21   -1    0    0  505  502 -0.00000000000E+00 -0.00000000000E+00 -0.12056445607E+03  0.12056445607E+03  0.00000000000E+00 0.  1.
         21    1    1    2  503  501 -0.65796001379E+02  0.26295559502E+02  0.32591940167E+02  0.77992338155E+02  0.00000000000E+00 0.  1.
         21    1    1    2  504  506  0.19255201650E+02 -0.44183708252E+02  0.15085946259E+02  0.50502956745E+02  0.00000000000E+00 0.  1.
         21    1    1    2  505  503  0.78052917596E+02  0.62393107896E+02  0.68225969772E+01  0.10015840298E+03  0.00000000000E+00 0.  1.
         21    1    1    2  506  502 -0.31512117866E+02 -0.44504959146E+02 -0.11287968387E+02  0.55687729270E+02  0.00000000000E+00 0.  1.
<scales pt_clust_3="58.17216" pt_clust_4="48.19713" pt_clust_5="67.19273" pt_clust_6="14000.00000"></scales>
<clustering>
<clus scale="   48.197">  1  4  2 -1</clus>
<clus scale="   58.172">  1  3  2 -1</clus>
<clus scale="   67.193">  1  5  2 -1</clus>
<clus scale="   48.197">  1  3  2 -1</clus>
</clustering>
</event>
<event>
 6    0  0.6687079E+002  0.1363330E+03  0.7546771E-02  0.1218350E+00
         21   -1    0    0  504  501  0.00000000000E+00  0.00000000000E+00  0.51650197830E+03  0.51650197830E+03  0.00000000000E+00 0. -1.
         21   -1    0    0  506  502 -0.00000000000E+00 -0.00000000000E+00 -0.45369838282E+02  0.45369838282E+02  0.00000000000E+00 0. -1.
         21    1    1    2  503  505 -0.37854304803E+02  0.69523833684E+02  0.12622233193E+03  0.14899190891E+03  0.00000000000E+00 0. -1.
         21    1    1    2  504  502  0.73877580303E+02 -0.10422262760E+03  0.15090084171E+03  0.19771524221E+03  0.00000000000E+00 0. -1.
         21    1    1    2  505  501  0.15649492381E+02  0.32335921416E+02  0.11704036879E+03  0.12242943417E+03  0.00000000000E+00 0. -1.
         21    1    1    2  506  503 -0.51672767881E+02  0.23628725004E+01  0.76968597593E+02  0.92735231289E+02  0.00000000000E+00 0. -1.
<scales pt_clust_3="47.34094" pt_clust_4="120.92983" pt_clust_5="35.92379" pt_clust_6="47.34094"></scales>
<clustering>
<clus scale="   35.924">  1  5  2 -1</clus>
<clus scale="   47.341">  3  6 -1 -1</clus>
<clus scale="  120.930">  2  4  1 -1</clus>
<clus scale="   35.924">  1  3  2 -1</clus>
</clustering>
</event>
<event>
 6    0  0.6687079E+002  0.2222540E+03  0.7546771E-02  0.1132214E+00
         21   -1    0    0  506  501  0.00000000000E+00  0.00000000000E+00  0.89016832896E+03  0.89016832896E+03  0.00000000000E+00 0.  1.
         21   -1    0    0  503  502 -0.00000000000E+00 -0.00000000000E+00 -0.15953226225E+03  0.15953226225E+03  0.00000000000E+00 0.  1.
         21    1    1    2  503  501  0.68245639834E+02  0.74953863718E+00  0.43576935777E+02  0.80975172097E+02  0.00000000000E+00 0.  1.
         21    1    1    2  504  502 -0.48822762138E+02  0.11744919160E+03 -0.35759487583E+02  0.13212386485E+03  0.00000000000E+00 0.  1.
         21    1    1    2  505  504  0.15234943815E+02  0.90294308209E+02  0.88391671414E+01  0.91996176463E+02  0.00000000000E+00 0.  1.
         21    1    1    2  506  505 -0.34657821511E+02 -0.20849303844E+03  0.71397945137E+03  0.74460537781E+03  0.00000000000E+00 0.  1.
<scales pt_clust_3="68.24976" pt_clust_4="61.30062" pt_clust_5="61.30062" pt_clust_6="210.18384"></scales>
<clustering>
<clus scale="   61.301">  4  5 -1 -1</clus>
<clus scale="   68.250">  2  3  1 -1</clus>
<clus scale="  210.184">  1  6  2 -1</clus>
<clus scale="  210.184">  1  3  2 -1</clus>
</clustering>
</event>
<event>
 6    0  0.6687079E+002  0.1485897E+03  0.7546771E-02  0.1202217E+00
         21   -1    0    0  503  501  0.00000000000E+00  0.00000000000E+00  0.32764267561E+03  0.32764267561E+03  0.00000000000E+00 0. -1.
         21   -1    0    0  506  502 -0.00000000000E+00 -0.00000000000E+00 -0.18335289190E+03  0.18335289190E+03  0.00000000000E+00 0. -1.
         21    1    1    2  503  505  0.57521950319E+02  0.83670014857E+01  0.73194442670E+02  0.93467683828E+02  0.00000000000E+00 0. -1.
         21    1    1    2  504  502  0.30507357635E+02 -0.34588892418E+01 -0.61265359260E+02  0.68528147720E+02  0.00000000000E+00 0. -1.
         21    1    1    2  505  504  0.82659220120E+02 -0.91044331098E+02  0.13109163193E+02  0.12366675809E+03  0.00000000000E+00 0. -1.
         21    1    1    2  506  501 -0.17068852807E+03  0.86136218854E+02  0.11925153711E+03  0.22533297787E+03  0.00000000000E+00 0. -1.
<scales pt_clust_3="60.67178" pt_clust_4="30.70281" pt_clust_5="148.58973" pt_clust_6="14000.00000"></scales>
<clustering>
<clus scale="   30.703">  2  4  1 -1</clus>
<clus scale="   60.672">  1  3  2 -1</clus>
<clus scale="  148.590">  2  5  1 -1</clus>
<clus scale="   60.672">  1  3  2 -1</clus>
</clustering>
</event>
<event>
 6    0  0.6687079E+002  0.2520399E+03  0.7546771E-02  0.1112022E+00
         21   -1    0    0  505  501  0.00000000000E+00  0.00000000000E+00  0.36600931002E+03  0.36600931002E+03  0.00000000000E+00 0. -1.
         21   -1    0    0  504  502 -0.00000000000E+00 -0.00000000000E+00 -0.88295004454E+03  0.88295004454E+03  0.00000000000E+00 0. -1.
         21    1    1    2  503  501  0.16055009281E+03  0.62202244969E+02  0.58693395461E+02  0.18190757612E+03  0.00000000000E+00 0. -1.
         21    1    1    2  504  503  0.19396004668E+03 -0.31828714582E+02 -0.23217776696E+03  0.30420401420E+03  0.00000000000E+00 0. -1.
         21    1    1    2  505  506 -0.16822029405E+02  0.26598028264E+02  0.15495704936E+03  0.15812059615E+03  0.00000000000E+00 0. -1.
         21    1    1    2  506  502 -0.33768811009E+03 -0.56971558651E+02 -0.49841341238E+03  0.60472716809E+03  0.00000000000E+00 0. -1.
<scales pt_clust_3="169.61812" pt_clust_4="252.03986" pt_clust_5="31.47119" pt_clust_6="14000.00000"></scales>
<clustering>
<clus scale="   31.471">  1  5  2 -1</clus>
<clus scale="  169.618">  1  3  2 -1</clus>
<clus scale="  252.040">  2  4  1 -1</clus>
<clus scale="   31.471">  1  3  2 -1</clus>
</clustering>
</event>
<event>
 6    0  0.6687079E+002  0.1009793E+03  0.7546771E-02  0.1278250E+00
         21   -1    0    0  504  501  0.00000000000E+00  0.00000000000E+00  0.13451994531E+04  0.13451994531E+04  0.00000000000E+00 0.  1.
         21   -1    0    0  503  502 -0.00000000000E+00 -0.00000000000E+00 -0.56012217413E+02  0.56012217413E+02  0.00000000000E+00 0.  1.
         21    1    1    2  503  506 -0.19341752702E+02 -0.24151251937E+02  0.45598311273E+02  0.55105284308E+02  0.00000000000E+00 0.  1.
         21    1    1    2  504  502  0.43430137344E+02 -0.88143329826E+02  0.24759830892E+02  0.10133347250E+03  0.00000000000E+00 0.  1.
         21    1    1    2  505  501 -0.31610730113E+02  0.16621627359E+02  0.10497454130E+04  0.10503527736E+04  0.00000000000E+00 0.  1.
         21    1    1    2  506  505  0.75223454709E+01  0.95672954404E+02  0.16908368051E+03  0.19442014016E+03  0.00000000000E+00 0.  1.
<scales pt_clust_3="30.94166" pt_clust_4="14000.00000" pt_clust_5="35.74966" pt_clust_6="100.97927"></scales>
<clustering>
<clus scale="   30.942">  2  3  1 -1</clus>
<clus scale="   35.750">  1  5  2 -1</clus>
<clus scale="  100.979">  1  6  2 -1</clus>
<clus scale="   35.750">  1  3  2 -1</clus>
</clustering>
</event>
<event>
 6    0  0.6687079E+002  0.2814499E+03  0.7546771E-02  0.1094900E+00
         21   -1    0    0  504  501  0.00000000000E+00  0.00000000000E+00  0.11492164705E+04  0.11492164705E+04  0.00000000000E+00 0.  1.
         21   -1    0    0  506  502 -0.00000000000E+00 -0.00000000000E+00 -0.10857908419E+03  0.10857908419E+03  0.00000000000E+00 0.  1.
         21    1    1    2  503  505 -0.59202320262E+02 -0.91932822008E+02  0.41528224258E+03  0.42943672349E+03  0.00000000000E+00 0.  1.
         21    1    1    2  504  502  0.16285994750E+03  0.23386385638E+03  0.21527914718E+03  0.35715651615E+03  0.00000000000E+00 0.  1.
         21    1    1    2  505  501 -0.69608659212E+02 -0.14844017212E+03  0.40401123155E+03  0.43601023538E+03  0.00000000000E+00 0.  1.
         21    1    1    2  506  503 -0.34048968030E+02  0.65091377490E+01  0.60647650411E+01  0.35192079693E+02  0.00000000000E+00 0.  1.
<scales pt_clust_3="47.50804" pt_clust_4="275.37037" pt_clust_5="47.50804" pt_clust_6="34.66556"></scales>
<clustering>
<clus scale="   34.666">  2  6  1 -1</clus>
<clus scale="   47.508">  3  5 -1 -1</clus>
<clus scale="  275.370">  2  4  1 -1</clus>
<clus scale="  281.450">  1  3  2 -1</clus>
</clustering>
</event>
<event>
 6    0  0.6687079E+002  0.9418535E+02  0.7546771E-02  0.1293021E+00
         21   -1    0    0  505  501  0.00000000000E+00  0.00000000000E+00  0.20514795422E+03  0.20514795422E+03  0.00000000000E+00 0.  1.
         21   -1    0    0  503  502 -0.00000000000E+00 -0.00000000000E+00 -0.17043407075E+03  0.17043407075E+03  0.00000000000E+00 0.  1.
         21    1    1    2  503  504  0.43925586918E+02 -0.11958762675E+03 -0.25233943465E+02  0.12987459167E+03  0.00000000000E+00 0.  1.
         21    1    1    2  504  501 -0.75602455915E+01  0.63304925425E+02  0.11459686648E+03  0.13113776231E+03  0.00000000000E+00 0.  1.
         21    1    1    2  505  506 -0.23387279233E+02  0.27365775607E+02  0.14260914386E+02  0.38719816420E+02  0.00000000000E+00 0.  1.
         21    1    1    2  506  502 -0.12978062093E+02  0.28916925722E+02 -0.68909953924E+02  0.75849854573E+02  0.00000000000E+00 0.  1.
<scales pt_clust_3="94.18535" pt_clust_4="14000.00000" pt_clust_5="39.80680" pt_clust_6="31.69572"></scales>
<clustering>
<clus scale="   31.696">  2  6  1 -1</clus>
<clus scale="   39.807">  1  5  2 -1</clus>
<clus scale="   94.185">  2  3  1 -1</clus>
<clus scale="   39.807">  1  3  2 -1</clus>
</clustering>
</event>
<event>
 6    0  0.6687079E+002  0.9673403E+02  0.7546771E-02  0.1287318E+00
         21   -1    0    0  503  501  0.00000000000E+00  0.00000000000E+00  0.48282882939E+02  0.48282882939E+02  0.00000000000E+00 0. -1.
         21   -1    0    0  504  502 -0.00000000000E+00 -0.00000000000E+00 -0.16947802234E+04  0.16947802234E+04  0.00000000000E+00 0.  1.
         21    1    1    2  503  505  0.35751866086E+02  0.18223474298E+02 -0.57566460387E+01  0.40539239235E+02  0.00000000000E+00 0. -1.
         21    1    1    2  504  501 -0.27333885175E+02  0.12383570321E+03 -0.51319697406E+03  0.52863366980E+03  0.00000000000E+00 0. -1.
         21    1    1    2  505  506 -0.29035019148E+02 -0.10328313492E+03 -0.10405139539E+03  0.14945611790E+03  0.00000000000E+00 0. -1.
         21    1    1    2  506  502  0.20617038237E+02 -0.38776042587E+02 -0.10234923250E+04  0.10244340794E+04  0.00000000000E+00 0.  1.
<scales pt_clust_3="40.12843" pt_clust_4="14000.00000" pt_clust_5="96.73403" pt_clust_6="43.93116"></scales>
<clustering>
<clus scale="   40.128">  1  3  2 -1</clus>
<clus scale="   43.931">  2  6  1 -1</clus>
<clus scale="   96.734">  1  5  2 -1</clus>
<clus scale="   40.128">  1  3  2 -1</clus>
</clustering>
</event>
<event>
 6    0  0.6687079E+002  0.1367273E+03  0.7546771E-02  0.1217802E+00
         21   -1    0    0  503  501  0.00000000000E+00  0.00000000000E+00  0.68844490173E+03  0.68844490173E+03  0.00000000000E+00 0. -1.
         21   -1    0    0  506  502 -0.00000000000E+00 -0.00000000000E+00 -0.29759789730E+03  0.29759789730E+03  0.00000000000E+00 0.  1.
         21    1    1    2  503  504 -0.16348433136E+03 -0.34098251740E+02  0.19644065622E+03  0.25783473154E+03  0.00000000000E+00 0. -1.
         21    1    1    2  504  502  0.26770607311E+02  0.27886256374E+02 -0.19157277103E+02  0.43142901807E+02  0.00000000000E+00 0.  1.
         21    1    1    2  505  501  0.29960384953E+02  0.48691943984E+01  0.43667348634E+03  0.43772716090E+03  0.00000000000E+00 0.  1.
         21    1    1    2  506  505  0.10675333910E+03  0.13428009677E+01 -0.22310986102E+03  0.24733800478E+03  0.00000000000E+00 0.  1.
<scales pt_clust_3="14000.00000" pt_clust_4="39.82388" pt_clust_5="30.35348" pt_clust_6="136.72732"></scales>
<clustering>
<clus scale="   30.353">  1  5  2 -1</clus>
<clus scale="   39.824">  2  4  1 -1</clus>
<clus scale="  136.727">  2  6  1 -1</clus>
<clus scale="   30.353">  1  3  2 -1</clus>
</clustering>
</event>
<event>
 6    0  0.6687079E+002  0.1432126E+03  0.7546771E-02  0.1209070E+00
         21   -1    0    0  503  501  0.00000000000E+00  0.00000000000E+00  0.10666985901E+04  0.10666985901E+04  0.00000000000E+00 0.  1.
         21   -1    0    0  504  502 -0.00000000000E+00 -0.00000000000E+00 -0.89594219211E+03  0.89594219211E+03  0.00000000000E+00 0. -1.
         21    1    1    2  503  506  0.43781715914E+02 -0.44874366023E+02 -0.91911995760E+02  0.11125808887E+03  0.00000000000E+00 0. -1.
         21    1    1    2  504  505  0.38737490837E+02 -0.10497974469E+02 -0.66551907842E+03  0.66672816380E+03  0.00000000000E+00 0. -1.
         21    1    1    2  505  501 -0.96784287896E+02  0.10000760382E+03  0.10473778423E+04  0.10565836757E+04  0.00000000000E+00 0.  1.
         21    1    1    2  506  502  0.14265081146E+02 -0.44635263330E+02 -0.11919037014E+03  0.12807085385E+03  0.00000000000E+00 0. -1.
<scales pt_clust_3="31.56137" pt_clust_4="40.13478" pt_clust_5="138.48151" pt_clust_6="31.56137"></scales>
<clustering>
<clus scale="   31.561">  3  6 -1 -1</clus>
<clus scale="   40.135">  2  4  1 -1</clus>
<clus scale="  138.482">  1  5  2 -1</clus>
<clus scale="  138.482">  1  3  2 -1</clus>
</clustering>
</event>
<event>
 6    0  0.6687079E+002  0.1114520E+03  0.7546771E-02  0.1257904E+00
         21   -1    0    0  503  501  0.00000000000E+00  0.00000000000E+00  0.50368478243E+03  0.50368478243E+03  0.00000000000E+00 0.  1.
         21   -1    0    0  506  502 -0.00000000000E+00 -0.00000000000E+00 -0.85685999525E+02  0.85685999525E+02  0.00000000000E+00 0.  1.
         21    1    1    2  503  504 -0.55341779121E+02  0.58834976400E+01  0.14735993890E+02  0.57571499691E+02  0.00000000000E+00 0.  1.
         21    1    1    2  504  502 -0.49808394086E+02 -0.26426550939E+02 -0.24812766306E+02  0.61602857788E+02  0.00000000000E+00 0.  1.
         21    1    1    2  505  501  0.19759817401E+02  0.58197254918E+02  0.32659713113E+03  0.33232974126E+03  0.00000000000E+00 0.  1.
         21    1    1    2  506  505  0.85390355806E+02 -0.37654201619E+02  0.10147842419E+03  0.13786668321E+03  0.00000000000E+00 0.  1.
<scales pt_clust_3="50.87639" pt_clust_4="50.87639" pt_clust_5="61.46032" pt_clust_6="98.99059"></scales>
<clustering>
<clus scale="   50.876">  3  4 -1 -1</clus>
<clus scale="   61.460">  1  5  2 -1</clus>
<clus scale="   98.991">  1  6  2 -1</clus>
<clus scale="   61.460">  1  3  2 -1</clus>
</clustering>
</event>
<event>
 6    0  0.6687079E+002  0.1110794E+03  0.7546771E-02  0.1258584E+00
         21   -1    0    0  506  501  0.00000000000E+00  0.00000000000E+00  0.34782979065E+03  0.34782979065E+03  0.00000000000E+00 0.  1.
         21   -1    0    0  504  502 -0.00000000000E+00 -0.00000000000E+00 -0.12497542860E+03  0.12497542860E+03  0.00000000000E+00 0.  1.
         21    1    1    2  503  505 -0.72538236899E+01 -0.11188663116E+03  0.88841749489E+01  0.11247295121E+03  0.00000000000E+00 0.  1.
         21    1    1    2  504  503  0.49426508349E+02  0.10520123196E+02 -0.37956977352E+02  0.63201145950E+02  0.00000000000E+00 0.  1.
         21    1    1    2  505  501 -0.13453837304E+02  0.11038591346E+03  0.24044300508E+03  0.26491299387E+03  0.00000000000E+00 0.  1.
         21    1    1    2  506  502 -0.28718847355E+02 -0.90194054995E+01  0.11484159377E+02  0.32218128213E+02  0.00000000000E+00 0. -1.
<scales pt_clust_3="111.07940" pt_clust_4="37.32959" pt_clust_5="14000.00000" pt_clust_6="30.10186"></scales>
<clustering>
<clus scale="   30.102">  2  6  1 -1</clus>
<clus scale="   37.330">  2  4  1 -1</clus>
<clus scale="  111.079">  2  3  1 -1</clus>
<clus scale="  111.079">  1  3  2 -1</clus>
</clustering>
</event>
<event>
 6    0  0.6687079E+002  0.1230793E+03  0.7546771E-02  0.1238102E+00
         21   -1    0    0  503  501  0.00000000000E+00  0.00000000000E+00  0.90430414080E+03  0.90430414080E+03  0.00000000000E+00 0.  1.
         21   -1    0    0  501  502 -0.00000000000E+00 -0.00000000000E+00 -0.47052489603E+02  0.47052489603E+02  0.00000000000E+00 0.  1.
         21    1    1    2  503  505 -0.18133958386E+00 -0.32605452578E+02  0.36069477465E+03  0.36216552691E+03  0.00000000000E+00 0.  1.
         21    1    1    2  504  502 -0.79439792295E+02 -0.89545083393E+02  0.10599198420E+03  0.15988528161E+03  0.00000000000E+00 0.  1.
         21    1    1    2  505  506  0.37161959080E+02 -0.96009806300E+01  0.10886756388E+03  0.11543542133E+03  0.00000000000E+00 0.  1.
         21    1    1    2  506  504  0.42459172799E+02  0.13175151660E+03  0.28169732846E+03  0.31387040055E+03  0.00000000000E+00 0.  1.
<scales pt_clust_3="32.60596" pt_clust_4="123.07925" pt_clust_5="40.56011" pt_clust_6="14000.00000"></scales>
<clustering>
<clus scale="   32.606">  1  3  2 -1</clus>
<clus scale="   40.560">  1  5  2 -1</clus>
<clus scale="  123.079">  2  4  1 -1</clus>
<clus scale="   32.606">  1  3  2 -1</clus>
</clustering>
</event>
<event>
 6    0  0.6687079E+002  0.1179418E+03  0.7546771E-02  0.1246532E+00
         21   -1    0    0  503  501  0.00000000000E+00  0.00000000000E+00  0.10080407733E+03  0.10080407733E+03  0.00000000000E+00 0. -1.
         21   -1    0    0  504  502 -0.00000000000E+00 -0.00000000000E+00 -0.29953542753E+03  0.29953542753E+03  0.00000000000E+00 0. -1.
         21    1    1    2  503  505 -0.26130227279E+02 -0.22748325333E+02 -0.11136454941E+00  0.34645165394E+02  0.00000000000E+00 0.  1.
         21    1    1    2  504  506  0.71044304843E+02 -0.87295599184E+01 -0.14367840314E+02  0.73006392201E+02  0.00000000000E+00 0. -1.
         21    1    1    2  505  502 -0.98071513481E+02  0.47801459225E+02 -0.20589726128E+03  0.23301648754E+03  0.00000000000E+00 0. -1.
         21    1    1    2  506  501  0.53157435918E+02 -0.16323573973E+02  0.21645115949E+02  0.59671459719E+02  0.00000000000E+00 0. -1.
<scales pt_clust_3="34.64499" pt_clust_4="34.09925" pt_clust_5="111.41606" pt_clust_6="34.09925"></scales>
<clustering>
<clus scale="   34.099">  4  6 -1 -1</clus>
<clus scale="   34.645">  1  3  2 -1</clus>
<clus scale="  111.416">  2  5  1 -1</clus>
<clus scale="   34.645">  1  3  2 -1</clus>
</clustering>
</event>
<event>
 6    0  0.6687079E+002  0.1060528E+03  0.7546771E-02  0.1268059E+00
         21   -1    0    0  505  501  0.00000000000E+00  0.00000000000E+00  0.97926429537E+02  0.97926429537E+02  0.00000000000E+00 0. -1.
         21   -1    0    0  506  502 -0.00000000000E+00 -0.00000000000E+00 -0.19489256721E+03  0.19489256721E+03  0.00000000000E+00 0. -1.
         21    1    1    2  503  504 -0.47615248046E+02 -0.40266036830E+02  0.24288630626E+02  0.66921619423E+02  0.00000000000E+00 0. -1.
         21    1    1    2  504  501 -0.33818609365E+02 -0.13824827963E+02 -0.17617140019E+02  0.40560915054E+02  0.00000000000E+00 0.  1.
         21    1    1    2  505  502  0.46485475584E+02  0.91386370505E+02 -0.68124671454E+02  0.12309889933E+03  0.00000000000E+00 0. -1.
         21    1    1    2  506  503  0.34948381827E+02 -0.37295505712E+02 -0.35512956823E+02  0.62237562942E+02  0.00000000000E+00 0. -1.
<scales pt_clust_3="33.80672" pt_clust_4="33.80672" pt_clust_5="96.41836" pt_clust_6="51.11110"></scales>
<clustering>
<clus scale="   33.807">  3  4 -1 -1</clus>
<clus scale="   51.111">  2  6  1 -1</clus>
<clus scale="   96.418">  2  5  1 -1</clus>
<clus scale="  106.053">  1  3  2 -1</clus>
</clustering>
</event>
<event>
 6    0  0.6687079E+002  0.9019678E+02  0.7546771E-02  0.1302376E+00
         21   -1    0    0  506  501  0.00000000000E+00  0.00000000000E+00  0.10233944680E+04  0.10233944680E+04  0.00000000000E+00 0.  1.
         21   -1    0    0  504  502 -0.00000000000E+00 -0.00000000000E+00 -0.54473366428E+02  0.54473366428E+02  0.00000000000E+00 0. -1.
         21    1    1    2  503  501  0.46735381601E+02  0.23205910021E+02  0.68202560781E+03  0.68401874234E+03  0.00000000000E+00 0.  1.
         21    1    1    2  504  505 -0.12484697898E+02  0.37663156762E+02  0.74986007933E+02  0.84836798882E+02  0.00000000000E+00 0.  1.
         21    1    1    2  505  503  0.57509721807E+02  0.14991037058E+02  0.17430288410E+03  0.18415644083E+03  0.00000000000E+00 0.  1.
         21    1    1    2  506  502 -0.91760405509E+02 -0.75860103842E+02  0.37606601694E+02  0.12485585235E+03  0.00000000000E+00 0. -1.
<scales pt_clust_3="52.29755" pt_clust_4="39.67847" pt_clust_5="14000.00000" pt_clust_6="90.19678"></scales>
<clustering>
<clus scale="   39.678">  2  4  1 -1</clus>
<clus scale="   52.298">  1  3  2 -1</clus>
<clus scale="   90.197">  2  6  1 -1</clus>
<clus scale="   52.298">  1  3  2 -1</clus>
</clustering>
</event>
<event>
 6    0  0.6687079E+002  0.9960822E+02  0.7546771E-02  0.1281122E+00
         21   -1    0    0  503  501  0.00000000000E+00  0.00000000000E+00  0.39257809599E+03  0.39257809599E+03  0.00000000000E+00 0.  1.
         21   -1    0    0  504  502 -0.00000000000E+00 -0.00000000000E+00 -0.43595578047E+03  0.43595578047E+03  0.00000000000E+00 0. -1.
         21    1    1    2  503  505  0.62825262700E+02  0.76059790817E+02 -0.26102474166E+02  0.10204628641E+03  0.00000000000E+00 0.  1.
         21    1    1    2  504  506  0.95720841690E+01 -0.40865251390E+02  0.16495200804E+02  0.45096399147E+02  0.00000000000E+00 0.  1.
         21    1    1    2  505  502 -0.81817733932E+01  0.41102186037E+02 -0.34861797692E+03  0.35112793245E+03  0.00000000000E+00 0. -1.
         21    1    1    2  506  501 -0.64215573476E+02 -0.76296725464E+02  0.31484756581E+03  0.33026325846E+03  0.00000000000E+00 0.  1.
<scales pt_clust_3="99.60822" pt_clust_4="35.01394" pt_clust_5="41.90860" pt_clust_6="14000.00000"></scales>
<clustering>
<clus scale="   41.909">  2  5  1 -1</clus>
<clus scale="   35.014">  2  4  1 -1</clus>
<clus scale="   99.608">  2  3  1 -1</clus>
<clus scale="   99.608">  1  3  2 -1</clus>
</clustering>
</event>
<event>
 6    0  0.6687079E+002  0.6789051E+02  0.7546771E-02  0.1367417E+00
         21   -1    0    0  505  501  0.00000000000E+00  0.00000000000E+00  0.13430701331E+04  0.13430701331E+04  0.00000000000E+00 0. -1.
         21   -1    0    0  506  502 -0.00000000000E+00 -0.00000000000E+00 -0.76811320267E+03  0.76811320267E+03  0.00000000000E+00 0.  1.
         21    1    1    2  503  502  0.85744058059E+01  0.67205813279E+02 -0.74258509420E+03  0.74566933952E+03  0.00000000000E+00 0.  1.
         21    1    1    2  504  503 -0.43150145486E+02 -0.71039267249E+02  0.70996543373E+02  0.10931158089E+03  0.00000000000E+00 0. -1.
         21    1    1    2  505  504  0.14438060718E+02  0.51892039412E+02  0.10876153586E+04  0.10889483044E+04  0.00000000000E+00 0. -1.
         21    1    1    2  506  501  0.20137678963E+02 -0.48058585442E+02  0.15893012267E+03  0.16725411098E+03  0.00000000000E+00 0. -1.
<scales pt_clust_3="67.89051" pt_clust_4="14000.00000" pt_clust_5="33.86726" pt_clust_6="52.10714"></scales>
<clustering>
<clus scale="   52.107">  1  6  2 -1</clus>
<clus scale="   33.867">  1  5  2 -1</clus>
<clus scale="   67.891">  2  3  1 -1</clus>
<clus scale="   52.107">  1  3  2 -1</clus>
</clustering>
</event>
<event>
 6    0  0.6687079E+002  0.1177112E+03  0.7546771E-02  0.1246921E+00
         21   -1    0    0  506  501  0.00000000000E+00  0.00000000000E+00  0.16300575424E+03  0.16300575424E+03  0.00000000000E+00 0.  1.
         21   -1    0    0  505  502 -0.00000000000E+00 -0.00000000000E+00 -0.23966095555E+03  0.23966095555E+03  0.00000000000E+00 0. -1.
         21    1    1    2  503  504 -0.42937757185E+02 -0.75167014874E+02 -0.84068357425E+02  0.12066987958E+03  0.00000000000E+00 0. -1.
         21    1    1    2  504  501 -0.34742241173E+02  0.20860904301E+01 -0.62807410732E+01  0.35366973343E+02  0.00000000000E+00 0.  1.
         21    1    1    2  505  503  0.43842409868E+02 -0.61580079241E+02 -0.53271404060E+02  0.92477594870E+02  0.00000000000E+00 0. -1.
         21    1    1    2  506  502  0.33837588491E+02  0.13466100369E+03  0.66965301255E+02  0.15415226200E+03  0.00000000000E+00 0.  1.
<scales pt_clust_3="117.71124" pt_clust_4="34.80481" pt_clust_5="72.79570" pt_clust_6="14000.00000"></scales>
<clustering>
<clus scale="   34.805">  1  4  2 -1</clus>
<clus scale="   72.796">  2  5  1 -1</clus>
<clus scale="  117.711">  2  3  1 -1</clus>
<clus scale="   34.805">  1  3  2 -1</clus>
</clustering>
</event>
<event>
 6    0  0.6687079E+002  0.9905513E+02  0.7546771E-02  0.1282296E+00
         21   -1    0    0  505  501  0.00000000000E+00  0.00000000000E+00  0.10945992821E+03  0.10945992821E+03  0.00000000000E+00 0. -1.
         21   -1    0    0  501  502 -0.00000000000E+00 -0.00000000000E+00 -0.84070066321E+03  0.84070066321E+03  0.00000000000E+00 0.  1.
         21    1    1    2  503  504  0.30781576184E+02 -0.39274422583E+02 -0.16506049423E+03  0.17243825694E+03  0.00000000000E+00 0. -1.
         21    1    1    2  504  502 -0.37815440393E+02 -0.16322749510E+02 -0.29690306249E+03  0.29974633976E+03  0.00000000000E+00 0.  1.
         21    1    1    2  505  506  0.86973557844E+02 -0.44452997263E+02  0.66795170562E+02  0.11833031539E+03  0.00000000000E+00 0. -1.
         21    1    1    2  506  503 -0.79939693635E+02  0.10005016936E+03 -0.33607234885E+03  0.35964567934E+03  0.00000000000E+00 0.  1.
<scales pt_clust_3="48.25756" pt_clust_4="41.18786" pt_clust_5="99.05513" pt_clust_6="14000.00000"></scales>
<clustering>
<clus scale="   41.188">  2  4  1 -1</clus>
<clus scale="   48.258">  2  3  1 -1</clus>
<clus scale="   99.055">  1  5  2 -1</clus>
<clus scale="   99.055">  1  3  2 -1</clus>
</clustering>
</event>
<event>
 6    0  0.6687079E+002  0.2421508E+03  0.7546771E-02  0.1118368E+00
         21   -1    0    0  503  501  0.00000000000E+00  0.00000000000E+00  0.20567286196E+03  0.20567286196E+03  0.00000000000E+00 0.  1.
         21   -1    0    0  505  502 -0.00000000000E+00 -0.00000000000E+00 -0.11669407070E+04  0.11669407070E+04  0.00000000000E+00 0.  1.
         21    1    1    2  503  506 -0.27704262094E+02  0.12718747695E+02  0.30992810984E+02  0.43472370694E+02  0.00000000000E+00 0. -1.
         21    1    1    2  504  502 -0.69025781653E+02 -0.30997713908E+02 -0.79086995910E+03  0.79448140885E+03  0.00000000000E+00 0.  1.
         21    1    1    2  505  501  0.25688602748E+03  0.14092314802E+03 -0.10676506933E+03  0.31184698940E+03  0.00000000000E+00 0.  1.
         21    1    1    2  506  504 -0.16015598374E+03 -0.12264418181E+03 -0.94625627607E+02  0.22281280003E+03  0.00000000000E+00 0.  1.
<scales pt_clust_3="30.48430" pt_clust_4="75.88196" pt_clust_5="242.15085" pt_clust_6="14000.00000"></scales>
<clustering>
<clus scale="   30.484">  1  3  2 -1</clus>
<clus scale="   75.882">  2  4  1 -1</clus>
<clus scale="  242.151">  2  5  1 -1</clus>
<clus scale="   30.484">  1  3  2 -1</clus>
</clustering>
</event>
<event>
 6    0  0.6687079E+002  0.1406482E+03  0.7546771E-02  0.1212459E+00
         21   -1    0    0  505  501  0.00000000000E+00  0.00000000000E+00  0.43233068190E+03  0.43233068190E+03  0.00000000000E+00 0.  1.
         21   -1    0    0  506  502 -0.00000000000E+00 -0.00000000000E+00 -0.97667613880E+02  0.97667613880E+02  0.00000000000E+00 0. -1.
         21    1    1    2  503  504 -0.73059634719E+00 -0.59638655589E+02 -0.79807765594E+01  0.60174710685E+02  0.00000000000E+00 0. -1.
         21    1    1    2  504  502 -0.13007196763E+02 -0.38192787918E+02  0.25835315997E+02  0.47909704333E+02  0.00000000000E+00 0. -1.
         21    1    1    2  505  503  0.10535744868E+03  0.11686929703E+03  0.28034477213E+03  0.32148377229E+03  0.00000000000E+00 0.  1.
         21    1    1    2  506  501 -0.91619655575E+02 -0.19037853525E+02  0.36463756456E+02  0.10043010848E+03  0.00000000000E+00 0. -1.
<scales pt_clust_3="32.93759" pt_clust_4="32.93759" pt_clust_5="134.82644" pt_clust_6="93.57671"></scales>
<clustering>
<clus scale="   32.938">  3  4 -1 -1</clus>
<clus scale="   93.577">  2  6  1 -1</clus>
<clus scale="  134.826">  1  5  2 -1</clus>
<clus scale="  134.826">  1  3  2 -1</clus>
</clustering>
</event>
<event>
 6    0  0.6687079E+002  0.1539250E+03  0.7546771E-02  0.1195731E+00
         21   -1    0    0  503  501  0.00000000000E+00  0.00000000000E+00  0.43355445625E+03  0.43355445625E+03  0.00000000000E+00 0.  1.
         21   -1    0    0  501  502 -0.00000000000E+00 -0.00000000000E+00 -0.20065735596E+03  0.20065735596E+03  0.00000000000E+00 0.  1.
         21    1    1    2  503  504 -0.20610134685E+02  0.22811522748E+02  0.31232310915E+03  0.31383254728E+03  0.00000000000E+00 0.  1.
         21    1    1    2  504  506 -0.12700226303E+03 -0.61467529400E+02  0.33834277171E+01  0.14113567788E+03  0.00000000000E+00 0.  1.
         21    1    1    2  505  502  0.10440686065E+03  0.81928761012E+01 -0.65915203286E+02  0.12374461521E+03  0.00000000000E+00 0.  1.
         21    1    1    2  506  505  0.43205537067E+02  0.30463130551E+02 -0.16894233292E+02  0.55498971835E+02  0.00000000000E+00 0.  1.
<scales pt_clust_3="30.74318" pt_clust_4="147.32868" pt_clust_5="32.23605" pt_clust_6="32.23605"></scales>
<clustering>
<clus scale="   30.743">  1  3  2 -1</clus>
<clus scale="   32.236">  5  6 -1 -1</clus>
<clus scale="  147.329">  1  4  2 -1</clus>
<clus scale="   30.743">  1  3  2 -1</clus>
</clustering>
</event>
<event>
 6    0  0.6687079E+002  0.8340547E+02  0.7546771E-02  0.1319656E+00
         21   -1    0    0  503  501  0.00000000000E+00  0.00000000000E+00  0.43634386228E+03  0.43634386228E+03  0.00000000000E+00 0. -1.
         21   -1    0    0  505  502 -0.00000000000E+00 -0.00000000000E+00 -0.75634384814E+02  0.75634384814E+02  0.00000000000E+00 0. -1.
         21    1    1    2  503  504 -0.96100062682E+02 -0.10903394158E+01  0.81207168312E+02  0.12582136175E+03  0.00000000000E+00 0. -1.
         21    1    1    2  504  502 -0.12003321535E+02 -0.29407564174E+02 -0.27638947224E+02  0.42104583624E+02  0.00000000000E+00 0. -1.
         21    1    1    2  505  506  0.57807067054E+02  0.60579036358E+02  0.10914607540E+03  0.13756577489E+03  0.00000000000E+00 0. -1.
         21    1    1    2  506  501  0.50296317163E+02 -0.30081132768E+02  0.19799518098E+03  0.20648652682E+03  0.00000000000E+00 0. -1.
<scales pt_clust_3="83.40547" pt_clust_4="31.76294" pt_clust_5="14000.00000" pt_clust_6="59.19503"></scales>
<clustering>
<clus scale="   31.763">  2  4  1 -1</clus>
<clus scale="   59.195">  1  6  2 -1</clus>
<clus scale="   83.405">  1  3  2 -1</clus>
<clus scale="   59.195">  1  3  2 -1</clus>
</clustering>
</event>
<event>
 6    0  0.6687079E+002  0.1192623E+03  0.7546771E-02  0.1244319E+00
         21   -1    0    0  506  501  0.00000000000E+00  0.00000000000E+00  0.76486056378E+02  0.76486056378E+02  0.00000000000E+00 0.  1.
         21   -1    0    0  504  502 -0.00000000000E+00 -0.00000000000E+00 -0.40266379407E+03  0.40266379407E+03  0.00000000000E+00 0. -1.
         21    1    1    2  503  501  0.10666600314E+03 -0.33665588590E+02  0.43866446976E+01  0.11193860251E+03  0.00000000000E+00 0.  1.
         21    1    1    2  504  505 -0.28889201219E+02  0.49073855202E+02 -0.94281783076E+02  0.11014483116E+03  0.00000000000E+00 0. -1.
         21    1    1    2  505  503 -0.47869942943E+02 -0.49346005950E+00 -0.55825677555E+02  0.73541017226E+02  0.00000000000E+00 0. -1.
         21    1    1    2  506  502 -0.29906858977E+02 -0.14914806552E+02 -0.18045692176E+03  0.18352539955E+03  0.00000000000E+00 0. -1.
<scales pt_clust_3="106.14747" pt_clust_4="52.90466" pt_clust_5="52.90466" pt_clust_6="33.41963"></scales>
<clustering>
<clus scale="   33.420">  2  6  1 -1</clus>
<clus scale="   52.905">  4  5 -1 -1</clus>
<clus scale="  106.147">  1  3  2 -1</clus>
<clus scale="  106.147">  1  3  2 -1</clus>
</clustering>
</event>
<event>
 6    0  0.6687079E+002  0.8384795E+02  0.7546771E-02  0.1318473E+00
         21   -1    0    0  505  501  0.00000000000E+00  0.00000000000E+00  0.22940946017E+03  0.22940946017E+03  0.00000000000E+00 0.  1.
         21   -1    0    0  501  502 -0.00000000000E+00 -0.00000000000E+00 -0.73839509182E+03  0.73839509182E+03  0.00000000000E+00 0.  1.
         21    1    1    2  503  502  0.46734105611E+02  0.28735763181E+02 -0.52240398328E+03  0.52527682460E+03  0.00000000000E+00 0.  1.
         21    1    1    2  504  503 -0.37860162849E+02  0.81597537299E+02 -0.15606807953E+03  0.18013549198E+03  0.00000000000E+00 0.  1.
         21    1    1    2  505  506  0.16037286475E+02 -0.45976884749E+02  0.18530243768E+03  0.19159348083E+03  0.00000000000E+00 0.  1.
         21    1    1    2  506  504 -0.24911229236E+02 -0.64356415730E+02 -0.15816006515E+02  0.70798754578E+02  0.00000000000E+00 0. -1.
<scales pt_clust_3="54.52193" pt_clust_4="14000.00000" pt_clust_5="48.69362" pt_clust_6="83.84795"></scales>
<clustering>
<clus scale="   48.694">  1  5  2 -1</clus>
<clus scale="   54.522">  2  3  1 -1</clus>
<clus scale="   83.848">  1  6  2 -1</clus>
<clus scale="   48.694">  1  3  2 -1</clus>
</clustering>
</event>
<event>
 6    0  0.6687079E+002  0.9164096E+02  0.7546771E-02  0.1298926E+00
         21   -1    0    0  505  501  0.00000000000E+00  0.00000000000E+00  0.43308204931E+03  0.43308204931E+03  0.00000000000E+00 0. -1.
         21   -1    0    0  504  502 -0.00000000000E+00 -0.00000000000E+00 -0.18889815278E+04  0.18889815278E+04  0.00000000000E+00 0. -1.
         21    1    1    2  503  501  0.49246656195E+02  0.71121005950E+02  0.30871602244E+03  0.32060725685E+03  0.00000000000E+00 0. -1.
         21    1    1    2  504  503 -0.33708548975E+02 -0.10503129184E+03 -0.34085347679E+02  0.11545410112E+03  0.00000000000E+00 0. -1.
         21    1    1    2  505  506  0.28591264718E+02 -0.19837312571E+02  0.73137566022E+02  0.80994339011E+02  0.00000000000E+00 0. -1.
         21    1    1    2  506  502 -0.44129371938E+02  0.53747598464E+02 -0.18036677193E+04  0.18050078802E+04  0.00000000000E+00 0. -1.
<scales pt_clust_3="14000.00000" pt_clust_4="91.64096" pt_clust_5="34.79913" pt_clust_6="69.47983"></scales>
<clustering>
<clus scale="   34.799">  1  5  2 -1</clus>
<clus scale="   69.480">  2  6  1 -1</clus>
<clus scale="   91.641">  2  4  1 -1</clus>
<clus scale="   34.799">  1  3  2 -1</clus>
</clustering>
</event>
<event>
 6    0  0.6687079E+002  0.9682762E+02  0.7546771E-02  0.1287112E+00
         21   -1    0    0  502  501  0.00000000000E+00  0.00000000000E+00  0.53073993374E+02  0.53073993374E+02  0.00000000000E+00 0. -1.
         21   -1    0    0  503  502 -0.00000000000E+00 -0.00000000000E+00 -0.54859749168E+03  0.54859749168E+03  0.00000000000E+00 0.  1.
         21    1    1    2  503  505 -0.14279742966E+01 -0.10254999719E+03 -0.32957195160E+03  0.34516113964E+03  0.00000000000E+00 0.  1.
         21    1    1    2  504  506 -0.17790788121E+02  0.46064890881E+02 -0.35099076909E+02  0.60584086307E+02  0.00000000000E+00 0. -1.
         21    1    1    2  505  504  0.48729727540E+02  0.80716327822E+02 -0.12609395426E+03  0.15744649003E+03  0.00000000000E+00 0. -1.
         21    1    1    2  506  501 -0.29510965122E+02 -0.24231221509E+02 -0.47585155448E+01  0.38479769080E+02  0.00000000000E+00 0. -1.
<scales pt_clust_3="96.82762" pt_clust_4="46.93581" pt_clust_5="14000.00000" pt_clust_6="38.18441"></scales>
<clustering>
<clus scale="   38.184">  1  6  2 -1</clus>
<clus scale="   46.936">  1  4  2 -1</clus>
<clus scale="   96.828">  2  3  1 -1</clus>
<clus scale="   38.184">  1  3  2 -1</clus>
</clustering>
</event>
<event>
 6    0  0.6687079E+002  0.6264507E+02  0.7546771E-02  0.1387055E+00
         21   -1    0    0  505  501  0.00000000000E+00  0.00000000000E+00  0.17371037043E+03  0.17371037043E+03  0.00000000000E+00 0. -1.
         21   -1    0    0  504  502 -0.00000000000E+00 -0.00000000000E+00 -0.15419690916E+04  0.15419690916E+04  0.00000000000E+00 0.  1.
         21    1    1    2  503  501  0.52948166035E+02  0.22081738203E+00  0.42546359145E+02  0.67924588503E+02  0.00000000000E+00 0. -1.
         21    1    1    2  504  506 -0.12617957791E+02 -0.59914928323E+02  0.16239818296E+02  0.63346216880E+02  0.00000000000E+00 0. -1.
         21    1    1    2  505  502  0.57513529433E+02  0.14812428437E+02 -0.14680248287E+04  0.14692256844E+04  0.00000000000E+00 0.  1.
         21    1    1    2  506  503 -0.97843737677E+02  0.44881682504E+02  0.40979930060E+02  0.11518297224E+03  0.00000000000E+00 0. -1.
<scales pt_clust_3="52.94863" pt_clust_4="62.64507" pt_clust_5="59.65053" pt_clust_6="14000.00000"></scales>
<clustering>
<clus scale="   52.949">  1  3  2 -1</clus>
<clus scale="   59.651">  2  5  1 -1</clus>
<clus scale="   62.645">  2  4  1 -1</clus>
<clus scale="   52.949">  1  3  2 -1</clus>
</clustering>
</event>
<event>
 6    0  0.6687079E+002  0.9844237E+02  0.7546771E-02  0.1283606E+00
         21   -1    0    0  503  501  0.00000000000E+00  0.00000000000E+00  0.32086367065E+03  0.32086367065E+03  0.00000000000E+00 0. -1.
         21   -1    0    0  504  502 -0.00000000000E+00 -0.00000000000E+00 -0.31028218580E+03  0.31028218580E+03  0.00000000000E+00 0.  1.
         21    1    1    2  503  502 -0.75257323420E+02 -0.10936796760E+01  0.21549213098E+03  0.22825801055E+03  0.00000000000E+00 0. -1.
         21    1    1    2  504  505 -0.76734265719E+02 -0.25680815601E+02 -0.22589274410E+03  0.23994829372E+03  0.00000000000E+00 0.  1.
         21    1    1    2  505  506  0.43694348246E+02  0.79918112103E+01 -0.15629016904E+02  0.47088547275E+02  0.00000000000E+00 0. -1.
         21    1    1    2  506  501  0.10829724089E+03  0.18782684067E+02  0.36611114863E+02  0.11585100490E+03  0.00000000000E+00 0.  1.
<scales pt_clust_3="75.26527" pt_clust_4="86.02423" pt_clust_5="30.42609" pt_clust_6="30.42609"></scales>
<clustering>
<clus scale="   30.426">  5  6 -1 -1</clus>
<clus scale="   75.265">  1  3  2 -1</clus>
<clus scale="   86.024">  2  4  1 -1</clus>
<clus scale="   75.265">  1  3  2 -1</clus>
</clustering>
</event>
<event>
 6    0  0.6687079E+002  0.1806074E+03  0.7546771E-02  0.1167216E+00
         21   -1    0    0  506  501  0.00000000000E+00  0.00000000000E+00  0.85627653706E+03  0.85627653706E+03  0.00000000000E+00 0.  1.
         21   -1    0    0  505  502 -0.00000000000E+00 -0.00000000000E+00 -0.95750689436E+02  0.95750689436E+02  0.00000000000E+00 0. -1.
         21    1    1    2  503  501  0.25075342732E+02 -0.20838198012E+02  0.10782006688E+03  0.11264177791E+03  0.00000000000E+00 0. -1.
         21    1    1    2  504  503  0.75234543700E+02  0.11487468432E+03  0.16486732299E+03  0.21456389224E+03  0.00000000000E+00 0. -1.
         21    1    1    2  505  504  0.21462822233E+02  0.94108900155E+02  0.10006548552E+02  0.97042613529E+02  0.00000000000E+00 0. -1.
         21    1    1    2  506  502 -0.12177270866E+03 -0.18814538647E+03  0.47783190921E+03  0.52777894282E+03  0.00000000000E+00 0.  1.
<scales pt_clust_3="32.60373" pt_clust_4="180.60740" pt_clust_5="95.49054" pt_clust_6="14000.00000"></scales>
<clustering>
<clus scale="   32.604">  1  3  2 -1</clus>
<clus scale="   95.491">  2  5  1 -1</clus>
<clus scale="  180.607">  1  4  2 -1</clus>
<clus scale="   32.604">  1  3  2 -1</clus>
</clustering>
</event>
<event>
 6    0  0.6687079E+002  0.1304518E+03  0.7546771E-02  0.1226787E+00
         21   -1    0    0  504  501  0.00000000000E+00  0.00000000000E+00  0.22604577118E+04  0.22604577118E+04  0.00000000000E+00 0.  1.
         21   -1    0    0  506  502 -0.00000000000E+00 -0.00000000000E+00 -0.19672791192E+03  0.19672791192E+03  0.00000000000E+00 0.  1.
         21    1    1    2  503  501  0.52177338524E+02  0.31817275966E+02  0.19190900605E+04  0.19200628828E+04  0.00000000000E+00 0.  1.
         21    1    1    2  504  505  0.57554179642E+02 -0.80761520534E+02  0.13304348881E+02  0.10005954473E+03  0.00000000000E+00 0. -1.
         21    1    1    2  505  502  0.72578318123E+02  0.22108086633E+02 -0.10987092351E+03  0.13352153230E+03  0.00000000000E+00 0.  1.
         21    1    1    2  506  503 -0.18230983629E+03  0.26836157934E+02  0.24120631403E+03  0.30354166388E+03  0.00000000000E+00 0.  1.
<scales pt_clust_3="61.11312" pt_clust_4="130.45176" pt_clust_5="77.92573" pt_clust_6="14000.00000"></scales>
<clustering>
<clus scale="   61.113">  1  3  2 -1</clus>
<clus scale="   77.926">  2  5  1 -1</clus>
<clus scale="  130.452">  2  4  1 -1</clus>
<clus scale="   61.113">  1  3  2 -1</clus>
</clustering>
</event>
<event>
 6    0  0.6687079E+002  0.6319739E+02  0.7546771E-02  0.1384883E+00
         21   -1    0    0  503  501  0.00000000000E+00  0.00000000000E+00  0.34593747637E+04  0.34593747637E+04  0.00000000000E+00 0. -1.
         21   -1    0    0  504  502 -0.00000000000E+00 -0.00000000000E+00 -0.31520130493E+02  0.31520130493E+02  0.00000000000E+00 0. -1.
         21    1    1    2  503  506  0.27556604043E+02  0.56112213102E+02  0.29246275204E+04  0.29252955543E+04  0.00000000000E+00 0. -1.
         21    1    1    2  504  501 -0.10387317556E+02 -0.11834676024E+03  0.12772140065E+03  0.17443224532E+03  0.00000000000E+00 0. -1.
         21    1    1    2  505  502  0.31943604920E+02  0.25425633462E+02  0.85628302680E+02  0.94863391000E+02  0.00000000000E+00 0. -1.
         21    1    1    2  506  505 -0.49112891406E+02  0.36808913672E+02  0.28987740947E+03  0.29630370357E+03  0.00000000000E+00 0. -1.
<scales pt_clust_3="63.19739" pt_clust_4="14000.00000" pt_clust_5="40.82716" pt_clust_6="60.32872"></scales>
<clustering>
<clus scale="   40.827">  2  5  1 -1</clus>
<clus scale="   60.329">  2  6  1 -1</clus>
<clus scale="   63.197">  1  3  2 -1</clus>
<clus scale="   63.197">  1  3  2 -1</clus>
</clustering>
</event>
<event>
 6    0  0.6687079E+002  0.1248842E+03  0.7546771E-02  0.1235250E+00
         21   -1    0    0  506  501  0.00000000000E+00  0.00000000000E+00  0.22425179383E+04  0.22425179383E+04  0.00000000000E+00 0. -1.
         21   -1    0    0  501  502 -0.00000000000E+00 -0.00000000000E+00 -0.44049778323E+02  0.44049778323E+02  0.00000000000E+00 0. -1.
         21    1    1    2  503  502 -0.34322626848E+02  0.33942141564E+02 -0.86717556245E+01  0.49043970407E+02  0.00000000000E+00 0. -1.
         21    1    1    2  504  505  0.30674150725E+02  0.22855967689E+02  0.15359593962E+03  0.15828774889E+03  0.00000000000E+00 0.  1.
         21    1    1    2  505  503  0.72259467620E+02  0.37490203412E+02  0.13855402437E+03  0.16069898470E+03  0.00000000000E+00 0.  1.
         21    1    1    2  506  504 -0.68610991496E+02 -0.94288312665E+02  0.19149899516E+04  0.19185370126E+04  0.00000000000E+00 0. -1.
<scales pt_clust_3="48.27123" pt_clust_4="31.88805" pt_clust_5="31.88805" pt_clust_6="115.89700"></scales>
<clustering>
<clus scale="   31.888">  4  5 -1 -1</clus>
<clus scale="   48.271">  2  3  1 -1</clus>
<clus scale="  115.897">  1  6  2 -1</clus>
<clus scale="  115.897">  1  3  2 -1</clus>
</clustering>
</event>
<event>
 6    0  0.6687079E+002  0.9553559E+02  0.7546771E-02  0.1289974E+00
         21   -1    0    0  505  501  0.00000000000E+00  0.00000000000E+00  0.81702103413E+02  0.81702103413E+02  0.00000000000E+00 0.  1.
         21   -1    0    0  503  502 -0.00000000000E+00 -0.00000000000E+00 -0.61803401972E+03  0.61803401972E+03  0.00000000000E+00 0.  1.
         21    1    1    2  503  506 -0.17783099584E+02 -0.51338328328E+02 -0.37234712671E+03  0.37629010797E+03  0.00000000000E+00 0.  1.
         21    1    1    2  504  502  0.32012502094E+02 -0.10110987363E+02 -0.64543391475E+02  0.72752194048E+02  0.00000000000E+00 0.  1.
         21    1    1    2  505  504  0.54475443802E+02  0.91135337373E+02  0.21630267859E+02  0.10835632046E+03  0.00000000000E+00 0.  1.
         21    1    1    2  506  501 -0.68704846313E+02 -0.29686021683E+02 -0.12107166598E+03  0.14233750066E+03  0.00000000000E+00 0.  1.
<scales pt_clust_3="58.36652" pt_clust_4="33.57130" pt_clust_5="95.53559" pt_clust_6="14000.00000"></scales>
<clustering>
<clus scale="   33.571">  2  4  1 -1</clus>
<clus scale="   58.367">  2  3  1 -1</clus>
<clus scale="   95.536">  1  5  2 -1</clus>
<clus scale="   95.536">  1  3  2 -1</clus>
</clustering>
</event>
<event>
 6    0  0.6687079E+002  0.1011598E+03  0.7546771E-02  0.1277876E+00
         21   -1    0    0  504  501  0.00000000000E+00  0.00000000000E+00  0.22275101904E+04  0.22275101904E+04  0.00000000000E+00 0. -1.
         21   -1    0    0  505  502 -0.00000000000E+00 -0.00000000000E+00 -0.30755329490E+03  0.30755329490E+03  0.00000000000E+00 0.  1.
         21    1    1    2  503  506 -0.12065795872E+03 -0.55946233712E+02 -0.61650724148E+02  0.14659173189E+03  0.00000000000E+00 0.  1.
         21    1    1    2  504  502  0.89185387530E+01  0.10863070775E+03 -0.79339192096E+02  0.13481423665E+03  0.00000000000E+00 0.  1.
         21    1    1    2  505  503  0.39658043953E+02 -0.39726178266E+02 -0.87502835794E+02  0.10395997288E+03  0.00000000000E+00 0. -1.
         21    1    1    2  506  501  0.72081376018E+02 -0.12958295773E+02  0.21484496475E+04  0.21496975439E+04  0.00000000000E+00 0. -1.
<scales pt_clust_3="14000.00000" pt_clust_4="101.15979" pt_clust_5="56.13314" pt_clust_6="73.37263"></scales>
<clustering>
<clus scale="   56.133">  2  5  1 -1</clus>
<clus scale="   73.373">  1  6  2 -1</clus>
<clus scale="  101.160">  2  4  1 -1</clus>
<clus scale="   73.373">  1  3  2 -1</clus>
</clustering>
</event>
<event>
 6    0  0.6687079E+002  0.9631580E+02  0.7546771E-02  0.1288240E+00
         21   -1    0    0  504  501  0.00000000000E+00  0.00000000000E+00  0.97951924471E+02  0.97951924471E+02  0.00000000000E+00 0.  1.
         21   -1    0    0  503  502 -0.00000000000E+00 -0.00000000000E+00 -0.20796798980E+04  0.20796798980E+04  0.00000000000E+00 0.  1.
         21    1    1    2  503  501 -0.62178548541E+02  0.14656867805E+03 -0.20953905597E+03  0.26316376130E+03  0.00000000000E+00 0.  1.
         21    1    1    2  504  506  0.36946496874E+02 -0.80404024296E+02  0.37025250181E+02  0.95920383159E+02  0.00000000000E+00 0.  1.
         21    1    1    2  505  502 -0.89693391059E+00 -0.33591350454E+02 -0.17168923785E+04  0.17172211921E+04  0.00000000000E+00 0.  1.
         21    1    1    2  506  505  0.26128985578E+02 -0.32573303299E+02 -0.92321789237E+02  0.10132648589E+03  0.00000000000E+00 0.  1.
<scales pt_clust_3="96.31580" pt_clust_4="14000.00000" pt_clust_5="33.60332" pt_clust_6="48.94945"></scales>
<clustering>
<clus scale="   33.603">  2  5  1 -1</clus>
<clus scale="   48.949">  2  6  1 -1</clus>
<clus scale="   96.316">  2  3  1 -1</clus>
<clus scale="   96.316">  1  3  2 -1</clus>
</clustering>
</event>
<event>
 6    0  0.6687079E+002  0.3201315E+03  0.7546771E-02  0.1075589E+00
         21   -1    0    0  502  501  0.00000000000E+00  0.00000000000E+00  0.10293644160E+04  0.10293644160E+04  0.00000000000E+00 0. -1.
         21   -1    0    0  503  502 -0.00000000000E+00 -0.00000000000E+00 -0.28646168348E+03  0.28646168348E+03  0.00000000000E+00 0. -1.
         21    1    1    2  503  504 -0.29781420930E+02  0.19674275547E+02 -0.10215597410E+03  0.10821207509E+03  0.00000000000E+00 0. -1.
         21    1    1    2  504  505  0.25542813064E+03  0.18477061021E+03  0.11786394110E+02  0.31547207072E+03  0.00000000000E+00 0. -1.
         21    1    1    2  505  506 -0.19199757343E+03 -0.12789524958E+03  0.54077101828E+03  0.58792308789E+03  0.00000000000E+00 0. -1.
         21    1    1    2  506  501 -0.33649136280E+02 -0.76549636177E+02  0.29250129422E+03  0.30421886577E+03  0.00000000000E+00 0. -1.
<scales pt_clust_3="35.69328" pt_clust_4="305.98012" pt_clust_5="56.38238" pt_clust_6="56.38238"></scales>
<clustering>
<clus scale="   35.693">  2  3  1 -1</clus>
<clus scale="   56.382">  5  6 -1 -1</clus>
<clus scale="  305.980">  2  4  1 -1</clus>
<clus scale="  320.132">  1  3  2 -1</clus>
</clustering>
</event>
<event>
 6    0  0.6687079E+002  0.9977649E+02  0.7546771E-02  0.1280767E+00
         21   -1    0    0  503  501  0.00000000000E+00  0.00000000000E+00  0.33050117477E+03  0.33050117477E+03  0.00000000000E+00 0. -1.
         21   -1    0    0  504  502 -0.00000000000E+00 -0.00000000000E+00 -0.27307214508E+03  0.27307214508E+03  0.00000000000E+00 0. -1.
         21    1    1    2  503  505  0.22686769782E+02 -0.59895741137E+02  0.10184263345E+03  0.12030840086E+03  0.00000000000E+00 0. -1.
         21    1    1    2  504  501  0.55665966683E+02  0.11251878189E+03  0.12979595584E+03  0.18057177597E+03  0.00000000000E+00 0. -1.
         21    1    1    2  505  506 -0.22529635116E+02 -0.97613538418E+02  0.14127402739E+02  0.10117099806E+03  0.00000000000E+00 0. -1.
         21    1    1    2  506  502 -0.55823101349E+02  0.44990497664E+02 -0.18833696234E+03  0.20152214495E+03  0.00000000000E+00 0. -1.
<scales pt_clust_3="64.04834" pt_clust_4="14000.00000" pt_clust_5="99.77649" pt_clust_6="70.04314"></scales>
<clustering>
<clus scale="   64.048">  1  3  2 -1</clus>
<clus scale="   70.043">  2  6  1 -1</clus>
<clus scale="   99.776">  2  5  1 -1</clus>
<clus scale="   64.048">  1  3  2 -1</clus>
</clustering>
</event>
<event>
 6    0  0.6687079E+002  0.1119807E+03  0.7546771E-02  0.1256945E+00
         21   -1    0    0  506  501  0.00000000000E+00  0.00000000000E+00  0.35577197791E+03  0.35577197791E+03  0.00000000000E+00 0.  1.
         21   -1    0    0  504  502 -0.00000000000E+00 -0.00000000000E+00 -0.11827897314E+03  0.11827897314E+03  0.00000000000E+00 0.  1.
         21    1    1    2  503  502  0.10202083601E+01 -0.35717551636E+02  0.16756094796E+02  0.39465821070E+02  0.00000000000E+00 0.  1.
         21    1    1    2  504  501 -0.59830068991E+02  0.79636191694E+02 -0.92186259008E+01  0.10003271088E+03  0.00000000000E+00 0.  1.
         21    1    1    2  505  503  0.14492485832E+03 -0.57121176519E+02  0.15197345482E+03  0.21762806422E+03  0.00000000000E+00 0.  1.
         21    1    1    2  506  505 -0.86114997689E+02  0.13202536461E+02  0.77982081051E+02  0.11692435487E+03  0.00000000000E+00 0.  1.
<scales pt_clust_3="35.73212" pt_clust_4="85.35875" pt_clust_5="111.98067" pt_clust_6="14000.00000"></scales>
<clustering>
<clus scale="   35.732">  2  3  1 -1</clus>
<clus scale="   85.359">  2  4  1 -1</clus>
<clus scale="  111.981">  2  5  1 -1</clus>
<clus scale="  111.981">  1  3  2 -1</clus>
</clustering>
</event>
<event>
 6    0  0.6687079E+002  0.9059455E+02  0.7546771E-02  0.1301418E+00
         21   -1    0    0  505  501  0.00000000000E+00  0.00000000000E+00  0.42137191588E+02  0.42137191588E+02  0.00000000000E+00 0. -1.
         21   -1    0    0  504  502 -0.00000000000E+00 -0.00000000000E+00 -0.18765461601E+04  0.18765461601E+04  0.00000000000E+00 0. -1.
         21    1    1    2  503  502  0.45731082085E+02  0.17780737001E+02 -0.11874299432E+03  0.12848106933E+03  0.00000000000E+00 0.  1.
         21    1    1    2  504  506 -0.20366714869E+02 -0.33523922982E+02 -0.13961155708E+04  0.13966665112E+04  0.00000000000E+00 0. -1.
         21    1    1    2  505  503 -0.78408203287E+02  0.56191603366E+02 -0.37160780162E+02  0.10337439825E+03  0.00000000000E+00 0. -1.
         21    1    1    2  506  501  0.53043836071E+02 -0.40448417386E+02 -0.28238962316E+03  0.29016137283E+03  0.00000000000E+00 0.  1.
<scales pt_clust_3="41.50894" pt_clust_4="39.22571" pt_clust_5="90.59455" pt_clust_6="14000.00000"></scales>
<clustering>
<clus scale="   39.226">  2  4  1 -1</clus>
<clus scale="   41.509">  2  3  1 -1</clus>
<clus scale="   90.595">  1  5  2 -1</clus>
<clus scale="   90.595">  1  3  2 -1</clus>
</clustering>
</event>
<event>
 6    0  0.6687079E+002  0.9679446E+02  0.7546771E-02  0.1287185E+00
         21   -1    0    0  503  501  0.00000000000E+00  0.00000000000E+00  0.17598908883E+03  0.17598908883E+03  0.00000000000E+00 0.  1.
         21   -1    0    0  504  502 -0.00000000000E+00 -0.00000000000E+00 -0.20001617085E+03  0.20001617085E+03  0.00000000000E+00 0.  1.
         21    1    1    2  503  505  0.32730788348E+02 -0.51738606192E+02  0.55209696633E+02  0.82439665689E+02  0.00000000000E+00 0.  1.
         21    1    1    2  504  501 -0.86182201385E+02  0.12225859223E+03 -0.37180297645E+02  0.15413276661E+03  0.00000000000E+00 0.  1.
         21    1    1    2  505  506  0.71895636495E+02 -0.14983810866E+02 -0.31765911025E+02  0.80016062377E+02  0.00000000000E+00 0.  1.
         21    1    1    2  506  502 -0.18444223458E+02 -0.55536175176E+02 -0.10290569984E+02  0.59416764997E+02  0.00000000000E+00 0.  1.
<scales pt_clust_3="64.38675" pt_clust_4="14000.00000" pt_clust_5="96.79446" pt_clust_6="58.51885"></scales>
<clustering>
<clus scale="   58.519">  2  6  1 -1</clus>
<clus scale="   64.387">  1  3  2 -1</clus>
<clus scale="   96.794">  2  5  1 -1</clus>
<clus scale="   64.387">  1  3  2 -1</clus>
</clustering>
</event>
<event>
 6    0  0.6687079E+002  0.8798425E+02  0.7546771E-02  0.1307808E+00
         21   -1    0    0  504  501  0.00000000000E+00  0.00000000000E+00  0.21204909774E+03  0.21204909774E+03  0.00000000000E+00 0.  1.
         21   -1    0    0  506  502 -0.00000000000E+00 -0.00000000000E+00 -0.10497235634E+04  0.10497235634E+04  0.00000000000E+00 0. -1.
         21    1    1    2  503  501  0.41199759560E+02 -0.77432803047E+02  0.19122876135E+03  0.21038464379E+03  0.00000000000E+00 0.  1.
         21    1    1    2  504  505 -0.43400899140E+02  0.10117363687E+03 -0.75818743708E+03  0.76613832470E+03  0.00000000000E+00 0. -1.
         21    1    1    2  505  502 -0.38859305047E+02 -0.23707792389E+02 -0.18012569933E+03  0.18578851571E+03  0.00000000000E+00 0. -1.
         21    1    1    2  506  503  0.41060444627E+02 -0.33041428282E-01 -0.90590090565E+02  0.99461176915E+02  0.00000000000E+00 0.  1.
<scales pt_clust_3="14000.00000" pt_clust_4="87.98425" pt_clust_5="39.02272" pt_clust_6="41.06046"></scales>
<clustering>
<clus scale="   41.060">  2  6  1 -1</clus>
<clus scale="   39.023">  2  5  1 -1</clus>
<clus scale="   87.984">  2  4  1 -1</clus>
<clus scale="   87.984">  1  3  2 -1</clus>
</clustering>
</event>
<event>
 6    0  0.6687079E+002  0.2418410E+03  0.7546771E-02  0.1118572E+00
         21   -1    0    0  506  501  0.00000000000E+00  0.00000000000E+00  0.53652506775E+03  0.53652506775E+03  0.00000000000E+00 0.  1.
         21   -1    0    0  501  502 -0.00000000000E+00 -0.00000000000E+00 -0.34408080047E+03  0.34408080047E+03  0.00000000000E+00 0.  1.
         21    1    1    2  503  504  0.10077873446E+03  0.44641697384E+02 -0.10920206401E+03  0.15515903212E+03  0.00000000000E+00 0.  1.
         21    1    1    2  504  502  0.75657793671E+02  0.11611795930E+03 -0.14799218343E+03  0.20275396069E+03  0.00000000000E+00 0.  1.
         21    1    1    2  505  503 -0.14962214284E+03 -0.11992680214E+03  0.23874836293E+03  0.30621888299E+03  0.00000000000E+00 0.  1.
         21    1    1    2  506  505 -0.26814385291E+02 -0.40832854547E+02  0.21089015180E+03  0.21647399242E+03  0.00000000000E+00 0.  1.
<scales pt_clust_3="63.04402" pt_clust_4="63.04402" pt_clust_5="231.31738" pt_clust_6="48.85011"></scales>
<clustering>
<clus scale="   48.850">  1  6  2 -1</clus>
<clus scale="   63.044">  3  4 -1 -1</clus>
<clus scale="  231.317">  1  5  2 -1</clus>
<clus scale="   48.850">  1  3  2 -1</clus>
</clustering>
</event>
<event>
 6    0  0.6687079E+002  0.1385412E+03  0.7546771E-02  0.1215306E+00
         21   -1    0    0  505  501  0.00000000000E+00  0.00000000000E+00  0.38988145163E+03  0.38988145163E+03  0.00000000000E+00 0. -1.
         21   -1    0    0  503  502 -0.00000000000E+00 -0.00000000000E+00 -0.11043633319E+03  0.11043633319E+03  0.00000000000E+00 0. -1.
         21    1    1    2  503  501 -0.30712372792E+02  0.15069290854E+03  0.10563857054E+03  0.18657735692E+03  0.00000000000E+00 0. -1.
         21    1    1    2  504  502  0.29826747874E+02 -0.37684835870E+02 -0.50137842980E+00  0.48062803951E+02  0.00000000000E+00 0. -1.
         21    1    1    2  505  506 -0.13666040860E+01 -0.31058209222E+02  0.18078764253E+03  0.18344113949E+03  0.00000000000E+00 0. -1.
         21    1    1    2  506  504  0.22522290034E+01 -0.81949863450E+02 -0.64797162043E+01  0.82236484465E+02  0.00000000000E+00 0. -1.
<scales pt_clust_3="132.68762" pt_clust_4="30.50799" pt_clust_5="31.08826" pt_clust_6="30.50799"></scales>
<clustering>
<clus scale="   30.508">  4  6 -1 -1</clus>
<clus scale="   31.088">  1  5  2 -1</clus>
<clus scale="  132.688">  1  3  2 -1</clus>
<clus scale="   31.088">  1  3  2 -1</clus>
</clustering>
</event>
<event>
 6    0  0.6687079E+002  0.1165597E+03  0.7546771E-02  0.1248883E+00
         21   -1    0    0  503  501  0.00000000000E+00  0.00000000000E+00  0.71211543286E+02  0.71211543286E+02  0.00000000000E+00 0.  1.
         21   -1    0    0  505  502 -0.00000000000E+00 -0.00000000000E+00 -0.20526310933E+04  0.20526310933E+04  0.00000000000E+00 0.  1.
         21    1    1    2  503  504  0.55319069305E+02  0.36822201649E+02 -0.58514479183E+02  0.88543877468E+02  0.00000000000E+00 0.  1.
         21    1    1    2  504  502 -0.15496251879E+03 -0.46019676533E+02 -0.84460965225E+02  0.18238653323E+03  0.00000000000E+00 0.  1.
         21    1    1    2  505  506  0.11183425009E+03 -0.29605204232E+02 -0.17663666431E+04  0.17701509781E+04  0.00000000000E+00 0.  1.
         21    1    1    2  506  501 -0.12190800609E+02  0.38802679115E+02 -0.72077462561E+02  0.82761247787E+02  0.00000000000E+00 0. -1.
<scales pt_clust_3="69.61293" pt_clust_4="14000.00000" pt_clust_5="116.55973" pt_clust_6="40.67264"></scales>
<clustering>
<clus scale="   40.673">  1  6  2 -1</clus>
<clus scale="   69.613">  1  3  2 -1</clus>
<clus scale="  116.560">  2  5  1 -1</clus>
<clus scale="   40.673">  1  3  2 -1</clus>
</clustering>
</event>
<event>
 6    0  0.6687079E+002  0.1502522E+03  0.7546771E-02  0.1200164E+00
         21   -1    0    0  504  501  0.00000000000E+00  0.00000000000E+00  0.16326166762E+04  0.16326166762E+04  0.00000000000E+00 0.  1.
         21   -1    0    0  505  502 -0.00000000000E+00 -0.00000000000E+00 -0.66953992331E+03  0.66953992331E+03  0.00000000000E+00 0. -1.
         21    1    1    2  503  502  0.46882926706E+02 -0.16077400867E+03 -0.10254340954E+03  0.19637067378E+03  0.00000000000E+00 0. -1.
         21    1    1    2  504  503  0.11822216438E+03  0.16850233431E+03  0.94031825165E+03  0.96258398657E+03  0.00000000000E+00 0.  1.
         21    1    1    2  505  506 -0.27949067833E+02  0.13805435171E+02 -0.50086191849E+03  0.50183104908E+03  0.00000000000E+00 0. -1.
         21    1    1    2  506  501 -0.13715602325E+03 -0.21533760809E+02  0.62616382930E+03  0.64137089012E+03  0.00000000000E+00 0.  1.
<scales pt_clust_3="14000.00000" pt_clust_4="150.25215" pt_clust_5="31.17275" pt_clust_6="139.98992"></scales>
<clustering>
<clus scale="   31.173">  2  5  1 -1</clus>
<clus scale="  139.990">  1  6  2 -1</clus>
<clus scale="  150.252">  1  4  2 -1</clus>
<clus scale="  139.990">  1  3  2 -1</clus>
</clustering>
</event>
<event>
 6    0  0.6687079E+002  0.1092489E+03  0.7546771E-02  0.1261967E+00
         21   -1    0    0  505  501  0.00000000000E+00  0.00000000000E+00  0.72457417289E+03  0.72457417289E+03  0.00000000000E+00 0. -1.
         21   -1    0    0  503  502 -0.00000000000E+00 -0.00000000000E+00 -0.32351838828E+03  0.32351838828E+03  0.00000000000E+00 0.  1.
         21    1    1    2  503  506  0.72550651412E+02 -0.70856223580E+02 -0.27876965179E+03  0.29664241133E+03  0.00000000000E+00 0.  1.
         21    1    1    2  504  502 -0.32458580949E+02  0.40019211415E+02  0.49749556284E+02  0.71624821884E+02  0.00000000000E+00 0. -1.
         21    1    1    2  505  504 -0.15469796522E+02  0.76015392309E+02  0.39571564242E+02  0.87083656153E+02  0.00000000000E+00 0. -1.
         21    1    1    2  506  501 -0.24622273940E+02 -0.45178380144E+02  0.59050431589E+03  0.59274167180E+03  0.00000000000E+00 0. -1.
<scales pt_clust_3="102.40291" pt_clust_4="31.02355" pt_clust_5="31.02355" pt_clust_6="51.45233"></scales>
<clustering>
<clus scale="   31.024">  4  5 -1 -1</clus>
<clus scale="   51.452">  1  6  2 -1</clus>
<clus scale="  102.403">  2  3  1 -1</clus>
<clus scale="   51.452">  1  3  2 -1</clus>
</clustering>
</event>
<event>
 6    0  0.6687079E+002  0.1046348E+03  0.7546771E-02  0.1270841E+00
         21   -1    0    0  504  501  0.00000000000E+00  0.00000000000E+00  0.18370577215E+03  0.18370577215E+03  0.00000000000E+00 0.  1.
         21   -1    0    0  503  502 -0.00000000000E+00 -0.00000000000E+00 -0.13972054619E+03  0.13972054619E+03  0.00000000000E+00 0.  1.
         21    1    1    2  503  505 -0.12182636420E+02  0.50335667109E+02 -0.20482961582E+02  0.55692438702E+02  0.00000000000E+00 0.  1.
         21    1    1    2  504  506  0.30152820997E+01 -0.49636978440E+02  0.17285123221E+02  0.52646909117E+02  0.00000000000E+00 0. -1.
         21    1    1    2  505  501  0.94264093396E+02  0.53490518939E+02  0.16454669886E+02  0.10962532135E+03  0.00000000000E+00 0.  1.
         21    1    1    2  506  502 -0.85096739075E+02 -0.54189207608E+02  0.30728394435E+02  0.10546164918E+03  0.00000000000E+00 0.  1.
<scales pt_clust_3="46.00651" pt_clust_4="49.72848" pt_clust_5="104.63482" pt_clust_6="14000.00000"></scales>
<clustering>
<clus scale="   49.728">  1  4  2 -1</clus>
<clus scale="   46.007">  2  3  1 -1</clus>
<clus scale="  104.635">  1  5  2 -1</clus>
<clus scale="   49.728">  1  3  2 -1</clus>
</clustering>
</event>
<event>
 6    0  0.6687079E+002  0.9876682E+02  0.7546771E-02  0.1282911E+00
         21   -1    0    0  502  501  0.00000000000E+00  0.00000000000E+00  0.11394663176E+04  0.11394663176E+04  0.00000000000E+00 0.  1.
         21   -1    0    0  503  502 -0.00000000000E+00 -0.00000000000E+00 -0.73094716324E+02  0.73094716324E+02  0.00000000000E+00 0.  1.
         21    1    1    2  503  506  0.61948789305E+02  0.55985808327E+02 -0.24203666103E+02  0.86936072394E+02  0.00000000000E+00 0.  1.
         21    1    1    2  504  501 -0.32814890081E+02 -0.58673550524E+01  0.20589495609E+03  0.20857606720E+03  0.00000000000E+00 0.  1.
         21    1    1    2  505  504 -0.57891311053E+02  0.33084306158E+02  0.76797767279E+03  0.77086683747E+03  0.00000000000E+00 0.  1.
         21    1    1    2  506  505  0.28757411829E+02 -0.83202759433E+02  0.11670263847E+03  0.14618205683E+03  0.00000000000E+00 0.  1.
<scales pt_clust_3="83.49888" pt_clust_4="30.91855" pt_clust_5="30.91855" pt_clust_6="88.55934"></scales>
<clustering>
<clus scale="   30.919">  4  5 -1 -1</clus>
<clus scale="   83.499">  2  3  1 -1</clus>
<clus scale="   88.559">  2  6  1 -1</clus>
<clus scale="   98.767">  1  3  2 -1</clus>
</clustering>
</event>
<event>
 6    0  0.6687079E+002  0.1492468E+03  0.7546771E-02  0.1201402E+00
         21   -1    0    0  505  501  0.00000000000E+00  0.00000000000E+00  0.19863298009E+03  0.19863298009E+03  0.00000000000E+00 0.  1.
         21   -1    0    0  503  502 -0.00000000000E+00 -0.00000000000E+00 -0.22028201340E+03  0.22028201340E+03  0.00000000000E+00 0.  1.
         21    1    1    2  503  504 -0.10000654775E+03  0.32895583694E+02  0.37713267377E+02  0.11182897458E+03  0.00000000000E+00 0.  1.
         21    1    1    2  504  501 -0.38725586522E+02  0.22851535326E+02  0.74548919887E+02  0.87059779316E+02  0.00000000000E+00 0.  1.
         21    1    1    2  505  506  0.73154791232E+02 -0.74135879039E+02 -0.63090653444E+02  0.12177102526E+03  0.00000000000E+00 0.  1.
         21    1    1    2  506  502  0.65577343044E+02  0.18388760020E+02 -0.70820567131E+02  0.98255214337E+02  0.00000000000E+00 0.  1.
<scales pt_clust_3="44.32299" pt_clust_4="44.32299" pt_clust_5="132.94741" pt_clust_6="68.10679"></scales>
<clustering>
<clus scale="   44.323">  3  4 -1 -1</clus>
<clus scale="   68.107">  2  6  1 -1</clus>
<clus scale="  132.947">  2  5  1 -1</clus>
<clus scale="  149.247">  1  3  2 -1</clus>
</clustering>
</event>
<event>
 6    0  0.6687079E+002  0.1568186E+03  0.7546771E-02  0.1192336E+00
         21   -1    0    0  502  501  0.00000000000E+00  0.00000000000E+00  0.15597726341E+03  0.15597726341E+03  0.00000000000E+00 0. -1.
         21   -1    0    0  504  502 -0.00000000000E+00 -0.00000000000E+00 -0.32138733006E+04  0.32138733006E+04  0.00000000000E+00 0.  1.
         21    1    1    2  503  501 -0.32679299589E+02 -0.30870261675E+02 -0.21226619599E+02  0.49713972453E+02  0.00000000000E+00 0.  1.
         21    1    1    2  504  505 -0.38208496489E+02  0.14913654441E+03 -0.28929282573E+04  0.28970218329E+04  0.00000000000E+00 0.  1.
         21    1    1    2  505  506  0.66176362319E+02 -0.22021184237E+03 -0.20159793736E+03  0.30580107063E+03  0.00000000000E+00 0. -1.
         21    1    1    2  506  503  0.47114337587E+01  0.10194555964E+03  0.57856777133E+02  0.11731368803E+03  0.00000000000E+00 0. -1.
<scales pt_clust_3="44.95453" pt_clust_4="156.81858" pt_clust_5="14000.00000" pt_clust_6="84.30306"></scales>
<clustering>
<clus scale="   44.955">  1  3  2 -1</clus>
<clus scale="   84.303">  1  6  2 -1</clus>
<clus scale="  156.819">  2  4  1 -1</clus>
<clus scale="   44.955">  1  3  2 -1</clus>
</clustering>
</event>
<event>
 6    0  0.6687079E+002  0.1213595E+03  0.7546771E-02  0.1240871E+00
         21   -1    0    0  504  501  0.00000000000E+00  0.00000000000E+00  0.12421877549E+04  0.12421877549E+04  0.00000000000E+00 0. -1.
         21   -1    0    0  503  502 -0.00000000000E+00 -0.00000000000E+00 -0.21213788294E+03  0.21213788294E+03  0.00000000000E+00 0. -1.
         21    1    1    2  503  506  0.34320901782E+01 -0.12194183667E+03 -0.16016158922E+03  0.20132889866E+03  0.00000000000E+00 0. -1.
         21    1    1    2  504  505  0.34184192028E+02  0.14864901201E+02  0.10036082991E+04  0.10043003248E+04  0.00000000000E+00 0. -1.
         21    1    1    2  505  502 -0.68774370754E+02  0.11244001337E+03  0.13905013302E+03  0.19159230196E+03  0.00000000000E+00 0. -1.
         21    1    1    2  506  501  0.31158088547E+02 -0.53630779071E+01  0.47553029038E+02  0.57104112437E+02  0.00000000000E+00 0. -1.
<scales pt_clust_3="14000.00000" pt_clust_4="61.35168" pt_clust_5="121.35947" pt_clust_6="31.61628"></scales>
<clustering>
<clus scale="   31.616">  1  6  2 -1</clus>
<clus scale="   61.352">  1  4  2 -1</clus>
<clus scale="  121.359">  1  5  2 -1</clus>
<clus scale="   31.616">  1  3  2 -1</clus>
</clustering>
</event>
<event>
 6    0  0.6687079E+002  0.1573333E+03  0.7546771E-02  0.1191741E+00
         21   -1    0    0  506  501  0.00000000000E+00  0.00000000000E+00  0.35156059251E+03  0.35156059251E+03  0.00000000000E+00 0. -1.
         21   -1    0    0  505  502 -0.00000000000E+00 -0.00000000000E+00 -0.68642793938E+03  0.68642793938E+03  0.00000000000E+00 0.  1.
         21    1    1    2  503  504  0.24582642254E+02  0.48883755482E+02 -0.32561782139E+02  0.63672580490E+02  0.00000000000E+00 0.  1.
         21    1    1    2  504  502 -0.12278183290E+03  0.90219517894E+02 -0.34070499979E+03  0.37322223512E+03  0.00000000000E+00 0.  1.
         21    1    1    2  505  501  0.66862702751E+02 -0.17189295344E+03 -0.24914981802E+03  0.30998941962E+03  0.00000000000E+00 0. -1.
         21    1    1    2  506  503  0.31336487899E+02  0.32789680064E+02  0.28754925308E+03  0.29110429667E+03  0.00000000000E+00 0. -1.
<scales pt_clust_3="65.64163" pt_clust_4="157.33328" pt_clust_5="14000.00000" pt_clust_6="45.35569"></scales>
<clustering>
<clus scale="   45.356">  1  6  2 -1</clus>
<clus scale="   65.642">  1  3  2 -1</clus>
<clus scale="  157.333">  2  4  1 -1</clus>
<clus scale="   45.356">  1  3  2 -1</clus>
</clustering>
</event>
<event>
 6    0  0.6687079E+002  0.8166305E+02  0.7546771E-02  0.1324397E+00
         21   -1    0    0  503  501  0.00000000000E+00  0.00000000000E+00  0.54040879010E+03  0.54040879010E+03  0.00000000000E+00 0. -1.
         21   -1    0    0  506  502 -0.00000000000E+00 -0.00000000000E+00 -0.33317517827E+03  0.33317517827E+03  0.00000000000E+00 0.  1.
         21    1    1    2  503  504  0.62444669863E+02  0.37201480730E+02  0.45491181675E+03  0.46068215505E+03  0.00000000000E+00 0. -1.
         21    1    1    2  504  502 -0.10842120851E+03 -0.80061320216E+01 -0.74259975598E+02  0.13165789221E+03  0.00000000000E+00 0. -1.
         21    1    1    2  505  501  0.16693442057E+02 -0.42802999687E+02  0.42702800070E+02  0.62723974075E+02  0.00000000000E+00 0. -1.
         21    1    1    2  506  505  0.29283096590E+02  0.13607650978E+02 -0.21612102939E+03  0.21851994705E+03  0.00000000000E+00 0.  1.
<scales pt_clust_3="81.66305" pt_clust_4="14000.00000" pt_clust_5="45.85166" pt_clust_6="32.29037"></scales>
<clustering>
<clus scale="   32.290">  2  6  1 -1</clus>
<clus scale="   45.852">  1  5  2 -1</clus>
<clus scale="   81.663">  1  3  2 -1</clus>
<clus scale="   45.852">  1  3  2 -1</clus>
</clustering>
</event>
<event>
 6    0  0.6687079E+002  0.1408132E+03  0.7546771E-02  0.1212239E+00
         21   -1    0    0  502  501  0.00000000000E+00  0.00000000000E+00  0.14068059786E+03  0.14068059786E+03  0.00000000000E+00 0. -1.
         21   -1    0    0  506  502 -0.00000000000E+00 -0.00000000000E+00 -0.31076787832E+03  0.31076787832E+03  0.00000000000E+00 0. -1.
         21    1    1    2  503  505  0.13160083780E+02  0.29498190276E+02 -0.25976766606E+02  0.41450252568E+02  0.00000000000E+00 0. -1.
         21    1    1    2  504  501 -0.39344454674E+02 -0.21398126484E+02  0.60959287999E+02  0.75643246387E+02  0.00000000000E+00 0. -1.
         21    1    1    2  505  504  0.68739661625E+02 -0.10768609828E+03 -0.34538165481E+02  0.13234168548E+03  0.00000000000E+00 0. -1.
         21    1    1    2  506  503 -0.42555290731E+02  0.99586034482E+02 -0.17053163638E+03  0.20201329174E+03  0.00000000000E+00 0. -1.
<scales pt_clust_3="30.56443" pt_clust_4="44.78689" pt_clust_5="129.21392" pt_clust_6="30.56443"></scales>
<clustering>
<clus scale="   30.564">  3  6 -1 -1</clus>
<clus scale="   44.787">  1  4  2 -1</clus>
<clus scale="  129.214">  1  5  2 -1</clus>
<clus scale="   44.787">  1  3  2 -1</clus>
</clustering>
</event>
<event>
 6    0  0.6687079E+002  0.8841395E+02  0.7546771E-02  0.1306739E+00
         21   -1    0    0  503  501  0.00000000000E+00  0.00000000000E+00  0.30916600068E+03  0.30916600068E+03  0.00000000000E+00 0.  1.
         21   -1    0    0  504  502 -0.00000000000E+00 -0.00000000000E+00 -0.12711062877E+03  0.12711062877E+03  0.00000000000E+00 0.  1.
         21    1    1    2  503  505  0.94625956978E+00 -0.30431321868E+02  0.29536666313E+02  0.42419045424E+02  0.00000000000E+00 0.  1.
         21    1    1    2  504  506 -0.11513300607E+01  0.96658582972E+02  0.18850320349E+03  0.21184349164E+03  0.00000000000E+00 0.  1.
         21    1    1    2  505  502 -0.40933148607E+02 -0.78606279284E+02 -0.80802662413E+02  0.11993139727E+03  0.00000000000E+00 0.  1.
         21    1    1    2  506  501  0.41138219098E+02  0.12379018179E+02  0.44818164521E+02  0.62082695115E+02  0.00000000000E+00 0. -1.
<scales pt_clust_3="30.44603" pt_clust_4="14000.00000" pt_clust_5="88.41395" pt_clust_6="41.81986"></scales>
<clustering>
<clus scale="   30.446">  1  3  2 -1</clus>
<clus scale="   41.820">  1  6  2 -1</clus>
<clus scale="   88.414">  2  5  1 -1</clus>
<clus scale="   30.446">  1  3  2 -1</clus>
</clustering>
</event>
<event>
 6    0  0.6687079E+002  0.1379010E+03  0.7546771E-02  0.1216182E+00
         21   -1    0    0  506  501  0.00000000000E+00  0.00000000000E+00  0.34224702728E+03  0.34224702728E+03  0.00000000000E+00 0. -1.
         21   -1    0    0  504  502 -0.00000000000E+00 -0.00000000000E+00 -0.56334102578E+03  0.56334102578E+03  0.00000000000E+00 0. -1.
         21    1    1    2  503  502 -0.11306472564E+02 -0.10954219172E+03 -0.24331027102E+03  0.26707155609E+03  0.00000000000E+00 0. -1.
         21    1    1    2  504  501 -0.42358939961E+02 -0.40885918556E+02 -0.26284528192E+03  0.26935771821E+03  0.00000000000E+00 0. -1.
         21    1    1    2  505  503  0.55478137435E+02  0.95190390603E+02  0.38858878020E+02  0.11682913420E+03  0.00000000000E+00 0. -1.
         21    1    1    2  506  505 -0.18127249090E+01  0.55237719669E+02  0.24620267643E+03  0.25232964457E+03  0.00000000000E+00 0. -1.
<scales pt_clust_3="137.90097" pt_clust_4="57.59236" pt_clust_5="14000.00000" pt_clust_6="55.26746"></scales>
<clustering>
<clus scale="   55.267">  1  6  2 -1</clus>
<clus scale="   57.592">  2  4  1 -1</clus>
<clus scale="  137.901">  2  3  1 -1</clus>
<clus scale="   55.267">  1  3  2 -1</clus>
</clustering>
</event>
<event>
 6    0  0.6687079E+002  0.1011741E+03  0.7546771E-02  0.1277846E+00
         21   -1    0    0  505  501  0.00000000000E+00  0.00000000000E+00  0.73105546104E+02  0.73105546104E+02  0.00000000000E+00 0.  1.
         21   -1    0    0  503  502 -0.00000000000E+00 -0.00000000000E+00 -0.89138589550E+03  0.89138589550E+03  0.00000000000E+00 0.  1.
         21    1    1    2  503  506  0.33930262422E+02  0.84763097767E+02 -0.58827615466E+03  0.59531914096E+03  0.00000000000E+00 0.  1.
         21    1    1    2  504  502  0.94182925130E+01 -0.49811903604E+02 -0.10664329077E+03  0.11807930149E+03  0.00000000000E+00 0.  1.
         21    1    1    2  505  504 -0.38747070435E+02 -0.78129647720E+02  0.29593492965E+02  0.92094256857E+02  0.00000000000E+00 0.  1.
         21    1    1    2  506  501 -0.46014845004E+01  0.43178453557E+02 -0.15295439694E+03  0.15899874230E+03  0.00000000000E+00 0. -1.
<scales pt_clust_3="33.38520" pt_clust_4="50.69448" pt_clust_5="88.84070" pt_clust_6="33.38520"></scales>
<clustering>
<clus scale="   33.385">  3  6 -1 -1</clus>
<clus scale="   50.694">  2  4  1 -1</clus>
<clus scale="   88.841">  1  5  2 -1</clus>
<clus scale="   88.841">  1  3  2 -1</clus>
</clustering>
</event>
<event>
 6    0  0.6687079E+002  0.4359814E+03  0.7546771E-02  0.1031987E+00
         21   -1    0    0  505  501  0.00000000000E+00  0.00000000000E+00  0.45942603231E+03  0.45942603231E+03  0.00000000000E+00 0. -1.
         21   -1    0    0  504  502 -0.00000000000E+00 -0.00000000000E+00 -0.17960719269E+04  0.17960719269E+04  0.00000000000E+00 0.  1.
         21    1    1    2  503  502  0.11256138463E+02 -0.44349387091E+02 -0.88381974823E+02  0.99523576413E+02  0.00000000000E+00 0. -1.
         21    1    1    2  504  506 -0.24204193915E+03  0.43461993585E+03 -0.14838588738E+04  0.15650290561E+04  0.00000000000E+00 0.  1.
         21    1    1    2  505  503  0.25782256073E+03 -0.16673213414E+03  0.19041670494E+03  0.36129018655E+03  0.00000000000E+00 0. -1.
         21    1    1    2  506  501 -0.27036760047E+02 -0.22353841461E+03  0.45178249140E+02  0.22965514015E+03  0.00000000000E+00 0. -1.
<scales pt_clust_3="45.75553" pt_clust_4="14000.00000" pt_clust_5="435.98141" pt_clust_6="227.48195"></scales>
<clustering>
<clus scale="   45.756">  2  3  1 -1</clus>
<clus scale="  227.482">  1  6  2 -1</clus>
<clus scale="  435.981">  1  5  2 -1</clus>
<clus scale="  227.482">  1  3  2 -1</clus>
</clustering>
</event>
<event>
 6    0  0.6687079E+002  0.1369904E+03  0.7546771E-02  0.1217437E+00
         21   -1    0    0  506  501  0.00000000000E+00  0.00000000000E+00  0.73617604661E+02  0.73617604661E+02  0.00000000000E+00 0. -1.
         21   -1    0    0  505  502 -0.00000000000E+00 -0.00000000000E+00 -0.46898153443E+03  0.46898153443E+03  0.00000000000E+00 0. -1.
         21    1    1    2  503  501 -0.54385945939E+02  0.55382918258E+02 -0.13173704006E+02  0.78731475457E+02  0.00000000000E+00 0. -1.
         21    1    1    2  504  503 -0.53719432340E+02  0.16343623344E+02 -0.54174015836E+02  0.78023813203E+02  0.00000000000E+00 0. -1.
         21    1    1    2  505  504  0.12889857018E+03 -0.64207381085E+00 -0.21674076246E+03  0.25217416950E+03  0.00000000000E+00 0. -1.
         21    1    1    2  506  502 -0.20793191902E+02 -0.71084467791E+02 -0.11127544747E+03  0.13366968093E+03  0.00000000000E+00 0. -1.
<scales pt_clust_3="48.15070" pt_clust_4="48.15070" pt_clust_5="124.74510" pt_clust_6="74.06321"></scales>
<clustering>
<clus scale="   48.151">  3  4 -1 -1</clus>
<clus scale="   74.063">  2  6  1 -1</clus>
<clus scale="  124.745">  2  5  1 -1</clus>
<clus scale="  136.990">  1  3  2 -1</clus>
</clustering>
</event>
<event>
 6    0  0.6687079E+002  0.1689831E+03  0.7546771E-02  0.1178912E+00
         21   -1    0    0  504  501  0.00000000000E+00  0.00000000000E+00  0.91751249170E+03  0.91751249170E+03  0.00000000000E+00 0. -1.
         21   -1    0    0  503  502 -0.00000000000E+00 -0.00000000000E+00 -0.93477324187E+03  0.93477324187E+03  0.00000000000E+00 0.  1.
         21    1    1    2  503  505 -0.53966922779E+02 -0.87277679678E+02 -0.67526667874E+03  0.68301896719E+03  0.00000000000E+00 0.  1.
         21    1    1    2  504  506 -0.23044529154E+02  0.52263606173E+02  0.73575756236E+03  0.73797135813E+03  0.00000000000E+00 0. -1.
         21    1    1    2  505  501 -0.30904373628E+02 -0.52840194567E+02 -0.22234522737E+03  0.23061779334E+03  0.00000000000E+00 0.  1.
         21    1    1    2  506  502  0.10791582556E+03  0.87854268073E+02  0.14459359358E+03  0.20067761492E+03  0.00000000000E+00 0.  1.
<scales pt_clust_3="36.13496" pt_clust_4="57.11860" pt_clust_5="36.13496" pt_clust_6="162.37752"></scales>
<clustering>
<clus scale="   36.135">  3  5 -1 -1</clus>
<clus scale="   57.119">  1  4  2 -1</clus>
<clus scale="  162.378">  1  6  2 -1</clus>
<clus scale="   57.119">  1  3  2 -1</clus>
</clustering>
</event>
<event>
 6    0  0.6687079E+002  0.9995996E+02  0.7546771E-02  0.1280380E+00
         21   -1    0    0  503  501  0.00000000000E+00  0.00000000000E+00  0.13486025761E+03  0.13486025761E+03  0.00000000000E+00 0. -1.
         21   -1    0    0  506  502 -0.00000000000E+00 -0.00000000000E+00 -0.79896340479E+03  0.79896340479E+03  0.00000000000E+00 0.  1.
         21    1    1    2  503  502 -0.22675630326E+02  0.59637763168E+02 -0.15440608711E+03  0.16706910768E+03  0.00000000000E+00 0.  1.
         21    1    1    2  504  501 -0.38545206462E+02 -0.95410565944E+02  0.86724495229E+02  0.13457357507E+03  0.00000000000E+00 0. -1.
         21    1    1    2  505  504  0.55394249458E+02  0.69645020060E+02 -0.97220839866E+02  0.13179849543E+03  0.00000000000E+00 0.  1.
         21    1    1    2  506  505  0.58265873309E+01 -0.33872217284E+02 -0.49920071544E+03  0.50038248422E+03  0.00000000000E+00 0. -1.
<scales pt_clust_3="45.81712" pt_clust_4="14000.00000" pt_clust_5="99.95996" pt_clust_6="34.36970"></scales>
<clustering>
<clus scale="   34.370">  2  6  1 -1</clus>
<clus scale="   45.817">  2  3  1 -1</clus>
<clus scale="   99.960">  2  5  1 -1</clus>
<clus scale="   99.960">  1  3  2 -1</clus>
</clustering>
</event>
<event>
 6    0  0.6687079E+002  0.9909770E+02  0.7546771E-02  0.1282205E+00
         21   -1    0    0  506  501  0.00000000000E+00  0.00000000000E+00  0.57840183920E+03  0.57840183920E+03  0.00000000000E+00 0. -1.
         21   -1    0    0  505  502 -0.00000000000E+00 -0.00000000000E+00 -0.46600907613E+02  0.46600907613E+02  0.00000000000E+00 0. -1.
         21    1    1    2  503  501 -0.46862522701E+02  0.71263851012E+01  0.64051455014E+02  0.79683563474E+02  0.00000000000E+00 0. -1.
         21    1    1    2  504  502  0.16451828006E+02 -0.50698569377E+02  0.23448513759E+02  0.58230922877E+02  0.00000000000E+00 0. -1.
         21    1    1    2  505  503 -0.48136462736E+02  0.64507043958E+02  0.78738261528E+02  0.11259658784E+03  0.00000000000E+00 0. -1.
         21    1    1    2  506  504  0.78547157431E+02 -0.20934859682E+02  0.36556270129E+03  0.37449167262E+03  0.00000000000E+00 0. -1.
<scales pt_clust_3="37.80324" pt_clust_4="53.30110" pt_clust_5="37.80324" pt_clust_6="85.98696"></scales>
<clustering>
<clus scale="   37.803">  3  5 -1 -1</clus>
<clus scale="   53.301">  2  4  1 -1</clus>
<clus scale="   85.987">  1  6  2 -1</clus>
<clus scale="   85.987">  1  3  2 -1</clus>
</clustering>
</event>
<event>
 6    0  0.6687079E+002  0.8698354E+02  0.7546771E-02  0.1310325E+00
         21   -1    0    0  503  501  0.00000000000E+00  0.00000000000E+00  0.26953948142E+03  0.26953948142E+03  0.00000000000E+00 0. -1.
         21   -1    0    0  505  502 -0.00000000000E+00 -0.00000000000E+00 -0.34073555172E+03  0.34073555172E+03  0.00000000000E+00 0. -1.
         21    1    1    2  503  506  0.17893183565E+02 -0.66795923948E+02  0.10216815784E+03  0.12337015016E+03  0.00000000000E+00 0. -1.
         21    1    1    2  504  501 -0.43074443575E+02  0.26856577987E+02  0.52432029176E+02  0.72978086807E+02  0.00000000000E+00 0.  1.
         21    1    1    2  505  504 -0.46890646529E+02  0.74871871139E+02 -0.29508359749E+03  0.30802412134E+03  0.00000000000E+00 0. -1.
         21    1    1    2  506  502  0.72071906539E+02 -0.34932525179E+02  0.69287340172E+02  0.10590267483E+03  0.00000000000E+00 0. -1.
<scales pt_clust_3="52.45222" pt_clust_4="50.76104" pt_clust_5="86.98354" pt_clust_6="14000.00000"></scales>
<clustering>
<clus scale="   50.761">  1  4  2 -1</clus>
<clus scale="   52.452">  1  3  2 -1</clus>
<clus scale="   86.984">  2  5  1 -1</clus>
<clus scale="   50.761">  1  3  2 -1</clus>
</clustering>
</event>
<event>
 6    0  0.6687079E+002  0.8570886E+02  0.7546771E-02  0.1313589E+00
         21   -1    0    0  502  501  0.00000000000E+00  0.00000000000E+00  0.10943260778E+04  0.10943260778E+04  0.00000000000E+00 0. -1.
         21   -1    0    0  504  502 -0.00000000000E+00 -0.00000000000E+00 -0.80908907417E+03  0.80908907417E+03  0.00000000000E+00 0. -1.
         21    1    1    2  503  501 -0.75465680344E+02 -0.40524526955E+02  0.10709148743E+04  0.10743351312E+04  0.00000000000E+00 0. -1.
         21    1    1    2  504  505 -0.37709500255E+02  0.29080182451E+02 -0.14891437138E+03  0.15634306325E+03  0.00000000000E+00 0. -1.
         21    1    1    2  505  506  0.99948977160E+01  0.70013483203E+02 -0.41735085763E+03  0.42330074909E+03  0.00000000000E+00 0. -1.
         21    1    1    2  506  503  0.10318028288E+03 -0.58569138699E+02 -0.21941264162E+03  0.24943620845E+03  0.00000000000E+00 0. -1.
<scales pt_clust_3="85.70886" pt_clust_4="47.61999" pt_clust_5="84.88325" pt_clust_6="14000.00000"></scales>
<clustering>
<clus scale="   47.620">  2  4  1 -1</clus>
<clus scale="   85.709">  1  3  2 -1</clus>
<clus scale="   84.883">  2  5  1 -1</clus>
<clus scale="   85.709">  1  3  2 -1</clus>
</clustering>
</event>
<event>
 6    0  0.6687079E+002  0.7794855E+02  0.7546771E-02  0.1334976E+00
         21   -1    0    0  504  501  0.00000000000E+00  0.00000000000E+00  0.14235753848E+04  0.14235753848E+04  0.00000000000E+00 0.  1.
         21   -1    0    0  505  502 -0.00000000000E+00 -0.00000000000E+00 -0.43816526433E+02  0.43816526433E+02  0.00000000000E+00 0.  1.
         21    1    1    2  503  501  0.35472015300E+02 -0.36498774865E+02  0.35601150548E+03  0.35963122288E+03  0.00000000000E+00 0.  1.
         21    1    1    2  504  502  0.28127993125E+02  0.10213894324E+03  0.35763403328E+03  0.37299550867E+03  0.00000000000E+00 0.  1.
         21    1    1    2  505  506 -0.81238666484E+01 -0.29442353819E+02 -0.25621369799E+02  0.39866075780E+02  0.00000000000E+00 0.  1.
         21    1    1    2  506  503 -0.55476141777E+02 -0.36197814558E+02  0.69173468943E+03  0.69489910393E+03  0.00000000000E+00 0.  1.
<scales pt_clust_3="53.59510" pt_clust_4="77.94855" pt_clust_5="30.54258" pt_clust_6="14000.00000"></scales>
<clustering>
<clus scale="   30.543">  2  5  1 -1</clus>
<clus scale="   53.595">  1  3  2 -1</clus>
<clus scale="   77.949">  2  4  1 -1</clus>
<clus scale="   53.595">  1  3  2 -1</clus>
</clustering>
</event>
<event>
 6    0  0.6687079E+002  0.9166014E+02  0.7546771E-02  0.1298881E+00
         21   -1    0    0  503  501  0.00000000000E+00  0.00000000000E+00  0.34156994302E+03  0.34156994302E+03  0.00000000000E+00 0. -1.
         21   -1    0    0  505  502 -0.00000000000E+00 -0.00000000000E+00 -0.13585071095E+04  0.13585071095E+04  0.00000000000E+00 0. -1.
         21    1    1    2  503  504  0.27576878508E+02 -0.11921216694E+02 -0.16218887987E+02  0.34141645585E+02  0.00000000000E+00 0.  1.
         21    1    1    2  504  502  0.68617351584E+02 -0.63084208476E+02 -0.11784909437E+04  0.11821712493E+04  0.00000000000E+00 0. -1.
         21    1    1    2  505  506 -0.87156668200E+02  0.22173695399E+02 -0.13731819087E+03  0.16414701680E+03  0.00000000000E+00 0. -1.
         21    1    1    2  506  501 -0.90375618914E+01  0.52831729772E+02  0.31509085602E+03  0.31961714088E+03  0.00000000000E+00 0. -1.
<scales pt_clust_3="30.04330" pt_clust_4="91.66014" pt_clust_5="14000.00000" pt_clust_6="44.91230"></scales>
<clustering>
<clus scale="   30.043">  1  3  2 -1</clus>
<clus scale="   44.912">  1  6  2 -1</clus>
<clus scale="   91.660">  2  4  1 -1</clus>
<clus scale="   30.043">  1  3  2 -1</clus>
</clustering>
</event>
<event>
 6    0  0.6687079E+002  0.1776812E+03  0.7546771E-02  0.1170066E+00
         21   -1    0    0  506  501  0.00000000000E+00  0.00000000000E+00  0.48548461156E+03  0.48548461156E+03  0.00000000000E+00 0.  1.
         21   -1    0    0  503  502 -0.00000000000E+00 -0.00000000000E+00 -0.29096265464E+03  0.29096265464E+03  0.00000000000E+00 0.  1.
         21    1    1    2  503  504 -0.65781528405E+02 -0.83356280501E+02 -0.18498187788E+03  0.21329269589E+03  0.00000000000E+00 0.  1.
         21    1    1    2  504  505 -0.26000722126E+02 -0.57068954776E+02 -0.46828852107E+02  0.78267774594E+02  0.00000000000E+00 0.  1.
         21    1    1    2  505  501 -0.34852610451E+02  0.69848889264E+01  0.25171024562E+02  0.43555408459E+02  0.00000000000E+00 0. -1.
         21    1    1    2  506  502  0.12663486098E+03  0.13344034635E+03  0.40116166234E+03  0.44133138726E+03  0.00000000000E+00 0.  1.
<scales pt_clust_3="42.97897" pt_clust_4="42.97897" pt_clust_5="35.54565" pt_clust_6="168.64915"></scales>
<clustering>
<clus scale="   35.546">  1  5  2 -1</clus>
<clus scale="   42.979">  3  4 -1 -1</clus>
<clus scale="  168.649">  1  6  2 -1</clus>
<clus scale="   35.546">  1  3  2 -1</clus>
</clustering>
</event>
<event>
 6    0  0.6687079E+002  0.1120760E+03  0.7546771E-02  0.1256773E+00
         21   -1    0    0  503  501  0.00000000000E+00  0.00000000000E+00  0.18621084497E+03  0.18621084497E+03  0.00000000000E+00 0.  1.
         21   -1    0    0  506  502 -0.00000000000E+00 -0.00000000000E+00 -0.87430647418E+03  0.87430647418E+03  0.00000000000E+00 0.  1.
         21    1    1    2  503  505  0.25355498177E+02  0.23351750812E+02  0.13141113160E+03  0.13585687713E+03  0.00000000000E+00 0.  1.
         21    1    1    2  504  502 -0.11000720292E+03 -0.75885050011E+02 -0.74205839316E+02  0.15286148010E+03  0.00000000000E+00 0.  1.
         21    1    1    2  505  504  0.14705223107E+02 -0.32704669497E+02 -0.26494750913E+02  0.44584872092E+02  0.00000000000E+00 0.  1.
         21    1    1    2  506  501  0.69946481635E+02  0.85237968696E+02 -0.71880617058E+03  0.72721408984E+03  0.00000000000E+00 0.  1.
<scales pt_clust_3="34.47036" pt_clust_4="112.07603" pt_clust_5="34.44596" pt_clust_6="14000.00000"></scales>
<clustering>
<clus scale="   34.470">  1  3  2 -1</clus>
<clus scale="   34.446">  1  5  2 -1</clus>
<clus scale="  112.076">  1  4  2 -1</clus>
<clus scale="   34.470">  1  3  2 -1</clus>
</clustering>
</event>
<event>
 6    0  0.6687079E+002  0.1049449E+03  0.7546771E-02  0.1270228E+00
         21   -1    0    0  502  501  0.00000000000E+00  0.00000000000E+00  0.75486987854E+03  0.75486987854E+03  0.00000000000E+00 0. -1.
         21   -1    0    0  505  502 -0.00000000000E+00 -0.00000000000E+00 -0.43211865671E+02  0.43211865671E+02  0.00000000000E+00 0. -1.
         21    1    1    2  503  504 -0.90530458894E+00  0.54639930188E+02  0.34005875644E+02  0.64364129184E+02  0.00000000000E+00 0. -1.
         21    1    1    2  504  506 -0.37722980304E+02 -0.55449655037E+02  0.17205971504E+03  0.18466789929E+03  0.00000000000E+00 0. -1.
         21    1    1    2  505  503  0.36841920209E+02  0.60519909063E+02  0.43559380186E+02  0.83170944926E+02  0.00000000000E+00 0. -1.
         21    1    1    2  506  501  0.17863646839E+01 -0.59710184214E+02  0.46203304199E+03  0.46587877081E+03  0.00000000000E+00 0. -1.
<scales pt_clust_3="30.38480" pt_clust_4="99.07789" pt_clust_5="30.38480" pt_clust_6="59.73690"></scales>
<clustering>
<clus scale="   30.385">  3  5 -1 -1</clus>
<clus scale="   59.737">  1  6  2 -1</clus>
<clus scale="   99.078">  1  4  2 -1</clus>
<clus scale="   59.737">  1  3  2 -1</clus>
</clustering>
</event>
<event>
 6    0  0.6687079E+002  0.1733917E+03  0.7546771E-02  0.1174356E+00
         21   -1    0    0  503  501  0.00000000000E+00  0.00000000000E+00  0.12133366333E+04  0.12133366333E+04  0.00000000000E+00 0. -1.
         21   -1    0    0  505  502 -0.00000000000E+00 -0.00000000000E+00 -0.35050079573E+02  0.35050079573E+02  0.00000000000E+00 0. -1.
         21    1    1    2  503  502  0.18342767404E+03 -0.16050972630E+01  0.44907944625E+03  0.48509858481E+03  0.00000000000E+00 0. -1.
         21    1    1    2  504  501 -0.43974572029E+02  0.17678863464E+02  0.35224924107E+03  0.35542345594E+03  0.00000000000E+00 0. -1.
         21    1    1    2  505  506 -0.32259426471E+02 -0.32235498780E+02  0.14109978640E+03  0.14828670777E+03  0.00000000000E+00 0. -1.
         21    1    1    2  506  504 -0.10719367554E+03  0.16161732579E+02  0.23585807999E+03  0.25957796434E+03  0.00000000000E+00 0. -1.
<scales pt_clust_3="159.73060" pt_clust_4="47.39520" pt_clust_5="43.75476" pt_clust_6="43.75476"></scales>
<clustering>
<clus scale="   43.755">  5  6 -1 -1</clus>
<clus scale="   47.395">  1  4  2 -1</clus>
<clus scale="  159.731">  1  3  2 -1</clus>
<clus scale="   47.395">  1  3  2 -1</clus>
</clustering>
</event>
<event>
 6    0  0.6687079E+002  0.1023728E+03  0.7546771E-02  0.1275384E+00
         21   -1    0    0  504  501  0.00000000000E+00  0.00000000000E+00  0.43181262721E+03  0.43181262721E+03  0.00000000000E+00 0.  1.
         21   -1    0    0  505  502 -0.00000000000E+00 -0.00000000000E+00 -0.91519905462E+03  0.91519905462E+03  0.00000000000E+00 0. -1.
         21    1    1    2  503  501 -0.33211474414E+02  0.20621079408E+02  0.38593080236E+03  0.38790567818E+03  0.00000000000E+00 0.  1.
         21    1    1    2  504  502 -0.10325145198E+02 -0.29255981593E+02 -0.94901993848E+02  0.99844426578E+02  0.00000000000E+00 0.  1.
         21    1    1    2  505  506  0.11593576423E+03  0.11787501634E+02 -0.77802512187E+03  0.78670397030E+03  0.00000000000E+00 0. -1.
         21    1    1    2  506  503 -0.72399144620E+02 -0.31525994490E+01  0.36098859470E+01  0.72557606779E+02  0.00000000000E+00 0.  1.
<scales pt_clust_3="39.08457" pt_clust_4="31.02452" pt_clust_5="102.37282" pt_clust_6="14000.00000"></scales>
<clustering>
<clus scale="   31.025">  2  4  1 -1</clus>
<clus scale="   39.085">  1  3  2 -1</clus>
<clus scale="  102.373">  2  5  1 -1</clus>
<clus scale="   39.085">  1  3  2 -1</clus>
</clustering>
</event>
<event>
 6    0  0.6687079E+002  0.1150674E+03  0.7546771E-02  0.1251464E+00
         21   -1    0    0  503  501  0.00000000000E+00  0.00000000000E+00  0.54342118359E+03  0.54342118359E+03  0.00000000000E+00 0. -1.
         21   -1    0    0  506  502 -0.00000000000E+00 -0.00000000000E+00 -0.31819909239E+03  0.31819909239E+03  0.00000000000E+00 0. -1.
         21    1    1    2  503  502  0.40281565246E+02  0.49061692333E+02  0.35651620386E+02  0.72805852714E+02  0.00000000000E+00 0. -1.
         21    1    1    2  504  505 -0.86504615949E+02 -0.74927299683E+02 -0.12785830531E+02  0.11515479270E+03  0.00000000000E+00 0. -1.
         21    1    1    2  505  501  0.10273307534E+03  0.52769122802E+02  0.42602345013E+03  0.44140077611E+03  0.00000000000E+00 0. -1.
         21    1    1    2  506  504 -0.56510024635E+02 -0.26903515451E+02 -0.22366714878E+03  0.23225885446E+03  0.00000000000E+00 0. -1.
<scales pt_clust_3="52.10512" pt_clust_4="14000.00000" pt_clust_5="115.06736" pt_clust_6="62.58740"></scales>
<clustering>
<clus scale="   62.587">  2  6  1 -1</clus>
<clus scale="   52.105">  2  3  1 -1</clus>
<clus scale="  115.067">  1  5  2 -1</clus>
<clus scale="  115.067">  1  3  2 -1</clus>
</clustering>
</event>
<event>
 6    0  0.6687079E+002  0.1083963E+03  0.7546771E-02  0.1263569E+00
         21   -1    0    0  503  501  0.00000000000E+00  0.00000000000E+00  0.86007074996E+03  0.86007074996E+03  0.00000000000E+00 0. -1.
         21   -1    0    0  506  502 -0.00000000000E+00 -0.00000000000E+00 -0.15213073881E+03  0.15213073881E+03  0.00000000000E+00 0. -1.
         21    1    1    2  503  505 -0.10494763348E+03  0.44580397947E+02  0.63182039459E+02  0.13035868887E+03  0.00000000000E+00 0. -1.
         21    1    1    2  504  501  0.80258376620E+02 -0.28176600298E+02  0.68354608594E+03  0.68881824847E+03  0.00000000000E+00 0. -1.
         21    1    1    2  505  502 -0.20534178567E+02  0.40339172698E+02  0.57044370552E+02  0.72821436095E+02  0.00000000000E+00 0. -1.
         21    1    1    2  506  504  0.45223435428E+02 -0.56742970346E+02 -0.95832484797E+02  0.12020311534E+03  0.00000000000E+00 0. -1.
<scales pt_clust_3="39.19949" pt_clust_4="88.76373" pt_clust_5="39.19949" pt_clust_6="72.55979"></scales>
<clustering>
<clus scale="   39.199">  3  5 -1 -1</clus>
<clus scale="   72.560">  2  6  1 -1</clus>
<clus scale="   88.764">  1  4  2 -1</clus>
<clus scale="   88.764">  1  3  2 -1</clus>
</clustering>
</event>
<event>
 6    0  0.6687079E+002  0.1630234E+03  0.7546771E-02  0.1185325E+00
         21   -1    0    0  504  501  0.00000000000E+00  0.00000000000E+00  0.28699736536E+03  0.28699736536E+03  0.00000000000E+00 0.  1.
         21   -1    0    0  503  502 -0.00000000000E+00 -0.00000000000E+00 -0.11170046762E+04  0.11170046762E+04  0.00000000000E+00 0.  1.
         21    1    1    2  503  506  0.60756166931E+02  0.47650074798E+02 -0.36543741681E+03  0.37350548464E+03  0.00000000000E+00 0.  1.
         21    1    1    2  504  502 -0.11059727018E+03 -0.41198657248E+02 -0.12603081189E+03  0.17266398315E+03  0.00000000000E+00 0. -1.
         21    1    1    2  505  501  0.11940826492E+01 -0.99416147063E+02  0.24527767152E+03  0.26466229856E+03  0.00000000000E+00 0.  1.
         21    1    1    2  506  505  0.48647020597E+02  0.92964729514E+02 -0.58381675371E+03  0.59317027526E+03  0.00000000000E+00 0.  1.
<scales pt_clust_3="34.70787" pt_clust_4="157.92292" pt_clust_5="99.42332" pt_clust_6="34.70787"></scales>
<clustering>
<clus scale="   34.708">  3  6 -1 -1</clus>
<clus scale="   99.423">  1  5  2 -1</clus>
<clus scale="  157.923">  1  4  2 -1</clus>
<clus scale="   99.423">  1  3  2 -1</clus>
</clustering>
</event>
<event>
 6    0  0.6687079E+002  0.9237927E+02  0.7546771E-02  0.1297190E+00
         21   -1    0    0  505  501  0.00000000000E+00  0.00000000000E+00  0.13370921754E+04  0.13370921754E+04  0.00000000000E+00 0.  1.
         21   -1    0    0  504  502 -0.00000000000E+00 -0.00000000000E+00 -0.35170876063E+02  0.35170876063E+02  0.00000000000E+00 0.  1.
         21    1    1    2  503  501  0.76362965018E+02 -0.50585038316E+02  0.33084088092E+03  0.34328681451E+03  0.00000000000E+00 0.  1.
         21    1    1    2  504  506  0.15211901671E+02 -0.26052846512E+02 -0.14297293880E+02  0.33385107101E+02  0.00000000000E+00 0.  1.
         21    1    1    2  505  502 -0.34981535822E+02  0.18855547739E+01  0.50095580888E+03  0.50217923654E+03  0.00000000000E+00 0.  1.
         21    1    1    2  506  503 -0.56593330868E+02  0.74752330055E+02  0.48442190343E+03  0.49341189332E+03  0.00000000000E+00 0.  1.
<scales pt_clust_3="92.37927" pt_clust_4="30.16874" pt_clust_5="34.16357" pt_clust_6="14000.00000"></scales>
<clustering>
<clus scale="   30.169">  2  4  1 -1</clus>
<clus scale="   34.164">  1  5  2 -1</clus>
<clus scale="   92.379">  1  3  2 -1</clus>
<clus scale="   34.164">  1  3  2 -1</clus>
</clustering>
</event>
<event>
 6    0  0.6687079E+002  0.1451738E+03  0.7546771E-02  0.1206532E+00
         21   -1    0    0  505  501  0.00000000000E+00  0.00000000000E+00  0.21555582562E+04  0.21555582562E+04  0.00000000000E+00 0. -1.
         21   -1    0    0  504  502 -0.00000000000E+00 -0.00000000000E+00 -0.80135206915E+03  0.80135206915E+03  0.00000000000E+00 0.  1.
         21    1    1    2  503  506 -0.47262900674E+02  0.73576759760E+01  0.60890739637E+03  0.61078321402E+03  0.00000000000E+00 0. -1.
         21    1    1    2  504  501 -0.10888297655E+02  0.55541958695E+02  0.24638032073E+02  0.61729221815E+02  0.00000000000E+00 0.  1.
         21    1    1    2  505  503 -0.81277003501E+02 -0.52521010043E+02  0.14947017702E+04  0.14978310284E+04  0.00000000000E+00 0. -1.
         21    1    1    2  506  502  0.13942820183E+03 -0.10378624627E+02 -0.77404101161E+03  0.78656686110E+03  0.00000000000E+00 0.  1.
<scales pt_clust_3="35.29499" pt_clust_4="56.59915" pt_clust_5="35.29499" pt_clust_6="136.21739"></scales>
<clustering>
<clus scale="   35.295">  3  5 -1 -1</clus>
<clus scale="   56.599">  2  4  1 -1</clus>
<clus scale="  136.217">  2  6  1 -1</clus>
<clus scale="  145.174">  1  3  2 -1</clus>
</clustering>
</event>
<event>
 6    0  0.6687079E+002  0.1010022E+03  0.7546771E-02  0.1278203E+00
         21   -1    0    0  505  501  0.00000000000E+00  0.00000000000E+00  0.98099977075E+02  0.98099977075E+02  0.00000000000E+00 0. -1.
         21   -1    0    0  506  502 -0.00000000000E+00 -0.00000000000E+00 -0.18707861913E+03  0.18707861913E+03  0.00000000000E+00 0. -1.
         21    1    1    2  503  501 -0.38939065060E+02  0.36591797998E+02  0.15868910046E+02  0.55740764029E+02  0.00000000000E+00 0. -1.
         21    1    1    2  504  503  0.19451602595E+02  0.42129947097E+02 -0.43676891668E+01  0.46608733029E+02  0.00000000000E+00 0. -1.
         21    1    1    2  505  502  0.55400281399E+01 -0.11316548003E+03 -0.61265588086E+02  0.12880446447E+03  0.00000000000E+00 0. -1.
         21    1    1    2  506  504  0.13947434325E+02  0.34443734937E+02 -0.39214274846E+02  0.54024634680E+02  0.00000000000E+00 0. -1.
<scales pt_clust_3="53.43417" pt_clust_4="31.62185" pt_clust_5="94.61909" pt_clust_6="31.62185"></scales>
<clustering>
<clus scale="   31.622">  4  6 -1 -1</clus>
<clus scale="   53.434">  1  3  2 -1</clus>
<clus scale="   94.619">  1  5  2 -1</clus>
<clus scale="   53.434">  1  3  2 -1</clus>
</clustering>
</event>
<event>
 6    0  0.6687079E+002  0.7342842E+02  0.7546771E-02  0.1348808E+00
         21   -1    0    0  505  501  0.00000000000E+00  0.00000000000E+00  0.18580819185E+04  0.18580819185E+04  0.00000000000E+00 0.  1.
         21   -1    0    0  503  502 -0.00000000000E+00 -0.00000000000E+00 -0.20215885999E+03  0.20215885999E+03  0.00000000000E+00 0. -1.
         21    1    1    2  503  501  0.22967214683E+01 -0.47574768952E+02  0.74823448121E+02  0.88697136138E+02  0.00000000000E+00 0.  1.
         21    1    1    2  504  502 -0.54478487668E+02  0.27143647105E+02 -0.18531882076E+03  0.19505832083E+03  0.00000000000E+00 0. -1.
         21    1    1    2  505  506  0.25863349500E+02  0.93968183656E+02  0.12929287295E+04  0.12965969428E+04  0.00000000000E+00 0.  1.
         21    1    1    2  506  504  0.26318416699E+02 -0.73537061810E+02  0.47348970159E+03  0.47988837872E+03  0.00000000000E+00 0.  1.
<scales pt_clust_3="47.63017" pt_clust_4="60.80242" pt_clust_5="73.42842" pt_clust_6="14000.00000"></scales>
<clustering>
<clus scale="   47.630">  1  3  2 -1</clus>
<clus scale="   60.802">  2  4  1 -1</clus>
<clus scale="   73.428">  1  5  2 -1</clus>
<clus scale="   47.630">  1  3  2 -1</clus>
</clustering>
</event>
<event>
 6    0  0.6687079E+002  0.1992841E+03  0.7546771E-02  0.1150344E+00
         21   -1    0    0  503  501  0.00000000000E+00  0.00000000000E+00  0.18931852466E+03  0.18931852466E+03  0.00000000000E+00 0. -1.
         21   -1    0    0  505  502 -0.00000000000E+00 -0.00000000000E+00 -0.32267396124E+03  0.32267396124E+03  0.00000000000E+00 0.  1.
         21    1    1    2  503  504  0.11982422567E+03 -0.16430367748E+02 -0.88002378319E+02  0.14957346232E+03  0.00000000000E+00 0.  1.
         21    1    1    2  504  502  0.62318061034E+02  0.11743532918E+02 -0.13717624608E+03  0.15112502700E+03  0.00000000000E+00 0.  1.
         21    1    1    2  505  506 -0.45589532403E+02 -0.19179978413E+02  0.10447982151E+02  0.50551333985E+02  0.00000000000E+00 0.  1.
         21    1    1    2  506  501 -0.13655275430E+03  0.23866813244E+02  0.81375205671E+02  0.16074266260E+03  0.00000000000E+00 0. -1.
<scales pt_clust_3="58.45268" pt_clust_4="58.45268" pt_clust_5="32.80317" pt_clust_6="190.29886"></scales>
<clustering>
<clus scale="   32.803">  5  6 -1 -1</clus>
<clus scale="   58.453">  3  4 -1 -1</clus>
<clus scale="  190.299">  1  5  2 -1</clus>
<clus scale="  190.299">  1  3  2 -1</clus>
</clustering>
</event>
<event>
 6    0  0.6687079E+002  0.1688509E+03  0.7546771E-02  0.1179051E+00
         21   -1    0    0  503  501  0.00000000000E+00  0.00000000000E+00  0.60478979552E+03  0.60478979552E+03  0.00000000000E+00 0. -1.
         21   -1    0    0  506  502 -0.00000000000E+00 -0.00000000000E+00 -0.84589356516E+02  0.84589356516E+02  0.00000000000E+00 0. -1.
         21    1    1    2  503  505 -0.24974649993E+02  0.10224760794E+03  0.27209644876E+02  0.10871371231E+03  0.00000000000E+00 0. -1.
         21    1    1    2  504  501 -0.40178288423E+01 -0.34987618352E+02  0.21475574751E+03  0.21762423458E+03  0.00000000000E+00 0.  1.
         21    1    1    2  505  502  0.19978474970E+02  0.70966627888E+02  0.31690067966E+02  0.80247505529E+02  0.00000000000E+00 0. -1.
         21    1    1    2  506  504  0.90140038657E+01 -0.13822661747E+03  0.24654497865E+03  0.28279369961E+03  0.00000000000E+00 0. -1.
<scales pt_clust_3="39.06081" pt_clust_4="35.21756" pt_clust_5="39.06081" pt_clust_6="162.17768"></scales>
<clustering>
<clus scale="   35.218">  1  4  2 -1</clus>
<clus scale="   39.061">  3  5 -1 -1</clus>
<clus scale="  162.178">  1  6  2 -1</clus>
<clus scale="   35.218">  1  3  2 -1</clus>
</clustering>
</event>
<event>
 6    0  0.6687079E+002  0.1298513E+03  0.7546771E-02  0.1227677E+00
         21   -1    0    0  506  501  0.00000000000E+00  0.00000000000E+00  0.56458102939E+03  0.56458102939E+03  0.00000000000E+00 0. -1.
         21   -1    0    0  503  502 -0.00000000000E+00 -0.00000000000E+00 -0.45303932428E+02  0.45303932428E+02  0.00000000000E+00 0. -1.
         21    1    1    2  503  504  0.64505898261E+01  0.47762608371E+02  0.74456391085E+02  0.88694030470E+02  0.00000000000E+00 0. -1.
         21    1    1    2  504  501 -0.39616285438E+02  0.80334344896E+02  0.21472666021E+03  0.23265982817E+03  0.00000000000E+00 0. -1.
         21    1    1    2  505  502  0.54105784120E+02 -0.14377304535E+02  0.53420853089E+02  0.77381718162E+02  0.00000000000E+00 0. -1.
         21    1    1    2  506  505 -0.20940088509E+02 -0.11371964873E+03  0.17667319258E+03  0.21114938501E+03  0.00000000000E+00 0. -1.
<scales pt_clust_3="33.87534" pt_clust_4="33.87534" pt_clust_5="55.98342" pt_clust_6="121.36182"></scales>
<clustering>
<clus scale="   33.875">  3  4 -1 -1</clus>
<clus scale="   55.983">  2  5  1 -1</clus>
<clus scale="  121.362">  2  6  1 -1</clus>
<clus scale="  129.851">  1  3  2 -1</clus>
</clustering>
</event>
<event>
 6    0  0.6687079E+002  0.7723008E+02  0.7546771E-02  0.1337101E+00
         21   -1    0    0  504  501  0.00000000000E+00  0.00000000000E+00  0.11213408427E+04  0.11213408427E+04  0.00000000000E+00 0.  1.
         21   -1    0    0  503  502 -0.00000000000E+00 -0.00000000000E+00 -0.11790576414E+03  0.11790576414E+03  0.00000000000E+00 0.  1.
         21    1    1    2  503  506 -0.22083624277E+02 -0.55418207272E+02  0.49647340558E+02  0.77612644478E+02  0.00000000000E+00 0. -1.
         21    1    1    2  504  505 -0.63017710836E+02 -0.48529364859E+02 -0.57236439769E+02  0.97991536217E+02  0.00000000000E+00 0.  1.
         21    1    1    2  505  502  0.55687584836E+02  0.32366344988E+02  0.17007674825E+02  0.66617928486E+02  0.00000000000E+00 0. -1.
         21    1    1    2  506  501  0.29413750277E+02  0.71581227143E+02  0.99401650295E+03  0.99702449766E+03  0.00000000000E+00 0.  1.
<scales pt_clust_3="59.65622" pt_clust_4="77.23008" pt_clust_5="53.92694" pt_clust_6="14000.00000"></scales>
<clustering>
<clus scale="   59.656">  2  3  1 -1</clus>
<clus scale="   53.927">  2  5  1 -1</clus>
<clus scale="   77.230">  2  4  1 -1</clus>
<clus scale="   77.230">  1  3  2 -1</clus>
</clustering>
</event>
<event>
 6    0  0.6687079E+002  0.8885882E+02  0.7546771E-02  0.1305639E+00
         21   -1    0    0  503  501  0.00000000000E+00  0.00000000000E+00  0.47040214121E+02  0.47040214121E+02  0.00000000000E+00 0. -1.
         21   -1    0    0  506  502 -0.00000000000E+00 -0.00000000000E+00 -0.10992775876E+04  0.10992775876E+04  0.00000000000E+00 0. -1.
         21    1    1    2  503  504 -0.70562806231E+01  0.30729241965E+02 -0.59307259049E+02  0.67167167455E+02  0.00000000000E+00 0. -1.
         21    1    1    2  504  502  0.57382227233E+02  0.70995093589E+02 -0.66810925433E+03  0.67431669047E+03  0.00000000000E+00 0. -1.
         21    1    1    2  505  501 -0.88123841117E+02 -0.22474999633E+02 -0.27787057103E+02  0.95094992109E+02  0.00000000000E+00 0. -1.
         21    1    1    2  506  505  0.37797894507E+02 -0.79249335922E+02 -0.29703380296E+03  0.30973895166E+03  0.00000000000E+00 0. -1.
<scales pt_clust_3="31.52899" pt_clust_4="88.85882" pt_clust_5="14000.00000" pt_clust_6="83.27313"></scales>
<clustering>
<clus scale="   31.529">  1  3  2 -1</clus>
<clus scale="   83.273">  2  6  1 -1</clus>
<clus scale="   88.859">  2  4  1 -1</clus>
<clus scale="   31.529">  1  3  2 -1</clus>
</clustering>
</event>
