<event>
 5    0  0.5778875E-005  0.2818507E+03  0.7546771E-02  0.1094682E+00
         21   -1    0    0  502  501  0.00000000000E+00  0.00000000000E+00  0.21406912771E+04  0.21406912771E+04  0.00000000000E+00 0. -1.
         21   -1    0    0  501  502 -0.00000000000E+00 -0.00000000000E+00 -0.37109420765E+02  0.37109420765E+02  0.00000000000E+00 0. -1.
         25    1    1    2    0    0  0.23389970927E+02  0.79915404714E+02  0.84812365377E+03  0.86132008843E+03  0.12500000000E+03 0.  0.
         25    1    1    2    0    0  0.13627037822E+03 -0.35906106033E+02  0.57188910788E+03  0.60211379003E+03  0.12500000000E+03 0.  0.
         25    1    1    2    0    0 -0.15966034915E+03 -0.44009298681E+02  0.68356909473E+03  0.71436681945E+03  0.12500000000E+03 0.  0.
</event>
<event>
 5    0  0.5778875E-005  0.3444770E+03  0.7546771E-02  0.1064905E+00
         21   -1    0    0  502  501  0.00000000000E+00  0.00000000000E+00  0.83952714125E+02  0.83952714125E+02  0.00000000000E+00 0.  1.
         21   -1    0    0  501  502 -0.00000000000E+00 -0.00000000000E+00 -0.14134667525E+04  0.14134667525E+04  0.00000000000E+00 0.  1.
         25    1    1    2    0    0  0.25977755872E+02  0.12599596502E+03 -0.96843333363E+03  0.98490504552E+03  0.12500000000E+03 0.  0.
         25    1    1    2    0    0  0.45140472901E+02 -0.71117721936E+02 -0.39239653053E+02  0.15575667895E+03  0.12500000000E+03 0.  0.
         25    1    1    2    0    0 -0.71118228773E+02 -0.54878243089E+02 -0.32184105165E+03  0.35675774211E+03  0.12500000000E+03 0.  0.
</event>
<event>
 5    0  0.5778875E-005  0.2350071E+03  0.7546771E-02  0.1123164E+00
         21   -1    0    0  502  501  0.00000000000E+00  0.00000000000E+00  0.51876664896E+03  0.51876664896E+03  0.00000000000E+00 0.  1.
         21   -1    0    0  501  502 -0.00000000000E+00 -0.00000000000E+00 -0.10646082416E+03  0.10646082416E+03  0.00000000000E+00 0.  1.
         25    1    1    2    0    0 -0.65417283991E+02  0.92347501595E+01  0.13143155451E+03  0.19303874009E+03  0.12500000000E+03 0.  0.
         25    1    1    2    0    0  0.91119816827E+02 -0.80322981206E+02  0.10468833171E+03  0.20332055756E+03  0.12500000000E+03 0.  0.
         25    1    1    2    0    0 -0.25702532836E+02  0.71088231047E+02  0.17618593858E+03  0.22886817547E+03  0.12500000000E+03 0.  0.
</event>
<event>
 5    0  0.5778875E-005  0.2345329E+03  0.7546771E-02  0.1123489E+00
         21   -1    0    0  502  501  0.00000000000E+00  0.00000000000E+00  0.21644015862E+02  0.21644015862E+02  0.00000000000E+00 0. -1.
         21   -1    0    0  501  502 -0.00000000000E+00 -0.00000000000E+00 -0.25413813275E+04  0.25413813275E+04  0.00000000000E+00 0. -1.
         25    1    1    2    0    0 -0.63611222052E+02  0.96767051670E+02 -0.77359076905E+03  0.79213504393E+03  0.12500000000E+03 0.  0.
         25    1    1    2    0    0  0.78804350697E+02 -0.45307502242E+02 -0.77480217605E+03  0.79006728034E+03  0.12500000000E+03 0.  0.
         25    1    1    2    0    0 -0.15193128645E+02 -0.51459549429E+02 -0.97134436657E+03  0.98082301913E+03  0.12500000000E+03 0.  0.
</event>
<event>
 5    0  0.5853845E-005  0.2605160E+03  0.7546771E-02  0.1106834E+00
         21   -1    0    0  502  501  0.00000000000E+00  0.00000000000E+00  0.60839488749E+03  0.60839488749E+03  0.00000000000E+00 0.  1.
         21   -1    0    0  501  502 -0.00000000000E+00 -0.00000000000E+00 -0.11155349995E+03  0.11155349995E+03  0.00000000000E+00 0.  1.
         25    1    1    2    0    0 -0.76804929096E+02  0.38478920151E+01  0.14999159951E+03  0.20984823881E+03  0.12500000000E+03 0.  0.
         25    1    1    2    0    0  0.91070948467E+02 -0.11463565496E+03  0.11584499038E+03  0.22467824292E+03  0.12500000000E+03 0.  0.
         25    1    1    2    0    0 -0.14266019371E+02  0.11078776294E+03  0.23100479765E+03  0.28542190572E+03  0.12500000000E+03 0.  0.
</event>
<event>
 5    0  0.5778875E-005  0.2857392E+03  0.7546771E-02  0.1092595E+00
         21   -1    0    0  502  501  0.00000000000E+00  0.00000000000E+00  0.13776802694E+04  0.13776802694E+04  0.00000000000E+00 0. -1.
         21   -1    0    0  501  502 -0.00000000000E+00 -0.00000000000E+00 -0.59264016796E+02  0.59264016796E+02  0.00000000000E+00 0. -1.
         25    1    1    2    0    0  0.30350253013E+02  0.13699297543E+03  0.42684654762E+03  0.46638094771E+03  0.12500000000E+03 0.  0.
         25    1    1    2    0    0 -0.82585680508E+02 -0.17717877409E+03  0.44044792291E+03  0.49782736507E+03  0.12500000000E+03 0.  0.
         25    1    1    2    0    0  0.52235427495E+02  0.40185798662E+02  0.45112178210E+03  0.47273597344E+03  0.12500000000E+03 0.  0.
</event>
<event>
 5    0  0.5778875E-005  0.2990274E+03  0.7546771E-02  0.1085728E+00
         21   -1    0    0  502  501  0.00000000000E+00  0.00000000000E+00  0.46327154456E+03  0.46327154456E+03  0.00000000000E+00 0.  1.
         21   -1    0    0  501  502 -0.00000000000E+00 -0.00000000000E+00 -0.19301292130E+03  0.19301292130E+03  0.00000000000E+00 0.  1.
         25    1    1    2    0    0  0.11626900991E+02 -0.43634172526E+02  0.14928979132E+02  0.13374229046E+03  0.12500000000E+03 0.  0.
         25    1    1    2    0    0 -0.18383102882E+03  0.86004780780E+02  0.14688081697E+03  0.27998150630E+03  0.12500000000E+03 0.  0.
         25    1    1    2    0    0  0.17220412783E+03 -0.42370608254E+02  0.10844882716E+03  0.24256066911E+03  0.12500000000E+03 0.  0.
</event>
<event>
 5    0  0.5778875E-005  0.2846895E+03  0.7546771E-02  0.1093155E+00
         21   -1    0    0  502  501  0.00000000000E+00  0.00000000000E+00  0.22339670077E+03  0.22339670077E+03  0.00000000000E+00 0. -1.
         21   -1    0    0  501  502 -0.00000000000E+00 -0.00000000000E+00 -0.36279910866E+03  0.36279910866E+03  0.00000000000E+00 0. -1.
         25    1    1    2    0    0 -0.86337561996E+02 -0.12762061198E+03  0.41104161974E+02  0.20262217881E+03  0.12500000000E+03 0.  0.
         25    1    1    2    0    0 -0.43525934241E+02  0.42048635512E+02 -0.71285981931E+02  0.15610664919E+03  0.12500000000E+03 0.  0.
         25    1    1    2    0    0  0.12986349624E+03  0.85571976472E+02 -0.10922058794E+03  0.22746698143E+03  0.12500000000E+03 0.  0.
</event>
<event>
 5    0  0.5778875E-005  0.2519985E+03  0.7546771E-02  0.1112048E+00
         21   -1    0    0  502  501  0.00000000000E+00  0.00000000000E+00  0.36723066117E+03  0.36723066117E+03  0.00000000000E+00 0. -1.
         21   -1    0    0  501  502 -0.00000000000E+00 -0.00000000000E+00 -0.17292461179E+03  0.17292461179E+03  0.00000000000E+00 0. -1.
         25    1    1    2    0    0 -0.11619345380E+03  0.77734553661E+01  0.89001815295E+00  0.17084243456E+03  0.12500000000E+03 0.  0.
         25    1    1    2    0    0  0.13281183964E+03  0.81273489844E+01  0.81370820625E+02  0.19987808534E+03  0.12500000000E+03 0.  0.
         25    1    1    2    0    0 -0.16618385844E+02 -0.15900804350E+02  0.11204521060E+03  0.16943475306E+03  0.12500000000E+03 0.  0.
</event>
<event>
 5    0  0.5778875E-005  0.2317336E+03  0.7546771E-02  0.1125425E+00
         21   -1    0    0  502  501  0.00000000000E+00  0.00000000000E+00  0.34457448078E+03  0.34457448078E+03  0.00000000000E+00 0. -1.
         21   -1    0    0  501  502 -0.00000000000E+00 -0.00000000000E+00 -0.15584574372E+03  0.15584574372E+03  0.00000000000E+00 0. -1.
         25    1    1    2    0    0 -0.19884085483E+02 -0.68835973258E+00  0.10671629503E+03  0.16555729618E+03  0.12500000000E+03 0.  0.
         25    1    1    2    0    0 -0.51642507320E+02 -0.17006558857E+02 -0.43421345117E+02  0.14306147217E+03  0.12500000000E+03 0.  0.
         25    1    1    2    0    0  0.71526592804E+02  0.17694918589E+02  0.12543378715E+03  0.19180145615E+03  0.12500000000E+03 0.  0.
</event>
<event>
 5    0  0.5778875E-005  0.4041092E+03  0.7546771E-02  0.1042366E+00
         21   -1    0    0  502  501  0.00000000000E+00  0.00000000000E+00  0.16461860272E+04  0.16461860272E+04  0.00000000000E+00 0.  1.
         21   -1    0    0  501  502 -0.00000000000E+00 -0.00000000000E+00 -0.99201561203E+02  0.99201561203E+02  0.00000000000E+00 0.  1.
         25    1    1    2    0    0 -0.95695735835E+02  0.21991435449E+03  0.17901190014E+03  0.32433047584E+03  0.12500000000E+03 0.  0.
         25    1    1    2    0    0  0.45012752354E+02 -0.18352615041E+03  0.10430384404E+04  0.10673622553E+04  0.12500000000E+03 0.  0.
         25    1    1    2    0    0  0.50682983481E+02 -0.36388204072E+02  0.32493412546E+03  0.35369485732E+03  0.12500000000E+03 0.  0.
</event>
<event>
 5    0  0.5833006E-005  0.3496073E+03  0.7546771E-02  0.1062776E+00
         21   -1    0    0  502  501  0.00000000000E+00  0.00000000000E+00  0.80312589047E+03  0.80312589047E+03  0.00000000000E+00 0. -1.
         21   -1    0    0  501  502 -0.00000000000E+00 -0.00000000000E+00 -0.15218695451E+03  0.15218695451E+03  0.00000000000E+00 0. -1.
         25    1    1    2    0    0 -0.17389924153E+03 -0.97974629660E+02  0.43069661284E+03  0.49088139767E+03  0.12500000000E+03 0.  0.
         25    1    1    2    0    0  0.56047163897E+02 -0.67609794922E+02  0.15373753376E+03  0.21673162722E+03  0.12500000000E+03 0.  0.
         25    1    1    2    0    0  0.11785207763E+03  0.16558442458E+03  0.66504789370E+02  0.24769982010E+03  0.12500000000E+03 0.  0.
</event>
<event>
 5    0  0.5778875E-005  0.2816028E+03  0.7546771E-02  0.1094817E+00
         21   -1    0    0  502  501  0.00000000000E+00  0.00000000000E+00  0.75622880923E+03  0.75622880923E+03  0.00000000000E+00 0.  1.
         21   -1    0    0  501  502 -0.00000000000E+00 -0.00000000000E+00 -0.10486259519E+03  0.10486259519E+03  0.00000000000E+00 0.  1.
         25    1    1    2    0    0 -0.11230515108E+02  0.12752244118E+03  0.27173658557E+03  0.32535191625E+03  0.12500000000E+03 0.  0.
         25    1    1    2    0    0  0.44670145432E+02  0.60718873727E+02  0.18491905776E+03  0.23558917939E+03  0.12500000000E+03 0.  0.
         25    1    1    2    0    0 -0.33439630324E+02 -0.18824131490E+03  0.19471057071E+03  0.30015030878E+03  0.12500000000E+03 0.  0.
</event>
<event>
 5    0  0.5778875E-005  0.2771641E+03  0.7546771E-02  0.1097248E+00
         21   -1    0    0  502  501  0.00000000000E+00  0.00000000000E+00  0.87990007640E+03  0.87990007640E+03  0.00000000000E+00 0.  1.
         21   -1    0    0  501  502 -0.00000000000E+00 -0.00000000000E+00 -0.87305319604E+02  0.87305319604E+02  0.00000000000E+00 0.  1.
         25    1    1    2    0    0 -0.97967864105E+02  0.15704748605E+03  0.38056880226E+03  0.44127001771E+03  0.12500000000E+03 0.  0.
         25    1    1    2    0    0  0.16750668065E+02 -0.11326651541E+03  0.18592973628E+03  0.25160436250E+03  0.12500000000E+03 0.  0.
         25    1    1    2    0    0  0.81217196040E+02 -0.43780970636E+02  0.22609621826E+03  0.27433101580E+03  0.12500000000E+03 0.  0.
</event>
<event>
 5    0  0.5778875E-005  0.2567288E+03  0.7546771E-02  0.1109125E+00
         21   -1    0    0  502  501  0.00000000000E+00  0.00000000000E+00  0.24631099190E+03  0.24631099190E+03  0.00000000000E+00 0. -1.
         21   -1    0    0  501  502 -0.00000000000E+00 -0.00000000000E+00 -0.26758724919E+03  0.26758724919E+03  0.00000000000E+00 0. -1.
         25    1    1    2    0    0 -0.12809655203E+03 -0.58897110696E+02  0.84912880499E+02  0.20667073708E+03  0.12500000000E+03 0.  0.
         25    1    1    2    0    0  0.74398828423E+02  0.21826384342E+02 -0.48598761634E+02  0.15491422258E+03  0.12500000000E+03 0.  0.
         25    1    1    2    0    0  0.53697723611E+02  0.37070726354E+02 -0.57590376154E+02  0.15231328143E+03  0.12500000000E+03 0.  0.
</event>
<event>
 5    0  0.5778875E-005  0.2551297E+03  0.7546771E-02  0.1110105E+00
         21   -1    0    0  502  501  0.00000000000E+00  0.00000000000E+00  0.35555414988E+03  0.35555414988E+03  0.00000000000E+00 0.  1.
         21   -1    0    0  501  502 -0.00000000000E+00 -0.00000000000E+00 -0.18306965618E+03  0.18306965618E+03  0.00000000000E+00 0.  1.
         25    1    1    2    0    0  0.55865938219E+02 -0.12462974865E+03  0.91912945215E+02  0.20670405608E+03  0.12500000000E+03 0.  0.
         25    1    1    2    0    0 -0.11560668714E+01 -0.12127983436E+02  0.90449970670E+01  0.12591757798E+03  0.12500000000E+03 0.  0.
         25    1    1    2    0    0 -0.54709871347E+02  0.13675773209E+03  0.71526551417E+02  0.20600217199E+03  0.12500000000E+03 0.  0.
</event>
<event>
 5    0  0.6812543E-005  0.3196104E+03  0.7546771E-02  0.1075829E+00
         21   -1    0    0  502  501  0.00000000000E+00  0.00000000000E+00  0.71792872853E+03  0.71792872853E+03  0.00000000000E+00 0. -1.
         21   -1    0    0  501  502 -0.00000000000E+00 -0.00000000000E+00 -0.14228545690E+03  0.14228545690E+03  0.00000000000E+00 0. -1.
         25    1    1    2    0    0  0.41505446463E+02 -0.11573163224E+03  0.10388042050E+03  0.20379561956E+03  0.12500000000E+03 0.  0.
         25    1    1    2    0    0 -0.13900523830E+03  0.19182193545E+03  0.20669778498E+03  0.33832984721E+03  0.12500000000E+03 0.  0.
         25    1    1    2    0    0  0.97499791835E+02 -0.76090303209E+02  0.26506506614E+03  0.31808871866E+03  0.12500000000E+03 0.  0.
</event>
<event>
 5    0  0.5778875E-005  0.3408327E+03  0.7546771E-02  0.1066442E+00
         21   -1    0    0  502  501  0.00000000000E+00  0.00000000000E+00  0.20991622672E+03  0.20991622672E+03  0.00000000000E+00 0. -1.
         21   -1    0    0  501  502 -0.00000000000E+00 -0.00000000000E+00 -0.55339658177E+03  0.55339658177E+03  0.00000000000E+00 0. -1.
         25    1    1    2    0    0 -0.35127514568E+02  0.18253864260E+03 -0.25287456066E+03  0.33782368441E+03  0.12500000000E+03 0.  0.
         25    1    1    2    0    0  0.15561697853E+03 -0.90843956410E+02 -0.43560205229E+02  0.22358837158E+03  0.12500000000E+03 0.  0.
         25    1    1    2    0    0 -0.12048946397E+03 -0.91694686191E+02 -0.47045589159E+02  0.20190075250E+03  0.12500000000E+03 0.  0.
</event>
<event>
 5    0  0.5778875E-005  0.4287258E+03  0.7546771E-02  0.1034263E+00
         21   -1    0    0  502  501  0.00000000000E+00  0.00000000000E+00  0.23898818878E+03  0.23898818878E+03  0.00000000000E+00 0.  1.
         21   -1    0    0  501  502 -0.00000000000E+00 -0.00000000000E+00 -0.76909986793E+03  0.76909986793E+03  0.00000000000E+00 0.  1.
         25    1    1    2    0    0  0.14242420984E+03 -0.63958089234E+02 -0.15570762746E+03  0.25346628568E+03  0.12500000000E+03 0.  0.
         25    1    1    2    0    0 -0.29956272582E+03 -0.12609787338E+03 -0.93678201227E+02  0.36060935339E+03  0.12500000000E+03 0.  0.
         25    1    1    2    0    0  0.15713851598E+03  0.19005596261E+03 -0.28072585046E+03  0.39401241763E+03  0.12500000000E+03 0.  0.
</event>
<event>
 5    0  0.5778875E-005  0.2454947E+03  0.7546771E-02  0.1116186E+00
         21   -1    0    0  502  501  0.00000000000E+00  0.00000000000E+00  0.23714766083E+03  0.23714766083E+03  0.00000000000E+00 0. -1.
         21   -1    0    0  501  502 -0.00000000000E+00 -0.00000000000E+00 -0.25413562288E+03  0.25413562288E+03  0.00000000000E+00 0. -1.
         25    1    1    2    0    0  0.67551338503E+02  0.52489076621E+02 -0.86593387553E+02  0.17447550334E+03  0.12500000000E+03 0.  0.
         25    1    1    2    0    0 -0.10498835740E+03  0.11072635072E+02  0.43931376103E+02  0.16941111015E+03  0.12500000000E+03 0.  0.
         25    1    1    2    0    0  0.37437018893E+02 -0.63561711692E+02  0.25674049401E+02  0.14739667021E+03  0.12500000000E+03 0.  0.
</event>
<event>
 5    0  0.5778875E-005  0.2752973E+03  0.7546771E-02  0.1098286E+00
         21   -1    0    0  502  501  0.00000000000E+00  0.00000000000E+00  0.36019747693E+03  0.36019747693E+03  0.00000000000E+00 0.  1.
         21   -1    0    0  501  502 -0.00000000000E+00 -0.00000000000E+00 -0.21040846037E+03  0.21040846037E+03  0.00000000000E+00 0.  1.
         25    1    1    2    0    0 -0.25038572810E+02  0.63189019092E+02  0.53537157674E+02  0.15202305586E+03  0.12500000000E+03 0.  0.
         25    1    1    2    0    0 -0.39393714705E+02 -0.22413161435E+02 -0.10519540224E+03  0.16954435177E+03  0.12500000000E+03 0.  0.
         25    1    1    2    0    0  0.64432287515E+02 -0.40775857657E+02  0.20144726112E+03  0.24903852966E+03  0.12500000000E+03 0.  0.
</event>
<event>
 5    0  0.5778875E-005  0.3173817E+03  0.7546771E-02  0.1076861E+00
         21   -1    0    0  502  501  0.00000000000E+00  0.00000000000E+00  0.10925227580E+04  0.10925227580E+04  0.00000000000E+00 0.  1.
         21   -1    0    0  501  502 -0.00000000000E+00 -0.00000000000E+00 -0.92200489378E+02  0.92200489378E+02  0.00000000000E+00 0.  1.
         25    1    1    2    0    0 -0.42235553847E+02 -0.34766868961E+02  0.55763032974E+02  0.14740112969E+03  0.12500000000E+03 0.  0.
         25    1    1    2    0    0  0.17567734898E+02 -0.69790069063E+02  0.81503170368E+03  0.82769617436E+03  0.12500000000E+03 0.  0.
         25    1    1    2    0    0  0.24667818950E+02  0.10455693802E+03  0.12952753197E+03  0.20962594334E+03  0.12500000000E+03 0.  0.
</event>
<event>
 5    0  0.5778875E-005  0.3689246E+03  0.7546771E-02  0.1055105E+00
         21   -1    0    0  502  501  0.00000000000E+00  0.00000000000E+00  0.60301092164E+02  0.60301092164E+02  0.00000000000E+00 0. -1.
         21   -1    0    0  501  502 -0.00000000000E+00 -0.00000000000E+00 -0.22570965663E+04  0.22570965663E+04  0.00000000000E+00 0. -1.
         25    1    1    2    0    0  0.14497673225E+03  0.27639440578E+02 -0.42000600948E+03  0.46239835593E+03  0.12500000000E+03 0.  0.
         25    1    1    2    0    0 -0.15238530561E+03  0.17578480251E+03 -0.12344430597E+04  0.12623772201E+04  0.12500000000E+03 0.  0.
         25    1    1    2    0    0  0.74085733566E+01 -0.20342424308E+03 -0.54234640499E+03  0.59262208248E+03  0.12500000000E+03 0.  0.
</event>
<event>
 5    0  0.6970994E-005  0.2820904E+03  0.7546771E-02  0.1094553E+00
         21   -1    0    0  502  501  0.00000000000E+00  0.00000000000E+00  0.46084642746E+03  0.46084642746E+03  0.00000000000E+00 0.  1.
         21   -1    0    0  501  502 -0.00000000000E+00 -0.00000000000E+00 -0.17267142323E+03  0.17267142323E+03  0.00000000000E+00 0.  1.
         25    1    1    2    0    0  0.99782371273E+02 -0.13849292273E+03  0.13015313083E+03  0.24839816571E+03  0.12500000000E+03 0.  0.
         25    1    1    2    0    0 -0.10068177037E+03  0.42142110566E+02  0.15528525657E+03  0.22726919561E+03  0.12500000000E+03 0.  0.
         25    1    1    2    0    0  0.89939910005E+00  0.96350812160E+02  0.27366168390E+01  0.15785048937E+03  0.12500000000E+03 0.  0.
</event>
<event>
 5    0  0.5778875E-005  0.2212742E+03  0.7546771E-02  0.1132937E+00
         21   -1    0    0  502  501  0.00000000000E+00  0.00000000000E+00  0.64694597926E+02  0.64694597926E+02  0.00000000000E+00 0.  1.
         21   -1    0    0  501  502 -0.00000000000E+00 -0.00000000000E+00 -0.75682168274E+03  0.75682168274E+03  0.00000000000E+00 0.  1.
         25    1    1    2    0    0 -0.49651330448E+01  0.14000876478E+02 -0.13758418227E+03  0.18648078801E+03  0.12500000000E+03 0.  0.
         25    1    1    2    0    0 -0.51298318673E+02  0.23601647674E+02 -0.40989840025E+03  0.43223865376E+03  0.12500000000E+03 0.  0.
         25    1    1    2    0    0  0.56263451718E+02 -0.37602524152E+02 -0.14464450229E+03  0.20279683889E+03  0.12500000000E+03 0.  0.
</event>
<event>
 5    0  0.5778875E-005  0.3122108E+03  0.7546771E-02  0.1079291E+00
         21   -1    0    0  502  501  0.00000000000E+00  0.00000000000E+00  0.20354322019E+03  0.20354322019E+03  0.00000000000E+00 0.  1.
         21   -1    0    0  501  502 -0.00000000000E+00 -0.00000000000E+00 -0.47889389437E+03  0.47889389437E+03  0.00000000000E+00 0.  1.
         25    1    1    2    0    0  0.46362440404E+01 -0.17237520160E+03 -0.84389706810E+02  0.22908803439E+03  0.12500000000E+03 0.  0.
         25    1    1    2    0    0 -0.13165579858E+03  0.12144007087E+03 -0.60335314811E+02  0.22659719841E+03  0.12500000000E+03 0.  0.
         25    1    1    2    0    0  0.12701955454E+03  0.50935130730E+02 -0.13062565255E+03  0.22675188176E+03  0.12500000000E+03 0.  0.
</event>
<event>
 5    0  0.5778875E-005  0.4538001E+03  0.7546771E-02  0.1026595E+00
         21   -1    0    0  502  501  0.00000000000E+00  0.00000000000E+00  0.10307325292E+04  0.10307325292E+04  0.00000000000E+00 0. -1.
         21   -1    0    0  501  502 -0.00000000000E+00 -0.00000000000E+00 -0.19979431508E+03  0.19979431508E+03  0.00000000000E+00 0. -1.
         25    1    1    2    0    0 -0.15252824181E+01  0.22058914962E+03 -0.45743386810E+02  0.25764191595E+03  0.12500000000E+03 0.  0.
         25    1    1    2    0    0  0.68807453682E+02  0.15864809666E+02  0.35158011285E+03  0.37976273332E+03  0.12500000000E+03 0.  0.
         25    1    1    2    0    0 -0.67282171264E+02 -0.23645395929E+03  0.52510148804E+03  0.59312219497E+03  0.12500000000E+03 0.  0.
</event>
<event>
 5    0  0.5778875E-005  0.2521703E+03  0.7546771E-02  0.1111941E+00
         21   -1    0    0  502  501  0.00000000000E+00  0.00000000000E+00  0.22524428280E+03  0.22524428280E+03  0.00000000000E+00 0. -1.
         21   -1    0    0  501  502 -0.00000000000E+00 -0.00000000000E+00 -0.28231516318E+03  0.28231516318E+03  0.00000000000E+00 0. -1.
         25    1    1    2    0    0  0.85106421582E+02  0.88216242494E+02 -0.11904455762E+03  0.21171163202E+03  0.12500000000E+03 0.  0.
         25    1    1    2    0    0 -0.64794285259E+02 -0.13340151787E+02  0.19813400758E+02  0.14280696727E+03  0.12500000000E+03 0.  0.
         25    1    1    2    0    0 -0.20312136323E+02 -0.74876090707E+02  0.42160276491E+02  0.15304084669E+03  0.12500000000E+03 0.  0.
</event>
<event>
 5    0  0.5778875E-005  0.4556143E+03  0.7546771E-02  0.1026061E+00
         21   -1    0    0  502  501  0.00000000000E+00  0.00000000000E+00  0.34215090958E+03  0.34215090958E+03  0.00000000000E+00 0. -1.
         21   -1    0    0  501  502 -0.00000000000E+00 -0.00000000000E+00 -0.60670407089E+03  0.60670407089E+03  0.00000000000E+00 0.  1.
         25    1    1    2    0    0 -0.85923002658E+02  0.35848007648E+03 -0.12126242981E+03  0.40770124418E+03  0.12500000000E+03 0.  0.
         25    1    1    2    0    0  0.10205258870E+03 -0.21986428818E+03 -0.20794855728E+03  0.34296157008E+03  0.12500000000E+03 0.  0.
         25    1    1    2    0    0 -0.16129586042E+02 -0.13861578830E+03  0.64657825789E+02  0.19819216622E+03  0.12500000000E+03 0.  0.
</event>
<event>
 5    0  0.5778875E-005  0.2302268E+03  0.7546771E-02  0.1126480E+00
         21   -1    0    0  502  501  0.00000000000E+00  0.00000000000E+00  0.85878502669E+03  0.85878502669E+03  0.00000000000E+00 0. -1.
         21   -1    0    0  501  502 -0.00000000000E+00 -0.00000000000E+00 -0.61720218416E+02  0.61720218416E+02  0.00000000000E+00 0. -1.
         25    1    1    2    0    0 -0.34079259084E+01 -0.62943083307E+02  0.22855659942E+03  0.26802344083E+03  0.12500000000E+03 0.  0.
         25    1    1    2    0    0 -0.82059410961E+02 -0.11411740065E+02  0.23574647134E+03  0.27940181368E+03  0.12500000000E+03 0.  0.
         25    1    1    2    0    0  0.85467336870E+02  0.74354823372E+02  0.33276173751E+03  0.37307999060E+03  0.12500000000E+03 0.  0.
</event>
<event>
 5    0  0.5778875E-005  0.5193896E+03  0.7546771E-02  0.1008838E+00
         21   -1    0    0  502  501  0.00000000000E+00  0.00000000000E+00  0.15275590363E+03  0.15275590363E+03  0.00000000000E+00 0. -1.
         21   -1    0    0  501  502 -0.00000000000E+00 -0.00000000000E+00 -0.17659912554E+04  0.17659912554E+04  0.00000000000E+00 0. -1.
         25    1    1    2    0    0 -0.66633479737E+02  0.30888033320E+03 -0.54787903898E+03  0.64470421296E+03  0.12500000000E+03 0.  0.
         25    1    1    2    0    0  0.19762221105E+03 -0.26023922081E+03 -0.23185127537E+03  0.41971300223E+03  0.12500000000E+03 0.  0.
         25    1    1    2    0    0 -0.13098873131E+03 -0.48641112393E+02 -0.83350503744E+03  0.85432994386E+03  0.12500000000E+03 0.  0.
</event>
<event>
 5    0  0.5778875E-005  0.3295436E+03  0.7546771E-02  0.1071339E+00
         21   -1    0    0  502  501  0.00000000000E+00  0.00000000000E+00  0.94936584667E+03  0.94936584667E+03  0.00000000000E+00 0. -1.
         21   -1    0    0  501  502 -0.00000000000E+00 -0.00000000000E+00 -0.11439105496E+03  0.11439105496E+03  0.00000000000E+00 0. -1.
         25    1    1    2    0    0 -0.77583252364E+02  0.18612579411E+03  0.39605110152E+03  0.46167461192E+03  0.12500000000E+03 0.  0.
         25    1    1    2    0    0  0.14430357858E+02 -0.22496691849E+03  0.21773435288E+03  0.33741902446E+03  0.12500000000E+03 0.  0.
         25    1    1    2    0    0  0.63152894505E+02  0.38841124388E+02  0.22118933731E+03  0.26466326524E+03  0.12500000000E+03 0.  0.
</event>
<event>
 5    0  0.5778875E-005  0.3762603E+03  0.7546771E-02  0.1052325E+00
         21   -1    0    0  502  501  0.00000000000E+00  0.00000000000E+00  0.21007874514E+03  0.21007874514E+03  0.00000000000E+00 0. -1.
         21   -1    0    0  501  502 -0.00000000000E+00 -0.00000000000E+00 -0.67389875200E+03  0.67389875200E+03  0.00000000000E+00 0. -1.
         25    1    1    2    0    0 -0.41541588243E+02 -0.14008506497E+03 -0.11196504863E+03  0.22251000224E+03  0.12500000000E+03 0.  0.
         25    1    1    2    0    0  0.26766122380E+02  0.14283326567E+03  0.82905430115E+02  0.20884462509E+03  0.12500000000E+03 0.  0.
         25    1    1    2    0    0  0.14775465863E+02 -0.27482006968E+01 -0.43476038834E+03  0.45262286981E+03  0.12500000000E+03 0.  0.
</event>
<event>
 5    0  0.6441140E-005  0.3106630E+03  0.7546771E-02  0.1080029E+00
         21   -1    0    0  502  501  0.00000000000E+00  0.00000000000E+00  0.46607090235E+03  0.46607090235E+03  0.00000000000E+00 0.  1.
         21   -1    0    0  501  502 -0.00000000000E+00 -0.00000000000E+00 -0.20707471162E+03  0.20707471162E+03  0.00000000000E+00 0.  1.
         25    1    1    2    0    0 -0.15789740875E+03  0.40373801775E+02  0.47439062217E+01  0.20544863155E+03  0.12500000000E+03 0.  0.
         25    1    1    2    0    0  0.16116788773E+03 -0.12769452276E+02  0.26039677599E+02  0.20601264950E+03  0.12500000000E+03 0.  0.
         25    1    1    2    0    0 -0.32704789749E+01 -0.27604349499E+02  0.22821260690E+03  0.26168433292E+03  0.12500000000E+03 0.  0.
</event>
<event>
 5    0  0.5778875E-005  0.3053342E+03  0.7546771E-02  0.1082604E+00
         21   -1    0    0  502  501  0.00000000000E+00  0.00000000000E+00  0.91374124492E+02  0.91374124492E+02  0.00000000000E+00 0. -1.
         21   -1    0    0  501  502 -0.00000000000E+00 -0.00000000000E+00 -0.10202993664E+04  0.10202993664E+04  0.00000000000E+00 0. -1.
         25    1    1    2    0    0 -0.11015203997E+03  0.47596584998E+02 -0.28499378147E+03  0.33353464931E+03  0.12500000000E+03 0.  0.
         25    1    1    2    0    0  0.90543462543E+02 -0.17146419011E+03 -0.22029735864E+03  0.31898904891E+03  0.12500000000E+03 0.  0.
         25    1    1    2    0    0  0.19608577427E+02  0.12386760512E+03 -0.42363410180E+03  0.45914979267E+03  0.12500000000E+03 0.  0.
</event>
<event>
 5    0  0.5778875E-005  0.2064542E+03  0.7546771E-02  0.1144405E+00
         21   -1    0    0  502  501  0.00000000000E+00  0.00000000000E+00  0.52589285616E+02  0.52589285616E+02  0.00000000000E+00 0.  1.
         21   -1    0    0  501  502 -0.00000000000E+00 -0.00000000000E+00 -0.81049451210E+03  0.81049451210E+03  0.00000000000E+00 0.  1.
         25    1    1    2    0    0  0.62523731261E+02  0.40774477974E+02 -0.31772768493E+03  0.34949629011E+03  0.12500000000E+03 0.  0.
         25    1    1    2    0    0 -0.18372118909E+02 -0.38190810563E+02 -0.22294768439E+03  0.25908829140E+03  0.12500000000E+03 0.  0.
         25    1    1    2    0    0 -0.44151612352E+02 -0.25836674104E+01 -0.21722985716E+03  0.25449921621E+03  0.12500000000E+03 0.  0.
</event>
<event>
 5    0  0.5778875E-005  0.2805493E+03  0.7546771E-02  0.1095389E+00
         21   -1    0    0  502  501  0.00000000000E+00  0.00000000000E+00  0.24678261023E+03  0.24678261023E+03  0.00000000000E+00 0. -1.
         21   -1    0    0  501  502 -0.00000000000E+00 -0.00000000000E+00 -0.31893622298E+03  0.31893622298E+03  0.00000000000E+00 0. -1.
         25    1    1    2    0    0  0.42464142143E+01  0.31516264721E+01  0.87542884206E+02  0.15269813803E+03  0.12500000000E+03 0.  0.
         25    1    1    2    0    0  0.44357247208E+02 -0.50310040849E+02 -0.21740100071E+03  0.25958979313E+03  0.12500000000E+03 0.  0.
         25    1    1    2    0    0 -0.48603661422E+02  0.47158414377E+02  0.57704503747E+02  0.15343090205E+03  0.12500000000E+03 0.  0.
</event>
<event>
 5    0  0.5778875E-005  0.4217234E+03  0.7546771E-02  0.1036507E+00
         21   -1    0    0  502  501  0.00000000000E+00  0.00000000000E+00  0.46401599172E+03  0.46401599172E+03  0.00000000000E+00 0. -1.
         21   -1    0    0  501  502 -0.00000000000E+00 -0.00000000000E+00 -0.38328560343E+03  0.38328560343E+03  0.00000000000E+00 0. -1.
         25    1    1    2    0    0 -0.89812893881E+02  0.75235453093E+02  0.30725220229E+03  0.35178920552E+03  0.12500000000E+03 0.  0.
         25    1    1    2    0    0 -0.44555796784E+01 -0.49881487502E+02 -0.29383227318E+03  0.32321884188E+03  0.12500000000E+03 0.  0.
         25    1    1    2    0    0  0.94268473560E+02 -0.25353965591E+02  0.67310459183E+02  0.17229354774E+03  0.12500000000E+03 0.  0.
</event>
<event>
 5    0  0.5778875E-005  0.3287365E+03  0.7546771E-02  0.1071697E+00
         21   -1    0    0  502  501  0.00000000000E+00  0.00000000000E+00  0.42028816210E+03  0.42028816210E+03  0.00000000000E+00 0.  1.
         21   -1    0    0  501  502 -0.00000000000E+00 -0.00000000000E+00 -0.25712764299E+03  0.25712764299E+03  0.00000000000E+00 0.  1.
         25    1    1    2    0    0  0.21352494753E+03  0.39697512120E+02  0.71341507752E+02  0.26054444230E+03  0.12500000000E+03 0.  0.
         25    1    1    2    0    0 -0.19927607371E+03  0.62533179524E+02  0.39918316151E+02  0.24665730084E+03  0.12500000000E+03 0.  0.
         25    1    1    2    0    0 -0.14248873822E+02 -0.10223069164E+03  0.51900695215E+02  0.17021406194E+03  0.12500000000E+03 0.  0.
</event>
<event>
 5    0  0.5778875E-005  0.3744098E+03  0.7546771E-02  0.1053019E+00
         21   -1    0    0  502  501  0.00000000000E+00  0.00000000000E+00  0.13344543526E+04  0.13344543526E+04  0.00000000000E+00 0.  1.
         21   -1    0    0  501  502 -0.00000000000E+00 -0.00000000000E+00 -0.10504872914E+03  0.10504872914E+03  0.00000000000E+00 0.  1.
         25    1    1    2    0    0  0.24562730992E+03 -0.54002676800E+02  0.50312671983E+03  0.57620357573E+03  0.12500000000E+03 0.  0.
         25    1    1    2    0    0  0.45679834048E+02  0.64851557280E+02  0.20002682611E+03  0.24885357720E+03  0.12500000000E+03 0.  0.
         25    1    1    2    0    0 -0.29130714397E+03 -0.10848880481E+02  0.52625207756E+03  0.61444592884E+03  0.12500000000E+03 0.  0.
</event>
<event>
 5    0  0.5778875E-005  0.4558124E+03  0.7546771E-02  0.1026003E+00
         21   -1    0    0  502  501  0.00000000000E+00  0.00000000000E+00  0.42868715723E+03  0.42868715723E+03  0.00000000000E+00 0. -1.
         21   -1    0    0  501  502 -0.00000000000E+00 -0.00000000000E+00 -0.48465406358E+03  0.48465406358E+03  0.00000000000E+00 0. -1.
         25    1    1    2    0    0  0.17142323506E+03 -0.11867515237E+03  0.26425841065E+03  0.35906437433E+03  0.12500000000E+03 0.  0.
         25    1    1    2    0    0  0.58202306123E+02 -0.42329904926E+02 -0.84343251452E+02  0.16708714300E+03  0.12500000000E+03 0.  0.
         25    1    1    2    0    0 -0.22962554119E+03  0.16100505730E+03 -0.23588206555E+03  0.38718970349E+03  0.12500000000E+03 0.  0.
</event>
<event>
 5    0  0.5778875E-005  0.2628538E+03  0.7546771E-02  0.1105441E+00
         21   -1    0    0  502  501  0.00000000000E+00  0.00000000000E+00  0.33657989933E+03  0.33657989933E+03  0.00000000000E+00 0.  1.
         21   -1    0    0  501  502 -0.00000000000E+00 -0.00000000000E+00 -0.20527696236E+03  0.20527696236E+03  0.00000000000E+00 0.  1.
         25    1    1    2    0    0  0.16436010176E+02  0.10042982874E+03  0.10589892832E+03  0.19286232383E+03  0.12500000000E+03 0.  0.
         25    1    1    2    0    0 -0.57143875812E+02 -0.33725823261E+01  0.99360132144E+02  0.16962969290E+03  0.12500000000E+03 0.  0.
         25    1    1    2    0    0  0.40707865636E+02 -0.97057246415E+02 -0.73956123489E+02  0.17936484496E+03  0.12500000000E+03 0.  0.
</event>
<event>
 5    0  0.5778875E-005  0.2548601E+03  0.7546771E-02  0.1110271E+00
         21   -1    0    0  502  501  0.00000000000E+00  0.00000000000E+00  0.14905294140E+03  0.14905294140E+03  0.00000000000E+00 0.  1.
         21   -1    0    0  501  502 -0.00000000000E+00 -0.00000000000E+00 -0.43577567146E+03  0.43577567146E+03  0.00000000000E+00 0.  1.
         25    1    1    2    0    0  0.47282885584E+00 -0.82296766552E+02 -0.17229738650E+03  0.22822000514E+03  0.12500000000E+03 0.  0.
         25    1    1    2    0    0 -0.62883533146E+01  0.13578093007E+03 -0.12030493470E+03  0.22039573878E+03  0.12500000000E+03 0.  0.
         25    1    1    2    0    0  0.58155244588E+01 -0.53484163521E+02  0.58795911368E+01  0.13621286894E+03  0.12500000000E+03 0.  0.
</event>
<event>
 5    0  0.5778875E-005  0.2812517E+03  0.7546771E-02  0.1095007E+00
         21   -1    0    0  502  501  0.00000000000E+00  0.00000000000E+00  0.35961874160E+03  0.35961874160E+03  0.00000000000E+00 0. -1.
         21   -1    0    0  501  502 -0.00000000000E+00 -0.00000000000E+00 -0.21996221472E+03  0.21996221472E+03  0.00000000000E+00 0. -1.
         25    1    1    2    0    0 -0.59967631877E+02 -0.87921431861E+02  0.29119215115E+02  0.16673099215E+03  0.12500000000E+03 0.  0.
         25    1    1    2    0    0 -0.55182908288E+02  0.78407912443E+02 -0.63090006987E+02  0.16970062782E+03  0.12500000000E+03 0.  0.
         25    1    1    2    0    0  0.11515054016E+03  0.95135194178E+01  0.17362731876E+03  0.24314933636E+03  0.12500000000E+03 0.  0.
</event>
<event>
 5    0  0.5778875E-005  0.2739728E+03  0.7546771E-02  0.1099027E+00
         21   -1    0    0  502  501  0.00000000000E+00  0.00000000000E+00  0.13031351491E+03  0.13031351491E+03  0.00000000000E+00 0.  1.
         21   -1    0    0  501  502 -0.00000000000E+00 -0.00000000000E+00 -0.57600383309E+03  0.57600383309E+03  0.00000000000E+00 0.  1.
         25    1    1    2    0    0  0.61466608889E+02 -0.59014691737E+02 -0.36252086803E+02  0.15556378642E+03  0.12500000000E+03 0.  0.
         25    1    1    2    0    0 -0.35625105626E+02  0.66117092455E+02 -0.28038122660E+02  0.14849833126E+03  0.12500000000E+03 0.  0.
         25    1    1    2    0    0 -0.25841503263E+02 -0.71024007181E+01 -0.38140010872E+03  0.40225523031E+03  0.12500000000E+03 0.  0.
</event>
<event>
 5    0  0.5778875E-005  0.2945565E+03  0.7546771E-02  0.1087994E+00
         21   -1    0    0  502  501  0.00000000000E+00  0.00000000000E+00  0.20209674938E+03  0.20209674938E+03  0.00000000000E+00 0. -1.
         21   -1    0    0  501  502 -0.00000000000E+00 -0.00000000000E+00 -0.42931693287E+03  0.42931693287E+03  0.00000000000E+00 0. -1.
         25    1    1    2    0    0  0.30621061615E+02  0.51207337975E+02 -0.16842002534E+03  0.21805995921E+03  0.12500000000E+03 0.  0.
         25    1    1    2    0    0 -0.65672725341E+02  0.30965252483E+02  0.11255219491E+03  0.18320685111E+03  0.12500000000E+03 0.  0.
         25    1    1    2    0    0  0.35051663726E+02 -0.82172590458E+02 -0.17135235307E+03  0.23014687192E+03  0.12500000000E+03 0.  0.
</event>
<event>
 5    0  0.5778875E-005  0.3415534E+03  0.7546771E-02  0.1066136E+00
         21   -1    0    0  502  501  0.00000000000E+00  0.00000000000E+00  0.62735557577E+03  0.62735557577E+03  0.00000000000E+00 0.  1.
         21   -1    0    0  501  502 -0.00000000000E+00 -0.00000000000E+00 -0.18595312043E+03  0.18595312043E+03  0.00000000000E+00 0.  1.
         25    1    1    2    0    0  0.54180521570E+02  0.29867443114E+02  0.51560876012E+03  0.53413948233E+03  0.12500000000E+03 0.  0.
         25    1    1    2    0    0 -0.14808611226E+01 -0.27042983749E+02 -0.78841364783E+01  0.12814318370E+03  0.12500000000E+03 0.  0.
         25    1    1    2    0    0 -0.52699660448E+02 -0.28244593652E+01 -0.66322168296E+02  0.15102603017E+03  0.12500000000E+03 0.  0.
</event>
<event>
 5    0  0.6358502E-005  0.4193462E+03  0.7546771E-02  0.1037279E+00
         21   -1    0    0  502  501  0.00000000000E+00  0.00000000000E+00  0.31068253768E+03  0.31068253768E+03  0.00000000000E+00 0.  1.
         21   -1    0    0  501  502 -0.00000000000E+00 -0.00000000000E+00 -0.56601583466E+03  0.56601583466E+03  0.00000000000E+00 0.  1.
         25    1    1    2    0    0  0.79643187789E+02 -0.23100635611E+03 -0.96003782659E+01  0.27463455935E+03  0.12500000000E+03 0.  0.
         25    1    1    2    0    0 -0.18290910122E+03  0.10829379431E+03  0.41580933368E+02  0.25007450733E+03  0.12500000000E+03 0.  0.
         25    1    1    2    0    0  0.10326591343E+03  0.12271256181E+03 -0.28731385208E+03  0.35198930566E+03  0.12500000000E+03 0.  0.
</event>
<event>
 5    0  0.5778875E-005  0.2466612E+03  0.7546771E-02  0.1115433E+00
         21   -1    0    0  502  501  0.00000000000E+00  0.00000000000E+00  0.36504127886E+03  0.36504127886E+03  0.00000000000E+00 0. -1.
         21   -1    0    0  501  502 -0.00000000000E+00 -0.00000000000E+00 -0.16667088002E+03  0.16667088002E+03  0.00000000000E+00 0. -1.
         25    1    1    2    0    0  0.24629665843E+02  0.96663222449E+02 -0.20923790894E+02  0.16128609376E+03  0.12500000000E+03 0.  0.
         25    1    1    2    0    0  0.18019609928E+02  0.12725240724E+02  0.88214942813E+02  0.15457527043E+03  0.12500000000E+03 0.  0.
         25    1    1    2    0    0 -0.42649275771E+02 -0.10938846317E+03  0.13107924692E+03  0.21585079470E+03  0.12500000000E+03 0.  0.
</event>
<event>
 5    0  0.5778875E-005  0.4122225E+03  0.7546771E-02  0.1039628E+00
         21   -1    0    0  502  501  0.00000000000E+00  0.00000000000E+00  0.59030305297E+03  0.59030305297E+03  0.00000000000E+00 0.  1.
         21   -1    0    0  501  502 -0.00000000000E+00 -0.00000000000E+00 -0.28786466117E+03  0.28786466117E+03  0.00000000000E+00 0.  1.
         25    1    1    2    0    0  0.19909875988E+03  0.10997314893E+03  0.20560414764E+03  0.33110795097E+03  0.12500000000E+03 0.  0.
         25    1    1    2    0    0 -0.21821251118E+03 -0.12903397595E+03 -0.11048086558E+03  0.30347568048E+03  0.12500000000E+03 0.  0.
         25    1    1    2    0    0  0.19113751302E+02  0.19060827023E+02  0.20731510974E+03  0.24358408270E+03  0.12500000000E+03 0.  0.
</event>
<event>
 5    0  0.5778875E-005  0.2612023E+03  0.7546771E-02  0.1106423E+00
         21   -1    0    0  502  501  0.00000000000E+00  0.00000000000E+00  0.65159024394E+03  0.65159024394E+03  0.00000000000E+00 0. -1.
         21   -1    0    0  501  502 -0.00000000000E+00 -0.00000000000E+00 -0.10470787049E+03  0.10470787049E+03  0.00000000000E+00 0. -1.
         25    1    1    2    0    0  0.11972433282E+02  0.87375048861E+02  0.21687947661E+03  0.26540430610E+03  0.12500000000E+03 0.  0.
         25    1    1    2    0    0  0.11740884893E+03 -0.28644618910E+02  0.16810242716E+03  0.24184453274E+03  0.12500000000E+03 0.  0.
         25    1    1    2    0    0 -0.12938128221E+03 -0.58730429951E+02  0.16190046967E+03  0.24904927558E+03  0.12500000000E+03 0.  0.
</event>
<event>
 5    0  0.5778875E-005  0.3150776E+03  0.7546771E-02  0.1077937E+00
         21   -1    0    0  502  501  0.00000000000E+00  0.00000000000E+00  0.12505562430E+04  0.12505562430E+04  0.00000000000E+00 0.  1.
         21   -1    0    0  501  502 -0.00000000000E+00 -0.00000000000E+00 -0.79383810207E+02  0.79383810207E+02  0.00000000000E+00 0.  1.
         25    1    1    2    0    0 -0.80168580666E+02 -0.85542020155E+02  0.27432548853E+03  0.32345619826E+03  0.12500000000E+03 0.  0.
         25    1    1    2    0    0  0.44727196445E+02  0.22507858386E+03  0.44491307190E+03  0.51597822877E+03  0.12500000000E+03 0.  0.
         25    1    1    2    0    0  0.35441384221E+02 -0.13953656370E+03  0.45193387241E+03  0.49050562622E+03  0.12500000000E+03 0.  0.
</event>
<event>
 5    0  0.5778875E-005  0.3158053E+03  0.7546771E-02  0.1077596E+00
         21   -1    0    0  502  501  0.00000000000E+00  0.00000000000E+00  0.64779270228E+03  0.64779270228E+03  0.00000000000E+00 0. -1.
         21   -1    0    0  501  502 -0.00000000000E+00 -0.00000000000E+00 -0.15395820697E+03  0.15395820697E+03  0.00000000000E+00 0. -1.
         25    1    1    2    0    0 -0.28298645084E+02 -0.49759584650E+02  0.36128082845E+03  0.38655616227E+03  0.12500000000E+03 0.  0.
         25    1    1    2    0    0  0.32454915899E+02 -0.34326200312E+01  0.21889660981E+03  0.25417676965E+03  0.12500000000E+03 0.  0.
         25    1    1    2    0    0 -0.41562708144E+01  0.53192204681E+02 -0.86342942955E+02  0.16101797733E+03  0.12500000000E+03 0.  0.
</event>
<event>
 5    0  0.5778875E-005  0.2922090E+03  0.7546771E-02  0.1089201E+00
         21   -1    0    0  502  501  0.00000000000E+00  0.00000000000E+00  0.20975551485E+04  0.20975551485E+04  0.00000000000E+00 0. -1.
         21   -1    0    0  501  502 -0.00000000000E+00 -0.00000000000E+00 -0.40707427458E+02  0.40707427458E+02  0.00000000000E+00 0. -1.
         25    1    1    2    0    0  0.44908092209E+02 -0.19398397157E+03  0.11356707406E+04  0.11597497787E+04  0.12500000000E+03 0.  0.
         25    1    1    2    0    0 -0.25950606614E+01  0.12151875237E+03  0.40762386423E+03  0.44334609078E+03  0.12500000000E+03 0.  0.
         25    1    1    2    0    0 -0.42313031547E+02  0.72465219199E+02  0.51355311619E+03  0.53516670653E+03  0.12500000000E+03 0.  0.
</event>
<event>
 5    0  0.5778875E-005  0.4052197E+03  0.7546771E-02  0.1041987E+00
         21   -1    0    0  502  501  0.00000000000E+00  0.00000000000E+00  0.42725728372E+03  0.42725728372E+03  0.00000000000E+00 0. -1.
         21   -1    0    0  501  502 -0.00000000000E+00 -0.00000000000E+00 -0.38431882563E+03  0.38431882563E+03  0.00000000000E+00 0. -1.
         25    1    1    2    0    0  0.11459083258E+03  0.84931920457E+02 -0.51585312800E+01  0.18972638316E+03  0.12500000000E+03 0.  0.
         25    1    1    2    0    0  0.36486545177E+02  0.53977268243E+02  0.26369513184E+03  0.29900658191E+03  0.12500000000E+03 0.  0.
         25    1    1    2    0    0 -0.15107737776E+03 -0.13890918870E+03 -0.21559814247E+03  0.32284314428E+03  0.12500000000E+03 0.  0.
</event>
<event>
 5    0  0.5778875E-005  0.2330179E+03  0.7546771E-02  0.1124533E+00
         21   -1    0    0  502  501  0.00000000000E+00  0.00000000000E+00  0.97470638261E+03  0.97470638261E+03  0.00000000000E+00 0.  1.
         21   -1    0    0  501  502 -0.00000000000E+00 -0.00000000000E+00 -0.55706346692E+02  0.55706346692E+02  0.00000000000E+00 0.  1.
         25    1    1    2    0    0  0.31066887950E+02 -0.67898301387E+01  0.25708847913E+03  0.28762951765E+03  0.12500000000E+03 0.  0.
         25    1    1    2    0    0  0.37211797979E+02 -0.12217785268E+02  0.53585222720E+03  0.55163085627E+03  0.12500000000E+03 0.  0.
         25    1    1    2    0    0 -0.68278685929E+02  0.19007615407E+02  0.12605932958E+03  0.19115235539E+03  0.12500000000E+03 0.  0.
</event>
<event>
 5    0  0.5778875E-005  0.3000296E+03  0.7546771E-02  0.1085226E+00
         21   -1    0    0  502  501  0.00000000000E+00  0.00000000000E+00  0.11353278696E+04  0.11353278696E+04  0.00000000000E+00 0.  1.
         21   -1    0    0  501  502 -0.00000000000E+00 -0.00000000000E+00 -0.79287889492E+02  0.79287889492E+02  0.00000000000E+00 0.  1.
         25    1    1    2    0    0  0.10981974797E+03  0.45370480687E+01  0.41704530359E+03  0.44903535172E+03  0.12500000000E+03 0.  0.
         25    1    1    2    0    0  0.61088299498E+02 -0.11123813013E+03  0.20958080102E+03  0.27505420209E+03  0.12500000000E+03 0.  0.
         25    1    1    2    0    0 -0.17090804747E+03  0.10670108206E+03  0.42941387554E+03  0.49052620532E+03  0.12500000000E+03 0.  0.
</event>
<event>
 5    0  0.5778875E-005  0.2910375E+03  0.7546771E-02  0.1089809E+00
         21   -1    0    0  502  501  0.00000000000E+00  0.00000000000E+00  0.23256375220E+03  0.23256375220E+03  0.00000000000E+00 0.  1.
         21   -1    0    0  501  502 -0.00000000000E+00 -0.00000000000E+00 -0.36421342010E+03  0.36421342010E+03  0.00000000000E+00 0.  1.
         25    1    1    2    0    0  0.52283334888E+02 -0.23265882947E+02 -0.15487594823E+03  0.20709033719E+03  0.12500000000E+03 0.  0.
         25    1    1    2    0    0 -0.16330039549E+03  0.38980176580E+01 -0.40663096711E+02  0.20966807374E+03  0.12500000000E+03 0.  0.
         25    1    1    2    0    0  0.11101706060E+03  0.19367865289E+02  0.63889377041E+02  0.18001876138E+03  0.12500000000E+03 0.  0.
</event>
<event>
 5    0  0.5778875E-005  0.2256303E+03  0.7546771E-02  0.1129754E+00
         21   -1    0    0  502  501  0.00000000000E+00  0.00000000000E+00  0.73577656744E+02  0.73577656744E+02  0.00000000000E+00 0.  1.
         21   -1    0    0  501  502 -0.00000000000E+00 -0.00000000000E+00 -0.69190884927E+03  0.69190884927E+03  0.00000000000E+00 0.  1.
         25    1    1    2    0    0 -0.43647745229E+02 -0.63595879797E+02 -0.32953066497E+03  0.36078389757E+03  0.12500000000E+03 0.  0.
         25    1    1    2    0    0  0.32855572615E+02 -0.49581658560E+01 -0.19397396363E+03  0.23314152489E+03  0.12500000000E+03 0.  0.
         25    1    1    2    0    0  0.10792172614E+02  0.68554045653E+02 -0.94826563927E+02  0.17156108356E+03  0.12500000000E+03 0.  0.
</event>
<event>
 5    0  0.5778875E-005  0.3083697E+03  0.7546771E-02  0.1081130E+00
         21   -1    0    0  502  501  0.00000000000E+00  0.00000000000E+00  0.65063343273E+03  0.65063343273E+03  0.00000000000E+00 0. -1.
         21   -1    0    0  501  502 -0.00000000000E+00 -0.00000000000E+00 -0.14615274656E+03  0.14615274656E+03  0.00000000000E+00 0. -1.
         25    1    1    2    0    0  0.47593549704E+02 -0.37441799810E+02 -0.84698178830E+00  0.13889835033E+03  0.12500000000E+03 0.  0.
         25    1    1    2    0    0 -0.24376630372E+02  0.16914969930E+03  0.38327343550E+03  0.43786912114E+03  0.12500000000E+03 0.  0.
         25    1    1    2    0    0 -0.23216919331E+02 -0.13170789949E+03  0.12205423245E+03  0.22001870782E+03  0.12500000000E+03 0.  0.
</event>
<event>
 5    0  0.5778875E-005  0.3310720E+03  0.7546771E-02  0.1070664E+00
         21   -1    0    0  502  501  0.00000000000E+00  0.00000000000E+00  0.43126478575E+03  0.43126478575E+03  0.00000000000E+00 0. -1.
         21   -1    0    0  501  502 -0.00000000000E+00 -0.00000000000E+00 -0.25415632969E+03  0.25415632969E+03  0.00000000000E+00 0. -1.
         25    1    1    2    0    0 -0.85978048030E+02  0.10522629313E+02 -0.72527089665E+02  0.16848777168E+03  0.12500000000E+03 0.  0.
         25    1    1    2    0    0 -0.16645114278E+02  0.33730227126E+02 -0.75723235194E+02  0.15090989497E+03  0.12500000000E+03 0.  0.
         25    1    1    2    0    0  0.10262316231E+03 -0.44252856438E+02  0.32535878091E+03  0.36602344879E+03  0.12500000000E+03 0.  0.
</event>
<event>
 5    0  0.5778875E-005  0.3084093E+03  0.7546771E-02  0.1081111E+00
         21   -1    0    0  502  501  0.00000000000E+00  0.00000000000E+00  0.12652578800E+03  0.12652578800E+03  0.00000000000E+00 0.  1.
         21   -1    0    0  501  502 -0.00000000000E+00 -0.00000000000E+00 -0.75175429881E+03  0.75175429881E+03  0.00000000000E+00 0.  1.
         25    1    1    2    0    0 -0.30790502109E+02  0.80167919067E+02 -0.31308962868E+03  0.34788657039E+03  0.12500000000E+03 0.  0.
         25    1    1    2    0    0  0.18001589619E+03 -0.60948150622E+02 -0.21062211935E+03  0.31001141447E+03  0.12500000000E+03 0.  0.
         25    1    1    2    0    0 -0.14922539408E+03 -0.19219768445E+02 -0.10151676277E+03  0.22038210195E+03  0.12500000000E+03 0.  0.
</event>
<event>
 5    0  0.5778875E-005  0.2345418E+03  0.7546771E-02  0.1123483E+00
         21   -1    0    0  502  501  0.00000000000E+00  0.00000000000E+00  0.97892236361E+02  0.97892236361E+02  0.00000000000E+00 0. -1.
         21   -1    0    0  501  502 -0.00000000000E+00 -0.00000000000E+00 -0.56194283484E+03  0.56194283484E+03  0.00000000000E+00 0. -1.
         25    1    1    2    0    0 -0.24196089178E+02  0.10757063554E+03 -0.17929185577E+03  0.24480086174E+03  0.12500000000E+03 0.  0.
         25    1    1    2    0    0  0.67788684961E+02 -0.69766494483E+02 -0.11133130883E+03  0.19360353790E+03  0.12500000000E+03 0.  0.
         25    1    1    2    0    0 -0.43592595783E+02 -0.37804141055E+02 -0.17342743388E+03  0.22143067157E+03  0.12500000000E+03 0.  0.
</event>
<event>
 5    0  0.5778875E-005  0.3260941E+03  0.7546771E-02  0.1072878E+00
         21   -1    0    0  502  501  0.00000000000E+00  0.00000000000E+00  0.30295816725E+03  0.30295816725E+03  0.00000000000E+00 0.  1.
         21   -1    0    0  501  502 -0.00000000000E+00 -0.00000000000E+00 -0.35099678701E+03  0.35099678701E+03  0.00000000000E+00 0.  1.
         25    1    1    2    0    0 -0.60586938916E+02 -0.11831410388E+03  0.19572650332E+03  0.26758712310E+03  0.12500000000E+03 0.  0.
         25    1    1    2    0    0  0.67682021001E+02  0.27565093194E+02 -0.12705551451E+03  0.19263642983E+03  0.12500000000E+03 0.  0.
         25    1    1    2    0    0 -0.70950820844E+01  0.90749010689E+02 -0.11670960857E+03  0.19373140134E+03  0.12500000000E+03 0.  0.
</event>
<event>
 5    0  0.5778875E-005  0.3738649E+03  0.7546771E-02  0.1053225E+00
         21   -1    0    0  502  501  0.00000000000E+00  0.00000000000E+00  0.45711892178E+03  0.45711892178E+03  0.00000000000E+00 0.  1.
         21   -1    0    0  501  502 -0.00000000000E+00 -0.00000000000E+00 -0.30577372914E+03  0.30577372914E+03  0.00000000000E+00 0.  1.
         25    1    1    2    0    0  0.65714940591E+01 -0.58285104644E+02  0.10097857890E+03  0.17106142567E+03  0.12500000000E+03 0.  0.
         25    1    1    2    0    0 -0.18229656520E+03  0.22497082175E+03  0.49650998849E+02  0.31927124833E+03  0.12500000000E+03 0.  0.
         25    1    1    2    0    0  0.17572507114E+03 -0.16668571710E+03  0.71561488898E+00  0.27255997692E+03  0.12500000000E+03 0.  0.
</event>
<event>
 5    0  0.5778875E-005  0.3575044E+03  0.7546771E-02  0.1059576E+00
         21   -1    0    0  502  501  0.00000000000E+00  0.00000000000E+00  0.21417997356E+03  0.21417997356E+03  0.00000000000E+00 0.  1.
         21   -1    0    0  501  502 -0.00000000000E+00 -0.00000000000E+00 -0.59673844856E+03  0.59673844856E+03  0.00000000000E+00 0.  1.
         25    1    1    2    0    0 -0.18398969621E+03 -0.16323846957E+03 -0.35630617990E+02  0.27819695756E+03  0.12500000000E+03 0.  0.
         25    1    1    2    0    0  0.17045047756E+03  0.13132115289E+03 -0.13201411650E+03  0.28169369437E+03  0.12500000000E+03 0.  0.
         25    1    1    2    0    0  0.13539218656E+02  0.31917316675E+02 -0.21491374050E+03  0.25102777018E+03  0.12500000000E+03 0.  0.
</event>
<event>
 5    0  0.5778875E-005  0.4694624E+03  0.7546771E-02  0.1022072E+00
         21   -1    0    0  502  501  0.00000000000E+00  0.00000000000E+00  0.42464419432E+03  0.42464419432E+03  0.00000000000E+00 0. -1.
         21   -1    0    0  501  502 -0.00000000000E+00 -0.00000000000E+00 -0.51901077672E+03  0.51901077672E+03  0.00000000000E+00 0. -1.
         25    1    1    2    0    0  0.95987081733E+02 -0.23335870312E+03  0.13523687592E+03  0.31238408537E+03  0.12500000000E+03 0.  0.
         25    1    1    2    0    0  0.10907532289E+03  0.81938597016E+02 -0.28713870113E+03  0.34159185211E+03  0.12500000000E+03 0.  0.
         25    1    1    2    0    0 -0.20506240462E+03  0.15142010611E+03  0.57535242812E+02  0.28967903357E+03  0.12500000000E+03 0.  0.
</event>
<event>
 5    0  0.5778875E-005  0.3293182E+03  0.7546771E-02  0.1071439E+00
         21   -1    0    0  502  501  0.00000000000E+00  0.00000000000E+00  0.50609844871E+03  0.50609844871E+03  0.00000000000E+00 0.  1.
         21   -1    0    0  501  502 -0.00000000000E+00 -0.00000000000E+00 -0.21428736651E+03  0.21428736651E+03  0.00000000000E+00 0.  1.
         25    1    1    2    0    0  0.19571455010E+03 -0.39803795220E+02  0.92048462042E+02  0.25295542414E+03  0.12500000000E+03 0.  0.
         25    1    1    2    0    0 -0.17184388739E+03  0.14330669809E+03  0.98047287873E+02  0.27441829752E+03  0.12500000000E+03 0.  0.
         25    1    1    2    0    0 -0.23870662707E+02 -0.10350290287E+03  0.10171533229E+03  0.19301209357E+03  0.12500000000E+03 0.  0.
</event>
<event>
 5    0  0.5778875E-005  0.4973196E+03  0.7546771E-02  0.1014481E+00
         21   -1    0    0  502  501  0.00000000000E+00  0.00000000000E+00  0.10505894910E+04  0.10505894910E+04  0.00000000000E+00 0.  1.
         21   -1    0    0  501  502 -0.00000000000E+00 -0.00000000000E+00 -0.23541718655E+03  0.23541718655E+03  0.00000000000E+00 0.  1.
         25    1    1    2    0    0 -0.26708997109E+03 -0.11049835161E+03  0.55107461399E+03  0.63470872733E+03  0.12500000000E+03 0.  0.
         25    1    1    2    0    0  0.22207004909E+03  0.27376660146E+03  0.10818239196E+03  0.38934777347E+03  0.12500000000E+03 0.  0.
         25    1    1    2    0    0  0.45019922003E+02 -0.16326824985E+03  0.15591529847E+03  0.26195017672E+03  0.12500000000E+03 0.  0.
</event>
<event>
 5    0  0.5778875E-005  0.2733942E+03  0.7546771E-02  0.1099353E+00
         21   -1    0    0  502  501  0.00000000000E+00  0.00000000000E+00  0.16803464391E+03  0.16803464391E+03  0.00000000000E+00 0.  1.
         21   -1    0    0  501  502 -0.00000000000E+00 -0.00000000000E+00 -0.44481536967E+03  0.44481536967E+03  0.00000000000E+00 0.  1.
         25    1    1    2    0    0  0.13619701241E+02 -0.13097116196E+03  0.18994181186E+02  0.18255059695E+03  0.12500000000E+03 0.  0.
         25    1    1    2    0    0 -0.60012422719E+02  0.22376979049E+02 -0.12713311923E+03  0.18944669455E+03  0.12500000000E+03 0.  0.
         25    1    1    2    0    0  0.46392721478E+02  0.10859418291E+03 -0.16864178772E+03  0.24085272208E+03  0.12500000000E+03 0.  0.
</event>
<event>
 5    0  0.5778875E-005  0.2036947E+03  0.7546771E-02  0.1146659E+00
         21   -1    0    0  502  501  0.00000000000E+00  0.00000000000E+00  0.20651909159E+03  0.20651909159E+03  0.00000000000E+00 0.  1.
         21   -1    0    0  501  502 -0.00000000000E+00 -0.00000000000E+00 -0.20090887953E+03  0.20090887953E+03  0.00000000000E+00 0.  1.
         25    1    1    2    0    0  0.27346199226E+01 -0.10870857620E+02  0.28679730247E+02  0.12873686581E+03  0.12500000000E+03 0.  0.
         25    1    1    2    0    0 -0.57187993987E+02  0.97487059423E+01 -0.33889909216E+02  0.14191204977E+03  0.12500000000E+03 0.  0.
         25    1    1    2    0    0  0.54453374064E+02  0.11221516777E+01  0.10820391023E+02  0.13677905554E+03  0.12500000000E+03 0.  0.
</event>
<event>
 5    0  0.5778875E-005  0.2970001E+03  0.7546771E-02  0.1086750E+00
         21   -1    0    0  502  501  0.00000000000E+00  0.00000000000E+00  0.76644276241E+02  0.76644276241E+02  0.00000000000E+00 0.  1.
         21   -1    0    0  501  502 -0.00000000000E+00 -0.00000000000E+00 -0.11508888164E+04  0.11508888164E+04  0.00000000000E+00 0.  1.
         25    1    1    2    0    0  0.10838916675E+03  0.12559577019E+03 -0.47267442177E+03  0.51630283551E+03  0.12500000000E+03 0.  0.
         25    1    1    2    0    0 -0.11113441118E+03  0.12067409160E+02 -0.41593502676E+03  0.44846786529E+03  0.12500000000E+03 0.  0.
         25    1    1    2    0    0  0.27452444245E+01 -0.13766317935E+03 -0.18563509159E+03  0.26276239180E+03  0.12500000000E+03 0.  0.
</event>
<event>
 5    0  0.5778875E-005  0.2418964E+03  0.7546771E-02  0.1118536E+00
         21   -1    0    0  502  501  0.00000000000E+00  0.00000000000E+00  0.14477352133E+03  0.14477352133E+03  0.00000000000E+00 0.  1.
         21   -1    0    0  501  502 -0.00000000000E+00 -0.00000000000E+00 -0.40417536798E+03  0.40417536798E+03  0.00000000000E+00 0.  1.
         25    1    1    2    0    0  0.88370392808E+02  0.94146691547E+02 -0.55812102067E+02  0.18818319955E+03  0.12500000000E+03 0.  0.
         25    1    1    2    0    0 -0.93632524763E+02 -0.58632478008E+02 -0.10000372845E+03  0.19450080431E+03  0.12500000000E+03 0.  0.
         25    1    1    2    0    0  0.52621319549E+01 -0.35514213539E+02 -0.10358601613E+03  0.16626488545E+03  0.12500000000E+03 0.  0.
</event>
<event>
 5    0  0.5778875E-005  0.2991191E+03  0.7546771E-02  0.1085682E+00
         21   -1    0    0  502  501  0.00000000000E+00  0.00000000000E+00  0.81180177426E+02  0.81180177426E+02  0.00000000000E+00 0.  1.
         21   -1    0    0  501  502 -0.00000000000E+00 -0.00000000000E+00 -0.11021436118E+04  0.11021436118E+04  0.00000000000E+00 0.  1.
         25    1    1    2    0    0  0.71121280426E+02 -0.11379986174E+03 -0.23656007991E+03  0.29932309712E+03  0.12500000000E+03 0.  0.
         25    1    1    2    0    0  0.92526389345E+02 -0.24283596046E+02 -0.25989399298E+03  0.30384323812E+03  0.12500000000E+03 0.  0.
         25    1    1    2    0    0 -0.16364766977E+03  0.13808345779E+03 -0.52450936148E+03  0.58015745398E+03  0.12500000000E+03 0.  0.
</event>
<event>
 5    0  0.5778875E-005  0.3387676E+03  0.7546771E-02  0.1067322E+00
         21   -1    0    0  502  501  0.00000000000E+00  0.00000000000E+00  0.47049845323E+03  0.47049845323E+03  0.00000000000E+00 0.  1.
         21   -1    0    0  501  502 -0.00000000000E+00 -0.00000000000E+00 -0.24391889658E+03  0.24391889658E+03  0.00000000000E+00 0.  1.
         25    1    1    2    0    0  0.96879830583E+00  0.33845785968E+02  0.15828289936E+03  0.20451149608E+03  0.12500000000E+03 0.  0.
         25    1    1    2    0    0  0.21740635618E+02 -0.13922153338E+03 -0.14677546197E+03  0.23879557540E+03  0.12500000000E+03 0.  0.
         25    1    1    2    0    0 -0.22709433924E+02  0.10537574742E+03  0.21507211926E+03  0.27111027833E+03  0.12500000000E+03 0.  0.
</event>
<event>
 5    0  0.5778875E-005  0.2940155E+03  0.7546771E-02  0.1088271E+00
         21   -1    0    0  502  501  0.00000000000E+00  0.00000000000E+00  0.79189478748E+03  0.79189478748E+03  0.00000000000E+00 0.  1.
         21   -1    0    0  501  502 -0.00000000000E+00 -0.00000000000E+00 -0.10916241003E+03  0.10916241003E+03  0.00000000000E+00 0.  1.
         25    1    1    2    0    0  0.13669454491E+03 -0.17212017796E+02  0.11076698966E+03  0.21650860990E+03  0.12500000000E+03 0.  0.
         25    1    1    2    0    0 -0.19088750896E+02  0.10515671098E+03  0.37204838739E+03  0.40677674077E+03  0.12500000000E+03 0.  0.
         25    1    1    2    0    0 -0.11760579402E+03 -0.87944693185E+02  0.19991700040E+03  0.27777184684E+03  0.12500000000E+03 0.  0.
</event>
<event>
 5    0  0.7174537E-005  0.4426719E+03  0.7546771E-02  0.1029930E+00
         21   -1    0    0  502  501  0.00000000000E+00  0.00000000000E+00  0.36215554881E+03  0.36215554881E+03  0.00000000000E+00 0.  1.
         21   -1    0    0  501  502 -0.00000000000E+00 -0.00000000000E+00 -0.54108909797E+03  0.54108909797E+03  0.00000000000E+00 0.  1.
         25    1    1    2    0    0  0.63882860629E+02 -0.56896891212E+02  0.17725774031E+03  0.23315999359E+03  0.12500000000E+03 0.  0.
         25    1    1    2    0    0 -0.79527532987E+02  0.27661348064E+03 -0.18287857041E+03  0.36319308596E+03  0.12500000000E+03 0.  0.
         25    1    1    2    0    0  0.15644672359E+02 -0.21971658942E+03 -0.17331271906E+03  0.30689156722E+03  0.12500000000E+03 0.  0.
</event>
<event>
 5    0  0.6279823E-005  0.2799041E+03  0.7546771E-02  0.1095741E+00
         21   -1    0    0  502  501  0.00000000000E+00  0.00000000000E+00  0.14464306702E+03  0.14464306702E+03  0.00000000000E+00 0.  1.
         21   -1    0    0  501  502 -0.00000000000E+00 -0.00000000000E+00 -0.54165275897E+03  0.54165275897E+03  0.00000000000E+00 0.  1.
         25    1    1    2    0    0 -0.10176281680E+03 -0.98929290641E+01 -0.79679011068E+02  0.18007577775E+03  0.12500000000E+03 0.  0.
         25    1    1    2    0    0  0.10743193011E+03 -0.42012933182E+02 -0.32887968177E+03  0.37026146335E+03  0.12500000000E+03 0.  0.
         25    1    1    2    0    0 -0.56691133026E+01  0.51905862246E+02  0.11549000895E+02  0.13595858488E+03  0.12500000000E+03 0.  0.
</event>
<event>
 5    0  0.7148810E-005  0.3316425E+03  0.7546771E-02  0.1070412E+00
         21   -1    0    0  502  501  0.00000000000E+00  0.00000000000E+00  0.77826034019E+03  0.77826034019E+03  0.00000000000E+00 0.  1.
         21   -1    0    0  501  502 -0.00000000000E+00 -0.00000000000E+00 -0.14132386078E+03  0.14132386078E+03  0.00000000000E+00 0.  1.
         25    1    1    2    0    0 -0.11822016077E+03  0.24021785100E+02  0.35875294653E+03  0.39859971051E+03  0.12500000000E+03 0.  0.
         25    1    1    2    0    0  0.12435997763E+03  0.61581054440E+02  0.31385131558E+03  0.36521949372E+03  0.12500000000E+03 0.  0.
         25    1    1    2    0    0 -0.61398168611E+01 -0.85602839540E+02 -0.35667782697E+02  0.15576499674E+03  0.12500000000E+03 0.  0.
</event>
<event>
 5    0  0.5778875E-005  0.3009794E+03  0.7546771E-02  0.1084752E+00
         21   -1    0    0  502  501  0.00000000000E+00  0.00000000000E+00  0.91029882185E+03  0.91029882185E+03  0.00000000000E+00 0.  1.
         21   -1    0    0  501  502 -0.00000000000E+00 -0.00000000000E+00 -0.99515233895E+02  0.99515233895E+02  0.00000000000E+00 0.  1.
         25    1    1    2    0    0 -0.64827778530E+01  0.12795674491E+03  0.55798922194E+03  0.58599652455E+03  0.12500000000E+03 0.  0.
         25    1    1    2    0    0  0.92097251265E+02 -0.93698555202E+02  0.10576767522E+03  0.20993599991E+03  0.12500000000E+03 0.  0.
         25    1    1    2    0    0 -0.85614473412E+02 -0.34258189709E+02  0.14702669079E+03  0.21388153128E+03  0.12500000000E+03 0.  0.
</event>
<event>
 5    0  0.5778875E-005  0.2824998E+03  0.7546771E-02  0.1094331E+00
         21   -1    0    0  502  501  0.00000000000E+00  0.00000000000E+00  0.61124664287E+03  0.61124664287E+03  0.00000000000E+00 0. -1.
         21   -1    0    0  501  502 -0.00000000000E+00 -0.00000000000E+00 -0.13056290240E+03  0.13056290240E+03  0.00000000000E+00 0. -1.
         25    1    1    2    0    0  0.56613789279E+02 -0.56394286641E+02  0.23563421415E+01  0.14837785903E+03  0.12500000000E+03 0.  0.
         25    1    1    2    0    0  0.49844101427E+02  0.62281089977E+02  0.36463891669E+03  0.39363677189E+03  0.12500000000E+03 0.  0.
         25    1    1    2    0    0 -0.10645789071E+03 -0.58868033359E+01  0.11368848163E+03  0.19979491436E+03  0.12500000000E+03 0.  0.
</event>
<event>
 5    0  0.5778875E-005  0.3920202E+03  0.7546771E-02  0.1046578E+00
         21   -1    0    0  502  501  0.00000000000E+00  0.00000000000E+00  0.76007318846E+03  0.76007318846E+03  0.00000000000E+00 0. -1.
         21   -1    0    0  501  502 -0.00000000000E+00 -0.00000000000E+00 -0.20219087958E+03  0.20219087958E+03  0.00000000000E+00 0. -1.
         25    1    1    2    0    0  0.82645050050E+02  0.11865812126E+03  0.47078409421E+02  0.19685357673E+03  0.12500000000E+03 0.  0.
         25    1    1    2    0    0  0.89449900955E+02 -0.18491975214E+03  0.48474404424E+03  0.54110848075E+03  0.12500000000E+03 0.  0.
         25    1    1    2    0    0 -0.17209495101E+03  0.66261630885E+02  0.26059855218E+02  0.22430201056E+03  0.12500000000E+03 0.  0.
</event>
<event>
 5    0  0.5778875E-005  0.2963206E+03  0.7546771E-02  0.1087094E+00
         21   -1    0    0  502  501  0.00000000000E+00  0.00000000000E+00  0.48730834598E+02  0.48730834598E+02  0.00000000000E+00 0. -1.
         21   -1    0    0  501  502 -0.00000000000E+00 -0.00000000000E+00 -0.18018552628E+04  0.18018552628E+04  0.00000000000E+00 0. -1.
         25    1    1    2    0    0  0.15414893723E+02  0.49759586402E+01 -0.15272066282E+03  0.19801762539E+03  0.12500000000E+03 0.  0.
         25    1    1    2    0    0 -0.11888740933E+03  0.59040357311E+02 -0.40050536169E+03  0.44005627439E+03  0.12500000000E+03 0.  0.
         25    1    1    2    0    0  0.10347251560E+03 -0.64016315951E+02 -0.11998984037E+04  0.12125121976E+04  0.12500000000E+03 0.  0.
</event>
<event>
 5    0  0.5778875E-005  0.7244256E+03  0.7546771E-02  0.9676350E-01
         21   -1    0    0  502  501  0.00000000000E+00  0.00000000000E+00  0.72939140578E+03  0.72939140578E+03  0.00000000000E+00 0. -1.
         21   -1    0    0  501  502 -0.00000000000E+00 -0.00000000000E+00 -0.71949352252E+03  0.71949352252E+03  0.00000000000E+00 0. -1.
         25    1    1    2    0    0 -0.54902464571E+03  0.29308235199E+03 -0.11855230803E+03  0.64575922478E+03  0.12500000000E+03 0.  0.
         25    1    1    2    0    0  0.30475749295E+03 -0.29823651584E+03  0.24216950581E+03  0.50605653679E+03  0.12500000000E+03 0.  0.
         25    1    1    2    0    0  0.24426715276E+03  0.51541638456E+01 -0.11371931451E+03  0.29706916672E+03  0.12500000000E+03 0.  0.
</event>
<event>
 5    0  0.5778875E-005  0.2783841E+03  0.7546771E-02  0.1096575E+00
         21   -1    0    0  502  501  0.00000000000E+00  0.00000000000E+00  0.49122319272E+03  0.49122319272E+03  0.00000000000E+00 0. -1.
         21   -1    0    0  501  502 -0.00000000000E+00 -0.00000000000E+00 -0.15776476916E+03  0.15776476916E+03  0.00000000000E+00 0. -1.
         25    1    1    2    0    0 -0.17093793898E+03 -0.65277638900E+02  0.11566202809E+03  0.24996730559E+03  0.12500000000E+03 0.  0.
         25    1    1    2    0    0  0.13925192146E+03 -0.37198799473E+01  0.13689427845E+03  0.23188354536E+03  0.12500000000E+03 0.  0.
         25    1    1    2    0    0  0.31686017522E+02  0.68997518847E+02  0.80902117011E+02  0.16713711093E+03  0.12500000000E+03 0.  0.
</event>
<event>
 5    0  0.5778875E-005  0.5983412E+03  0.7546771E-02  0.9908854E-01
         21   -1    0    0  502  501  0.00000000000E+00  0.00000000000E+00  0.12912573311E+04  0.12912573311E+04  0.00000000000E+00 0. -1.
         21   -1    0    0  501  502 -0.00000000000E+00 -0.00000000000E+00 -0.27725857487E+03  0.27725857487E+03  0.00000000000E+00 0. -1.
         25    1    1    2    0    0  0.35269476452E+03  0.90862366817E+02  0.22982727390E+02  0.38574962396E+03  0.12500000000E+03 0.  0.
         25    1    1    2    0    0  0.91677307569E+02  0.46568990423E+02  0.29245603029E+03  0.33425877587E+03  0.12500000000E+03 0.  0.
         25    1    1    2    0    0 -0.44437207209E+03 -0.13743135724E+03  0.69855999850E+03  0.84850750611E+03  0.12500000000E+03 0.  0.
</event>
<event>
 5    0  0.5778875E-005  0.3393582E+03  0.7546771E-02  0.1067070E+00
         21   -1    0    0  502  501  0.00000000000E+00  0.00000000000E+00  0.87423402220E+03  0.87423402220E+03  0.00000000000E+00 0. -1.
         21   -1    0    0  501  502 -0.00000000000E+00 -0.00000000000E+00 -0.13173127006E+03  0.13173127006E+03  0.00000000000E+00 0. -1.
         25    1    1    2    0    0  0.48402944459E+02  0.12837288642E+03  0.23391648181E+03  0.29860402452E+03  0.12500000000E+03 0.  0.
         25    1    1    2    0    0 -0.69604030258E+02 -0.15905320500E+03  0.35798310079E+02  0.21690818808E+03  0.12500000000E+03 0.  0.
         25    1    1    2    0    0  0.21201085798E+02  0.30680318587E+02  0.47278796025E+03  0.49045307966E+03  0.12500000000E+03 0.  0.
</event>
<event>
 5    0  0.5778875E-005  0.2948041E+03  0.7546771E-02  0.1087867E+00
         21   -1    0    0  502  501  0.00000000000E+00  0.00000000000E+00  0.14442884763E+04  0.14442884763E+04  0.00000000000E+00 0.  1.
         21   -1    0    0  501  502 -0.00000000000E+00 -0.00000000000E+00 -0.60174590535E+02  0.60174590535E+02  0.00000000000E+00 0.  1.
         25    1    1    2    0    0  0.63661608279E+02 -0.10308219141E+03  0.13213348912E+03  0.21854747196E+03  0.12500000000E+03 0.  0.
         25    1    1    2    0    0  0.81928125565E+01  0.61255036533E+02  0.70792201775E+03  0.72152469458E+03  0.12500000000E+03 0.  0.
         25    1    1    2    0    0 -0.71854420835E+02  0.41827154880E+02  0.54405837891E+03  0.56439090030E+03  0.12500000000E+03 0.  0.
</event>
<event>
 5    0  0.5778875E-005  0.3355951E+03  0.7546771E-02  0.1068688E+00
         21   -1    0    0  502  501  0.00000000000E+00  0.00000000000E+00  0.22461469559E+03  0.22461469559E+03  0.00000000000E+00 0.  1.
         21   -1    0    0  501  502 -0.00000000000E+00 -0.00000000000E+00 -0.50140999854E+03  0.50140999854E+03  0.00000000000E+00 0.  1.
         25    1    1    2    0    0 -0.22996864437E+03 -0.13922438152E+03 -0.10972991170E+03  0.31612443646E+03  0.12500000000E+03 0.  0.
         25    1    1    2    0    0  0.13381739506E+03  0.86253393466E+02 -0.56512763048E+02  0.21015574104E+03  0.12500000000E+03 0.  0.
         25    1    1    2    0    0  0.96151249319E+02  0.52970988052E+02 -0.11055262821E+03  0.19974451663E+03  0.12500000000E+03 0.  0.
</event>
<event>
 5    0  0.5778875E-005  0.3584745E+03  0.7546771E-02  0.1059190E+00
         21   -1    0    0  502  501  0.00000000000E+00  0.00000000000E+00  0.64346942440E+03  0.64346942440E+03  0.00000000000E+00 0. -1.
         21   -1    0    0  501  502 -0.00000000000E+00 -0.00000000000E+00 -0.19970485732E+03  0.19970485732E+03  0.00000000000E+00 0. -1.
         25    1    1    2    0    0 -0.18866567814E+03  0.15223211820E+03  0.18742005387E+02  0.27339644966E+03  0.12500000000E+03 0.  0.
         25    1    1    2    0    0  0.44682641216E+02 -0.60515592737E+00  0.18578633752E+03  0.22833849401E+03  0.12500000000E+03 0.  0.
         25    1    1    2    0    0  0.14398303692E+03 -0.15162696228E+03  0.23923622417E+03  0.34143933805E+03  0.12500000000E+03 0.  0.
</event>
<event>
 5    0  0.5778875E-005  0.2956929E+03  0.7546771E-02  0.1087414E+00
         21   -1    0    0  502  501  0.00000000000E+00  0.00000000000E+00  0.52442078322E+02  0.52442078322E+02  0.00000000000E+00 0. -1.
         21   -1    0    0  501  502 -0.00000000000E+00 -0.00000000000E+00 -0.16672543741E+04  0.16672543741E+04  0.00000000000E+00 0. -1.
         25    1    1    2    0    0 -0.40043275362E+02 -0.18193458820E+03 -0.75670271585E+03  0.78925766291E+03  0.12500000000E+03 0.  0.
         25    1    1    2    0    0 -0.69080299589E+02  0.67145908227E+02 -0.36622468696E+03  0.39878086980E+03  0.12500000000E+03 0.  0.
         25    1    1    2    0    0  0.10912357495E+03  0.11478867998E+03 -0.49188489301E+03  0.53165791975E+03  0.12500000000E+03 0.  0.
</event>
<event>
 5    0  0.5778875E-005  0.3664294E+03  0.7546771E-02  0.1056067E+00
         21   -1    0    0  502  501  0.00000000000E+00  0.00000000000E+00  0.80458449099E+02  0.80458449099E+02  0.00000000000E+00 0. -1.
         21   -1    0    0  501  502 -0.00000000000E+00 -0.00000000000E+00 -0.16688182761E+04  0.16688182761E+04  0.00000000000E+00 0. -1.
         25    1    1    2    0    0  0.95939097370E+02  0.30969939953E+02 -0.17389445696E+03  0.23670177385E+03  0.12500000000E+03 0.  0.
         25    1    1    2    0    0 -0.13284498037E+03  0.10634752596E+03 -0.12308768553E+04  0.12488556434E+04  0.12500000000E+03 0.  0.
         25    1    1    2    0    0  0.36905882999E+02 -0.13731746591E+03 -0.18358851472E+03  0.26371930794E+03  0.12500000000E+03 0.  0.
</event>
<event>
 5    0  0.5778875E-005  0.2687634E+03  0.7546771E-02  0.1101989E+00
         21   -1    0    0  502  501  0.00000000000E+00  0.00000000000E+00  0.25585911388E+03  0.25585911388E+03  0.00000000000E+00 0.  1.
         21   -1    0    0  501  502 -0.00000000000E+00 -0.00000000000E+00 -0.28231844464E+03  0.28231844464E+03  0.00000000000E+00 0.  1.
         25    1    1    2    0    0 -0.10529430419E+01 -0.31252972235E+02  0.12262403061E+03  0.17787498375E+03  0.12500000000E+03 0.  0.
         25    1    1    2    0    0  0.84069620697E+02  0.66783723762E+02 -0.34929328424E+02  0.16844234880E+03  0.12500000000E+03 0.  0.
         25    1    1    2    0    0 -0.83016677655E+02 -0.35530751527E+02 -0.11415403294E+03  0.19186022597E+03  0.12500000000E+03 0.  0.
</event>
<event>
 5    0  0.5778875E-005  0.3329789E+03  0.7546771E-02  0.1069826E+00
         21   -1    0    0  502  501  0.00000000000E+00  0.00000000000E+00  0.16594303971E+03  0.16594303971E+03  0.00000000000E+00 0.  1.
         21   -1    0    0  501  502 -0.00000000000E+00 -0.00000000000E+00 -0.66815083132E+03  0.66815083132E+03  0.00000000000E+00 0.  1.
         25    1    1    2    0    0  0.11298294082E+03 -0.31728931856E+02  0.96016554453E+01  0.17172379515E+03  0.12500000000E+03 0.  0.
         25    1    1    2    0    0 -0.41575404598E+02  0.11115594438E+03 -0.61537908923E+02  0.18301932268E+03  0.12500000000E+03 0.  0.
         25    1    1    2    0    0 -0.71407536219E+02 -0.79427012523E+02 -0.45027153813E+03  0.47935075321E+03  0.12500000000E+03 0.  0.
</event>
<event>
 5    0  0.5778875E-005  0.2520720E+03  0.7546771E-02  0.1112002E+00
         21   -1    0    0  502  501  0.00000000000E+00  0.00000000000E+00  0.81965194275E+02  0.81965194275E+02  0.00000000000E+00 0.  1.
         21   -1    0    0  501  502 -0.00000000000E+00 -0.00000000000E+00 -0.77521087439E+03  0.77521087439E+03  0.00000000000E+00 0.  1.
         25    1    1    2    0    0  0.90906547480E+01  0.44428236529E+02 -0.13025119153E+03  0.18613672690E+03  0.12500000000E+03 0.  0.
         25    1    1    2    0    0  0.83906171765E+02 -0.19474366182E+02 -0.45546763257E+03  0.48009921987E+03  0.12500000000E+03 0.  0.
         25    1    1    2    0    0 -0.92996826513E+02 -0.24953870347E+02 -0.10752685601E+03  0.19094012190E+03  0.12500000000E+03 0.  0.
</event>
<event>
 5    0  0.5778875E-005  0.2582136E+03  0.7546771E-02  0.1108221E+00
         21   -1    0    0  502  501  0.00000000000E+00  0.00000000000E+00  0.34012099620E+03  0.34012099620E+03  0.00000000000E+00 0.  1.
         21   -1    0    0  501  502 -0.00000000000E+00 -0.00000000000E+00 -0.19603099921E+03  0.19603099921E+03  0.00000000000E+00 0.  1.
         25    1    1    2    0    0  0.55034848834E+02  0.40086753553E+02 -0.49290744493E+02  0.15063319650E+03  0.12500000000E+03 0.  0.
         25    1    1    2    0    0  0.15718460965E+02  0.43284988697E+02  0.17277559707E+03  0.21816752096E+03  0.12500000000E+03 0.  0.
         25    1    1    2    0    0 -0.70753309799E+02 -0.83371742250E+02  0.20605144414E+02  0.16735127794E+03  0.12500000000E+03 0.  0.
</event>
<event>
 5    0  0.6374527E-005  0.2754173E+03  0.7546771E-02  0.1098219E+00
         21   -1    0    0  502  501  0.00000000000E+00  0.00000000000E+00  0.31367544655E+03  0.31367544655E+03  0.00000000000E+00 0.  1.
         21   -1    0    0  501  502 -0.00000000000E+00 -0.00000000000E+00 -0.24182537336E+03  0.24182537336E+03  0.00000000000E+00 0.  1.
         25    1    1    2    0    0  0.15032716511E+03  0.59392653540E+02  0.85648195236E+02  0.22155441141E+03  0.12500000000E+03 0.  0.
         25    1    1    2    0    0 -0.56775350456E+02  0.84272226727E+01 -0.70452488991E+02  0.15454129450E+03  0.12500000000E+03 0.  0.
         25    1    1    2    0    0 -0.93551814658E+02 -0.67819876213E+02  0.56654366946E+02  0.17940511400E+03  0.12500000000E+03 0.  0.
</event>
<event>
 5    0  0.5778875E-005  0.4292073E+03  0.7546771E-02  0.1034111E+00
         21   -1    0    0  502  501  0.00000000000E+00  0.00000000000E+00  0.69526109268E+03  0.69526109268E+03  0.00000000000E+00 0.  1.
         21   -1    0    0  501  502 -0.00000000000E+00 -0.00000000000E+00 -0.26496365478E+03  0.26496365478E+03  0.00000000000E+00 0.  1.
         25    1    1    2    0    0 -0.30222588615E+03 -0.10119835819E+03  0.15424600927E+03  0.37549757034E+03  0.12500000000E+03 0.  0.
         25    1    1    2    0    0 -0.20188972636E+02 -0.45151509843E+02  0.11195766220E+03  0.17494505304E+03  0.12500000000E+03 0.  0.
         25    1    1    2    0    0  0.32241485878E+03  0.14634986804E+03  0.16409376643E+03  0.40978212408E+03  0.12500000000E+03 0.  0.
</event>
<event>
 5    0  0.5778875E-005  0.2344630E+03  0.7546771E-02  0.1123537E+00
         21   -1    0    0  502  501  0.00000000000E+00  0.00000000000E+00  0.14721782568E+03  0.14721782568E+03  0.00000000000E+00 0. -1.
         21   -1    0    0  501  502 -0.00000000000E+00 -0.00000000000E+00 -0.37341188375E+03  0.37341188375E+03  0.00000000000E+00 0. -1.
         25    1    1    2    0    0 -0.46099106286E+02 -0.77173612877E+02 -0.16121538558E+03  0.22292665761E+03  0.12500000000E+03 0.  0.
         25    1    1    2    0    0 -0.11052912919E+02  0.85779611535E+02 -0.23016963583E+02  0.15373707832E+03  0.12500000000E+03 0.  0.
         25    1    1    2    0    0  0.57152019206E+02 -0.86059986586E+01 -0.41961708907E+02  0.14396597350E+03  0.12500000000E+03 0.  0.
</event>
<event>
 5    0  0.5778875E-005  0.2873756E+03  0.7546771E-02  0.1091727E+00
         21   -1    0    0  502  501  0.00000000000E+00  0.00000000000E+00  0.24213521487E+04  0.24213521487E+04  0.00000000000E+00 0.  1.
         21   -1    0    0  501  502 -0.00000000000E+00 -0.00000000000E+00 -0.34106866012E+02  0.34106866012E+02  0.00000000000E+00 0.  1.
         25    1    1    2    0    0  0.11043831821E+03  0.67176102694E+02  0.89460659604E+03  0.91249943155E+03  0.12500000000E+03 0.  0.
         25    1    1    2    0    0  0.38243491226E+02  0.20163871652E+02  0.96399579688E+03  0.97302725694E+03  0.12500000000E+03 0.  0.
         25    1    1    2    0    0 -0.14868180944E+03 -0.87339974345E+02  0.52864288981E+03  0.56993232626E+03  0.12500000000E+03 0.  0.
</event>
<event>
 5    0  0.5778875E-005  0.2512713E+03  0.7546771E-02  0.1112504E+00
         21   -1    0    0  502  501  0.00000000000E+00  0.00000000000E+00  0.97734681888E+02  0.97734681888E+02  0.00000000000E+00 0. -1.
         21   -1    0    0  501  502 -0.00000000000E+00 -0.00000000000E+00 -0.64600688288E+03  0.64600688288E+03  0.00000000000E+00 0. -1.
         25    1    1    2    0    0  0.36071656359E+02 -0.38357230923E+02 -0.45530500954E+02  0.14307504350E+03  0.12500000000E+03 0.  0.
         25    1    1    2    0    0 -0.15142631251E+02 -0.70061465878E+02 -0.13761723530E+03  0.19925213106E+03  0.12500000000E+03 0.  0.
         25    1    1    2    0    0 -0.20929025108E+02  0.10841869680E+03 -0.36512446474E+03  0.40141439020E+03  0.12500000000E+03 0.  0.
</event>
<event>
 5    0  0.5778875E-005  0.2396419E+03  0.7546771E-02  0.1120032E+00
         21   -1    0    0  502  501  0.00000000000E+00  0.00000000000E+00  0.39128771350E+02  0.39128771350E+02  0.00000000000E+00 0. -1.
         21   -1    0    0  501  502 -0.00000000000E+00 -0.00000000000E+00 -0.14676724706E+04  0.14676724706E+04  0.00000000000E+00 0. -1.
         25    1    1    2    0    0  0.16986190859E+01 -0.70197274465E+02 -0.90180196303E+03  0.91312776936E+03  0.12500000000E+03 0.  0.
         25    1    1    2    0    0  0.18321199869E+02  0.11801420073E+02 -0.18251832653E+03  0.22229007940E+03  0.12500000000E+03 0.  0.
         25    1    1    2    0    0 -0.20019818955E+02  0.58395854391E+02 -0.34422340972E+03  0.37138339322E+03  0.12500000000E+03 0.  0.
</event>
<event>
 5    0  0.5778875E-005  0.2619385E+03  0.7546771E-02  0.1105984E+00
         21   -1    0    0  502  501  0.00000000000E+00  0.00000000000E+00  0.13915994580E+04  0.13915994580E+04  0.00000000000E+00 0.  1.
         21   -1    0    0  501  502 -0.00000000000E+00 -0.00000000000E+00 -0.49304263260E+02  0.49304263260E+02  0.00000000000E+00 0.  1.
         25    1    1    2    0    0  0.40689883912E+02 -0.18023263231E+02  0.15993892546E+03  0.20781233012E+03  0.12500000000E+03 0.  0.
         25    1    1    2    0    0 -0.13458734135E+03 -0.28706614184E+02  0.58335091648E+03  0.61225902517E+03  0.12500000000E+03 0.  0.
         25    1    1    2    0    0  0.93897457441E+02  0.46729877416E+02  0.59900535284E+03  0.62083236601E+03  0.12500000000E+03 0.  0.
</event>
<event>
 5    0  0.5778875E-005  0.3407976E+03  0.7546771E-02  0.1066457E+00
         21   -1    0    0  502  501  0.00000000000E+00  0.00000000000E+00  0.91495001196E+03  0.91495001196E+03  0.00000000000E+00 0.  1.
         21   -1    0    0  501  502 -0.00000000000E+00 -0.00000000000E+00 -0.12693917204E+03  0.12693917204E+03  0.00000000000E+00 0.  1.
         25    1    1    2    0    0 -0.13546579411E+03  0.12718792495E+03  0.67257317453E+02  0.23382963110E+03  0.12500000000E+03 0.  0.
         25    1    1    2    0    0  0.90831092426E+02 -0.53835716439E+02  0.57460414755E+03  0.59744748564E+03  0.12500000000E+03 0.  0.
         25    1    1    2    0    0  0.44634701683E+02 -0.73352208514E+02  0.14614937492E+03  0.21061206726E+03  0.12500000000E+03 0.  0.
</event>
<event>
 5    0  0.5778875E-005  0.2844606E+03  0.7546771E-02  0.1093277E+00
         21   -1    0    0  502  501  0.00000000000E+00  0.00000000000E+00  0.70476064720E+03  0.70476064720E+03  0.00000000000E+00 0. -1.
         21   -1    0    0  501  502 -0.00000000000E+00 -0.00000000000E+00 -0.11481605784E+03  0.11481605784E+03  0.00000000000E+00 0. -1.
         25    1    1    2    0    0  0.14723536167E+03  0.83242188135E+01  0.20878604669E+03  0.28454201384E+03  0.12500000000E+03 0.  0.
         25    1    1    2    0    0 -0.72549467159E+02  0.53893001889E+02  0.33703347330E+03  0.37065407453E+03  0.12500000000E+03 0.  0.
         25    1    1    2    0    0 -0.74685894509E+02 -0.62217220702E+02  0.44125069371E+02  0.16438061667E+03  0.12500000000E+03 0.  0.
</event>
<event>
 5    0  0.5778875E-005  0.4612459E+03  0.7546771E-02  0.1024420E+00
         21   -1    0    0  502  501  0.00000000000E+00  0.00000000000E+00  0.26924344069E+03  0.26924344069E+03  0.00000000000E+00 0.  1.
         21   -1    0    0  501  502 -0.00000000000E+00 -0.00000000000E+00 -0.79016889170E+03  0.79016889170E+03  0.00000000000E+00 0.  1.
         25    1    1    2    0    0 -0.33619067806E+03 -0.12990717114E+03 -0.20016022536E+03  0.43080060462E+03  0.12500000000E+03 0.  0.
         25    1    1    2    0    0 -0.99208330303E+01  0.79633163482E+02 -0.17519834505E+03  0.22969397850E+03  0.12500000000E+03 0.  0.
         25    1    1    2    0    0  0.34611151109E+03  0.50274007658E+02 -0.14556688061E+03  0.39891774927E+03  0.12500000000E+03 0.  0.
</event>
<event>
 5    0  0.5778875E-005  0.3997002E+03  0.7546771E-02  0.1043884E+00
         21   -1    0    0  502  501  0.00000000000E+00  0.00000000000E+00  0.59073382101E+03  0.59073382101E+03  0.00000000000E+00 0.  1.
         21   -1    0    0  501  502 -0.00000000000E+00 -0.00000000000E+00 -0.27044375914E+03  0.27044375914E+03  0.00000000000E+00 0.  1.
         25    1    1    2    0    0 -0.25438520915E+03 -0.50448881709E+02  0.54042624064E+02  0.29292068809E+03  0.12500000000E+03 0.  0.
         25    1    1    2    0    0  0.82149487609E+01  0.15740895765E+03  0.14656123603E+03  0.24889809408E+03  0.12500000000E+03 0.  0.
         25    1    1    2    0    0  0.24617026039E+03 -0.10696007595E+03  0.11968620179E+03  0.31935879797E+03  0.12500000000E+03 0.  0.
</event>
<event>
 5    0  0.5778875E-005  0.2534314E+03  0.7546771E-02  0.1111155E+00
         21   -1    0    0  502  501  0.00000000000E+00  0.00000000000E+00  0.11416864884E+03  0.11416864884E+03  0.00000000000E+00 0.  1.
         21   -1    0    0  501  502 -0.00000000000E+00 -0.00000000000E+00 -0.56256676004E+03  0.56256676004E+03  0.00000000000E+00 0.  1.
         25    1    1    2    0    0  0.66606434154E+02  0.77881262511E+02 -0.12359229495E+03  0.20347472445E+03  0.12500000000E+03 0.  0.
         25    1    1    2    0    0 -0.58874351641E+02 -0.51353711766E+02 -0.28024150660E+02  0.15004581305E+03  0.12500000000E+03 0.  0.
         25    1    1    2    0    0 -0.77320825133E+01 -0.26527550745E+02 -0.29678166560E+03  0.32321487138E+03  0.12500000000E+03 0.  0.
</event>
<event>
 5    0  0.5778875E-005  0.3408554E+03  0.7546771E-02  0.1066432E+00
         21   -1    0    0  502  501  0.00000000000E+00  0.00000000000E+00  0.87386103983E+02  0.87386103983E+02  0.00000000000E+00 0. -1.
         21   -1    0    0  501  502 -0.00000000000E+00 -0.00000000000E+00 -0.13295292936E+04  0.13295292936E+04  0.00000000000E+00 0. -1.
         25    1    1    2    0    0  0.14103083016E+03 -0.16656081650E+03 -0.53124137521E+03  0.58777087320E+03  0.12500000000E+03 0.  0.
         25    1    1    2    0    0 -0.22560569100E+02  0.20108507140E+03 -0.50702463361E+03  0.56003853823E+03  0.12500000000E+03 0.  0.
         25    1    1    2    0    0 -0.11847026106E+03 -0.34524254899E+02 -0.20387718080E+03  0.26910598615E+03  0.12500000000E+03 0.  0.
</event>
<event>
 5    0  0.5778875E-005  0.2926000E+03  0.7546771E-02  0.1088999E+00
         21   -1    0    0  502  501  0.00000000000E+00  0.00000000000E+00  0.59251713783E+03  0.59251713783E+03  0.00000000000E+00 0. -1.
         21   -1    0    0  501  502 -0.00000000000E+00 -0.00000000000E+00 -0.14449327882E+03  0.14449327882E+03  0.00000000000E+00 0. -1.
         25    1    1    2    0    0  0.63186202028E+02  0.97680241095E+02  0.72732324565E+02  0.18560419355E+03  0.12500000000E+03 0.  0.
         25    1    1    2    0    0  0.84955533700E+02 -0.12883210210E+03  0.13058244587E+03  0.23768030715E+03  0.12500000000E+03 0.  0.
         25    1    1    2    0    0 -0.14814173573E+03  0.31151861001E+02  0.24470908858E+03  0.31372591596E+03  0.12500000000E+03 0.  0.
</event>
<event>
 5    0  0.5778875E-005  0.3892561E+03  0.7546771E-02  0.1047565E+00
         21   -1    0    0  502  501  0.00000000000E+00  0.00000000000E+00  0.24916749294E+03  0.24916749294E+03  0.00000000000E+00 0.  1.
         21   -1    0    0  501  502 -0.00000000000E+00 -0.00000000000E+00 -0.60810630984E+03  0.60810630984E+03  0.00000000000E+00 0.  1.
         25    1    1    2    0    0 -0.13206571488E+03  0.43427830503E+02  0.57540693370E+02  0.19560997138E+03  0.12500000000E+03 0.  0.
         25    1    1    2    0    0  0.22178200589E+03 -0.16458867108E+03 -0.32838407224E+03  0.44692033707E+03  0.12500000000E+03 0.  0.
         25    1    1    2    0    0 -0.89716291003E+02  0.12116084057E+03 -0.88095438025E+02  0.21474349434E+03  0.12500000000E+03 0.  0.
</event>
<event>
 5    0  0.5778875E-005  0.2295232E+03  0.7546771E-02  0.1126976E+00
         21   -1    0    0  502  501  0.00000000000E+00  0.00000000000E+00  0.14280744195E+04  0.14280744195E+04  0.00000000000E+00 0. -1.
         21   -1    0    0  501  502 -0.00000000000E+00 -0.00000000000E+00 -0.36889448210E+02  0.36889448210E+02  0.00000000000E+00 0. -1.
         25    1    1    2    0    0  0.36501056573E+02  0.51827865857E+02  0.52103900799E+03  0.53956010106E+03  0.12500000000E+03 0.  0.
         25    1    1    2    0    0  0.10788441363E+02  0.59877889181E+02  0.33788484900E+03  0.36536683383E+03  0.12500000000E+03 0.  0.
         25    1    1    2    0    0 -0.47289497936E+02 -0.11170575504E+03  0.53226111432E+03  0.56003693284E+03  0.12500000000E+03 0.  0.
</event>
<event>
 5    0  0.5778875E-005  0.3117069E+03  0.7546771E-02  0.1079531E+00
         21   -1    0    0  502  501  0.00000000000E+00  0.00000000000E+00  0.20415952606E+03  0.20415952606E+03  0.00000000000E+00 0.  1.
         21   -1    0    0  501  502 -0.00000000000E+00 -0.00000000000E+00 -0.47590807044E+03  0.47590807044E+03  0.00000000000E+00 0.  1.
         25    1    1    2    0    0  0.12854112988E+03  0.10828323757E+03 -0.19365860804E+03  0.28526608294E+03  0.12500000000E+03 0.  0.
         25    1    1    2    0    0 -0.10240757701E+03  0.59458662248E+02 -0.63340263258E+02  0.18346561884E+03  0.12500000000E+03 0.  0.
         25    1    1    2    0    0 -0.26133552864E+02 -0.16774189982E+03 -0.14749673076E+02  0.21133589472E+03  0.12500000000E+03 0.  0.
</event>
<event>
 5    0  0.5778875E-005  0.2554233E+03  0.7546771E-02  0.1109925E+00
         21   -1    0    0  502  501  0.00000000000E+00  0.00000000000E+00  0.50044482325E+03  0.50044482325E+03  0.00000000000E+00 0.  1.
         21   -1    0    0  501  502 -0.00000000000E+00 -0.00000000000E+00 -0.13036618907E+03  0.13036618907E+03  0.00000000000E+00 0.  1.
         25    1    1    2    0    0  0.63834503586E+02  0.90867080621E+02  0.26632427044E+03  0.31446031104E+03  0.12500000000E+03 0.  0.
         25    1    1    2    0    0 -0.83410368886E+02 -0.35754748210E+02  0.22220131697E+02  0.15605904623E+03  0.12500000000E+03 0.  0.
         25    1    1    2    0    0  0.19575865300E+02 -0.55112332411E+02  0.81534232044E+02  0.16029165506E+03  0.12500000000E+03 0.  0.
</event>
<event>
 5    0  0.6075956E-005  0.2855341E+03  0.7546771E-02  0.1092704E+00
         21   -1    0    0  502  501  0.00000000000E+00  0.00000000000E+00  0.28760543549E+03  0.28760543549E+03  0.00000000000E+00 0. -1.
         21   -1    0    0  501  502 -0.00000000000E+00 -0.00000000000E+00 -0.28347768831E+03  0.28347768831E+03  0.00000000000E+00 0. -1.
         25    1    1    2    0    0 -0.83830924322E+02 -0.79529736240E+01 -0.16153752202E+03  0.22093040688E+03  0.12500000000E+03 0.  0.
         25    1    1    2    0    0  0.66650925233E+02 -0.68440815376E+02  0.58573534115E+02  0.16787599573E+03  0.12500000000E+03 0.  0.
         25    1    1    2    0    0  0.17179999089E+02  0.76393789001E+02  0.10709173509E+03  0.18227672120E+03  0.12500000000E+03 0.  0.
</event>
<event>
 5    0  0.5778875E-005  0.4196322E+03  0.7546771E-02  0.1037186E+00
         21   -1    0    0  502  501  0.00000000000E+00  0.00000000000E+00  0.43172553158E+03  0.43172553158E+03  0.00000000000E+00 0.  1.
         21   -1    0    0  501  502 -0.00000000000E+00 -0.00000000000E+00 -0.40787754596E+03  0.40787754596E+03  0.00000000000E+00 0.  1.
         25    1    1    2    0    0 -0.23792027597E+03  0.12990499508E+03  0.10960109251E+03  0.31799176867E+03  0.12500000000E+03 0.  0.
         25    1    1    2    0    0  0.20488129109E+03 -0.21647824049E+03 -0.14612869676E+03  0.35470800394E+03  0.12500000000E+03 0.  0.
         25    1    1    2    0    0  0.33038984874E+02  0.86573245405E+02  0.60375589884E+02  0.16690330493E+03  0.12500000000E+03 0.  0.
</event>
<event>
 5    0  0.5778875E-005  0.3222168E+03  0.7546771E-02  0.1074634E+00
         21   -1    0    0  502  501  0.00000000000E+00  0.00000000000E+00  0.15953408128E+03  0.15953408128E+03  0.00000000000E+00 0.  1.
         21   -1    0    0  501  502 -0.00000000000E+00 -0.00000000000E+00 -0.65079285413E+03  0.65079285413E+03  0.00000000000E+00 0.  1.
         25    1    1    2    0    0 -0.16720503938E+03  0.66296699785E+02 -0.53974108763E+02  0.22559029681E+03  0.12500000000E+03 0.  0.
         25    1    1    2    0    0  0.34462533886E+02  0.26854753087E+02 -0.32562452990E+03  0.35151838996E+03  0.12500000000E+03 0.  0.
         25    1    1    2    0    0  0.13274250550E+03 -0.93151452873E+02 -0.11166013418E+03  0.23321824865E+03  0.12500000000E+03 0.  0.
</event>
<event>
 5    0  0.5778875E-005  0.2736829E+03  0.7546771E-02  0.1099190E+00
         21   -1    0    0  502  501  0.00000000000E+00  0.00000000000E+00  0.92599080739E+02  0.92599080739E+02  0.00000000000E+00 0.  1.
         21   -1    0    0  501  502 -0.00000000000E+00 -0.00000000000E+00 -0.80888843537E+03  0.80888843537E+03  0.00000000000E+00 0.  1.
         25    1    1    2    0    0 -0.13764599298E+03 -0.27346421045E+02 -0.44718894521E+03  0.48507442609E+03  0.12500000000E+03 0.  0.
         25    1    1    2    0    0 -0.59921180999E+01  0.13034677520E+02 -0.90819233404E+02  0.15517390713E+03  0.12500000000E+03 0.  0.
         25    1    1    2    0    0  0.14363811108E+03  0.14311743525E+02 -0.17828117602E+03  0.26123918289E+03  0.12500000000E+03 0.  0.
</event>
<event>
 5    0  0.5778875E-005  0.3769306E+03  0.7546771E-02  0.1052074E+00
         21   -1    0    0  502  501  0.00000000000E+00  0.00000000000E+00  0.58212206354E+03  0.58212206354E+03  0.00000000000E+00 0. -1.
         21   -1    0    0  501  502 -0.00000000000E+00 -0.00000000000E+00 -0.24406687682E+03  0.24406687682E+03  0.00000000000E+00 0. -1.
         25    1    1    2    0    0  0.15912391288E+03  0.47104528406E+02  0.35154177709E+03  0.40834529174E+03  0.12500000000E+03 0.  0.
         25    1    1    2    0    0 -0.14474150354E+03 -0.15923509669E+03 -0.14821058980E+02  0.24930018583E+03  0.12500000000E+03 0.  0.
         25    1    1    2    0    0 -0.14382409334E+02  0.11213056828E+03  0.13344686113E+01  0.16854346279E+03  0.12500000000E+03 0.  0.
</event>
<event>
 5    0  0.5778875E-005  0.3378365E+03  0.7546771E-02  0.1067721E+00
         21   -1    0    0  502  501  0.00000000000E+00  0.00000000000E+00  0.14007968065E+03  0.14007968065E+03  0.00000000000E+00 0. -1.
         21   -1    0    0  501  502 -0.00000000000E+00 -0.00000000000E+00 -0.81477567032E+03  0.81477567032E+03  0.00000000000E+00 0. -1.
         25    1    1    2    0    0 -0.40388063585E+02  0.52965617112E+01 -0.17599045134E+02  0.13264228449E+03  0.12500000000E+03 0.  0.
         25    1    1    2    0    0 -0.86079127643E+02  0.17431973392E+03 -0.23088371586E+03  0.32669446904E+03  0.12500000000E+03 0.  0.
         25    1    1    2    0    0  0.12646719123E+03 -0.17961629564E+03 -0.42621322868E+03  0.49551859745E+03  0.12500000000E+03 0.  0.
</event>
<event>
 5    0  0.5778875E-005  0.3480560E+03  0.7546771E-02  0.1063416E+00
         21   -1    0    0  502  501  0.00000000000E+00  0.00000000000E+00  0.45641346839E+03  0.45641346839E+03  0.00000000000E+00 0.  1.
         21   -1    0    0  501  502 -0.00000000000E+00 -0.00000000000E+00 -0.26542371317E+03  0.26542371317E+03  0.00000000000E+00 0.  1.
         25    1    1    2    0    0 -0.15659168813E+03  0.27917590474E+02  0.14235402233E+03  0.24736615840E+03  0.12500000000E+03 0.  0.
         25    1    1    2    0    0  0.19904139240E+03  0.66522689112E+02 -0.90689012845E+02  0.26056139604E+03  0.12500000000E+03 0.  0.
         25    1    1    2    0    0 -0.42449704266E+02 -0.94440279586E+02  0.13932474574E+03  0.21390962712E+03  0.12500000000E+03 0.  0.
</event>
<event>
 5    0  0.5778875E-005  0.4825416E+03  0.7546771E-02  0.1018439E+00
         21   -1    0    0  502  501  0.00000000000E+00  0.00000000000E+00  0.37648796967E+03  0.37648796967E+03  0.00000000000E+00 0. -1.
         21   -1    0    0  501  502 -0.00000000000E+00 -0.00000000000E+00 -0.61846979367E+03  0.61846979367E+03  0.00000000000E+00 0. -1.
         25    1    1    2    0    0  0.14735223667E+02  0.21832003673E+03 -0.32826538633E+03  0.41384046336E+03  0.12500000000E+03 0.  0.
         25    1    1    2    0    0 -0.24718676319E+02 -0.35745275477E+03  0.12157091911E+02  0.37967918001E+03  0.12500000000E+03 0.  0.
         25    1    1    2    0    0  0.99834526520E+01  0.13913271805E+03  0.74126470427E+02  0.20143811997E+03  0.12500000000E+03 0.  0.
</event>
<event>
 5    0  0.5778875E-005  0.2768444E+03  0.7546771E-02  0.1097425E+00
         21   -1    0    0  502  501  0.00000000000E+00  0.00000000000E+00  0.12155969155E+03  0.12155969155E+03  0.00000000000E+00 0. -1.
         21   -1    0    0  501  502 -0.00000000000E+00 -0.00000000000E+00 -0.63049540800E+03  0.63049540800E+03  0.00000000000E+00 0. -1.
         25    1    1    2    0    0 -0.39640792902E+02  0.94055858382E+02 -0.23110898658E+03  0.28187632152E+03  0.12500000000E+03 0.  0.
         25    1    1    2    0    0  0.42221343813E+02 -0.18190132651E+03 -0.18759029439E+03  0.29272145977E+03  0.12500000000E+03 0.  0.
         25    1    1    2    0    0 -0.25805509105E+01  0.87845468130E+02 -0.90236435477E+02  0.17745731825E+03  0.12500000000E+03 0.  0.
</event>
<event>
 5    0  0.5778875E-005  0.2513723E+03  0.7546771E-02  0.1112441E+00
         21   -1    0    0  502  501  0.00000000000E+00  0.00000000000E+00  0.18662289531E+03  0.18662289531E+03  0.00000000000E+00 0. -1.
         21   -1    0    0  501  502 -0.00000000000E+00 -0.00000000000E+00 -0.33858659821E+03  0.33858659821E+03  0.00000000000E+00 0. -1.
         25    1    1    2    0    0  0.35069886386E+02  0.88220420727E+02 -0.19649856532E+03  0.25149438510E+03  0.12500000000E+03 0.  0.
         25    1    1    2    0    0 -0.22728355190E+00 -0.45194362163E+02  0.29728280728E+02  0.13620335056E+03  0.12500000000E+03 0.  0.
         25    1    1    2    0    0 -0.34842602834E+02 -0.43026058564E+02  0.14806581687E+02  0.13751175786E+03  0.12500000000E+03 0.  0.
</event>
<event>
 5    0  0.5778875E-005  0.3285831E+03  0.7546771E-02  0.1071766E+00
         21   -1    0    0  502  501  0.00000000000E+00  0.00000000000E+00  0.39205706958E+02  0.39205706958E+02  0.00000000000E+00 0.  1.
         21   -1    0    0  501  502 -0.00000000000E+00 -0.00000000000E+00 -0.27538551427E+04  0.27538551427E+04  0.00000000000E+00 0.  1.
         25    1    1    2    0    0  0.34024404661E+02  0.15774951651E+02 -0.16936731521E+04  0.16986936909E+04  0.12500000000E+03 0.  0.
         25    1    1    2    0    0 -0.14423856733E+03 -0.79748737285E+02 -0.66014284184E+03  0.69179346414E+03  0.12500000000E+03 0.  0.
         25    1    1    2    0    0  0.11021416266E+03  0.63973785634E+02 -0.36083344174E+03  0.40257369459E+03  0.12500000000E+03 0.  0.
</event>
<event>
 5    0  0.5778875E-005  0.2832385E+03  0.7546771E-02  0.1093933E+00
         21   -1    0    0  502  501  0.00000000000E+00  0.00000000000E+00  0.72524748060E+03  0.72524748060E+03  0.00000000000E+00 0.  1.
         21   -1    0    0  501  502 -0.00000000000E+00 -0.00000000000E+00 -0.11061612301E+03  0.11061612301E+03  0.00000000000E+00 0.  1.
         25    1    1    2    0    0  0.69493830279E+02  0.39213879223E+02  0.26341947455E+03  0.30229445966E+03  0.12500000000E+03 0.  0.
         25    1    1    2    0    0 -0.30146294489E+02 -0.87201537998E+02  0.36166307463E+03  0.39362175607E+03  0.12500000000E+03 0.  0.
         25    1    1    2    0    0 -0.39347535790E+02  0.47987658774E+02 -0.10451191592E+02  0.13994738788E+03  0.12500000000E+03 0.  0.
</event>
<event>
 5    0  0.5778875E-005  0.3743152E+03  0.7546771E-02  0.1053055E+00
         21   -1    0    0  502  501  0.00000000000E+00  0.00000000000E+00  0.41024651491E+03  0.41024651491E+03  0.00000000000E+00 0.  1.
         21   -1    0    0  501  502 -0.00000000000E+00 -0.00000000000E+00 -0.34153090368E+03  0.34153090368E+03  0.00000000000E+00 0.  1.
         25    1    1    2    0    0 -0.93682033510E+02 -0.12561776905E+02 -0.60825766617E+02  0.16810382365E+03  0.12500000000E+03 0.  0.
         25    1    1    2    0    0  0.22158582563E+02 -0.23416660213E+03  0.13353286533E+03  0.29796145129E+03  0.12500000000E+03 0.  0.
         25    1    1    2    0    0  0.71523450948E+02  0.24672837903E+03 -0.39914874738E+01  0.28571214365E+03  0.12500000000E+03 0.  0.
</event>
<event>
 5    0  0.5778875E-005  0.2479920E+03  0.7546771E-02  0.1114580E+00
         21   -1    0    0  502  501  0.00000000000E+00  0.00000000000E+00  0.64714211622E+02  0.64714211622E+02  0.00000000000E+00 0.  1.
         21   -1    0    0  501  502 -0.00000000000E+00 -0.00000000000E+00 -0.95033259295E+03  0.95033259295E+03  0.00000000000E+00 0.  1.
         25    1    1    2    0    0  0.68152500985E+01 -0.42266164238E+02 -0.62167542919E+03  0.63556133892E+03  0.12500000000E+03 0.  0.
         25    1    1    2    0    0 -0.20206145131E+02 -0.23546524748E+02 -0.10295318996E+03  0.16488507043E+03  0.12500000000E+03 0.  0.
         25    1    1    2    0    0  0.13390895032E+02  0.65812688987E+02 -0.16098976218E+03  0.21460039522E+03  0.12500000000E+03 0.  0.
</event>
<event>
 5    0  0.5778875E-005  0.2872680E+03  0.7546771E-02  0.1091784E+00
         21   -1    0    0  502  501  0.00000000000E+00  0.00000000000E+00  0.33719876441E+03  0.33719876441E+03  0.00000000000E+00 0. -1.
         21   -1    0    0  501  502 -0.00000000000E+00 -0.00000000000E+00 -0.24473076724E+03  0.24473076724E+03  0.00000000000E+00 0. -1.
         25    1    1    2    0    0 -0.38926877789E+02 -0.61811114492E+02  0.16555933527E+03  0.21993364723E+03  0.12500000000E+03 0.  0.
         25    1    1    2    0    0 -0.20536744218E+02 -0.83210138245E+02 -0.52788395334E+02  0.16049080862E+03  0.12500000000E+03 0.  0.
         25    1    1    2    0    0  0.59463622007E+02  0.14502125274E+03 -0.20302942766E+02  0.20150507580E+03  0.12500000000E+03 0.  0.
</event>
<event>
 5    0  0.5778875E-005  0.2749819E+03  0.7546771E-02  0.1098462E+00
         21   -1    0    0  502  501  0.00000000000E+00  0.00000000000E+00  0.14887508346E+04  0.14887508346E+04  0.00000000000E+00 0. -1.
         21   -1    0    0  501  502 -0.00000000000E+00 -0.00000000000E+00 -0.50790927668E+02  0.50790927668E+02  0.00000000000E+00 0. -1.
         25    1    1    2    0    0  0.10332030960E+03  0.48555965410E+02  0.94723232046E+03  0.96224052974E+03  0.12500000000E+03 0.  0.
         25    1    1    2    0    0 -0.60540618722E+02  0.21199439538E+02  0.32558913370E+03  0.35460945663E+03  0.12500000000E+03 0.  0.
         25    1    1    2    0    0 -0.42779690875E+02 -0.69755404948E+02  0.16513845282E+03  0.22269177594E+03  0.12500000000E+03 0.  0.
</event>
<event>
 5    0  0.5778875E-005  0.3337067E+03  0.7546771E-02  0.1069508E+00
         21   -1    0    0  502  501  0.00000000000E+00  0.00000000000E+00  0.76664967033E+02  0.76664967033E+02  0.00000000000E+00 0. -1.
         21   -1    0    0  501  502 -0.00000000000E+00 -0.00000000000E+00 -0.14525564206E+04  0.14525564206E+04  0.00000000000E+00 0. -1.
         25    1    1    2    0    0 -0.18653079164E+03  0.76408612552E+02 -0.38601475753E+03  0.45306114966E+03  0.12500000000E+03 0.  0.
         25    1    1    2    0    0  0.14681986894E+03  0.65699252138E+02 -0.68911033888E+03  0.71858926015E+03  0.12500000000E+03 0.  0.
         25    1    1    2    0    0  0.39710922698E+02 -0.14210786469E+03 -0.30076635718E+03  0.35757097785E+03  0.12500000000E+03 0.  0.
</event>
<event>
 5    0  0.5778875E-005  0.2802236E+03  0.7546771E-02  0.1095567E+00
         21   -1    0    0  502  501  0.00000000000E+00  0.00000000000E+00  0.72276629236E+03  0.72276629236E+03  0.00000000000E+00 0. -1.
         21   -1    0    0  501  502 -0.00000000000E+00 -0.00000000000E+00 -0.10864545822E+03  0.10864545822E+03  0.00000000000E+00 0. -1.
         25    1    1    2    0    0  0.29442601217E+02 -0.84298814659E+02  0.19026339368E+03  0.24453694178E+03  0.12500000000E+03 0.  0.
         25    1    1    2    0    0 -0.12956383569E+03 -0.22623651860E+01  0.34360907716E+03  0.38792280640E+03  0.12500000000E+03 0.  0.
         25    1    1    2    0    0  0.10012123448E+03  0.86561179845E+02  0.80248363291E+02  0.19895200240E+03  0.12500000000E+03 0.  0.
</event>
<event>
 5    0  0.5778875E-005  0.2925070E+03  0.7546771E-02  0.1089047E+00
         21   -1    0    0  502  501  0.00000000000E+00  0.00000000000E+00  0.23642723521E+03  0.23642723521E+03  0.00000000000E+00 0. -1.
         21   -1    0    0  501  502 -0.00000000000E+00 -0.00000000000E+00 -0.36188879176E+03  0.36188879176E+03  0.00000000000E+00 0. -1.
         25    1    1    2    0    0 -0.34694890084E+02 -0.87755758953E+02  0.94936074928E+02  0.18314657231E+03  0.12500000000E+03 0.  0.
         25    1    1    2    0    0 -0.79210001059E+02  0.16604800581E+02 -0.16771530363E+03  0.22428412057E+03  0.12500000000E+03 0.  0.
         25    1    1    2    0    0  0.11390489114E+03  0.71150958371E+02 -0.52682327851E+02  0.19088533409E+03  0.12500000000E+03 0.  0.
</event>
<event>
 5    0  0.5778875E-005  0.2231536E+03  0.7546771E-02  0.1131554E+00
         21   -1    0    0  502  501  0.00000000000E+00  0.00000000000E+00  0.23642890069E+03  0.23642890069E+03  0.00000000000E+00 0.  1.
         21   -1    0    0  501  502 -0.00000000000E+00 -0.00000000000E+00 -0.21062362376E+03  0.21062362376E+03  0.00000000000E+00 0.  1.
         25    1    1    2    0    0 -0.48587343528E+02  0.15935755534E+02 -0.10605481193E+02  0.13547012396E+03  0.12500000000E+03 0.  0.
         25    1    1    2    0    0  0.57841855501E+01 -0.89337807711E+02  0.44973184971E+02  0.16019453192E+03  0.12500000000E+03 0.  0.
         25    1    1    2    0    0  0.42803157978E+02  0.73402052177E+02 -0.85624268409E+01  0.15138786857E+03  0.12500000000E+03 0.  0.
</event>
<event>
 5    0  0.5778875E-005  0.2550742E+03  0.7546771E-02  0.1110139E+00
         21   -1    0    0  502  501  0.00000000000E+00  0.00000000000E+00  0.13777153939E+03  0.13777153939E+03  0.00000000000E+00 0. -1.
         21   -1    0    0  501  502 -0.00000000000E+00 -0.00000000000E+00 -0.47225188274E+03  0.47225188274E+03  0.00000000000E+00 0. -1.
         25    1    1    2    0    0  0.29684784250E+02  0.68610559623E+02 -0.14405966284E+03  0.20485795510E+03  0.12500000000E+03 0.  0.
         25    1    1    2    0    0 -0.95984979342E+02 -0.42560252356E+02  0.40055910879E+01  0.16329585451E+03  0.12500000000E+03 0.  0.
         25    1    1    2    0    0  0.66300195092E+02 -0.26050307266E+02 -0.19442627159E+03  0.24186961253E+03  0.12500000000E+03 0.  0.
</event>
<event>
 5    0  0.5778875E-005  0.4046154E+03  0.7546771E-02  0.1042193E+00
         21   -1    0    0  502  501  0.00000000000E+00  0.00000000000E+00  0.15511535576E+03  0.15511535576E+03  0.00000000000E+00 0. -1.
         21   -1    0    0  501  502 -0.00000000000E+00 -0.00000000000E+00 -0.10554312533E+04  0.10554312533E+04  0.00000000000E+00 0. -1.
         25    1    1    2    0    0  0.87026997161E+02 -0.22549773767E+03 -0.11269981518E+03  0.29453213114E+03  0.12500000000E+03 0.  0.
         25    1    1    2    0    0  0.73161587429E+02  0.65796003498E+02 -0.11743940610E+03  0.19773402858E+03  0.12500000000E+03 0.  0.
         25    1    1    2    0    0 -0.16018858459E+03  0.15970173417E+03 -0.67017667628E+03  0.71828044938E+03  0.12500000000E+03 0.  0.
</event>
<event>
 5    0  0.5778875E-005  0.3447490E+03  0.7546771E-02  0.1064791E+00
         21   -1    0    0  502  501  0.00000000000E+00  0.00000000000E+00  0.39152608757E+03  0.39152608757E+03  0.00000000000E+00 0. -1.
         21   -1    0    0  501  502 -0.00000000000E+00 -0.00000000000E+00 -0.30356061593E+03  0.30356061593E+03  0.00000000000E+00 0. -1.
         25    1    1    2    0    0 -0.25345897673E+03  0.66658256466E+02  0.41619074081E+02  0.29332903601E+03  0.12500000000E+03 0.  0.
         25    1    1    2    0    0  0.16740705850E+03  0.40725236549E+02  0.32646107450E+02  0.21534724623E+03  0.12500000000E+03 0.  0.
         25    1    1    2    0    0  0.86051918233E+02 -0.10738349301E+03  0.13700290105E+02  0.18641042126E+03  0.12500000000E+03 0.  0.
</event>
<event>
 5    0  0.5778875E-005  0.2626417E+03  0.7546771E-02  0.1105566E+00
         21   -1    0    0  502  501  0.00000000000E+00  0.00000000000E+00  0.10732310489E+04  0.10732310489E+04  0.00000000000E+00 0. -1.
         21   -1    0    0  501  502 -0.00000000000E+00 -0.00000000000E+00 -0.64273817364E+02  0.64273817364E+02  0.00000000000E+00 0. -1.
         25    1    1    2    0    0  0.82119265520E+02 -0.96074920130E+02  0.29589009680E+03  0.34518098649E+03  0.12500000000E+03 0.  0.
         25    1    1    2    0    0 -0.54700158039E+02 -0.51412753551E+02  0.24417222484E+03  0.28439489078E+03  0.12500000000E+03 0.  0.
         25    1    1    2    0    0 -0.27419107481E+02  0.14748767368E+03  0.46889490992E+03  0.50792898903E+03  0.12500000000E+03 0.  0.
</event>
<event>
 5    0  0.5778875E-005  0.3524507E+03  0.7546771E-02  0.1061614E+00
         21   -1    0    0  502  501  0.00000000000E+00  0.00000000000E+00  0.74588701333E+03  0.74588701333E+03  0.00000000000E+00 0. -1.
         21   -1    0    0  501  502 -0.00000000000E+00 -0.00000000000E+00 -0.16654201711E+03  0.16654201711E+03  0.00000000000E+00 0. -1.
         25    1    1    2    0    0 -0.47569848356E+02 -0.74265949332E+02  0.51292106671E+03  0.53524886023E+03  0.12500000000E+03 0.  0.
         25    1    1    2    0    0  0.13275672286E+03  0.24952613546E+02 -0.36582634961E+02  0.18764399689E+03  0.12500000000E+03 0.  0.
         25    1    1    2    0    0 -0.85186874506E+02  0.49313335786E+02  0.10300656447E+03  0.18953617332E+03  0.12500000000E+03 0.  0.
</event>
<event>
 5    0  0.5980009E-005  0.2891527E+03  0.7546771E-02  0.1090792E+00
         21   -1    0    0  502  501  0.00000000000E+00  0.00000000000E+00  0.11704630445E+04  0.11704630445E+04  0.00000000000E+00 0. -1.
         21   -1    0    0  501  502 -0.00000000000E+00 -0.00000000000E+00 -0.71432659165E+02  0.71432659165E+02  0.00000000000E+00 0. -1.
         25    1    1    2    0    0  0.42626357506E+01 -0.65510062748E+02  0.54184336469E+03  0.55993657698E+03  0.12500000000E+03 0.  0.
         25    1    1    2    0    0  0.85391591999E+02 -0.40141155375E+02  0.42591861579E+03  0.45380029045E+03  0.12500000000E+03 0.  0.
         25    1    1    2    0    0 -0.89654227749E+02  0.10565121812E+03  0.13126840489E+03  0.22815883627E+03  0.12500000000E+03 0.  0.
</event>
<event>
 5    0  0.5778875E-005  0.2591695E+03  0.7546771E-02  0.1107643E+00
         21   -1    0    0  502  501  0.00000000000E+00  0.00000000000E+00  0.13482906368E+04  0.13482906368E+04  0.00000000000E+00 0.  1.
         21   -1    0    0  501  502 -0.00000000000E+00 -0.00000000000E+00 -0.49817779159E+02  0.49817779159E+02  0.00000000000E+00 0.  1.
         25    1    1    2    0    0 -0.44005329701E+02  0.25655399398E+02  0.10871957936E+03  0.17331940312E+03  0.12500000000E+03 0.  0.
         25    1    1    2    0    0 -0.31912495813E+02  0.31722573320E+02  0.59338652975E+03  0.60807672438E+03  0.12500000000E+03 0.  0.
         25    1    1    2    0    0  0.75917825514E+02 -0.57377972719E+02  0.59636674856E+03  0.61671228849E+03  0.12500000000E+03 0.  0.
</event>
<event>
 5    0  0.5778875E-005  0.2194492E+03  0.7546771E-02  0.1134294E+00
         21   -1    0    0  502  501  0.00000000000E+00  0.00000000000E+00  0.86536665216E+02  0.86536665216E+02  0.00000000000E+00 0.  1.
         21   -1    0    0  501  502 -0.00000000000E+00 -0.00000000000E+00 -0.55650364838E+03  0.55650364838E+03  0.00000000000E+00 0.  1.
         25    1    1    2    0    0  0.14455286974E+02  0.72517207793E+02 -0.12634357904E+03  0.19249779404E+03  0.12500000000E+03 0.  0.
         25    1    1    2    0    0  0.54078108845E+02 -0.34792316210E+02 -0.20191611235E+03  0.24602858279E+03  0.12500000000E+03 0.  0.
         25    1    1    2    0    0 -0.68533395819E+02 -0.37724891583E+02 -0.14170729178E+03  0.20451393676E+03  0.12500000000E+03 0.  0.
</event>
<event>
 5    0  0.5778875E-005  0.3303695E+03  0.7546771E-02  0.1070973E+00
         21   -1    0    0  502  501  0.00000000000E+00  0.00000000000E+00  0.12452843225E+04  0.12452843225E+04  0.00000000000E+00 0.  1.
         21   -1    0    0  501  502 -0.00000000000E+00 -0.00000000000E+00 -0.87645875482E+02  0.87645875482E+02  0.00000000000E+00 0.  1.
         25    1    1    2    0    0  0.46382216281E+02  0.15656011540E+03  0.76843218719E+03  0.79547181348E+03  0.12500000000E+03 0.  0.
         25    1    1    2    0    0 -0.35367671772E+02  0.36239556800E+02  0.19094589855E+03  0.23377235477E+03  0.12500000000E+03 0.  0.
         25    1    1    2    0    0 -0.11014544510E+02 -0.19279967220E+03  0.19826036124E+03  0.30368602969E+03  0.12500000000E+03 0.  0.
</event>
<event>
 5    0  0.5941649E-005  0.3147272E+03  0.7546771E-02  0.1078102E+00
         21   -1    0    0  502  501  0.00000000000E+00  0.00000000000E+00  0.46708407193E+03  0.46708407193E+03  0.00000000000E+00 0.  1.
         21   -1    0    0  501  502 -0.00000000000E+00 -0.00000000000E+00 -0.21206719487E+03  0.21206719487E+03  0.00000000000E+00 0.  1.
         25    1    1    2    0    0 -0.12128219289E+03 -0.28913458998E+02  0.11472616762E+03  0.21055272964E+03  0.12500000000E+03 0.  0.
         25    1    1    2    0    0 -0.27005450095E+02  0.11895356136E+03  0.18034358020E+03  0.25105388070E+03  0.12500000000E+03 0.  0.
         25    1    1    2    0    0  0.14828764299E+03 -0.90040102358E+02 -0.40052870768E+02  0.21754465645E+03  0.12500000000E+03 0.  0.
</event>
<event>
 5    0  0.5778875E-005  0.2210028E+03  0.7546771E-02  0.1133138E+00
         21   -1    0    0  502  501  0.00000000000E+00  0.00000000000E+00  0.27595329834E+04  0.27595329834E+04  0.00000000000E+00 0.  1.
         21   -1    0    0  501  502 -0.00000000000E+00 -0.00000000000E+00 -0.17699450026E+02  0.17699450026E+02  0.00000000000E+00 0.  1.
         25    1    1    2    0    0 -0.32612633598E+02 -0.52743489952E+02  0.81225659724E+03  0.82415486370E+03  0.12500000000E+03 0.  0.
         25    1    1    2    0    0  0.16069019409E+01 -0.21878619669E+02  0.50326320356E+03  0.51901840834E+03  0.12500000000E+03 0.  0.
         25    1    1    2    0    0  0.31005731657E+02  0.74622109621E+02  0.14263137326E+04  0.14340591614E+04  0.12500000000E+03 0.  0.
</event>
<event>
 5    0  0.5778875E-005  0.3026092E+03  0.7546771E-02  0.1083944E+00
         21   -1    0    0  502  501  0.00000000000E+00  0.00000000000E+00  0.94979749738E+03  0.94979749738E+03  0.00000000000E+00 0. -1.
         21   -1    0    0  501  502 -0.00000000000E+00 -0.00000000000E+00 -0.96412488859E+02  0.96412488859E+02  0.00000000000E+00 0. -1.
         25    1    1    2    0    0  0.13060171325E+03 -0.34300970323E+02  0.15072033502E+03  0.23785496307E+03  0.12500000000E+03 0.  0.
         25    1    1    2    0    0 -0.20639130262E+03  0.51714711821E+01  0.34661038064E+03  0.42235988195E+03  0.12500000000E+03 0.  0.
         25    1    1    2    0    0  0.75789589371E+02  0.29129499141E+02  0.35605429287E+03  0.38599514122E+03  0.12500000000E+03 0.  0.
</event>
<event>
 5    0  0.6481928E-005  0.2780628E+03  0.7546771E-02  0.1096752E+00
         21   -1    0    0  502  501  0.00000000000E+00  0.00000000000E+00  0.38246750578E+03  0.38246750578E+03  0.00000000000E+00 0.  1.
         21   -1    0    0  501  502 -0.00000000000E+00 -0.00000000000E+00 -0.20215817081E+03  0.20215817081E+03  0.00000000000E+00 0.  1.
         25    1    1    2    0    0 -0.11812481530E+03 -0.48176517481E+02  0.48960924875E+02  0.18519346908E+03  0.12500000000E+03 0.  0.
         25    1    1    2    0    0 -0.60635683312E+02 -0.16710596112E+02  0.70158962353E+01  0.14010764759E+03  0.12500000000E+03 0.  0.
         25    1    1    2    0    0  0.17876049861E+03  0.64887113593E+02  0.12433251386E+03  0.25932455992E+03  0.12500000000E+03 0.  0.
</event>
<event>
 5    0  0.5778875E-005  0.4307071E+03  0.7546771E-02  0.1033637E+00
         21   -1    0    0  502  501  0.00000000000E+00  0.00000000000E+00  0.18034375256E+04  0.18034375256E+04  0.00000000000E+00 0. -1.
         21   -1    0    0  501  502 -0.00000000000E+00 -0.00000000000E+00 -0.10286389441E+03  0.10286389441E+03  0.00000000000E+00 0. -1.
         25    1    1    2    0    0 -0.49174010397E+02  0.10298637664E+02  0.95657472444E+03  0.96601467311E+03  0.12500000000E+03 0.  0.
         25    1    1    2    0    0  0.11734378038E+03 -0.99549674082E+02  0.74634647895E+03  0.77222908974E+03  0.12500000000E+03 0.  0.
         25    1    1    2    0    0 -0.68169769981E+02  0.89251036418E+02 -0.23475721680E+01  0.16805765718E+03  0.12500000000E+03 0.  0.
</event>
<event>
 5    0  0.5778875E-005  0.3124835E+03  0.7546771E-02  0.1079162E+00
         21   -1    0    0  502  501  0.00000000000E+00  0.00000000000E+00  0.13959134731E+03  0.13959134731E+03  0.00000000000E+00 0. -1.
         21   -1    0    0  501  502 -0.00000000000E+00 -0.00000000000E+00 -0.69951279982E+03  0.69951279982E+03  0.00000000000E+00 0. -1.
         25    1    1    2    0    0  0.14550427561E+03 -0.20612548581E+02 -0.87258048592E+01  0.19312563541E+03  0.12500000000E+03 0.  0.
         25    1    1    2    0    0 -0.14174915613E+02  0.15702144336E+02 -0.10599437625E+03  0.16524918568E+03  0.12500000000E+03 0.  0.
         25    1    1    2    0    0 -0.13132936000E+03  0.49104042445E+01 -0.44520127139E+03  0.48072932604E+03  0.12500000000E+03 0.  0.
</event>
<event>
 5    0  0.5778875E-005  0.5360197E+03  0.7546771E-02  0.1004783E+00
         21   -1    0    0  502  501  0.00000000000E+00  0.00000000000E+00  0.35609230200E+03  0.35609230200E+03  0.00000000000E+00 0.  1.
         21   -1    0    0  501  502 -0.00000000000E+00 -0.00000000000E+00 -0.80686133693E+03  0.80686133693E+03  0.00000000000E+00 0.  1.
         25    1    1    2    0    0  0.12611918207E+03  0.47206558489E+02 -0.13000693781E+03  0.22508067693E+03  0.12500000000E+03 0.  0.
         25    1    1    2    0    0 -0.36182364133E+03 -0.12153847168E+03 -0.47405365760E+03  0.62132102637E+03  0.12500000000E+03 0.  0.
         25    1    1    2    0    0  0.23570445926E+03  0.74331913188E+02  0.15329156047E+03  0.31655193562E+03  0.12500000000E+03 0.  0.
</event>
<event>
 5    0  0.5778875E-005  0.2450602E+03  0.7546771E-02  0.1116467E+00
         21   -1    0    0  502  501  0.00000000000E+00  0.00000000000E+00  0.48730917971E+03  0.48730917971E+03  0.00000000000E+00 0. -1.
         21   -1    0    0  501  502 -0.00000000000E+00 -0.00000000000E+00 -0.12323693868E+03  0.12323693868E+03  0.00000000000E+00 0. -1.
         25    1    1    2    0    0 -0.75385390773E+02  0.75212688976E+02  0.14334782537E+03  0.21797592703E+03  0.12500000000E+03 0.  0.
         25    1    1    2    0    0  0.67179287452E+02 -0.52698566315E+02  0.21782610310E+03  0.26526101626E+03  0.12500000000E+03 0.  0.
         25    1    1    2    0    0  0.82061033210E+01 -0.22514122661E+02  0.28983125634E+01  0.12730917511E+03  0.12500000000E+03 0.  0.
</event>
<event>
 5    0  0.5778875E-005  0.3506007E+03  0.7546771E-02  0.1062369E+00
         21   -1    0    0  502  501  0.00000000000E+00  0.00000000000E+00  0.30920270112E+03  0.30920270112E+03  0.00000000000E+00 0. -1.
         21   -1    0    0  501  502 -0.00000000000E+00 -0.00000000000E+00 -0.39754134055E+03  0.39754134055E+03  0.00000000000E+00 0. -1.
         25    1    1    2    0    0 -0.74232588095E+02 -0.18655856883E+03 -0.17180478453E+03  0.29232937028E+03  0.12500000000E+03 0.  0.
         25    1    1    2    0    0  0.14845820446E+03  0.10406845660E+03  0.10834143554E+03  0.24542401836E+03  0.12500000000E+03 0.  0.
         25    1    1    2    0    0 -0.74225616368E+02  0.82490112228E+02 -0.24875290439E+02  0.16899065304E+03  0.12500000000E+03 0.  0.
</event>
<event>
 5    0  0.5778875E-005  0.4107328E+03  0.7546771E-02  0.1040125E+00
         21   -1    0    0  502  501  0.00000000000E+00  0.00000000000E+00  0.41167195902E+03  0.41167195902E+03  0.00000000000E+00 0. -1.
         21   -1    0    0  501  502 -0.00000000000E+00 -0.00000000000E+00 -0.40979582243E+03  0.40979582243E+03  0.00000000000E+00 0. -1.
         25    1    1    2    0    0  0.19706528632E+01  0.90136310659E+02  0.15854756824E+03  0.22111257170E+03  0.12500000000E+03 0.  0.
         25    1    1    2    0    0 -0.87054283777E+02  0.32107907677E+02 -0.31384475912E+03  0.35033255470E+03  0.12500000000E+03 0.  0.
         25    1    1    2    0    0  0.85083630914E+02 -0.12224421834E+03  0.15717332747E+03  0.25002265504E+03  0.12500000000E+03 0.  0.
</event>
<event>
 5    0  0.5778875E-005  0.5881041E+03  0.7546771E-02  0.9930398E-01
         21   -1    0    0  502  501  0.00000000000E+00  0.00000000000E+00  0.62901171951E+03  0.62901171951E+03  0.00000000000E+00 0.  1.
         21   -1    0    0  501  502 -0.00000000000E+00 -0.00000000000E+00 -0.54985685158E+03  0.54985685158E+03  0.00000000000E+00 0.  1.
         25    1    1    2    0    0 -0.42521127305E+03  0.16205641856E+03 -0.18970813615E+03  0.50860700589E+03  0.12500000000E+03 0.  0.
         25    1    1    2    0    0  0.24546766662E+03  0.52023544488E+02  0.22799024098E+03  0.36133831034E+03  0.12500000000E+03 0.  0.
         25    1    1    2    0    0  0.17974360642E+03 -0.21407996304E+03  0.40872763098E+02  0.30892325486E+03  0.12500000000E+03 0.  0.
</event>
<event>
 5    0  0.8005713E-005  0.2746705E+03  0.7546771E-02  0.1098636E+00
         21   -1    0    0  502  501  0.00000000000E+00  0.00000000000E+00  0.42220672254E+03  0.42220672254E+03  0.00000000000E+00 0. -1.
         21   -1    0    0  501  502 -0.00000000000E+00 -0.00000000000E+00 -0.17868946036E+03  0.17868946036E+03  0.00000000000E+00 0. -1.
         25    1    1    2    0    0  0.16405937349E+03  0.66002206036E+02  0.77461721687E+02  0.22999366852E+03  0.12500000000E+03 0.  0.
         25    1    1    2    0    0 -0.94451426680E+02 -0.25618533101E+02  0.15492813687E+03  0.22182224603E+03  0.12500000000E+03 0.  0.
         25    1    1    2    0    0 -0.69607946811E+02 -0.40383672935E+02  0.11127403622E+02  0.14908026835E+03  0.12500000000E+03 0.  0.
</event>
<event>
 5    0  0.5778875E-005  0.2718052E+03  0.7546771E-02  0.1100251E+00
         21   -1    0    0  502  501  0.00000000000E+00  0.00000000000E+00  0.36447694053E+03  0.36447694053E+03  0.00000000000E+00 0. -1.
         21   -1    0    0  501  502 -0.00000000000E+00 -0.00000000000E+00 -0.20269607143E+03  0.20269607143E+03  0.00000000000E+00 0. -1.
         25    1    1    2    0    0  0.10684573378E+03  0.11575830262E+03  0.78730740493E+02  0.21596185994E+03  0.12500000000E+03 0.  0.
         25    1    1    2    0    0 -0.27526526024E+02 -0.19279833875E+02 -0.40466146985E+02  0.13561685250E+03  0.12500000000E+03 0.  0.
         25    1    1    2    0    0 -0.79319207754E+02 -0.96478468745E+02  0.12351627559E+03  0.21559429952E+03  0.12500000000E+03 0.  0.
</event>
<event>
 5    0  0.5778875E-005  0.3350738E+03  0.7546771E-02  0.1068914E+00
         21   -1    0    0  502  501  0.00000000000E+00  0.00000000000E+00  0.29767767971E+03  0.29767767971E+03  0.00000000000E+00 0. -1.
         21   -1    0    0  501  502 -0.00000000000E+00 -0.00000000000E+00 -0.37716787515E+03  0.37716787515E+03  0.00000000000E+00 0. -1.
         25    1    1    2    0    0 -0.15827675714E+02 -0.23025686104E+03 -0.78042353380E+02  0.27383269764E+03  0.12500000000E+03 0.  0.
         25    1    1    2    0    0  0.32868098733E+02 -0.85784576591E+01  0.15038178258E+02  0.13040340738E+03  0.12500000000E+03 0.  0.
         25    1    1    2    0    0 -0.17040423019E+02  0.23883531870E+03 -0.16486020320E+02  0.27060944984E+03  0.12500000000E+03 0.  0.
</event>
<event>
 5    0  0.5778875E-005  0.3240639E+03  0.7546771E-02  0.1073794E+00
         21   -1    0    0  502  501  0.00000000000E+00  0.00000000000E+00  0.37025577288E+03  0.37025577288E+03  0.00000000000E+00 0.  1.
         21   -1    0    0  501  502 -0.00000000000E+00 -0.00000000000E+00 -0.28363469562E+03  0.28363469562E+03  0.00000000000E+00 0.  1.
         25    1    1    2    0    0 -0.12024335132E+03  0.58273718152E+02  0.17109249613E+03  0.25050335726E+03  0.12500000000E+03 0.  0.
         25    1    1    2    0    0  0.14065058884E+03  0.47221769540E+02 -0.12858853509E+03  0.23274985503E+03  0.12500000000E+03 0.  0.
         25    1    1    2    0    0 -0.20407237521E+02 -0.10549548769E+03  0.44117116215E+02  0.17063725622E+03  0.12500000000E+03 0.  0.
</event>
<event>
 5    0  0.5778875E-005  0.4597571E+03  0.7546771E-02  0.1024852E+00
         21   -1    0    0  502  501  0.00000000000E+00  0.00000000000E+00  0.43450084883E+03  0.43450084883E+03  0.00000000000E+00 0. -1.
         21   -1    0    0  501  502 -0.00000000000E+00 -0.00000000000E+00 -0.48648133051E+03  0.48648133051E+03  0.00000000000E+00 0. -1.
         25    1    1    2    0    0  0.41219735748E+02 -0.81715633535E+02 -0.11137087769E+02  0.15532400363E+03  0.12500000000E+03 0.  0.
         25    1    1    2    0    0 -0.15112612380E+03 -0.25705478395E+03  0.13360274701E+03  0.34984419569E+03  0.12500000000E+03 0.  0.
         25    1    1    2    0    0  0.10990638806E+03  0.33877041749E+03 -0.17444614091E+03  0.41581398002E+03  0.12500000000E+03 0.  0.
</event>
<event>
 5    0  0.5799084E-005  0.3742327E+03  0.7546771E-02  0.1053086E+00
         21   -1    0    0  502  501  0.00000000000E+00  0.00000000000E+00  0.25566969490E+03  0.25566969490E+03  0.00000000000E+00 0. -1.
         21   -1    0    0  501  502 -0.00000000000E+00 -0.00000000000E+00 -0.54777742349E+03  0.54777742349E+03  0.00000000000E+00 0. -1.
         25    1    1    2    0    0 -0.94627814816E+02  0.79440598690E+02 -0.38361088114E+03  0.42195679896E+03  0.12500000000E+03 0.  0.
         25    1    1    2    0    0 -0.25447269963E+02 -0.13490610417E+03  0.23215623850E+02  0.18711276194E+03  0.12500000000E+03 0.  0.
         25    1    1    2    0    0  0.12007508478E+03  0.55465505480E+02  0.68287528698E+02  0.19437755750E+03  0.12500000000E+03 0.  0.
</event>
<event>
 5    0  0.5778875E-005  0.2976571E+03  0.7546771E-02  0.1086418E+00
         21   -1    0    0  502  501  0.00000000000E+00  0.00000000000E+00  0.13856419987E+04  0.13856419987E+04  0.00000000000E+00 0.  1.
         21   -1    0    0  501  502 -0.00000000000E+00 -0.00000000000E+00 -0.63941293899E+02  0.63941293899E+02  0.00000000000E+00 0.  1.
         25    1    1    2    0    0  0.11565222752E+02 -0.15579018692E+03  0.18909937320E+03  0.27529604004E+03  0.12500000000E+03 0.  0.
         25    1    1    2    0    0 -0.33887007069E+02  0.12378917880E+03  0.65466691320E+03  0.67873843068E+03  0.12500000000E+03 0.  0.
         25    1    1    2    0    0  0.22321784317E+02  0.32001008122E+02  0.47793441842E+03  0.49554882190E+03  0.12500000000E+03 0.  0.
</event>
<event>
 5    0  0.5778875E-005  0.3112040E+03  0.7546771E-02  0.1079770E+00
         21   -1    0    0  502  501  0.00000000000E+00  0.00000000000E+00  0.67385488230E+03  0.67385488230E+03  0.00000000000E+00 0.  1.
         21   -1    0    0  501  502 -0.00000000000E+00 -0.00000000000E+00 -0.14372225275E+03  0.14372225275E+03  0.00000000000E+00 0.  1.
         25    1    1    2    0    0  0.92634718447E+02 -0.37235310779E+02  0.31043753956E+03  0.34923362581E+03  0.12500000000E+03 0.  0.
         25    1    1    2    0    0 -0.14767829100E+03 -0.46019549033E+02  0.28646584071E+01  0.19889666361E+03  0.12500000000E+03 0.  0.
         25    1    1    2    0    0  0.55043572555E+02  0.83254859812E+02  0.21683043158E+03  0.26944684563E+03  0.12500000000E+03 0.  0.
</event>
<event>
 5    0  0.5900463E-005  0.3045479E+03  0.7546771E-02  0.1082989E+00
         21   -1    0    0  502  501  0.00000000000E+00  0.00000000000E+00  0.10254612831E+04  0.10254612831E+04  0.00000000000E+00 0. -1.
         21   -1    0    0  501  502 -0.00000000000E+00 -0.00000000000E+00 -0.90446543767E+02  0.90446543767E+02  0.00000000000E+00 0. -1.
         25    1    1    2    0    0 -0.39282632744E+02  0.10420685596E+03  0.16522091557E+03  0.23521297797E+03  0.12500000000E+03 0.  0.
         25    1    1    2    0    0 -0.99544577710E+01 -0.51062457517E+02  0.46566600854E+02  0.14317791070E+03  0.12500000000E+03 0.  0.
         25    1    1    2    0    0  0.49237090515E+02 -0.53144398447E+02  0.72322722288E+03  0.73751693817E+03  0.12500000000E+03 0.  0.
</event>
<event>
 5    0  0.6614466E-005  0.4080896E+03  0.7546771E-02  0.1041014E+00
         21   -1    0    0  502  501  0.00000000000E+00  0.00000000000E+00  0.42078001563E+03  0.42078001563E+03  0.00000000000E+00 0. -1.
         21   -1    0    0  501  502 -0.00000000000E+00 -0.00000000000E+00 -0.39578196571E+03  0.39578196571E+03  0.00000000000E+00 0. -1.
         25    1    1    2    0    0 -0.15963584613E+03 -0.20016021255E+03  0.36556643844E+02  0.28724397690E+03  0.12500000000E+03 0.  0.
         25    1    1    2    0    0  0.85813230281E+02  0.49538003819E+02 -0.19441242786E+03  0.25147388815E+03  0.12500000000E+03 0.  0.
         25    1    1    2    0    0  0.73822615846E+02  0.15062220873E+03  0.18285383393E+03  0.27784411629E+03  0.12500000000E+03 0.  0.
</event>
<event>
 5    0  0.7095234E-005  0.2884528E+03  0.7546771E-02  0.1091160E+00
         21   -1    0    0  502  501  0.00000000000E+00  0.00000000000E+00  0.28009611113E+03  0.28009611113E+03  0.00000000000E+00 0. -1.
         21   -1    0    0  501  502 -0.00000000000E+00 -0.00000000000E+00 -0.29705876876E+03  0.29705876876E+03  0.00000000000E+00 0.  1.
         25    1    1    2    0    0 -0.12026304041E+03  0.13962361320E+03 -0.29031026474E+02  0.22455679181E+03  0.12500000000E+03 0.  0.
         25    1    1    2    0    0  0.70661493366E+02 -0.12048261600E+03 -0.62566768804E+02  0.19760745927E+03  0.12500000000E+03 0.  0.
         25    1    1    2    0    0  0.49601547047E+02 -0.19140997200E+02  0.74635137657E+02  0.15499062880E+03  0.12500000000E+03 0.  0.
</event>
<event>
 5    0  0.5778875E-005  0.2413351E+03  0.7546771E-02  0.1118907E+00
         21   -1    0    0  502  501  0.00000000000E+00  0.00000000000E+00  0.13332176192E+03  0.13332176192E+03  0.00000000000E+00 0.  1.
         21   -1    0    0  501  502 -0.00000000000E+00 -0.00000000000E+00 -0.43685759262E+03  0.43685759262E+03  0.00000000000E+00 0.  1.
         25    1    1    2    0    0  0.46075358722E+02  0.63881684710E+02 -0.16815735877E+02  0.14869962103E+03  0.12500000000E+03 0.  0.
         25    1    1    2    0    0 -0.94296763564E+02  0.17796313301E+01 -0.17669524016E+03  0.23609585892E+03  0.12500000000E+03 0.  0.
         25    1    1    2    0    0  0.48221404841E+02 -0.65661316040E+02 -0.11002485467E+03  0.18538387458E+03  0.12500000000E+03 0.  0.
</event>
<event>
 5    0  0.5828626E-005  0.2804620E+03  0.7546771E-02  0.1095437E+00
         21   -1    0    0  502  501  0.00000000000E+00  0.00000000000E+00  0.75074859685E+03  0.75074859685E+03  0.00000000000E+00 0. -1.
         21   -1    0    0  501  502 -0.00000000000E+00 -0.00000000000E+00 -0.10477399258E+03  0.10477399258E+03  0.00000000000E+00 0. -1.
         25    1    1    2    0    0  0.72956863103E+02 -0.18105710069E+01  0.86522163270E+02  0.16863293503E+03  0.12500000000E+03 0.  0.
         25    1    1    2    0    0  0.19692451316E+00  0.39860458570E+02  0.27224544885E+02  0.13399653272E+03  0.12500000000E+03 0.  0.
         25    1    1    2    0    0 -0.73153787616E+02 -0.38049887563E+02  0.53222789612E+03  0.55289312167E+03  0.12500000000E+03 0.  0.
</event>
<event>
 5    0  0.5778875E-005  0.2242508E+03  0.7546771E-02  0.1130753E+00
         21   -1    0    0  502  501  0.00000000000E+00  0.00000000000E+00  0.10058692559E+03  0.10058692559E+03  0.00000000000E+00 0.  1.
         21   -1    0    0  501  502 -0.00000000000E+00 -0.00000000000E+00 -0.49994966569E+03  0.49994966569E+03  0.00000000000E+00 0.  1.
         25    1    1    2    0    0 -0.11084375121E+02  0.96417951224E+01 -0.23627660372E+03  0.26770779041E+03  0.12500000000E+03 0.  0.
         25    1    1    2    0    0 -0.38939199335E+02  0.35570599939E+02 -0.31643169917E+02  0.13931194862E+03  0.12500000000E+03 0.  0.
         25    1    1    2    0    0  0.50023574456E+02 -0.45212395061E+02 -0.13144296647E+03  0.19351685224E+03  0.12500000000E+03 0.  0.
</event>
<event>
 5    0  0.5778875E-005  0.4236177E+03  0.7546771E-02  0.1035895E+00
         21   -1    0    0  502  501  0.00000000000E+00  0.00000000000E+00  0.93174332115E+03  0.93174332115E+03  0.00000000000E+00 0.  1.
         21   -1    0    0  501  502 -0.00000000000E+00 -0.00000000000E+00 -0.19259803483E+03  0.19259803483E+03  0.00000000000E+00 0.  1.
         25    1    1    2    0    0  0.19727296973E+03 -0.17933200049E+03  0.87235641757E+02  0.30710201591E+03  0.12500000000E+03 0.  0.
         25    1    1    2    0    0 -0.10538268314E+03  0.20366096823E+03  0.59571635287E+03  0.65045082286E+03  0.12500000000E+03 0.  0.
         25    1    1    2    0    0 -0.91890286583E+02 -0.24328967734E+02  0.56193291703E+02  0.16678851721E+03  0.12500000000E+03 0.  0.
</event>
<event>
 5    0  0.5778875E-005  0.2387019E+03  0.7546771E-02  0.1120661E+00
         21   -1    0    0  502  501  0.00000000000E+00  0.00000000000E+00  0.31434782365E+03  0.31434782365E+03  0.00000000000E+00 0. -1.
         21   -1    0    0  501  502 -0.00000000000E+00 -0.00000000000E+00 -0.18125975620E+03  0.18125975620E+03  0.00000000000E+00 0. -1.
         25    1    1    2    0    0  0.39104633529E+02  0.83140113169E+02  0.23542787177E+02  0.15690989009E+03  0.12500000000E+03 0.  0.
         25    1    1    2    0    0  0.17746740163E+02  0.40150663518E+02  0.70465516233E+02  0.15005802726E+03  0.12500000000E+03 0.  0.
         25    1    1    2    0    0 -0.56851373691E+02 -0.12329077669E+03  0.39079764044E+02  0.18863966249E+03  0.12500000000E+03 0.  0.
</event>
<event>
 5    0  0.5778875E-005  0.3026796E+03  0.7546771E-02  0.1083909E+00
         21   -1    0    0  502  501  0.00000000000E+00  0.00000000000E+00  0.89869053420E+03  0.89869053420E+03  0.00000000000E+00 0. -1.
         21   -1    0    0  501  502 -0.00000000000E+00 -0.00000000000E+00 -0.10194271519E+03  0.10194271519E+03  0.00000000000E+00 0. -1.
         25    1    1    2    0    0  0.43781930475E+01 -0.85958380954E+02  0.54795365810E+03  0.56858264418E+03  0.12500000000E+03 0.  0.
         25    1    1    2    0    0 -0.69132250110E+02 -0.54966879969E+02  0.92257674723E+02  0.17870955331E+03  0.12500000000E+03 0.  0.
         25    1    1    2    0    0  0.64754057063E+02  0.14092526092E+03  0.15653648618E+03  0.25334105190E+03  0.12500000000E+03 0.  0.
</event>
<event>
 5    0  0.5778875E-005  0.4318968E+03  0.7546771E-02  0.1033262E+00
         21   -1    0    0  502  501  0.00000000000E+00  0.00000000000E+00  0.11679149150E+03  0.11679149150E+03  0.00000000000E+00 0. -1.
         21   -1    0    0  501  502 -0.00000000000E+00 -0.00000000000E+00 -0.15971609292E+04  0.15971609292E+04  0.00000000000E+00 0.  1.
         25    1    1    2    0    0 -0.36855836859E+02 -0.58013332351E+02 -0.21210496828E+03  0.25561184834E+03  0.12500000000E+03 0.  0.
         25    1    1    2    0    0 -0.20394562017E+03 -0.22440386326E+03 -0.55740712563E+03  0.64674462776E+03  0.12500000000E+03 0.  0.
         25    1    1    2    0    0  0.24080145703E+03  0.28241719561E+03 -0.71085734374E+03  0.81159594456E+03  0.12500000000E+03 0.  0.
</event>
<event>
 5    0  0.5778875E-005  0.4822164E+03  0.7546771E-02  0.1018528E+00
         21   -1    0    0  502  501  0.00000000000E+00  0.00000000000E+00  0.83802579988E+03  0.83802579988E+03  0.00000000000E+00 0.  1.
         21   -1    0    0  501  502 -0.00000000000E+00 -0.00000000000E+00 -0.27747678004E+03  0.27747678004E+03  0.00000000000E+00 0.  1.
         25    1    1    2    0    0 -0.93229655168E+01 -0.42586803129E+03  0.19190839248E+03  0.48363656692E+03  0.12500000000E+03 0.  0.
         25    1    1    2    0    0  0.40428245983E+02  0.32180000067E+03  0.25066830572E+03  0.42854321019E+03  0.12500000000E+03 0.  0.
         25    1    1    2    0    0 -0.31105280467E+02  0.10406803062E+03  0.11797232164E+03  0.20332280281E+03  0.12500000000E+03 0.  0.
</event>
<event>
 5    0  0.5778875E-005  0.3331447E+03  0.7546771E-02  0.1069754E+00
         21   -1    0    0  502  501  0.00000000000E+00  0.00000000000E+00  0.45434626508E+03  0.45434626508E+03  0.00000000000E+00 0. -1.
         21   -1    0    0  501  502 -0.00000000000E+00 -0.00000000000E+00 -0.24427492411E+03  0.24427492411E+03  0.00000000000E+00 0. -1.
         25    1    1    2    0    0  0.13198317344E+03  0.21070850468E+03  0.58329640963E+02  0.28433251490E+03  0.12500000000E+03 0.  0.
         25    1    1    2    0    0 -0.70536302528E+02 -0.14823364686E+03  0.16046173389E+03  0.26138391702E+03  0.12500000000E+03 0.  0.
         25    1    1    2    0    0 -0.61446870910E+02 -0.62474857822E+02 -0.87200338792E+01  0.15290475727E+03  0.12500000000E+03 0.  0.
</event>
<event>
 5    0  0.5778875E-005  0.3187427E+03  0.7546771E-02  0.1076229E+00
         21   -1    0    0  502  501  0.00000000000E+00  0.00000000000E+00  0.13104826621E+03  0.13104826621E+03  0.00000000000E+00 0.  1.
         21   -1    0    0  501  502 -0.00000000000E+00 -0.00000000000E+00 -0.77526333709E+03  0.77526333709E+03  0.00000000000E+00 0.  1.
         25    1    1    2    0    0 -0.91661022714E+01  0.20509660386E+03 -0.34030590119E+03  0.41663142072E+03  0.12500000000E+03 0.  0.
         25    1    1    2    0    0  0.57730085530E+02 -0.65449538237E+02 -0.31817608100E+02  0.15573620329E+03  0.12500000000E+03 0.  0.
         25    1    1    2    0    0 -0.48563983259E+02 -0.13964706563E+03 -0.27209156160E+03  0.33394397929E+03  0.12500000000E+03 0.  0.
</event>
<event>
 5    0  0.5778875E-005  0.2697170E+03  0.7546771E-02  0.1101442E+00
         21   -1    0    0  502  501  0.00000000000E+00  0.00000000000E+00  0.13661543195E+03  0.13661543195E+03  0.00000000000E+00 0. -1.
         21   -1    0    0  501  502 -0.00000000000E+00 -0.00000000000E+00 -0.53249665521E+03  0.53249665521E+03  0.00000000000E+00 0. -1.
         25    1    1    2    0    0  0.90976891705E+02  0.23602844752E+02 -0.26235211868E+03  0.30543006283E+03  0.12500000000E+03 0.  0.
         25    1    1    2    0    0 -0.53887926654E+02  0.87312516864E+02 -0.32624957578E+02  0.16497506508E+03  0.12500000000E+03 0.  0.
         25    1    1    2    0    0 -0.37088965051E+02 -0.11091536162E+03 -0.10090414700E+03  0.19870695925E+03  0.12500000000E+03 0.  0.
</event>
<event>
 5    0  0.5778875E-005  0.3079408E+03  0.7546771E-02  0.1081337E+00
         21   -1    0    0  502  501  0.00000000000E+00  0.00000000000E+00  0.50189660533E+03  0.50189660533E+03  0.00000000000E+00 0.  1.
         21   -1    0    0  501  502 -0.00000000000E+00 -0.00000000000E+00 -0.18893842901E+03  0.18893842901E+03  0.00000000000E+00 0.  1.
         25    1    1    2    0    0  0.77942856462E+02  0.44813443020E+02  0.11674318924E+03  0.19322863603E+03  0.12500000000E+03 0.  0.
         25    1    1    2    0    0  0.13885686738E+03  0.42355497853E+02  0.68666572591E+02  0.20350753305E+03  0.12500000000E+03 0.  0.
         25    1    1    2    0    0 -0.21679972384E+03 -0.87168940873E+02  0.12754841449E+03  0.29409886526E+03  0.12500000000E+03 0.  0.
</event>
<event>
 5    0  0.5778875E-005  0.4340306E+03  0.7546771E-02  0.1032594E+00
         21   -1    0    0  502  501  0.00000000000E+00  0.00000000000E+00  0.48354341647E+03  0.48354341647E+03  0.00000000000E+00 0. -1.
         21   -1    0    0  501  502 -0.00000000000E+00 -0.00000000000E+00 -0.38958761525E+03  0.38958761525E+03  0.00000000000E+00 0. -1.
         25    1    1    2    0    0  0.23347609274E+02  0.33410422905E+03  0.46104221054E+02  0.36044603747E+03  0.12500000000E+03 0.  0.
         25    1    1    2    0    0  0.35053561676E+02 -0.36512842592E+01 -0.53589620686E+02  0.14049530778E+03  0.12500000000E+03 0.  0.
         25    1    1    2    0    0 -0.58401170951E+02 -0.33045294479E+03  0.10144120085E+03  0.37218968648E+03  0.12500000000E+03 0.  0.
</event>
<event>
 5    0  0.5778875E-005  0.3255033E+03  0.7546771E-02  0.1073144E+00
         21   -1    0    0  502  501  0.00000000000E+00  0.00000000000E+00  0.60219015899E+02  0.60219015899E+02  0.00000000000E+00 0. -1.
         21   -1    0    0  501  502 -0.00000000000E+00 -0.00000000000E+00 -0.17594513700E+04  0.17594513700E+04  0.00000000000E+00 0. -1.
         25    1    1    2    0    0  0.10513672652E+03  0.31903423884E+01 -0.94497420138E+03  0.95899173657E+03  0.12500000000E+03 0.  0.
         25    1    1    2    0    0 -0.14011895601E+03  0.12931206300E+03 -0.44663271796E+03  0.50145858874E+03  0.12500000000E+03 0.  0.
         25    1    1    2    0    0  0.34982229490E+02 -0.13250240539E+03 -0.30762543477E+03  0.35922006059E+03  0.12500000000E+03 0.  0.
</event>
<event>
 5    0  0.5778875E-005  0.2420912E+03  0.7546771E-02  0.1118408E+00
         21   -1    0    0  502  501  0.00000000000E+00  0.00000000000E+00  0.15791895747E+03  0.15791895747E+03  0.00000000000E+00 0.  1.
         21   -1    0    0  501  502 -0.00000000000E+00 -0.00000000000E+00 -0.37112798611E+03  0.37112798611E+03  0.00000000000E+00 0.  1.
         25    1    1    2    0    0  0.75598457820E+02  0.22583025064E+02  0.34597685182E+01  0.14785834384E+03  0.12500000000E+03 0.  0.
         25    1    1    2    0    0 -0.77935159789E+01  0.55924575710E+02 -0.15616707599E+03  0.20784959149E+03  0.12500000000E+03 0.  0.
         25    1    1    2    0    0 -0.67804941841E+02 -0.78507600774E+02 -0.60501721174E+02  0.17333900825E+03  0.12500000000E+03 0.  0.
</event>
<event>
 5    0  0.5778875E-005  0.2897484E+03  0.7546771E-02  0.1090481E+00
         21   -1    0    0  502  501  0.00000000000E+00  0.00000000000E+00  0.23333241731E+04  0.23333241731E+04  0.00000000000E+00 0. -1.
         21   -1    0    0  501  502 -0.00000000000E+00 -0.00000000000E+00 -0.35980478099E+02  0.35980478099E+02  0.00000000000E+00 0. -1.
         25    1    1    2    0    0 -0.16265586727E+03 -0.20155457233E+01  0.93017397532E+03  0.95252801426E+03  0.12500000000E+03 0.  0.
         25    1    1    2    0    0  0.23916526940E+02  0.34145813026E+02  0.94357129210E+03  0.95272751618E+03  0.12500000000E+03 0.  0.
         25    1    1    2    0    0  0.13873934033E+03 -0.32130267303E+02  0.42359842760E+03  0.46404912078E+03  0.12500000000E+03 0.  0.
</event>
<event>
 5    0  0.5839739E-005  0.4659748E+03  0.7546771E-02  0.1023062E+00
         21   -1    0    0  502  501  0.00000000000E+00  0.00000000000E+00  0.67914797066E+03  0.67914797066E+03  0.00000000000E+00 0.  1.
         21   -1    0    0  501  502 -0.00000000000E+00 -0.00000000000E+00 -0.31971305248E+03  0.31971305248E+03  0.00000000000E+00 0.  1.
         25    1    1    2    0    0  0.55177581092E+02  0.22456424954E+03  0.29617098788E+03  0.39599990112E+03  0.12500000000E+03 0.  0.
         25    1    1    2    0    0  0.20852006414E+03 -0.67958285716E+02 -0.40788683057E+02  0.25571011402E+03  0.12500000000E+03 0.  0.
         25    1    1    2    0    0 -0.26369764523E+03 -0.15660596382E+03  0.10405261336E+03  0.34715100799E+03  0.12500000000E+03 0.  0.
</event>
<event>
 5    0  0.5778875E-005  0.3497341E+03  0.7546771E-02  0.1062724E+00
         21   -1    0    0  502  501  0.00000000000E+00  0.00000000000E+00  0.21949834877E+03  0.21949834877E+03  0.00000000000E+00 0.  1.
         21   -1    0    0  501  502 -0.00000000000E+00 -0.00000000000E+00 -0.55724318770E+03  0.55724318770E+03  0.00000000000E+00 0.  1.
         25    1    1    2    0    0  0.32288192817E+02 -0.86745499597E+02  0.32719993755E+02  0.15894309386E+03  0.12500000000E+03 0.  0.
         25    1    1    2    0    0  0.52412878652E+02  0.98311516179E+02  0.46835238739E+02  0.17387007692E+03  0.12500000000E+03 0.  0.
         25    1    1    2    0    0 -0.84701071469E+02 -0.11566016583E+02 -0.41730007142E+03  0.44392836568E+03  0.12500000000E+03 0.  0.
</event>
<event>
 5    0  0.5778875E-005  0.3357851E+03  0.7546771E-02  0.1068605E+00
         21   -1    0    0  502  501  0.00000000000E+00  0.00000000000E+00  0.45026250849E+03  0.45026250849E+03  0.00000000000E+00 0.  1.
         21   -1    0    0  501  502 -0.00000000000E+00 -0.00000000000E+00 -0.25041305361E+03  0.25041305361E+03  0.00000000000E+00 0.  1.
         25    1    1    2    0    0  0.13321920441E+03 -0.12300770759E+02 -0.57196000076E+02  0.19182035296E+03  0.12500000000E+03 0.  0.
         25    1    1    2    0    0 -0.12734300550E+03  0.63905911037E+02 -0.29618505500E+02  0.19183967886E+03  0.12500000000E+03 0.  0.
         25    1    1    2    0    0 -0.58761989132E+01 -0.51605140278E+02  0.28666396045E+03  0.31701553028E+03  0.12500000000E+03 0.  0.
</event>
<event>
 5    0  0.5778875E-005  0.3139374E+03  0.7546771E-02  0.1078474E+00
         21   -1    0    0  502  501  0.00000000000E+00  0.00000000000E+00  0.90103794972E+03  0.90103794972E+03  0.00000000000E+00 0.  1.
         21   -1    0    0  501  502 -0.00000000000E+00 -0.00000000000E+00 -0.10938126962E+03  0.10938126962E+03  0.00000000000E+00 0.  1.
         25    1    1    2    0    0 -0.18206577760E+03 -0.45610918255E+02  0.45706050514E+03  0.50966421161E+03  0.12500000000E+03 0.  0.
         25    1    1    2    0    0 -0.16672596853E+02  0.12397451834E+02  0.67428218711E+02  0.14353827704E+03  0.12500000000E+03 0.  0.
         25    1    1    2    0    0  0.19873837446E+03  0.33213466421E+02  0.26716795626E+03  0.35721673069E+03  0.12500000000E+03 0.  0.
</event>
<event>
 5    0  0.5778875E-005  0.3190803E+03  0.7546771E-02  0.1076073E+00
         21   -1    0    0  502  501  0.00000000000E+00  0.00000000000E+00  0.16513540550E+03  0.16513540550E+03  0.00000000000E+00 0. -1.
         21   -1    0    0  501  502 -0.00000000000E+00 -0.00000000000E+00 -0.61653780019E+03  0.61653780019E+03  0.00000000000E+00 0. -1.
         25    1    1    2    0    0  0.33782779995E+02 -0.15788075492E+03 -0.42463868161E+03  0.47118002814E+03  0.12500000000E+03 0.  0.
         25    1    1    2    0    0 -0.23185601359E+02  0.72671066275E+02 -0.54645838530E+02  0.15630042755E+03  0.12500000000E+03 0.  0.
         25    1    1    2    0    0 -0.10597178636E+02  0.85209688645E+02  0.27882125452E+02  0.15419275000E+03  0.12500000000E+03 0.  0.
</event>
<event>
 5    0  0.5778875E-005  0.3454628E+03  0.7546771E-02  0.1064493E+00
         21   -1    0    0  502  501  0.00000000000E+00  0.00000000000E+00  0.10037824988E+04  0.10037824988E+04  0.00000000000E+00 0.  1.
         21   -1    0    0  501  502 -0.00000000000E+00 -0.00000000000E+00 -0.11889485334E+03  0.11889485334E+03  0.00000000000E+00 0.  1.
         25    1    1    2    0    0  0.18369889169E+02 -0.11741113428E+03  0.12859887871E+03  0.21514064908E+03  0.12500000000E+03 0.  0.
         25    1    1    2    0    0 -0.24278771445E+02  0.27199160079E+03  0.41045985110E+03  0.50859726603E+03  0.12500000000E+03 0.  0.
         25    1    1    2    0    0  0.59088822764E+01 -0.15458046651E+03  0.34582891568E+03  0.39893943705E+03  0.12500000000E+03 0.  0.
</event>
<event>
 5    0  0.5778875E-005  0.2122891E+03  0.7546771E-02  0.1139766E+00
         21   -1    0    0  502  501  0.00000000000E+00  0.00000000000E+00  0.31942779144E+03  0.31942779144E+03  0.00000000000E+00 0. -1.
         21   -1    0    0  501  502 -0.00000000000E+00 -0.00000000000E+00 -0.14108557499E+03  0.14108557499E+03  0.00000000000E+00 0. -1.
         25    1    1    2    0    0 -0.47387102839E+02  0.12317826816E+02  0.11392502793E+03  0.17607151490E+03  0.12500000000E+03 0.  0.
         25    1    1    2    0    0 -0.20388319395E+02  0.10092674995E+02  0.59794770234E+02  0.14042065448E+03  0.12500000000E+03 0.  0.
         25    1    1    2    0    0  0.67775422234E+02 -0.22410501811E+02  0.46224182895E+01  0.14402119706E+03  0.12500000000E+03 0.  0.
</event>
<event>
 5    0  0.5778875E-005  0.4273726E+03  0.7546771E-02  0.1034693E+00
         21   -1    0    0  502  501  0.00000000000E+00  0.00000000000E+00  0.44403825581E+03  0.44403825581E+03  0.00000000000E+00 0.  1.
         21   -1    0    0  501  502 -0.00000000000E+00 -0.00000000000E+00 -0.41133244549E+03  0.41133244549E+03  0.00000000000E+00 0.  1.
         25    1    1    2    0    0 -0.27429241479E+03 -0.19923637914E+02 -0.12103753318E+03  0.32543565355E+03  0.12500000000E+03 0.  0.
         25    1    1    2    0    0  0.33576443957E+03  0.41568740411E+02  0.14486760370E+03  0.38868668830E+03  0.12500000000E+03 0.  0.
         25    1    1    2    0    0 -0.61472024777E+02 -0.21645102497E+02  0.88757398007E+01  0.14124835946E+03  0.12500000000E+03 0.  0.
</event>
<event>
 5    0  0.5778875E-005  0.4077683E+03  0.7546771E-02  0.1041123E+00
         21   -1    0    0  502  501  0.00000000000E+00  0.00000000000E+00  0.17935925856E+04  0.17935925856E+04  0.00000000000E+00 0.  1.
         21   -1    0    0  501  502 -0.00000000000E+00 -0.00000000000E+00 -0.92704987472E+02  0.92704987472E+02  0.00000000000E+00 0.  1.
         25    1    1    2    0    0  0.11697521905E+03  0.14432706216E+03  0.32347798961E+03  0.39341646192E+03  0.12500000000E+03 0.  0.
         25    1    1    2    0    0 -0.17043398732E+03  0.74189802206E+02  0.10641123727E+04  0.10874336819E+04  0.12500000000E+03 0.  0.
         25    1    1    2    0    0  0.53458768269E+02 -0.21851686436E+03  0.31329723575E+03  0.40544742920E+03  0.12500000000E+03 0.  0.
</event>
<event>
 5    0  0.5778875E-005  0.3515993E+03  0.7546771E-02  0.1061961E+00
         21   -1    0    0  502  501  0.00000000000E+00  0.00000000000E+00  0.26722335149E+04  0.26722335149E+04  0.00000000000E+00 0. -1.
         21   -1    0    0  501  502 -0.00000000000E+00 -0.00000000000E+00 -0.46261701218E+02  0.46261701218E+02  0.00000000000E+00 0. -1.
         25    1    1    2    0    0  0.22364069699E+03  0.66679719845E+02  0.12796130010E+04  0.13067118193E+04  0.12500000000E+03 0.  0.
         25    1    1    2    0    0 -0.35624988310E+02 -0.13134339260E+03  0.48590943843E+03  0.51985883558E+03  0.12500000000E+03 0.  0.
         25    1    1    2    0    0 -0.18801570868E+03  0.64663672756E+02  0.86044937433E+03  0.89192456131E+03  0.12500000000E+03 0.  0.
</event>
<event>
 5    0  0.5778875E-005  0.3192509E+03  0.7546771E-02  0.1075995E+00
         21   -1    0    0  502  501  0.00000000000E+00  0.00000000000E+00  0.92857057159E+03  0.92857057159E+03  0.00000000000E+00 0. -1.
         21   -1    0    0  501  502 -0.00000000000E+00 -0.00000000000E+00 -0.10976132837E+03  0.10976132837E+03  0.00000000000E+00 0. -1.
         25    1    1    2    0    0  0.99867212403E+02 -0.91807600584E+02  0.57043208299E+02  0.19308294397E+03  0.12500000000E+03 0.  0.
         25    1    1    2    0    0  0.44735888428E+02  0.64594865177E+02  0.49086332732E+03  0.51258716569E+03  0.12500000000E+03 0.  0.
         25    1    1    2    0    0 -0.14460310083E+03  0.27212735407E+02  0.27090270760E+03  0.33266179030E+03  0.12500000000E+03 0.  0.
</event>
<event>
 5    0  0.5778875E-005  0.2771963E+03  0.7546771E-02  0.1097230E+00
         21   -1    0    0  502  501  0.00000000000E+00  0.00000000000E+00  0.55854212029E+02  0.55854212029E+02  0.00000000000E+00 0.  1.
         21   -1    0    0  501  502 -0.00000000000E+00 -0.00000000000E+00 -0.13756845604E+04  0.13756845604E+04  0.00000000000E+00 0.  1.
         25    1    1    2    0    0 -0.29957072838E+02  0.57184069558E+02 -0.18668476563E+03  0.23375980352E+03  0.12500000000E+03 0.  0.
         25    1    1    2    0    0  0.12286274869E+03 -0.76518592986E+01 -0.87376728685E+03  0.89120596808E+03  0.12500000000E+03 0.  0.
         25    1    1    2    0    0 -0.92905675853E+02 -0.49532210259E+02 -0.25937829590E+03  0.30657300084E+03  0.12500000000E+03 0.  0.
</event>
<event>
 5    0  0.5778875E-005  0.5116914E+03  0.7546771E-02  0.1010772E+00
         21   -1    0    0  502  501  0.00000000000E+00  0.00000000000E+00  0.75478093642E+03  0.75478093642E+03  0.00000000000E+00 0.  1.
         21   -1    0    0  501  502 -0.00000000000E+00 -0.00000000000E+00 -0.34689286277E+03  0.34689286277E+03  0.00000000000E+00 0.  1.
         25    1    1    2    0    0  0.11016152691E+03 -0.11795157177E+03 -0.27296945757E+03  0.34085988332E+03  0.12500000000E+03 0.  0.
         25    1    1    2    0    0 -0.74822266918E+02 -0.21446025050E+02  0.33520743983E+03  0.36612474833E+03  0.12500000000E+03 0.  0.
         25    1    1    2    0    0 -0.35339259992E+02  0.13939759682E+03  0.34565009139E+03  0.39468916754E+03  0.12500000000E+03 0.  0.
</event>
<event>
 5    0  0.5778875E-005  0.3912593E+03  0.7546771E-02  0.1046849E+00
         21   -1    0    0  502  501  0.00000000000E+00  0.00000000000E+00  0.73318967177E+03  0.73318967177E+03  0.00000000000E+00 0.  1.
         21   -1    0    0  501  502 -0.00000000000E+00 -0.00000000000E+00 -0.20879159108E+03  0.20879159108E+03  0.00000000000E+00 0.  1.
         25    1    1    2    0    0 -0.30554856011E+03 -0.23942278284E+02  0.29258995920E+03  0.44177713782E+03  0.12500000000E+03 0.  0.
         25    1    1    2    0    0  0.14388608363E+03 -0.87362809394E+02  0.12564614217E+03  0.24443285084E+03  0.12500000000E+03 0.  0.
         25    1    1    2    0    0  0.16166247648E+03  0.11130508768E+03  0.10616197932E+03  0.25577127419E+03  0.12500000000E+03 0.  0.
</event>
<event>
 5    0  0.5778875E-005  0.2952861E+03  0.7546771E-02  0.1087621E+00
         21   -1    0    0  502  501  0.00000000000E+00  0.00000000000E+00  0.26035824412E+04  0.26035824412E+04  0.00000000000E+00 0.  1.
         21   -1    0    0  501  502 -0.00000000000E+00 -0.00000000000E+00 -0.33489973115E+02  0.33489973115E+02  0.00000000000E+00 0.  1.
         25    1    1    2    0    0 -0.77541356145E+02 -0.90285581873E+02  0.97289493271E+03  0.98808587597E+03  0.12500000000E+03 0.  0.
         25    1    1    2    0    0  0.45352614843E+02 -0.92070469056E+02  0.96529827706E+03  0.97875410325E+03  0.12500000000E+03 0.  0.
         25    1    1    2    0    0  0.32188741302E+02  0.18235605093E+03  0.63189925828E+03  0.67023243504E+03  0.12500000000E+03 0.  0.
</event>
<event>
 5    0  0.5778875E-005  0.2299568E+03  0.7546771E-02  0.1126670E+00
         21   -1    0    0  502  501  0.00000000000E+00  0.00000000000E+00  0.24770748833E+03  0.24770748833E+03  0.00000000000E+00 0.  1.
         21   -1    0    0  501  502 -0.00000000000E+00 -0.00000000000E+00 -0.21347813582E+03  0.21347813582E+03  0.00000000000E+00 0.  1.
         25    1    1    2    0    0 -0.43635421398E+02 -0.17722188915E+02 -0.10079118518E+03  0.16733794845E+03  0.12500000000E+03 0.  0.
         25    1    1    2    0    0  0.45978391306E+02 -0.36405105870E+01  0.56848020091E+02  0.14485842458E+03  0.12500000000E+03 0.  0.
         25    1    1    2    0    0 -0.23429699077E+01  0.21362699502E+02  0.78172517603E+02  0.14898925111E+03  0.12500000000E+03 0.  0.
</event>
<event>
 5    0  0.5778875E-005  0.3303830E+03  0.7546771E-02  0.1070968E+00
         21   -1    0    0  502  501  0.00000000000E+00  0.00000000000E+00  0.34879178099E+03  0.34879178099E+03  0.00000000000E+00 0. -1.
         21   -1    0    0  501  502 -0.00000000000E+00 -0.00000000000E+00 -0.31294575174E+03  0.31294575174E+03  0.00000000000E+00 0. -1.
         25    1    1    2    0    0 -0.82798660622E+02 -0.12763574517E+03 -0.16800277869E+02  0.19762021906E+03  0.12500000000E+03 0.  0.
         25    1    1    2    0    0  0.20826232149E+03  0.72952545968E+01 -0.24643035298E+01  0.24301746456E+03  0.12500000000E+03 0.  0.
         25    1    1    2    0    0 -0.12546366086E+03  0.12034049057E+03  0.55110610640E+02  0.22109984911E+03  0.12500000000E+03 0.  0.
</event>
<event>
 5    0  0.5778875E-005  0.2685827E+03  0.7546771E-02  0.1102093E+00
         21   -1    0    0  502  501  0.00000000000E+00  0.00000000000E+00  0.29748520463E+02  0.29748520463E+02  0.00000000000E+00 0.  1.
         21   -1    0    0  501  502 -0.00000000000E+00 -0.00000000000E+00 -0.24248830742E+04  0.24248830742E+04  0.00000000000E+00 0.  1.
         25    1    1    2    0    0  0.94022418596E+02  0.12277448046E+03 -0.60386354221E+03  0.63575936160E+03  0.12500000000E+03 0.  0.
         25    1    1    2    0    0 -0.27347105357E+02 -0.10452269949E+03 -0.11554964653E+04  0.11672488767E+04  0.12500000000E+03 0.  0.
         25    1    1    2    0    0 -0.66675313239E+02 -0.18251780975E+02 -0.63577454621E+03  0.65162335633E+03  0.12500000000E+03 0.  0.
</event>
<event>
 5    0  0.5778875E-005  0.3647442E+03  0.7546771E-02  0.1056721E+00
         21   -1    0    0  502  501  0.00000000000E+00  0.00000000000E+00  0.87155230913E+03  0.87155230913E+03  0.00000000000E+00 0.  1.
         21   -1    0    0  501  502 -0.00000000000E+00 -0.00000000000E+00 -0.15264525200E+03  0.15264525200E+03  0.00000000000E+00 0.  1.
         25    1    1    2    0    0 -0.45787163140E+02 -0.16656857685E+03  0.45861344045E+03  0.50575966907E+03  0.12500000000E+03 0.  0.
         25    1    1    2    0    0  0.17504650091E+03  0.89253706684E+02  0.21627882399E+03  0.31781918026E+03  0.12500000000E+03 0.  0.
         25    1    1    2    0    0 -0.12925933777E+03  0.77314870163E+02  0.44014792698E+02  0.20061871180E+03  0.12500000000E+03 0.  0.
</event>
<event>
 5    0  0.5778875E-005  0.3177792E+03  0.7546771E-02  0.1076676E+00
         21   -1    0    0  502  501  0.00000000000E+00  0.00000000000E+00  0.28623789380E+03  0.28623789380E+03  0.00000000000E+00 0.  1.
         21   -1    0    0  501  502 -0.00000000000E+00 -0.00000000000E+00 -0.35279605336E+03  0.35279605336E+03  0.00000000000E+00 0.  1.
         25    1    1    2    0    0  0.14368585403E+03 -0.12470681298E+03 -0.10635686249E+03  0.25126519068E+03  0.12500000000E+03 0.  0.
         25    1    1    2    0    0  0.99853934746E+01  0.86979596317E+02  0.93645467133E+02  0.17905203649E+03  0.12500000000E+03 0.  0.
         25    1    1    2    0    0 -0.15367124750E+03  0.37727216667E+02 -0.53846764208E+02  0.20871671999E+03  0.12500000000E+03 0.  0.
</event>
<event>
 5    0  0.5778875E-005  0.4948949E+03  0.7546771E-02  0.1015120E+00
         21   -1    0    0  502  501  0.00000000000E+00  0.00000000000E+00  0.15544800974E+04  0.15544800974E+04  0.00000000000E+00 0.  1.
         21   -1    0    0  501  502 -0.00000000000E+00 -0.00000000000E+00 -0.15755813425E+03  0.15755813425E+03  0.00000000000E+00 0.  1.
         25    1    1    2    0    0 -0.72979859995E+02  0.19836883274E+03  0.12326092951E+03  0.27476264395E+03  0.12500000000E+03 0.  0.
         25    1    1    2    0    0  0.27558971217E+03  0.63385170265E+02  0.52645472999E+03  0.61053005822E+03  0.12500000000E+03 0.  0.
         25    1    1    2    0    0 -0.20260985217E+03 -0.26175400301E+03  0.74720630360E+03  0.82674552943E+03  0.12500000000E+03 0.  0.
</event>
<event>
 5    0  0.5778875E-005  0.2717925E+03  0.7546771E-02  0.1100258E+00
         21   -1    0    0  502  501  0.00000000000E+00  0.00000000000E+00  0.97757011281E+02  0.97757011281E+02  0.00000000000E+00 0. -1.
         21   -1    0    0  501  502 -0.00000000000E+00 -0.00000000000E+00 -0.75566078735E+03  0.75566078735E+03  0.00000000000E+00 0. -1.
         25    1    1    2    0    0  0.44376410910E+02 -0.58377899496E+01 -0.44927157049E+03  0.46847976444E+03  0.12500000000E+03 0.  0.
         25    1    1    2    0    0 -0.44062520069E+02  0.70831717857E+02 -0.23205581349E+02  0.15205964927E+03  0.12500000000E+03 0.  0.
         25    1    1    2    0    0 -0.31389084074E+00 -0.64993927908E+02 -0.18542662423E+03  0.23287838493E+03  0.12500000000E+03 0.  0.
</event>
<event>
 5    0  0.5778875E-005  0.3500083E+03  0.7546771E-02  0.1062612E+00
         21   -1    0    0  502  501  0.00000000000E+00  0.00000000000E+00  0.11533106745E+04  0.11533106745E+04  0.00000000000E+00 0.  1.
         21   -1    0    0  501  502 -0.00000000000E+00 -0.00000000000E+00 -0.10622099066E+03  0.10622099066E+03  0.00000000000E+00 0.  1.
         25    1    1    2    0    0  0.18637232099E+03 -0.11498436733E+02  0.56435457770E+03  0.60744377967E+03  0.12500000000E+03 0.  0.
         25    1    1    2    0    0 -0.73622212325E+02 -0.19872777831E+02  0.45580577107E+03  0.47874738473E+03  0.12500000000E+03 0.  0.
         25    1    1    2    0    0 -0.11275010866E+03  0.31371214564E+02  0.26929335028E+02  0.17334050073E+03  0.12500000000E+03 0.  0.
</event>
<event>
 5    0  0.5778875E-005  0.4045101E+03  0.7546771E-02  0.1042229E+00
         21   -1    0    0  502  501  0.00000000000E+00  0.00000000000E+00  0.60935683573E+03  0.60935683573E+03  0.00000000000E+00 0. -1.
         21   -1    0    0  501  502 -0.00000000000E+00 -0.00000000000E+00 -0.26852645680E+03  0.26852645680E+03  0.00000000000E+00 0. -1.
         25    1    1    2    0    0 -0.12398498239E+03  0.41250782248E+02  0.32712577409E+03  0.37377824304E+03  0.12500000000E+03 0.  0.
         25    1    1    2    0    0  0.36485475811E+02 -0.11576793707E+03  0.19105284544E+03  0.25857222386E+03  0.12500000000E+03 0.  0.
         25    1    1    2    0    0  0.87499506574E+02  0.74517154827E+02 -0.17734824061E+03  0.24553282563E+03  0.12500000000E+03 0.  0.
</event>
<event>
 5    0  0.5778875E-005  0.3295159E+03  0.7546771E-02  0.1071351E+00
         21   -1    0    0  502  501  0.00000000000E+00  0.00000000000E+00  0.69171598681E+03  0.69171598681E+03  0.00000000000E+00 0. -1.
         21   -1    0    0  501  502 -0.00000000000E+00 -0.00000000000E+00 -0.15697299143E+03  0.15697299143E+03  0.00000000000E+00 0. -1.
         25    1    1    2    0    0  0.72231084210E+01  0.30625168795E+02  0.12993458910E+02  0.12955270832E+03  0.12500000000E+03 0.  0.
         25    1    1    2    0    0 -0.15451685339E+03  0.78898187087E+02  0.42729036318E+03  0.47781004215E+03  0.12500000000E+03 0.  0.
         25    1    1    2    0    0  0.14729374497E+03 -0.10952335588E+03  0.94459173285E+02  0.24132622777E+03  0.12500000000E+03 0.  0.
</event>
<event>
 5    0  0.5778875E-005  0.2564311E+03  0.7546771E-02  0.1109307E+00
         21   -1    0    0  502  501  0.00000000000E+00  0.00000000000E+00  0.17191176343E+03  0.17191176343E+03  0.00000000000E+00 0.  1.
         21   -1    0    0  501  502 -0.00000000000E+00 -0.00000000000E+00 -0.38250396189E+03  0.38250396189E+03  0.00000000000E+00 0.  1.
         25    1    1    2    0    0  0.39134997504E+02  0.55827696042E+02  0.34117978258E+02  0.14641487669E+03  0.12500000000E+03 0.  0.
         25    1    1    2    0    0  0.74741168045E+02 -0.56207447337E+02 -0.99592308220E+02  0.18517328963E+03  0.12500000000E+03 0.  0.
         25    1    1    2    0    0 -0.11387616555E+03  0.37975129506E+00 -0.14511786850E+03  0.22282755900E+03  0.12500000000E+03 0.  0.
</event>
<event>
 5    0  0.5778875E-005  0.3580416E+03  0.7546771E-02  0.1059362E+00
         21   -1    0    0  502  501  0.00000000000E+00  0.00000000000E+00  0.12707340189E+04  0.12707340189E+04  0.00000000000E+00 0. -1.
         21   -1    0    0  501  502 -0.00000000000E+00 -0.00000000000E+00 -0.10088167812E+03  0.10088167812E+03  0.00000000000E+00 0. -1.
         25    1    1    2    0    0  0.84044965721E+02 -0.94462108939E+01  0.14987592757E+03  0.21269833292E+03  0.12500000000E+03 0.  0.
         25    1    1    2    0    0  0.19889938039E+03 -0.34822019631E+02  0.42304531825E+03  0.48514521317E+03  0.12500000000E+03 0.  0.
         25    1    1    2    0    0 -0.28294434611E+03  0.44268230525E+02  0.59693109498E+03  0.67377215094E+03  0.12500000000E+03 0.  0.
</event>
<event>
 5    0  0.5778875E-005  0.2593432E+03  0.7546771E-02  0.1107538E+00
         21   -1    0    0  502  501  0.00000000000E+00  0.00000000000E+00  0.64682465286E+03  0.64682465286E+03  0.00000000000E+00 0.  1.
         21   -1    0    0  501  502 -0.00000000000E+00 -0.00000000000E+00 -0.10398319376E+03  0.10398319376E+03  0.00000000000E+00 0.  1.
         25    1    1    2    0    0 -0.19702291357E+02  0.98042687434E+02  0.12089439806E+03  0.20060160599E+03  0.12500000000E+03 0.  0.
         25    1    1    2    0    0 -0.39723128091E+02 -0.53332395956E+02  0.36931741290E+03  0.39552828323E+03  0.12500000000E+03 0.  0.
         25    1    1    2    0    0  0.59425419449E+02 -0.44710291478E+02  0.52629648138E+02  0.15467795739E+03  0.12500000000E+03 0.  0.
</event>
<event>
 5    0  0.5778875E-005  0.2299970E+03  0.7546771E-02  0.1126642E+00
         21   -1    0    0  502  501  0.00000000000E+00  0.00000000000E+00  0.73177863394E+03  0.73177863394E+03  0.00000000000E+00 0.  1.
         21   -1    0    0  501  502 -0.00000000000E+00 -0.00000000000E+00 -0.72287752186E+02  0.72287752186E+02  0.00000000000E+00 0.  1.
         25    1    1    2    0    0  0.28987412997E+02  0.20544030926E+02  0.28514352543E+03  0.31335946996E+03  0.12500000000E+03 0.  0.
         25    1    1    2    0    0  0.36245272435E+01  0.82801570861E+02  0.20453008674E+03  0.25362727321E+03  0.12500000000E+03 0.  0.
         25    1    1    2    0    0 -0.32611940240E+02 -0.10334560179E+03  0.16981726958E+03  0.23707964296E+03  0.12500000000E+03 0.  0.
</event>
<event>
 5    0  0.5778875E-005  0.2612245E+03  0.7546771E-02  0.1106410E+00
         21   -1    0    0  502  501  0.00000000000E+00  0.00000000000E+00  0.46092298805E+03  0.46092298805E+03  0.00000000000E+00 0.  1.
         21   -1    0    0  501  502 -0.00000000000E+00 -0.00000000000E+00 -0.14804691415E+03  0.14804691415E+03  0.00000000000E+00 0.  1.
         25    1    1    2    0    0 -0.34147106157E+02 -0.11826039205E+03  0.16609684942E+03  0.24158788996E+03  0.12500000000E+03 0.  0.
         25    1    1    2    0    0  0.35251224210E+02  0.12574283385E+03  0.87125163107E+01  0.18098291912E+03  0.12500000000E+03 0.  0.
         25    1    1    2    0    0 -0.11041180523E+01 -0.74824418007E+01  0.13806670816E+03  0.18639909312E+03  0.12500000000E+03 0.  0.
</event>
<event>
 5    0  0.5778875E-005  0.3401093E+03  0.7546771E-02  0.1066749E+00
         21   -1    0    0  502  501  0.00000000000E+00  0.00000000000E+00  0.45955409787E+03  0.45955409787E+03  0.00000000000E+00 0. -1.
         21   -1    0    0  501  502 -0.00000000000E+00 -0.00000000000E+00 -0.25170998582E+03  0.25170998582E+03  0.00000000000E+00 0. -1.
         25    1    1    2    0    0  0.22277097780E+03  0.14688235466E+03  0.78887120413E+02  0.30504018166E+03  0.12500000000E+03 0.  0.
         25    1    1    2    0    0 -0.60764430425E+02 -0.84545336575E+02  0.13744249282E+02  0.16326093939E+03  0.12500000000E+03 0.  0.
         25    1    1    2    0    0 -0.16200654737E+03 -0.62337018088E+02  0.11521274235E+03  0.24296296264E+03  0.12500000000E+03 0.  0.
</event>
<event>
 5    0  0.5778875E-005  0.2176194E+03  0.7546771E-02  0.1135670E+00
         21   -1    0    0  502  501  0.00000000000E+00  0.00000000000E+00  0.22850023504E+03  0.22850023504E+03  0.00000000000E+00 0. -1.
         21   -1    0    0  501  502 -0.00000000000E+00 -0.00000000000E+00 -0.20725664872E+03  0.20725664872E+03  0.00000000000E+00 0. -1.
         25    1    1    2    0    0 -0.61381518038E+02  0.23427763007E+02 -0.58728863950E+02  0.15293995651E+03  0.12500000000E+03 0.  0.
         25    1    1    2    0    0  0.69576599018E+02 -0.15749922314E+02  0.26245192214E+02  0.14629686701E+03  0.12500000000E+03 0.  0.
         25    1    1    2    0    0 -0.81950809796E+01 -0.76778406929E+01  0.53727258055E+02  0.13652006024E+03  0.12500000000E+03 0.  0.
</event>
<event>
 5    0  0.5778875E-005  0.2355665E+03  0.7546771E-02  0.1122782E+00
         21   -1    0    0  502  501  0.00000000000E+00  0.00000000000E+00  0.54780994548E+03  0.54780994548E+03  0.00000000000E+00 0. -1.
         21   -1    0    0  501  502 -0.00000000000E+00 -0.00000000000E+00 -0.10129712758E+03  0.10129712758E+03  0.00000000000E+00 0. -1.
         25    1    1    2    0    0 -0.75822653083E+01 -0.96286054494E+02  0.13036892420E+03  0.20481589644E+03  0.12500000000E+03 0.  0.
         25    1    1    2    0    0  0.35407968715E+02  0.68787014455E+01  0.23421820601E+03  0.26792575242E+03  0.12500000000E+03 0.  0.
         25    1    1    2    0    0 -0.27825703406E+02  0.89407353049E+02  0.81925687689E+02  0.17636542420E+03  0.12500000000E+03 0.  0.
</event>
<event>
 5    0  0.5778875E-005  0.4728869E+03  0.7546771E-02  0.1021109E+00
         21   -1    0    0  502  501  0.00000000000E+00  0.00000000000E+00  0.30454420590E+03  0.30454420590E+03  0.00000000000E+00 0. -1.
         21   -1    0    0  501  502 -0.00000000000E+00 -0.00000000000E+00 -0.73428422631E+03  0.73428422631E+03  0.00000000000E+00 0. -1.
         25    1    1    2    0    0 -0.12047260393E+03  0.31496972925E+01 -0.25244334699E+03  0.30639225240E+03  0.12500000000E+03 0.  0.
         25    1    1    2    0    0 -0.18669572241E+03  0.12742127390E+02  0.14662191954E+03  0.26859010009E+03  0.12500000000E+03 0.  0.
         25    1    1    2    0    0  0.30716832635E+03 -0.15891824683E+02 -0.32391859296E+03  0.46384607972E+03  0.12500000000E+03 0.  0.
</event>
<event>
 5    0  0.5778875E-005  0.3844442E+03  0.7546771E-02  0.1049303E+00
         21   -1    0    0  502  501  0.00000000000E+00  0.00000000000E+00  0.80263987669E+03  0.80263987669E+03  0.00000000000E+00 0.  1.
         21   -1    0    0  501  502 -0.00000000000E+00 -0.00000000000E+00 -0.18413905008E+03  0.18413905008E+03  0.00000000000E+00 0.  1.
         25    1    1    2    0    0 -0.27037125689E+03  0.10895874780E+03  0.10262190890E+03  0.33335998780E+03  0.12500000000E+03 0.  0.
         25    1    1    2    0    0  0.21591281605E+03 -0.72942540486E+02  0.34044413462E+03  0.42832950768E+03  0.12500000000E+03 0.  0.
         25    1    1    2    0    0  0.54458440837E+02 -0.36016207319E+02  0.17543478309E+03  0.22508943130E+03  0.12500000000E+03 0.  0.
</event>
<event>
 5    0  0.5778875E-005  0.2298315E+03  0.7546771E-02  0.1126758E+00
         21   -1    0    0  502  501  0.00000000000E+00  0.00000000000E+00  0.10270988495E+04  0.10270988495E+04  0.00000000000E+00 0. -1.
         21   -1    0    0  501  502 -0.00000000000E+00 -0.00000000000E+00 -0.51428869128E+02  0.51428869128E+02  0.00000000000E+00 0. -1.
         25    1    1    2    0    0  0.83168443460E+02 -0.67709552102E+01  0.16176185407E+03  0.22080474010E+03  0.12500000000E+03 0.  0.
         25    1    1    2    0    0 -0.62011983476E+02 -0.16267315503E+02  0.46625838269E+03  0.48696200168E+03  0.12500000000E+03 0.  0.
         25    1    1    2    0    0 -0.21156459983E+02  0.23038270713E+02  0.34764974364E+03  0.37076097687E+03  0.12500000000E+03 0.  0.
</event>
<event>
 5    0  0.5778875E-005  0.2598307E+03  0.7546771E-02  0.1107245E+00
         21   -1    0    0  502  501  0.00000000000E+00  0.00000000000E+00  0.10565559030E+04  0.10565559030E+04  0.00000000000E+00 0. -1.
         21   -1    0    0  501  502 -0.00000000000E+00 -0.00000000000E+00 -0.63898180941E+02  0.63898180941E+02  0.00000000000E+00 0. -1.
         25    1    1    2    0    0 -0.79438565671E+02  0.10695606731E+03  0.21551423269E+03  0.28252693773E+03  0.12500000000E+03 0.  0.
         25    1    1    2    0    0 -0.10892639522E+02 -0.15537445769E+02  0.41506188501E+03  0.43389103494E+03  0.12500000000E+03 0.  0.
         25    1    1    2    0    0  0.90331205193E+02 -0.91418621540E+02  0.36208160438E+03  0.40403611129E+03  0.12500000000E+03 0.  0.
</event>
<event>
 5    0  0.5778875E-005  0.6266645E+03  0.7546771E-02  0.9851579E-01
         21   -1    0    0  502  501  0.00000000000E+00  0.00000000000E+00  0.77529394322E+03  0.77529394322E+03  0.00000000000E+00 0.  1.
         21   -1    0    0  501  502 -0.00000000000E+00 -0.00000000000E+00 -0.50652839366E+03  0.50652839366E+03  0.00000000000E+00 0.  1.
         25    1    1    2    0    0 -0.44530688198E+03 -0.54452419323E+01  0.66014564383E+02  0.46723740487E+03  0.12500000000E+03 0.  0.
         25    1    1    2    0    0  0.54187534161E+03  0.26487092682E+02  0.37831401767E-01  0.55673643077E+03  0.12500000000E+03 0.  0.
         25    1    1    2    0    0 -0.96568459624E+02 -0.21041850750E+02  0.20271315377E+03  0.25784850124E+03  0.12500000000E+03 0.  0.
</event>
<event>
 5    0  0.5778875E-005  0.2605515E+03  0.7546771E-02  0.1106812E+00
         21   -1    0    0  502  501  0.00000000000E+00  0.00000000000E+00  0.32408105069E+03  0.32408105069E+03  0.00000000000E+00 0.  1.
         21   -1    0    0  501  502 -0.00000000000E+00 -0.00000000000E+00 -0.20947556457E+03  0.20947556457E+03  0.00000000000E+00 0.  1.
         25    1    1    2    0    0  0.81884786099E+02 -0.74507725118E+02  0.10167205603E+03  0.19549610296E+03  0.12500000000E+03 0.  0.
         25    1    1    2    0    0 -0.26158005701E+02  0.13630969154E+03 -0.48101175682E+01  0.18684943271E+03  0.12500000000E+03 0.  0.
         25    1    1    2    0    0 -0.55726780398E+02 -0.61801966427E+02  0.17743547666E+02  0.15121107959E+03  0.12500000000E+03 0.  0.
</event>
<event>
 5    0  0.5778875E-005  0.2800659E+03  0.7546771E-02  0.1095653E+00
         21   -1    0    0  502  501  0.00000000000E+00  0.00000000000E+00  0.22706224628E+04  0.22706224628E+04  0.00000000000E+00 0. -1.
         21   -1    0    0  501  502 -0.00000000000E+00 -0.00000000000E+00 -0.34544238999E+02  0.34544238999E+02  0.00000000000E+00 0. -1.
         25    1    1    2    0    0 -0.16833815156E+02  0.42470847120E+02  0.11822299897E+04  0.11896973980E+04  0.12500000000E+03 0.  0.
         25    1    1    2    0    0  0.45247158724E+02 -0.14015779829E+03  0.43472226475E+03  0.47570995498E+03  0.12500000000E+03 0.  0.
         25    1    1    2    0    0 -0.28413343568E+02  0.97686951170E+02  0.61912596937E+03  0.63975934887E+03  0.12500000000E+03 0.  0.
</event>
<event>
 5    0  0.5778875E-005  0.2220722E+03  0.7546771E-02  0.1132348E+00
         21   -1    0    0  502  501  0.00000000000E+00  0.00000000000E+00  0.16303731490E+03  0.16303731490E+03  0.00000000000E+00 0. -1.
         21   -1    0    0  501  502 -0.00000000000E+00 -0.00000000000E+00 -0.30248323416E+03  0.30248323416E+03  0.00000000000E+00 0. -1.
         25    1    1    2    0    0  0.46221034793E+02 -0.35652302807E+02 -0.31431641230E+02  0.14149352926E+03  0.12500000000E+03 0.  0.
         25    1    1    2    0    0 -0.10268798249E+03  0.45084960608E+02 -0.62876113830E+02  0.17932060984E+03  0.12500000000E+03 0.  0.
         25    1    1    2    0    0  0.56466947700E+02 -0.94326578013E+01 -0.45138164198E+02  0.14470640996E+03  0.12500000000E+03 0.  0.
</event>
<event>
 5    0  0.5778875E-005  0.2424337E+03  0.7546771E-02  0.1118182E+00
         21   -1    0    0  502  501  0.00000000000E+00  0.00000000000E+00  0.37283383058E+03  0.37283383058E+03  0.00000000000E+00 0.  1.
         21   -1    0    0  501  502 -0.00000000000E+00 -0.00000000000E+00 -0.15764150807E+03  0.15764150807E+03  0.00000000000E+00 0.  1.
         25    1    1    2    0    0 -0.44269602507E+02 -0.43227098716E+02  0.19084026017E+03  0.23637551623E+03  0.12500000000E+03 0.  0.
         25    1    1    2    0    0 -0.15300310575E+02  0.87827126415E+00  0.67662069334E+02  0.14296162594E+03  0.12500000000E+03 0.  0.
         25    1    1    2    0    0  0.59569913083E+02  0.42348827452E+02 -0.43310007000E+02  0.15113819649E+03  0.12500000000E+03 0.  0.
</event>
<event>
 5    0  0.5778875E-005  0.2295178E+03  0.7546771E-02  0.1126980E+00
         21   -1    0    0  502  501  0.00000000000E+00  0.00000000000E+00  0.19545568277E+03  0.19545568277E+03  0.00000000000E+00 0. -1.
         21   -1    0    0  501  502 -0.00000000000E+00 -0.00000000000E+00 -0.26951591948E+03  0.26951591948E+03  0.00000000000E+00 0. -1.
         25    1    1    2    0    0  0.28601372843E+02  0.35689389806E+02  0.25159120439E+01  0.13312813710E+03  0.12500000000E+03 0.  0.
         25    1    1    2    0    0 -0.29879564779E+02 -0.74481950061E+02  0.42911641263E+02  0.15461810448E+03  0.12500000000E+03 0.  0.
         25    1    1    2    0    0  0.12781919353E+01  0.38792560255E+02 -0.11948779001E+03  0.17722536068E+03  0.12500000000E+03 0.  0.
</event>
<event>
 5    0  0.5778875E-005  0.4211373E+03  0.7546771E-02  0.1036697E+00
         21   -1    0    0  502  501  0.00000000000E+00  0.00000000000E+00  0.20598870241E+03  0.20598870241E+03  0.00000000000E+00 0. -1.
         21   -1    0    0  501  502 -0.00000000000E+00 -0.00000000000E+00 -0.86100178934E+03  0.86100178934E+03  0.00000000000E+00 0. -1.
         25    1    1    2    0    0  0.30786529813E+02 -0.25696731948E+03 -0.34363604546E+03  0.44798520672E+03  0.12500000000E+03 0.  0.
         25    1    1    2    0    0  0.17745389203E+03  0.68662689134E+02 -0.13360696654E+03  0.26397020700E+03  0.12500000000E+03 0.  0.
         25    1    1    2    0    0 -0.20824042184E+03  0.18830463034E+03 -0.17777007493E+03  0.35503507804E+03  0.12500000000E+03 0.  0.
</event>
<event>
 5    0  0.5778875E-005  0.3346587E+03  0.7546771E-02  0.1069094E+00
         21   -1    0    0  502  501  0.00000000000E+00  0.00000000000E+00  0.66790516093E+03  0.66790516093E+03  0.00000000000E+00 0.  1.
         21   -1    0    0  501  502 -0.00000000000E+00 -0.00000000000E+00 -0.16768311204E+03  0.16768311204E+03  0.00000000000E+00 0.  1.
         25    1    1    2    0    0 -0.18956028943E+02 -0.15960505463E+03  0.19875983014E+03  0.28454098927E+03  0.12500000000E+03 0.  0.
         25    1    1    2    0    0  0.16519343718E+03  0.14319072446E+03  0.24139565488E+03  0.34883995965E+03  0.12500000000E+03 0.  0.
         25    1    1    2    0    0 -0.14623740824E+03  0.16414330178E+02  0.60066563872E+02  0.20220732405E+03  0.12500000000E+03 0.  0.
</event>
<event>
 5    0  0.5778875E-005  0.2693170E+03  0.7546771E-02  0.1101671E+00
         21   -1    0    0  502  501  0.00000000000E+00  0.00000000000E+00  0.33574903898E+02  0.33574903898E+02  0.00000000000E+00 0.  1.
         21   -1    0    0  501  502 -0.00000000000E+00 -0.00000000000E+00 -0.21602939057E+04  0.21602939057E+04  0.00000000000E+00 0.  1.
         25    1    1    2    0    0  0.55966395568E+02 -0.10166148798E+03 -0.87182350075E+03  0.88835157007E+03  0.12500000000E+03 0.  0.
         25    1    1    2    0    0 -0.37034744349E+02  0.13736212486E+03 -0.42495112286E+03  0.46524013418E+03  0.12500000000E+03 0.  0.
         25    1    1    2    0    0 -0.18931651219E+02 -0.35700636882E+02 -0.82994437823E+03  0.84027710539E+03  0.12500000000E+03 0.  0.
</event>
<event>
 5    0  0.5778875E-005  0.2945457E+03  0.7546771E-02  0.1087999E+00
         21   -1    0    0  502  501  0.00000000000E+00  0.00000000000E+00  0.70374909774E+03  0.70374909774E+03  0.00000000000E+00 0.  1.
         21   -1    0    0  501  502 -0.00000000000E+00 -0.00000000000E+00 -0.12327853496E+03  0.12327853496E+03  0.00000000000E+00 0.  1.
         25    1    1    2    0    0 -0.48605097676E+02  0.12429803071E+03  0.59845077720E+02  0.19240293471E+03  0.12500000000E+03 0.  0.
         25    1    1    2    0    0  0.28325115620E+02 -0.53994827408E+02  0.59472358537E+02  0.15126042110E+03  0.12500000000E+03 0.  0.
         25    1    1    2    0    0  0.20279982056E+02 -0.70303203303E+02  0.46115312653E+03  0.48336427689E+03  0.12500000000E+03 0.  0.
</event>
<event>
 5    0  0.5778875E-005  0.2259162E+03  0.7546771E-02  0.1129548E+00
         21   -1    0    0  502  501  0.00000000000E+00  0.00000000000E+00  0.23769472192E+03  0.23769472192E+03  0.00000000000E+00 0.  1.
         21   -1    0    0  501  502 -0.00000000000E+00 -0.00000000000E+00 -0.21472140264E+03  0.21472140264E+03  0.00000000000E+00 0.  1.
         25    1    1    2    0    0  0.59412051580E+01  0.62611516844E+02  0.55370548055E+02  0.15048720063E+03  0.12500000000E+03 0.  0.
         25    1    1    2    0    0 -0.32354143369E+02 -0.12990841073E+02  0.53293505807E+02  0.14028809752E+03  0.12500000000E+03 0.  0.
         25    1    1    2    0    0  0.26412938211E+02 -0.49620675772E+02 -0.85690734585E+02  0.16164082641E+03  0.12500000000E+03 0.  0.
</event>
<event>
 5    0  0.5778875E-005  0.4511216E+03  0.7546771E-02  0.1027388E+00
         21   -1    0    0  502  501  0.00000000000E+00  0.00000000000E+00  0.15383781173E+03  0.15383781173E+03  0.00000000000E+00 0. -1.
         21   -1    0    0  501  502 -0.00000000000E+00 -0.00000000000E+00 -0.13228915427E+04  0.13228915427E+04  0.00000000000E+00 0. -1.
         25    1    1    2    0    0 -0.11124827740E+03 -0.10841980966E+03 -0.19795451040E+03  0.28096623025E+03  0.12500000000E+03 0.  0.
         25    1    1    2    0    0 -0.15946244632E+03 -0.15803447831E+03 -0.19454923728E+03  0.32230044035E+03  0.12500000000E+03 0.  0.
         25    1    1    2    0    0  0.27071072372E+03  0.26645428798E+03 -0.77654998332E+03  0.87346268387E+03  0.12500000000E+03 0.  0.
</event>
<event>
 5    0  0.5778875E-005  0.4329289E+03  0.7546771E-02  0.1032939E+00
         21   -1    0    0  502  501  0.00000000000E+00  0.00000000000E+00  0.40291375637E+03  0.40291375637E+03  0.00000000000E+00 0.  1.
         21   -1    0    0  501  502 -0.00000000000E+00 -0.00000000000E+00 -0.46518007521E+03  0.46518007521E+03  0.00000000000E+00 0.  1.
         25    1    1    2    0    0  0.11210493783E+03 -0.18074652262E+03  0.12664718259E+03  0.27731089301E+03  0.12500000000E+03 0.  0.
         25    1    1    2    0    0 -0.10026431957E+02 -0.13699460804E+03  0.35484584850E+01  0.18575694745E+03  0.12500000000E+03 0.  0.
         25    1    1    2    0    0 -0.10207850587E+03  0.31774113065E+03 -0.19246195992E+03  0.40502599112E+03  0.12500000000E+03 0.  0.
</event>
<event>
 5    0  0.5778875E-005  0.3168736E+03  0.7546771E-02  0.1077097E+00
         21   -1    0    0  502  501  0.00000000000E+00  0.00000000000E+00  0.81100130519E+03  0.81100130519E+03  0.00000000000E+00 0. -1.
         21   -1    0    0  501  502 -0.00000000000E+00 -0.00000000000E+00 -0.12380853643E+03  0.12380853643E+03  0.00000000000E+00 0. -1.
         25    1    1    2    0    0  0.80181852013E+02 -0.60762544104E+01  0.15782494593E+03  0.21679428917E+03  0.12500000000E+03 0.  0.
         25    1    1    2    0    0  0.11290107298E+03  0.10435196285E+03  0.10206185016E+03  0.22288473633E+03  0.12500000000E+03 0.  0.
         25    1    1    2    0    0 -0.19308292499E+03 -0.98275708435E+02  0.42730597267E+03  0.49513081612E+03  0.12500000000E+03 0.  0.
</event>
<event>
 5    0  0.5778875E-005  0.2382264E+03  0.7546771E-02  0.1120980E+00
         21   -1    0    0  502  501  0.00000000000E+00  0.00000000000E+00  0.50188667679E+03  0.50188667679E+03  0.00000000000E+00 0.  1.
         21   -1    0    0  501  502 -0.00000000000E+00 -0.00000000000E+00 -0.11307699353E+03  0.11307699353E+03  0.00000000000E+00 0.  1.
         25    1    1    2    0    0  0.99271047938E+02 -0.52122220451E+02  0.11434170476E+03  0.20315140234E+03  0.12500000000E+03 0.  0.
         25    1    1    2    0    0  0.56200272626E+01  0.46724125322E+02  0.72061702956E+02  0.15176500791E+03  0.12500000000E+03 0.  0.
         25    1    1    2    0    0 -0.10489107520E+03  0.53980951289E+01  0.20240627554E+03  0.26004726007E+03  0.12500000000E+03 0.  0.
</event>
<event>
 5    0  0.5778875E-005  0.4306937E+03  0.7546771E-02  0.1033641E+00
         21   -1    0    0  502  501  0.00000000000E+00  0.00000000000E+00  0.16796896788E+03  0.16796896788E+03  0.00000000000E+00 0.  1.
         21   -1    0    0  501  502 -0.00000000000E+00 -0.00000000000E+00 -0.11043534302E+04  0.11043534302E+04  0.00000000000E+00 0.  1.
         25    1    1    2    0    0 -0.32951813169E+03 -0.10398184199E+03 -0.60865544293E+03  0.71097177918E+03  0.12500000000E+03 0.  0.
         25    1    1    2    0    0  0.10089148637E+03  0.70210481179E+02 -0.57638186618E+02  0.18454203924E+03  0.12500000000E+03 0.  0.
         25    1    1    2    0    0  0.22862664532E+03  0.33771360809E+02 -0.27009083280E+03  0.37680857969E+03  0.12500000000E+03 0.  0.
</event>
<event>
 5    0  0.5778875E-005  0.2980321E+03  0.7546771E-02  0.1086228E+00
         21   -1    0    0  502  501  0.00000000000E+00  0.00000000000E+00  0.20572182075E+03  0.20572182075E+03  0.00000000000E+00 0.  1.
         21   -1    0    0  501  502 -0.00000000000E+00 -0.00000000000E+00 -0.43176335703E+03  0.43176335703E+03  0.00000000000E+00 0. -1.
         25    1    1    2    0    0 -0.62941231792E+02 -0.98726754253E+02  0.35888195870E+02  0.17499009477E+03  0.12500000000E+03 0.  0.
         25    1    1    2    0    0 -0.91532723333E+02  0.44108480123E+02 -0.54398282858E+02  0.17002344144E+03  0.12500000000E+03 0.  0.
         25    1    1    2    0    0  0.15447395513E+03  0.54618274131E+02 -0.20753144929E+03  0.29247164158E+03  0.12500000000E+03 0.  0.
</event>
<event>
 5    0  0.5778875E-005  0.2391954E+03  0.7546771E-02  0.1120330E+00
         21   -1    0    0  502  501  0.00000000000E+00  0.00000000000E+00  0.56273146018E+02  0.56273146018E+02  0.00000000000E+00 0. -1.
         21   -1    0    0  501  502 -0.00000000000E+00 -0.00000000000E+00 -0.10167273188E+04  0.10167273188E+04  0.00000000000E+00 0. -1.
         25    1    1    2    0    0 -0.92051529861E+02  0.17286753412E+01 -0.33650969806E+03  0.37059445403E+03  0.12500000000E+03 0.  0.
         25    1    1    2    0    0  0.72855162957E+02 -0.44495369292E+02 -0.16267842024E+03  0.22220931814E+03  0.12500000000E+03 0.  0.
         25    1    1    2    0    0  0.19196366903E+02  0.42766693951E+02 -0.46126605453E+03  0.48019669269E+03  0.12500000000E+03 0.  0.
</event>
<event>
 5    0  0.5778875E-005  0.3306356E+03  0.7546771E-02  0.1070856E+00
         21   -1    0    0  502  501  0.00000000000E+00  0.00000000000E+00  0.36964202475E+02  0.36964202475E+02  0.00000000000E+00 0. -1.
         21   -1    0    0  501  502 -0.00000000000E+00 -0.00000000000E+00 -0.29574524013E+04  0.29574524013E+04  0.00000000000E+00 0. -1.
         25    1    1    2    0    0  0.19900058874E+03 -0.13174639007E+03 -0.14649763567E+04  0.14895432425E+04  0.12500000000E+03 0.  0.
         25    1    1    2    0    0 -0.15789196422E+03  0.34230840500E+02 -0.10041219590E+04  0.10246889925E+04  0.12500000000E+03 0.  0.
         25    1    1    2    0    0 -0.41108624522E+02  0.97515549574E+02 -0.45138988312E+03  0.48018436876E+03  0.12500000000E+03 0.  0.
</event>
<event>
 5    0  0.5778875E-005  0.3333542E+03  0.7546771E-02  0.1069662E+00
         21   -1    0    0  502  501  0.00000000000E+00  0.00000000000E+00  0.11423763553E+03  0.11423763553E+03  0.00000000000E+00 0.  1.
         21   -1    0    0  501  502 -0.00000000000E+00 -0.00000000000E+00 -0.97275325526E+03  0.97275325526E+03  0.00000000000E+00 0.  1.
         25    1    1    2    0    0  0.10762462904E+03  0.23815406806E+02  0.88514518071E+01  0.16689392612E+03  0.12500000000E+03 0.  0.
         25    1    1    2    0    0 -0.39936828774E+02 -0.25166565470E+02 -0.22075432461E+03  0.25804220225E+03  0.12500000000E+03 0.  0.
         25    1    1    2    0    0 -0.67687800269E+02  0.13511586641E+01 -0.64661274693E+03  0.66205476241E+03  0.12500000000E+03 0.  0.
</event>
<event>
 5    0  0.5778875E-005  0.3719747E+03  0.7546771E-02  0.1053940E+00
         21   -1    0    0  502  501  0.00000000000E+00  0.00000000000E+00  0.18471556246E+03  0.18471556246E+03  0.00000000000E+00 0. -1.
         21   -1    0    0  501  502 -0.00000000000E+00 -0.00000000000E+00 -0.74907169415E+03  0.74907169415E+03  0.00000000000E+00 0. -1.
         25    1    1    2    0    0  0.55564900621E+02 -0.16195674046E+03  0.72031137274E+02  0.22389937181E+03  0.12500000000E+03 0.  0.
         25    1    1    2    0    0 -0.18981782422E+02  0.61503886071E+02 -0.38102491384E+03  0.40613793350E+03  0.12500000000E+03 0.  0.
         25    1    1    2    0    0 -0.36583118200E+02  0.10045285439E+03 -0.25536235513E+03  0.30374995129E+03  0.12500000000E+03 0.  0.
</event>
<event>
 5    0  0.5778875E-005  0.2713004E+03  0.7546771E-02  0.1100538E+00
         21   -1    0    0  502  501  0.00000000000E+00  0.00000000000E+00  0.65922296169E+02  0.65922296169E+02  0.00000000000E+00 0. -1.
         21   -1    0    0  501  502 -0.00000000000E+00 -0.00000000000E+00 -0.11165250215E+04  0.11165250215E+04  0.00000000000E+00 0. -1.
         25    1    1    2    0    0 -0.97000567569E+02 -0.58465292051E+02 -0.25700885575E+03  0.30741804179E+03  0.12500000000E+03 0.  0.
         25    1    1    2    0    0 -0.18847693496E+02  0.13015773643E+03 -0.34441428672E+03  0.38928456532E+03  0.12500000000E+03 0.  0.
         25    1    1    2    0    0  0.11584826107E+03 -0.71692444381E+02 -0.44917958286E+03  0.48574471056E+03  0.12500000000E+03 0.  0.
</event>
<event>
 5    0  0.5778875E-005  0.2381018E+03  0.7546771E-02  0.1121064E+00
         21   -1    0    0  502  501  0.00000000000E+00  0.00000000000E+00  0.94609911716E+02  0.94609911716E+02  0.00000000000E+00 0. -1.
         21   -1    0    0  501  502 -0.00000000000E+00 -0.00000000000E+00 -0.59922333784E+03  0.59922333784E+03  0.00000000000E+00 0. -1.
         25    1    1    2    0    0 -0.43686158432E+02  0.38680623346E+02 -0.82378294506E+02  0.16067312926E+03  0.12500000000E+03 0.  0.
         25    1    1    2    0    0 -0.65450066620E+02 -0.45298223404E+02 -0.13046473825E+03  0.19743780841E+03  0.12500000000E+03 0.  0.
         25    1    1    2    0    0  0.10913622505E+03  0.66176000580E+01 -0.29177039336E+03  0.33572231188E+03  0.12500000000E+03 0.  0.
</event>
<event>
 5    0  0.5778875E-005  0.3866768E+03  0.7546771E-02  0.1048493E+00
         21   -1    0    0  502  501  0.00000000000E+00  0.00000000000E+00  0.26753043420E+03  0.26753043420E+03  0.00000000000E+00 0. -1.
         21   -1    0    0  501  502 -0.00000000000E+00 -0.00000000000E+00 -0.55888585631E+03  0.55888585631E+03  0.00000000000E+00 0.  1.
         25    1    1    2    0    0  0.13289879804E+02  0.10160184139E+03 -0.11382436869E+03  0.19768799151E+03  0.12500000000E+03 0.  0.
         25    1    1    2    0    0  0.24616575930E+03 -0.19427534981E+02 -0.17831580705E+03  0.32923629388E+03  0.12500000000E+03 0.  0.
         25    1    1    2    0    0 -0.25945563910E+03 -0.82174306413E+02  0.78475363109E+00  0.29949200512E+03  0.12500000000E+03 0.  0.
</event>
<event>
 5    0  0.5778875E-005  0.2673905E+03  0.7546771E-02  0.1102782E+00
         21   -1    0    0  502  501  0.00000000000E+00  0.00000000000E+00  0.14273249066E+03  0.14273249066E+03  0.00000000000E+00 0. -1.
         21   -1    0    0  501  502 -0.00000000000E+00 -0.00000000000E+00 -0.50092092773E+03  0.50092092773E+03  0.00000000000E+00 0. -1.
         25    1    1    2    0    0  0.16539076676E+02  0.56697118130E+02  0.86619201586E+01  0.13852123708E+03  0.12500000000E+03 0.  0.
         25    1    1    2    0    0 -0.81861707341E+02 -0.97742278757E+02 -0.11137466007E+03  0.21043813127E+03  0.12500000000E+03 0.  0.
         25    1    1    2    0    0  0.65322630665E+02  0.41045160627E+02 -0.25547569716E+03  0.29469405004E+03  0.12500000000E+03 0.  0.
</event>
<event>
 5    0  0.5778875E-005  0.3518250E+03  0.7546771E-02  0.1061868E+00
         21   -1    0    0  502  501  0.00000000000E+00  0.00000000000E+00  0.48120239251E+02  0.48120239251E+02  0.00000000000E+00 0. -1.
         21   -1    0    0  501  502 -0.00000000000E+00 -0.00000000000E+00 -0.25723234716E+04  0.25723234716E+04  0.00000000000E+00 0. -1.
         25    1    1    2    0    0 -0.16898736486E+03  0.18484460257E+03 -0.77069005286E+03  0.81994659226E+03  0.12500000000E+03 0.  0.
         25    1    1    2    0    0  0.10281942829E+03 -0.42836495816E+02 -0.42226149886E+03  0.45424285754E+03  0.12500000000E+03 0.  0.
         25    1    1    2    0    0  0.66167936579E+02 -0.14200810676E+03 -0.13312516806E+04  0.13462542610E+04  0.12500000000E+03 0.  0.
</event>
<event>
 5    0  0.5778875E-005  0.2175076E+03  0.7546771E-02  0.1135755E+00
         21   -1    0    0  502  501  0.00000000000E+00  0.00000000000E+00  0.88280653081E+03  0.88280653081E+03  0.00000000000E+00 0.  1.
         21   -1    0    0  501  502 -0.00000000000E+00 -0.00000000000E+00 -0.53589941747E+02  0.53589941747E+02  0.00000000000E+00 0.  1.
         25    1    1    2    0    0 -0.80812237690E+02 -0.60052872137E+01  0.17232306369E+03  0.22778700471E+03  0.12500000000E+03 0.  0.
         25    1    1    2    0    0  0.56810458392E+02  0.14524733667E+02  0.33159211386E+03  0.35918898374E+03  0.12500000000E+03 0.  0.
         25    1    1    2    0    0  0.24001779298E+02 -0.85194464531E+01  0.32530141152E+03  0.34942048411E+03  0.12500000000E+03 0.  0.
</event>
<event>
 5    0  0.5778875E-005  0.2406232E+03  0.7546771E-02  0.1119378E+00
         21   -1    0    0  502  501  0.00000000000E+00  0.00000000000E+00  0.98905294342E+02  0.98905294342E+02  0.00000000000E+00 0.  1.
         21   -1    0    0  501  502 -0.00000000000E+00 -0.00000000000E+00 -0.58540374996E+03  0.58540374996E+03  0.00000000000E+00 0.  1.
         25    1    1    2    0    0  0.99833387939E+01  0.42855845770E+01 -0.34287578371E+02  0.13007179294E+03  0.12500000000E+03 0.  0.
         25    1    1    2    0    0  0.24962191374E+02 -0.38407347697E+02 -0.72676339917E+02  0.15167427514E+03  0.12500000000E+03 0.  0.
         25    1    1    2    0    0 -0.34945530168E+02  0.34121763120E+02 -0.37953453733E+03  0.40256297622E+03  0.12500000000E+03 0.  0.
</event>
<event>
 5    0  0.5992642E-005  0.2953088E+03  0.7546771E-02  0.1087609E+00
         21   -1    0    0  502  501  0.00000000000E+00  0.00000000000E+00  0.27070316587E+03  0.27070316587E+03  0.00000000000E+00 0. -1.
         21   -1    0    0  501  502 -0.00000000000E+00 -0.00000000000E+00 -0.32215098794E+03  0.32215098794E+03  0.00000000000E+00 0. -1.
         25    1    1    2    0    0  0.11132089943E+03  0.70205589091E+02 -0.37151327009E+02  0.18527382030E+03  0.12500000000E+03 0.  0.
         25    1    1    2    0    0  0.79303738464E+02  0.26208398088E+02  0.36985913026E+02  0.15481899375E+03  0.12500000000E+03 0.  0.
         25    1    1    2    0    0 -0.19062463790E+03 -0.96413987178E+02 -0.51282408088E+02  0.25276133976E+03  0.12500000000E+03 0.  0.
</event>
<event>
 5    0  0.5778875E-005  0.2083179E+03  0.7546771E-02  0.1142905E+00
         21   -1    0    0  502  501  0.00000000000E+00  0.00000000000E+00  0.20723527938E+03  0.20723527938E+03  0.00000000000E+00 0.  1.
         21   -1    0    0  501  502 -0.00000000000E+00 -0.00000000000E+00 -0.20940618356E+03  0.20940618356E+03  0.00000000000E+00 0.  1.
         25    1    1    2    0    0 -0.48885832826E+02 -0.11764220262E+02  0.10272638651E+02  0.13512493713E+03  0.12500000000E+03 0.  0.
         25    1    1    2    0    0  0.22364661215E+02  0.67684206728E+01  0.53113719354E+02  0.13781167140E+03  0.12500000000E+03 0.  0.
         25    1    1    2    0    0  0.26521171611E+02  0.49957995889E+01 -0.65557262185E+02  0.14370485441E+03  0.12500000000E+03 0.  0.
</event>
<event>
 5    0  0.5778875E-005  0.2789716E+03  0.7546771E-02  0.1096252E+00
         21   -1    0    0  502  501  0.00000000000E+00  0.00000000000E+00  0.80411654450E+03  0.80411654450E+03  0.00000000000E+00 0.  1.
         21   -1    0    0  501  502 -0.00000000000E+00 -0.00000000000E+00 -0.96783451433E+02  0.96783451433E+02  0.00000000000E+00 0.  1.
         25    1    1    2    0    0 -0.49009623477E+02 -0.15242408805E+03  0.40709453002E+03  0.45495714323E+03  0.12500000000E+03 0.  0.
         25    1    1    2    0    0  0.88572910918E+02  0.10496080557E+03  0.20757974701E+03  0.27852519208E+03  0.12500000000E+03 0.  0.
         25    1    1    2    0    0 -0.39563287441E+02  0.47463282472E+02  0.92658816036E+02  0.16741766061E+03  0.12500000000E+03 0.  0.
</event>
<event>
 5    0  0.5778875E-005  0.5227474E+03  0.7546771E-02  0.1008006E+00
         21   -1    0    0  502  501  0.00000000000E+00  0.00000000000E+00  0.10131912578E+03  0.10131912578E+03  0.00000000000E+00 0. -1.
         21   -1    0    0  501  502 -0.00000000000E+00 -0.00000000000E+00 -0.26970703390E+04  0.26970703390E+04  0.00000000000E+00 0. -1.
         25    1    1    2    0    0  0.96380387659E+01  0.40734641585E+03 -0.65503733435E+03  0.78148762222E+03  0.12500000000E+03 0.  0.
         25    1    1    2    0    0 -0.39463713776E+02 -0.16058741086E+03 -0.39238623086E+03  0.44377658275E+03  0.12500000000E+03 0.  0.
         25    1    1    2    0    0  0.29825675010E+02 -0.24675900499E+03 -0.15483276480E+04  0.15731252598E+04  0.12500000000E+03 0.  0.
</event>
<event>
 5    0  0.5778875E-005  0.2736940E+03  0.7546771E-02  0.1099184E+00
         21   -1    0    0  502  501  0.00000000000E+00  0.00000000000E+00  0.33164584695E+03  0.33164584695E+03  0.00000000000E+00 0.  1.
         21   -1    0    0  501  502 -0.00000000000E+00 -0.00000000000E+00 -0.22586873844E+03  0.22586873844E+03  0.00000000000E+00 0.  1.
         25    1    1    2    0    0  0.16421814910E+03 -0.63937610252E+02  0.67889757637E+02  0.22647215655E+03  0.12500000000E+03 0.  0.
         25    1    1    2    0    0 -0.91910761919E+02  0.67182387619E+02 -0.29541587906E+02  0.17163556385E+03  0.12500000000E+03 0.  0.
         25    1    1    2    0    0 -0.72307387182E+02 -0.32447773675E+01  0.67428938786E+02  0.15940686499E+03  0.12500000000E+03 0.  0.
</event>
<event>
 5    0  0.5778875E-005  0.3021924E+03  0.7546771E-02  0.1084150E+00
         21   -1    0    0  502  501  0.00000000000E+00  0.00000000000E+00  0.18561330736E+04  0.18561330736E+04  0.00000000000E+00 0. -1.
         21   -1    0    0  501  502 -0.00000000000E+00 -0.00000000000E+00 -0.49199191375E+02  0.49199191375E+02  0.00000000000E+00 0. -1.
         25    1    1    2    0    0  0.42283914927E+02  0.23861085141E+02  0.34918888253E+03  0.37405234463E+03  0.12500000000E+03 0.  0.
         25    1    1    2    0    0 -0.15306427544E+03 -0.25233946324E+02  0.29114425002E+03  0.35278236745E+03  0.12500000000E+03 0.  0.
         25    1    1    2    0    0  0.11078036051E+03  0.13728611830E+01  0.11666007497E+04  0.11784975529E+04  0.12500000000E+03 0.  0.
</event>
<event>
 5    0  0.5778875E-005  0.3534599E+03  0.7546771E-02  0.1061204E+00
         21   -1    0    0  502  501  0.00000000000E+00  0.00000000000E+00  0.78773384049E+03  0.78773384049E+03  0.00000000000E+00 0. -1.
         21   -1    0    0  501  502 -0.00000000000E+00 -0.00000000000E+00 -0.15859911305E+03  0.15859911305E+03  0.00000000000E+00 0. -1.
         25    1    1    2    0    0 -0.10552738373E+02  0.10697054981E+03  0.63025805065E+02  0.17649733969E+03  0.12500000000E+03 0.  0.
         25    1    1    2    0    0 -0.66262837009E+02 -0.10137798118E+03  0.59522823724E+03  0.62015313677E+03  0.12500000000E+03 0.  0.
         25    1    1    2    0    0  0.76815575382E+02 -0.55925686272E+01 -0.29119314865E+02  0.14968247708E+03  0.12500000000E+03 0.  0.
</event>
<event>
 5    0  0.5778875E-005  0.2326438E+03  0.7546771E-02  0.1124793E+00
         21   -1    0    0  502  501  0.00000000000E+00  0.00000000000E+00  0.83467324161E+02  0.83467324161E+02  0.00000000000E+00 0. -1.
         21   -1    0    0  501  502 -0.00000000000E+00 -0.00000000000E+00 -0.64843489934E+03  0.64843489934E+03  0.00000000000E+00 0. -1.
         25    1    1    2    0    0  0.69270153310E+02 -0.76059907968E+02 -0.16948257584E+03  0.23437748879E+03  0.12500000000E+03 0.  0.
         25    1    1    2    0    0  0.76893488347E+01  0.68395660689E+02 -0.12510506782E+03  0.18977189065E+03  0.12500000000E+03 0.  0.
         25    1    1    2    0    0 -0.76959502145E+02  0.76642472790E+01 -0.27037993152E+03  0.30775284406E+03  0.12500000000E+03 0.  0.
</event>
<event>
 5    0  0.5778875E-005  0.2441252E+03  0.7546771E-02  0.1117075E+00
         21   -1    0    0  502  501  0.00000000000E+00  0.00000000000E+00  0.12589980847E+04  0.12589980847E+04  0.00000000000E+00 0. -1.
         21   -1    0    0  501  502 -0.00000000000E+00 -0.00000000000E+00 -0.47336955910E+02  0.47336955910E+02  0.00000000000E+00 0. -1.
         25    1    1    2    0    0  0.29558073135E+02 -0.11776255950E+03  0.38926819022E+03  0.42649316997E+03  0.12500000000E+03 0.  0.
         25    1    1    2    0    0  0.45692174936E+02  0.87201786536E+02  0.49881831355E+03  0.52358059204E+03  0.12500000000E+03 0.  0.
         25    1    1    2    0    0 -0.75250248071E+02  0.30560772969E+02  0.32357462502E+03  0.35626127861E+03  0.12500000000E+03 0.  0.
</event>
<event>
 5    0  0.5778875E-005  0.2912767E+03  0.7546771E-02  0.1089684E+00
         21   -1    0    0  502  501  0.00000000000E+00  0.00000000000E+00  0.37497752757E+03  0.37497752757E+03  0.00000000000E+00 0. -1.
         21   -1    0    0  501  502 -0.00000000000E+00 -0.00000000000E+00 -0.22625913162E+03  0.22625913162E+03  0.00000000000E+00 0. -1.
         25    1    1    2    0    0  0.11773866975E+03 -0.86633252792E+02 -0.92883389295E+02  0.21358848015E+03  0.12500000000E+03 0.  0.
         25    1    1    2    0    0 -0.21177187754E+02  0.55650165844E+02  0.14216853033E+03  0.19844975499E+03  0.12500000000E+03 0.  0.
         25    1    1    2    0    0 -0.96561481997E+02  0.30983086948E+02  0.99433254918E+02  0.18919842406E+03  0.12500000000E+03 0.  0.
</event>
<event>
 5    0  0.5778875E-005  0.5607312E+03  0.7546771E-02  0.9990402E-01
         21   -1    0    0  502  501  0.00000000000E+00  0.00000000000E+00  0.96741474991E+03  0.96741474991E+03  0.00000000000E+00 0.  1.
         21   -1    0    0  501  502 -0.00000000000E+00 -0.00000000000E+00 -0.32501002253E+03  0.32501002253E+03  0.00000000000E+00 0.  1.
         25    1    1    2    0    0 -0.68370715855E+02 -0.12551926348E+03  0.63476683735E+03  0.66255835826E+03  0.12500000000E+03 0.  0.
         25    1    1    2    0    0 -0.43689476938E+02  0.20214888078E+03  0.23497190766E+03  0.33706043640E+03  0.12500000000E+03 0.  0.
         25    1    1    2    0    0  0.11206019279E+03 -0.76629617304E+02 -0.22733401763E+03  0.29280597779E+03  0.12500000000E+03 0.  0.
</event>
<event>
 5    0  0.5778875E-005  0.4713624E+03  0.7546771E-02  0.1021536E+00
         21   -1    0    0  502  501  0.00000000000E+00  0.00000000000E+00  0.21919311935E+03  0.21919311935E+03  0.00000000000E+00 0.  1.
         21   -1    0    0  501  502 -0.00000000000E+00 -0.00000000000E+00 -0.10136383565E+04  0.10136383565E+04  0.00000000000E+00 0.  1.
         25    1    1    2    0    0 -0.34065158389E+03 -0.42692315323E+02 -0.14321494188E+03  0.39243044604E+03  0.12500000000E+03 0.  0.
         25    1    1    2    0    0  0.32155082588E+03  0.27624263706E+02 -0.61876810368E+03  0.70898307434E+03  0.12500000000E+03 0.  0.
         25    1    1    2    0    0  0.19100758010E+02  0.15068051617E+02 -0.32462191570E+02  0.13141795546E+03  0.12500000000E+03 0.  0.
</event>
<event>
 5    0  0.5778875E-005  0.4336381E+03  0.7546771E-02  0.1032717E+00
         21   -1    0    0  502  501  0.00000000000E+00  0.00000000000E+00  0.40728068575E+03  0.40728068575E+03  0.00000000000E+00 0. -1.
         21   -1    0    0  501  502 -0.00000000000E+00 -0.00000000000E+00 -0.46170116735E+03  0.46170116735E+03  0.00000000000E+00 0. -1.
         25    1    1    2    0    0 -0.15992741596E+03  0.99171247301E+02 -0.11535817718E+03  0.25366163231E+03  0.12500000000E+03 0.  0.
         25    1    1    2    0    0  0.32302494278E+03  0.61056543961E+02  0.32934559888E+02  0.35324594895E+03  0.12500000000E+03 0.  0.
         25    1    1    2    0    0 -0.16309752682E+03 -0.16022779126E+03  0.28003135688E+02  0.26207427183E+03  0.12500000000E+03 0.  0.
</event>
<event>
 5    0  0.5778875E-005  0.2799489E+03  0.7546771E-02  0.1095717E+00
         21   -1    0    0  502  501  0.00000000000E+00  0.00000000000E+00  0.40558569617E+02  0.40558569617E+02  0.00000000000E+00 0.  1.
         21   -1    0    0  501  502 -0.00000000000E+00 -0.00000000000E+00 -0.19323020594E+04  0.19323020594E+04  0.00000000000E+00 0.  1.
         25    1    1    2    0    0 -0.64973863696E+02 -0.86641312169E+02 -0.51172205631E+03  0.53778507124E+03  0.12500000000E+03 0.  0.
         25    1    1    2    0    0  0.69336746357E+02  0.15246647640E+03 -0.47309448866E+03  0.51720112724E+03  0.12500000000E+03 0.  0.
         25    1    1    2    0    0 -0.43628826607E+01 -0.65825164232E+02 -0.90692694478E+03  0.91787443050E+03  0.12500000000E+03 0.  0.
</event>
<event>
 5    0  0.5778875E-005  0.2914187E+03  0.7546771E-02  0.1089611E+00
         21   -1    0    0  502  501  0.00000000000E+00  0.00000000000E+00  0.21604456090E+04  0.21604456090E+04  0.00000000000E+00 0. -1.
         21   -1    0    0  501  502 -0.00000000000E+00 -0.00000000000E+00 -0.39308943419E+02  0.39308943419E+02  0.00000000000E+00 0. -1.
         25    1    1    2    0    0 -0.26567988183E+01 -0.14669936401E+03  0.39051865125E+03  0.43549693335E+03  0.12500000000E+03 0.  0.
         25    1    1    2    0    0 -0.12574522896E+02  0.14981783844E+03  0.72954777431E+03  0.75529362393E+03  0.12500000000E+03 0.  0.
         25    1    1    2    0    0  0.15231321714E+02 -0.31184744255E+01  0.10010702401E+04  0.10089639952E+04  0.12500000000E+03 0.  0.
</event>
<event>
 5    0  0.5778875E-005  0.2554593E+03  0.7546771E-02  0.1109902E+00
         21   -1    0    0  502  501  0.00000000000E+00  0.00000000000E+00  0.30693545411E+02  0.30693545411E+02  0.00000000000E+00 0.  1.
         21   -1    0    0  501  502 -0.00000000000E+00 -0.00000000000E+00 -0.21261626427E+04  0.21261626427E+04  0.00000000000E+00 0.  1.
         25    1    1    2    0    0 -0.34022807372E+02  0.39668904127E+02 -0.20953896158E+03  0.24952504843E+03  0.12500000000E+03 0.  0.
         25    1    1    2    0    0  0.30720584864E+02 -0.42769043342E+02 -0.13592887491E+04  0.13660394756E+04  0.12500000000E+03 0.  0.
         25    1    1    2    0    0  0.33022225082E+01  0.31001392150E+01 -0.52664138665E+03  0.54129166415E+03  0.12500000000E+03 0.  0.
</event>
<event>
 5    0  0.5778875E-005  0.3126975E+03  0.7546771E-02  0.1079060E+00
         21   -1    0    0  502  501  0.00000000000E+00  0.00000000000E+00  0.38576014245E+02  0.38576014245E+02  0.00000000000E+00 0.  1.
         21   -1    0    0  501  502 -0.00000000000E+00 -0.00000000000E+00 -0.25347279277E+04  0.25347279277E+04  0.00000000000E+00 0.  1.
         25    1    1    2    0    0 -0.44942819373E+02 -0.69855770540E+02 -0.23352785665E+03  0.27759673183E+03  0.12500000000E+03 0.  0.
         25    1    1    2    0    0 -0.92545835835E+02  0.96799932539E+01 -0.15149021133E+04  0.15228958753E+04  0.12500000000E+03 0.  0.
         25    1    1    2    0    0  0.13748865521E+03  0.60175777286E+02 -0.74772194350E+03  0.77281133485E+03  0.12500000000E+03 0.  0.
</event>
<event>
 5    0  0.6652948E-005  0.3448550E+03  0.7546771E-02  0.1064747E+00
         21   -1    0    0  502  501  0.00000000000E+00  0.00000000000E+00  0.17624001851E+03  0.17624001851E+03  0.00000000000E+00 0. -1.
         21   -1    0    0  501  502 -0.00000000000E+00 -0.00000000000E+00 -0.67478980943E+03  0.67478980943E+03  0.00000000000E+00 0. -1.
         25    1    1    2    0    0 -0.13295209596E+03  0.11721602574E+03 -0.42317871538E+03  0.47552190450E+03  0.12500000000E+03 0.  0.
         25    1    1    2    0    0 -0.33317295901E+01 -0.18868629169E+02  0.44642380928E+02  0.13410841794E+03  0.12500000000E+03 0.  0.
         25    1    1    2    0    0  0.13628382555E+03 -0.98347396569E+02 -0.12001345648E+03  0.24139950549E+03  0.12500000000E+03 0.  0.
</event>
<event>
 5    0  0.5778875E-005  0.2151554E+03  0.7546771E-02  0.1137547E+00
         21   -1    0    0  502  501  0.00000000000E+00  0.00000000000E+00  0.23656156608E+03  0.23656156608E+03  0.00000000000E+00 0. -1.
         21   -1    0    0  501  502 -0.00000000000E+00 -0.00000000000E+00 -0.19568628200E+03  0.19568628200E+03  0.00000000000E+00 0.  1.
         25    1    1    2    0    0 -0.12905235732E+02  0.61592300905E+02  0.48534332081E+02  0.14812406297E+03  0.12500000000E+03 0.  0.
         25    1    1    2    0    0 -0.47894172705E+02 -0.51995485861E+01 -0.88435827107E+00  0.13396517896E+03  0.12500000000E+03 0.  0.
         25    1    1    2    0    0  0.60799408436E+02 -0.56392752319E+02 -0.67746897231E+01  0.15015860615E+03  0.12500000000E+03 0.  0.
</event>
<event>
 5    0  0.5778875E-005  0.4144231E+03  0.7546771E-02  0.1038897E+00
         21   -1    0    0  502  501  0.00000000000E+00  0.00000000000E+00  0.23918886244E+03  0.23918886244E+03  0.00000000000E+00 0. -1.
         21   -1    0    0  501  502 -0.00000000000E+00 -0.00000000000E+00 -0.71803737554E+03  0.71803737554E+03  0.00000000000E+00 0. -1.
         25    1    1    2    0    0  0.18272605659E+02  0.84382679973E+02  0.16940460796E+03  0.22754614036E+03  0.12500000000E+03 0.  0.
         25    1    1    2    0    0  0.26578093040E+02  0.18959429981E+02 -0.12395966262E+03  0.17904427657E+03  0.12500000000E+03 0.  0.
         25    1    1    2    0    0 -0.44850698699E+02 -0.10334210995E+03 -0.52429345844E+03  0.55063582105E+03  0.12500000000E+03 0.  0.
</event>
<event>
 5    0  0.5778875E-005  0.4373162E+03  0.7546771E-02  0.1031573E+00
         21   -1    0    0  502  501  0.00000000000E+00  0.00000000000E+00  0.21940899419E+03  0.21940899419E+03  0.00000000000E+00 0. -1.
         21   -1    0    0  501  502 -0.00000000000E+00 -0.00000000000E+00 -0.87163930065E+03  0.87163930065E+03  0.00000000000E+00 0. -1.
         25    1    1    2    0    0  0.17272240498E+03 -0.13507118729E+03 -0.63030508890E+03  0.67896005767E+03  0.12500000000E+03 0.  0.
         25    1    1    2    0    0  0.28514934545E+02  0.11618105522E+03 -0.22179684625E+02  0.17443645690E+03  0.12500000000E+03 0.  0.
         25    1    1    2    0    0 -0.20123733953E+03  0.18890132070E+02  0.25446706629E+00  0.23765178027E+03  0.12500000000E+03 0.  0.
</event>
<event>
 5    0  0.5778875E-005  0.3516308E+03  0.7546771E-02  0.1061948E+00
         21   -1    0    0  502  501  0.00000000000E+00  0.00000000000E+00  0.76309655920E+03  0.76309655920E+03  0.00000000000E+00 0.  1.
         21   -1    0    0  501  502 -0.00000000000E+00 -0.00000000000E+00 -0.16202960182E+03  0.16202960182E+03  0.00000000000E+00 0.  1.
         25    1    1    2    0    0 -0.19891386303E+03  0.12462742484E+03  0.11055191052E+03  0.28800250841E+03  0.12500000000E+03 0.  0.
         25    1    1    2    0    0  0.14136936875E+03 -0.62181479723E+02  0.10867071441E+03  0.22646447627E+03  0.12500000000E+03 0.  0.
         25    1    1    2    0    0  0.57544494279E+02 -0.62445945119E+02  0.38184433245E+03  0.41065917633E+03  0.12500000000E+03 0.  0.
</event>
<event>
 5    0  0.6152532E-005  0.3539223E+03  0.7546771E-02  0.1061017E+00
         21   -1    0    0  502  501  0.00000000000E+00  0.00000000000E+00  0.68308077416E+03  0.68308077416E+03  0.00000000000E+00 0. -1.
         21   -1    0    0  501  502 -0.00000000000E+00 -0.00000000000E+00 -0.18337653401E+03  0.18337653401E+03  0.00000000000E+00 0. -1.
         25    1    1    2    0    0  0.12329501095E+03 -0.80207505392E+02  0.61048459295E+02  0.20245201414E+03  0.12500000000E+03 0.  0.
         25    1    1    2    0    0 -0.62972627785E+02  0.24395042526E+03  0.28190083249E+03  0.39820904208E+03  0.12500000000E+03 0.  0.
         25    1    1    2    0    0 -0.60322383166E+02 -0.16374291987E+03  0.15675494836E+03  0.26579625196E+03  0.12500000000E+03 0.  0.
</event>
<event>
 5    0  0.5778875E-005  0.7934780E+03  0.7546771E-02  0.9569506E-01
         21   -1    0    0  502  501  0.00000000000E+00  0.00000000000E+00  0.92514055346E+03  0.92514055346E+03  0.00000000000E+00 0. -1.
         21   -1    0    0  501  502 -0.00000000000E+00 -0.00000000000E+00 -0.68055310121E+03  0.68055310121E+03  0.00000000000E+00 0. -1.
         25    1    1    2    0    0  0.61207483563E+01 -0.87641099943E+02 -0.14311191472E+03  0.20934289120E+03  0.12500000000E+03 0.  0.
         25    1    1    2    0    0 -0.28601651199E+02 -0.21038404416E+03 -0.44178749331E+03  0.50584650808E+03  0.12500000000E+03 0.  0.
         25    1    1    2    0    0  0.22480902842E+02  0.29802514411E+03  0.82948686028E+03  0.89050425540E+03  0.12500000000E+03 0.  0.
</event>
<event>
 5    0  0.5778875E-005  0.3573906E+03  0.7546771E-02  0.1059622E+00
         21   -1    0    0  502  501  0.00000000000E+00  0.00000000000E+00  0.50891869301E+03  0.50891869301E+03  0.00000000000E+00 0. -1.
         21   -1    0    0  501  502 -0.00000000000E+00 -0.00000000000E+00 -0.25097931975E+03  0.25097931975E+03  0.00000000000E+00 0. -1.
         25    1    1    2    0    0  0.21341373648E+03  0.48897600476E+02  0.25768824821E+03  0.36050607694E+03  0.12500000000E+03 0.  0.
         25    1    1    2    0    0 -0.80916782272E+02  0.54969668931E+02 -0.76370493270E+02  0.17614381169E+03  0.12500000000E+03 0.  0.
         25    1    1    2    0    0 -0.13249695421E+03 -0.10386726941E+03  0.76621618327E+02  0.22324812412E+03  0.12500000000E+03 0.  0.
</event>
<event>
 5    0  0.5778875E-005  0.3532155E+03  0.7546771E-02  0.1061303E+00
         21   -1    0    0  502  501  0.00000000000E+00  0.00000000000E+00  0.34351365808E+03  0.34351365808E+03  0.00000000000E+00 0.  1.
         21   -1    0    0  501  502 -0.00000000000E+00 -0.00000000000E+00 -0.36319138180E+03  0.36319138180E+03  0.00000000000E+00 0.  1.
         25    1    1    2    0    0  0.21207334378E+03 -0.14058861769E+03  0.11185096282E+03  0.30475547649E+03  0.12500000000E+03 0.  0.
         25    1    1    2    0    0 -0.11784801153E+03  0.10773239516E+03 -0.13208143031E+03  0.24200191532E+03  0.12500000000E+03 0.  0.
         25    1    1    2    0    0 -0.94225332247E+02  0.32856222534E+02  0.55274376986E+00  0.15994764807E+03  0.12500000000E+03 0.  0.
</event>
<event>
 5    0  0.5778875E-005  0.2330329E+03  0.7546771E-02  0.1124523E+00
         21   -1    0    0  502  501  0.00000000000E+00  0.00000000000E+00  0.44238774162E+03  0.44238774162E+03  0.00000000000E+00 0.  1.
         21   -1    0    0  501  502 -0.00000000000E+00 -0.00000000000E+00 -0.12275277845E+03  0.12275277845E+03  0.00000000000E+00 0.  1.
         25    1    1    2    0    0  0.63249573087E+02 -0.35595433150E+02 -0.17529695624E+01  0.14455316067E+03  0.12500000000E+03 0.  0.
         25    1    1    2    0    0 -0.65744504731E+01  0.46171836332E+02  0.16679887310E+03  0.21359289768E+03  0.12500000000E+03 0.  0.
         25    1    1    2    0    0 -0.56675122614E+02 -0.10576403182E+02  0.15458905963E+03  0.20699446172E+03  0.12500000000E+03 0.  0.
</event>
<event>
 5    0  0.5778875E-005  0.2525187E+03  0.7546771E-02  0.1111723E+00
         21   -1    0    0  502  501  0.00000000000E+00  0.00000000000E+00  0.13036389124E+04  0.13036389124E+04  0.00000000000E+00 0.  1.
         21   -1    0    0  501  502 -0.00000000000E+00 -0.00000000000E+00 -0.48913635374E+02  0.48913635374E+02  0.00000000000E+00 0.  1.
         25    1    1    2    0    0  0.38432694912E+02  0.12457382235E+03  0.35520249496E+03  0.39848402939E+03  0.12500000000E+03 0.  0.
         25    1    1    2    0    0  0.39582536250E+02 -0.93620439005E+02  0.55879511332E+03  0.58155699845E+03  0.12500000000E+03 0.  0.
         25    1    1    2    0    0 -0.78015231161E+02 -0.30953383350E+02  0.34072766875E+03  0.37251151994E+03  0.12500000000E+03 0.  0.
</event>
<event>
 5    0  0.5778875E-005  0.4640219E+03  0.7546771E-02  0.1023621E+00
         21   -1    0    0  502  501  0.00000000000E+00  0.00000000000E+00  0.17177733864E+03  0.17177733864E+03  0.00000000000E+00 0. -1.
         21   -1    0    0  501  502 -0.00000000000E+00 -0.00000000000E+00 -0.12534616558E+04  0.12534616558E+04  0.00000000000E+00 0. -1.
         25    1    1    2    0    0  0.77295856759E+02 -0.18968159333E+03 -0.87383639652E+01  0.24011479614E+03  0.12500000000E+03 0.  0.
         25    1    1    2    0    0 -0.20003069120E+03  0.22290945737E+03 -0.66822932017E+03  0.74287033050E+03  0.12500000000E+03 0.  0.
         25    1    1    2    0    0  0.12273483444E+03 -0.33227864041E+02 -0.40471663298E+03  0.44225386775E+03  0.12500000000E+03 0.  0.
</event>
<event>
 5    0  0.5778875E-005  0.4376751E+03  0.7546771E-02  0.1031463E+00
         21   -1    0    0  502  501  0.00000000000E+00  0.00000000000E+00  0.17310432281E+04  0.17310432281E+04  0.00000000000E+00 0.  1.
         21   -1    0    0  501  502 -0.00000000000E+00 -0.00000000000E+00 -0.11066129937E+03  0.11066129937E+03  0.00000000000E+00 0. -1.
         25    1    1    2    0    0 -0.29147589223E+03  0.70526423148E+02  0.83043392473E+03  0.89172735489E+03  0.12500000000E+03 0.  0.
         25    1    1    2    0    0  0.45491737631E+02 -0.52589092626E+02  0.59425725948E+03  0.61122974511E+03  0.12500000000E+03 0.  0.
         25    1    1    2    0    0  0.24598415460E+03 -0.17937330522E+02  0.19569074454E+03  0.33874742750E+03  0.12500000000E+03 0.  0.
</event>
<event>
 5    0  0.5778875E-005  0.2725499E+03  0.7546771E-02  0.1099829E+00
         21   -1    0    0  502  501  0.00000000000E+00  0.00000000000E+00  0.13176175279E+03  0.13176175279E+03  0.00000000000E+00 0. -1.
         21   -1    0    0  501  502 -0.00000000000E+00 -0.00000000000E+00 -0.56377090014E+03  0.56377090014E+03  0.00000000000E+00 0. -1.
         25    1    1    2    0    0  0.86708291537E+02  0.34462284165E+02 -0.55525232189E+02  0.16557182206E+03  0.12500000000E+03 0.  0.
         25    1    1    2    0    0 -0.27487019609E+02  0.60795093303E+02 -0.32460774961E+03  0.35418465625E+03  0.12500000000E+03 0.  0.
         25    1    1    2    0    0 -0.59221271928E+02 -0.95257377468E+02 -0.51876165556E+02  0.17577617462E+03  0.12500000000E+03 0.  0.
</event>
<event>
 5    0  0.5778875E-005  0.6227384E+03  0.7546771E-02  0.9859323E-01
         21   -1    0    0  502  501  0.00000000000E+00  0.00000000000E+00  0.48340118952E+03  0.48340118952E+03  0.00000000000E+00 0. -1.
         21   -1    0    0  501  502 -0.00000000000E+00 -0.00000000000E+00 -0.80223874313E+03  0.80223874313E+03  0.00000000000E+00 0. -1.
         25    1    1    2    0    0  0.23882121717E+02 -0.20633939869E+03 -0.24997090071E+03  0.34821940553E+03  0.12500000000E+03 0.  0.
         25    1    1    2    0    0 -0.19384378339E+03 -0.20427189327E+03 -0.29217015995E+03  0.42460666635E+03  0.12500000000E+03 0.  0.
         25    1    1    2    0    0  0.16996166167E+03  0.41061129196E+03  0.22330350705E+03  0.51281386076E+03  0.12500000000E+03 0.  0.
</event>
<event>
 5    0  0.5778875E-005  0.4828783E+03  0.7546771E-02  0.1018347E+00
         21   -1    0    0  502  501  0.00000000000E+00  0.00000000000E+00  0.40492953594E+03  0.40492953594E+03  0.00000000000E+00 0.  1.
         21   -1    0    0  501  502 -0.00000000000E+00 -0.00000000000E+00 -0.57583228190E+03  0.57583228190E+03  0.00000000000E+00 0.  1.
         25    1    1    2    0    0  0.19103888301E+02 -0.99401954170E+02  0.32934902411E+03  0.36652624288E+03  0.12500000000E+03 0.  0.
         25    1    1    2    0    0 -0.35308874599E+02  0.77123863378E+02 -0.45344571379E+03  0.47794646383E+03  0.12500000000E+03 0.  0.
         25    1    1    2    0    0  0.16204986298E+02  0.22278090791E+02 -0.46806056277E+02  0.13628911114E+03  0.12500000000E+03 0.  0.
</event>
<event>
 5    0  0.5778875E-005  0.4354615E+03  0.7546771E-02  0.1032148E+00
         21   -1    0    0  502  501  0.00000000000E+00  0.00000000000E+00  0.77490543526E+03  0.77490543526E+03  0.00000000000E+00 0.  1.
         21   -1    0    0  501  502 -0.00000000000E+00 -0.00000000000E+00 -0.24470948018E+03  0.24470948018E+03  0.00000000000E+00 0.  1.
         25    1    1    2    0    0  0.12474730032E+03  0.86427844045E+02  0.36735902812E+03  0.41666451337E+03  0.12500000000E+03 0.  0.
         25    1    1    2    0    0 -0.24555612541E+03 -0.87830694756E+02 -0.83896578275E+02  0.30112402347E+03  0.12500000000E+03 0.  0.
         25    1    1    2    0    0  0.12080882508E+03  0.14028507119E+01  0.24673350524E+03  0.30182637860E+03  0.12500000000E+03 0.  0.
</event>
<event>
 5    0  0.5778875E-005  0.2500933E+03  0.7546771E-02  0.1113246E+00
         21   -1    0    0  502  501  0.00000000000E+00  0.00000000000E+00  0.55289451293E+03  0.55289451293E+03  0.00000000000E+00 0. -1.
         21   -1    0    0  501  502 -0.00000000000E+00 -0.00000000000E+00 -0.11312586889E+03  0.11312586889E+03  0.00000000000E+00 0. -1.
         25    1    1    2    0    0  0.11897215926E+02 -0.68859753798E+02  0.32619956289E+03  0.35625042353E+03  0.12500000000E+03 0.  0.
         25    1    1    2    0    0  0.26102860347E+02  0.67100637324E+02  0.10577467230E+03  0.17887743331E+03  0.12500000000E+03 0.  0.
         25    1    1    2    0    0 -0.38000076272E+02  0.17591164742E+01  0.77944088538E+01  0.13089252498E+03  0.12500000000E+03 0.  0.
</event>
<event>
 5    0  0.6334925E-005  0.3689680E+03  0.7546771E-02  0.1055088E+00
         21   -1    0    0  502  501  0.00000000000E+00  0.00000000000E+00  0.16624042512E+03  0.16624042512E+03  0.00000000000E+00 0. -1.
         21   -1    0    0  501  502 -0.00000000000E+00 -0.00000000000E+00 -0.81891857573E+03  0.81891857573E+03  0.00000000000E+00 0. -1.
         25    1    1    2    0    0  0.18390023505E+01 -0.11506255197E+03 -0.33557638558E+03  0.37613731981E+03  0.12500000000E+03 0.  0.
         25    1    1    2    0    0  0.18442877993E+03  0.27326275431E+01 -0.25370674366E+02  0.22425457239E+03  0.12500000000E+03 0.  0.
         25    1    1    2    0    0 -0.18626778228E+03  0.11232992442E+03 -0.29173109066E+03  0.38476710865E+03  0.12500000000E+03 0.  0.
</event>
<event>
 5    0  0.6040104E-005  0.3799098E+03  0.7546771E-02  0.1050967E+00
         21   -1    0    0  502  501  0.00000000000E+00  0.00000000000E+00  0.10151230882E+04  0.10151230882E+04  0.00000000000E+00 0. -1.
         21   -1    0    0  501  502 -0.00000000000E+00 -0.00000000000E+00 -0.14218127005E+03  0.14218127005E+03  0.00000000000E+00 0. -1.
         25    1    1    2    0    0 -0.12435082965E+03 -0.52063810017E+02  0.50190912515E+03  0.53451991456E+03  0.12500000000E+03 0.  0.
         25    1    1    2    0    0 -0.45724902797E+02  0.17605323980E+03  0.63379454879E+02  0.22962461819E+03  0.12500000000E+03 0.  0.
         25    1    1    2    0    0  0.17007573245E+03 -0.12398942978E+03  0.30765323816E+03  0.39315982553E+03  0.12500000000E+03 0.  0.
</event>
<event>
 5    0  0.5778875E-005  0.3136338E+03  0.7546771E-02  0.1078617E+00
         21   -1    0    0  502  501  0.00000000000E+00  0.00000000000E+00  0.47648324529E+03  0.47648324529E+03  0.00000000000E+00 0. -1.
         21   -1    0    0  501  502 -0.00000000000E+00 -0.00000000000E+00 -0.20644205357E+03  0.20644205357E+03  0.00000000000E+00 0. -1.
         25    1    1    2    0    0  0.10652623654E+03 -0.10008116720E+01 -0.19802399352E+02  0.16542664754E+03  0.12500000000E+03 0.  0.
         25    1    1    2    0    0  0.82454229686E+02  0.75533769911E+02  0.20377955097E+03  0.26392263219E+03  0.12500000000E+03 0.  0.
         25    1    1    2    0    0 -0.18898046623E+03 -0.74532958239E+02  0.86064040105E+02  0.25357601913E+03  0.12500000000E+03 0.  0.
</event>
<event>
 5    0  0.8265485E-005  0.3014955E+03  0.7546771E-02  0.1084495E+00
         21   -1    0    0  502  501  0.00000000000E+00  0.00000000000E+00  0.10706019074E+03  0.10706019074E+03  0.00000000000E+00 0. -1.
         21   -1    0    0  501  502 -0.00000000000E+00 -0.00000000000E+00 -0.84905080252E+03  0.84905080252E+03  0.00000000000E+00 0. -1.
         25    1    1    2    0    0  0.96612551080E+02  0.13415215830E+03 -0.53544866306E+03  0.57416117717E+03  0.12500000000E+03 0.  0.
         25    1    1    2    0    0 -0.59157129909E+02 -0.74113646706E+02 -0.39798492464E+02  0.16186821383E+03  0.12500000000E+03 0.  0.
         25    1    1    2    0    0 -0.37455421171E+02 -0.60038511590E+02 -0.16674345625E+03  0.22008160226E+03  0.12500000000E+03 0.  0.
</event>
<event>
 5    0  0.5778875E-005  0.4348093E+03  0.7546771E-02  0.1032351E+00
         21   -1    0    0  502  501  0.00000000000E+00  0.00000000000E+00  0.70550982022E+03  0.70550982022E+03  0.00000000000E+00 0. -1.
         21   -1    0    0  501  502 -0.00000000000E+00 -0.00000000000E+00 -0.26797513948E+03  0.26797513948E+03  0.00000000000E+00 0. -1.
         25    1    1    2    0    0 -0.10729688884E+03 -0.30450047699E+02  0.60139878910E+03  0.62429586839E+03  0.12500000000E+03 0.  0.
         25    1    1    2    0    0  0.13966878242E+02 -0.21897814096E+02 -0.17306931060E+02  0.12883756367E+03  0.12500000000E+03 0.  0.
         25    1    1    2    0    0  0.93330010595E+02  0.52347861795E+02 -0.14655717730E+03  0.22035152763E+03  0.12500000000E+03 0.  0.
</event>
<event>
 5    0  0.5778875E-005  0.2521011E+03  0.7546771E-02  0.1111984E+00
         21   -1    0    0  502  501  0.00000000000E+00  0.00000000000E+00  0.10619200830E+04  0.10619200830E+04  0.00000000000E+00 0.  1.
         21   -1    0    0  501  502 -0.00000000000E+00 -0.00000000000E+00 -0.59849104828E+02  0.59849104828E+02  0.00000000000E+00 0.  1.
         25    1    1    2    0    0 -0.35636451599E+02  0.13586944082E+02  0.58556381723E+03  0.59997045409E+03  0.12500000000E+03 0.  0.
         25    1    1    2    0    0  0.13432072464E+01  0.26892908750E+02  0.61862947822E+02  0.14204596812E+03  0.12500000000E+03 0.  0.
         25    1    1    2    0    0  0.34293244353E+02 -0.40479852832E+02  0.35464421312E+03  0.37975276562E+03  0.12500000000E+03 0.  0.
</event>
<event>
 5    0  0.5778875E-005  0.2536783E+03  0.7546771E-02  0.1111002E+00
         21   -1    0    0  502  501  0.00000000000E+00  0.00000000000E+00  0.26451326635E+03  0.26451326635E+03  0.00000000000E+00 0.  1.
         21   -1    0    0  501  502 -0.00000000000E+00 -0.00000000000E+00 -0.24328708195E+03  0.24328708195E+03  0.00000000000E+00 0.  1.
         25    1    1    2    0    0 -0.45914347752E+02 -0.12965447724E+03  0.89250951476E+02  0.20617745545E+03  0.12500000000E+03 0.  0.
         25    1    1    2    0    0  0.38339487071E+01  0.30401931062E+02 -0.26210321077E+02  0.13134290048E+03  0.12500000000E+03 0.  0.
         25    1    1    2    0    0  0.42080399045E+02  0.99252546179E+02 -0.41814445999E+02  0.17027999237E+03  0.12500000000E+03 0.  0.
</event>
<event>
 5    0  0.5778875E-005  0.3456483E+03  0.7546771E-02  0.1064415E+00
         21   -1    0    0  502  501  0.00000000000E+00  0.00000000000E+00  0.11386012968E+04  0.11386012968E+04  0.00000000000E+00 0. -1.
         21   -1    0    0  501  502 -0.00000000000E+00 -0.00000000000E+00 -0.10492937605E+03  0.10492937605E+03  0.00000000000E+00 0. -1.
         25    1    1    2    0    0 -0.12286861681E+03 -0.12444033894E+02  0.68999072598E+03  0.71201387129E+03  0.12500000000E+03 0.  0.
         25    1    1    2    0    0  0.14783844132E+02 -0.85422684045E+02  0.29727330647E+03  0.33393414880E+03  0.12500000000E+03 0.  0.
         25    1    1    2    0    0  0.10808477268E+03  0.97866717939E+02  0.46407888276E+02  0.19758265273E+03  0.12500000000E+03 0.  0.
</event>
<event>
 5    0  0.5778875E-005  0.5170969E+03  0.7546771E-02  0.1009410E+00
         21   -1    0    0  502  501  0.00000000000E+00  0.00000000000E+00  0.16240488751E+03  0.16240488751E+03  0.00000000000E+00 0.  1.
         21   -1    0    0  501  502 -0.00000000000E+00 -0.00000000000E+00 -0.16464355696E+04  0.16464355696E+04  0.00000000000E+00 0.  1.
         25    1    1    2    0    0 -0.13496639053E+03 -0.16500799069E+03 -0.51863451312E+03  0.57450006246E+03  0.12500000000E+03 0.  0.
         25    1    1    2    0    0  0.22376838968E+03  0.29043909667E+03 -0.96106349578E+03  0.10361926481E+04  0.12500000000E+03 0.  0.
         25    1    1    2    0    0 -0.88801999149E+02 -0.12543110598E+03 -0.43326732014E+01  0.19814774653E+03  0.12500000000E+03 0.  0.
</event>
<event>
 5    0  0.5778875E-005  0.3678732E+03  0.7546771E-02  0.1055509E+00
         21   -1    0    0  502  501  0.00000000000E+00  0.00000000000E+00  0.15444701901E+03  0.15444701901E+03  0.00000000000E+00 0. -1.
         21   -1    0    0  501  502 -0.00000000000E+00 -0.00000000000E+00 -0.87622748355E+03  0.87622748355E+03  0.00000000000E+00 0. -1.
         25    1    1    2    0    0 -0.93391483564E+02  0.51882902443E+02 -0.14788472362E+03  0.22115310590E+03  0.12500000000E+03 0.  0.
         25    1    1    2    0    0  0.24331682055E+03  0.12845414296E+03 -0.26396701765E+03  0.40125693565E+03  0.12500000000E+03 0.  0.
         25    1    1    2    0    0 -0.14992533699E+03 -0.18033704540E+03 -0.30992872327E+03  0.40826446101E+03  0.12500000000E+03 0.  0.
</event>
<event>
 5    0  0.5778875E-005  0.2431613E+03  0.7546771E-02  0.1117705E+00
         21   -1    0    0  502  501  0.00000000000E+00  0.00000000000E+00  0.90455296459E+02  0.90455296459E+02  0.00000000000E+00 0. -1.
         21   -1    0    0  501  502 -0.00000000000E+00 -0.00000000000E+00 -0.65366440524E+03  0.65366440524E+03  0.00000000000E+00 0. -1.
         25    1    1    2    0    0 -0.10294022511E+02  0.35358421725E+02 -0.14461848940E+03  0.19466815960E+03  0.12500000000E+03 0.  0.
         25    1    1    2    0    0 -0.57492266650E+01 -0.17423181324E+02 -0.40162884407E+03  0.42103129247E+03  0.12500000000E+03 0.  0.
         25    1    1    2    0    0  0.16043249176E+02 -0.17935240401E+02 -0.16961775316E+02  0.12842024963E+03  0.12500000000E+03 0.  0.
</event>
<event>
 5    0  0.6830030E-005  0.4492122E+03  0.7546771E-02  0.1027957E+00
         21   -1    0    0  502  501  0.00000000000E+00  0.00000000000E+00  0.99278667983E+03  0.99278667983E+03  0.00000000000E+00 0.  1.
         21   -1    0    0  501  502 -0.00000000000E+00 -0.00000000000E+00 -0.20325776194E+03  0.20325776194E+03  0.00000000000E+00 0.  1.
         25    1    1    2    0    0  0.51768449145E+02 -0.89419698316E+02  0.69065656924E+03  0.70944157716E+03  0.12500000000E+03 0.  0.
         25    1    1    2    0    0 -0.13255706073E+03 -0.10798100803E+03 -0.19143795353E+02  0.21265643029E+03  0.12500000000E+03 0.  0.
         25    1    1    2    0    0  0.80788611584E+02  0.19740070634E+03  0.11801614401E+03  0.27394643431E+03  0.12500000000E+03 0.  0.
</event>
<event>
 5    0  0.5778875E-005  0.2923265E+03  0.7546771E-02  0.1089141E+00
         21   -1    0    0  502  501  0.00000000000E+00  0.00000000000E+00  0.57614543630E+03  0.57614543630E+03  0.00000000000E+00 0. -1.
         21   -1    0    0  501  502 -0.00000000000E+00 -0.00000000000E+00 -0.14832158393E+03  0.14832158393E+03  0.00000000000E+00 0. -1.
         25    1    1    2    0    0 -0.13397982616E+03  0.16946773862E+01  0.72864409261E+02  0.19719961432E+03  0.12500000000E+03 0.  0.
         25    1    1    2    0    0 -0.54623890749E+02  0.40785475858E+01  0.23334466139E+03  0.27032412950E+03  0.12500000000E+03 0.  0.
         25    1    1    2    0    0  0.18860371691E+03 -0.57732249719E+01  0.12161478172E+03  0.25694327641E+03  0.12500000000E+03 0.  0.
</event>
<event>
 5    0  0.5778875E-005  0.2673894E+03  0.7546771E-02  0.1102783E+00
         21   -1    0    0  502  501  0.00000000000E+00  0.00000000000E+00  0.16309443641E+03  0.16309443641E+03  0.00000000000E+00 0.  1.
         21   -1    0    0  501  502 -0.00000000000E+00 -0.00000000000E+00 -0.43837851043E+03  0.43837851043E+03  0.00000000000E+00 0.  1.
         25    1    1    2    0    0 -0.54690291686E+02 -0.12441566257E+03 -0.33827903567E+02  0.18772216747E+03  0.12500000000E+03 0.  0.
         25    1    1    2    0    0 -0.62054578750E+02  0.68771690112E+02 -0.10026233573E+03  0.18508876808E+03  0.12500000000E+03 0.  0.
         25    1    1    2    0    0  0.11674487044E+03  0.55643972462E+02 -0.14119383473E+03  0.22866201130E+03  0.12500000000E+03 0.  0.
</event>
<event>
 5    0  0.5778875E-005  0.3252900E+03  0.7546771E-02  0.1073240E+00
         21   -1    0    0  502  501  0.00000000000E+00  0.00000000000E+00  0.83572945994E+03  0.83572945994E+03  0.00000000000E+00 0.  1.
         21   -1    0    0  501  502 -0.00000000000E+00 -0.00000000000E+00 -0.12661224868E+03  0.12661224868E+03  0.00000000000E+00 0.  1.
         25    1    1    2    0    0 -0.21628638072E+03  0.10011749027E+03  0.25026838564E+03  0.36750860560E+03  0.12500000000E+03 0.  0.
         25    1    1    2    0    0  0.11241200844E+03 -0.12014199845E+02  0.11374607793E+03  0.20333216883E+03  0.12500000000E+03 0.  0.
         25    1    1    2    0    0  0.10387437228E+03 -0.88103290422E+02  0.34510274769E+03  0.39150093418E+03  0.12500000000E+03 0.  0.
</event>
<event>
 5    0  0.5796813E-005  0.2675741E+03  0.7546771E-02  0.1102676E+00
         21   -1    0    0  502  501  0.00000000000E+00  0.00000000000E+00  0.35583040711E+03  0.35583040711E+03  0.00000000000E+00 0.  1.
         21   -1    0    0  501  502 -0.00000000000E+00 -0.00000000000E+00 -0.20120785413E+03  0.20120785413E+03  0.00000000000E+00 0.  1.
         25    1    1    2    0    0 -0.13964516121E+02  0.29751360871E+02  0.14072504296E+03  0.19107247028E+03  0.12500000000E+03 0.  0.
         25    1    1    2    0    0  0.85850818873E+02 -0.24968754342E+02  0.11315197740E+03  0.19084593730E+03  0.12500000000E+03 0.  0.
         25    1    1    2    0    0 -0.71886302751E+02 -0.47826065292E+01 -0.99254467379E+02  0.17511985365E+03  0.12500000000E+03 0.  0.
</event>
<event>
 5    0  0.5778875E-005  0.3054319E+03  0.7546771E-02  0.1082556E+00
         21   -1    0    0  502  501  0.00000000000E+00  0.00000000000E+00  0.15509797371E+04  0.15509797371E+04  0.00000000000E+00 0.  1.
         21   -1    0    0  501  502 -0.00000000000E+00 -0.00000000000E+00 -0.60148194006E+02  0.60148194006E+02  0.00000000000E+00 0.  1.
         25    1    1    2    0    0 -0.51322442857E+01  0.34032979791E+02  0.10955043983E+04  0.11031497951E+04  0.12500000000E+03 0.  0.
         25    1    1    2    0    0  0.86957259313E+02  0.19666976527E+02  0.14271378832E+03  0.20962008560E+03  0.12500000000E+03 0.  0.
         25    1    1    2    0    0 -0.81825015028E+02 -0.53699956318E+02  0.25261335647E+03  0.29835805044E+03  0.12500000000E+03 0.  0.
</event>
<event>
 5    0  0.5778875E-005  0.3365260E+03  0.7546771E-02  0.1068285E+00
         21   -1    0    0  502  501  0.00000000000E+00  0.00000000000E+00  0.59095659706E+03  0.59095659706E+03  0.00000000000E+00 0.  1.
         21   -1    0    0  501  502 -0.00000000000E+00 -0.00000000000E+00 -0.19163798537E+03  0.19163798537E+03  0.00000000000E+00 0.  1.
         25    1    1    2    0    0 -0.25430645094E+03 -0.76602982533E+02  0.14281888475E+03  0.32643838892E+03  0.12500000000E+03 0.  0.
         25    1    1    2    0    0  0.14636243984E+03  0.88015935304E+02  0.14210311394E+03  0.25492560416E+03  0.12500000000E+03 0.  0.
         25    1    1    2    0    0  0.10794401110E+03 -0.11412952771E+02  0.11439661299E+03  0.20123058934E+03  0.12500000000E+03 0.  0.
</event>
<event>
 5    0  0.5778875E-005  0.3225391E+03  0.7546771E-02  0.1074487E+00
         21   -1    0    0  502  501  0.00000000000E+00  0.00000000000E+00  0.46466797738E+03  0.46466797738E+03  0.00000000000E+00 0. -1.
         21   -1    0    0  501  502 -0.00000000000E+00 -0.00000000000E+00 -0.22388339929E+03  0.22388339929E+03  0.00000000000E+00 0. -1.
         25    1    1    2    0    0  0.47704433533E+02 -0.13568487525E+03  0.21387892310E+03  0.28645294919E+03  0.12500000000E+03 0.  0.
         25    1    1    2    0    0  0.11409044157E+03  0.63889308637E+02  0.39046849764E+02  0.18506250050E+03  0.12500000000E+03 0.  0.
         25    1    1    2    0    0 -0.16179487510E+03  0.71795566617E+02 -0.12141194776E+02  0.21703592699E+03  0.12500000000E+03 0.  0.
</event>
<event>
 5    0  0.5778875E-005  0.2989478E+03  0.7546771E-02  0.1085768E+00
         21   -1    0    0  502  501  0.00000000000E+00  0.00000000000E+00  0.44746216940E+03  0.44746216940E+03  0.00000000000E+00 0. -1.
         21   -1    0    0  501  502 -0.00000000000E+00 -0.00000000000E+00 -0.19972587439E+03  0.19972587439E+03  0.00000000000E+00 0. -1.
         25    1    1    2    0    0 -0.95559169641E+02 -0.84245104460E+02 -0.28564283611E+02  0.18074764404E+03  0.12500000000E+03 0.  0.
         25    1    1    2    0    0 -0.24218727042E+02 -0.34170117544E+02  0.20723929795E+03  0.24561610348E+03  0.12500000000E+03 0.  0.
         25    1    1    2    0    0  0.11977789668E+03  0.11841522200E+03  0.69061280676E+02  0.22082429627E+03  0.12500000000E+03 0.  0.
</event>
<event>
 5    0  0.5778875E-005  0.2435053E+03  0.7546771E-02  0.1117479E+00
         21   -1    0    0  502  501  0.00000000000E+00  0.00000000000E+00  0.11468045633E+03  0.11468045633E+03  0.00000000000E+00 0.  1.
         21   -1    0    0  501  502 -0.00000000000E+00 -0.00000000000E+00 -0.51704395854E+03  0.51704395854E+03  0.00000000000E+00 0.  1.
         25    1    1    2    0    0 -0.67678976456E+02  0.23140954856E+02 -0.15153715624E+03  0.20905611057E+03  0.12500000000E+03 0.  0.
         25    1    1    2    0    0 -0.13880941546E+01  0.83714773838E+02 -0.61434474763E+02  0.16250933774E+03  0.12500000000E+03 0.  0.
         25    1    1    2    0    0  0.69067070610E+02 -0.10685572869E+03 -0.18939187121E+03  0.26015896655E+03  0.12500000000E+03 0.  0.
</event>
<event>
 5    0  0.5778875E-005  0.4743064E+03  0.7546771E-02  0.1020712E+00
         21   -1    0    0  502  501  0.00000000000E+00  0.00000000000E+00  0.26542338011E+03  0.26542338011E+03  0.00000000000E+00 0.  1.
         21   -1    0    0  501  502 -0.00000000000E+00 -0.00000000000E+00 -0.84757611929E+03  0.84757611929E+03  0.00000000000E+00 0.  1.
         25    1    1    2    0    0  0.21509107924E+03 -0.92528886158E+02 -0.64513775692E+03  0.69760554223E+03  0.12500000000E+03 0.  0.
         25    1    1    2    0    0 -0.12634037579E+03 -0.54695759646E+02  0.79437427706E+02  0.20220984545E+03  0.12500000000E+03 0.  0.
         25    1    1    2    0    0 -0.88750703449E+02  0.14722464580E+03 -0.16452409960E+02  0.21318411172E+03  0.12500000000E+03 0.  0.
</event>
<event>
 5    0  0.5778875E-005  0.2625515E+03  0.7546771E-02  0.1105620E+00
         21   -1    0    0  502  501  0.00000000000E+00  0.00000000000E+00  0.23837682347E+03  0.23837682347E+03  0.00000000000E+00 0.  1.
         21   -1    0    0  501  502 -0.00000000000E+00 -0.00000000000E+00 -0.28917782390E+03  0.28917782390E+03  0.00000000000E+00 0.  1.
         25    1    1    2    0    0  0.16394588164E+03  0.15798015034E+02 -0.67645455822E+02  0.21755168829E+03  0.12500000000E+03 0.  0.
         25    1    1    2    0    0 -0.92953050980E+02 -0.24944764770E+02  0.43204610210E+02  0.16356695669E+03  0.12500000000E+03 0.  0.
         25    1    1    2    0    0 -0.70992830655E+02  0.91467497361E+01 -0.26360154826E+02  0.14643600240E+03  0.12500000000E+03 0.  0.
</event>
<event>
 5    0  0.5778875E-005  0.3070523E+03  0.7546771E-02  0.1081767E+00
         21   -1    0    0  502  501  0.00000000000E+00  0.00000000000E+00  0.17107296639E+03  0.17107296639E+03  0.00000000000E+00 0. -1.
         21   -1    0    0  501  502 -0.00000000000E+00 -0.00000000000E+00 -0.55111623089E+03  0.55111623089E+03  0.00000000000E+00 0. -1.
         25    1    1    2    0    0  0.15067074824E+03  0.14396784428E+03 -0.11317772214E+03  0.26807202642E+03  0.12500000000E+03 0.  0.
         25    1    1    2    0    0 -0.28536776069E+01 -0.11528999876E+03 -0.14567764955E+03  0.22393504610E+03  0.12500000000E+03 0.  0.
         25    1    1    2    0    0 -0.14781707063E+03 -0.28677845517E+02 -0.12118789281E+03  0.23018212476E+03  0.12500000000E+03 0.  0.
</event>
<event>
 5    0  0.6540809E-005  0.6996357E+03  0.7546771E-02  0.9717855E-01
         21   -1    0    0  502  501  0.00000000000E+00  0.00000000000E+00  0.10497974231E+04  0.10497974231E+04  0.00000000000E+00 0. -1.
         21   -1    0    0  501  502 -0.00000000000E+00 -0.00000000000E+00 -0.46627095329E+03  0.46627095329E+03  0.00000000000E+00 0. -1.
         25    1    1    2    0    0 -0.33311688613E+03  0.20729729009E+03  0.35165304595E+03  0.54150151526E+03  0.12500000000E+03 0.  0.
         25    1    1    2    0    0  0.94836623125E+02 -0.47926579196E+03 -0.38997905393E+02  0.50580185948E+03  0.12500000000E+03 0.  0.
         25    1    1    2    0    0  0.23828026300E+03  0.27196850187E+03  0.27087132921E+03  0.46876500161E+03  0.12500000000E+03 0.  0.
</event>
<event>
 5    0  0.5778875E-005  0.2980588E+03  0.7546771E-02  0.1086215E+00
         21   -1    0    0  502  501  0.00000000000E+00  0.00000000000E+00  0.47393186742E+02  0.47393186742E+02  0.00000000000E+00 0.  1.
         21   -1    0    0  501  502 -0.00000000000E+00 -0.00000000000E+00 -0.18745103663E+04  0.18745103663E+04  0.00000000000E+00 0.  1.
         25    1    1    2    0    0  0.13793007293E+03  0.59739966664E+02 -0.11122442561E+04  0.11292944053E+04  0.12500000000E+03 0.  0.
         25    1    1    2    0    0 -0.11694586892E+03  0.42813025148E+02 -0.42217010681E+03  0.45756080521E+03  0.12500000000E+03 0.  0.
         25    1    1    2    0    0 -0.20984204011E+02 -0.10255299181E+03 -0.29270281657E+03  0.33504834244E+03  0.12500000000E+03 0.  0.
</event>
<event>
 5    0  0.5778875E-005  0.3027832E+03  0.7546771E-02  0.1083858E+00
         21   -1    0    0  502  501  0.00000000000E+00  0.00000000000E+00  0.81502948596E+03  0.81502948596E+03  0.00000000000E+00 0. -1.
         21   -1    0    0  501  502 -0.00000000000E+00 -0.00000000000E+00 -0.11248389564E+03  0.11248389564E+03  0.00000000000E+00 0. -1.
         25    1    1    2    0    0  0.24210934059E+02  0.57179892395E+02  0.91772514789E+02  0.16704162324E+03  0.12500000000E+03 0.  0.
         25    1    1    2    0    0 -0.18771505462E+03 -0.92991965114E+02  0.34083659877E+03  0.41914082880E+03  0.12500000000E+03 0.  0.
         25    1    1    2    0    0  0.16350412056E+03  0.35812072719E+02  0.26993647676E+03  0.34133092957E+03  0.12500000000E+03 0.  0.
</event>
<event>
 5    0  0.6684587E-005  0.3706777E+03  0.7546771E-02  0.1054434E+00
         21   -1    0    0  502  501  0.00000000000E+00  0.00000000000E+00  0.29372391563E+03  0.29372391563E+03  0.00000000000E+00 0.  1.
         21   -1    0    0  501  502 -0.00000000000E+00 -0.00000000000E+00 -0.46779280076E+03  0.46779280076E+03  0.00000000000E+00 0.  1.
         25    1    1    2    0    0 -0.17496655772E+03 -0.10371658814E+03 -0.15772614741E+03  0.28613452178E+03  0.12500000000E+03 0.  0.
         25    1    1    2    0    0  0.20299512201E+03  0.18559495852E+03 -0.76860557815E+02  0.31174517404E+03  0.12500000000E+03 0.  0.
         25    1    1    2    0    0 -0.28028564291E+02 -0.81878370387E+02  0.60517820093E+02  0.16363702057E+03  0.12500000000E+03 0.  0.
</event>
<event>
 5    0  0.5778875E-005  0.2651509E+03  0.7546771E-02  0.1104087E+00
         21   -1    0    0  502  501  0.00000000000E+00  0.00000000000E+00  0.15575958149E+03  0.15575958149E+03  0.00000000000E+00 0. -1.
         21   -1    0    0  501  502 -0.00000000000E+00 -0.00000000000E+00 -0.45136859616E+03  0.45136859616E+03  0.00000000000E+00 0.  1.
         25    1    1    2    0    0 -0.11906332463E+03  0.18394379063E+02 -0.93141410407E+02  0.19701459536E+03  0.12500000000E+03 0.  0.
         25    1    1    2    0    0 -0.54761494268E+02  0.19659783702E+01 -0.11294764546E+03  0.17715771770E+03  0.12500000000E+03 0.  0.
         25    1    1    2    0    0  0.17382481890E+03 -0.20360357433E+02 -0.89519958809E+02  0.23295586459E+03  0.12500000000E+03 0.  0.
</event>
<event>
 5    0  0.5778875E-005  0.2506336E+03  0.7546771E-02  0.1112905E+00
         21   -1    0    0  502  501  0.00000000000E+00  0.00000000000E+00  0.12328728282E+03  0.12328728282E+03  0.00000000000E+00 0. -1.
         21   -1    0    0  501  502 -0.00000000000E+00 -0.00000000000E+00 -0.50951909040E+03  0.50951909040E+03  0.00000000000E+00 0. -1.
         25    1    1    2    0    0 -0.34888912732E+02  0.74645591162E+02 -0.14696494531E+03  0.20979250621E+03  0.12500000000E+03 0.  0.
         25    1    1    2    0    0  0.10238287581E+03 -0.35912375912E+02 -0.31705877597E+02  0.16852956618E+03  0.12500000000E+03 0.  0.
         25    1    1    2    0    0 -0.67493963075E+02 -0.38733215250E+02 -0.20756098468E+03  0.25448430084E+03  0.12500000000E+03 0.  0.
</event>
<event>
 5    0  0.6308706E-005  0.8278969E+03  0.7546771E-02  0.9520493E-01
         21   -1    0    0  502  501  0.00000000000E+00  0.00000000000E+00  0.41744428025E+03  0.41744428025E+03  0.00000000000E+00 0.  1.
         21   -1    0    0  501  502 -0.00000000000E+00 -0.00000000000E+00 -0.16419276069E+04  0.16419276069E+04  0.00000000000E+00 0.  1.
         25    1    1    2    0    0  0.37807897559E+03 -0.45940274896E+02 -0.81206414157E+03  0.90560885081E+03  0.12500000000E+03 0.  0.
         25    1    1    2    0    0 -0.43596066300E+03 -0.24217691907E+02 -0.69582907190E+03  0.83093398871E+03  0.12500000000E+03 0.  0.
         25    1    1    2    0    0  0.57881687413E+02  0.70157966803E+02  0.28340988682E+03  0.32282904762E+03  0.12500000000E+03 0.  0.
</event>
<event>
 5    0  0.5827441E-005  0.2993392E+03  0.7546771E-02  0.1085571E+00
         21   -1    0    0  502  501  0.00000000000E+00  0.00000000000E+00  0.17195572245E+03  0.17195572245E+03  0.00000000000E+00 0.  1.
         21   -1    0    0  501  502 -0.00000000000E+00 -0.00000000000E+00 -0.52108723364E+03  0.52108723364E+03  0.00000000000E+00 0. -1.
         25    1    1    2    0    0 -0.15511058053E+03 -0.15857837652E+02 -0.23712290978E+03  0.31010165680E+03  0.12500000000E+03 0.  0.
         25    1    1    2    0    0 -0.34202683226E+02  0.15273167934E+02 -0.12710610539E+01  0.13049792640E+03  0.12500000000E+03 0.  0.
         25    1    1    2    0    0  0.18931326375E+03  0.58466971852E+00 -0.11073754036E+03  0.25244337289E+03  0.12500000000E+03 0.  0.
</event>
<event>
 5    0  0.5778875E-005  0.3262728E+03  0.7546771E-02  0.1072798E+00
         21   -1    0    0  502  501  0.00000000000E+00  0.00000000000E+00  0.16690380734E+03  0.16690380734E+03  0.00000000000E+00 0. -1.
         21   -1    0    0  501  502 -0.00000000000E+00 -0.00000000000E+00 -0.63781631083E+03  0.63781631083E+03  0.00000000000E+00 0. -1.
         25    1    1    2    0    0  0.33412197592E+02  0.14747535210E+03  0.48480383514E+02  0.20209082614E+03  0.12500000000E+03 0.  0.
         25    1    1    2    0    0  0.25446609316E+02 -0.52508427640E+02 -0.23474979613E+03  0.27228134655E+03  0.12500000000E+03 0.  0.
         25    1    1    2    0    0 -0.58858806909E+02 -0.94966924460E+02 -0.28464309088E+03  0.33034794547E+03  0.12500000000E+03 0.  0.
</event>
<event>
 5    0  0.5778875E-005  0.2917248E+03  0.7546771E-02  0.1089452E+00
         21   -1    0    0  502  501  0.00000000000E+00  0.00000000000E+00  0.48601331846E+02  0.48601331846E+02  0.00000000000E+00 0. -1.
         21   -1    0    0  501  502 -0.00000000000E+00 -0.00000000000E+00 -0.17510496603E+04  0.17510496603E+04  0.00000000000E+00 0. -1.
         25    1    1    2    0    0 -0.88332172560E+02  0.73970968303E+02 -0.11056803549E+04  0.11186725723E+04  0.12500000000E+03 0.  0.
         25    1    1    2    0    0  0.70312711906E+02  0.25420620936E+02 -0.16404959693E+03  0.21937947871E+03  0.12500000000E+03 0.  0.
         25    1    1    2    0    0  0.18019460654E+02 -0.99391589239E+02 -0.43271837670E+03  0.46159894119E+03  0.12500000000E+03 0.  0.
</event>
<event>
 5    0  0.5778875E-005  0.4691645E+03  0.7546771E-02  0.1022156E+00
         21   -1    0    0  502  501  0.00000000000E+00  0.00000000000E+00  0.45114027579E+03  0.45114027579E+03  0.00000000000E+00 0. -1.
         21   -1    0    0  501  502 -0.00000000000E+00 -0.00000000000E+00 -0.48790880277E+03  0.48790880277E+03  0.00000000000E+00 0. -1.
         25    1    1    2    0    0  0.16036733666E+03  0.46913283429E+02 -0.29821158669E+03  0.36396935210E+03  0.12500000000E+03 0.  0.
         25    1    1    2    0    0 -0.26448862117E+03 -0.19991543121E+02  0.35499194991E+02  0.29536263367E+03  0.12500000000E+03 0.  0.
         25    1    1    2    0    0  0.10412128451E+03 -0.26921740308E+02  0.22594386472E+03  0.27971709278E+03  0.12500000000E+03 0.  0.
</event>
<event>
 5    0  0.5778875E-005  0.3377056E+03  0.7546771E-02  0.1067777E+00
         21   -1    0    0  502  501  0.00000000000E+00  0.00000000000E+00  0.62608475396E+03  0.62608475396E+03  0.00000000000E+00 0.  1.
         21   -1    0    0  501  502 -0.00000000000E+00 -0.00000000000E+00 -0.18215598463E+03  0.18215598463E+03  0.00000000000E+00 0.  1.
         25    1    1    2    0    0 -0.16641960750E+03 -0.12621258032E+02  0.31037671535E+02  0.21081536701E+03  0.12500000000E+03 0.  0.
         25    1    1    2    0    0  0.24078547164E+02 -0.44536441485E+02 -0.51050631061E+01  0.13496048578E+03  0.12500000000E+03 0.  0.
         25    1    1    2    0    0  0.14234106033E+03  0.57157699517E+02  0.41799616090E+03  0.46246488580E+03  0.12500000000E+03 0.  0.
</event>
<event>
 5    0  0.5778875E-005  0.2516971E+03  0.7546771E-02  0.1112237E+00
         21   -1    0    0  502  501  0.00000000000E+00  0.00000000000E+00  0.69385674638E+03  0.69385674638E+03  0.00000000000E+00 0. -1.
         21   -1    0    0  501  502 -0.00000000000E+00 -0.00000000000E+00 -0.91303318269E+02  0.91303318269E+02  0.00000000000E+00 0. -1.
         25    1    1    2    0    0  0.21363611405E+02 -0.78277085353E+02  0.16190947518E+03  0.22005313935E+03  0.12500000000E+03 0.  0.
         25    1    1    2    0    0  0.16749014407E+02  0.12112342689E+03  0.37276751346E+03  0.41174267828E+03  0.12500000000E+03 0.  0.
         25    1    1    2    0    0 -0.38112625812E+02 -0.42846341533E+02  0.67876439464E+02  0.15336424702E+03  0.12500000000E+03 0.  0.
</event>
<event>
 5    0  0.5778875E-005  0.2785703E+03  0.7546771E-02  0.1096472E+00
         21   -1    0    0  502  501  0.00000000000E+00  0.00000000000E+00  0.27816272031E+03  0.27816272031E+03  0.00000000000E+00 0.  1.
         21   -1    0    0  501  502 -0.00000000000E+00 -0.00000000000E+00 -0.27897842252E+03  0.27897842252E+03  0.00000000000E+00 0.  1.
         25    1    1    2    0    0  0.10477483538E+03  0.69334345811E+02 -0.12096476368E+03  0.21457514229E+03  0.12500000000E+03 0.  0.
         25    1    1    2    0    0 -0.40499672945E+02 -0.41586308614E+02  0.14171626646E+03  0.19768192824E+03  0.12500000000E+03 0.  0.
         25    1    1    2    0    0 -0.64275162430E+02 -0.27748037198E+02 -0.21567204991E+02  0.14488407230E+03  0.12500000000E+03 0.  0.
</event>
<event>
 5    0  0.7610895E-005  0.2935542E+03  0.7546771E-02  0.1088508E+00
         21   -1    0    0  502  501  0.00000000000E+00  0.00000000000E+00  0.63321615192E+03  0.63321615192E+03  0.00000000000E+00 0.  1.
         21   -1    0    0  501  502 -0.00000000000E+00 -0.00000000000E+00 -0.13608950935E+03  0.13608950935E+03  0.00000000000E+00 0.  1.
         25    1    1    2    0    0  0.89831363949E+02  0.33624374794E+02 -0.86717080764E+01  0.15779883095E+03  0.12500000000E+03 0.  0.
         25    1    1    2    0    0  0.30323608997E+02 -0.94192366749E+02  0.25286881094E+03  0.29893035771E+03  0.12500000000E+03 0.  0.
         25    1    1    2    0    0 -0.12015497295E+03  0.60567991955E+02  0.25292953970E+03  0.31257647261E+03  0.12500000000E+03 0.  0.
</event>
<event>
 5    0  0.5778875E-005  0.2768133E+03  0.7546771E-02  0.1097442E+00
         21   -1    0    0  502  501  0.00000000000E+00  0.00000000000E+00  0.22357888244E+03  0.22357888244E+03  0.00000000000E+00 0.  1.
         21   -1    0    0  501  502 -0.00000000000E+00 -0.00000000000E+00 -0.34272280450E+03  0.34272280450E+03  0.00000000000E+00 0.  1.
         25    1    1    2    0    0  0.33601116680E+02 -0.86690042352E+02  0.91187943526E+02  0.18051160497E+03  0.12500000000E+03 0.  0.
         25    1    1    2    0    0  0.49918229618E+02  0.10317120452E+03 -0.86789311739E+02  0.19050856076E+03  0.12500000000E+03 0.  0.
         25    1    1    2    0    0 -0.83519346298E+02 -0.16481162167E+02 -0.12354255385E+03  0.19528152121E+03  0.12500000000E+03 0.  0.
</event>
<event>
 5    0  0.5778875E-005  0.3232358E+03  0.7546771E-02  0.1074170E+00
         21   -1    0    0  502  501  0.00000000000E+00  0.00000000000E+00  0.13645868216E+03  0.13645868216E+03  0.00000000000E+00 0. -1.
         21   -1    0    0  501  502 -0.00000000000E+00 -0.00000000000E+00 -0.76566334138E+03  0.76566334138E+03  0.00000000000E+00 0. -1.
         25    1    1    2    0    0 -0.19799090459E+03 -0.40231374012E+02 -0.24069224886E+03  0.33819627499E+03  0.12500000000E+03 0.  0.
         25    1    1    2    0    0  0.13232690200E+03 -0.52660286358E+02 -0.67536523119E+02  0.20117081475E+03  0.12500000000E+03 0.  0.
         25    1    1    2    0    0  0.65664002585E+02  0.92891660370E+02 -0.32097588724E+03  0.36275493379E+03  0.12500000000E+03 0.  0.
</event>
<event>
 5    0  0.5955380E-005  0.3178577E+03  0.7546771E-02  0.1076639E+00
         21   -1    0    0  502  501  0.00000000000E+00  0.00000000000E+00  0.44367320159E+03  0.44367320159E+03  0.00000000000E+00 0.  1.
         21   -1    0    0  501  502 -0.00000000000E+00 -0.00000000000E+00 -0.22772060704E+03  0.22772060704E+03  0.00000000000E+00 0.  1.
         25    1    1    2    0    0  0.15028477837E+03 -0.19506063330E+02  0.18982728000E+03  0.27317649487E+03  0.12500000000E+03 0.  0.
         25    1    1    2    0    0 -0.17092433389E+02  0.12346250751E+03  0.57642843106E+02  0.18569555569E+03  0.12500000000E+03 0.  0.
         25    1    1    2    0    0 -0.13319234498E+03 -0.10395644418E+03 -0.31517528563E+02  0.21252175807E+03  0.12500000000E+03 0.  0.
</event>
<event>
 5    0  0.5778875E-005  0.2800046E+03  0.7546771E-02  0.1095686E+00
         21   -1    0    0  502  501  0.00000000000E+00  0.00000000000E+00  0.74473292812E+03  0.74473292812E+03  0.00000000000E+00 0. -1.
         21   -1    0    0  501  502 -0.00000000000E+00 -0.00000000000E+00 -0.10527610390E+03  0.10527610390E+03  0.00000000000E+00 0. -1.
         25    1    1    2    0    0  0.86338048049E+02  0.52717053129E+02  0.15498600822E+03  0.22333608973E+03  0.12500000000E+03 0.  0.
         25    1    1    2    0    0 -0.12458584328E+03  0.54429555126E+02  0.39359180675E+03  0.43476858115E+03  0.12500000000E+03 0.  0.
         25    1    1    2    0    0  0.38247795229E+02 -0.10714660825E+03  0.90879009251E+02  0.19190436114E+03  0.12500000000E+03 0.  0.
</event>
<event>
 5    0  0.5920781E-005  0.2563305E+03  0.7546771E-02  0.1109368E+00
         21   -1    0    0  502  501  0.00000000000E+00  0.00000000000E+00  0.83837944133E+03  0.83837944133E+03  0.00000000000E+00 0.  1.
         21   -1    0    0  501  502 -0.00000000000E+00 -0.00000000000E+00 -0.78371834830E+02  0.78371834830E+02  0.00000000000E+00 0.  1.
         25    1    1    2    0    0 -0.13188625600E+03 -0.88802765580E+02  0.30696661026E+03  0.36760497210E+03  0.12500000000E+03 0.  0.
         25    1    1    2    0    0  0.14641310968E+02  0.40287634542E+02  0.19938426817E+03  0.23919980743E+03  0.12500000000E+03 0.  0.
         25    1    1    2    0    0  0.11724494503E+03  0.48515131038E+02  0.25365672808E+03  0.30994649663E+03  0.12500000000E+03 0.  0.
</event>
<event>
 5    0  0.5778875E-005  0.3196728E+03  0.7546771E-02  0.1075800E+00
         21   -1    0    0  502  501  0.00000000000E+00  0.00000000000E+00  0.88700412488E+02  0.88700412488E+02  0.00000000000E+00 0. -1.
         21   -1    0    0  501  502 -0.00000000000E+00 -0.00000000000E+00 -0.11520881757E+04  0.11520881757E+04  0.00000000000E+00 0. -1.
         25    1    1    2    0    0  0.46685050660E+01  0.12986812768E+03 -0.46526922378E+03  0.49898694986E+03  0.12500000000E+03 0.  0.
         25    1    1    2    0    0  0.47705135754E+02 -0.22799005213E+03 -0.29928125837E+03  0.39931130144E+03  0.12500000000E+03 0.  0.
         25    1    1    2    0    0 -0.52373640820E+02  0.98121924444E+02 -0.29883728101E+03  0.34249033684E+03  0.12500000000E+03 0.  0.
</event>
<event>
 5    0  0.5778875E-005  0.2832210E+03  0.7546771E-02  0.1093943E+00
         21   -1    0    0  502  501  0.00000000000E+00  0.00000000000E+00  0.18241286491E+03  0.18241286491E+03  0.00000000000E+00 0.  1.
         21   -1    0    0  501  502 -0.00000000000E+00 -0.00000000000E+00 -0.43973945990E+03  0.43973945990E+03  0.00000000000E+00 0.  1.
         25    1    1    2    0    0 -0.14509521161E+03 -0.35695216388E+02 -0.20405816914E+03  0.28211966485E+03  0.12500000000E+03 0.  0.
         25    1    1    2    0    0 -0.19440074913E+02  0.17454004526E+02 -0.96851791412E+01  0.12806780033E+03  0.12500000000E+03 0.  0.
         25    1    1    2    0    0  0.16453528652E+03  0.18241211862E+02 -0.43583246715E+02  0.21196485962E+03  0.12500000000E+03 0.  0.
</event>
<event>
 5    0  0.5778875E-005  0.5319256E+03  0.7546771E-02  0.1005766E+00
         21   -1    0    0  502  501  0.00000000000E+00  0.00000000000E+00  0.17052242925E+03  0.17052242925E+03  0.00000000000E+00 0.  1.
         21   -1    0    0  501  502 -0.00000000000E+00 -0.00000000000E+00 -0.16592821078E+04  0.16592821078E+04  0.00000000000E+00 0.  1.
         25    1    1    2    0    0  0.12885841251E+03  0.24718025733E+03 -0.38320834614E+03  0.49007775571E+03  0.12500000000E+03 0.  0.
         25    1    1    2    0    0 -0.28274847612E+03 -0.39165704571E+02 -0.97594764308E+03  0.10244898512E+04  0.12500000000E+03 0.  0.
         25    1    1    2    0    0  0.15389006361E+03 -0.20801455276E+03 -0.12960368932E+03  0.31523693013E+03  0.12500000000E+03 0.  0.
</event>
<event>
 5    0  0.5778875E-005  0.3710351E+03  0.7546771E-02  0.1054298E+00
         21   -1    0    0  502  501  0.00000000000E+00  0.00000000000E+00  0.10138329292E+04  0.10138329292E+04  0.00000000000E+00 0. -1.
         21   -1    0    0  501  502 -0.00000000000E+00 -0.00000000000E+00 -0.13578868363E+03  0.13578868363E+03  0.00000000000E+00 0. -1.
         25    1    1    2    0    0  0.16417612826E+02 -0.20211967828E+03  0.45052536946E+03  0.50962732549E+03  0.12500000000E+03 0.  0.
         25    1    1    2    0    0 -0.84782470774E+02  0.12775339231E+03  0.16309541420E+02  0.19849432672E+03  0.12500000000E+03 0.  0.
         25    1    1    2    0    0  0.68364857948E+02  0.74366285969E+02  0.41120933473E+03  0.44149996066E+03  0.12500000000E+03 0.  0.
</event>
<event>
 5    0  0.6309434E-005  0.2744521E+03  0.7546771E-02  0.1098758E+00
         21   -1    0    0  502  501  0.00000000000E+00  0.00000000000E+00  0.55825958069E+03  0.55825958069E+03  0.00000000000E+00 0. -1.
         21   -1    0    0  501  502 -0.00000000000E+00 -0.00000000000E+00 -0.13492643577E+03  0.13492643577E+03  0.00000000000E+00 0. -1.
         25    1    1    2    0    0  0.98484740500E+02 -0.11709723285E+03  0.56741349494E+02  0.20556163746E+03  0.12500000000E+03 0.  0.
         25    1    1    2    0    0 -0.73789650486E+02  0.10420121559E+02  0.11216956168E+03  0.18374031136E+03  0.12500000000E+03 0.  0.
         25    1    1    2    0    0 -0.24695090014E+02  0.10667711129E+03  0.25442223374E+03  0.30388406764E+03  0.12500000000E+03 0.  0.
</event>
<event>
 5    0  0.6113449E-005  0.3013559E+03  0.7546771E-02  0.1084565E+00
         21   -1    0    0  502  501  0.00000000000E+00  0.00000000000E+00  0.20526820050E+03  0.20526820050E+03  0.00000000000E+00 0. -1.
         21   -1    0    0  501  502 -0.00000000000E+00 -0.00000000000E+00 -0.44242293941E+03  0.44242293941E+03  0.00000000000E+00 0. -1.
         25    1    1    2    0    0 -0.56277407224E+02 -0.85400563386E+02 -0.10876263320E+03  0.19471700792E+03  0.12500000000E+03 0.  0.
         25    1    1    2    0    0  0.15058643320E+03  0.55404784315E+02  0.54275039129E+02  0.21051542428E+03  0.12500000000E+03 0.  0.
         25    1    1    2    0    0 -0.94309025978E+02  0.29995779072E+02 -0.18266714483E+03  0.24245870771E+03  0.12500000000E+03 0.  0.
</event>
<event>
 5    0  0.5778875E-005  0.2221545E+03  0.7546771E-02  0.1132287E+00
         21   -1    0    0  502  501  0.00000000000E+00  0.00000000000E+00  0.22165210359E+03  0.22165210359E+03  0.00000000000E+00 0.  1.
         21   -1    0    0  501  502 -0.00000000000E+00 -0.00000000000E+00 -0.22265796159E+03  0.22265796159E+03  0.00000000000E+00 0.  1.
         25    1    1    2    0    0  0.39873267041E+02 -0.65118444425E+02 -0.42480366856E+02  0.15251187100E+03  0.12500000000E+03 0.  0.
         25    1    1    2    0    0 -0.12559870161E+02  0.51004824251E+02 -0.37625303519E+02  0.14071213843E+03  0.12500000000E+03 0.  0.
         25    1    1    2    0    0 -0.27313396880E+02  0.14113620174E+02  0.79099812379E+02  0.15108605575E+03  0.12500000000E+03 0.  0.
</event>
<event>
 5    0  0.5778875E-005  0.2596623E+03  0.7546771E-02  0.1107346E+00
         21   -1    0    0  502  501  0.00000000000E+00  0.00000000000E+00  0.72274078703E+02  0.72274078703E+02  0.00000000000E+00 0.  1.
         21   -1    0    0  501  502 -0.00000000000E+00 -0.00000000000E+00 -0.93290048821E+03  0.93290048821E+03  0.00000000000E+00 0.  1.
         25    1    1    2    0    0  0.25755514966E+02 -0.13846098647E+03 -0.34033403169E+03  0.38895635289E+03  0.12500000000E+03 0.  0.
         25    1    1    2    0    0  0.18776100939E+02  0.26320211813E+02 -0.10627641583E+03  0.16722730662E+03  0.12500000000E+03 0.  0.
         25    1    1    2    0    0 -0.44531615905E+02  0.11214077466E+03 -0.41401596199E+03  0.44899090741E+03  0.12500000000E+03 0.  0.
</event>
<event>
 5    0  0.5778875E-005  0.2770488E+03  0.7546771E-02  0.1097312E+00
         21   -1    0    0  502  501  0.00000000000E+00  0.00000000000E+00  0.34593891402E+03  0.34593891402E+03  0.00000000000E+00 0. -1.
         21   -1    0    0  501  502 -0.00000000000E+00 -0.00000000000E+00 -0.22187742238E+03  0.22187742238E+03  0.00000000000E+00 0. -1.
         25    1    1    2    0    0  0.71134873702E+02 -0.51319888562E+02 -0.27032355928E+02  0.15507949409E+03  0.12500000000E+03 0.  0.
         25    1    1    2    0    0 -0.10109539575E+03  0.13638599281E+03  0.14974410305E+03  0.25859179120E+03  0.12500000000E+03 0.  0.
         25    1    1    2    0    0  0.29960522044E+02 -0.85066104248E+02  0.13497445177E+01  0.15414505112E+03  0.12500000000E+03 0.  0.
</event>
<event>
 5    0  0.5778875E-005  0.4017346E+03  0.7546771E-02  0.1043181E+00
         21   -1    0    0  502  501  0.00000000000E+00  0.00000000000E+00  0.18091066349E+04  0.18091066349E+04  0.00000000000E+00 0.  1.
         21   -1    0    0  501  502 -0.00000000000E+00 -0.00000000000E+00 -0.89210139734E+02  0.89210139734E+02  0.00000000000E+00 0.  1.
         25    1    1    2    0    0  0.43397859908E+02  0.21685226570E+03  0.65081325971E+03  0.69863522556E+03  0.12500000000E+03 0.  0.
         25    1    1    2    0    0 -0.18890786417E+03 -0.20723434406E+03  0.87207981205E+03  0.92454337545E+03  0.12500000000E+03 0.  0.
         25    1    1    2    0    0  0.14551000426E+03 -0.96179216412E+01  0.19700342346E+03  0.27513817367E+03  0.12500000000E+03 0.  0.
</event>
<event>
 5    0  0.5778875E-005  0.4779454E+03  0.7546771E-02  0.1019701E+00
         21   -1    0    0  502  501  0.00000000000E+00  0.00000000000E+00  0.46957718526E+03  0.46957718526E+03  0.00000000000E+00 0.  1.
         21   -1    0    0  501  502 -0.00000000000E+00 -0.00000000000E+00 -0.48646272429E+03  0.48646272429E+03  0.00000000000E+00 0.  1.
         25    1    1    2    0    0 -0.18040815028E+03  0.20913704261E+03 -0.22951468141E+03  0.38024648882E+03  0.12500000000E+03 0.  0.
         25    1    1    2    0    0  0.16869795016E+02  0.84580111830E+02  0.14664314423E+03  0.21111039067E+03  0.12500000000E+03 0.  0.
         25    1    1    2    0    0  0.16353835526E+03 -0.29371715444E+03  0.65985998158E+02  0.36468303005E+03  0.12500000000E+03 0.  0.
</event>
<event>
 5    0  0.5778875E-005  0.2807749E+03  0.7546771E-02  0.1095266E+00
         21   -1    0    0  502  501  0.00000000000E+00  0.00000000000E+00  0.48028318387E+03  0.48028318387E+03  0.00000000000E+00 0. -1.
         21   -1    0    0  501  502 -0.00000000000E+00 -0.00000000000E+00 -0.16414184169E+03  0.16414184169E+03  0.00000000000E+00 0. -1.
         25    1    1    2    0    0  0.75942788971E+02  0.12312647968E+02  0.19709615354E+03  0.24574540125E+03  0.12500000000E+03 0.  0.
         25    1    1    2    0    0  0.92406844410E+02 -0.53451245865E+02  0.74167193848E+02  0.18033810807E+03  0.12500000000E+03 0.  0.
         25    1    1    2    0    0 -0.16834963338E+03  0.41138597897E+02  0.44877994793E+02  0.21834151624E+03  0.12500000000E+03 0.  0.
</event>
<event>
 5    0  0.5778875E-005  0.2622151E+03  0.7546771E-02  0.1105820E+00
         21   -1    0    0  502  501  0.00000000000E+00  0.00000000000E+00  0.16859812985E+03  0.16859812985E+03  0.00000000000E+00 0.  1.
         21   -1    0    0  501  502 -0.00000000000E+00 -0.00000000000E+00 -0.40781462504E+03  0.40781462504E+03  0.00000000000E+00 0.  1.
         25    1    1    2    0    0 -0.14697858157E+03  0.68301671249E+02 -0.91055161132E+02  0.22401755312E+03  0.12500000000E+03 0.  0.
         25    1    1    2    0    0  0.22394190446E+02 -0.13439656881E+02 -0.97785568625E+02  0.16083886836E+03  0.12500000000E+03 0.  0.
         25    1    1    2    0    0  0.12458439112E+03 -0.54862014368E+02 -0.50375765433E+02  0.19155633342E+03  0.12500000000E+03 0.  0.
</event>
<event>
 5    0  0.5778875E-005  0.2919835E+03  0.7546771E-02  0.1089318E+00
         21   -1    0    0  502  501  0.00000000000E+00  0.00000000000E+00  0.23442520061E+04  0.23442520061E+04  0.00000000000E+00 0.  1.
         21   -1    0    0  501  502 -0.00000000000E+00 -0.00000000000E+00 -0.36367416682E+02  0.36367416682E+02  0.00000000000E+00 0.  1.
         25    1    1    2    0    0  0.51994533709E+02  0.88982910130E+02  0.54627290493E+03  0.56978985292E+03  0.12500000000E+03 0.  0.
         25    1    1    2    0    0  0.11646212712E+03  0.36563668026E+02  0.71163465852E+03  0.73276818714E+03  0.12500000000E+03 0.  0.
         25    1    1    2    0    0 -0.16845666083E+03 -0.12554657816E+03  0.10499770260E+04  0.10780613827E+04  0.12500000000E+03 0.  0.
</event>
<event>
 5    0  0.5778875E-005  0.3043154E+03  0.7546771E-02  0.1083103E+00
         21   -1    0    0  502  501  0.00000000000E+00  0.00000000000E+00  0.29456800246E+04  0.29456800246E+04  0.00000000000E+00 0. -1.
         21   -1    0    0  501  502 -0.00000000000E+00 -0.00000000000E+00 -0.31438540574E+02  0.31438540574E+02  0.00000000000E+00 0. -1.
         25    1    1    2    0    0  0.93631651727E+02 -0.14211334118E+02  0.42209150878E+03  0.45028334414E+03  0.12500000000E+03 0.  0.
         25    1    1    2    0    0 -0.48814821127E+02  0.10120157501E+03  0.20530813966E+04  0.20599497243E+04  0.12500000000E+03 0.  0.
         25    1    1    2    0    0 -0.44816830600E+02 -0.86990240894E+02  0.43906857864E+03  0.46688549673E+03  0.12500000000E+03 0.  0.
</event>
<event>
 5    0  0.5778875E-005  0.2756328E+03  0.7546771E-02  0.1098098E+00
         21   -1    0    0  502  501  0.00000000000E+00  0.00000000000E+00  0.38638939960E+03  0.38638939960E+03  0.00000000000E+00 0. -1.
         21   -1    0    0  501  502 -0.00000000000E+00 -0.00000000000E+00 -0.19662409561E+03  0.19662409561E+03  0.00000000000E+00 0. -1.
         25    1    1    2    0    0 -0.93155574137E+02 -0.30943029445E+02 -0.72950774285E+01  0.15910264051E+03  0.12500000000E+03 0.  0.
         25    1    1    2    0    0  0.11929721661E+02  0.12555964134E+03  0.16898291536E+03  0.24512806342E+03  0.12500000000E+03 0.  0.
         25    1    1    2    0    0  0.81225852476E+02 -0.94616611896E+02  0.28077466063E+02  0.17878279128E+03  0.12500000000E+03 0.  0.
</event>
<event>
 5    0  0.5778875E-005  0.2535762E+03  0.7546771E-02  0.1111065E+00
         21   -1    0    0  502  501  0.00000000000E+00  0.00000000000E+00  0.28036362429E+03  0.28036362429E+03  0.00000000000E+00 0.  1.
         21   -1    0    0  501  502 -0.00000000000E+00 -0.00000000000E+00 -0.22934815368E+03  0.22934815368E+03  0.00000000000E+00 0.  1.
         25    1    1    2    0    0  0.15115702934E+03  0.15904213597E+02  0.43739005149E+02  0.20159239098E+03  0.12500000000E+03 0.  0.
         25    1    1    2    0    0 -0.85471864099E+02 -0.28965345200E+02  0.46412621741E+02  0.16100795705E+03  0.12500000000E+03 0.  0.
         25    1    1    2    0    0 -0.65685165242E+02  0.13061131603E+02 -0.39136156288E+02  0.14711142995E+03  0.12500000000E+03 0.  0.
</event>
<event>
 5    0  0.6457980E-005  0.4357254E+03  0.7546771E-02  0.1032066E+00
         21   -1    0    0  502  501  0.00000000000E+00  0.00000000000E+00  0.43217480554E+03  0.43217480554E+03  0.00000000000E+00 0.  1.
         21   -1    0    0  501  502 -0.00000000000E+00 -0.00000000000E+00 -0.43930509805E+03  0.43930509805E+03  0.00000000000E+00 0.  1.
         25    1    1    2    0    0  0.14592488532E+03  0.95368943387E+02  0.17801015965E+03  0.27875064925E+03  0.12500000000E+03 0.  0.
         25    1    1    2    0    0 -0.24191843331E+03 -0.12238055680E+03  0.55646976928E+02  0.30368258939E+03  0.12500000000E+03 0.  0.
         25    1    1    2    0    0  0.95993547991E+02  0.27011613412E+02 -0.24078742909E+03  0.28904666495E+03  0.12500000000E+03 0.  0.
</event>
<event>
 5    0  0.5778875E-005  0.3121339E+03  0.7546771E-02  0.1079328E+00
         21   -1    0    0  502  501  0.00000000000E+00  0.00000000000E+00  0.20436870334E+03  0.20436870334E+03  0.00000000000E+00 0. -1.
         21   -1    0    0  501  502 -0.00000000000E+00 -0.00000000000E+00 -0.47672444172E+03  0.47672444172E+03  0.00000000000E+00 0. -1.
         25    1    1    2    0    0 -0.85860853959E+02 -0.48264006828E+02 -0.21609859990E+03  0.26837493451E+03  0.12500000000E+03 0.  0.
         25    1    1    2    0    0 -0.78438450393E+02  0.57170529208E+02 -0.11759921926E+03  0.19716905508E+03  0.12500000000E+03 0.  0.
         25    1    1    2    0    0  0.16429930435E+03 -0.89065223800E+01  0.61342080769E+02  0.21554915547E+03  0.12500000000E+03 0.  0.
</event>
<event>
 5    0  0.5778875E-005  0.2563251E+03  0.7546771E-02  0.1109372E+00
         21   -1    0    0  502  501  0.00000000000E+00  0.00000000000E+00  0.26315974255E+03  0.26315974255E+03  0.00000000000E+00 0. -1.
         21   -1    0    0  501  502 -0.00000000000E+00 -0.00000000000E+00 -0.24966791597E+03  0.24966791597E+03  0.00000000000E+00 0. -1.
         25    1    1    2    0    0  0.85955099074E+02  0.43781508248E+02 -0.90738553131E+02  0.18210871628E+03  0.12500000000E+03 0.  0.
         25    1    1    2    0    0 -0.37655544112E+01 -0.48556161985E+02  0.12028869656E+03  0.18018393598E+03  0.12500000000E+03 0.  0.
         25    1    1    2    0    0 -0.82189544663E+02  0.47746537371E+01 -0.16058316849E+02  0.15053500626E+03  0.12500000000E+03 0.  0.
</event>
<event>
 5    0  0.5778875E-005  0.5338308E+03  0.7546771E-02  0.1005307E+00
         21   -1    0    0  502  501  0.00000000000E+00  0.00000000000E+00  0.25607274806E+03  0.25607274806E+03  0.00000000000E+00 0.  1.
         21   -1    0    0  501  502 -0.00000000000E+00 -0.00000000000E+00 -0.11128684664E+04  0.11128684664E+04  0.00000000000E+00 0.  1.
         25    1    1    2    0    0  0.82648655216E+02 -0.31516508337E+03 -0.44635285056E+03  0.56658247166E+03  0.12500000000E+03 0.  0.
         25    1    1    2    0    0  0.11952217522E+03  0.31213669688E+03 -0.43584312674E+03  0.56329308449E+03  0.12500000000E+03 0.  0.
         25    1    1    2    0    0 -0.20217083043E+03  0.30283864908E+01  0.25400258999E+02  0.23906565826E+03  0.12500000000E+03 0.  0.
</event>
<event>
 5    0  0.5778875E-005  0.3903254E+03  0.7546771E-02  0.1047182E+00
         21   -1    0    0  502  501  0.00000000000E+00  0.00000000000E+00  0.11072498071E+03  0.11072498071E+03  0.00000000000E+00 0.  1.
         21   -1    0    0  501  502 -0.00000000000E+00 -0.00000000000E+00 -0.13759670297E+04  0.13759670297E+04  0.00000000000E+00 0.  1.
         25    1    1    2    0    0  0.14735883936E+03 -0.19317494142E+03 -0.31347457677E+03  0.41583950728E+03  0.12500000000E+03 0.  0.
         25    1    1    2    0    0 -0.22546677882E+02  0.14907472190E+03 -0.14470320516E+03  0.24350696699E+03  0.12500000000E+03 0.  0.
         25    1    1    2    0    0 -0.12481216148E+03  0.44100219525E+02 -0.80706426709E+03  0.82734553618E+03  0.12500000000E+03 0.  0.
</event>
<event>
 5    0  0.6453137E-005  0.3683540E+03  0.7546771E-02  0.1055324E+00
         21   -1    0    0  502  501  0.00000000000E+00  0.00000000000E+00  0.42824914932E+03  0.42824914932E+03  0.00000000000E+00 0. -1.
         21   -1    0    0  501  502 -0.00000000000E+00 -0.00000000000E+00 -0.31683575473E+03  0.31683575473E+03  0.00000000000E+00 0. -1.
         25    1    1    2    0    0  0.12847801754E+03  0.49948569989E+02 -0.12192456150E+03  0.22246810857E+03  0.12500000000E+03 0.  0.
         25    1    1    2    0    0  0.80654656924E+02 -0.78027075882E+02  0.22026897676E+03  0.27701411585E+03  0.12500000000E+03 0.  0.
         25    1    1    2    0    0 -0.20913267446E+03  0.28078505893E+02  0.13068979324E+02  0.24560267963E+03  0.12500000000E+03 0.  0.
</event>
<event>
 5    0  0.5778875E-005  0.5579312E+03  0.7546771E-02  0.9996747E-01
         21   -1    0    0  502  501  0.00000000000E+00  0.00000000000E+00  0.27438358883E+03  0.27438358883E+03  0.00000000000E+00 0.  1.
         21   -1    0    0  501  502 -0.00000000000E+00 -0.00000000000E+00 -0.11344965864E+04  0.11344965864E+04  0.00000000000E+00 0.  1.
         25    1    1    2    0    0  0.63246686802E+02 -0.12460415076E+03 -0.14178106263E+03  0.23506000829E+03  0.12500000000E+03 0.  0.
         25    1    1    2    0    0  0.57601808239E+02 -0.28798801488E+03 -0.64563757507E+03  0.72022770245E+03  0.12500000000E+03 0.  0.
         25    1    1    2    0    0 -0.12084849504E+03  0.41259216564E+03 -0.72694359888E+02  0.45359246451E+03  0.12500000000E+03 0.  0.
</event>
<event>
 5    0  0.5778875E-005  0.5441007E+03  0.7546771E-02  0.1002869E+00
         21   -1    0    0  502  501  0.00000000000E+00  0.00000000000E+00  0.32466015251E+03  0.32466015251E+03  0.00000000000E+00 0.  1.
         21   -1    0    0  501  502 -0.00000000000E+00 -0.00000000000E+00 -0.91186312381E+03  0.91186312381E+03  0.00000000000E+00 0.  1.
         25    1    1    2    0    0  0.20653170084E+03 -0.42060207005E+02 -0.41006287497E+03  0.47770384748E+03  0.12500000000E+03 0.  0.
         25    1    1    2    0    0 -0.34492294116E+03  0.10679285862E+03  0.12139506363E+03  0.40092182713E+03  0.12500000000E+03 0.  0.
         25    1    1    2    0    0  0.13839124033E+03 -0.64732651610E+02 -0.29853515996E+03  0.35789760172E+03  0.12500000000E+03 0.  0.
</event>
<event>
 5    0  0.6429669E-005  0.3325226E+03  0.7546771E-02  0.1070026E+00
         21   -1    0    0  502  501  0.00000000000E+00  0.00000000000E+00  0.18633369030E+03  0.18633369030E+03  0.00000000000E+00 0.  1.
         21   -1    0    0  501  502 -0.00000000000E+00 -0.00000000000E+00 -0.59340476375E+03  0.59340476375E+03  0.00000000000E+00 0.  1.
         25    1    1    2    0    0  0.11908535379E+03  0.11239298511E+03 -0.96460785335E+02  0.22747128983E+03  0.12500000000E+03 0.  0.
         25    1    1    2    0    0 -0.54249347095E+01 -0.10017673897E+03  0.37963562571E+02  0.16471502976E+03  0.12500000000E+03 0.  0.
         25    1    1    2    0    0 -0.11366041908E+03 -0.12216246139E+02 -0.34857385069E+03  0.38755213445E+03  0.12500000000E+03 0.  0.
</event>
<event>
 5    0  0.5778875E-005  0.3932733E+03  0.7546771E-02  0.1046134E+00
         21   -1    0    0  502  501  0.00000000000E+00  0.00000000000E+00  0.10443408961E+03  0.10443408961E+03  0.00000000000E+00 0. -1.
         21   -1    0    0  501  502 -0.00000000000E+00 -0.00000000000E+00 -0.14809713319E+04  0.14809713319E+04  0.00000000000E+00 0. -1.
         25    1    1    2    0    0  0.16082075331E+03 -0.11616488880E+03 -0.94458649961E+02  0.25279444740E+03  0.12500000000E+03 0.  0.
         25    1    1    2    0    0 -0.11650259720E+03  0.17299688494E+02 -0.90030973856E+03  0.91654501238E+03  0.12500000000E+03 0.  0.
         25    1    1    2    0    0 -0.44318156113E+02  0.98865200302E+02 -0.38176885374E+03  0.41606596169E+03  0.12500000000E+03 0.  0.
</event>
<event>
 5    0  0.5778875E-005  0.2329249E+03  0.7546771E-02  0.1124598E+00
         21   -1    0    0  502  501  0.00000000000E+00  0.00000000000E+00  0.11554665961E+04  0.11554665961E+04  0.00000000000E+00 0.  1.
         21   -1    0    0  501  502 -0.00000000000E+00 -0.00000000000E+00 -0.46954217560E+02  0.46954217560E+02  0.00000000000E+00 0.  1.
         25    1    1    2    0    0 -0.86443588343E+02  0.11226605673E+02  0.22468955466E+03  0.27149387951E+03  0.12500000000E+03 0.  0.
         25    1    1    2    0    0  0.98268278247E+02  0.71945500099E+01  0.39405617787E+03  0.42498669082E+03  0.12500000000E+03 0.  0.
         25    1    1    2    0    0 -0.11824689904E+02 -0.18421155683E+02  0.48976664599E+03  0.50594024330E+03  0.12500000000E+03 0.  0.
</event>
<event>
 5    0  0.5778875E-005  0.3015016E+03  0.7546771E-02  0.1084492E+00
         21   -1    0    0  502  501  0.00000000000E+00  0.00000000000E+00  0.27791665933E+04  0.27791665933E+04  0.00000000000E+00 0.  1.
         21   -1    0    0  501  502 -0.00000000000E+00 -0.00000000000E+00 -0.32708793434E+02  0.32708793434E+02  0.00000000000E+00 0.  1.
         25    1    1    2    0    0  0.20592865419E+03  0.87750067671E+02  0.10770767675E+04  0.11071702887E+04  0.12500000000E+03 0.  0.
         25    1    1    2    0    0 -0.84748594855E+02 -0.37747516863E+02  0.58789943985E+03  0.60815947804E+03  0.12500000000E+03 0.  0.
         25    1    1    2    0    0 -0.12118005933E+03 -0.50002550808E+02  0.10814815926E+04  0.10965456201E+04  0.12500000000E+03 0.  0.
</event>
<event>
 5    0  0.5778875E-005  0.2271450E+03  0.7546771E-02  0.1128666E+00
         21   -1    0    0  502  501  0.00000000000E+00  0.00000000000E+00  0.17886663639E+03  0.17886663639E+03  0.00000000000E+00 0.  1.
         21   -1    0    0  501  502 -0.00000000000E+00 -0.00000000000E+00 -0.28845419771E+03  0.28845419771E+03  0.00000000000E+00 0.  1.
         25    1    1    2    0    0  0.90422240583E+02  0.54405822320E+02 -0.68012157116E+01  0.16372975182E+03  0.12500000000E+03 0.  0.
         25    1    1    2    0    0 -0.45239586477E+01 -0.45373874886E+02 -0.37664448478E+02  0.13828544899E+03  0.12500000000E+03 0.  0.
         25    1    1    2    0    0 -0.85898281935E+02 -0.90319474340E+01 -0.65121897124E+02  0.16530563329E+03  0.12500000000E+03 0.  0.
</event>
<event>
 5    0  0.5778875E-005  0.2342272E+03  0.7546771E-02  0.1123699E+00
         21   -1    0    0  502  501  0.00000000000E+00  0.00000000000E+00  0.29252449584E+02  0.29252449584E+02  0.00000000000E+00 0.  1.
         21   -1    0    0  501  502 -0.00000000000E+00 -0.00000000000E+00 -0.18754801036E+04  0.18754801036E+04  0.00000000000E+00 0.  1.
         25    1    1    2    0    0  0.35306677439E+02 -0.41343537207E+02 -0.78035968402E+03  0.79217553988E+03  0.12500000000E+03 0.  0.
         25    1    1    2    0    0  0.63370524835E+02  0.47191186095E+02 -0.66350157105E+03  0.67978096932E+03  0.12500000000E+03 0.  0.
         25    1    1    2    0    0 -0.98677202274E+02 -0.58476488877E+01 -0.40236639895E+03  0.43277604399E+03  0.12500000000E+03 0.  0.
</event>
<event>
 5    0  0.5778875E-005  0.2221765E+03  0.7546771E-02  0.1132271E+00
         21   -1    0    0  502  501  0.00000000000E+00  0.00000000000E+00  0.16486074521E+03  0.16486074521E+03  0.00000000000E+00 0.  1.
         21   -1    0    0  501  502 -0.00000000000E+00 -0.00000000000E+00 -0.29941864542E+03  0.29941864542E+03  0.00000000000E+00 0.  1.
         25    1    1    2    0    0 -0.53399591686E+02  0.20714844885E+02 -0.49178972113E+02  0.14602805377E+03  0.12500000000E+03 0.  0.
         25    1    1    2    0    0  0.27033314669E+02 -0.58182092431E+02  0.28139934916E+02  0.14329274901E+03  0.12500000000E+03 0.  0.
         25    1    1    2    0    0  0.26366277016E+02  0.37467247546E+02 -0.11351886302E+03  0.17495858785E+03  0.12500000000E+03 0.  0.
</event>
<event>
 5    0  0.5778875E-005  0.3310742E+03  0.7546771E-02  0.1070663E+00
         21   -1    0    0  502  501  0.00000000000E+00  0.00000000000E+00  0.24182230230E+03  0.24182230230E+03  0.00000000000E+00 0. -1.
         21   -1    0    0  501  502 -0.00000000000E+00 -0.00000000000E+00 -0.45326719716E+03  0.45326719716E+03  0.00000000000E+00 0. -1.
         25    1    1    2    0    0  0.12363785894E+03 -0.13579863720E+03  0.85495322840E+02  0.23803789668E+03  0.12500000000E+03 0.  0.
         25    1    1    2    0    0 -0.14233821608E+03  0.10661850911E+03 -0.17583870606E+03  0.27959242620E+03  0.12500000000E+03 0.  0.
         25    1    1    2    0    0  0.18700357144E+02  0.29180128085E+02 -0.12110151164E+03  0.17745917659E+03  0.12500000000E+03 0.  0.
</event>
<event>
 5    0  0.5778875E-005  0.3099131E+03  0.7546771E-02  0.1080388E+00
         21   -1    0    0  502  501  0.00000000000E+00  0.00000000000E+00  0.66093814242E+02  0.66093814242E+02  0.00000000000E+00 0.  1.
         21   -1    0    0  501  502 -0.00000000000E+00 -0.00000000000E+00 -0.14531790401E+04  0.14531790401E+04  0.00000000000E+00 0.  1.
         25    1    1    2    0    0  0.17501053707E+03  0.23913971166E+02 -0.33938951668E+03  0.40250566473E+03  0.12500000000E+03 0.  0.
         25    1    1    2    0    0 -0.44208863133E+02 -0.45906326970E+02 -0.17036739914E+03  0.22070764627E+03  0.12500000000E+03 0.  0.
         25    1    1    2    0    0 -0.13080167394E+03  0.21992355804E+02 -0.87732831008E+03  0.89605954339E+03  0.12500000000E+03 0.  0.
</event>
<event>
 5    0  0.5778875E-005  0.3750294E+03  0.7546771E-02  0.1052786E+00
         21   -1    0    0  502  501  0.00000000000E+00  0.00000000000E+00  0.18063334355E+03  0.18063334355E+03  0.00000000000E+00 0.  1.
         21   -1    0    0  501  502 -0.00000000000E+00 -0.00000000000E+00 -0.77863283370E+03  0.77863283370E+03  0.00000000000E+00 0.  1.
         25    1    1    2    0    0 -0.23141491656E+03 -0.41736054741E+02 -0.29896018415E+03  0.40037101990E+03  0.12500000000E+03 0.  0.
         25    1    1    2    0    0  0.92478436330E+02  0.10725808004E+03  0.12969182341E+02  0.18934031956E+03  0.12500000000E+03 0.  0.
         25    1    1    2    0    0  0.13893648023E+03 -0.65522025295E+02 -0.31200848834E+03  0.36955483779E+03  0.12500000000E+03 0.  0.
</event>
<event>
 5    0  0.5778875E-005  0.3879342E+03  0.7546771E-02  0.1048040E+00
         21   -1    0    0  502  501  0.00000000000E+00  0.00000000000E+00  0.28002090799E+03  0.28002090799E+03  0.00000000000E+00 0. -1.
         21   -1    0    0  501  502 -0.00000000000E+00 -0.00000000000E+00 -0.53743469790E+03  0.53743469790E+03  0.00000000000E+00 0. -1.
         25    1    1    2    0    0  0.12209725275E+03  0.12585697458E+03 -0.69779315023E+02  0.22636667154E+03  0.12500000000E+03 0.  0.
         25    1    1    2    0    0 -0.25143627124E+03  0.67779821618E+02 -0.50154900655E+02  0.29318051909E+03  0.12500000000E+03 0.  0.
         25    1    1    2    0    0  0.12933901850E+03 -0.19363679620E+03 -0.13747957423E+03  0.29790841525E+03  0.12500000000E+03 0.  0.
</event>
<event>
 5    0  0.5778875E-005  0.3311607E+03  0.7546771E-02  0.1070624E+00
         21   -1    0    0  502  501  0.00000000000E+00  0.00000000000E+00  0.51506226911E+03  0.51506226911E+03  0.00000000000E+00 0.  1.
         21   -1    0    0  501  502 -0.00000000000E+00 -0.00000000000E+00 -0.21292062598E+03  0.21292062598E+03  0.00000000000E+00 0.  1.
         25    1    1    2    0    0 -0.22020827252E+02  0.12735535124E+03  0.23237703061E+02  0.18129890558E+03  0.12500000000E+03 0.  0.
         25    1    1    2    0    0  0.20766423566E+02  0.75134445534E+02 -0.36316985715E+02  0.15172459492E+03  0.12500000000E+03 0.  0.
         25    1    1    2    0    0  0.12544036852E+01 -0.20248979677E+03  0.31522092578E+03  0.39495939459E+03  0.12500000000E+03 0.  0.
</event>
<event>
 5    0  0.5778875E-005  0.2203776E+03  0.7546771E-02  0.1133602E+00
         21   -1    0    0  502  501  0.00000000000E+00  0.00000000000E+00  0.12532912596E+04  0.12532912596E+04  0.00000000000E+00 0. -1.
         21   -1    0    0  501  502 -0.00000000000E+00 -0.00000000000E+00 -0.38750991893E+02  0.38750991893E+02  0.00000000000E+00 0. -1.
         25    1    1    2    0    0 -0.52306267805E+02  0.30273623847E+02  0.54494205829E+03  0.56235156694E+03  0.12500000000E+03 0.  0.
         25    1    1    2    0    0  0.36314385051E+02  0.17106270219E+02  0.47675316500E+03  0.49449968592E+03  0.12500000000E+03 0.  0.
         25    1    1    2    0    0  0.15991882753E+02 -0.47379894066E+02  0.19284504441E+03  0.23519099861E+03  0.12500000000E+03 0.  0.
</event>
<event>
 5    0  0.5778875E-005  0.4061947E+03  0.7546771E-02  0.1041656E+00
         21   -1    0    0  502  501  0.00000000000E+00  0.00000000000E+00  0.17626102125E+03  0.17626102125E+03  0.00000000000E+00 0. -1.
         21   -1    0    0  501  502 -0.00000000000E+00 -0.00000000000E+00 -0.93607817737E+03  0.93607817737E+03  0.00000000000E+00 0.  1.
         25    1    1    2    0    0 -0.33848404782E+02  0.77946392183E+02 -0.63659026134E+03  0.65428855667E+03  0.12500000000E+03 0.  0.
         25    1    1    2    0    0 -0.13057850449E+03  0.62239426740E+02 -0.62605115933E+02  0.20116881621E+03  0.12500000000E+03 0.  0.
         25    1    1    2    0    0  0.16442690927E+03 -0.14018581892E+03 -0.60621778852E+02  0.25688182573E+03  0.12500000000E+03 0.  0.
</event>
<event>
 5    0  0.5778875E-005  0.4027445E+03  0.7546771E-02  0.1042833E+00
         21   -1    0    0  502  501  0.00000000000E+00  0.00000000000E+00  0.35680093845E+03  0.35680093845E+03  0.00000000000E+00 0.  1.
         21   -1    0    0  501  502 -0.00000000000E+00 -0.00000000000E+00 -0.45460398969E+03  0.45460398969E+03  0.00000000000E+00 0.  1.
         25    1    1    2    0    0 -0.38765912853E+02 -0.10211267010E+03  0.26602063094E+02  0.16811443470E+03  0.12500000000E+03 0.  0.
         25    1    1    2    0    0  0.19327470592E+03  0.24593248711E+03 -0.19344836692E+03  0.38843940432E+03  0.12500000000E+03 0.  0.
         25    1    1    2    0    0 -0.15450879307E+03 -0.14381981701E+03  0.69043252578E+02  0.25485108912E+03  0.12500000000E+03 0.  0.
</event>
<event>
 5    0  0.5778875E-005  0.3831513E+03  0.7546771E-02  0.1049775E+00
         21   -1    0    0  502  501  0.00000000000E+00  0.00000000000E+00  0.27137024423E+04  0.27137024423E+04  0.00000000000E+00 0. -1.
         21   -1    0    0  501  502 -0.00000000000E+00 -0.00000000000E+00 -0.54097644593E+02  0.54097644593E+02  0.00000000000E+00 0. -1.
         25    1    1    2    0    0 -0.17728992433E+03  0.85253640269E+02  0.19078579465E+04  0.19220423628E+04  0.12500000000E+03 0.  0.
         25    1    1    2    0    0  0.58827869364E+02 -0.14195519825E+03  0.47794181025E+03  0.51736386665E+03  0.12500000000E+03 0.  0.
         25    1    1    2    0    0  0.11846205497E+03  0.56701557977E+02  0.27380504095E+03  0.32839385743E+03  0.12500000000E+03 0.  0.
</event>
<event>
 5    0  0.5778875E-005  0.3396766E+03  0.7546771E-02  0.1066934E+00
         21   -1    0    0  502  501  0.00000000000E+00  0.00000000000E+00  0.82128028258E+03  0.82128028258E+03  0.00000000000E+00 0.  1.
         21   -1    0    0  501  502 -0.00000000000E+00 -0.00000000000E+00 -0.14048824533E+03  0.14048824533E+03  0.00000000000E+00 0.  1.
         25    1    1    2    0    0 -0.39147475774E+02  0.76704536370E+02 -0.64459442593E+02  0.16491249346E+03  0.12500000000E+03 0.  0.
         25    1    1    2    0    0  0.59408270694E+02 -0.68056009551E+02  0.37612526405E+03  0.40651713041E+03  0.12500000000E+03 0.  0.
         25    1    1    2    0    0 -0.20260794920E+02 -0.86485268192E+01  0.36912621579E+03  0.39033890404E+03  0.12500000000E+03 0.  0.
</event>
<event>
 5    0  0.5778875E-005  0.2951053E+03  0.7546771E-02  0.1087713E+00
         21   -1    0    0  502  501  0.00000000000E+00  0.00000000000E+00  0.10913867053E+03  0.10913867053E+03  0.00000000000E+00 0. -1.
         21   -1    0    0  501  502 -0.00000000000E+00 -0.00000000000E+00 -0.79794959263E+03  0.79794959263E+03  0.00000000000E+00 0. -1.
         25    1    1    2    0    0  0.19054567070E+02 -0.75313690786E+02 -0.54508407559E+02  0.15694392324E+03  0.12500000000E+03 0.  0.
         25    1    1    2    0    0  0.12652489393E+03 -0.31228897057E+02 -0.30338479180E+03  0.35305966166E+03  0.12500000000E+03 0.  0.
         25    1    1    2    0    0 -0.14557946100E+03  0.10654258784E+03 -0.33091772274E+03  0.39708467826E+03  0.12500000000E+03 0.  0.
</event>
<event>
 5    0  0.9175126E-005  0.5921159E+03  0.7546771E-02  0.9921899E-01
         21   -1    0    0  502  501  0.00000000000E+00  0.00000000000E+00  0.84765683184E+03  0.84765683184E+03  0.00000000000E+00 0.  1.
         21   -1    0    0  501  502 -0.00000000000E+00 -0.00000000000E+00 -0.41361220547E+03  0.41361220547E+03  0.00000000000E+00 0.  1.
         25    1    1    2    0    0  0.25677723440E+03 -0.25925133829E+03  0.19203305492E+03  0.43086830783E+03  0.12500000000E+03 0.  0.
         25    1    1    2    0    0 -0.89962110038E+02 -0.48396105684E+02 -0.19734317393E+03  0.25496017843E+03  0.12500000000E+03 0.  0.
         25    1    1    2    0    0 -0.16681512437E+03  0.30764744397E+03  0.43935474538E+03  0.57544055105E+03  0.12500000000E+03 0.  0.
</event>
<event>
 5    0  0.6098072E-005  0.2848886E+03  0.7546771E-02  0.1093048E+00
         21   -1    0    0  502  501  0.00000000000E+00  0.00000000000E+00  0.16025891353E+03  0.16025891353E+03  0.00000000000E+00 0. -1.
         21   -1    0    0  501  502 -0.00000000000E+00 -0.00000000000E+00 -0.50644000124E+03  0.50644000124E+03  0.00000000000E+00 0. -1.
         25    1    1    2    0    0  0.73017824510E+02 -0.33045075188E+02 -0.52778202295E+01  0.14858140892E+03  0.12500000000E+03 0.  0.
         25    1    1    2    0    0 -0.12478894663E+03 -0.73153791661E+02 -0.83684734117E+02  0.20869090340E+03  0.12500000000E+03 0.  0.
         25    1    1    2    0    0  0.51771122121E+02  0.10619886685E+03 -0.25721853336E+03  0.30942660246E+03  0.12500000000E+03 0.  0.
</event>
<event>
 5    0  0.5778875E-005  0.2853084E+03  0.7546771E-02  0.1092824E+00
         21   -1    0    0  502  501  0.00000000000E+00  0.00000000000E+00  0.81033435843E+03  0.81033435843E+03  0.00000000000E+00 0.  1.
         21   -1    0    0  501  502 -0.00000000000E+00 -0.00000000000E+00 -0.10045346954E+03  0.10045346954E+03  0.00000000000E+00 0.  1.
         25    1    1    2    0    0  0.22032017638E+02  0.26117919905E+02  0.59652008370E+02  0.14265664248E+03  0.12500000000E+03 0.  0.
         25    1    1    2    0    0  0.13237054123E+03  0.56294002150E+02  0.25722963907E+03  0.32012975819E+03  0.12500000000E+03 0.  0.
         25    1    1    2    0    0 -0.15440255886E+03 -0.82411922055E+02  0.39299924146E+03  0.44800142730E+03  0.12500000000E+03 0.  0.
</event>
<event>
 5    0  0.5778875E-005  0.5330409E+03  0.7546771E-02  0.1005497E+00
         21   -1    0    0  502  501  0.00000000000E+00  0.00000000000E+00  0.49119440639E+03  0.49119440639E+03  0.00000000000E+00 0. -1.
         21   -1    0    0  501  502 -0.00000000000E+00 -0.00000000000E+00 -0.57845246550E+03  0.57845246550E+03  0.00000000000E+00 0. -1.
         25    1    1    2    0    0 -0.21579915806E+02 -0.91743364375E+02  0.13225206927E+03  0.20493449563E+03  0.12500000000E+03 0.  0.
         25    1    1    2    0    0 -0.16642952468E+03  0.16414066228E+03  0.23359976455E+03  0.35331967635E+03  0.12500000000E+03 0.  0.
         25    1    1    2    0    0  0.18800944049E+03 -0.72397297905E+02 -0.45310989292E+03  0.51139269991E+03  0.12500000000E+03 0.  0.
</event>
<event>
 5    0  0.5778875E-005  0.5750051E+03  0.7546771E-02  0.9958664E-01
         21   -1    0    0  502  501  0.00000000000E+00  0.00000000000E+00  0.30092468862E+03  0.30092468862E+03  0.00000000000E+00 0. -1.
         21   -1    0    0  501  502 -0.00000000000E+00 -0.00000000000E+00 -0.10987162066E+04  0.10987162066E+04  0.00000000000E+00 0. -1.
         25    1    1    2    0    0  0.43981772754E+02  0.35586839570E+03 -0.89905783604E+02  0.39023680160E+03  0.12500000000E+03 0.  0.
         25    1    1    2    0    0 -0.28631115470E+03 -0.12814580452E+03 -0.20955881615E+03  0.39741077231E+03  0.12500000000E+03 0.  0.
         25    1    1    2    0    0  0.24232938195E+03 -0.22772259118E+03 -0.49832691818E+03  0.61199332127E+03  0.12500000000E+03 0.  0.
</event>
<event>
 5    0  0.5778875E-005  0.4210090E+03  0.7546771E-02  0.1036738E+00
         21   -1    0    0  502  501  0.00000000000E+00  0.00000000000E+00  0.34300664714E+03  0.34300664714E+03  0.00000000000E+00 0.  1.
         21   -1    0    0  501  502 -0.00000000000E+00 -0.00000000000E+00 -0.51674956604E+03  0.51674956604E+03  0.00000000000E+00 0.  1.
         25    1    1    2    0    0 -0.24632858126E+03  0.42972945407E+02 -0.60062613558E+02  0.28593174278E+03  0.12500000000E+03 0.  0.
         25    1    1    2    0    0  0.26181764020E+03  0.43218039301E+02 -0.23739637404E+03  0.37735701140E+03  0.12500000000E+03 0.  0.
         25    1    1    2    0    0 -0.15489058946E+02 -0.86190984708E+02  0.12371606870E+03  0.19646745900E+03  0.12500000000E+03 0.  0.
</event>
<event>
 5    0  0.5778875E-005  0.2708954E+03  0.7546771E-02  0.1100768E+00
         21   -1    0    0  502  501  0.00000000000E+00  0.00000000000E+00  0.90386995915E+02  0.90386995915E+02  0.00000000000E+00 0.  1.
         21   -1    0    0  501  502 -0.00000000000E+00 -0.00000000000E+00 -0.81189016509E+03  0.81189016509E+03  0.00000000000E+00 0.  1.
         25    1    1    2    0    0 -0.10222734638E+03 -0.19213512064E+02 -0.54005386936E+03  0.56400600280E+03  0.12500000000E+03 0.  0.
         25    1    1    2    0    0  0.30759623816E+02 -0.30421953272E+02 -0.70919997501E+02  0.15008762688E+03  0.12500000000E+03 0.  0.
         25    1    1    2    0    0  0.71467722562E+02  0.49635465336E+02 -0.11052930232E+03  0.18818353131E+03  0.12500000000E+03 0.  0.
</event>
<event>
 5    0  0.5778875E-005  0.4374943E+03  0.7546771E-02  0.1031518E+00
         21   -1    0    0  502  501  0.00000000000E+00  0.00000000000E+00  0.47171654607E+03  0.47171654607E+03  0.00000000000E+00 0. -1.
         21   -1    0    0  501  502 -0.00000000000E+00 -0.00000000000E+00 -0.40575483715E+03  0.40575483715E+03  0.00000000000E+00 0. -1.
         25    1    1    2    0    0  0.12189808888E+03  0.99859603191E+02 -0.26526511024E+03  0.33289887823E+03  0.12500000000E+03 0.  0.
         25    1    1    2    0    0 -0.17815258454E+03 -0.14355076477E+03  0.29981241589E+03  0.39731303800E+03  0.12500000000E+03 0.  0.
         25    1    1    2    0    0  0.56254495664E+02  0.43691161579E+02  0.31414403261E+02  0.14725946698E+03  0.12500000000E+03 0.  0.
</event>
<event>
 5    0  0.5778875E-005  0.3833546E+03  0.7546771E-02  0.1049701E+00
         21   -1    0    0  502  501  0.00000000000E+00  0.00000000000E+00  0.31206141741E+03  0.31206141741E+03  0.00000000000E+00 0. -1.
         21   -1    0    0  501  502 -0.00000000000E+00 -0.00000000000E+00 -0.47093522191E+03  0.47093522191E+03  0.00000000000E+00 0. -1.
         25    1    1    2    0    0 -0.11385731892E+03  0.29699388718E+02 -0.15964825007E+03  0.23443145376E+03  0.12500000000E+03 0.  0.
         25    1    1    2    0    0  0.59637907885E+02 -0.17549214780E+03  0.17480461471E+03  0.28378834952E+03  0.12500000000E+03 0.  0.
         25    1    1    2    0    0  0.54219411033E+02  0.14579275908E+03 -0.17403016915E+03  0.26477683605E+03  0.12500000000E+03 0.  0.
</event>
<event>
 5    0  0.5778875E-005  0.4530757E+03  0.7546771E-02  0.1026809E+00
         21   -1    0    0  502  501  0.00000000000E+00  0.00000000000E+00  0.49736035954E+03  0.49736035954E+03  0.00000000000E+00 0. -1.
         21   -1    0    0  501  502 -0.00000000000E+00 -0.00000000000E+00 -0.41273402974E+03  0.41273402974E+03  0.00000000000E+00 0. -1.
         25    1    1    2    0    0 -0.20263844153E+03 -0.14710931304E+03 -0.21279433188E+03  0.35158201838E+03  0.12500000000E+03 0.  0.
         25    1    1    2    0    0  0.34154691377E+02  0.85589280851E+02  0.30227528865E+03  0.33983439800E+03  0.12500000000E+03 0.  0.
         25    1    1    2    0    0  0.16848375015E+03  0.61520032187E+02 -0.48546269630E+01  0.21867797289E+03  0.12500000000E+03 0.  0.
</event>
<event>
 5    0  0.5778875E-005  0.2743606E+03  0.7546771E-02  0.1098810E+00
         21   -1    0    0  502  501  0.00000000000E+00  0.00000000000E+00  0.18028139076E+03  0.18028139076E+03  0.00000000000E+00 0.  1.
         21   -1    0    0  501  502 -0.00000000000E+00 -0.00000000000E+00 -0.41753465186E+03  0.41753465186E+03  0.00000000000E+00 0.  1.
         25    1    1    2    0    0 -0.19367607213E+02 -0.41371155842E+02 -0.11245251226E+03  0.17423330410E+03  0.12500000000E+03 0.  0.
         25    1    1    2    0    0 -0.55224128567E+01 -0.13668903402E+03 -0.67668973909E+02  0.19727767004E+03  0.12500000000E+03 0.  0.
         25    1    1    2    0    0  0.24890020070E+02  0.17806018986E+03 -0.57131774930E+02  0.22630506848E+03  0.12500000000E+03 0.  0.
</event>
<event>
 5    0  0.5778875E-005  0.3973795E+03  0.7546771E-02  0.1044691E+00
         21   -1    0    0  502  501  0.00000000000E+00  0.00000000000E+00  0.19143616157E+04  0.19143616157E+04  0.00000000000E+00 0.  1.
         21   -1    0    0  501  502 -0.00000000000E+00 -0.00000000000E+00 -0.82487282101E+02  0.82487282101E+02  0.00000000000E+00 0.  1.
         25    1    1    2    0    0  0.88373436060E+01  0.16841964507E+03  0.10299874544E+04  0.10511624193E+04  0.12500000000E+03 0.  0.
         25    1    1    2    0    0 -0.90333304552E+02  0.42641506926E+02  0.59043422918E+03  0.61173195356E+03  0.12500000000E+03 0.  0.
         25    1    1    2    0    0  0.81495960946E+02 -0.21106115199E+03  0.21145264998E+03  0.33395452492E+03  0.12500000000E+03 0.  0.
</event>
<event>
 5    0  0.5778875E-005  0.2697675E+03  0.7546771E-02  0.1101413E+00
         21   -1    0    0  502  501  0.00000000000E+00  0.00000000000E+00  0.89506057651E+02  0.89506057651E+02  0.00000000000E+00 0. -1.
         21   -1    0    0  501  502 -0.00000000000E+00 -0.00000000000E+00 -0.81306776022E+03  0.81306776022E+03  0.00000000000E+00 0. -1.
         25    1    1    2    0    0  0.58354275744E+01  0.90515737891E+02 -0.65864550630E+02  0.16789964279E+03  0.12500000000E+03 0.  0.
         25    1    1    2    0    0  0.44387017399E+02 -0.11644355933E+03 -0.47106372061E+03  0.50304606022E+03  0.12500000000E+03 0.  0.
         25    1    1    2    0    0 -0.50222444974E+02  0.25927821439E+02 -0.18663343132E+03  0.23162811485E+03  0.12500000000E+03 0.  0.
</event>
<event>
 5    0  0.5778875E-005  0.2247700E+03  0.7546771E-02  0.1130376E+00
         21   -1    0    0  502  501  0.00000000000E+00  0.00000000000E+00  0.79403542807E+03  0.79403542807E+03  0.00000000000E+00 0.  1.
         21   -1    0    0  501  502 -0.00000000000E+00 -0.00000000000E+00 -0.63626335417E+02  0.63626335417E+02  0.00000000000E+00 0.  1.
         25    1    1    2    0    0 -0.84680432041E+02  0.48945321118E+02  0.23313631630E+03  0.28203539141E+03  0.12500000000E+03 0.  0.
         25    1    1    2    0    0  0.93149431263E+02 -0.40145049045E+01  0.24558922304E+03  0.29091579412E+03  0.12500000000E+03 0.  0.
         25    1    1    2    0    0 -0.84689992221E+01 -0.44930816214E+02  0.25168355332E+03  0.28471057797E+03  0.12500000000E+03 0.  0.
</event>
<event>
 5    0  0.5778875E-005  0.3510664E+03  0.7546771E-02  0.1062178E+00
         21   -1    0    0  502  501  0.00000000000E+00  0.00000000000E+00  0.37529220622E+02  0.37529220622E+02  0.00000000000E+00 0.  1.
         21   -1    0    0  501  502 -0.00000000000E+00 -0.00000000000E+00 -0.32840442047E+04  0.32840442047E+04  0.00000000000E+00 0.  1.
         25    1    1    2    0    0 -0.41459686298E+02  0.16371861593E+03 -0.66725545521E+03  0.69955523963E+03  0.12500000000E+03 0.  0.
         25    1    1    2    0    0 -0.14187976074E+03 -0.10894853303E+03 -0.16823646142E+04  0.16964596501E+04  0.12500000000E+03 0.  0.
         25    1    1    2    0    0  0.18333944704E+03 -0.54770082903E+02 -0.89689491472E+03  0.92555853563E+03  0.12500000000E+03 0.  0.
</event>
<event>
 5    0  0.5808440E-005  0.5076954E+03  0.7546771E-02  0.1011790E+00
         21   -1    0    0  502  501  0.00000000000E+00  0.00000000000E+00  0.33691565375E+03  0.33691565375E+03  0.00000000000E+00 0. -1.
         21   -1    0    0  501  502 -0.00000000000E+00 -0.00000000000E+00 -0.76504191552E+03  0.76504191552E+03  0.00000000000E+00 0. -1.
         25    1    1    2    0    0  0.17647825440E+03  0.17326995584E+03 -0.32795803231E+03  0.42935826862E+03  0.12500000000E+03 0.  0.
         25    1    1    2    0    0 -0.29793728145E+03 -0.20851665268E+03 -0.23391415954E+03  0.45009626988E+03  0.12500000000E+03 0.  0.
         25    1    1    2    0    0  0.12145902705E+03  0.35246696841E+02  0.13374593009E+03  0.22250303078E+03  0.12500000000E+03 0.  0.
</event>
<event>
 5    0  0.5778875E-005  0.2095721E+03  0.7546771E-02  0.1141905E+00
         21   -1    0    0  502  501  0.00000000000E+00  0.00000000000E+00  0.12831472236E+03  0.12831472236E+03  0.00000000000E+00 0.  1.
         21   -1    0    0  501  502 -0.00000000000E+00 -0.00000000000E+00 -0.34228711370E+03  0.34228711370E+03  0.00000000000E+00 0.  1.
         25    1    1    2    0    0  0.62614434031E+01  0.10059006957E+01 -0.13726928699E+03  0.18576349120E+03  0.12500000000E+03 0.  0.
         25    1    1    2    0    0 -0.64517000635E+01 -0.87966199346E+01 -0.96171399994E+02  0.15809156566E+03  0.12500000000E+03 0.  0.
         25    1    1    2    0    0  0.19025666038E+00  0.77907192389E+01  0.19468295651E+02  0.12674677921E+03  0.12500000000E+03 0.  0.
</event>
<event>
 5    0  0.5778875E-005  0.4393693E+03  0.7546771E-02  0.1030941E+00
         21   -1    0    0  502  501  0.00000000000E+00  0.00000000000E+00  0.31568164354E+03  0.31568164354E+03  0.00000000000E+00 0. -1.
         21   -1    0    0  501  502 -0.00000000000E+00 -0.00000000000E+00 -0.61151905838E+03  0.61151905838E+03  0.00000000000E+00 0. -1.
         25    1    1    2    0    0  0.14272029971E+02 -0.35763631649E+03  0.28030018224E+02  0.38015537302E+03  0.12500000000E+03 0.  0.
         25    1    1    2    0    0 -0.21245967242E+02  0.21344267313E+03 -0.15945488940E+03  0.29505936283E+03  0.12500000000E+03 0.  0.
         25    1    1    2    0    0  0.69739372711E+01  0.14419364336E+03 -0.16441254366E+03  0.25198596607E+03  0.12500000000E+03 0.  0.
</event>
<event>
 5    0  0.5778875E-005  0.3700665E+03  0.7546771E-02  0.1054668E+00
         21   -1    0    0  502  501  0.00000000000E+00  0.00000000000E+00  0.43145216784E+03  0.43145216784E+03  0.00000000000E+00 0. -1.
         21   -1    0    0  501  502 -0.00000000000E+00 -0.00000000000E+00 -0.31741465960E+03  0.31741465960E+03  0.00000000000E+00 0. -1.
         25    1    1    2    0    0  0.54087693023E+02  0.50573991713E+02  0.31130636200E+03  0.34354018425E+03  0.12500000000E+03 0.  0.
         25    1    1    2    0    0 -0.70650493323E+02  0.17263140632E+02  0.19097648144E+02  0.14587401549E+03  0.12500000000E+03 0.  0.
         25    1    1    2    0    0  0.16562800300E+02 -0.67837132345E+02 -0.21636650190E+03  0.25945262771E+03  0.12500000000E+03 0.  0.
</event>
<event>
 5    0  0.5778875E-005  0.3611282E+03  0.7546771E-02  0.1058138E+00
         21   -1    0    0  502  501  0.00000000000E+00  0.00000000000E+00  0.25549064209E+03  0.25549064209E+03  0.00000000000E+00 0. -1.
         21   -1    0    0  501  502 -0.00000000000E+00 -0.00000000000E+00 -0.51044373854E+03  0.51044373854E+03  0.00000000000E+00 0. -1.
         25    1    1    2    0    0 -0.16674530449E+03  0.80585512240E+02 -0.17289956318E+03  0.28251952198E+03  0.12500000000E+03 0.  0.
         25    1    1    2    0    0  0.42777332017E+02 -0.50985048729E+01 -0.21348424065E+03  0.25111036596E+03  0.12500000000E+03 0.  0.
         25    1    1    2    0    0  0.12396797247E+03 -0.75487007367E+02  0.13143070738E+03  0.23230449269E+03  0.12500000000E+03 0.  0.
</event>
<event>
 5    0  0.5778875E-005  0.2555560E+03  0.7546771E-02  0.1109843E+00
         21   -1    0    0  502  501  0.00000000000E+00  0.00000000000E+00  0.30427896466E+03  0.30427896466E+03  0.00000000000E+00 0.  1.
         21   -1    0    0  501  502 -0.00000000000E+00 -0.00000000000E+00 -0.21463483575E+03  0.21463483575E+03  0.00000000000E+00 0.  1.
         25    1    1    2    0    0 -0.51262102374E+02  0.16576819025E+02  0.12304326873E+03  0.18348634840E+03  0.12500000000E+03 0.  0.
         25    1    1    2    0    0  0.54833315047E+02 -0.18298441454E+02  0.86126916812E+02  0.16243266666E+03  0.12500000000E+03 0.  0.
         25    1    1    2    0    0 -0.35712126728E+01  0.17216224285E+01 -0.11952605664E+03  0.17299478535E+03  0.12500000000E+03 0.  0.
</event>
<event>
 5    0  0.5778875E-005  0.3997560E+03  0.7546771E-02  0.1043864E+00
         21   -1    0    0  502  501  0.00000000000E+00  0.00000000000E+00  0.52785926291E+03  0.52785926291E+03  0.00000000000E+00 0.  1.
         21   -1    0    0  501  502 -0.00000000000E+00 -0.00000000000E+00 -0.30274145858E+03  0.30274145858E+03  0.00000000000E+00 0.  1.
         25    1    1    2    0    0  0.74365733513E+02 -0.11513086934E+03  0.31546657690E+02  0.18816368142E+03  0.12500000000E+03 0.  0.
         25    1    1    2    0    0  0.16430727581E+03  0.86927386375E+02 -0.97946403565E+02  0.24448261566E+03  0.12500000000E+03 0.  0.
         25    1    1    2    0    0 -0.23867300933E+03  0.28203482962E+02  0.29151755020E+03  0.39795442441E+03  0.12500000000E+03 0.  0.
</event>
<event>
 5    0  0.5778875E-005  0.3303514E+03  0.7546771E-02  0.1070981E+00
         21   -1    0    0  502  501  0.00000000000E+00  0.00000000000E+00  0.74230964151E+03  0.74230964151E+03  0.00000000000E+00 0.  1.
         21   -1    0    0  501  502 -0.00000000000E+00 -0.00000000000E+00 -0.14701690335E+03  0.14701690335E+03  0.00000000000E+00 0.  1.
         25    1    1    2    0    0 -0.75276474508E+02  0.14590535585E+03  0.34371979439E+03  0.40090300265E+03  0.12500000000E+03 0.  0.
         25    1    1    2    0    0  0.10187099689E+03 -0.21857073152E+03  0.16084256661E+03  0.31566785697E+03  0.12500000000E+03 0.  0.
         25    1    1    2    0    0 -0.26594522387E+02  0.72665375678E+02  0.90730377157E+02  0.17275568524E+03  0.12500000000E+03 0.  0.
</event>
<event>
 5    0  0.5778875E-005  0.2801692E+03  0.7546771E-02  0.1095597E+00
         21   -1    0    0  502  501  0.00000000000E+00  0.00000000000E+00  0.84452386686E+03  0.84452386686E+03  0.00000000000E+00 0.  1.
         21   -1    0    0  501  502 -0.00000000000E+00 -0.00000000000E+00 -0.92945580354E+02  0.92945580354E+02  0.00000000000E+00 0.  1.
         25    1    1    2    0    0  0.38919957297E+01 -0.58590175490E+02  0.40186962959E+03  0.42493782543E+03  0.12500000000E+03 0.  0.
         25    1    1    2    0    0  0.48898215115E+02 -0.98859916634E+02  0.16254255343E+03  0.23282912239E+03  0.12500000000E+03 0.  0.
         25    1    1    2    0    0 -0.52790210845E+02  0.15745009212E+03  0.18716610348E+03  0.27970249939E+03  0.12500000000E+03 0.  0.
</event>
<event>
 5    0  0.5778875E-005  0.2770019E+03  0.7546771E-02  0.1097338E+00
         21   -1    0    0  502  501  0.00000000000E+00  0.00000000000E+00  0.31675919976E+03  0.31675919976E+03  0.00000000000E+00 0.  1.
         21   -1    0    0  501  502 -0.00000000000E+00 -0.00000000000E+00 -0.24223465015E+03  0.24223465015E+03  0.00000000000E+00 0.  1.
         25    1    1    2    0    0  0.21765166470E+02  0.18065059636E+03 -0.25085732844E+01  0.22077058992E+03  0.12500000000E+03 0.  0.
         25    1    1    2    0    0  0.13725193340E+01 -0.15532172164E+03  0.54102348687E+02  0.20658844391E+03  0.12500000000E+03 0.  0.
         25    1    1    2    0    0 -0.23137685804E+02 -0.25328874719E+02  0.22930774208E+02  0.13163481608E+03  0.12500000000E+03 0.  0.
</event>
<event>
 5    0  0.5778875E-005  0.3487567E+03  0.7546771E-02  0.1063126E+00
         21   -1    0    0  502  501  0.00000000000E+00  0.00000000000E+00  0.67576664081E+03  0.67576664081E+03  0.00000000000E+00 0. -1.
         21   -1    0    0  501  502 -0.00000000000E+00 -0.00000000000E+00 -0.17999003266E+03  0.17999003266E+03  0.00000000000E+00 0. -1.
         25    1    1    2    0    0  0.21606652054E+01 -0.11563876983E+03  0.11864849682E+03  0.20755591863E+03  0.12500000000E+03 0.  0.
         25    1    1    2    0    0  0.16856598424E+03  0.20729960487E+03  0.18628984693E+03  0.34887895364E+03  0.12500000000E+03 0.  0.
         25    1    1    2    0    0 -0.17072664945E+03 -0.91660835037E+02  0.19083826441E+03  0.29932180120E+03  0.12500000000E+03 0.  0.
</event>
<event>
 5    0  0.5778875E-005  0.2513795E+03  0.7546771E-02  0.1112436E+00
         21   -1    0    0  502  501  0.00000000000E+00  0.00000000000E+00  0.20262410600E+03  0.20262410600E+03  0.00000000000E+00 0. -1.
         21   -1    0    0  501  502 -0.00000000000E+00 -0.00000000000E+00 -0.31186633960E+03  0.31186633960E+03  0.00000000000E+00 0. -1.
         25    1    1    2    0    0 -0.15129649715E+02  0.29585119747E+02  0.28687180626E+02  0.13248448944E+03  0.12500000000E+03 0.  0.
         25    1    1    2    0    0  0.25356397419E+02 -0.21394272029E+02 -0.20283059891E+03  0.24055334880E+03  0.12500000000E+03 0.  0.
         25    1    1    2    0    0 -0.10226747704E+02 -0.81908477178E+01  0.64901184680E+02  0.14145260736E+03  0.12500000000E+03 0.  0.
</event>
<event>
 5    0  0.5778875E-005  0.3191650E+03  0.7546771E-02  0.1076034E+00
         21   -1    0    0  502  501  0.00000000000E+00  0.00000000000E+00  0.25110690104E+04  0.25110690104E+04  0.00000000000E+00 0.  1.
         21   -1    0    0  501  502 -0.00000000000E+00 -0.00000000000E+00 -0.40566915807E+02  0.40566915807E+02  0.00000000000E+00 0.  1.
         25    1    1    2    0    0  0.15028743959E+03 -0.14239216988E+03  0.11754235564E+04  0.12000447415E+04  0.12500000000E+03 0.  0.
         25    1    1    2    0    0 -0.52286151598E+02 -0.43065021182E+02  0.44766142295E+03  0.46969584551E+03  0.12500000000E+03 0.  0.
         25    1    1    2    0    0 -0.98001287989E+02  0.18545719106E+03  0.84741711518E+03  0.88189533918E+03  0.12500000000E+03 0.  0.
</event>
<event>
 5    0  0.5778875E-005  0.2371490E+03  0.7546771E-02  0.1121707E+00
         21   -1    0    0  502  501  0.00000000000E+00  0.00000000000E+00  0.14726181231E+03  0.14726181231E+03  0.00000000000E+00 0.  1.
         21   -1    0    0  501  502 -0.00000000000E+00 -0.00000000000E+00 -0.38190260389E+03  0.38190260389E+03  0.00000000000E+00 0.  1.
         25    1    1    2    0    0  0.10170303716E+03 -0.26917653162E+02 -0.17675368826E+03  0.24069676802E+03  0.12500000000E+03 0.  0.
         25    1    1    2    0    0 -0.87606592851E+01  0.71135222356E+01 -0.28925148694E+02  0.12879835238E+03  0.12500000000E+03 0.  0.
         25    1    1    2    0    0 -0.92942377879E+02  0.19804130927E+02 -0.28961954627E+02  0.15966929581E+03  0.12500000000E+03 0.  0.
</event>
<event>
 5    0  0.5778875E-005  0.3229681E+03  0.7546771E-02  0.1074291E+00
         21   -1    0    0  502  501  0.00000000000E+00  0.00000000000E+00  0.39390852341E+03  0.39390852341E+03  0.00000000000E+00 0. -1.
         21   -1    0    0  501  502 -0.00000000000E+00 -0.00000000000E+00 -0.26480362631E+03  0.26480362631E+03  0.00000000000E+00 0. -1.
         25    1    1    2    0    0  0.33431949723E+02  0.30319763776E+02 -0.57323300655E+02  0.14473404622E+03  0.12500000000E+03 0.  0.
         25    1    1    2    0    0 -0.62092909192E+02 -0.20277863563E+03  0.29636244151E+02  0.24794759811E+03  0.12500000000E+03 0.  0.
         25    1    1    2    0    0  0.28660959468E+02  0.17245887186E+03  0.15679195361E+03  0.26603050539E+03  0.12500000000E+03 0.  0.
</event>
<event>
 5    0  0.5778875E-005  0.2493072E+03  0.7546771E-02  0.1113743E+00
         21   -1    0    0  502  501  0.00000000000E+00  0.00000000000E+00  0.25127169398E+03  0.25127169398E+03  0.00000000000E+00 0. -1.
         21   -1    0    0  501  502 -0.00000000000E+00 -0.00000000000E+00 -0.24735798828E+03  0.24735798828E+03  0.00000000000E+00 0. -1.
         25    1    1    2    0    0  0.74638146885E+02  0.15143147382E+02 -0.98726890386E+02  0.17655641243E+03  0.12500000000E+03 0.  0.
         25    1    1    2    0    0 -0.32420988798E+02  0.51058361581E+02  0.10555969598E+03  0.17443029042E+03  0.12500000000E+03 0.  0.
         25    1    1    2    0    0 -0.42217158087E+02 -0.66201508963E+02 -0.29190998924E+01  0.14764297941E+03  0.12500000000E+03 0.  0.
</event>
<event>
 5    0  0.5778875E-005  0.3356879E+03  0.7546771E-02  0.1068648E+00
         21   -1    0    0  502  501  0.00000000000E+00  0.00000000000E+00  0.23980712230E+03  0.23980712230E+03  0.00000000000E+00 0.  1.
         21   -1    0    0  501  502 -0.00000000000E+00 -0.00000000000E+00 -0.46990422258E+03  0.46990422258E+03  0.00000000000E+00 0.  1.
         25    1    1    2    0    0  0.17312035429E+03  0.73153584582E+02 -0.15174955068E+03  0.27198351078E+03  0.12500000000E+03 0.  0.
         25    1    1    2    0    0 -0.11512738971E+03  0.99880981008E+02 -0.88985496940E+02  0.21627284826E+03  0.12500000000E+03 0.  0.
         25    1    1    2    0    0 -0.57992964582E+02 -0.17303456559E+03  0.10637947342E+02  0.22145498584E+03  0.12500000000E+03 0.  0.
</event>
<event>
 5    0  0.5778875E-005  0.2218498E+03  0.7546771E-02  0.1132511E+00
         21   -1    0    0  502  501  0.00000000000E+00  0.00000000000E+00  0.60093629606E+02  0.60093629606E+02  0.00000000000E+00 0. -1.
         21   -1    0    0  501  502 -0.00000000000E+00 -0.00000000000E+00 -0.81901058402E+03  0.81901058402E+03  0.00000000000E+00 0. -1.
         25    1    1    2    0    0  0.21217912553E+02  0.67413665810E+02 -0.21543047335E+03  0.25890170142E+03  0.12500000000E+03 0.  0.
         25    1    1    2    0    0 -0.79596285291E+02 -0.13156244102E+02 -0.30589533337E+03  0.34015527391E+03  0.12500000000E+03 0.  0.
         25    1    1    2    0    0  0.58378372738E+02 -0.54257421708E+02 -0.23759114769E+03  0.28004723829E+03  0.12500000000E+03 0.  0.
</event>
<event>
 5    0  0.5778875E-005  0.3857042E+03  0.7546771E-02  0.1048845E+00
         21   -1    0    0  502  501  0.00000000000E+00  0.00000000000E+00  0.93996799431E+03  0.93996799431E+03  0.00000000000E+00 0. -1.
         21   -1    0    0  501  502 -0.00000000000E+00 -0.00000000000E+00 -0.15826893209E+03  0.15826893209E+03  0.00000000000E+00 0. -1.
         25    1    1    2    0    0  0.41703619854E+02 -0.19958820454E+03  0.61634910613E+02  0.24697875517E+03  0.12500000000E+03 0.  0.
         25    1    1    2    0    0 -0.36684316431E+02  0.18475203053E+03  0.15938401623E+03  0.27659955981E+03  0.12500000000E+03 0.  0.
         25    1    1    2    0    0 -0.50193034237E+01  0.14836174009E+02  0.56068013537E+03  0.57465861141E+03  0.12500000000E+03 0.  0.
</event>
<event>
 5    0  0.5778875E-005  0.3828342E+03  0.7546771E-02  0.1049891E+00
         21   -1    0    0  502  501  0.00000000000E+00  0.00000000000E+00  0.75969321604E+03  0.75969321604E+03  0.00000000000E+00 0. -1.
         21   -1    0    0  501  502 -0.00000000000E+00 -0.00000000000E+00 -0.19292267333E+03  0.19292267333E+03  0.00000000000E+00 0. -1.
         25    1    1    2    0    0 -0.14922959372E+03 -0.58248690097E+02  0.67389375060E+02  0.21407641022E+03  0.12500000000E+03 0.  0.
         25    1    1    2    0    0  0.23068863612E+03  0.11177668974E+03  0.50495810177E+03  0.57993013350E+03  0.12500000000E+03 0.  0.
         25    1    1    2    0    0 -0.81459042399E+02 -0.53527999643E+02 -0.55769341088E+01  0.15860934565E+03  0.12500000000E+03 0.  0.
</event>
<event>
 5    0  0.5778875E-005  0.3145197E+03  0.7546771E-02  0.1078200E+00
         21   -1    0    0  502  501  0.00000000000E+00  0.00000000000E+00  0.20982891218E+03  0.20982891218E+03  0.00000000000E+00 0. -1.
         21   -1    0    0  501  502 -0.00000000000E+00 -0.00000000000E+00 -0.47144423623E+03  0.47144423623E+03  0.00000000000E+00 0. -1.
         25    1    1    2    0    0 -0.17852895673E+03 -0.33777952876E+02 -0.24303383925E+02  0.22187652639E+03  0.12500000000E+03 0.  0.
         25    1    1    2    0    0  0.29642986585E+01  0.63030135375E+02 -0.35009210737E+01  0.14006727484E+03  0.12500000000E+03 0.  0.
         25    1    1    2    0    0  0.17556465807E+03 -0.29252182499E+02 -0.23381101905E+03  0.31932934718E+03  0.12500000000E+03 0.  0.
</event>
<event>
 5    0  0.6001177E-005  0.2989740E+03  0.7546771E-02  0.1085755E+00
         21   -1    0    0  502  501  0.00000000000E+00  0.00000000000E+00  0.38792051175E+03  0.38792051175E+03  0.00000000000E+00 0. -1.
         21   -1    0    0  501  502 -0.00000000000E+00 -0.00000000000E+00 -0.23042206287E+03  0.23042206287E+03  0.00000000000E+00 0. -1.
         25    1    1    2    0    0  0.18445151550E+03 -0.69551912108E+02  0.12026381697E+02  0.23372946735E+03  0.12500000000E+03 0.  0.
         25    1    1    2    0    0 -0.66204329157E+02  0.44059019245E+02  0.14969869926E+03  0.21061555246E+03  0.12500000000E+03 0.  0.
         25    1    1    2    0    0 -0.11824718634E+03  0.25492892863E+02 -0.42266320752E+01  0.17399755482E+03  0.12500000000E+03 0.  0.
</event>
<event>
 5    0  0.5778875E-005  0.3922208E+03  0.7546771E-02  0.1046507E+00
         21   -1    0    0  502  501  0.00000000000E+00  0.00000000000E+00  0.10892411705E+03  0.10892411705E+03  0.00000000000E+00 0. -1.
         21   -1    0    0  501  502 -0.00000000000E+00 -0.00000000000E+00 -0.14123334355E+04  0.14123334355E+04  0.00000000000E+00 0. -1.
         25    1    1    2    0    0  0.13660144105E+03 -0.18508455774E+03 -0.36251727772E+03  0.44716889858E+03  0.12500000000E+03 0.  0.
         25    1    1    2    0    0 -0.12128567389E+03 -0.46544415825E+02 -0.13235214303E+03  0.22364857947E+03  0.12500000000E+03 0.  0.
         25    1    1    2    0    0 -0.15315767155E+02  0.23162897357E+03 -0.80853989767E+03  0.85044007446E+03  0.12500000000E+03 0.  0.
</event>
<event>
 5    0  0.5778875E-005  0.2693988E+03  0.7546771E-02  0.1101624E+00
         21   -1    0    0  502  501  0.00000000000E+00  0.00000000000E+00  0.11567839106E+03  0.11567839106E+03  0.00000000000E+00 0. -1.
         21   -1    0    0  501  502 -0.00000000000E+00 -0.00000000000E+00 -0.62739212075E+03  0.62739212075E+03  0.00000000000E+00 0. -1.
         25    1    1    2    0    0  0.27036032674E+02 -0.13133575773E+03 -0.24755351705E+03  0.30803858869E+03  0.12500000000E+03 0.  0.
         25    1    1    2    0    0  0.38439430613E+02  0.64616637174E+02 -0.22862073138E+02  0.14765017445E+03  0.12500000000E+03 0.  0.
         25    1    1    2    0    0 -0.65475463288E+02  0.66719120558E+02 -0.24129813951E+03  0.28738174867E+03  0.12500000000E+03 0.  0.
</event>
<event>
 5    0  0.5778875E-005  0.2756440E+03  0.7546771E-02  0.1098092E+00
         21   -1    0    0  502  501  0.00000000000E+00  0.00000000000E+00  0.32943545729E+03  0.32943545729E+03  0.00000000000E+00 0.  1.
         21   -1    0    0  501  502 -0.00000000000E+00 -0.00000000000E+00 -0.23063583683E+03  0.23063583683E+03  0.00000000000E+00 0.  1.
         25    1    1    2    0    0 -0.10554023382E+03  0.47605233081E+02  0.87460224667E+02  0.19151838050E+03  0.12500000000E+03 0.  0.
         25    1    1    2    0    0  0.12691053651E+03  0.73285881596E+02 -0.41686303386E+01  0.19266416947E+03  0.12500000000E+03 0.  0.
         25    1    1    2    0    0 -0.21370302688E+02 -0.12089111468E+03  0.15508026138E+02  0.17588874415E+03  0.12500000000E+03 0.  0.
</event>
<event>
 5    0  0.5778875E-005  0.3294538E+03  0.7546771E-02  0.1071379E+00
         21   -1    0    0  502  501  0.00000000000E+00  0.00000000000E+00  0.14019874636E+03  0.14019874636E+03  0.00000000000E+00 0.  1.
         21   -1    0    0  501  502 -0.00000000000E+00 -0.00000000000E+00 -0.77418522146E+03  0.77418522146E+03  0.00000000000E+00 0.  1.
         25    1    1    2    0    0  0.11076648893E+03 -0.79593271188E+02 -0.41432935719E+03  0.45375998073E+03  0.12500000000E+03 0.  0.
         25    1    1    2    0    0 -0.20470139963E+03  0.39261183523E+02 -0.12246944948E+03  0.27215412838E+03  0.12500000000E+03 0.  0.
         25    1    1    2    0    0  0.93934910695E+02  0.40332087666E+02 -0.97187668441E+02  0.18846985870E+03  0.12500000000E+03 0.  0.
</event>
<event>
 5    0  0.5778875E-005  0.3796683E+03  0.7546771E-02  0.1051056E+00
         21   -1    0    0  502  501  0.00000000000E+00  0.00000000000E+00  0.58785785787E+03  0.58785785787E+03  0.00000000000E+00 0. -1.
         21   -1    0    0  501  502 -0.00000000000E+00 -0.00000000000E+00 -0.24520894488E+03  0.24520894488E+03  0.00000000000E+00 0. -1.
         25    1    1    2    0    0 -0.42772295106E+00  0.22345912825E+03 -0.74250328980E+02  0.26659384145E+03  0.12500000000E+03 0.  0.
         25    1    1    2    0    0  0.50770034357E+01 -0.12015426034E+03  0.35070798672E+03  0.39125939502E+03  0.12500000000E+03 0.  0.
         25    1    1    2    0    0 -0.46492804846E+01 -0.10330486791E+03  0.66191255256E+02  0.17521356630E+03  0.12500000000E+03 0.  0.
</event>
<event>
 5    0  0.5778875E-005  0.4214790E+03  0.7546771E-02  0.1036586E+00
         21   -1    0    0  502  501  0.00000000000E+00  0.00000000000E+00  0.22098705448E+03  0.22098705448E+03  0.00000000000E+00 0.  1.
         21   -1    0    0  501  502 -0.00000000000E+00 -0.00000000000E+00 -0.80386849558E+03  0.80386849558E+03  0.00000000000E+00 0.  1.
         25    1    1    2    0    0  0.49421166927E+02 -0.16637033506E+03 -0.52084915204E+02  0.22013490982E+03  0.12500000000E+03 0.  0.
         25    1    1    2    0    0 -0.16641458985E+03 -0.93127734968E+02 -0.52040333749E+02  0.23387985606E+03  0.12500000000E+03 0.  0.
         25    1    1    2    0    0  0.11699342292E+03  0.25949807003E+03 -0.47875619214E+03  0.57084078417E+03  0.12500000000E+03 0.  0.
</event>
<event>
 5    0  0.5778875E-005  0.2990913E+03  0.7546771E-02  0.1085696E+00
         21   -1    0    0  502  501  0.00000000000E+00  0.00000000000E+00  0.82565303113E+03  0.82565303113E+03  0.00000000000E+00 0. -1.
         21   -1    0    0  501  502 -0.00000000000E+00 -0.00000000000E+00 -0.10834529645E+03  0.10834529645E+03  0.00000000000E+00 0. -1.
         25    1    1    2    0    0  0.94048556474E+01  0.15039811979E+03  0.28515829175E+03  0.34590214960E+03  0.12500000000E+03 0.  0.
         25    1    1    2    0    0  0.57079723824E+02 -0.18016430519E+03  0.36258838932E+03  0.42756591516E+03  0.12500000000E+03 0.  0.
         25    1    1    2    0    0 -0.66484579472E+02  0.29766185402E+02  0.69561053612E+02  0.16053026282E+03  0.12500000000E+03 0.  0.
</event>
<event>
 5    0  0.5778875E-005  0.2699200E+03  0.7546771E-02  0.1101325E+00
         21   -1    0    0  502  501  0.00000000000E+00  0.00000000000E+00  0.48572470698E+03  0.48572470698E+03  0.00000000000E+00 0.  1.
         21   -1    0    0  501  502 -0.00000000000E+00 -0.00000000000E+00 -0.14999611846E+03  0.14999611846E+03  0.00000000000E+00 0.  1.
         25    1    1    2    0    0  0.73532625093E+02 -0.13022632903E+03  0.90172656254E+02  0.21476045181E+03  0.12500000000E+03 0.  0.
         25    1    1    2    0    0  0.16878003538E+02  0.50342774875E+02  0.21589870752E+02  0.13751503374E+03  0.12500000000E+03 0.  0.
         25    1    1    2    0    0 -0.90410628631E+02  0.79883554151E+02  0.22396606152E+03  0.28344533989E+03  0.12500000000E+03 0.  0.
</event>
<event>
 5    0  0.5778875E-005  0.4650856E+03  0.7546771E-02  0.1023317E+00
         21   -1    0    0  502  501  0.00000000000E+00  0.00000000000E+00  0.11965005770E+04  0.11965005770E+04  0.00000000000E+00 0.  1.
         21   -1    0    0  501  502 -0.00000000000E+00 -0.00000000000E+00 -0.18078101293E+03  0.18078101293E+03  0.00000000000E+00 0.  1.
         25    1    1    2    0    0 -0.27604805329E+03 -0.25600719431E+03  0.21769188016E+03  0.45250079111E+03  0.12500000000E+03 0.  0.
         25    1    1    2    0    0  0.13933501327E+03  0.15329393143E+03  0.31372374964E+03  0.39618286993E+03  0.12500000000E+03 0.  0.
         25    1    1    2    0    0  0.13671304002E+03  0.10271326288E+03  0.48430393424E+03  0.52859792887E+03  0.12500000000E+03 0.  0.
</event>
<event>
 5    0  0.5778875E-005  0.3656786E+03  0.7546771E-02  0.1056358E+00
         21   -1    0    0  502  501  0.00000000000E+00  0.00000000000E+00  0.67051861179E+02  0.67051861179E+02  0.00000000000E+00 0. -1.
         21   -1    0    0  501  502 -0.00000000000E+00 -0.00000000000E+00 -0.19942899524E+04  0.19942899524E+04  0.00000000000E+00 0. -1.
         25    1    1    2    0    0 -0.79668220721E+02 -0.43634975850E+02 -0.12860821270E+04  0.12953313375E+04  0.12500000000E+03 0.  0.
         25    1    1    2    0    0  0.30963074702E+02  0.94574538557E+02 -0.59376824567E+03  0.61488924605E+03  0.12500000000E+03 0.  0.
         25    1    1    2    0    0  0.48705146019E+02 -0.50939562708E+02 -0.47387718548E+02  0.15112123003E+03  0.12500000000E+03 0.  0.
</event>
<event>
 5    0  0.5778875E-005  0.2290980E+03  0.7546771E-02  0.1127276E+00
         21   -1    0    0  502  501  0.00000000000E+00  0.00000000000E+00  0.15909177618E+03  0.15909177618E+03  0.00000000000E+00 0.  1.
         21   -1    0    0  501  502 -0.00000000000E+00 -0.00000000000E+00 -0.32990946555E+03  0.32990946555E+03  0.00000000000E+00 0.  1.
         25    1    1    2    0    0 -0.24017226680E+02  0.58038781083E+02 -0.10080767521E+03  0.17243118821E+03  0.12500000000E+03 0.  0.
         25    1    1    2    0    0 -0.48568459524E+02 -0.53986896900E+02 -0.90452492742E+02  0.17052898211E+03  0.12500000000E+03 0.  0.
         25    1    1    2    0    0  0.72585686204E+02 -0.40518841832E+01  0.20442478584E+02  0.14604107141E+03  0.12500000000E+03 0.  0.
</event>
<event>
 5    0  0.5778875E-005  0.2851762E+03  0.7546771E-02  0.1092895E+00
         21   -1    0    0  502  501  0.00000000000E+00  0.00000000000E+00  0.22049442079E+03  0.22049442079E+03  0.00000000000E+00 0. -1.
         21   -1    0    0  501  502 -0.00000000000E+00 -0.00000000000E+00 -0.36883241231E+03  0.36883241231E+03  0.00000000000E+00 0. -1.
         25    1    1    2    0    0  0.24884077845E+02  0.36153988289E+02 -0.17253838726E+02  0.13360023634E+03  0.12500000000E+03 0.  0.
         25    1    1    2    0    0  0.11635002728E+03  0.10192926750E+03 -0.90416932644E+02  0.21846538886E+03  0.12500000000E+03 0.  0.
         25    1    1    2    0    0 -0.14123410512E+03 -0.13808325579E+03 -0.40667220149E+02  0.23726120790E+03  0.12500000000E+03 0.  0.
</event>
<event>
 5    0  0.5778875E-005  0.4932941E+03  0.7546771E-02  0.1015544E+00
         21   -1    0    0  502  501  0.00000000000E+00  0.00000000000E+00  0.14091829545E+03  0.14091829545E+03  0.00000000000E+00 0.  1.
         21   -1    0    0  501  502 -0.00000000000E+00 -0.00000000000E+00 -0.17268098816E+04  0.17268098816E+04  0.00000000000E+00 0.  1.
         25    1    1    2    0    0  0.76142388359E+02  0.14149810570E+02  0.71029174675E+02  0.16330347240E+03  0.12500000000E+03 0.  0.
         25    1    1    2    0    0  0.76997920780E+02 -0.60378192518E+02 -0.11051362237E+04  0.11164789648E+04  0.12500000000E+03 0.  0.
         25    1    1    2    0    0 -0.15314030914E+03  0.46228381948E+02 -0.55178453707E+03  0.58794573978E+03  0.12500000000E+03 0.  0.
</event>
<event>
 5    0  0.5778875E-005  0.2373504E+03  0.7546771E-02  0.1121571E+00
         21   -1    0    0  502  501  0.00000000000E+00  0.00000000000E+00  0.93038113733E+02  0.93038113733E+02  0.00000000000E+00 0.  1.
         21   -1    0    0  501  502 -0.00000000000E+00 -0.00000000000E+00 -0.60550675780E+03  0.60550675780E+03  0.00000000000E+00 0.  1.
         25    1    1    2    0    0 -0.44700781692E+02  0.15010557989E+02 -0.56232247869E+02  0.14495013776E+03  0.12500000000E+03 0.  0.
         25    1    1    2    0    0  0.26454003323E+02  0.40006931850E+02 -0.36385443657E+03  0.38770532612E+03  0.12500000000E+03 0.  0.
         25    1    1    2    0    0  0.18246778369E+02 -0.55017489839E+02 -0.92381959627E+02  0.16588940766E+03  0.12500000000E+03 0.  0.
</event>
<event>
 5    0  0.5778875E-005  0.4544590E+03  0.7546771E-02  0.1026401E+00
         21   -1    0    0  502  501  0.00000000000E+00  0.00000000000E+00  0.12909605917E+04  0.12909605917E+04  0.00000000000E+00 0.  1.
         21   -1    0    0  501  502 -0.00000000000E+00 -0.00000000000E+00 -0.15998395845E+03  0.15998395845E+03  0.00000000000E+00 0.  1.
         25    1    1    2    0    0 -0.28424793206E+02  0.11485195816E+03  0.80660860815E+02  0.19007923514E+03  0.12500000000E+03 0.  0.
         25    1    1    2    0    0 -0.18352019785E+03  0.12197243662E+03  0.14189876630E+03  0.29037423817E+03  0.12500000000E+03 0.  0.
         25    1    1    2    0    0  0.21194499106E+03 -0.23682439478E+03  0.90841700609E+03  0.97049107680E+03  0.12500000000E+03 0.  0.
</event>
<event>
 5    0  0.5778875E-005  0.2678911E+03  0.7546771E-02  0.1102493E+00
         21   -1    0    0  502  501  0.00000000000E+00  0.00000000000E+00  0.12162496834E+03  0.12162496834E+03  0.00000000000E+00 0. -1.
         21   -1    0    0  501  502 -0.00000000000E+00 -0.00000000000E+00 -0.59005673936E+03  0.59005673936E+03  0.00000000000E+00 0. -1.
         25    1    1    2    0    0 -0.10571459686E+03  0.11604137254E+03 -0.15103513672E+03  0.25115291887E+03  0.12500000000E+03 0.  0.
         25    1    1    2    0    0 -0.51878373786E+01 -0.30946242445E+01 -0.16819695085E+03  0.20964661846E+03  0.12500000000E+03 0.  0.
         25    1    1    2    0    0  0.11090243424E+03 -0.11294674830E+03 -0.14919968345E+03  0.25088217038E+03  0.12500000000E+03 0.  0.
</event>
<event>
 5    0  0.5778875E-005  0.2847335E+03  0.7546771E-02  0.1093131E+00
         21   -1    0    0  502  501  0.00000000000E+00  0.00000000000E+00  0.59526911125E+03  0.59526911125E+03  0.00000000000E+00 0.  1.
         21   -1    0    0  501  502 -0.00000000000E+00 -0.00000000000E+00 -0.13619583666E+03  0.13619583666E+03  0.00000000000E+00 0.  1.
         25    1    1    2    0    0 -0.38726165763E+02  0.85017506792E+02 -0.26100711437E+02  0.15822117277E+03  0.12500000000E+03 0.  0.
         25    1    1    2    0    0 -0.27661567467E+02 -0.99717934722E+02  0.23856731219E+03  0.28852762652E+03  0.12500000000E+03 0.  0.
         25    1    1    2    0    0  0.66387733229E+02  0.14700427930E+02  0.24660667384E+03  0.28471614862E+03  0.12500000000E+03 0.  0.
</event>
<event>
 5    0  0.5778875E-005  0.3575501E+03  0.7546771E-02  0.1059558E+00
         21   -1    0    0  502  501  0.00000000000E+00  0.00000000000E+00  0.14415166440E+03  0.14415166440E+03  0.00000000000E+00 0.  1.
         21   -1    0    0  501  502 -0.00000000000E+00 -0.00000000000E+00 -0.88685814211E+03  0.88685814211E+03  0.00000000000E+00 0.  1.
         25    1    1    2    0    0  0.19545303165E+03  0.10779727561E+03 -0.16820059280E+03  0.30616756789E+03  0.12500000000E+03 0.  0.
         25    1    1    2    0    0  0.39213258161E+01 -0.58418397915E+02 -0.41232121816E+03  0.43481245722E+03  0.12500000000E+03 0.  0.
         25    1    1    2    0    0 -0.19937435746E+03 -0.49378877694E+02 -0.16218466675E+03  0.29002978141E+03  0.12500000000E+03 0.  0.
</event>
<event>
 5    0  0.5778875E-005  0.2911819E+03  0.7546771E-02  0.1089734E+00
         21   -1    0    0  502  501  0.00000000000E+00  0.00000000000E+00  0.62553069724E+02  0.62553069724E+02  0.00000000000E+00 0.  1.
         21   -1    0    0  501  502 -0.00000000000E+00 -0.00000000000E+00 -0.13554393444E+04  0.13554393444E+04  0.00000000000E+00 0.  1.
         25    1    1    2    0    0 -0.91604962555E+02 -0.43458725522E+02 -0.59842497215E+03  0.61969151784E+03  0.12500000000E+03 0.  0.
         25    1    1    2    0    0  0.14392343390E+03  0.11091999462E+03 -0.27595709181E+03  0.35326267359E+03  0.12500000000E+03 0.  0.
         25    1    1    2    0    0 -0.52318471345E+02 -0.67461269100E+02 -0.41850421074E+03  0.44503822271E+03  0.12500000000E+03 0.  0.
</event>
<event>
 5    0  0.5778875E-005  0.1987763E+03  0.7546771E-02  0.1150776E+00
         21   -1    0    0  502  501  0.00000000000E+00  0.00000000000E+00  0.93290125783E+03  0.93290125783E+03  0.00000000000E+00 0.  1.
         21   -1    0    0  501  502 -0.00000000000E+00 -0.00000000000E+00 -0.42353900973E+02  0.42353900973E+02  0.00000000000E+00 0.  1.
         25    1    1    2    0    0 -0.38324326303E+02 -0.23934619062E+01  0.26646124800E+03  0.29681825977E+03  0.12500000000E+03 0.  0.
         25    1    1    2    0    0  0.29493694917E+01 -0.27880488776E+02  0.36856988468E+03  0.39019838586E+03  0.12500000000E+03 0.  0.
         25    1    1    2    0    0  0.35374956811E+02  0.30273950683E+02  0.25551622417E+03  0.28823851317E+03  0.12500000000E+03 0.  0.
</event>
<event>
 5    0  0.5842882E-005  0.3270119E+03  0.7546771E-02  0.1072467E+00
         21   -1    0    0  502  501  0.00000000000E+00  0.00000000000E+00  0.50743245691E+03  0.50743245691E+03  0.00000000000E+00 0.  1.
         21   -1    0    0  501  502 -0.00000000000E+00 -0.00000000000E+00 -0.21074096182E+03  0.21074096182E+03  0.00000000000E+00 0.  1.
         25    1    1    2    0    0 -0.21224297112E+03 -0.50370159221E+02  0.67024936825E+02  0.26019526108E+03  0.12500000000E+03 0.  0.
         25    1    1    2    0    0  0.83777179040E+02  0.12260322716E+03  0.66875664063E+02  0.20529861539E+03  0.12500000000E+03 0.  0.
         25    1    1    2    0    0  0.12846579208E+03 -0.72233067944E+02  0.16279089421E+03  0.25267954226E+03  0.12500000000E+03 0.  0.
</event>
<event>
 5    0  0.5778875E-005  0.2996615E+03  0.7546771E-02  0.1085410E+00
         21   -1    0    0  502  501  0.00000000000E+00  0.00000000000E+00  0.10485556458E+04  0.10485556458E+04  0.00000000000E+00 0. -1.
         21   -1    0    0  501  502 -0.00000000000E+00 -0.00000000000E+00 -0.85638742668E+02  0.85638742668E+02  0.00000000000E+00 0. -1.
         25    1    1    2    0    0  0.90010969732E+02  0.14502750701E+03  0.26446663465E+03  0.33867765398E+03  0.12500000000E+03 0.  0.
         25    1    1    2    0    0 -0.53247209703E+02 -0.58133051189E+02  0.10381258505E+03  0.18060113454E+03  0.12500000000E+03 0.  0.
         25    1    1    2    0    0 -0.36763760029E+02 -0.86894455819E+02  0.59463768345E+03  0.61491559996E+03  0.12500000000E+03 0.  0.
</event>
<event>
 5    0  0.5778875E-005  0.8991872E+03  0.7546771E-02  0.9426598E-01
         21   -1    0    0  502  501  0.00000000000E+00  0.00000000000E+00  0.23959238582E+03  0.23959238582E+03  0.00000000000E+00 0. -1.
         21   -1    0    0  501  502 -0.00000000000E+00 -0.00000000000E+00 -0.33746378683E+04  0.33746378683E+04  0.00000000000E+00 0.  1.
         25    1    1    2    0    0 -0.66320500253E+03  0.15573810002E+03 -0.64319582932E+03  0.94520955668E+03  0.12500000000E+03 0.  0.
         25    1    1    2    0    0  0.48606080686E+02  0.13132093102E+03 -0.10970469967E+04  0.11129891514E+04  0.12500000000E+03 0.  0.
         25    1    1    2    0    0  0.61459892185E+03 -0.28705903104E+03 -0.13948026565E+04  0.15560315461E+04  0.12500000000E+03 0.  0.
</event>
<event>
 5    0  0.5778875E-005  0.4540136E+03  0.7546771E-02  0.1026532E+00
         21   -1    0    0  502  501  0.00000000000E+00  0.00000000000E+00  0.93051894227E+03  0.93051894227E+03  0.00000000000E+00 0.  1.
         21   -1    0    0  501  502 -0.00000000000E+00 -0.00000000000E+00 -0.22151978433E+03  0.22151978433E+03  0.00000000000E+00 0.  1.
         25    1    1    2    0    0  0.13813854601E+03  0.21339936236E+03  0.20839768982E+03  0.35167619037E+03  0.12500000000E+03 0.  0.
         25    1    1    2    0    0  0.16490740505E+03 -0.14163793633E+02  0.30744545123E+03  0.37086759197E+03  0.12500000000E+03 0.  0.
         25    1    1    2    0    0 -0.30304595106E+03 -0.19923556872E+03  0.19315601689E+03  0.42949494427E+03  0.12500000000E+03 0.  0.
</event>
<event>
 5    0  0.5778875E-005  0.2386532E+03  0.7546771E-02  0.1120693E+00
         21   -1    0    0  502  501  0.00000000000E+00  0.00000000000E+00  0.31695196294E+03  0.31695196294E+03  0.00000000000E+00 0. -1.
         21   -1    0    0  501  502 -0.00000000000E+00 -0.00000000000E+00 -0.17969714745E+03  0.17969714745E+03  0.00000000000E+00 0. -1.
         25    1    1    2    0    0  0.23413508128E+02 -0.36535335112E+02  0.54332075828E+02  0.14303844776E+03  0.12500000000E+03 0.  0.
         25    1    1    2    0    0 -0.22043912037E+02 -0.89306045479E+02 -0.57471365668E+01  0.15530464705E+03  0.12500000000E+03 0.  0.
         25    1    1    2    0    0 -0.13695960911E+01  0.12584138059E+03  0.88669876230E+02  0.19830601557E+03  0.12500000000E+03 0.  0.
</event>
<event>
 5    0  0.5778875E-005  0.3386411E+03  0.7546771E-02  0.1067376E+00
         21   -1    0    0  502  501  0.00000000000E+00  0.00000000000E+00  0.40761099799E+03  0.40761099799E+03  0.00000000000E+00 0. -1.
         21   -1    0    0  501  502 -0.00000000000E+00 -0.00000000000E+00 -0.28134127851E+03  0.28134127851E+03  0.00000000000E+00 0. -1.
         25    1    1    2    0    0  0.38224707132E+02  0.15969093830E+03  0.15660011048E+03  0.25905775150E+03  0.12500000000E+03 0.  0.
         25    1    1    2    0    0  0.55617338851E+02 -0.54651484898E+02  0.11913544839E+03  0.18946854157E+03  0.12500000000E+03 0.  0.
         25    1    1    2    0    0 -0.93842045982E+02 -0.10503945340E+03 -0.14946583939E+03  0.24042598343E+03  0.12500000000E+03 0.  0.
</event>
<event>
 5    0  0.5778875E-005  0.2477625E+03  0.7546771E-02  0.1114727E+00
         21   -1    0    0  502  501  0.00000000000E+00  0.00000000000E+00  0.15103932815E+04  0.15103932815E+04  0.00000000000E+00 0. -1.
         21   -1    0    0  501  502 -0.00000000000E+00 -0.00000000000E+00 -0.40642572733E+02  0.40642572733E+02  0.00000000000E+00 0. -1.
         25    1    1    2    0    0 -0.48655793224E+02 -0.11050869538E+03  0.56181829831E+03  0.58808533249E+03  0.12500000000E+03 0.  0.
         25    1    1    2    0    0  0.10340074426E+03  0.68411424717E+02  0.55362678856E+03  0.58094703542E+03  0.12500000000E+03 0.  0.
         25    1    1    2    0    0 -0.54744951033E+02  0.42097270667E+02  0.35430562187E+03  0.38200348631E+03  0.12500000000E+03 0.  0.
</event>
<event>
 5    0  0.5778875E-005  0.3049257E+03  0.7546771E-02  0.1082804E+00
         21   -1    0    0  502  501  0.00000000000E+00  0.00000000000E+00  0.81409259916E+03  0.81409259916E+03  0.00000000000E+00 0. -1.
         21   -1    0    0  501  502 -0.00000000000E+00 -0.00000000000E+00 -0.11421269656E+03  0.11421269656E+03  0.00000000000E+00 0. -1.
         25    1    1    2    0    0 -0.97137946896E+01 -0.95104328109E+02  0.94425484940E+02  0.18352210559E+03  0.12500000000E+03 0.  0.
         25    1    1    2    0    0 -0.19183019939E+02  0.13237636382E+03  0.75134013486E+02  0.19789292543E+03  0.12500000000E+03 0.  0.
         25    1    1    2    0    0  0.28896814629E+02 -0.37272035713E+02  0.53032040418E+03  0.54689026470E+03  0.12500000000E+03 0.  0.
</event>
<event>
 5    0  0.5778875E-005  0.2395291E+03  0.7546771E-02  0.1120107E+00
         21   -1    0    0  502  501  0.00000000000E+00  0.00000000000E+00  0.42081189154E+02  0.42081189154E+02  0.00000000000E+00 0. -1.
         21   -1    0    0  501  502 -0.00000000000E+00 -0.00000000000E+00 -0.13634161354E+04  0.13634161354E+04  0.00000000000E+00 0. -1.
         25    1    1    2    0    0 -0.87900816251E+02 -0.75451663672E+02 -0.57666524417E+03  0.60132130420E+03  0.12500000000E+03 0.  0.
         25    1    1    2    0    0 -0.18871450267E+02  0.50340295849E+02 -0.29961675771E+03  0.32906758960E+03  0.12500000000E+03 0.  0.
         25    1    1    2    0    0  0.10677226652E+03  0.25111367823E+02 -0.44505294437E+03  0.47510843077E+03  0.12500000000E+03 0.  0.
</event>
<event>
 5    0  0.5778875E-005  0.4338391E+03  0.7546771E-02  0.1032654E+00
         21   -1    0    0  502  501  0.00000000000E+00  0.00000000000E+00  0.16415708139E+03  0.16415708139E+03  0.00000000000E+00 0.  1.
         21   -1    0    0  501  502 -0.00000000000E+00 -0.00000000000E+00 -0.11465626777E+04  0.11465626777E+04  0.00000000000E+00 0.  1.
         25    1    1    2    0    0 -0.16953557284E+03 -0.63643986400E+02 -0.20080821051E+03  0.29789562748E+03  0.12500000000E+03 0.  0.
         25    1    1    2    0    0 -0.12927282729E+03 -0.89271822929E+01 -0.61620638347E+03  0.64197076684E+03  0.12500000000E+03 0.  0.
         25    1    1    2    0    0  0.29880840013E+03  0.72571168693E+02 -0.16539100235E+03  0.37085336478E+03  0.12500000000E+03 0.  0.
</event>
<event>
 5    0  0.5778875E-005  0.5287049E+03  0.7546771E-02  0.1006547E+00
         21   -1    0    0  502  501  0.00000000000E+00  0.00000000000E+00  0.30197946078E+03  0.30197946078E+03  0.00000000000E+00 0.  1.
         21   -1    0    0  501  502 -0.00000000000E+00 -0.00000000000E+00 -0.92565539824E+03  0.92565539824E+03  0.00000000000E+00 0.  1.
         25    1    1    2    0    0  0.19086917401E+02  0.11631476447E+03  0.25984020530E+02  0.17376306907E+03  0.12500000000E+03 0.  0.
         25    1    1    2    0    0  0.31203485573E+03  0.14565475781E+03 -0.17360569264E+03  0.40539486452E+03  0.12500000000E+03 0.  0.
         25    1    1    2    0    0 -0.33112177314E+03 -0.26196952228E+03 -0.47605426535E+03  0.64847692542E+03  0.12500000000E+03 0.  0.
</event>
<event>
 5    0  0.5778875E-005  0.3514251E+03  0.7546771E-02  0.1062032E+00
         21   -1    0    0  502  501  0.00000000000E+00  0.00000000000E+00  0.35283329953E+03  0.35283329953E+03  0.00000000000E+00 0. -1.
         21   -1    0    0  501  502 -0.00000000000E+00 -0.00000000000E+00 -0.35002242671E+03  0.35002242671E+03  0.00000000000E+00 0. -1.
         25    1    1    2    0    0  0.25048124158E+03  0.57514952326E+02 -0.46969822904E+02  0.28962041777E+03  0.12500000000E+03 0.  0.
         25    1    1    2    0    0 -0.15959135903E+03 -0.10509456486E+03  0.91885787702E+02  0.24613465302E+03  0.12500000000E+03 0.  0.
         25    1    1    2    0    0 -0.90889882553E+02  0.47579612532E+02 -0.42105091980E+02  0.16710065544E+03  0.12500000000E+03 0.  0.
</event>
<event>
 5    0  0.5778875E-005  0.2499759E+03  0.7546771E-02  0.1113320E+00
         21   -1    0    0  502  501  0.00000000000E+00  0.00000000000E+00  0.52993168708E+03  0.52993168708E+03  0.00000000000E+00 0. -1.
         21   -1    0    0  501  502 -0.00000000000E+00 -0.00000000000E+00 -0.11791701927E+03  0.11791701927E+03  0.00000000000E+00 0. -1.
         25    1    1    2    0    0  0.58742638633E+01  0.21648295165E+02  0.21079956856E+03  0.24609878863E+03  0.12500000000E+03 0.  0.
         25    1    1    2    0    0  0.59924738392E+01  0.99452395189E+02  0.41299737420E+02  0.16509802229E+03  0.12500000000E+03 0.  0.
         25    1    1    2    0    0 -0.11866737703E+02 -0.12110069035E+03  0.15991536183E+03  0.23665189544E+03  0.12500000000E+03 0.  0.
</event>
<event>
 5    0  0.5778875E-005  0.2947889E+03  0.7546771E-02  0.1087875E+00
         21   -1    0    0  502  501  0.00000000000E+00  0.00000000000E+00  0.23191178896E+03  0.23191178896E+03  0.00000000000E+00 0.  1.
         21   -1    0    0  501  502 -0.00000000000E+00 -0.00000000000E+00 -0.37471347335E+03  0.37471347335E+03  0.00000000000E+00 0.  1.
         25    1    1    2    0    0 -0.13137658930E+03  0.95582963853E+02 -0.81016862173E+02  0.22041924406E+03  0.12500000000E+03 0.  0.
         25    1    1    2    0    0 -0.28778263100E+02 -0.73429665774E+02 -0.99792858527E+02  0.17833597185E+03  0.12500000000E+03 0.  0.
         25    1    1    2    0    0  0.16015485240E+03 -0.22153298078E+02  0.38008036309E+02  0.20787004640E+03  0.12500000000E+03 0.  0.
</event>
<event>
 5    0  0.5778875E-005  0.4157394E+03  0.7546771E-02  0.1038462E+00
         21   -1    0    0  502  501  0.00000000000E+00  0.00000000000E+00  0.13578578657E+04  0.13578578657E+04  0.00000000000E+00 0.  1.
         21   -1    0    0  501  502 -0.00000000000E+00 -0.00000000000E+00 -0.12728817537E+03  0.12728817537E+03  0.00000000000E+00 0. -1.
         25    1    1    2    0    0  0.21851822251E+03  0.28364664894E+03  0.64701963282E+03  0.74997669316E+03  0.12500000000E+03 0.  0.
         25    1    1    2    0    0 -0.12619335356E+03 -0.94247465708E+02  0.23777412551E+03  0.31139826916E+03  0.12500000000E+03 0.  0.
         25    1    1    2    0    0 -0.92324868951E+02 -0.18939918323E+03  0.34577593196E+03  0.42377107872E+03  0.12500000000E+03 0.  0.
</event>
<event>
 5    0  0.5778875E-005  0.3271286E+03  0.7546771E-02  0.1072414E+00
         21   -1    0    0  502  501  0.00000000000E+00  0.00000000000E+00  0.17023560078E+04  0.17023560078E+04  0.00000000000E+00 0. -1.
         21   -1    0    0  501  502 -0.00000000000E+00 -0.00000000000E+00 -0.62861766131E+02  0.62861766131E+02  0.00000000000E+00 0. -1.
         25    1    1    2    0    0 -0.41723541183E+02  0.11446599824E+03  0.91184193985E+03  0.92839864385E+03  0.12500000000E+03 0.  0.
         25    1    1    2    0    0 -0.70483077327E+02  0.65604206768E+02  0.37355727801E+03  0.40551426127E+03  0.12500000000E+03 0.  0.
         25    1    1    2    0    0  0.11220661851E+03 -0.18007020501E+03  0.35409502378E+03  0.43130486879E+03  0.12500000000E+03 0.  0.
</event>
<event>
 5    0  0.5778875E-005  0.2347879E+03  0.7546771E-02  0.1123315E+00
         21   -1    0    0  502  501  0.00000000000E+00  0.00000000000E+00  0.57383803631E+03  0.57383803631E+03  0.00000000000E+00 0. -1.
         21   -1    0    0  501  502 -0.00000000000E+00 -0.00000000000E+00 -0.96064276848E+02  0.96064276848E+02  0.00000000000E+00 0. -1.
         25    1    1    2    0    0  0.53144246780E+02  0.99175146031E+02  0.20602072969E+03  0.26595029915E+03  0.12500000000E+03 0.  0.
         25    1    1    2    0    0  0.26932975054E+02 -0.27663044383E+02  0.15023066635E+03  0.19921064801E+03  0.12500000000E+03 0.  0.
         25    1    1    2    0    0 -0.80077221833E+02 -0.71512101649E+02  0.12152236343E+03  0.20474136600E+03  0.12500000000E+03 0.  0.
</event>
<event>
 5    0  0.8036017E-005  0.3002655E+03  0.7546771E-02  0.1085108E+00
         21   -1    0    0  502  501  0.00000000000E+00  0.00000000000E+00  0.21951706499E+03  0.21951706499E+03  0.00000000000E+00 0.  1.
         21   -1    0    0  501  502 -0.00000000000E+00 -0.00000000000E+00 -0.41071691266E+03  0.41071691266E+03  0.00000000000E+00 0.  1.
         25    1    1    2    0    0 -0.12078522649E+03 -0.38692648929E+02 -0.13828991077E+03  0.22546683002E+03  0.12500000000E+03 0.  0.
         25    1    1    2    0    0  0.68191665234E+02  0.72608976485E+02  0.10701988246E+03  0.19235493733E+03  0.12500000000E+03 0.  0.
         25    1    1    2    0    0  0.52593561252E+02 -0.33916327556E+02 -0.15992981937E+03  0.21241221030E+03  0.12500000000E+03 0.  0.
</event>
<event>
 5    0  0.5778875E-005  0.3640569E+03  0.7546771E-02  0.1056989E+00
         21   -1    0    0  502  501  0.00000000000E+00  0.00000000000E+00  0.55276931937E+03  0.55276931937E+03  0.00000000000E+00 0. -1.
         21   -1    0    0  501  502 -0.00000000000E+00 -0.00000000000E+00 -0.23976983550E+03  0.23976983550E+03  0.00000000000E+00 0.  1.
         25    1    1    2    0    0  0.23329004381E+03  0.12016342963E+03  0.11196261247E+03  0.31148695149E+03  0.12500000000E+03 0.  0.
         25    1    1    2    0    0 -0.89667354110E+01 -0.12742303610E+03  0.10155422524E+03  0.20556092318E+03  0.12500000000E+03 0.  0.
         25    1    1    2    0    0 -0.22432330840E+03  0.72596064721E+01  0.99482646158E+02  0.27549128020E+03  0.12500000000E+03 0.  0.
</event>
<event>
 5    0  0.5778875E-005  0.3025697E+03  0.7546771E-02  0.1083963E+00
         21   -1    0    0  502  501  0.00000000000E+00  0.00000000000E+00  0.30615267299E+03  0.30615267299E+03  0.00000000000E+00 0.  1.
         21   -1    0    0  501  502 -0.00000000000E+00 -0.00000000000E+00 -0.29902867090E+03  0.29902867090E+03  0.00000000000E+00 0.  1.
         25    1    1    2    0    0 -0.10947435421E+03  0.21547125182E+02  0.63348131511E+02  0.17912816250E+03  0.12500000000E+03 0.  0.
         25    1    1    2    0    0  0.16842539602E+03 -0.88871407537E+02 -0.12250242503E+03  0.25864470851E+03  0.12500000000E+03 0.  0.
         25    1    1    2    0    0 -0.58951041802E+02  0.67324282355E+02  0.66278295604E+02  0.16740847288E+03  0.12500000000E+03 0.  0.
</event>
<event>
 5    0  0.5778875E-005  0.2356726E+03  0.7546771E-02  0.1122710E+00
         21   -1    0    0  502  501  0.00000000000E+00  0.00000000000E+00  0.43670301797E+02  0.43670301797E+02  0.00000000000E+00 0.  1.
         21   -1    0    0  501  502 -0.00000000000E+00 -0.00000000000E+00 -0.12718382169E+04  0.12718382169E+04  0.00000000000E+00 0.  1.
         25    1    1    2    0    0 -0.23818419910E+01  0.70318092960E+02 -0.57389204808E+03  0.59154660866E+03  0.12500000000E+03 0.  0.
         25    1    1    2    0    0  0.19397184764E+02 -0.11885074560E+03 -0.33630671557E+03  0.37845601784E+03  0.12500000000E+03 0.  0.
         25    1    1    2    0    0 -0.17015342773E+02  0.48532652640E+02 -0.31796915145E+03  0.34550589219E+03  0.12500000000E+03 0.  0.
</event>
<event>
 5    0  0.5778875E-005  0.5968441E+03  0.7546771E-02  0.9911975E-01
         21   -1    0    0  502  501  0.00000000000E+00  0.00000000000E+00  0.66148708761E+03  0.66148708761E+03  0.00000000000E+00 0.  1.
         21   -1    0    0  501  502 -0.00000000000E+00 -0.00000000000E+00 -0.53851835394E+03  0.53851835394E+03  0.00000000000E+00 0.  1.
         25    1    1    2    0    0  0.19174443508E+03  0.47137911329E+02  0.55115471174E+03  0.59865217560E+03  0.12500000000E+03 0.  0.
         25    1    1    2    0    0 -0.11922230116E+03 -0.13046609914E+03 -0.11169532038E+03  0.24359023937E+03  0.12500000000E+03 0.  0.
         25    1    1    2    0    0 -0.72522133913E+02  0.83328187812E+02 -0.31649065769E+03  0.35776302659E+03  0.12500000000E+03 0.  0.
</event>
<event>
 5    0  0.5778875E-005  0.3500024E+03  0.7546771E-02  0.1062614E+00
         21   -1    0    0  502  501  0.00000000000E+00  0.00000000000E+00  0.14236023859E+04  0.14236023859E+04  0.00000000000E+00 0. -1.
         21   -1    0    0  501  502 -0.00000000000E+00 -0.00000000000E+00 -0.86050483836E+02  0.86050483836E+02  0.00000000000E+00 0. -1.
         25    1    1    2    0    0 -0.49155870797E+02  0.16235651730E+03  0.18536814592E+03  0.28064619696E+03  0.12500000000E+03 0.  0.
         25    1    1    2    0    0  0.11749425252E+03  0.93870451794E+01  0.74639250312E+03  0.76591108146E+03  0.12500000000E+03 0.  0.
         25    1    1    2    0    0 -0.68338381719E+02 -0.17174356248E+03  0.40579125300E+03  0.46309559130E+03  0.12500000000E+03 0.  0.
</event>
<event>
 5    0  0.5778875E-005  0.5566864E+03  0.7546771E-02  0.9999580E-01
         21   -1    0    0  502  501  0.00000000000E+00  0.00000000000E+00  0.14291763179E+03  0.14291763179E+03  0.00000000000E+00 0.  1.
         21   -1    0    0  501  502 -0.00000000000E+00 -0.00000000000E+00 -0.21683802019E+04  0.21683802019E+04  0.00000000000E+00 0.  1.
         25    1    1    2    0    0  0.29727969096E+03 -0.23358684425E+03 -0.11364398885E+04  0.12041838102E+04  0.12500000000E+03 0.  0.
         25    1    1    2    0    0 -0.22948002370E+03  0.36489266075E+03 -0.49535915801E+03  0.66844104495E+03  0.12500000000E+03 0.  0.
         25    1    1    2    0    0 -0.67799667257E+02 -0.13130581649E+03 -0.39366352361E+03  0.43867297859E+03  0.12500000000E+03 0.  0.
</event>
<event>
 5    0  0.5778875E-005  0.2377378E+03  0.7546771E-02  0.1121309E+00
         21   -1    0    0  502  501  0.00000000000E+00  0.00000000000E+00  0.35238644749E+03  0.35238644749E+03  0.00000000000E+00 0. -1.
         21   -1    0    0  501  502 -0.00000000000E+00 -0.00000000000E+00 -0.16039002452E+03  0.16039002452E+03  0.00000000000E+00 0. -1.
         25    1    1    2    0    0 -0.41796992795E+02  0.30717733048E+02  0.11607616411E+03  0.17829538302E+03  0.12500000000E+03 0.  0.
         25    1    1    2    0    0 -0.68590076474E+02 -0.62091719929E+02  0.45980698185E+02  0.16217029592E+03  0.12500000000E+03 0.  0.
         25    1    1    2    0    0  0.11038706927E+03  0.31373986881E+02  0.29939560671E+02  0.17231079307E+03  0.12500000000E+03 0.  0.
</event>
<event>
 5    0  0.5778875E-005  0.2280261E+03  0.7546771E-02  0.1128037E+00
         21   -1    0    0  502  501  0.00000000000E+00  0.00000000000E+00  0.38732370275E+03  0.38732370275E+03  0.00000000000E+00 0.  1.
         21   -1    0    0  501  502 -0.00000000000E+00 -0.00000000000E+00 -0.13424408358E+03  0.13424408358E+03  0.00000000000E+00 0.  1.
         25    1    1    2    0    0  0.47456343148E+00 -0.68106217066E+02  0.47000704289E+02  0.14990913320E+03  0.12500000000E+03 0.  0.
         25    1    1    2    0    0 -0.16185545663E+02 -0.45631026748E+02  0.56665496130E+02  0.14553398552E+03  0.12500000000E+03 0.  0.
         25    1    1    2    0    0  0.15710982231E+02  0.11373724381E+03  0.14941341875E+03  0.22612466760E+03  0.12500000000E+03 0.  0.
</event>
<event>
 5    0  0.5778875E-005  0.3642993E+03  0.7546771E-02  0.1056894E+00
         21   -1    0    0  502  501  0.00000000000E+00  0.00000000000E+00  0.42635731917E+03  0.42635731917E+03  0.00000000000E+00 0.  1.
         21   -1    0    0  501  502 -0.00000000000E+00 -0.00000000000E+00 -0.31127399537E+03  0.31127399537E+03  0.00000000000E+00 0.  1.
         25    1    1    2    0    0 -0.10076510201E+03  0.13376838120E+03  0.15073046230E+03  0.25766695143E+03  0.12500000000E+03 0.  0.
         25    1    1    2    0    0  0.61508143962E+02 -0.96886019634E+02  0.16553813569E+03  0.23706123036E+03  0.12500000000E+03 0.  0.
         25    1    1    2    0    0  0.39256958049E+02 -0.36882361571E+02 -0.20118527418E+03  0.24290313275E+03  0.12500000000E+03 0.  0.
</event>
<event>
 5    0  0.5778875E-005  0.3930998E+03  0.7546771E-02  0.1046196E+00
         21   -1    0    0  502  501  0.00000000000E+00  0.00000000000E+00  0.42288048593E+03  0.42288048593E+03  0.00000000000E+00 0. -1.
         21   -1    0    0  501  502 -0.00000000000E+00 -0.00000000000E+00 -0.36541634385E+03  0.36541634385E+03  0.00000000000E+00 0. -1.
         25    1    1    2    0    0 -0.50337025785E+02  0.18973667786E+02  0.60191117512E+01  0.13621690769E+03  0.12500000000E+03 0.  0.
         25    1    1    2    0    0  0.92059690890E+02  0.36723316721E+01  0.31798841103E+03  0.35387865471E+03  0.12500000000E+03 0.  0.
         25    1    1    2    0    0 -0.41722665105E+02 -0.22645999458E+02 -0.26654338070E+03  0.29820126738E+03  0.12500000000E+03 0.  0.
</event>
<event>
 5    0  0.5778875E-005  0.2222535E+03  0.7546771E-02  0.1132214E+00
         21   -1    0    0  502  501  0.00000000000E+00  0.00000000000E+00  0.51834887687E+02  0.51834887687E+02  0.00000000000E+00 0. -1.
         21   -1    0    0  501  502 -0.00000000000E+00 -0.00000000000E+00 -0.95296078942E+03  0.95296078942E+03  0.00000000000E+00 0. -1.
         25    1    1    2    0    0 -0.59240708705E+02 -0.32668215441E+02 -0.51946191693E+03  0.53855580678E+03  0.12500000000E+03 0.  0.
         25    1    1    2    0    0  0.24971650804E+02  0.71035746859E+01 -0.24435821677E+03  0.27569907911E+03  0.12500000000E+03 0.  0.
         25    1    1    2    0    0  0.34269057901E+02  0.25564640755E+02 -0.13730576803E+03  0.19054079123E+03  0.12500000000E+03 0.  0.
</event>
<event>
 5    0  0.5778875E-005  0.4178271E+03  0.7546771E-02  0.1037776E+00
         21   -1    0    0  502  501  0.00000000000E+00  0.00000000000E+00  0.15397932304E+03  0.15397932304E+03  0.00000000000E+00 0. -1.
         21   -1    0    0  501  502 -0.00000000000E+00 -0.00000000000E+00 -0.11337852284E+04  0.11337852284E+04  0.00000000000E+00 0. -1.
         25    1    1    2    0    0  0.18078850227E+03 -0.87457903570E+02 -0.30636356920E+03  0.38706201568E+03  0.12500000000E+03 0.  0.
         25    1    1    2    0    0 -0.21466237693E+03  0.27280502134E+03 -0.37262832519E+03  0.52438476758E+03  0.12500000000E+03 0.  0.
         25    1    1    2    0    0  0.33873874661E+02 -0.18534711777E+03 -0.30081401096E+03  0.37631776817E+03  0.12500000000E+03 0.  0.
</event>
<event>
 5    0  0.5778875E-005  0.4763519E+03  0.7546771E-02  0.1020143E+00
         21   -1    0    0  502  501  0.00000000000E+00  0.00000000000E+00  0.26546499498E+03  0.26546499498E+03  0.00000000000E+00 0.  1.
         21   -1    0    0  501  502 -0.00000000000E+00 -0.00000000000E+00 -0.85476859252E+03  0.85476859252E+03  0.00000000000E+00 0.  1.
         25    1    1    2    0    0 -0.79920312086E+02  0.29587654571E+03 -0.42804441537E+03  0.54108890962E+03  0.12500000000E+03 0.  0.
         25    1    1    2    0    0  0.10569146972E+03 -0.33484836794E+03 -0.22058918360E+03  0.43310357215E+03  0.12500000000E+03 0.  0.
         25    1    1    2    0    0 -0.25771157634E+02  0.38971822236E+02  0.59330001430E+02  0.14604110573E+03  0.12500000000E+03 0.  0.
</event>
<event>
 5    0  0.5778875E-005  0.3134938E+03  0.7546771E-02  0.1078683E+00
         21   -1    0    0  502  501  0.00000000000E+00  0.00000000000E+00  0.19782861296E+03  0.19782861296E+03  0.00000000000E+00 0. -1.
         21   -1    0    0  501  502 -0.00000000000E+00 -0.00000000000E+00 -0.49678530798E+03  0.49678530798E+03  0.00000000000E+00 0. -1.
         25    1    1    2    0    0 -0.53794007291E+01 -0.89851704997E+02 -0.10606669643E+03  0.18702248778E+03  0.12500000000E+03 0.  0.
         25    1    1    2    0    0  0.18471330405E+03  0.11119704031E+03 -0.89109443740E+02  0.26466824409E+03  0.12500000000E+03 0.  0.
         25    1    1    2    0    0 -0.17933390332E+03 -0.21345335316E+02 -0.10378055485E+03  0.24292318906E+03  0.12500000000E+03 0.  0.
</event>
<event>
 5    0  0.5778875E-005  0.2292023E+03  0.7546771E-02  0.1127202E+00
         21   -1    0    0  502  501  0.00000000000E+00  0.00000000000E+00  0.73971181331E+03  0.73971181331E+03  0.00000000000E+00 0.  1.
         21   -1    0    0  501  502 -0.00000000000E+00 -0.00000000000E+00 -0.71019120209E+02  0.71019120209E+02  0.00000000000E+00 0.  1.
         25    1    1    2    0    0  0.41398739393E+02  0.73315171454E+02  0.22711296570E+03  0.27256975104E+03  0.12500000000E+03 0.  0.
         25    1    1    2    0    0 -0.46438594498E+02 -0.11464723490E+03  0.25347815450E+03  0.30850722251E+03  0.12500000000E+03 0.  0.
         25    1    1    2    0    0  0.50398551057E+01  0.41332063445E+02  0.18810157290E+03  0.22965395998E+03  0.12500000000E+03 0.  0.
</event>
<event>
 5    0  0.5778875E-005  0.2575869E+03  0.7546771E-02  0.1108602E+00
         21   -1    0    0  502  501  0.00000000000E+00  0.00000000000E+00  0.12606874230E+04  0.12606874230E+04  0.00000000000E+00 0. -1.
         21   -1    0    0  501  502 -0.00000000000E+00 -0.00000000000E+00 -0.52630820118E+02  0.52630820118E+02  0.00000000000E+00 0. -1.
         25    1    1    2    0    0  0.12667693813E+03  0.34604703409E+02  0.27134314304E+03  0.32633821938E+03  0.12500000000E+03 0.  0.
         25    1    1    2    0    0  0.37557253164E+01 -0.27533423580E+02  0.44605621634E+03  0.46407256224E+03  0.12500000000E+03 0.  0.
         25    1    1    2    0    0 -0.13043266345E+03 -0.70712798286E+01  0.49065724352E+03  0.52290746151E+03  0.12500000000E+03 0.  0.
</event>
<event>
 5    0  0.5778875E-005  0.3207636E+03  0.7546771E-02  0.1075298E+00
         21   -1    0    0  502  501  0.00000000000E+00  0.00000000000E+00  0.47641226188E+03  0.47641226188E+03  0.00000000000E+00 0. -1.
         21   -1    0    0  501  502 -0.00000000000E+00 -0.00000000000E+00 -0.21596698051E+03  0.21596698051E+03  0.00000000000E+00 0. -1.
         25    1    1    2    0    0 -0.52266837752E+02  0.26848923645E+02  0.20412749238E+03  0.24646646867E+03  0.12500000000E+03 0.  0.
         25    1    1    2    0    0  0.32853001374E+02 -0.98623169742E+02  0.18881805076E+03  0.24916481614E+03  0.12500000000E+03 0.  0.
         25    1    1    2    0    0  0.19413836378E+02  0.71774246097E+02 -0.13250026177E+03  0.19674795759E+03  0.12500000000E+03 0.  0.
</event>
<event>
 5    0  0.5778875E-005  0.4283312E+03  0.7546771E-02  0.1034388E+00
         21   -1    0    0  502  501  0.00000000000E+00  0.00000000000E+00  0.19593850012E+04  0.19593850012E+04  0.00000000000E+00 0. -1.
         21   -1    0    0  501  502 -0.00000000000E+00 -0.00000000000E+00 -0.93635317367E+02  0.93635317367E+02  0.00000000000E+00 0. -1.
         25    1    1    2    0    0 -0.23777190532E+03 -0.83149637124E+02  0.28040141607E+03  0.39711370569E+03  0.12500000000E+03 0.  0.
         25    1    1    2    0    0  0.25201783872E+03  0.14429948958E+03  0.13029702220E+04  0.13407802703E+04  0.12500000000E+03 0.  0.
         25    1    1    2    0    0 -0.14245933398E+02 -0.61149852458E+02  0.28237804574E+03  0.31512634258E+03  0.12500000000E+03 0.  0.
</event>
<event>
 5    0  0.5778875E-005  0.3299245E+03  0.7546771E-02  0.1071170E+00
         21   -1    0    0  502  501  0.00000000000E+00  0.00000000000E+00  0.12643995762E+03  0.12643995762E+03  0.00000000000E+00 0.  1.
         21   -1    0    0  501  502 -0.00000000000E+00 -0.00000000000E+00 -0.86088432936E+03  0.86088432936E+03  0.00000000000E+00 0.  1.
         25    1    1    2    0    0  0.17728959138E+02  0.35109682325E+02 -0.22665732315E+01  0.13106160055E+03  0.12500000000E+03 0.  0.
         25    1    1    2    0    0  0.40391975639E+02 -0.15847075598E+03 -0.17835034532E+03  0.27235700445E+03  0.12500000000E+03 0.  0.
         25    1    1    2    0    0 -0.58120934777E+02  0.12336107365E+03 -0.55382745319E+03  0.58390568199E+03  0.12500000000E+03 0.  0.
</event>
<event>
 5    0  0.5778875E-005  0.3365061E+03  0.7546771E-02  0.1068294E+00
         21   -1    0    0  502  501  0.00000000000E+00  0.00000000000E+00  0.83501744648E+03  0.83501744648E+03  0.00000000000E+00 0.  1.
         21   -1    0    0  501  502 -0.00000000000E+00 -0.00000000000E+00 -0.13560956444E+03  0.13560956444E+03  0.00000000000E+00 0.  1.
         25    1    1    2    0    0 -0.16159556851E+02 -0.21045808100E+03  0.17920575555E+03  0.30379835082E+03  0.12500000000E+03 0.  0.
         25    1    1    2    0    0 -0.43195733458E+02 -0.22434180104E+02  0.10185402489E+03  0.16842923206E+03  0.12500000000E+03 0.  0.
         25    1    1    2    0    0  0.59355290309E+02  0.23289226110E+03  0.41834810160E+03  0.49839942805E+03  0.12500000000E+03 0.  0.
</event>
<event>
 5    0  0.5778875E-005  0.3189543E+03  0.7546771E-02  0.1076132E+00
         21   -1    0    0  502  501  0.00000000000E+00  0.00000000000E+00  0.34991400623E+03  0.34991400623E+03  0.00000000000E+00 0. -1.
         21   -1    0    0  501  502 -0.00000000000E+00 -0.00000000000E+00 -0.29073384243E+03  0.29073384243E+03  0.00000000000E+00 0. -1.
         25    1    1    2    0    0 -0.64447199873E+02 -0.93909188371E+02  0.14168185547E+03  0.22061533356E+03  0.12500000000E+03 0.  0.
         25    1    1    2    0    0  0.15307461758E+03  0.51858620324E+02 -0.14366438314E+03  0.24977111528E+03  0.12500000000E+03 0.  0.
         25    1    1    2    0    0 -0.88627417703E+02  0.42050568047E+02  0.61162691458E+02  0.17026139982E+03  0.12500000000E+03 0.  0.
</event>
<event>
 5    0  0.5778875E-005  0.2467051E+03  0.7546771E-02  0.1115405E+00
         21   -1    0    0  502  501  0.00000000000E+00  0.00000000000E+00  0.15034670142E+03  0.15034670142E+03  0.00000000000E+00 0. -1.
         21   -1    0    0  501  502 -0.00000000000E+00 -0.00000000000E+00 -0.40482039051E+03  0.40482039051E+03  0.00000000000E+00 0. -1.
         25    1    1    2    0    0 -0.98269148594E+02 -0.16530625340E+02 -0.37150307157E+02  0.16411956758E+03  0.12500000000E+03 0.  0.
         25    1    1    2    0    0  0.93361617327E+02  0.86210833236E+02 -0.91191387215E+02  0.20022379594E+03  0.12500000000E+03 0.  0.
         25    1    1    2    0    0  0.49075312669E+01 -0.69680207896E+02 -0.12613199471E+03  0.19082372841E+03  0.12500000000E+03 0.  0.
</event>
<event>
 5    0  0.5778875E-005  0.2623177E+03  0.7546771E-02  0.1105759E+00
         21   -1    0    0  502  501  0.00000000000E+00  0.00000000000E+00  0.66197979857E+03  0.66197979857E+03  0.00000000000E+00 0. -1.
         21   -1    0    0  501  502 -0.00000000000E+00 -0.00000000000E+00 -0.10394661968E+03  0.10394661968E+03  0.00000000000E+00 0. -1.
         25    1    1    2    0    0 -0.92576887491E+02 -0.91792290412E+02  0.14933214835E+03  0.23435314209E+03  0.12500000000E+03 0.  0.
         25    1    1    2    0    0  0.99088830946E+02  0.12992954448E+03  0.28508043510E+03  0.35156242322E+03  0.12500000000E+03 0.  0.
         25    1    1    2    0    0 -0.65119434554E+01 -0.38137254071E+02  0.12362059545E+03  0.18001085293E+03  0.12500000000E+03 0.  0.
</event>
<event>
 5    0  0.5778875E-005  0.4271959E+03  0.7546771E-02  0.1034749E+00
         21   -1    0    0  502  501  0.00000000000E+00  0.00000000000E+00  0.12800780959E+03  0.12800780959E+03  0.00000000000E+00 0.  1.
         21   -1    0    0  501  502 -0.00000000000E+00 -0.00000000000E+00 -0.14256654247E+04  0.14256654247E+04  0.00000000000E+00 0.  1.
         25    1    1    2    0    0 -0.22459613329E+02  0.30179780626E+02  0.38263148318E+02  0.13603059181E+03  0.12500000000E+03 0.  0.
         25    1    1    2    0    0 -0.13859621449E+03 -0.10442487708E+03 -0.96060508151E+03  0.98412427480E+03  0.12500000000E+03 0.  0.
         25    1    1    2    0    0  0.16105582781E+03  0.74245096455E+02 -0.37531568188E+03  0.43351836765E+03  0.12500000000E+03 0.  0.
</event>
<event>
 5    0  0.5778875E-005  0.3551643E+03  0.7546771E-02  0.1060515E+00
         21   -1    0    0  502  501  0.00000000000E+00  0.00000000000E+00  0.12222585858E+04  0.12222585858E+04  0.00000000000E+00 0. -1.
         21   -1    0    0  501  502 -0.00000000000E+00 -0.00000000000E+00 -0.10320377944E+03  0.10320377944E+03  0.00000000000E+00 0. -1.
         25    1    1    2    0    0 -0.19722831480E+03 -0.72357374673E+02  0.49245838592E+03  0.54979528889E+03  0.12500000000E+03 0.  0.
         25    1    1    2    0    0  0.23998514393E+03  0.14223974556E+03  0.38536782678E+03  0.49189264727E+03  0.12500000000E+03 0.  0.
         25    1    1    2    0    0 -0.42756829126E+02 -0.69882370886E+02  0.24122859368E+03  0.28377442909E+03  0.12500000000E+03 0.  0.
</event>
<event>
 5    0  0.5778875E-005  0.2847292E+03  0.7546771E-02  0.1093134E+00
         21   -1    0    0  502  501  0.00000000000E+00  0.00000000000E+00  0.58022734763E+03  0.58022734763E+03  0.00000000000E+00 0. -1.
         21   -1    0    0  501  502 -0.00000000000E+00 -0.00000000000E+00 -0.13972233832E+03  0.13972233832E+03  0.00000000000E+00 0. -1.
         25    1    1    2    0    0  0.64759528052E+02 -0.12947027078E+03  0.18595491867E+03  0.26675940334E+03  0.12500000000E+03 0.  0.
         25    1    1    2    0    0  0.24751783468E+02  0.26334322164E+02 -0.97676341155E+01  0.13048583825E+03  0.12500000000E+03 0.  0.
         25    1    1    2    0    0 -0.89511311520E+02  0.10313594862E+03  0.26431772475E+03  0.32270444435E+03  0.12500000000E+03 0.  0.
</event>
<event>
 5    0  0.5778875E-005  0.2603880E+03  0.7546771E-02  0.1106910E+00
         21   -1    0    0  502  501  0.00000000000E+00  0.00000000000E+00  0.13473925232E+03  0.13473925232E+03  0.00000000000E+00 0. -1.
         21   -1    0    0  501  502 -0.00000000000E+00 -0.00000000000E+00 -0.50320814207E+03  0.50320814207E+03  0.00000000000E+00 0. -1.
         25    1    1    2    0    0  0.27429559883E+02 -0.68793746124E+02 -0.12187670880E+03  0.18964148388E+03  0.12500000000E+03 0.  0.
         25    1    1    2    0    0  0.80611961874E+02 -0.36696193607E+02 -0.29872397283E+02  0.15608414122E+03  0.12500000000E+03 0.  0.
         25    1    1    2    0    0 -0.10804152176E+03  0.10548993973E+03 -0.21671978367E+03  0.29222176928E+03  0.12500000000E+03 0.  0.
</event>
<event>
 5    0  0.5778875E-005  0.4409648E+03  0.7546771E-02  0.1030451E+00
         21   -1    0    0  502  501  0.00000000000E+00  0.00000000000E+00  0.57533042625E+03  0.57533042625E+03  0.00000000000E+00 0.  1.
         21   -1    0    0  501  502 -0.00000000000E+00 -0.00000000000E+00 -0.33797956588E+03  0.33797956588E+03  0.00000000000E+00 0.  1.
         25    1    1    2    0    0 -0.15865269959E+03  0.14400505832E+03  0.68044083495E+01  0.24815204186E+03  0.12500000000E+03 0.  0.
         25    1    1    2    0    0  0.32362417909E+03 -0.21118635714E+03  0.14276434247E+03  0.43051009769E+03  0.12500000000E+03 0.  0.
         25    1    1    2    0    0 -0.16497147951E+03  0.67181298813E+02  0.87782109542E+02  0.23464785257E+03  0.12500000000E+03 0.  0.
</event>
<event>
 5    0  0.5778875E-005  0.3386743E+03  0.7546771E-02  0.1067362E+00
         21   -1    0    0  502  501  0.00000000000E+00  0.00000000000E+00  0.13841213506E+03  0.13841213506E+03  0.00000000000E+00 0.  1.
         21   -1    0    0  501  502 -0.00000000000E+00 -0.00000000000E+00 -0.82868646482E+03  0.82868646482E+03  0.00000000000E+00 0.  1.
         25    1    1    2    0    0 -0.17464414515E+02 -0.96214822507E+02 -0.75997190577E+02  0.17596269724E+03  0.12500000000E+03 0.  0.
         25    1    1    2    0    0 -0.40668358090E+02 -0.15849169755E+03 -0.29879635501E+03  0.36287435196E+03  0.12500000000E+03 0.  0.
         25    1    1    2    0    0  0.58132772605E+02  0.25470652005E+03 -0.31548078418E+03  0.42826155068E+03  0.12500000000E+03 0.  0.
</event>
<event>
 5    0  0.5778875E-005  0.4452948E+03  0.7546771E-02  0.1029135E+00
         21   -1    0    0  502  501  0.00000000000E+00  0.00000000000E+00  0.60857039101E+03  0.60857039101E+03  0.00000000000E+00 0.  1.
         21   -1    0    0  501  502 -0.00000000000E+00 -0.00000000000E+00 -0.32582505303E+03  0.32582505303E+03  0.00000000000E+00 0.  1.
         25    1    1    2    0    0  0.20039201128E+03  0.46432618903E+02  0.20435592588E+02  0.24156895440E+03  0.12500000000E+03 0.  0.
         25    1    1    2    0    0 -0.54184828881E+02 -0.13422563311E+03 -0.14089168888E+03  0.23754575193E+03  0.12500000000E+03 0.  0.
         25    1    1    2    0    0 -0.14620718240E+03  0.87793014203E+02  0.40320143427E+03  0.45528073771E+03  0.12500000000E+03 0.  0.
</event>
<event>
 5    0  0.5778875E-005  0.2758441E+03  0.7546771E-02  0.1097981E+00
         21   -1    0    0  502  501  0.00000000000E+00  0.00000000000E+00  0.10624012828E+03  0.10624012828E+03  0.00000000000E+00 0.  1.
         21   -1    0    0  501  502 -0.00000000000E+00 -0.00000000000E+00 -0.71620729897E+03  0.71620729897E+03  0.00000000000E+00 0.  1.
         25    1    1    2    0    0  0.48003940855E+02  0.12188776465E+03 -0.34927933802E+03  0.39342351414E+03  0.12500000000E+03 0.  0.
         25    1    1    2    0    0 -0.64677492657E+02 -0.15493120296E+02 -0.28902346894E+02  0.14451145452E+03  0.12500000000E+03 0.  0.
         25    1    1    2    0    0  0.16673551802E+02 -0.10639464436E+03 -0.23178548577E+03  0.28451245859E+03  0.12500000000E+03 0.  0.
</event>
<event>
 5    0  0.5778875E-005  0.2930871E+03  0.7546771E-02  0.1088748E+00
         21   -1    0    0  502  501  0.00000000000E+00  0.00000000000E+00  0.13595780980E+03  0.13595780980E+03  0.00000000000E+00 0.  1.
         21   -1    0    0  501  502 -0.00000000000E+00 -0.00000000000E+00 -0.63181404938E+03  0.63181404938E+03  0.00000000000E+00 0.  1.
         25    1    1    2    0    0 -0.37066157974E+02 -0.15792293094E+02 -0.35995779437E+03  0.38316825327E+03  0.12500000000E+03 0.  0.
         25    1    1    2    0    0  0.54939878891E+02 -0.10957729709E+03 -0.30256570811E+02  0.17766832697E+03  0.12500000000E+03 0.  0.
         25    1    1    2    0    0 -0.17873720917E+02  0.12536959019E+03 -0.10564187441E+03  0.20693527894E+03  0.12500000000E+03 0.  0.
</event>
<event>
 5    0  0.5778875E-005  0.5343765E+03  0.7546771E-02  0.1005176E+00
         21   -1    0    0  502  501  0.00000000000E+00  0.00000000000E+00  0.77263501390E+03  0.77263501390E+03  0.00000000000E+00 0.  1.
         21   -1    0    0  501  502 -0.00000000000E+00 -0.00000000000E+00 -0.36959014445E+03  0.36959014445E+03  0.00000000000E+00 0.  1.
         25    1    1    2    0    0  0.18113769943E+03  0.16471807035E+02 -0.17649190564E+03  0.28258906443E+03  0.12500000000E+03 0.  0.
         25    1    1    2    0    0 -0.32732491289E+03 -0.52894574445E+02  0.56027854589E+03  0.66293022528E+03  0.12500000000E+03 0.  0.
         25    1    1    2    0    0  0.14618721346E+03  0.36422767410E+02  0.19258229192E+02  0.19670586864E+03  0.12500000000E+03 0.  0.
</event>
<event>
 5    0  0.5778875E-005  0.3874235E+03  0.7546771E-02  0.1048224E+00
         21   -1    0    0  502  501  0.00000000000E+00  0.00000000000E+00  0.64342315029E+02  0.64342315029E+02  0.00000000000E+00 0.  1.
         21   -1    0    0  501  502 -0.00000000000E+00 -0.00000000000E+00 -0.23327874306E+04  0.23327874306E+04  0.00000000000E+00 0.  1.
         25    1    1    2    0    0  0.15732986604E+03  0.46389128988E+02 -0.18206964549E+03  0.27509815311E+03  0.12500000000E+03 0.  0.
         25    1    1    2    0    0 -0.24097293681E+02 -0.11968589035E+02 -0.30138593465E+03  0.32738724516E+03  0.12500000000E+03 0.  0.
         25    1    1    2    0    0 -0.13323257236E+03 -0.34420539953E+02 -0.17849895355E+04  0.17946443474E+04  0.12500000000E+03 0.  0.
</event>
<event>
 5    0  0.5778875E-005  0.2403343E+03  0.7546771E-02  0.1119570E+00
         21   -1    0    0  502  501  0.00000000000E+00  0.00000000000E+00  0.17195771305E+03  0.17195771305E+03  0.00000000000E+00 0.  1.
         21   -1    0    0  501  502 -0.00000000000E+00 -0.00000000000E+00 -0.33590001024E+03  0.33590001024E+03  0.00000000000E+00 0. -1.
         25    1    1    2    0    0 -0.64957872850E+02 -0.10679845090E+03 -0.43552300101E+02  0.18206382728E+03  0.12500000000E+03 0.  0.
         25    1    1    2    0    0 -0.11378700899E+02  0.12058015871E+02 -0.70017528031E+02  0.14423011063E+03  0.12500000000E+03 0.  0.
         25    1    1    2    0    0  0.76336573749E+02  0.94740435031E+02 -0.50372469052E+02  0.18156378538E+03  0.12500000000E+03 0.  0.
</event>
<event>
 5    0  0.5778875E-005  0.3479570E+03  0.7546771E-02  0.1063457E+00
         21   -1    0    0  502  501  0.00000000000E+00  0.00000000000E+00  0.38371136150E+03  0.38371136150E+03  0.00000000000E+00 0.  1.
         21   -1    0    0  501  502 -0.00000000000E+00 -0.00000000000E+00 -0.31553431081E+03  0.31553431081E+03  0.00000000000E+00 0.  1.
         25    1    1    2    0    0  0.12412633967E+03  0.14178630293E+03 -0.13320931847E+03  0.26245080763E+03  0.12500000000E+03 0.  0.
         25    1    1    2    0    0 -0.31312642610E+02 -0.10269511614E+03 -0.17117799306E+02  0.16566468398E+03  0.12500000000E+03 0.  0.
         25    1    1    2    0    0 -0.92813697062E+02 -0.39091186788E+02  0.21850416847E+03  0.27113018070E+03  0.12500000000E+03 0.  0.
</event>
<event>
 5    0  0.5778875E-005  0.3037250E+03  0.7546771E-02  0.1083393E+00
         21   -1    0    0  502  501  0.00000000000E+00  0.00000000000E+00  0.90650296177E+03  0.90650296177E+03  0.00000000000E+00 0. -1.
         21   -1    0    0  501  502 -0.00000000000E+00 -0.00000000000E+00 -0.10176348294E+03  0.10176348294E+03  0.00000000000E+00 0. -1.
         25    1    1    2    0    0 -0.94949556228E+01  0.13136551538E+03  0.27195262612E+03  0.32700196279E+03  0.12500000000E+03 0.  0.
         25    1    1    2    0    0  0.16113002676E+03 -0.54189798070E+02  0.30275214955E+03  0.36903019361E+03  0.12500000000E+03 0.  0.
         25    1    1    2    0    0 -0.15163507113E+03 -0.77175717312E+02  0.23003470316E+03  0.31223428831E+03  0.12500000000E+03 0.  0.
</event>
<event>
 5    0  0.5778875E-005  0.2343262E+03  0.7546771E-02  0.1123631E+00
         21   -1    0    0  502  501  0.00000000000E+00  0.00000000000E+00  0.23249265209E+03  0.23249265209E+03  0.00000000000E+00 0.  1.
         21   -1    0    0  501  502 -0.00000000000E+00 -0.00000000000E+00 -0.23617422577E+03  0.23617422577E+03  0.00000000000E+00 0.  1.
         25    1    1    2    0    0  0.85580355230E+02  0.30072877384E+02  0.62413370722E+02  0.16657972266E+03  0.12500000000E+03 0.  0.
         25    1    1    2    0    0 -0.10141964688E+03  0.24552610643E+01 -0.60029386897E+02  0.17181530890E+03  0.12500000000E+03 0.  0.
         25    1    1    2    0    0  0.15839291652E+02 -0.32528138448E+02 -0.60655575095E+01  0.13027184630E+03  0.12500000000E+03 0.  0.
</event>
<event>
 5    0  0.5778875E-005  0.3230085E+03  0.7546771E-02  0.1074273E+00
         21   -1    0    0  502  501  0.00000000000E+00  0.00000000000E+00  0.17587146619E+03  0.17587146619E+03  0.00000000000E+00 0. -1.
         21   -1    0    0  501  502 -0.00000000000E+00 -0.00000000000E+00 -0.59324267342E+03  0.59324267342E+03  0.00000000000E+00 0. -1.
         25    1    1    2    0    0 -0.37812680884E+02  0.37895900684E+02 -0.33285444318E+03  0.35955942272E+03  0.12500000000E+03 0.  0.
         25    1    1    2    0    0  0.15135026235E+03 -0.94817082510E+02 -0.76998483319E+02  0.23119460954E+03  0.12500000000E+03 0.  0.
         25    1    1    2    0    0 -0.11353758147E+03  0.56921181826E+02 -0.75182807331E+01  0.17836010734E+03  0.12500000000E+03 0.  0.
</event>
<event>
 5    0  0.5778875E-005  0.4264177E+03  0.7546771E-02  0.1034998E+00
         21   -1    0    0  502  501  0.00000000000E+00  0.00000000000E+00  0.11707210832E+04  0.11707210832E+04  0.00000000000E+00 0.  1.
         21   -1    0    0  501  502 -0.00000000000E+00 -0.00000000000E+00 -0.15531626078E+03  0.15531626078E+03  0.00000000000E+00 0.  1.
         25    1    1    2    0    0 -0.15903899032E+03  0.25447154507E+03  0.12541328953E+03  0.34842884622E+03  0.12500000000E+03 0.  0.
         25    1    1    2    0    0  0.35934858966E+02 -0.15259392032E+03  0.47902876170E+03  0.51929738411E+03  0.12500000000E+03 0.  0.
         25    1    1    2    0    0  0.12310413135E+03 -0.10187762475E+03  0.41096277116E+03  0.45831111361E+03  0.12500000000E+03 0.  0.
</event>
<event>
 5    0  0.5907635E-005  0.3422083E+03  0.7546771E-02  0.1065859E+00
         21   -1    0    0  502  501  0.00000000000E+00  0.00000000000E+00  0.13816337445E+03  0.13816337445E+03  0.00000000000E+00 0. -1.
         21   -1    0    0  501  502 -0.00000000000E+00 -0.00000000000E+00 -0.84759457622E+03  0.84759457622E+03  0.00000000000E+00 0. -1.
         25    1    1    2    0    0 -0.94617453797E+02 -0.53588611039E+02 -0.25615578270E+02  0.16764653186E+03  0.12500000000E+03 0.  0.
         25    1    1    2    0    0  0.54390657259E+02 -0.77289608624E+02 -0.58975169982E+03  0.61021643262E+03  0.12500000000E+03 0.  0.
         25    1    1    2    0    0  0.40226796538E+02  0.13087821966E+03 -0.94063923681E+02  0.20789498618E+03  0.12500000000E+03 0.  0.
</event>
<event>
 5    0  0.5778875E-005  0.2526781E+03  0.7546771E-02  0.1111624E+00
         21   -1    0    0  502  501  0.00000000000E+00  0.00000000000E+00  0.84333663389E+02  0.84333663389E+02  0.00000000000E+00 0.  1.
         21   -1    0    0  501  502 -0.00000000000E+00 -0.00000000000E+00 -0.75706707603E+03  0.75706707603E+03  0.00000000000E+00 0.  1.
         25    1    1    2    0    0 -0.65502564530E+02 -0.13335124804E+03 -0.24470293786E+03  0.31237424528E+03  0.12500000000E+03 0.  0.
         25    1    1    2    0    0 -0.16072349350E+02  0.50847607512E+02 -0.14617536522E+03  0.19958967157E+03  0.12500000000E+03 0.  0.
         25    1    1    2    0    0  0.81574913880E+02  0.82503640531E+02 -0.28185510956E+03  0.32943682257E+03  0.12500000000E+03 0.  0.
</event>
<event>
 5    0  0.5778875E-005  0.2990151E+03  0.7546771E-02  0.1085734E+00
         21   -1    0    0  502  501  0.00000000000E+00  0.00000000000E+00  0.12644434190E+03  0.12644434190E+03  0.00000000000E+00 0.  1.
         21   -1    0    0  501  502 -0.00000000000E+00 -0.00000000000E+00 -0.70710982540E+03  0.70710982540E+03  0.00000000000E+00 0.  1.
         25    1    1    2    0    0 -0.21703661319E+02  0.10199343547E+03 -0.19752673672E+02  0.16397828488E+03  0.12500000000E+03 0.  0.
         25    1    1    2    0    0  0.13199172727E+03 -0.62009092008E+02 -0.25990146232E+03  0.32317288511E+03  0.12500000000E+03 0.  0.
         25    1    1    2    0    0 -0.11028806595E+03 -0.39984343461E+02 -0.30101134751E+03  0.34640299731E+03  0.12500000000E+03 0.  0.
</event>
<event>
 5    0  0.5778875E-005  0.3142222E+03  0.7546771E-02  0.1078340E+00
         21   -1    0    0  502  501  0.00000000000E+00  0.00000000000E+00  0.23128675624E+03  0.23128675624E+03  0.00000000000E+00 0.  1.
         21   -1    0    0  501  502 -0.00000000000E+00 -0.00000000000E+00 -0.42689699983E+03  0.42689699983E+03  0.00000000000E+00 0.  1.
         25    1    1    2    0    0  0.37424824605E+01 -0.44336473425E+02  0.34602888635E+02  0.13712070942E+03  0.12500000000E+03 0.  0.
         25    1    1    2    0    0 -0.15570811879E+03 -0.74059276001E+02 -0.19496168666E+03  0.28872972463E+03  0.12500000000E+03 0.  0.
         25    1    1    2    0    0  0.15196563633E+03  0.11839574943E+03 -0.35251445565E+02  0.23233332202E+03  0.12500000000E+03 0.  0.
</event>
<event>
 5    0  0.5778875E-005  0.2853606E+03  0.7546771E-02  0.1092797E+00
         21   -1    0    0  502  501  0.00000000000E+00  0.00000000000E+00  0.18948927587E+04  0.18948927587E+04  0.00000000000E+00 0.  1.
         21   -1    0    0  501  502 -0.00000000000E+00 -0.00000000000E+00 -0.42973770125E+02  0.42973770125E+02  0.00000000000E+00 0.  1.
         25    1    1    2    0    0  0.94484630317E+02  0.51305382283E+02  0.87544879993E+03  0.89083959775E+03  0.12500000000E+03 0.  0.
         25    1    1    2    0    0  0.41171988439E+02  0.77174976997E+02  0.42107623229E+03  0.44786304057E+03  0.12500000000E+03 0.  0.
         25    1    1    2    0    0 -0.13565661876E+03 -0.12848035928E+03  0.55539395633E+03  0.59916389048E+03  0.12500000000E+03 0.  0.
</event>
<event>
 5    0  0.5778875E-005  0.4847407E+03  0.7546771E-02  0.1017840E+00
         21   -1    0    0  502  501  0.00000000000E+00  0.00000000000E+00  0.10089686228E+04  0.10089686228E+04  0.00000000000E+00 0. -1.
         21   -1    0    0  501  502 -0.00000000000E+00 -0.00000000000E+00 -0.23288488124E+03  0.23288488124E+03  0.00000000000E+00 0. -1.
         25    1    1    2    0    0 -0.22094801366E+03 -0.24698677494E+03  0.18705921117E+03  0.40054542840E+03  0.12500000000E+03 0.  0.
         25    1    1    2    0    0  0.15429032782E+03  0.36132808811E+03  0.34981027822E+03  0.54069929098E+03  0.12500000000E+03 0.  0.
         25    1    1    2    0    0  0.66657685833E+02 -0.11434131317E+03  0.23921425221E+03  0.30060878470E+03  0.12500000000E+03 0.  0.
</event>
<event>
 5    0  0.5778875E-005  0.2492396E+03  0.7546771E-02  0.1113786E+00
         21   -1    0    0  502  501  0.00000000000E+00  0.00000000000E+00  0.11737384931E+03  0.11737384931E+03  0.00000000000E+00 0. -1.
         21   -1    0    0  501  502 -0.00000000000E+00 -0.00000000000E+00 -0.52925241056E+03  0.52925241056E+03  0.00000000000E+00 0. -1.
         25    1    1    2    0    0 -0.11058363026E+03 -0.69813921285E+01 -0.72736089225E+02  0.18218951066E+03  0.12500000000E+03 0.  0.
         25    1    1    2    0    0 -0.82186612225E+01  0.15765390410E+02 -0.22324287609E+03  0.25647314802E+03  0.12500000000E+03 0.  0.
         25    1    1    2    0    0  0.11880229148E+03 -0.87839982810E+01 -0.11589959593E+03  0.20796360120E+03  0.12500000000E+03 0.  0.
</event>
<event>
 5    0  0.5778875E-005  0.3301860E+03  0.7546771E-02  0.1071055E+00
         21   -1    0    0  502  501  0.00000000000E+00  0.00000000000E+00  0.40158730958E+03  0.40158730958E+03  0.00000000000E+00 0. -1.
         21   -1    0    0  501  502 -0.00000000000E+00 -0.00000000000E+00 -0.27147974772E+03  0.27147974772E+03  0.00000000000E+00 0. -1.
         25    1    1    2    0    0 -0.66281982050E+01 -0.78799065956E+02  0.31400910259E+03  0.34710220731E+03  0.12500000000E+03 0.  0.
         25    1    1    2    0    0  0.27866971937E+02  0.35305033244E+02 -0.70540163442E+02  0.15041252659E+03  0.12500000000E+03 0.  0.
         25    1    1    2    0    0 -0.21238773732E+02  0.43494032712E+02 -0.11336137729E+03  0.17555232340E+03  0.12500000000E+03 0.  0.
</event>
<event>
 5    0  0.5778875E-005  0.2422527E+03  0.7546771E-02  0.1118301E+00
         21   -1    0    0  502  501  0.00000000000E+00  0.00000000000E+00  0.51664945103E+02  0.51664945103E+02  0.00000000000E+00 0. -1.
         21   -1    0    0  501  502 -0.00000000000E+00 -0.00000000000E+00 -0.11359028876E+04  0.11359028876E+04  0.00000000000E+00 0. -1.
         25    1    1    2    0    0  0.47610364670E+02 -0.75264043713E+02 -0.46626544449E+03  0.49087665235E+03  0.12500000000E+03 0.  0.
         25    1    1    2    0    0  0.34383593814E+02  0.94392449044E+02 -0.40667727412E+03  0.43715394456E+03  0.12500000000E+03 0.  0.
         25    1    1    2    0    0 -0.81993958485E+02 -0.19128405331E+02 -0.21129522384E+03  0.25953723574E+03  0.12500000000E+03 0.  0.
</event>
<event>
 5    0  0.5778875E-005  0.5935745E+03  0.7546771E-02  0.9918827E-01
         21   -1    0    0  502  501  0.00000000000E+00  0.00000000000E+00  0.26315912870E+04  0.26315912870E+04  0.00000000000E+00 0.  1.
         21   -1    0    0  501  502 -0.00000000000E+00 -0.00000000000E+00 -0.13388501309E+03  0.13388501309E+03  0.00000000000E+00 0. -1.
         25    1    1    2    0    0  0.20090209271E+03 -0.11968312634E+03  0.11942621035E+03  0.29081492621E+03  0.12500000000E+03 0.  0.
         25    1    1    2    0    0 -0.20737172632E+03 -0.14724946621E+03  0.51162968317E+03  0.58487209788E+03  0.12500000000E+03 0.  0.
         25    1    1    2    0    0  0.64696336069E+01  0.26693259255E+03  0.18666503804E+04  0.18897892760E+04  0.12500000000E+03 0.  0.
</event>
<event>
 5    0  0.5778875E-005  0.2142247E+03  0.7546771E-02  0.1138263E+00
         21   -1    0    0  502  501  0.00000000000E+00  0.00000000000E+00  0.22876231695E+03  0.22876231695E+03  0.00000000000E+00 0. -1.
         21   -1    0    0  501  502 -0.00000000000E+00 -0.00000000000E+00 -0.20061101420E+03  0.20061101420E+03  0.00000000000E+00 0. -1.
         25    1    1    2    0    0 -0.33589742425E+02  0.31386699524E+02  0.71712924943E+02  0.15126512918E+03  0.12500000000E+03 0.  0.
         25    1    1    2    0    0  0.11457528020E+02  0.18800331373E+02 -0.60410840599E+02  0.14056741112E+03  0.12500000000E+03 0.  0.
         25    1    1    2    0    0  0.22132214405E+02 -0.50187030898E+02  0.16849218412E+02  0.13754079084E+03  0.12500000000E+03 0.  0.
</event>
<event>
 5    0  0.5778875E-005  0.5221799E+03  0.7546771E-02  0.1008146E+00
         21   -1    0    0  502  501  0.00000000000E+00  0.00000000000E+00  0.57413981701E+03  0.57413981701E+03  0.00000000000E+00 0. -1.
         21   -1    0    0  501  502 -0.00000000000E+00 -0.00000000000E+00 -0.47492240468E+03  0.47492240468E+03  0.00000000000E+00 0. -1.
         25    1    1    2    0    0  0.19201245625E+03  0.15337645654E+03  0.33435809792E+03  0.43337450135E+03  0.12500000000E+03 0.  0.
         25    1    1    2    0    0 -0.89522392049E+01  0.11451001531E+03 -0.20575169450E+03  0.26674228383E+03  0.12500000000E+03 0.  0.
         25    1    1    2    0    0 -0.18306021704E+03 -0.26788647185E+03 -0.29388991079E+02  0.34894543651E+03  0.12500000000E+03 0.  0.
</event>
<event>
 5    0  0.5778875E-005  0.2157153E+03  0.7546771E-02  0.1137118E+00
         21   -1    0    0  502  501  0.00000000000E+00  0.00000000000E+00  0.15243543928E+03  0.15243543928E+03  0.00000000000E+00 0. -1.
         21   -1    0    0  501  502 -0.00000000000E+00 -0.00000000000E+00 -0.30526434083E+03  0.30526434083E+03  0.00000000000E+00 0. -1.
         25    1    1    2    0    0  0.69314449151E+00  0.42560221639E+02 -0.14202254720E+03  0.19392590551E+03  0.12500000000E+03 0.  0.
         25    1    1    2    0    0 -0.56358647936E+01 -0.48135266490E+02  0.18034000376E+02  0.13527376694E+03  0.12500000000E+03 0.  0.
         25    1    1    2    0    0  0.49427203021E+01  0.55750448508E+01 -0.28840354725E+02  0.12850010766E+03  0.12500000000E+03 0.  0.
</event>
<event>
 5    0  0.5778875E-005  0.2707173E+03  0.7546771E-02  0.1100870E+00
         21   -1    0    0  502  501  0.00000000000E+00  0.00000000000E+00  0.97701772606E+03  0.97701772606E+03  0.00000000000E+00 0.  1.
         21   -1    0    0  501  502 -0.00000000000E+00 -0.00000000000E+00 -0.75011778687E+02  0.75011778687E+02  0.00000000000E+00 0.  1.
         25    1    1    2    0    0 -0.10789926558E+02  0.14136956514E+02  0.16830601252E+03  0.21040007107E+03  0.12500000000E+03 0.  0.
         25    1    1    2    0    0  0.15736094593E+03  0.50474883721E+02  0.41129727892E+03  0.46054384464E+03  0.12500000000E+03 0.  0.
         25    1    1    2    0    0 -0.14657101937E+03 -0.64611840235E+02  0.32240265593E+03  0.38108558904E+03  0.12500000000E+03 0.  0.
</event>
<event>
 5    0  0.5778875E-005  0.3110404E+03  0.7546771E-02  0.1079848E+00
         21   -1    0    0  502  501  0.00000000000E+00  0.00000000000E+00  0.24445068192E+03  0.24445068192E+03  0.00000000000E+00 0.  1.
         21   -1    0    0  501  502 -0.00000000000E+00 -0.00000000000E+00 -0.39576953479E+03  0.39576953479E+03  0.00000000000E+00 0.  1.
         25    1    1    2    0    0 -0.16584936859E+03 -0.16075879356E+03 -0.38721749051E+02  0.26546897487E+03  0.12500000000E+03 0.  0.
         25    1    1    2    0    0  0.36803686970E+02  0.96838462335E+02 -0.22689913823E+02  0.16392690856E+03  0.12500000000E+03 0.  0.
         25    1    1    2    0    0  0.12904568162E+03  0.63920331226E+02 -0.89907189990E+02  0.21082433328E+03  0.12500000000E+03 0.  0.
</event>
<event>
 5    0  0.5778875E-005  0.2308353E+03  0.7546771E-02  0.1126053E+00
         21   -1    0    0  502  501  0.00000000000E+00  0.00000000000E+00  0.13847417650E+04  0.13847417650E+04  0.00000000000E+00 0. -1.
         21   -1    0    0  501  502 -0.00000000000E+00 -0.00000000000E+00 -0.38480053885E+02  0.38480053885E+02  0.00000000000E+00 0. -1.
         25    1    1    2    0    0 -0.36693876328E+02  0.64461895661E+02  0.22186659609E+03  0.26523869064E+03  0.12500000000E+03 0.  0.
         25    1    1    2    0    0  0.57660396421E+02 -0.18548097585E+02  0.65775070435E+03  0.67225719953E+03  0.12500000000E+03 0.  0.
         25    1    1    2    0    0 -0.20966520092E+02 -0.45913798076E+02  0.46664441070E+03  0.48572592875E+03  0.12500000000E+03 0.  0.
</event>
<event>
 5    0  0.5778875E-005  0.3216268E+03  0.7546771E-02  0.1074903E+00
         21   -1    0    0  502  501  0.00000000000E+00  0.00000000000E+00  0.41304886231E+03  0.41304886231E+03  0.00000000000E+00 0.  1.
         21   -1    0    0  501  502 -0.00000000000E+00 -0.00000000000E+00 -0.25043957872E+03  0.25043957872E+03  0.00000000000E+00 0.  1.
         25    1    1    2    0    0  0.58476388195E+02 -0.37250296472E+02 -0.12925666667E+03  0.19271574518E+03  0.12500000000E+03 0.  0.
         25    1    1    2    0    0 -0.15853396787E+03  0.34136007014E+02  0.12704720476E+03  0.24096530493E+03  0.12500000000E+03 0.  0.
         25    1    1    2    0    0  0.10005757967E+03  0.31142894575E+01  0.16481874550E+03  0.22980739091E+03  0.12500000000E+03 0.  0.
</event>
<event>
 5    0  0.5778875E-005  0.2474366E+03  0.7546771E-02  0.1114936E+00
         21   -1    0    0  502  501  0.00000000000E+00  0.00000000000E+00  0.15700311085E+03  0.15700311085E+03  0.00000000000E+00 0. -1.
         21   -1    0    0  501  502 -0.00000000000E+00 -0.00000000000E+00 -0.38995954453E+03  0.38995954453E+03  0.00000000000E+00 0. -1.
         25    1    1    2    0    0  0.22943185800E+02 -0.18874977716E+02 -0.17635807278E+03  0.21819675615E+03  0.12500000000E+03 0.  0.
         25    1    1    2    0    0  0.10297781893E+02 -0.25898184917E+02 -0.12217039449E+03  0.17699538295E+03  0.12500000000E+03 0.  0.
         25    1    1    2    0    0 -0.33240967693E+02  0.44773162633E+02  0.65572033594E+02  0.15177051629E+03  0.12500000000E+03 0.  0.
</event>
<event>
 5    0  0.5778875E-005  0.3324531E+03  0.7546771E-02  0.1070057E+00
         21   -1    0    0  502  501  0.00000000000E+00  0.00000000000E+00  0.97103010827E+02  0.97103010827E+02  0.00000000000E+00 0. -1.
         21   -1    0    0  501  502 -0.00000000000E+00 -0.00000000000E+00 -0.11382247729E+04  0.11382247729E+04  0.00000000000E+00 0. -1.
         25    1    1    2    0    0 -0.72153542616E+02  0.35390917884E+02 -0.11409958893E+03  0.18735625684E+03  0.12500000000E+03 0.  0.
         25    1    1    2    0    0  0.12083751664E+03  0.16905412120E+03 -0.41764685124E+03  0.48294398606E+03  0.12500000000E+03 0.  0.
         25    1    1    2    0    0 -0.48683974025E+02 -0.20444503909E+03 -0.50937532189E+03  0.56502754082E+03  0.12500000000E+03 0.  0.
</event>
<event>
 5    0  0.5778875E-005  0.2690902E+03  0.7546771E-02  0.1101801E+00
         21   -1    0    0  502  501  0.00000000000E+00  0.00000000000E+00  0.66129865380E+03  0.66129865380E+03  0.00000000000E+00 0. -1.
         21   -1    0    0  501  502 -0.00000000000E+00 -0.00000000000E+00 -0.10949599838E+03  0.10949599838E+03  0.00000000000E+00 0. -1.
         25    1    1    2    0    0  0.94848225277E+02 -0.60284268772E+02  0.50350998047E+02  0.17547251039E+03  0.12500000000E+03 0.  0.
         25    1    1    2    0    0 -0.69913256422E+02 -0.26365790284E+02  0.35066752724E+03  0.37970479716E+03  0.12500000000E+03 0.  0.
         25    1    1    2    0    0 -0.24934968854E+02  0.86650059056E+02  0.15078413013E+03  0.21561734463E+03  0.12500000000E+03 0.  0.
</event>
<event>
 5    0  0.5778875E-005  0.3373051E+03  0.7546771E-02  0.1067950E+00
         21   -1    0    0  502  501  0.00000000000E+00  0.00000000000E+00  0.55593038634E+03  0.55593038634E+03  0.00000000000E+00 0. -1.
         21   -1    0    0  501  502 -0.00000000000E+00 -0.00000000000E+00 -0.20465646929E+03  0.20465646929E+03  0.00000000000E+00 0. -1.
         25    1    1    2    0    0  0.16439212781E+03  0.41683154804E+02 -0.72348733369E+02  0.22275905437E+03  0.12500000000E+03 0.  0.
         25    1    1    2    0    0 -0.67444997302E+02 -0.55118009824E+02  0.11541519619E+03  0.19113474352E+03  0.12500000000E+03 0.  0.
         25    1    1    2    0    0 -0.96947130512E+02  0.13434855020E+02  0.30820745423E+03  0.34669305775E+03  0.12500000000E+03 0.  0.
</event>
<event>
 5    0  0.5778875E-005  0.3524661E+03  0.7546771E-02  0.1061607E+00
         21   -1    0    0  502  501  0.00000000000E+00  0.00000000000E+00  0.84823247963E+03  0.84823247963E+03  0.00000000000E+00 0.  1.
         21   -1    0    0  501  502 -0.00000000000E+00 -0.00000000000E+00 -0.14646028324E+03  0.14646028324E+03  0.00000000000E+00 0.  1.
         25    1    1    2    0    0 -0.28587198046E+03  0.40222440524E+02  0.33830906761E+03  0.46197257404E+03  0.12500000000E+03 0.  0.
         25    1    1    2    0    0  0.14890217846E+03 -0.46209174942E+02  0.14977854100E+03  0.24973137156E+03  0.12500000000E+03 0.  0.
         25    1    1    2    0    0  0.13696980200E+03  0.59867344184E+01  0.21368458778E+03  0.28298881728E+03  0.12500000000E+03 0.  0.
</event>
<event>
 5    0  0.5778875E-005  0.5716869E+03  0.7546771E-02  0.9965953E-01
         21   -1    0    0  502  501  0.00000000000E+00  0.00000000000E+00  0.18992417709E+03  0.18992417709E+03  0.00000000000E+00 0.  1.
         21   -1    0    0  501  502 -0.00000000000E+00 -0.00000000000E+00 -0.17208232256E+04  0.17208232256E+04  0.00000000000E+00 0.  1.
         25    1    1    2    0    0 -0.21162692676E+03 -0.46729393956E+03 -0.67163376592E+03  0.85432224459E+03  0.12500000000E+03 0.  0.
         25    1    1    2    0    0  0.95099027070E+02  0.36944601553E+03 -0.68246551830E+03  0.79178176729E+03  0.12500000000E+03 0.  0.
         25    1    1    2    0    0  0.11652789969E+03  0.97847924027E+02 -0.17679976427E+03  0.26464339079E+03  0.12500000000E+03 0.  0.
</event>
<event>
 5    0  0.5778875E-005  0.3155749E+03  0.7546771E-02  0.1077704E+00
         21   -1    0    0  502  501  0.00000000000E+00  0.00000000000E+00  0.25487088534E+03  0.25487088534E+03  0.00000000000E+00 0.  1.
         21   -1    0    0  501  502 -0.00000000000E+00 -0.00000000000E+00 -0.39073713871E+03  0.39073713871E+03  0.00000000000E+00 0.  1.
         25    1    1    2    0    0  0.16276667248E+02  0.10897778900E+03  0.71379136250E+02  0.18127622426E+03  0.12500000000E+03 0.  0.
         25    1    1    2    0    0 -0.67356871815E+02 -0.13868427586E+03  0.18782370628E+02  0.19936914003E+03  0.12500000000E+03 0.  0.
         25    1    1    2    0    0  0.51080204568E+02  0.29706486864E+02 -0.22602776025E+03  0.26496265975E+03  0.12500000000E+03 0.  0.
</event>
<event>
 5    0  0.5778875E-005  0.3498489E+03  0.7546771E-02  0.1062677E+00
         21   -1    0    0  502  501  0.00000000000E+00  0.00000000000E+00  0.14240882373E+03  0.14240882373E+03  0.00000000000E+00 0. -1.
         21   -1    0    0  501  502 -0.00000000000E+00 -0.00000000000E+00 -0.85945672775E+03  0.85945672775E+03  0.00000000000E+00 0. -1.
         25    1    1    2    0    0 -0.44718981490E+02  0.92319586155E+02 -0.18846485995E+03  0.24832780096E+03  0.12500000000E+03 0.  0.
         25    1    1    2    0    0  0.67332309757E+02  0.30266776417E+02 -0.55622208351E+03  0.57485452409E+03  0.12500000000E+03 0.  0.
         25    1    1    2    0    0 -0.22613328267E+02 -0.12258636257E+03  0.27639039440E+02  0.17868322642E+03  0.12500000000E+03 0.  0.
</event>
<event>
 5    0  0.5778875E-005  0.3047907E+03  0.7546771E-02  0.1082870E+00
         21   -1    0    0  502  501  0.00000000000E+00  0.00000000000E+00  0.27066016107E+03  0.27066016107E+03  0.00000000000E+00 0.  1.
         21   -1    0    0  501  502 -0.00000000000E+00 -0.00000000000E+00 -0.34322504889E+03  0.34322504889E+03  0.00000000000E+00 0.  1.
         25    1    1    2    0    0 -0.20155703979E+02  0.60128888964E+02  0.10944249846E+03  0.17783249467E+03  0.12500000000E+03 0.  0.
         25    1    1    2    0    0 -0.12060667507E+03 -0.10571958420E+01 -0.16237267190E+03  0.23777504561E+03  0.12500000000E+03 0.  0.
         25    1    1    2    0    0  0.14076237905E+03 -0.59071693122E+02 -0.19634714369E+02  0.19827766968E+03  0.12500000000E+03 0.  0.
</event>
<event>
 5    0  0.5778875E-005  0.3920862E+03  0.7546771E-02  0.1046555E+00
         21   -1    0    0  502  501  0.00000000000E+00  0.00000000000E+00  0.21617000267E+03  0.21617000267E+03  0.00000000000E+00 0. -1.
         21   -1    0    0  501  502 -0.00000000000E+00 -0.00000000000E+00 -0.71116057333E+03  0.71116057333E+03  0.00000000000E+00 0. -1.
         25    1    1    2    0    0 -0.51113536652E+02 -0.24586977719E+02  0.50051696507E+02  0.14610710258E+03  0.12500000000E+03 0.  0.
         25    1    1    2    0    0  0.16576736633E+03 -0.84329348722E+02 -0.27448071267E+02  0.22576238707E+03  0.12500000000E+03 0.  0.
         25    1    1    2    0    0 -0.11465382968E+03  0.10891632644E+03 -0.51759419589E+03  0.55546108635E+03  0.12500000000E+03 0.  0.
</event>
<event>
 5    0  0.5778875E-005  0.3368464E+03  0.7546771E-02  0.1068147E+00
         21   -1    0    0  502  501  0.00000000000E+00  0.00000000000E+00  0.18868226379E+04  0.18868226379E+04  0.00000000000E+00 0. -1.
         21   -1    0    0  501  502 -0.00000000000E+00 -0.00000000000E+00 -0.60135768707E+02  0.60135768707E+02  0.00000000000E+00 0. -1.
         25    1    1    2    0    0 -0.61513727218E+02  0.14645995997E+03  0.11550753200E+04  0.11726288643E+04  0.12500000000E+03 0.  0.
         25    1    1    2    0    0 -0.65491389050E+00 -0.15808720485E+03  0.56016655771E+03  0.59531803738E+03  0.12500000000E+03 0.  0.
         25    1    1    2    0    0  0.62168641108E+02  0.11627244885E+02  0.11144499141E+03  0.17901150485E+03  0.12500000000E+03 0.  0.
</event>
<event>
 5    0  0.5778875E-005  0.3769879E+03  0.7546771E-02  0.1052053E+00
         21   -1    0    0  502  501  0.00000000000E+00  0.00000000000E+00  0.48897185577E+03  0.48897185577E+03  0.00000000000E+00 0.  1.
         21   -1    0    0  501  502 -0.00000000000E+00 -0.00000000000E+00 -0.29065037442E+03  0.29065037442E+03  0.00000000000E+00 0.  1.
         25    1    1    2    0    0 -0.31169237216E+02  0.69433912592E+02  0.10394422453E+03  0.17950485058E+03  0.12500000000E+03 0.  0.
         25    1    1    2    0    0  0.33631257956E+02  0.23031696515E+03  0.75560778034E+02  0.27479337169E+03  0.12500000000E+03 0.  0.
         25    1    1    2    0    0 -0.24620207405E+01 -0.29975087774E+03  0.18816478784E+02  0.32532400792E+03  0.12500000000E+03 0.  0.
</event>
<event>
 5    0  0.5778875E-005  0.3703736E+03  0.7546771E-02  0.1054550E+00
         21   -1    0    0  502  501  0.00000000000E+00  0.00000000000E+00  0.77513147172E+02  0.77513147172E+02  0.00000000000E+00 0. -1.
         21   -1    0    0  501  502 -0.00000000000E+00 -0.00000000000E+00 -0.17697208446E+04  0.17697208446E+04  0.00000000000E+00 0. -1.
         25    1    1    2    0    0  0.18434774441E+02  0.77505439412E+01 -0.14975578491E+03  0.19609106801E+03  0.12500000000E+03 0.  0.
         25    1    1    2    0    0 -0.57690561360E+00 -0.12694963369E+03 -0.14369672230E+04  0.14479697312E+04  0.12500000000E+03 0.  0.
         25    1    1    2    0    0 -0.17857868827E+02  0.11919908975E+03 -0.10548468951E+03  0.20317319261E+03  0.12500000000E+03 0.  0.
</event>
<event>
 5    0  0.5778875E-005  0.2700975E+03  0.7546771E-02  0.1101224E+00
         21   -1    0    0  502  501  0.00000000000E+00  0.00000000000E+00  0.10319516199E+04  0.10319516199E+04  0.00000000000E+00 0. -1.
         21   -1    0    0  501  502 -0.00000000000E+00 -0.00000000000E+00 -0.70693885315E+02  0.70693885315E+02  0.00000000000E+00 0. -1.
         25    1    1    2    0    0  0.68600688096E+02 -0.21238152639E+02  0.14271017032E+03  0.20285045291E+03  0.12500000000E+03 0.  0.
         25    1    1    2    0    0 -0.15107853663E+03 -0.57934252308E+01  0.29261063001E+03  0.35228435787E+03  0.12500000000E+03 0.  0.
         25    1    1    2    0    0  0.82477848533E+02  0.27031577870E+02  0.52593693422E+03  0.54751069439E+03  0.12500000000E+03 0.  0.
</event>
<event>
 5    0  0.5778875E-005  0.2870942E+03  0.7546771E-02  0.1091876E+00
         21   -1    0    0  502  501  0.00000000000E+00  0.00000000000E+00  0.25398499338E+04  0.25398499338E+04  0.00000000000E+00 0. -1.
         21   -1    0    0  501  502 -0.00000000000E+00 -0.00000000000E+00 -0.32451951160E+02  0.32451951160E+02  0.00000000000E+00 0. -1.
         25    1    1    2    0    0  0.31015451373E+02  0.71781951919E+01  0.25836699665E+03  0.28877671247E+03  0.12500000000E+03 0.  0.
         25    1    1    2    0    0 -0.33805091977E+02  0.12520517213E+03  0.66148894658E+03  0.68557402650E+03  0.12500000000E+03 0.  0.
         25    1    1    2    0    0  0.27896406047E+01 -0.13238336733E+03  0.15875420394E+04  0.15979511460E+04  0.12500000000E+03 0.  0.
</event>
<event>
 5    0  0.5902260E-005  0.2913849E+03  0.7546771E-02  0.1089628E+00
         21   -1    0    0  502  501  0.00000000000E+00  0.00000000000E+00  0.42012787271E+03  0.42012787271E+03  0.00000000000E+00 0.  1.
         21   -1    0    0  501  502 -0.00000000000E+00 -0.00000000000E+00 -0.20209356619E+03  0.20209356619E+03  0.00000000000E+00 0.  1.
         25    1    1    2    0    0  0.14049876793E+03 -0.58959226411E+02  0.85071246108E+02  0.21465835899E+03  0.12500000000E+03 0.  0.
         25    1    1    2    0    0 -0.12091197370E+03  0.14226181806E+03  0.12202734936E+03  0.25568301518E+03  0.12500000000E+03 0.  0.
         25    1    1    2    0    0 -0.19586794230E+02 -0.83302591653E+02  0.10935711058E+02  0.15188006472E+03  0.12500000000E+03 0.  0.
</event>
<event>
 5    0  0.5778875E-005  0.3080755E+03  0.7546771E-02  0.1081272E+00
         21   -1    0    0  502  501  0.00000000000E+00  0.00000000000E+00  0.58694446079E+03  0.58694446079E+03  0.00000000000E+00 0.  1.
         21   -1    0    0  501  502 -0.00000000000E+00 -0.00000000000E+00 -0.16170270068E+03  0.16170270068E+03  0.00000000000E+00 0.  1.
         25    1    1    2    0    0 -0.10410745388E+03 -0.41598997372E+02  0.33487388348E+02  0.17121694926E+03  0.12500000000E+03 0.  0.
         25    1    1    2    0    0  0.16761490034E+03  0.82513137450E+02  0.89896582855E+02  0.24209413103E+03  0.12500000000E+03 0.  0.
         25    1    1    2    0    0 -0.63507446457E+02 -0.40914140078E+02  0.30185778891E+03  0.33533608117E+03  0.12500000000E+03 0.  0.
</event>
<event>
 5    0  0.5778875E-005  0.2781787E+03  0.7546771E-02  0.1096688E+00
         21   -1    0    0  502  501  0.00000000000E+00  0.00000000000E+00  0.18858247105E+03  0.18858247105E+03  0.00000000000E+00 0.  1.
         21   -1    0    0  501  502 -0.00000000000E+00 -0.00000000000E+00 -0.41034244651E+03  0.41034244651E+03  0.00000000000E+00 0.  1.
         25    1    1    2    0    0  0.60191798188E+02  0.71333194342E+02 -0.20261815622E+03  0.25571584701E+03  0.12500000000E+03 0.  0.
         25    1    1    2    0    0  0.14368776943E+02  0.13666116902E+02  0.78001172176E+02  0.14866878409E+03  0.12500000000E+03 0.  0.
         25    1    1    2    0    0 -0.74560575131E+02 -0.84999311244E+02 -0.97142991417E+02  0.19454028646E+03  0.12500000000E+03 0.  0.
</event>
<event>
 5    0  0.5778875E-005  0.2085623E+03  0.7546771E-02  0.1142710E+00
         21   -1    0    0  502  501  0.00000000000E+00  0.00000000000E+00  0.24786381041E+03  0.24786381041E+03  0.00000000000E+00 0. -1.
         21   -1    0    0  501  502 -0.00000000000E+00 -0.00000000000E+00 -0.17549239713E+03  0.17549239713E+03  0.00000000000E+00 0. -1.
         25    1    1    2    0    0  0.59163084333E+02 -0.29230535513E+02 -0.69189364980E+01  0.14151878475E+03  0.12500000000E+03 0.  0.
         25    1    1    2    0    0  0.47451085248E+01  0.20943792024E+02  0.58509005840E+02  0.13967627660E+03  0.12500000000E+03 0.  0.
         25    1    1    2    0    0 -0.63908192858E+02  0.82867434888E+01  0.20781343947E+02  0.14216114620E+03  0.12500000000E+03 0.  0.
</event>
<event>
 5    0  0.6340923E-005  0.5362569E+03  0.7546771E-02  0.1004726E+00
         21   -1    0    0  502  501  0.00000000000E+00  0.00000000000E+00  0.81136655363E+03  0.81136655363E+03  0.00000000000E+00 0. -1.
         21   -1    0    0  501  502 -0.00000000000E+00 -0.00000000000E+00 -0.35442850458E+03  0.35442850458E+03  0.00000000000E+00 0. -1.
         25    1    1    2    0    0 -0.99046594440E+02 -0.24601403735E+03  0.20628820688E+03  0.35848704124E+03  0.12500000000E+03 0.  0.
         25    1    1    2    0    0 -0.26372489493E+03  0.22523233228E+03  0.44762373604E+02  0.37136113663E+03  0.12500000000E+03 0.  0.
         25    1    1    2    0    0  0.36277148937E+03  0.20781705073E+02  0.20588746857E+03  0.43594688034E+03  0.12500000000E+03 0.  0.
</event>
<event>
 5    0  0.5778875E-005  0.4080162E+03  0.7546771E-02  0.1041039E+00
         21   -1    0    0  502  501  0.00000000000E+00  0.00000000000E+00  0.10178811412E+04  0.10178811412E+04  0.00000000000E+00 0.  1.
         21   -1    0    0  501  502 -0.00000000000E+00 -0.00000000000E+00 -0.16355273244E+03  0.16355273244E+03  0.00000000000E+00 0.  1.
         25    1    1    2    0    0  0.16276470768E+03  0.33489069497E+02  0.40039257354E+03  0.45116857248E+03  0.12500000000E+03 0.  0.
         25    1    1    2    0    0  0.37672274769E+02  0.19922638445E+03  0.15812586129E+03  0.28590057810E+03  0.12500000000E+03 0.  0.
         25    1    1    2    0    0 -0.20043698244E+03 -0.23271545394E+03  0.29580997392E+03  0.44436472307E+03  0.12500000000E+03 0.  0.
</event>
<event>
 5    0  0.5778875E-005  0.2409017E+03  0.7546771E-02  0.1119194E+00
         21   -1    0    0  502  501  0.00000000000E+00  0.00000000000E+00  0.59280362247E+02  0.59280362247E+02  0.00000000000E+00 0. -1.
         21   -1    0    0  501  502 -0.00000000000E+00 -0.00000000000E+00 -0.97896873450E+03  0.97896873450E+03  0.00000000000E+00 0. -1.
         25    1    1    2    0    0  0.54440425029E+02 -0.10419142014E+02 -0.51782724596E+03  0.53557667523E+03  0.12500000000E+03 0.  0.
         25    1    1    2    0    0  0.74172040430E+01  0.13125522885E+01 -0.31281947200E+03  0.33695364632E+03  0.12500000000E+03 0.  0.
         25    1    1    2    0    0 -0.61857629072E+02  0.91065897254E+01 -0.89041654298E+02  0.16571877519E+03  0.12500000000E+03 0.  0.
</event>
<event>
 5    0  0.5778875E-005  0.3759587E+03  0.7546771E-02  0.1052438E+00
         21   -1    0    0  502  501  0.00000000000E+00  0.00000000000E+00  0.10276987650E+03  0.10276987650E+03  0.00000000000E+00 0. -1.
         21   -1    0    0  501  502 -0.00000000000E+00 -0.00000000000E+00 -0.13753535536E+04  0.13753535536E+04  0.00000000000E+00 0. -1.
         25    1    1    2    0    0 -0.41118944134E+02 -0.51863003037E+02  0.23909156467E+02  0.14344750403E+03  0.12500000000E+03 0.  0.
         25    1    1    2    0    0 -0.65012384731E+02  0.29546820108E+02 -0.46115070640E+03  0.48309895338E+03  0.12500000000E+03 0.  0.
         25    1    1    2    0    0  0.10613132887E+03  0.22316182929E+02 -0.83534212712E+03  0.85157697263E+03  0.12500000000E+03 0.  0.
</event>
<event>
 5    0  0.5778875E-005  0.2650357E+03  0.7546771E-02  0.1104155E+00
         21   -1    0    0  502  501  0.00000000000E+00  0.00000000000E+00  0.11466241370E+03  0.11466241370E+03  0.00000000000E+00 0. -1.
         21   -1    0    0  501  502 -0.00000000000E+00 -0.00000000000E+00 -0.61261484266E+03  0.61261484266E+03  0.00000000000E+00 0. -1.
         25    1    1    2    0    0  0.81735644433E+01  0.74783576513E+02 -0.27023626063E+03  0.30710263273E+03  0.12500000000E+03 0.  0.
         25    1    1    2    0    0 -0.10616989337E+03 -0.95950976154E+02 -0.96745257582E+02  0.21322120192E+03  0.12500000000E+03 0.  0.
         25    1    1    2    0    0  0.97996328930E+02  0.21167399642E+02 -0.13097091076E+03  0.20695342171E+03  0.12500000000E+03 0.  0.
</event>
<event>
 5    0  0.5778875E-005  0.3742234E+03  0.7546771E-02  0.1053090E+00
         21   -1    0    0  502  501  0.00000000000E+00  0.00000000000E+00  0.11068027888E+03  0.11068027888E+03  0.00000000000E+00 0. -1.
         21   -1    0    0  501  502 -0.00000000000E+00 -0.00000000000E+00 -0.12652946939E+04  0.12652946939E+04  0.00000000000E+00 0. -1.
         25    1    1    2    0    0 -0.27911562278E+02 -0.13786918087E+03 -0.32842796966E+03  0.37851934904E+03  0.12500000000E+03 0.  0.
         25    1    1    2    0    0 -0.20048104954E+02  0.10091479838E+03 -0.22686948041E+01  0.16191315580E+03  0.12500000000E+03 0.  0.
         25    1    1    2    0    0  0.47959667232E+02  0.36954382485E+02 -0.82391775059E+03  0.83554246798E+03  0.12500000000E+03 0.  0.
</event>
<event>
 5    0  0.5778875E-005  0.2220246E+03  0.7546771E-02  0.1132383E+00
         21   -1    0    0  502  501  0.00000000000E+00  0.00000000000E+00  0.68689615469E+03  0.68689615469E+03  0.00000000000E+00 0.  1.
         21   -1    0    0  501  502 -0.00000000000E+00 -0.00000000000E+00 -0.71764743866E+02  0.71764743866E+02  0.00000000000E+00 0.  1.
         25    1    1    2    0    0 -0.59909313568E+02  0.14962632605E+02  0.25869013261E+03  0.29386832244E+03  0.12500000000E+03 0.  0.
         25    1    1    2    0    0  0.18944650890E+02 -0.81022464716E+02  0.16155991068E+03  0.22056777717E+03  0.12500000000E+03 0.  0.
         25    1    1    2    0    0  0.40964662678E+02  0.66059832112E+02  0.19488136753E+03  0.24422479894E+03  0.12500000000E+03 0.  0.
</event>
<event>
 5    0  0.5778875E-005  0.4396406E+03  0.7546771E-02  0.1030857E+00
         21   -1    0    0  502  501  0.00000000000E+00  0.00000000000E+00  0.21639171926E+04  0.21639171926E+04  0.00000000000E+00 0.  1.
         21   -1    0    0  501  502 -0.00000000000E+00 -0.00000000000E+00 -0.89321274376E+02  0.89321274376E+02  0.00000000000E+00 0.  1.
         25    1    1    2    0    0  0.16247225511E+03  0.80256420511E+02  0.95930645763E+02  0.24013749293E+03  0.12500000000E+03 0.  0.
         25    1    1    2    0    0  0.25891365513E+02 -0.97377449226E+01  0.87497119476E+03  0.88428772362E+03  0.12500000000E+03 0.  0.
         25    1    1    2    0    0 -0.18836362063E+03 -0.70518675588E+02  0.11036940777E+04  0.11288132504E+04  0.12500000000E+03 0.  0.
</event>
<event>
 5    0  0.5778875E-005  0.2605099E+03  0.7546771E-02  0.1106837E+00
         21   -1    0    0  502  501  0.00000000000E+00  0.00000000000E+00  0.11395801465E+04  0.11395801465E+04  0.00000000000E+00 0. -1.
         21   -1    0    0  501  502 -0.00000000000E+00 -0.00000000000E+00 -0.59552999291E+02  0.59552999291E+02  0.00000000000E+00 0. -1.
         25    1    1    2    0    0  0.11903355206E+03 -0.78212160617E+02  0.27425199103E+03  0.33335459074E+03  0.12500000000E+03 0.  0.
         25    1    1    2    0    0 -0.51179862080E+02 -0.10771312895E+02  0.48764285401E+03  0.50611851629E+03  0.12500000000E+03 0.  0.
         25    1    1    2    0    0 -0.67853689978E+02  0.88983473512E+02  0.31813230221E+03  0.35966003880E+03  0.12500000000E+03 0.  0.
</event>
<event>
 5    0  0.5778875E-005  0.3782489E+03  0.7546771E-02  0.1051583E+00
         21   -1    0    0  502  501  0.00000000000E+00  0.00000000000E+00  0.39256477247E+03  0.39256477247E+03  0.00000000000E+00 0. -1.
         21   -1    0    0  501  502 -0.00000000000E+00 -0.00000000000E+00 -0.36445508901E+03  0.36445508901E+03  0.00000000000E+00 0. -1.
         25    1    1    2    0    0 -0.15274754398E+03 -0.90724458974E+01  0.12005461781E+03  0.23119738910E+03  0.12500000000E+03 0.  0.
         25    1    1    2    0    0  0.48539129857E+02  0.32373454388E+02 -0.25774224667E+03  0.29233568615E+03  0.12500000000E+03 0.  0.
         25    1    1    2    0    0  0.10420841413E+03 -0.23301008491E+02  0.16579731232E+03  0.23348678623E+03  0.12500000000E+03 0.  0.
</event>
<event>
 5    0  0.5778875E-005  0.4170567E+03  0.7546771E-02  0.1038029E+00
         21   -1    0    0  502  501  0.00000000000E+00  0.00000000000E+00  0.18594329928E+04  0.18594329928E+04  0.00000000000E+00 0. -1.
         21   -1    0    0  501  502 -0.00000000000E+00 -0.00000000000E+00 -0.93542644771E+02  0.93542644771E+02  0.00000000000E+00 0. -1.
         25    1    1    2    0    0 -0.12103075756E+03  0.14941483122E+01  0.92994822192E+03  0.94608634501E+03  0.12500000000E+03 0.  0.
         25    1    1    2    0    0  0.23426018833E+03  0.99101405100E+02  0.21529803969E+03  0.35591736432E+03  0.12500000000E+03 0.  0.
         25    1    1    2    0    0 -0.11322943077E+03 -0.10059555341E+03  0.62064408641E+03  0.65097192824E+03  0.12500000000E+03 0.  0.
</event>
<event>
 5    0  0.5778875E-005  0.2767614E+03  0.7546771E-02  0.1097471E+00
         21   -1    0    0  502  501  0.00000000000E+00  0.00000000000E+00  0.70910074471E+03  0.70910074471E+03  0.00000000000E+00 0.  1.
         21   -1    0    0  501  502 -0.00000000000E+00 -0.00000000000E+00 -0.10801976402E+03  0.10801976402E+03  0.00000000000E+00 0.  1.
         25    1    1    2    0    0 -0.48208527606E+02  0.10470614665E+03  0.27001444670E+03  0.31909284026E+03  0.12500000000E+03 0.  0.
         25    1    1    2    0    0 -0.51393013867E+01  0.47699979434E+02  0.35035405641E+02  0.13839862754E+03  0.12500000000E+03 0.  0.
         25    1    1    2    0    0  0.53347828993E+02 -0.15240612608E+03  0.29603112835E+03  0.35962904093E+03  0.12500000000E+03 0.  0.
</event>
<event>
 5    0  0.5778875E-005  0.3920725E+03  0.7546771E-02  0.1046560E+00
         21   -1    0    0  502  501  0.00000000000E+00  0.00000000000E+00  0.51628257294E+03  0.51628257294E+03  0.00000000000E+00 0. -1.
         21   -1    0    0  501  502 -0.00000000000E+00 -0.00000000000E+00 -0.29774549369E+03  0.29774549369E+03  0.00000000000E+00 0. -1.
         25    1    1    2    0    0 -0.45901351643E+02  0.22270197750E+02  0.46351830541E+00  0.13501152040E+03  0.12500000000E+03 0.  0.
         25    1    1    2    0    0  0.16762971878E+03 -0.92197127946E+02  0.37164722308E+03  0.43628739547E+03  0.12500000000E+03 0.  0.
         25    1    1    2    0    0 -0.12172836713E+03  0.69926930197E+02 -0.15357366214E+03  0.24272915077E+03  0.12500000000E+03 0.  0.
</event>
<event>
 5    0  0.5778875E-005  0.2548484E+03  0.7546771E-02  0.1110278E+00
         21   -1    0    0  502  501  0.00000000000E+00  0.00000000000E+00  0.18733126770E+03  0.18733126770E+03  0.00000000000E+00 0.  1.
         21   -1    0    0  501  502 -0.00000000000E+00 -0.00000000000E+00 -0.34669985005E+03  0.34669985005E+03  0.00000000000E+00 0.  1.
         25    1    1    2    0    0 -0.34913997811E+02 -0.10036113630E+03  0.76922640284E+00  0.16406381878E+03  0.12500000000E+03 0.  0.
         25    1    1    2    0    0  0.52215432861E+02 -0.38837659251E+02 -0.99606690628E+02  0.17257261667E+03  0.12500000000E+03 0.  0.
         25    1    1    2    0    0 -0.17301435050E+02  0.13919879555E+03 -0.60531118128E+02  0.19739468230E+03  0.12500000000E+03 0.  0.
</event>
<event>
 5    0  0.5778875E-005  0.3833617E+03  0.7546771E-02  0.1049698E+00
         21   -1    0    0  502  501  0.00000000000E+00  0.00000000000E+00  0.93396258246E+02  0.93396258246E+02  0.00000000000E+00 0. -1.
         21   -1    0    0  501  502 -0.00000000000E+00 -0.00000000000E+00 -0.15735770487E+04  0.15735770487E+04  0.00000000000E+00 0. -1.
         25    1    1    2    0    0  0.21538269244E+03  0.26843462253E+02 -0.47932850778E+03  0.54082445769E+03  0.12500000000E+03 0.  0.
         25    1    1    2    0    0  0.68043880870E+02 -0.27301439980E+02 -0.10698390521E+03  0.18012743912E+03  0.12500000000E+03 0.  0.
         25    1    1    2    0    0 -0.28342657331E+03  0.45797772699E+00 -0.89386837747E+03  0.94602141014E+03  0.12500000000E+03 0.  0.
</event>
<event>
 5    0  0.5778875E-005  0.7294566E+03  0.7546771E-02  0.9668143E-01
         21   -1    0    0  502  501  0.00000000000E+00  0.00000000000E+00  0.72929843667E+03  0.72929843667E+03  0.00000000000E+00 0.  1.
         21   -1    0    0  501  502 -0.00000000000E+00 -0.00000000000E+00 -0.72961470363E+03  0.72961470363E+03  0.00000000000E+00 0.  1.
         25    1    1    2    0    0 -0.31203885039E+03 -0.36507272489E+03  0.39877345151E+03  0.63662516777E+03  0.12500000000E+03 0.  0.
         25    1    1    2    0    0 -0.10179765387E+03  0.34920245586E+02 -0.37617401808E+02  0.16918113016E+03  0.12500000000E+03 0.  0.
         25    1    1    2    0    0  0.41383650425E+03  0.33015247930E+03 -0.36147231666E+03  0.65310684237E+03  0.12500000000E+03 0.  0.
</event>
<event>
 5    0  0.5778875E-005  0.2275733E+03  0.7546771E-02  0.1128360E+00
         21   -1    0    0  502  501  0.00000000000E+00  0.00000000000E+00  0.16019870356E+03  0.16019870356E+03  0.00000000000E+00 0. -1.
         21   -1    0    0  501  502 -0.00000000000E+00 -0.00000000000E+00 -0.32328348802E+03  0.32328348802E+03  0.00000000000E+00 0. -1.
         25    1    1    2    0    0 -0.52622480457E+02 -0.78748617385E+02 -0.78901645426E+02  0.17555893552E+03  0.12500000000E+03 0.  0.
         25    1    1    2    0    0  0.18697774538E+02 -0.26643282288E+02 -0.39257855675E+02  0.13500240922E+03  0.12500000000E+03 0.  0.
         25    1    1    2    0    0  0.33924705919E+02  0.10539189967E+03 -0.44925283361E+02  0.17292084684E+03  0.12500000000E+03 0.  0.
</event>
<event>
 5    0  0.5900191E-005  0.2699404E+03  0.7546771E-02  0.1101314E+00
         21   -1    0    0  502  501  0.00000000000E+00  0.00000000000E+00  0.35694548128E+03  0.35694548128E+03  0.00000000000E+00 0.  1.
         21   -1    0    0  501  502 -0.00000000000E+00 -0.00000000000E+00 -0.20414266103E+03  0.20414266103E+03  0.00000000000E+00 0.  1.
         25    1    1    2    0    0 -0.18416204504E+02 -0.13219895168E+02 -0.38304789179E+02  0.13268827789E+03  0.12500000000E+03 0.  0.
         25    1    1    2    0    0  0.12278665836E+02  0.69582725071E+02 -0.49093212093E+02  0.15174868941E+03  0.12500000000E+03 0.  0.
         25    1    1    2    0    0  0.61375386684E+01 -0.56362829904E+02  0.24020082152E+03  0.27665117501E+03  0.12500000000E+03 0.  0.
</event>
<event>
 5    0  0.5778875E-005  0.2091046E+03  0.7546771E-02  0.1142277E+00
         21   -1    0    0  502  501  0.00000000000E+00  0.00000000000E+00  0.50951098204E+02  0.50951098204E+02  0.00000000000E+00 0.  1.
         21   -1    0    0  501  502 -0.00000000000E+00 -0.00000000000E+00 -0.85817092654E+03  0.85817092654E+03  0.00000000000E+00 0.  1.
         25    1    1    2    0    0  0.62000756581E+02  0.15273603421E+01 -0.26872558936E+03  0.30279509412E+03  0.12500000000E+03 0.  0.
         25    1    1    2    0    0 -0.69274021751E+02  0.11344533969E+02 -0.20750635240E+03  0.25221315356E+03  0.12500000000E+03 0.  0.
         25    1    1    2    0    0  0.72732651701E+01 -0.12871894311E+02 -0.33098788658E+03  0.35411377708E+03  0.12500000000E+03 0.  0.
</event>
<event>
 5    0  0.5778875E-005  0.4122924E+03  0.7546771E-02  0.1039604E+00
         21   -1    0    0  502  501  0.00000000000E+00  0.00000000000E+00  0.83339035986E+03  0.83339035986E+03  0.00000000000E+00 0. -1.
         21   -1    0    0  501  502 -0.00000000000E+00 -0.00000000000E+00 -0.20396807435E+03  0.20396807435E+03  0.00000000000E+00 0. -1.
         25    1    1    2    0    0  0.13714598548E+03  0.16210076816E+03  0.22426514863E+03  0.33317493492E+03  0.12500000000E+03 0.  0.
         25    1    1    2    0    0 -0.16897547071E+03  0.10486077957E+03  0.31762271084E+03  0.39504136395E+03  0.12500000000E+03 0.  0.
         25    1    1    2    0    0  0.31829485228E+02 -0.26696154773E+03  0.87534426046E+02  0.30914213533E+03  0.12500000000E+03 0.  0.
</event>
<event>
 5    0  0.5778875E-005  0.3725153E+03  0.7546771E-02  0.1053735E+00
         21   -1    0    0  502  501  0.00000000000E+00  0.00000000000E+00  0.97933165709E+03  0.97933165709E+03  0.00000000000E+00 0.  1.
         21   -1    0    0  501  502 -0.00000000000E+00 -0.00000000000E+00 -0.14169627478E+03  0.14169627478E+03  0.00000000000E+00 0.  1.
         25    1    1    2    0    0  0.10413039439E+03  0.19599565376E+03  0.13553059745E+03  0.28853245602E+03  0.12500000000E+03 0.  0.
         25    1    1    2    0    0  0.81519370132E+02  0.77921139696E+00  0.24154375686E+03  0.28392675350E+03  0.12500000000E+03 0.  0.
         25    1    1    2    0    0 -0.18564976452E+03 -0.19677486516E+03  0.46056102800E+03  0.54856872235E+03  0.12500000000E+03 0.  0.
</event>
<event>
 5    0  0.5778875E-005  0.3196827E+03  0.7546771E-02  0.1075795E+00
         21   -1    0    0  502  501  0.00000000000E+00  0.00000000000E+00  0.42785323850E+03  0.42785323850E+03  0.00000000000E+00 0.  1.
         21   -1    0    0  501  502 -0.00000000000E+00 -0.00000000000E+00 -0.23886000952E+03  0.23886000952E+03  0.00000000000E+00 0.  1.
         25    1    1    2    0    0  0.15504422718E+03  0.43630390585E+02 -0.42572669494E+02  0.20827807266E+03  0.12500000000E+03 0.  0.
         25    1    1    2    0    0 -0.19731045967E+03  0.37515561522E+02  0.17193498804E+03  0.29244738836E+03  0.12500000000E+03 0.  0.
         25    1    1    2    0    0  0.42266232489E+02 -0.81145952107E+02  0.59630910435E+02  0.16598778699E+03  0.12500000000E+03 0.  0.
</event>
<event>
 5    0  0.5778875E-005  0.3462699E+03  0.7546771E-02  0.1064157E+00
         21   -1    0    0  502  501  0.00000000000E+00  0.00000000000E+00  0.62390909332E+03  0.62390909332E+03  0.00000000000E+00 0. -1.
         21   -1    0    0  501  502 -0.00000000000E+00 -0.00000000000E+00 -0.19218000536E+03  0.19218000536E+03  0.00000000000E+00 0. -1.
         25    1    1    2    0    0  0.65597687875E+02  0.17621732792E+02  0.88171031148E+02  0.16736998792E+03  0.12500000000E+03 0.  0.
         25    1    1    2    0    0 -0.14477360786E+03  0.63044636302E+02 -0.61028984437E+02  0.21043659530E+03  0.12500000000E+03 0.  0.
         25    1    1    2    0    0  0.79175919987E+02 -0.80666369094E+02  0.40458704126E+03  0.43828251546E+03  0.12500000000E+03 0.  0.
</event>
<event>
 5    0  0.5778875E-005  0.2465922E+03  0.7546771E-02  0.1115478E+00
         21   -1    0    0  502  501  0.00000000000E+00  0.00000000000E+00  0.58436668952E+02  0.58436668952E+02  0.00000000000E+00 0. -1.
         21   -1    0    0  501  502 -0.00000000000E+00 -0.00000000000E+00 -0.10405742555E+04  0.10405742555E+04  0.00000000000E+00 0. -1.
         25    1    1    2    0    0  0.55144662882E+02 -0.27666966858E+01 -0.10418950405E+03  0.17184016181E+03  0.12500000000E+03 0.  0.
         25    1    1    2    0    0  0.30669962415E+02 -0.32972862294E+02 -0.29089364942E+03  0.31979989292E+03  0.12500000000E+03 0.  0.
         25    1    1    2    0    0 -0.85814625297E+02  0.35739558980E+02 -0.58705443306E+03  0.60737086970E+03  0.12500000000E+03 0.  0.
</event>
<event>
 5    0  0.5778875E-005  0.2879506E+03  0.7546771E-02  0.1091424E+00
         21   -1    0    0  502  501  0.00000000000E+00  0.00000000000E+00  0.16947985683E+04  0.16947985683E+04  0.00000000000E+00 0. -1.
         21   -1    0    0  501  502 -0.00000000000E+00 -0.00000000000E+00 -0.48923554460E+02  0.48923554460E+02  0.00000000000E+00 0. -1.
         25    1    1    2    0    0 -0.81013977771E+02 -0.16415943069E+02  0.23739480600E+03  0.28073838658E+03  0.12500000000E+03 0.  0.
         25    1    1    2    0    0  0.16948162060E+03  0.85594536948E+02  0.78423727538E+03  0.81651916608E+03  0.12500000000E+03 0.  0.
         25    1    1    2    0    0 -0.88467642830E+02 -0.69178593879E+02  0.62424293248E+03  0.64646457013E+03  0.12500000000E+03 0.  0.
</event>
<event>
 5    0  0.5778875E-005  0.2578353E+03  0.7546771E-02  0.1108451E+00
         21   -1    0    0  502  501  0.00000000000E+00  0.00000000000E+00  0.15833193619E+03  0.15833193619E+03  0.00000000000E+00 0. -1.
         21   -1    0    0  501  502 -0.00000000000E+00 -0.00000000000E+00 -0.41987129666E+03  0.41987129666E+03  0.00000000000E+00 0. -1.
         25    1    1    2    0    0  0.46009610514E+02  0.55921361526E+02 -0.12652254270E+02  0.14501435264E+03  0.12500000000E+03 0.  0.
         25    1    1    2    0    0  0.30432006468E+02 -0.11626849495E+03 -0.20551748608E+03  0.26889943663E+03  0.12500000000E+03 0.  0.
         25    1    1    2    0    0 -0.76441616982E+02  0.60347133419E+02 -0.43369620119E+02  0.16428944357E+03  0.12500000000E+03 0.  0.
</event>
<event>
 5    0  0.5778875E-005  0.2726978E+03  0.7546771E-02  0.1099745E+00
         21   -1    0    0  502  501  0.00000000000E+00  0.00000000000E+00  0.98430502148E+02  0.98430502148E+02  0.00000000000E+00 0.  1.
         21   -1    0    0  501  502 -0.00000000000E+00 -0.00000000000E+00 -0.75549859581E+03  0.75549859581E+03  0.00000000000E+00 0.  1.
         25    1    1    2    0    0  0.33744621522E+02 -0.18491987720E+02 -0.79718341855E+02  0.15316875373E+03  0.12500000000E+03 0.  0.
         25    1    1    2    0    0 -0.13056060504E+03  0.74249693979E+02 -0.16542893180E+03  0.25602894391E+03  0.12500000000E+03 0.  0.
         25    1    1    2    0    0  0.96815983515E+02 -0.55757706259E+02 -0.41192082001E+03  0.44473140032E+03  0.12500000000E+03 0.  0.
</event>
<event>
 5    0  0.5778875E-005  0.3390934E+03  0.7546771E-02  0.1067183E+00
         21   -1    0    0  502  501  0.00000000000E+00  0.00000000000E+00  0.97252433569E+02  0.97252433569E+02  0.00000000000E+00 0.  1.
         21   -1    0    0  501  502 -0.00000000000E+00 -0.00000000000E+00 -0.11823289080E+04  0.11823289080E+04  0.00000000000E+00 0.  1.
         25    1    1    2    0    0 -0.74202205197E+02 -0.94588741349E+02 -0.35930160958E+03  0.39896822417E+03  0.12500000000E+03 0.  0.
         25    1    1    2    0    0 -0.81039316036E+02  0.19779931374E+03 -0.52071865067E+03  0.57659765210E+03  0.12500000000E+03 0.  0.
         25    1    1    2    0    0  0.15524152123E+03 -0.10321057239E+03 -0.20505621419E+03  0.30401546531E+03  0.12500000000E+03 0.  0.
</event>
<event>
 5    0  0.5778875E-005  0.3026825E+03  0.7546771E-02  0.1083907E+00
         21   -1    0    0  502  501  0.00000000000E+00  0.00000000000E+00  0.31515926401E+03  0.31515926401E+03  0.00000000000E+00 0. -1.
         21   -1    0    0  501  502 -0.00000000000E+00 -0.00000000000E+00 -0.29069959816E+03  0.29069959816E+03  0.00000000000E+00 0. -1.
         25    1    1    2    0    0  0.41912380945E+02 -0.22449419268E+03  0.27083191027E+02  0.26174947843E+03  0.12500000000E+03 0.  0.
         25    1    1    2    0    0  0.50952047426E+01  0.12477934235E+03 -0.12611747457E+02  0.17714373137E+03  0.12500000000E+03 0.  0.
         25    1    1    2    0    0 -0.47007585687E+02  0.99714850328E+02  0.99882222817E+01  0.16696565237E+03  0.12500000000E+03 0.  0.
</event>
<event>
 5    0  0.5778875E-005  0.4570948E+03  0.7546771E-02  0.1025627E+00
         21   -1    0    0  502  501  0.00000000000E+00  0.00000000000E+00  0.89088632176E+03  0.89088632176E+03  0.00000000000E+00 0. -1.
         21   -1    0    0  501  502 -0.00000000000E+00 -0.00000000000E+00 -0.23452564828E+03  0.23452564828E+03  0.00000000000E+00 0. -1.
         25    1    1    2    0    0 -0.90606006910E+02  0.13118785524E+02  0.27085054557E+03  0.31203616627E+03  0.12500000000E+03 0.  0.
         25    1    1    2    0    0 -0.10836717846E+03 -0.45715951621E+02 -0.14982705783E+03  0.22783007014E+03  0.12500000000E+03 0.  0.
         25    1    1    2    0    0  0.19897318538E+03  0.32597166098E+02  0.53533718574E+03  0.58554573363E+03  0.12500000000E+03 0.  0.
</event>
<event>
 5    0  0.5778875E-005  0.2860421E+03  0.7546771E-02  0.1092434E+00
         21   -1    0    0  502  501  0.00000000000E+00  0.00000000000E+00  0.10849527907E+04  0.10849527907E+04  0.00000000000E+00 0.  1.
         21   -1    0    0  501  502 -0.00000000000E+00 -0.00000000000E+00 -0.75413487412E+02  0.75413487412E+02  0.00000000000E+00 0.  1.
         25    1    1    2    0    0 -0.69313679681E+02 -0.49940116760E+02  0.18305650330E+03  0.23755648771E+03  0.12500000000E+03 0.  0.
         25    1    1    2    0    0  0.38214500050E+02  0.31069189148E+02  0.76874179678E+03  0.78039387020E+03  0.12500000000E+03 0.  0.
         25    1    1    2    0    0  0.31099179631E+02  0.18870927612E+02  0.57741003253E+02  0.14241592025E+03  0.12500000000E+03 0.  0.
</event>
<event>
 5    0  0.5778875E-005  0.2511093E+03  0.7546771E-02  0.1112606E+00
         21   -1    0    0  502  501  0.00000000000E+00  0.00000000000E+00  0.57885974152E+03  0.57885974152E+03  0.00000000000E+00 0. -1.
         21   -1    0    0  501  502 -0.00000000000E+00 -0.00000000000E+00 -0.10893122846E+03  0.10893122846E+03  0.00000000000E+00 0. -1.
         25    1    1    2    0    0  0.22122489025E+02 -0.52610846363E+01  0.22409518940E+03  0.25760577914E+03  0.12500000000E+03 0.  0.
         25    1    1    2    0    0 -0.63650867042E+02  0.19529377867E+02  0.26088132575E+03  0.29684490159E+03  0.12500000000E+03 0.  0.
         25    1    1    2    0    0  0.41528378017E+02 -0.14268293231E+02 -0.15048002082E+02  0.13334028926E+03  0.12500000000E+03 0.  0.
</event>
<event>
 5    0  0.5778875E-005  0.2300832E+03  0.7546771E-02  0.1126581E+00
         21   -1    0    0  502  501  0.00000000000E+00  0.00000000000E+00  0.65905008547E+03  0.65905008547E+03  0.00000000000E+00 0.  1.
         21   -1    0    0  501  502 -0.00000000000E+00 -0.00000000000E+00 -0.80325110558E+02  0.80325110558E+02  0.00000000000E+00 0.  1.
         25    1    1    2    0    0 -0.39501558317E+02 -0.80383485927E+02  0.22992456541E+03  0.27660835797E+03  0.12500000000E+03 0.  0.
         25    1    1    2    0    0 -0.53694380354E+02  0.30888308678E+02  0.14165788423E+03  0.19881934076E+03  0.12500000000E+03 0.  0.
         25    1    1    2    0    0  0.93195938671E+02  0.49495177250E+02  0.20714252527E+03  0.26394749730E+03  0.12500000000E+03 0.  0.
</event>
<event>
 5    0  0.5778875E-005  0.2374131E+03  0.7546771E-02  0.1121528E+00
         21   -1    0    0  502  501  0.00000000000E+00  0.00000000000E+00  0.33205578844E+02  0.33205578844E+02  0.00000000000E+00 0.  1.
         21   -1    0    0  501  502 -0.00000000000E+00 -0.00000000000E+00 -0.16974547199E+04  0.16974547199E+04  0.00000000000E+00 0.  1.
         25    1    1    2    0    0 -0.92082743667E+02  0.64516540763E+02 -0.65909801937E+03  0.68020350988E+03  0.12500000000E+03 0.  0.
         25    1    1    2    0    0  0.13331936731E+02  0.28780555936E+02 -0.47865228452E+03  0.49572075850E+03  0.12500000000E+03 0.  0.
         25    1    1    2    0    0  0.78750806936E+02 -0.93297096699E+02 -0.52649883720E+03  0.55473603039E+03  0.12500000000E+03 0.  0.
</event>
<event>
 5    0  0.5778875E-005  0.2419552E+03  0.7546771E-02  0.1118497E+00
         21   -1    0    0  502  501  0.00000000000E+00  0.00000000000E+00  0.71951874527E+02  0.71951874527E+02  0.00000000000E+00 0.  1.
         21   -1    0    0  501  502 -0.00000000000E+00 -0.00000000000E+00 -0.81363156803E+03  0.81363156803E+03  0.00000000000E+00 0.  1.
         25    1    1    2    0    0 -0.13896777781E+02  0.10025450371E+03 -0.15153578842E+03  0.22098004688E+03  0.12500000000E+03 0.  0.
         25    1    1    2    0    0  0.30613313971E+02  0.15621146686E+02 -0.19766362686E+03  0.23638338478E+03  0.12500000000E+03 0.  0.
         25    1    1    2    0    0 -0.16716536190E+02 -0.11587565040E+03 -0.39248027823E+03  0.42822001090E+03  0.12500000000E+03 0.  0.
</event>
<event>
 5    0  0.5778875E-005  0.2586464E+03  0.7546771E-02  0.1107959E+00
         21   -1    0    0  502  501  0.00000000000E+00  0.00000000000E+00  0.10944052235E+04  0.10944052235E+04  0.00000000000E+00 0.  1.
         21   -1    0    0  501  502 -0.00000000000E+00 -0.00000000000E+00 -0.61127227757E+02  0.61127227757E+02  0.00000000000E+00 0.  1.
         25    1    1    2    0    0  0.11157713758E+02  0.15095051471E+03  0.46966271501E+03  0.50903695184E+03  0.12500000000E+03 0.  0.
         25    1    1    2    0    0  0.49848422236E+02 -0.10111309979E+03  0.27998946762E+03  0.32669224987E+03  0.12500000000E+03 0.  0.
         25    1    1    2    0    0 -0.61006135995E+02 -0.49837414923E+02  0.28362581313E+03  0.31980324956E+03  0.12500000000E+03 0.  0.
</event>
<event>
 5    0  0.5789399E-005  0.2805393E+03  0.7546771E-02  0.1095395E+00
         21   -1    0    0  502  501  0.00000000000E+00  0.00000000000E+00  0.12091950585E+03  0.12091950585E+03  0.00000000000E+00 0. -1.
         21   -1    0    0  501  502 -0.00000000000E+00 -0.00000000000E+00 -0.65086524158E+03  0.65086524158E+03  0.00000000000E+00 0. -1.
         25    1    1    2    0    0  0.36467207835E+02  0.22073713516E+02  0.37563948455E+02  0.13730679626E+03  0.12500000000E+03 0.  0.
         25    1    1    2    0    0 -0.64288816667E+02 -0.55479508368E+02 -0.28906001159E+03  0.32617743346E+03  0.12500000000E+03 0.  0.
         25    1    1    2    0    0  0.27821608832E+02  0.33405794851E+02 -0.27844967260E+03  0.30830051771E+03  0.12500000000E+03 0.  0.
</event>
<event>
 5    0  0.5778875E-005  0.3711003E+03  0.7546771E-02  0.1054273E+00
         21   -1    0    0  502  501  0.00000000000E+00  0.00000000000E+00  0.10873280074E+03  0.10873280074E+03  0.00000000000E+00 0.  1.
         21   -1    0    0  501  502 -0.00000000000E+00 -0.00000000000E+00 -0.12665492434E+04  0.12665492434E+04  0.00000000000E+00 0.  1.
         25    1    1    2    0    0  0.36139293252E+01  0.12473172626E+03 -0.27037887401E+03  0.32295634308E+03  0.12500000000E+03 0.  0.
         25    1    1    2    0    0  0.33915678160E+02  0.46406919465E+02 -0.81304902050E+03  0.82460753400E+03  0.12500000000E+03 0.  0.
         25    1    1    2    0    0 -0.37529607486E+02 -0.17113864572E+03 -0.74388548100E+02  0.22771816701E+03  0.12500000000E+03 0.  0.
</event>
<event>
 5    0  0.5778875E-005  0.1989283E+03  0.7546771E-02  0.1150646E+00
         21   -1    0    0  502  501  0.00000000000E+00  0.00000000000E+00  0.37943276634E+02  0.37943276634E+02  0.00000000000E+00 0. -1.
         21   -1    0    0  501  502 -0.00000000000E+00 -0.00000000000E+00 -0.10429379463E+04  0.10429379463E+04  0.00000000000E+00 0. -1.
         25    1    1    2    0    0  0.84478465400E+01  0.13537129428E+02 -0.24824237787E+03  0.27839521934E+03  0.12500000000E+03 0.  0.
         25    1    1    2    0    0  0.30345173155E+02 -0.17387833776E+02 -0.46344728602E+03  0.48128115818E+03  0.12500000000E+03 0.  0.
         25    1    1    2    0    0 -0.38793019695E+02  0.38507043482E+01 -0.29330500576E+03  0.32120484540E+03  0.12500000000E+03 0.  0.
</event>
<event>
 5    0  0.5778875E-005  0.2650252E+03  0.7546771E-02  0.1104161E+00
         21   -1    0    0  502  501  0.00000000000E+00  0.00000000000E+00  0.89586605856E+02  0.89586605856E+02  0.00000000000E+00 0.  1.
         21   -1    0    0  501  502 -0.00000000000E+00 -0.00000000000E+00 -0.78402723006E+03  0.78402723006E+03  0.00000000000E+00 0.  1.
         25    1    1    2    0    0 -0.29783775889E+02  0.10725156480E+03 -0.12850477464E+03  0.21101764989E+03  0.12500000000E+03 0.  0.
         25    1    1    2    0    0 -0.54875891904E+02 -0.12008745358E+03 -0.22333019925E+03  0.28798218334E+03  0.12500000000E+03 0.  0.
         25    1    1    2    0    0  0.84659667794E+02  0.12835888780E+02 -0.34260565031E+03  0.37461400270E+03  0.12500000000E+03 0.  0.
</event>
<event>
 5    0  0.5778875E-005  0.3071898E+03  0.7546771E-02  0.1081701E+00
         21   -1    0    0  502  501  0.00000000000E+00  0.00000000000E+00  0.66468600185E+03  0.66468600185E+03  0.00000000000E+00 0. -1.
         21   -1    0    0  501  502 -0.00000000000E+00 -0.00000000000E+00 -0.14197016487E+03  0.14197016487E+03  0.00000000000E+00 0. -1.
         25    1    1    2    0    0  0.73606909174E+02 -0.17328278150E+03  0.31166001622E+03  0.38496995357E+03  0.12500000000E+03 0.  0.
         25    1    1    2    0    0 -0.84820520650E+02  0.14064013835E+03  0.20645126193E+03  0.29192686205E+03  0.12500000000E+03 0.  0.
         25    1    1    2    0    0  0.11213611477E+02  0.32642643156E+02  0.46045588389E+01  0.12975935110E+03  0.12500000000E+03 0.  0.
</event>
<event>
 5    0  0.5778875E-005  0.2624865E+03  0.7546771E-02  0.1105658E+00
         21   -1    0    0  502  501  0.00000000000E+00  0.00000000000E+00  0.18348350210E+03  0.18348350210E+03  0.00000000000E+00 0. -1.
         21   -1    0    0  501  502 -0.00000000000E+00 -0.00000000000E+00 -0.37550599803E+03  0.37550599803E+03  0.00000000000E+00 0. -1.
         25    1    1    2    0    0  0.34433746180E+02  0.13367937407E+03 -0.14308916570E+03  0.23485179852E+03  0.12500000000E+03 0.  0.
         25    1    1    2    0    0 -0.24394319573E+02 -0.74213200063E+02 -0.97914616543E+02  0.17696031765E+03  0.12500000000E+03 0.  0.
         25    1    1    2    0    0 -0.10039426607E+02 -0.59466174005E+02  0.48981286321E+02  0.14717738395E+03  0.12500000000E+03 0.  0.
</event>
<event>
 5    0  0.5778875E-005  0.3340408E+03  0.7546771E-02  0.1069363E+00
         21   -1    0    0  502  501  0.00000000000E+00  0.00000000000E+00  0.32302385753E+03  0.32302385753E+03  0.00000000000E+00 0. -1.
         21   -1    0    0  501  502 -0.00000000000E+00 -0.00000000000E+00 -0.34543353478E+03  0.34543353478E+03  0.00000000000E+00 0. -1.
         25    1    1    2    0    0  0.38684320919E+01  0.24850670870E+03  0.28132146739E+02  0.27961932464E+03  0.12500000000E+03 0.  0.
         25    1    1    2    0    0  0.72545035365E+02 -0.15326044473E+03 -0.22468704012E+02  0.21185228045E+03  0.12500000000E+03 0.  0.
         25    1    1    2    0    0 -0.76413467457E+02 -0.95246263970E+02 -0.28073119975E+02  0.17698578721E+03  0.12500000000E+03 0.  0.
</event>
<event>
 5    0  0.5778875E-005  0.3819936E+03  0.7546771E-02  0.1050199E+00
         21   -1    0    0  502  501  0.00000000000E+00  0.00000000000E+00  0.10290764894E+03  0.10290764894E+03  0.00000000000E+00 0.  1.
         21   -1    0    0  501  502 -0.00000000000E+00 -0.00000000000E+00 -0.14179619224E+04  0.14179619224E+04  0.00000000000E+00 0.  1.
         25    1    1    2    0    0  0.27498317548E+02  0.31036969207E+02  0.58657906688E+01  0.13182889830E+03  0.12500000000E+03 0.  0.
         25    1    1    2    0    0  0.99530806800E+02 -0.22883828551E+02 -0.21513998685E+03  0.26896145644E+03  0.12500000000E+03 0.  0.
         25    1    1    2    0    0 -0.12702912435E+03 -0.81531406563E+01 -0.11057800772E+04  0.11200792166E+04  0.12500000000E+03 0.  0.
</event>
<event>
 5    0  0.5778875E-005  0.2732704E+03  0.7546771E-02  0.1099422E+00
         21   -1    0    0  502  501  0.00000000000E+00  0.00000000000E+00  0.27355578231E+03  0.27355578231E+03  0.00000000000E+00 0.  1.
         21   -1    0    0  501  502 -0.00000000000E+00 -0.00000000000E+00 -0.27298529394E+03  0.27298529394E+03  0.00000000000E+00 0.  1.
         25    1    1    2    0    0 -0.26576705239E+02  0.38561136093E+01  0.40563618107E+02  0.13413276254E+03  0.12500000000E+03 0.  0.
         25    1    1    2    0    0  0.43155354745E+02 -0.13072241622E+03 -0.11479530827E+03  0.21852619418E+03  0.12500000000E+03 0.  0.
         25    1    1    2    0    0 -0.16578649506E+02  0.12686630261E+03  0.74802178524E+02  0.19388211952E+03  0.12500000000E+03 0.  0.
</event>
<event>
 5    0  0.5778875E-005  0.2640527E+03  0.7546771E-02  0.1104732E+00
         21   -1    0    0  502  501  0.00000000000E+00  0.00000000000E+00  0.22457036841E+03  0.22457036841E+03  0.00000000000E+00 0.  1.
         21   -1    0    0  501  502 -0.00000000000E+00 -0.00000000000E+00 -0.31047652012E+03  0.31047652012E+03  0.00000000000E+00 0.  1.
         25    1    1    2    0    0 -0.64090580606E+02  0.66301905653E+02  0.25873473943E+02  0.15747374978E+03  0.12500000000E+03 0.  0.
         25    1    1    2    0    0 -0.29260790047E+02 -0.21325936031E+02  0.58154848523E+02  0.14254113718E+03  0.12500000000E+03 0.  0.
         25    1    1    2    0    0  0.93351370653E+02 -0.44975969622E+02 -0.16993447417E+03  0.23503200156E+03  0.12500000000E+03 0.  0.
</event>
<event>
 5    0  0.5778875E-005  0.2701710E+03  0.7546771E-02  0.1101182E+00
         21   -1    0    0  502  501  0.00000000000E+00  0.00000000000E+00  0.82296267451E+02  0.82296267451E+02  0.00000000000E+00 0.  1.
         21   -1    0    0  501  502 -0.00000000000E+00 -0.00000000000E+00 -0.88694644244E+03  0.88694644244E+03  0.00000000000E+00 0.  1.
         25    1    1    2    0    0 -0.62214919086E+02  0.83177167040E+02 -0.29268787065E+03  0.33478400036E+03  0.12500000000E+03 0.  0.
         25    1    1    2    0    0 -0.77567454619E+02 -0.46793351885E+02 -0.11042850606E+03  0.18980459095E+03  0.12500000000E+03 0.  0.
         25    1    1    2    0    0  0.13978237370E+03 -0.36383815155E+02 -0.40153379828E+03  0.44465411858E+03  0.12500000000E+03 0.  0.
</event>
<event>
 5    0  0.5778875E-005  0.3116376E+03  0.7546771E-02  0.1079564E+00
         21   -1    0    0  502  501  0.00000000000E+00  0.00000000000E+00  0.20852884035E+03  0.20852884035E+03  0.00000000000E+00 0. -1.
         21   -1    0    0  501  502 -0.00000000000E+00 -0.00000000000E+00 -0.46572934986E+03  0.46572934986E+03  0.00000000000E+00 0. -1.
         25    1    1    2    0    0 -0.16988314698E+01  0.25491317199E+02 -0.16655931547E+02  0.12866667532E+03  0.12500000000E+03 0.  0.
         25    1    1    2    0    0  0.14398390945E+03  0.71303512706E+02  0.25296026273E+02  0.20513518969E+03  0.12500000000E+03 0.  0.
         25    1    1    2    0    0 -0.14228507798E+03 -0.96794829906E+02 -0.26584060423E+03  0.34045632520E+03  0.12500000000E+03 0.  0.
</event>
<event>
 5    0  0.5778875E-005  0.2385887E+03  0.7546771E-02  0.1120737E+00
         21   -1    0    0  502  501  0.00000000000E+00  0.00000000000E+00  0.24093697593E+03  0.24093697593E+03  0.00000000000E+00 0.  1.
         21   -1    0    0  501  502 -0.00000000000E+00 -0.00000000000E+00 -0.23626323435E+03  0.23626323435E+03  0.00000000000E+00 0.  1.
         25    1    1    2    0    0  0.25518985580E+02 -0.24071218259E+00  0.76919722087E+02  0.14897288415E+03  0.12500000000E+03 0.  0.
         25    1    1    2    0    0  0.12592610720E+02 -0.91065339230E+02 -0.66189945210E+02  0.16869374233E+03  0.12500000000E+03 0.  0.
         25    1    1    2    0    0 -0.38111596300E+02  0.91306051413E+02 -0.60560352928E+01  0.15953358380E+03  0.12500000000E+03 0.  0.
</event>
<event>
 5    0  0.5778875E-005  0.2613763E+03  0.7546771E-02  0.1106319E+00
         21   -1    0    0  502  501  0.00000000000E+00  0.00000000000E+00  0.51146690428E+02  0.51146690428E+02  0.00000000000E+00 0. -1.
         21   -1    0    0  501  502 -0.00000000000E+00 -0.00000000000E+00 -0.13357181398E+04  0.13357181398E+04  0.00000000000E+00 0. -1.
         25    1    1    2    0    0  0.77774476612E+02 -0.73082282183E+02 -0.60644158893E+03  0.62832021292E+03  0.12500000000E+03 0.  0.
         25    1    1    2    0    0 -0.20400972147E+01 -0.39198875126E+02 -0.14990919736E+03  0.19909415175E+03  0.12500000000E+03 0.  0.
         25    1    1    2    0    0 -0.75734379398E+02  0.11228115731E+03 -0.52822066312E+03  0.55945046560E+03  0.12500000000E+03 0.  0.
</event>
<event>
 5    0  0.5778875E-005  0.2679928E+03  0.7546771E-02  0.1102434E+00
         21   -1    0    0  502  501  0.00000000000E+00  0.00000000000E+00  0.63119347093E+02  0.63119347093E+02  0.00000000000E+00 0.  1.
         21   -1    0    0  501  502 -0.00000000000E+00 -0.00000000000E+00 -0.11378463624E+04  0.11378463624E+04  0.00000000000E+00 0.  1.
         25    1    1    2    0    0 -0.35982916895E+02 -0.41449723672E+02 -0.16728243781E+03  0.21591957739E+03  0.12500000000E+03 0.  0.
         25    1    1    2    0    0 -0.41440849662E+02  0.14521737074E+03 -0.56747863036E+03  0.60038523025E+03  0.12500000000E+03 0.  0.
         25    1    1    2    0    0  0.77423766556E+02 -0.10376764707E+03 -0.33996594717E+03  0.38466090188E+03  0.12500000000E+03 0.  0.
</event>
<event>
 5    0  0.5778875E-005  0.3259278E+03  0.7546771E-02  0.1072953E+00
         21   -1    0    0  502  501  0.00000000000E+00  0.00000000000E+00  0.17918192927E+03  0.17918192927E+03  0.00000000000E+00 0. -1.
         21   -1    0    0  501  502 -0.00000000000E+00 -0.00000000000E+00 -0.59285516901E+03  0.59285516901E+03  0.00000000000E+00 0. -1.
         25    1    1    2    0    0 -0.12772463974E+03 -0.14086925935E+03 -0.24853058699E+03  0.33697208267E+03  0.12500000000E+03 0.  0.
         25    1    1    2    0    0  0.13139798109E+02 -0.13683832162E+02 -0.16214161092E+03  0.20560837422E+03  0.12500000000E+03 0.  0.
         25    1    1    2    0    0  0.11458484163E+03  0.15455309151E+03 -0.30010418281E+01  0.22945664140E+03  0.12500000000E+03 0.  0.
</event>
<event>
 5    0  0.5778875E-005  0.3162994E+03  0.7546771E-02  0.1077365E+00
         21   -1    0    0  502  501  0.00000000000E+00  0.00000000000E+00  0.34491948747E+03  0.34491948747E+03  0.00000000000E+00 0. -1.
         21   -1    0    0  501  502 -0.00000000000E+00 -0.00000000000E+00 -0.29005404389E+03  0.29005404389E+03  0.00000000000E+00 0. -1.
         25    1    1    2    0    0  0.20123309818E+02  0.11420546884E+02 -0.66109113997E+01  0.12729524987E+03  0.12500000000E+03 0.  0.
         25    1    1    2    0    0  0.10912444070E+03  0.13206455593E+03 -0.91972544728E+02  0.23115609331E+03  0.12500000000E+03 0.  0.
         25    1    1    2    0    0 -0.12924775051E+03 -0.14348510281E+03  0.15344889971E+03  0.27652218819E+03  0.12500000000E+03 0.  0.
</event>
<event>
 5    0  0.5778875E-005  0.3923106E+03  0.7546771E-02  0.1046475E+00
         21   -1    0    0  502  501  0.00000000000E+00  0.00000000000E+00  0.34447645542E+03  0.34447645542E+03  0.00000000000E+00 0. -1.
         21   -1    0    0  501  502 -0.00000000000E+00 -0.00000000000E+00 -0.44678708469E+03  0.44678708469E+03  0.00000000000E+00 0. -1.
         25    1    1    2    0    0 -0.13563906409E+03 -0.76183800828E+01 -0.34296365792E+03  0.38949334536E+03  0.12500000000E+03 0.  0.
         25    1    1    2    0    0  0.10574900315E+03 -0.49546143778E+02  0.81879749350E+02  0.18964958577E+03  0.12500000000E+03 0.  0.
         25    1    1    2    0    0  0.29890060941E+02  0.57164523861E+02  0.15877327930E+03  0.21212060897E+03  0.12500000000E+03 0.  0.
</event>
<event>
 5    0  0.5778875E-005  0.3036604E+03  0.7546771E-02  0.1083425E+00
         21   -1    0    0  502  501  0.00000000000E+00  0.00000000000E+00  0.13476165585E+03  0.13476165585E+03  0.00000000000E+00 0.  1.
         21   -1    0    0  501  502 -0.00000000000E+00 -0.00000000000E+00 -0.68424240240E+03  0.68424240240E+03  0.00000000000E+00 0.  1.
         25    1    1    2    0    0 -0.11740129818E+03  0.70508390650E+02 -0.36215109102E+03  0.40685735915E+03  0.12500000000E+03 0.  0.
         25    1    1    2    0    0  0.42532398785E+02 -0.13390659927E+03 -0.33563491402E+02  0.19102745936E+03  0.12500000000E+03 0.  0.
         25    1    1    2    0    0  0.74868899400E+02  0.63398208624E+02 -0.15376616412E+03  0.22111923974E+03  0.12500000000E+03 0.  0.
</event>
<event>
 5    0  0.5778875E-005  0.2741069E+03  0.7546771E-02  0.1098952E+00
         21   -1    0    0  502  501  0.00000000000E+00  0.00000000000E+00  0.19716770839E+03  0.19716770839E+03  0.00000000000E+00 0. -1.
         21   -1    0    0  501  502 -0.00000000000E+00 -0.00000000000E+00 -0.38106956953E+03  0.38106956953E+03  0.00000000000E+00 0. -1.
         25    1    1    2    0    0  0.18524177088E+02  0.45743297110E+01 -0.54518427487E+02  0.13770014003E+03  0.12500000000E+03 0.  0.
         25    1    1    2    0    0  0.13675199038E+03 -0.34778797254E+02 -0.14571758384E+03  0.23826306019E+03  0.12500000000E+03 0.  0.
         25    1    1    2    0    0 -0.15527616747E+03  0.30204467543E+02  0.16334150194E+02  0.20227407769E+03  0.12500000000E+03 0.  0.
</event>
<event>
 5    0  0.5778875E-005  0.4153860E+03  0.7546771E-02  0.1038579E+00
         21   -1    0    0  502  501  0.00000000000E+00  0.00000000000E+00  0.13435160216E+03  0.13435160216E+03  0.00000000000E+00 0.  1.
         21   -1    0    0  501  502 -0.00000000000E+00 -0.00000000000E+00 -0.12842836065E+04  0.12842836065E+04  0.00000000000E+00 0.  1.
         25    1    1    2    0    0  0.47053094164E+02 -0.11837201787E+03 -0.28576579611E+03  0.33691693118E+03  0.12500000000E+03 0.  0.
         25    1    1    2    0    0  0.26214960862E+02  0.27311965426E+03 -0.80798815895E+03  0.86241024734E+03  0.12500000000E+03 0.  0.
         25    1    1    2    0    0 -0.73268055026E+02 -0.15474763639E+03 -0.56178049233E+02  0.21930803011E+03  0.12500000000E+03 0.  0.
</event>
<event>
 5    0  0.5778875E-005  0.2495438E+03  0.7546771E-02  0.1113593E+00
         21   -1    0    0  502  501  0.00000000000E+00  0.00000000000E+00  0.93304271743E+03  0.93304271743E+03  0.00000000000E+00 0.  1.
         21   -1    0    0  501  502 -0.00000000000E+00 -0.00000000000E+00 -0.66740880024E+02  0.66740880024E+02  0.00000000000E+00 0.  1.
         25    1    1    2    0    0 -0.65102212422E+02  0.53383694663E+02  0.16755131099E+03  0.22535873343E+03  0.12500000000E+03 0.  0.
         25    1    1    2    0    0  0.85387205487E+02  0.14677574938E+02  0.53651216090E+03  0.55765285336E+03  0.12500000000E+03 0.  0.
         25    1    1    2    0    0 -0.20284993065E+02 -0.68061269601E+02  0.16223836552E+03  0.21677201067E+03  0.12500000000E+03 0.  0.
</event>
<event>
 5    0  0.5778875E-005  0.2622746E+03  0.7546771E-02  0.1105784E+00
         21   -1    0    0  502  501  0.00000000000E+00  0.00000000000E+00  0.25126411099E+03  0.25126411099E+03  0.00000000000E+00 0. -1.
         21   -1    0    0  501  502 -0.00000000000E+00 -0.00000000000E+00 -0.27376754418E+03  0.27376754418E+03  0.00000000000E+00 0. -1.
         25    1    1    2    0    0 -0.76826287585E+02  0.19293823210E+02  0.55869122723E+02  0.15817992588E+03  0.12500000000E+03 0.  0.
         25    1    1    2    0    0  0.39334332275E+02 -0.10249617532E+03  0.41061104961E+02  0.17135830879E+03  0.12500000000E+03 0.  0.
         25    1    1    2    0    0  0.37491955310E+02  0.83202352112E+02 -0.11943366087E+03  0.19549342050E+03  0.12500000000E+03 0.  0.
</event>
<event>
 5    0  0.5778875E-005  0.2289908E+03  0.7546771E-02  0.1127352E+00
         21   -1    0    0  502  501  0.00000000000E+00  0.00000000000E+00  0.80352433046E+03  0.80352433046E+03  0.00000000000E+00 0. -1.
         21   -1    0    0  501  502 -0.00000000000E+00 -0.00000000000E+00 -0.65258473525E+02  0.65258473525E+02  0.00000000000E+00 0. -1.
         25    1    1    2    0    0  0.33284231747E+02  0.27089612025E+02  0.16790039246E+03  0.21367552258E+03  0.12500000000E+03 0.  0.
         25    1    1    2    0    0 -0.38787921532E+02  0.23721622088E+02  0.10187989174E+03  0.16754620423E+03  0.12500000000E+03 0.  0.
         25    1    1    2    0    0  0.55036897854E+01 -0.50811234112E+02  0.46848557274E+03  0.48756107718E+03  0.12500000000E+03 0.  0.
</event>
<event>
 5    0  0.5778875E-005  0.3769220E+03  0.7546771E-02  0.1052077E+00
         21   -1    0    0  502  501  0.00000000000E+00  0.00000000000E+00  0.59532950646E+03  0.59532950646E+03  0.00000000000E+00 0. -1.
         21   -1    0    0  501  502 -0.00000000000E+00 -0.00000000000E+00 -0.23864130740E+03  0.23864130740E+03  0.00000000000E+00 0. -1.
         25    1    1    2    0    0  0.65752967035E+02 -0.51277632721E+02  0.23182123600E+03  0.27625881661E+03  0.12500000000E+03 0.  0.
         25    1    1    2    0    0 -0.10029499191E+03  0.11912800894E+02  0.29756302898E+03  0.33818597908E+03  0.12500000000E+03 0.  0.
         25    1    1    2    0    0  0.34542024878E+02  0.39364831827E+02 -0.17269606593E+03  0.21952601817E+03  0.12500000000E+03 0.  0.
</event>
<event>
 5    0  0.5778875E-005  0.1068120E+04  0.7546771E-02  0.9236833E-01
         21   -1    0    0  502  501  0.00000000000E+00  0.00000000000E+00  0.15814520357E+04  0.15814520357E+04  0.00000000000E+00 0.  1.
         21   -1    0    0  501  502 -0.00000000000E+00 -0.00000000000E+00 -0.72141367301E+03  0.72141367301E+03  0.00000000000E+00 0.  1.
         25    1    1    2    0    0 -0.60940440359E+03  0.55021421702E+03 -0.12828874771E+03  0.84035255371E+03  0.12500000000E+03 0.  0.
         25    1    1    2    0    0  0.23433361885E+03  0.11190453818E+03  0.39772018340E+03  0.49116312451E+03  0.12500000000E+03 0.  0.
         25    1    1    2    0    0  0.37507078474E+03 -0.66211875520E+03  0.59060692701E+03  0.97135003052E+03  0.12500000000E+03 0.  0.
</event>
<event>
 5    0  0.5778875E-005  0.3545135E+03  0.7546771E-02  0.1060778E+00
         21   -1    0    0  502  501  0.00000000000E+00  0.00000000000E+00  0.10024034243E+04  0.10024034243E+04  0.00000000000E+00 0.  1.
         21   -1    0    0  501  502 -0.00000000000E+00 -0.00000000000E+00 -0.12537848609E+03  0.12537848609E+03  0.00000000000E+00 0.  1.
         25    1    1    2    0    0  0.20108062751E+03  0.27925399172E+02  0.46641029628E+03  0.52380989983E+03  0.12500000000E+03 0.  0.
         25    1    1    2    0    0 -0.14439984783E+03  0.62495483806E+02  0.38947333529E+03  0.43825960395E+03  0.12500000000E+03 0.  0.
         25    1    1    2    0    0 -0.56680779680E+02 -0.90420882977E+02  0.21141306648E+02  0.16571240663E+03  0.12500000000E+03 0.  0.
</event>
<event>
 5    0  0.5778875E-005  0.3367326E+03  0.7546771E-02  0.1068196E+00
         21   -1    0    0  502  501  0.00000000000E+00  0.00000000000E+00  0.48041494690E+03  0.48041494690E+03  0.00000000000E+00 0.  1.
         21   -1    0    0  501  502 -0.00000000000E+00 -0.00000000000E+00 -0.23602268719E+03  0.23602268719E+03  0.00000000000E+00 0.  1.
         25    1    1    2    0    0  0.25759176386E+02 -0.17729148252E+03  0.26056062694E+03  0.34001859545E+03  0.12500000000E+03 0.  0.
         25    1    1    2    0    0 -0.30860062807E+02  0.22762666594E+02 -0.95958957687E+02  0.16218385871E+03  0.12500000000E+03 0.  0.
         25    1    1    2    0    0  0.51008864208E+01  0.15452881592E+03  0.79790590445E+02  0.21423517992E+03  0.12500000000E+03 0.  0.
</event>
<event>
 5    0  0.5778875E-005  0.2285977E+03  0.7546771E-02  0.1127631E+00
         21   -1    0    0  502  501  0.00000000000E+00  0.00000000000E+00  0.92146000885E+02  0.92146000885E+02  0.00000000000E+00 0.  1.
         21   -1    0    0  501  502 -0.00000000000E+00 -0.00000000000E+00 -0.56710995356E+03  0.56710995356E+03  0.00000000000E+00 0.  1.
         25    1    1    2    0    0 -0.43017417534E+02 -0.20276737260E+02 -0.25293027968E+03  0.28611251399E+03  0.12500000000E+03 0.  0.
         25    1    1    2    0    0  0.36003355898E+02  0.85410178978E+02 -0.14327881911E+03  0.21153004589E+03  0.12500000000E+03 0.  0.
         25    1    1    2    0    0  0.70140616350E+01 -0.65133441719E+02 -0.78754853886E+02  0.16161339456E+03  0.12500000000E+03 0.  0.
</event>
<event>
 5    0  0.5778875E-005  0.2948730E+03  0.7546771E-02  0.1087832E+00
         21   -1    0    0  502  501  0.00000000000E+00  0.00000000000E+00  0.22253590148E+03  0.22253590148E+03  0.00000000000E+00 0.  1.
         21   -1    0    0  501  502 -0.00000000000E+00 -0.00000000000E+00 -0.39072389770E+03  0.39072389770E+03  0.00000000000E+00 0.  1.
         25    1    1    2    0    0 -0.91467294216E+02 -0.26480490034E+02 -0.23492377467E+03  0.28263344135E+03  0.12500000000E+03 0.  0.
         25    1    1    2    0    0  0.24786031369E+02  0.65296087995E+02 -0.40439834331E+02  0.14878947093E+03  0.12500000000E+03 0.  0.
         25    1    1    2    0    0  0.66681262848E+02 -0.38815597960E+02  0.10717561279E+03  0.18183688690E+03  0.12500000000E+03 0.  0.
</event>
<event>
 5    0  0.1086306E-004  0.7082093E+03  0.7546771E-02  0.9703295E-01
         21   -1    0    0  502  501  0.00000000000E+00  0.00000000000E+00  0.99998753831E+03  0.99998753831E+03  0.00000000000E+00 0.  1.
         21   -1    0    0  501  502 -0.00000000000E+00 -0.00000000000E+00 -0.50156661281E+03  0.50156661281E+03  0.00000000000E+00 0. -1.
         25    1    1    2    0    0 -0.10062860144E+03 -0.14811696709E+03  0.55197880549E+03  0.59360791190E+03  0.12500000000E+03 0.  0.
         25    1    1    2    0    0  0.21062812251E+03  0.46447477492E+03  0.69899516199E+02  0.52972819907E+03  0.12500000000E+03 0.  0.
         25    1    1    2    0    0 -0.10999952108E+03 -0.31635780783E+03 -0.12345739619E+03  0.37821804014E+03  0.12500000000E+03 0.  0.
</event>
<event>
 5    0  0.5778875E-005  0.3205966E+03  0.7546771E-02  0.1075375E+00
         21   -1    0    0  502  501  0.00000000000E+00  0.00000000000E+00  0.40146185254E+03  0.40146185254E+03  0.00000000000E+00 0. -1.
         21   -1    0    0  501  502 -0.00000000000E+00 -0.00000000000E+00 -0.25601981718E+03  0.25601981718E+03  0.00000000000E+00 0. -1.
         25    1    1    2    0    0 -0.24443057846E+02  0.30438743975E+02 -0.13676520326E+03  0.18935073550E+03  0.12500000000E+03 0.  0.
         25    1    1    2    0    0  0.11246609375E+03 -0.11017253317E+03  0.15582798476E+03  0.25435009366E+03  0.12500000000E+03 0.  0.
         25    1    1    2    0    0 -0.88023035909E+02  0.79733789196E+02  0.12637925386E+03  0.21378084057E+03  0.12500000000E+03 0.  0.
</event>
<event>
 5    0  0.5778875E-005  0.4400439E+03  0.7546771E-02  0.1030733E+00
         21   -1    0    0  502  501  0.00000000000E+00  0.00000000000E+00  0.12870425004E+04  0.12870425004E+04  0.00000000000E+00 0.  1.
         21   -1    0    0  501  502 -0.00000000000E+00 -0.00000000000E+00 -0.15045240676E+03  0.15045240676E+03  0.00000000000E+00 0.  1.
         25    1    1    2    0    0 -0.15729952936E+03 -0.23202256006E+02  0.69299493094E+03  0.72190613028E+03  0.12500000000E+03 0.  0.
         25    1    1    2    0    0  0.27067703514E+02  0.20272455706E+03  0.38631980761E+03  0.45464040775E+03  0.12500000000E+03 0.  0.
         25    1    1    2    0    0  0.13023182585E+03 -0.17952230105E+03  0.57275355065E+02  0.26094836910E+03  0.12500000000E+03 0.  0.
</event>
<event>
 5    0  0.5778875E-005  0.3935894E+03  0.7546771E-02  0.1046022E+00
         21   -1    0    0  502  501  0.00000000000E+00  0.00000000000E+00  0.84651446156E+03  0.84651446156E+03  0.00000000000E+00 0.  1.
         21   -1    0    0  501  502 -0.00000000000E+00 -0.00000000000E+00 -0.18300054192E+03  0.18300054192E+03  0.00000000000E+00 0.  1.
         25    1    1    2    0    0 -0.23697513279E+03  0.15940562865E+03  0.12343678783E+03  0.33530435219E+03  0.12500000000E+03 0.  0.
         25    1    1    2    0    0  0.20110084606E+03 -0.18466490384E+03  0.41312907186E+03  0.51072821247E+03  0.12500000000E+03 0.  0.
         25    1    1    2    0    0  0.35874286730E+02  0.25259275197E+02  0.12694805995E+03  0.18348243883E+03  0.12500000000E+03 0.  0.
</event>
<event>
 5    0  0.5778875E-005  0.2859131E+03  0.7546771E-02  0.1092502E+00
         21   -1    0    0  502  501  0.00000000000E+00  0.00000000000E+00  0.36844717319E+03  0.36844717319E+03  0.00000000000E+00 0.  1.
         21   -1    0    0  501  502 -0.00000000000E+00 -0.00000000000E+00 -0.22186707219E+03  0.22186707219E+03  0.00000000000E+00 0.  1.
         25    1    1    2    0    0  0.14607183031E+02 -0.14033727774E+03  0.17707307734E+02  0.18933164043E+03  0.12500000000E+03 0.  0.
         25    1    1    2    0    0  0.95188829097E+02  0.85252874254E+02  0.13748921159E+03  0.22551551844E+03  0.12500000000E+03 0.  0.
         25    1    1    2    0    0 -0.10979601213E+03  0.55084403486E+02 -0.86164183202E+01  0.17546708652E+03  0.12500000000E+03 0.  0.
</event>
<event>
 5    0  0.5778875E-005  0.6469459E+03  0.7546771E-02  0.9812527E-01
         21   -1    0    0  502  501  0.00000000000E+00  0.00000000000E+00  0.82819095492E+03  0.82819095492E+03  0.00000000000E+00 0.  1.
         21   -1    0    0  501  502 -0.00000000000E+00 -0.00000000000E+00 -0.50536527876E+03  0.50536527876E+03  0.00000000000E+00 0.  1.
         25    1    1    2    0    0  0.17934144487E+02 -0.21423377606E+03  0.69662004384E+03  0.73967711187E+03  0.12500000000E+03 0.  0.
         25    1    1    2    0    0  0.87458456354E+02 -0.37789477166E+02 -0.16601663034E+03  0.22861222129E+03  0.12500000000E+03 0.  0.
         25    1    1    2    0    0 -0.10539260084E+03  0.25202325322E+03 -0.20777773735E+03  0.36526690052E+03  0.12500000000E+03 0.  0.
</event>
<event>
 5    0  0.5778875E-005  0.2923285E+03  0.7546771E-02  0.1089140E+00
         21   -1    0    0  502  501  0.00000000000E+00  0.00000000000E+00  0.13651435392E+04  0.13651435392E+04  0.00000000000E+00 0. -1.
         21   -1    0    0  501  502 -0.00000000000E+00 -0.00000000000E+00 -0.62598497806E+02  0.62598497806E+02  0.00000000000E+00 0. -1.
         25    1    1    2    0    0  0.11430876945E+03 -0.91604113372E+02  0.27157128300E+03  0.33291706191E+03  0.12500000000E+03 0.  0.
         25    1    1    2    0    0 -0.14716021585E+02  0.14801717796E+03  0.63615844097E+03  0.66516780461E+03  0.12500000000E+03 0.  0.
         25    1    1    2    0    0 -0.99592747862E+02 -0.56413064591E+02  0.39481531739E+03  0.42965717046E+03  0.12500000000E+03 0.  0.
</event>
<event>
 5    0  0.5778875E-005  0.3152762E+03  0.7546771E-02  0.1077844E+00
         21   -1    0    0  502  501  0.00000000000E+00  0.00000000000E+00  0.20789630129E+03  0.20789630129E+03  0.00000000000E+00 0. -1.
         21   -1    0    0  501  502 -0.00000000000E+00 -0.00000000000E+00 -0.47811871238E+03  0.47811871238E+03  0.00000000000E+00 0. -1.
         25    1    1    2    0    0  0.19248279987E+03  0.12166508677E+03 -0.10645333125E+03  0.28073000074E+03  0.12500000000E+03 0.  0.
         25    1    1    2    0    0 -0.84816058720E+02  0.19329695990E+02 -0.85058619761E+02  0.17443442825E+03  0.12500000000E+03 0.  0.
         25    1    1    2    0    0 -0.10766674115E+03 -0.14099478276E+03 -0.78710460087E+02  0.23085058467E+03  0.12500000000E+03 0.  0.
</event>
<event>
 5    0  0.5778875E-005  0.2817748E+03  0.7546771E-02  0.1094723E+00
         21   -1    0    0  502  501  0.00000000000E+00  0.00000000000E+00  0.19234000128E+03  0.19234000128E+03  0.00000000000E+00 0.  1.
         21   -1    0    0  501  502 -0.00000000000E+00 -0.00000000000E+00 -0.41279537673E+03  0.41279537673E+03  0.00000000000E+00 0.  1.
         25    1    1    2    0    0 -0.50687220343E+02 -0.86806711180E+01 -0.99715121652E+02  0.16796622828E+03  0.12500000000E+03 0.  0.
         25    1    1    2    0    0  0.70004427878E+02 -0.15452117233E+03 -0.35038614526E+02  0.21361207159E+03  0.12500000000E+03 0.  0.
         25    1    1    2    0    0 -0.19317207536E+02  0.16320184345E+03 -0.85701639268E+02  0.22355707814E+03  0.12500000000E+03 0.  0.
</event>
<event>
 5    0  0.5778875E-005  0.3078851E+03  0.7546771E-02  0.1081364E+00
         21   -1    0    0  502  501  0.00000000000E+00  0.00000000000E+00  0.59203341757E+03  0.59203341757E+03  0.00000000000E+00 0. -1.
         21   -1    0    0  501  502 -0.00000000000E+00 -0.00000000000E+00 -0.16011468904E+03  0.16011468904E+03  0.00000000000E+00 0. -1.
         25    1    1    2    0    0  0.34756100079E+02  0.22389359987E+02  0.14596066125E+02  0.13246627903E+03  0.12500000000E+03 0.  0.
         25    1    1    2    0    0  0.14816962388E+03  0.83245941574E+02  0.21936567416E+03  0.30435246546E+03  0.12500000000E+03 0.  0.
         25    1    1    2    0    0 -0.18292572396E+03 -0.10563530156E+03  0.19795698825E+03  0.31532936212E+03  0.12500000000E+03 0.  0.
</event>
<event>
 5    0  0.5778875E-005  0.2776119E+03  0.7546771E-02  0.1097000E+00
         21   -1    0    0  502  501  0.00000000000E+00  0.00000000000E+00  0.51370361936E+03  0.51370361936E+03  0.00000000000E+00 0. -1.
         21   -1    0    0  501  502 -0.00000000000E+00 -0.00000000000E+00 -0.15002500123E+03  0.15002500123E+03  0.00000000000E+00 0. -1.
         25    1    1    2    0    0 -0.87913184832E+02 -0.96228911306E+02  0.13828671255E+03  0.22745757034E+03  0.12500000000E+03 0.  0.
         25    1    1    2    0    0  0.75893908692E+02 -0.39994853711E+02  0.96791312036E+01  0.15191497385E+03  0.12500000000E+03 0.  0.
         25    1    1    2    0    0  0.12019276140E+02  0.13622376502E+03  0.21571277438E+03  0.28435607640E+03  0.12500000000E+03 0.  0.
</event>
<event>
 5    0  0.5778875E-005  0.4949783E+03  0.7546771E-02  0.1015098E+00
         21   -1    0    0  502  501  0.00000000000E+00  0.00000000000E+00  0.90366770322E+03  0.90366770322E+03  0.00000000000E+00 0.  1.
         21   -1    0    0  501  502 -0.00000000000E+00 -0.00000000000E+00 -0.27112123059E+03  0.27112123059E+03  0.00000000000E+00 0.  1.
         25    1    1    2    0    0 -0.37514777073E+03  0.65516631248E+02  0.51519237586E+02  0.40411323994E+03  0.12500000000E+03 0.  0.
         25    1    1    2    0    0  0.87839965469E+02 -0.11108734532E+03  0.23822891477E+03  0.30403005387E+03  0.12500000000E+03 0.  0.
         25    1    1    2    0    0  0.28730780526E+03  0.45570714067E+02  0.34279832028E+03  0.46664564000E+03  0.12500000000E+03 0.  0.
</event>
<event>
 5    0  0.5778875E-005  0.2820251E+03  0.7546771E-02  0.1094588E+00
         21   -1    0    0  502  501  0.00000000000E+00  0.00000000000E+00  0.12475552947E+03  0.12475552947E+03  0.00000000000E+00 0. -1.
         21   -1    0    0  501  502 -0.00000000000E+00 -0.00000000000E+00 -0.63755210615E+03  0.63755210615E+03  0.00000000000E+00 0. -1.
         25    1    1    2    0    0  0.15714818396E+03 -0.44784128706E+02 -0.13783143125E+03  0.24763617132E+03  0.12500000000E+03 0.  0.
         25    1    1    2    0    0 -0.15908636860E+02  0.91152798604E+02 -0.19922205876E+03  0.25273770221E+03  0.12500000000E+03 0.  0.
         25    1    1    2    0    0 -0.14123954710E+03 -0.46368669897E+02 -0.17574308667E+03  0.26193376210E+03  0.12500000000E+03 0.  0.
</event>
<event>
 5    0  0.5856925E-005  0.4026534E+03  0.7546771E-02  0.1042865E+00
         21   -1    0    0  502  501  0.00000000000E+00  0.00000000000E+00  0.20875603654E+03  0.20875603654E+03  0.00000000000E+00 0.  1.
         21   -1    0    0  501  502 -0.00000000000E+00 -0.00000000000E+00 -0.77664691063E+03  0.77664691063E+03  0.00000000000E+00 0. -1.
         25    1    1    2    0    0  0.96597835114E+02 -0.16070099692E+03 -0.29922537854E+03  0.37458881366E+03  0.12500000000E+03 0.  0.
         25    1    1    2    0    0 -0.12335917715E+03  0.23170456129E+03 -0.34062966377E+03  0.44783708885E+03  0.12500000000E+03 0.  0.
         25    1    1    2    0    0  0.26761342038E+02 -0.71003564366E+02  0.71964168220E+02  0.16297704467E+03  0.12500000000E+03 0.  0.
</event>
<event>
 5    0  0.5778875E-005  0.2427465E+03  0.7546771E-02  0.1117977E+00
         21   -1    0    0  502  501  0.00000000000E+00  0.00000000000E+00  0.14412297256E+04  0.14412297256E+04  0.00000000000E+00 0.  1.
         21   -1    0    0  501  502 -0.00000000000E+00 -0.00000000000E+00 -0.40885824039E+02  0.40885824039E+02  0.00000000000E+00 0.  1.
         25    1    1    2    0    0 -0.76833756087E+02 -0.71986044518E+02  0.42871820561E+03  0.45881337873E+03  0.12500000000E+03 0.  0.
         25    1    1    2    0    0 -0.45114779979E+02  0.59291945922E+02  0.46854624572E+03  0.49062354468E+03  0.12500000000E+03 0.  0.
         25    1    1    2    0    0  0.12194853607E+03  0.12694098596E+02  0.50307945022E+03  0.53267862621E+03  0.12500000000E+03 0.  0.
</event>
<event>
 5    0  0.5778875E-005  0.2597333E+03  0.7546771E-02  0.1107304E+00
         21   -1    0    0  502  501  0.00000000000E+00  0.00000000000E+00  0.84948736906E+03  0.84948736906E+03  0.00000000000E+00 0. -1.
         21   -1    0    0  501  502 -0.00000000000E+00 -0.00000000000E+00 -0.79414252605E+02  0.79414252605E+02  0.00000000000E+00 0. -1.
         25    1    1    2    0    0  0.96487818950E+02  0.85527883814E+02  0.23301188325E+03  0.29418439090E+03  0.12500000000E+03 0.  0.
         25    1    1    2    0    0 -0.13793020481E+01 -0.88729762556E+02  0.39191283539E+03  0.42082721369E+03  0.12500000000E+03 0.  0.
         25    1    1    2    0    0 -0.95108516902E+02  0.32018787418E+01  0.14514839781E+03  0.21389001707E+03  0.12500000000E+03 0.  0.
</event>
<event>
 5    0  0.5778875E-005  0.3765851E+03  0.7546771E-02  0.1052203E+00
         21   -1    0    0  502  501  0.00000000000E+00  0.00000000000E+00  0.19173501448E+03  0.19173501448E+03  0.00000000000E+00 0. -1.
         21   -1    0    0  501  502 -0.00000000000E+00 -0.00000000000E+00 -0.73964760310E+03  0.73964760310E+03  0.00000000000E+00 0. -1.
         25    1    1    2    0    0  0.13836105801E+03  0.16699547233E+02 -0.47022533788E+02  0.19302532459E+03  0.12500000000E+03 0.  0.
         25    1    1    2    0    0 -0.15740535798E+03 -0.21946641565E+03 -0.22317724142E+03  0.37198795062E+03  0.12500000000E+03 0.  0.
         25    1    1    2    0    0  0.19044299978E+02  0.20276686842E+03 -0.27771281342E+03  0.36636934237E+03  0.12500000000E+03 0.  0.
</event>
<event>
 5    0  0.5778875E-005  0.2245948E+03  0.7546771E-02  0.1130503E+00
         21   -1    0    0  502  501  0.00000000000E+00  0.00000000000E+00  0.61816503892E+03  0.61816503892E+03  0.00000000000E+00 0.  1.
         21   -1    0    0  501  502 -0.00000000000E+00 -0.00000000000E+00 -0.81600906974E+02  0.81600906974E+02  0.00000000000E+00 0.  1.
         25    1    1    2    0    0  0.61706083449E+02  0.39161886427E+02  0.91189982905E+02  0.17111956950E+03  0.12500000000E+03 0.  0.
         25    1    1    2    0    0 -0.72944900048E+02  0.18669401743E+02  0.24700349688E+03  0.28688888525E+03  0.12500000000E+03 0.  0.
         25    1    1    2    0    0  0.11238816598E+02 -0.57831288170E+02  0.19837065215E+03  0.24175749115E+03  0.12500000000E+03 0.  0.
</event>
<event>
 5    0  0.5778875E-005  0.2504026E+03  0.7546771E-02  0.1113051E+00
         21   -1    0    0  502  501  0.00000000000E+00  0.00000000000E+00  0.34064767646E+03  0.34064767646E+03  0.00000000000E+00 0. -1.
         21   -1    0    0  501  502 -0.00000000000E+00 -0.00000000000E+00 -0.18406548307E+03  0.18406548307E+03  0.00000000000E+00 0. -1.
         25    1    1    2    0    0  0.12933827355E+03  0.32080835915E+02  0.36948007575E+02  0.18640741482E+03  0.12500000000E+03 0.  0.
         25    1    1    2    0    0 -0.12539272789E+03  0.25280654986E+02  0.68699047328E+02  0.19159072741E+03  0.12500000000E+03 0.  0.
         25    1    1    2    0    0 -0.39455456539E+01 -0.57361490902E+02  0.50935138481E+02  0.14671501730E+03  0.12500000000E+03 0.  0.
</event>
<event>
 5    0  0.5778875E-005  0.2366596E+03  0.7546771E-02  0.1122038E+00
         21   -1    0    0  502  501  0.00000000000E+00  0.00000000000E+00  0.72560844813E+03  0.72560844813E+03  0.00000000000E+00 0.  1.
         21   -1    0    0  501  502 -0.00000000000E+00 -0.00000000000E+00 -0.77187303888E+02  0.77187303888E+02  0.00000000000E+00 0.  1.
         25    1    1    2    0    0 -0.18194194719E+02  0.99527042062E+01  0.18808949170E+03  0.22678787872E+03  0.12500000000E+03 0.  0.
         25    1    1    2    0    0 -0.22588993859E+02 -0.11645276341E+03  0.18489968666E+03  0.25275364068E+03  0.12500000000E+03 0.  0.
         25    1    1    2    0    0  0.40783188578E+02  0.10650005921E+03  0.27543196588E+03  0.32325423262E+03  0.12500000000E+03 0.  0.
</event>
<event>
 5    0  0.5778875E-005  0.3035967E+03  0.7546771E-02  0.1083456E+00
         21   -1    0    0  502  501  0.00000000000E+00  0.00000000000E+00  0.51346063173E+03  0.51346063173E+03  0.00000000000E+00 0. -1.
         21   -1    0    0  501  502 -0.00000000000E+00 -0.00000000000E+00 -0.17950930241E+03  0.17950930241E+03  0.00000000000E+00 0. -1.
         25    1    1    2    0    0  0.97160286919E+02  0.12580248529E+03  0.94241023587E+02  0.22309808871E+03  0.12500000000E+03 0.  0.
         25    1    1    2    0    0 -0.16869130755E+03 -0.75349755147E+01  0.81260416913E+02  0.22525938039E+03  0.12500000000E+03 0.  0.
         25    1    1    2    0    0  0.71531020631E+02 -0.11826750978E+03  0.15844988883E+03  0.24461246503E+03  0.12500000000E+03 0.  0.
</event>
<event>
 5    0  0.5778875E-005  0.5758599E+03  0.7546771E-02  0.9956795E-01
         21   -1    0    0  502  501  0.00000000000E+00  0.00000000000E+00  0.43167881963E+03  0.43167881963E+03  0.00000000000E+00 0. -1.
         21   -1    0    0  501  502 -0.00000000000E+00 -0.00000000000E+00 -0.76819749286E+03  0.76819749286E+03  0.00000000000E+00 0. -1.
         25    1    1    2    0    0 -0.96493735872E+02 -0.33921505156E+02  0.90947625032E+02  0.18535959666E+03  0.12500000000E+03 0.  0.
         25    1    1    2    0    0 -0.14466341020E+02 -0.34874015939E+03  0.56805634307E+02  0.37507446445E+03  0.12500000000E+03 0.  0.
         25    1    1    2    0    0  0.11096007689E+03  0.38266166455E+03 -0.48427193256E+03  0.63944225138E+03  0.12500000000E+03 0.  0.
</event>
<event>
 5    0  0.5778875E-005  0.3129160E+03  0.7546771E-02  0.1078957E+00
         21   -1    0    0  502  501  0.00000000000E+00  0.00000000000E+00  0.73882751767E+03  0.73882751767E+03  0.00000000000E+00 0.  1.
         21   -1    0    0  501  502 -0.00000000000E+00 -0.00000000000E+00 -0.13252951310E+03  0.13252951310E+03  0.00000000000E+00 0.  1.
         25    1    1    2    0    0 -0.39427746179E+02  0.57225430350E+02  0.22009050576E+03  0.26247690903E+03  0.12500000000E+03 0.  0.
         25    1    1    2    0    0 -0.15094459073E+02  0.16486693180E+03  0.20349857714E+03  0.29059528350E+03  0.12500000000E+03 0.  0.
         25    1    1    2    0    0  0.54522205252E+02 -0.22209236215E+03  0.18270892167E+03  0.31828483824E+03  0.12500000000E+03 0.  0.
</event>
<event>
 5    0  0.5778875E-005  0.2604226E+03  0.7546771E-02  0.1106890E+00
         21   -1    0    0  502  501  0.00000000000E+00  0.00000000000E+00  0.15426915085E+04  0.15426915085E+04  0.00000000000E+00 0.  1.
         21   -1    0    0  501  502 -0.00000000000E+00 -0.00000000000E+00 -0.43962076400E+02  0.43962076400E+02  0.00000000000E+00 0.  1.
         25    1    1    2    0    0  0.78064820513E+01  0.62377570596E+01  0.36612363669E+03  0.38700305957E+03  0.12500000000E+03 0.  0.
         25    1    1    2    0    0  0.28530244780E+02  0.10175303616E+02  0.11170795550E+03  0.17035603597E+03  0.12500000000E+03 0.  0.
         25    1    1    2    0    0 -0.36336726832E+02 -0.16413060676E+02  0.10208978399E+04  0.10292944893E+04  0.12500000000E+03 0.  0.
</event>
<event>
 5    0  0.5778875E-005  0.3207975E+03  0.7546771E-02  0.1075283E+00
         21   -1    0    0  502  501  0.00000000000E+00  0.00000000000E+00  0.11150073064E+04  0.11150073064E+04  0.00000000000E+00 0.  1.
         21   -1    0    0  501  502 -0.00000000000E+00 -0.00000000000E+00 -0.92296287086E+02  0.92296287086E+02  0.00000000000E+00 0.  1.
         25    1    1    2    0    0  0.87888577255E+02  0.96426783595E+02  0.10988253892E+03  0.21147505519E+03  0.12500000000E+03 0.  0.
         25    1    1    2    0    0 -0.11189718686E+03 -0.42645369261E+02  0.17864283888E+03  0.24875263180E+03  0.12500000000E+03 0.  0.
         25    1    1    2    0    0  0.24008609602E+02 -0.53781414335E+02  0.73418564157E+03  0.74707590655E+03  0.12500000000E+03 0.  0.
</event>
<event>
 5    0  0.5778875E-005  0.2268042E+03  0.7546771E-02  0.1128910E+00
         21   -1    0    0  502  501  0.00000000000E+00  0.00000000000E+00  0.17635179990E+04  0.17635179990E+04  0.00000000000E+00 0. -1.
         21   -1    0    0  501  502 -0.00000000000E+00 -0.00000000000E+00 -0.29169042369E+02  0.29169042369E+02  0.00000000000E+00 0. -1.
         25    1    1    2    0    0  0.32323950032E+01 -0.21448451929E+02  0.55164954330E+03  0.56605008885E+03  0.12500000000E+03 0.  0.
         25    1    1    2    0    0  0.87690377411E+02  0.17988897942E+02  0.78555286627E+03  0.80045706221E+03  0.12500000000E+03 0.  0.
         25    1    1    2    0    0 -0.90922772414E+02  0.34595539868E+01  0.39714654707E+03  0.42617989031E+03  0.12500000000E+03 0.  0.
</event>
<event>
 5    0  0.5778875E-005  0.2519604E+03  0.7546771E-02  0.1112072E+00
         21   -1    0    0  502  501  0.00000000000E+00  0.00000000000E+00  0.32107774087E+03  0.32107774087E+03  0.00000000000E+00 0.  1.
         21   -1    0    0  501  502 -0.00000000000E+00 -0.00000000000E+00 -0.19772168999E+03  0.19772168999E+03  0.00000000000E+00 0.  1.
         25    1    1    2    0    0 -0.82986600096E+02 -0.33778648102E+01 -0.46594695087E+02  0.15714404658E+03  0.12500000000E+03 0.  0.
         25    1    1    2    0    0  0.80526915432E+01 -0.69253978779E+02  0.13144474603E+03  0.19432879528E+03  0.12500000000E+03 0.  0.
         25    1    1    2    0    0  0.74933908552E+02  0.72631843590E+02  0.38505999938E+02  0.16732658900E+03  0.12500000000E+03 0.  0.
</event>
<event>
 5    0  0.5778875E-005  0.4302154E+03  0.7546771E-02  0.1033792E+00
         21   -1    0    0  502  501  0.00000000000E+00  0.00000000000E+00  0.81289537198E+03  0.81289537198E+03  0.00000000000E+00 0.  1.
         21   -1    0    0  501  502 -0.00000000000E+00 -0.00000000000E+00 -0.22768652016E+03  0.22768652016E+03  0.00000000000E+00 0.  1.
         25    1    1    2    0    0 -0.24231062048E+03 -0.33183410582E+01  0.99886069107E+02  0.29039227777E+03  0.12500000000E+03 0.  0.
         25    1    1    2    0    0  0.28893274158E+03  0.69602620647E+02  0.50579714936E+03  0.59981864781E+03  0.12500000000E+03 0.  0.
         25    1    1    2    0    0 -0.46622121097E+02 -0.66284279589E+02 -0.20474366636E+02  0.15037096656E+03  0.12500000000E+03 0.  0.
</event>
<event>
 5    0  0.5778875E-005  0.3078569E+03  0.7546771E-02  0.1081378E+00
         21   -1    0    0  502  501  0.00000000000E+00  0.00000000000E+00  0.48599063256E+03  0.48599063256E+03  0.00000000000E+00 0.  1.
         21   -1    0    0  501  502 -0.00000000000E+00 -0.00000000000E+00 -0.19501579239E+03  0.19501579239E+03  0.00000000000E+00 0.  1.
         25    1    1    2    0    0  0.17703756730E+03  0.83075627911E+02  0.15186966829E+03  0.27736844870E+03  0.12500000000E+03 0.  0.
         25    1    1    2    0    0  0.22340015106E+02 -0.26737090724E+02  0.86678457048E+02  0.15605160432E+03  0.12500000000E+03 0.  0.
         25    1    1    2    0    0 -0.19937758240E+03 -0.56338537187E+02  0.52426714836E+02  0.24758637193E+03  0.12500000000E+03 0.  0.
</event>
<event>
 5    0  0.5778875E-005  0.5594751E+03  0.7546771E-02  0.9993243E-01
         21   -1    0    0  502  501  0.00000000000E+00  0.00000000000E+00  0.48525114236E+03  0.48525114236E+03  0.00000000000E+00 0.  1.
         21   -1    0    0  501  502 -0.00000000000E+00 -0.00000000000E+00 -0.64505236967E+03  0.64505236967E+03  0.00000000000E+00 0.  1.
         25    1    1    2    0    0 -0.17111351181E+03 -0.34077564074E+03 -0.38681477407E+03  0.55736750953E+03  0.12500000000E+03 0.  0.
         25    1    1    2    0    0  0.86829034664E+02  0.33407891325E+03  0.20487068015E+03  0.42041051024E+03  0.12500000000E+03 0.  0.
         25    1    1    2    0    0  0.84284477146E+02  0.66967274927E+01  0.22142866607E+02  0.15252549226E+03  0.12500000000E+03 0.  0.
</event>
<event>
 5    0  0.5784204E-005  0.3960952E+03  0.7546771E-02  0.1045140E+00
         21   -1    0    0  502  501  0.00000000000E+00  0.00000000000E+00  0.40844798424E+03  0.40844798424E+03  0.00000000000E+00 0.  1.
         21   -1    0    0  501  502 -0.00000000000E+00 -0.00000000000E+00 -0.38411594321E+03  0.38411594321E+03  0.00000000000E+00 0.  1.
         25    1    1    2    0    0 -0.58364943003E+02  0.12651224716E+03  0.21307373665E+03  0.28361458443E+03  0.12500000000E+03 0.  0.
         25    1    1    2    0    0  0.13526265711E+03  0.66274238739E+02 -0.18090291172E+03  0.26653165778E+03  0.12500000000E+03 0.  0.
         25    1    1    2    0    0 -0.76897714110E+02 -0.19278648590E+03 -0.78387838985E+01  0.24241768523E+03  0.12500000000E+03 0.  0.
</event>
<event>
 5    0  0.5778875E-005  0.3354381E+03  0.7546771E-02  0.1068756E+00
         21   -1    0    0  502  501  0.00000000000E+00  0.00000000000E+00  0.11638868200E+03  0.11638868200E+03  0.00000000000E+00 0. -1.
         21   -1    0    0  501  502 -0.00000000000E+00 -0.00000000000E+00 -0.96674944155E+03  0.96674944155E+03  0.00000000000E+00 0. -1.
         25    1    1    2    0    0 -0.76554389710E+02  0.17973495759E+02 -0.35772726634E+03  0.38701087610E+03  0.12500000000E+03 0.  0.
         25    1    1    2    0    0  0.18298430244E+03 -0.16894895792E+02 -0.48298887689E+03  0.53166902076E+03  0.12500000000E+03 0.  0.
         25    1    1    2    0    0 -0.10642991273E+03 -0.10785999666E+01 -0.96446163248E+01  0.16445822669E+03  0.12500000000E+03 0.  0.
</event>
<event>
 5    0  0.5778875E-005  0.2383326E+03  0.7546771E-02  0.1120909E+00
         21   -1    0    0  502  501  0.00000000000E+00  0.00000000000E+00  0.11186209465E+03  0.11186209465E+03  0.00000000000E+00 0. -1.
         21   -1    0    0  501  502 -0.00000000000E+00 -0.00000000000E+00 -0.50778997387E+03  0.50778997387E+03  0.00000000000E+00 0. -1.
         25    1    1    2    0    0 -0.21111080463E+02  0.18765695574E+02 -0.25070330640E+02  0.13058081990E+03  0.12500000000E+03 0.  0.
         25    1    1    2    0    0  0.49578351366E+02 -0.81672286454E+02 -0.27581143180E+03  0.31753003198E+03  0.12500000000E+03 0.  0.
         25    1    1    2    0    0 -0.28467270903E+02  0.62906590880E+02 -0.95046116782E+02  0.17154121663E+03  0.12500000000E+03 0.  0.
</event>
<event>
 5    0  0.5909975E-005  0.2671868E+03  0.7546771E-02  0.1102901E+00
         21   -1    0    0  502  501  0.00000000000E+00  0.00000000000E+00  0.47236947943E+03  0.47236947943E+03  0.00000000000E+00 0.  1.
         21   -1    0    0  501  502 -0.00000000000E+00 -0.00000000000E+00 -0.15112911744E+03  0.15112911744E+03  0.00000000000E+00 0.  1.
         25    1    1    2    0    0  0.15924484076E+03  0.17838417846E+02  0.64266251965E+02  0.21314849190E+03  0.12500000000E+03 0.  0.
         25    1    1    2    0    0 -0.10095299443E+03  0.46927880679E+02  0.14105550444E+03  0.21889583916E+03  0.12500000000E+03 0.  0.
         25    1    1    2    0    0 -0.58291846324E+02 -0.64766298525E+02  0.11591860558E+03  0.19145426580E+03  0.12500000000E+03 0.  0.
</event>
<event>
 5    0  0.5778875E-005  0.2202489E+03  0.7546771E-02  0.1133698E+00
         21   -1    0    0  502  501  0.00000000000E+00  0.00000000000E+00  0.51052997037E+02  0.51052997037E+02  0.00000000000E+00 0.  1.
         21   -1    0    0  501  502 -0.00000000000E+00 -0.00000000000E+00 -0.95018072424E+03  0.95018072424E+03  0.00000000000E+00 0.  1.
         25    1    1    2    0    0  0.70136626356E+02 -0.33893616007E+02 -0.40202780423E+03  0.42815800697E+03  0.12500000000E+03 0.  0.
         25    1    1    2    0    0 -0.82411086613E+02 -0.91920581782E+00 -0.31888878568E+03  0.35228892939E+03  0.12500000000E+03 0.  0.
         25    1    1    2    0    0  0.12274460257E+02  0.34812821825E+02 -0.17821113730E+03  0.22078678492E+03  0.12500000000E+03 0.  0.
</event>
<event>
 5    0  0.5778875E-005  0.4324035E+03  0.7546771E-02  0.1033103E+00
         21   -1    0    0  502  501  0.00000000000E+00  0.00000000000E+00  0.12490054305E+03  0.12490054305E+03  0.00000000000E+00 0. -1.
         21   -1    0    0  501  502 -0.00000000000E+00 -0.00000000000E+00 -0.14969732007E+04  0.14969732007E+04  0.00000000000E+00 0. -1.
         25    1    1    2    0    0  0.15897678151E+03 -0.21248364085E+03 -0.10553173176E+04  0.10953276019E+04  0.12500000000E+03 0.  0.
         25    1    1    2    0    0 -0.16622985182E+03  0.14249253426E+03 -0.28332929708E+03  0.37925845612E+03  0.12500000000E+03 0.  0.
         25    1    1    2    0    0  0.72530703146E+01  0.69991106589E+02 -0.33426043039E+02  0.14728768578E+03  0.12500000000E+03 0.  0.
</event>
<event>
 5    0  0.5778875E-005  0.2622889E+03  0.7546771E-02  0.1105776E+00
         21   -1    0    0  502  501  0.00000000000E+00  0.00000000000E+00  0.18599670367E+03  0.18599670367E+03  0.00000000000E+00 0.  1.
         21   -1    0    0  501  502 -0.00000000000E+00 -0.00000000000E+00 -0.36987460302E+03  0.36987460302E+03  0.00000000000E+00 0.  1.
         25    1    1    2    0    0 -0.14554418004E+03 -0.82312975692E+00 -0.10815216466E+03  0.22024004315E+03  0.12500000000E+03 0.  0.
         25    1    1    2    0    0  0.10435707679E+02 -0.45910483555E+02 -0.72849966307E+01  0.13377125129E+03  0.12500000000E+03 0.  0.
         25    1    1    2    0    0  0.13510847236E+03  0.46733613312E+02 -0.68440738067E+02  0.20186001225E+03  0.12500000000E+03 0.  0.
</event>
<event>
 5    0  0.5778875E-005  0.2218385E+03  0.7546771E-02  0.1132520E+00
         21   -1    0    0  502  501  0.00000000000E+00  0.00000000000E+00  0.11320228509E+04  0.11320228509E+04  0.00000000000E+00 0. -1.
         21   -1    0    0  501  502 -0.00000000000E+00 -0.00000000000E+00 -0.43472905170E+02  0.43472905170E+02  0.00000000000E+00 0. -1.
         25    1    1    2    0    0 -0.52374504595E-01  0.50270047047E+02  0.33730833803E+03  0.36322031231E+03  0.12500000000E+03 0.  0.
         25    1    1    2    0    0 -0.35916433886E+02 -0.92830874215E+02  0.28939938046E+03  0.33058215747E+03  0.12500000000E+03 0.  0.
         25    1    1    2    0    0  0.35968808391E+02  0.42560827167E+02  0.46184222727E+03  0.48169328631E+03  0.12500000000E+03 0.  0.
</event>
<event>
 5    0  0.5778875E-005  0.5949445E+03  0.7546771E-02  0.9915950E-01
         21   -1    0    0  502  501  0.00000000000E+00  0.00000000000E+00  0.88150909614E+03  0.88150909614E+03  0.00000000000E+00 0. -1.
         21   -1    0    0  501  502 -0.00000000000E+00 -0.00000000000E+00 -0.40153754737E+03  0.40153754737E+03  0.00000000000E+00 0. -1.
         25    1    1    2    0    0  0.19066047603E+03 -0.10120504445E+02  0.12449113055E+03  0.25995554104E+03  0.12500000000E+03 0.  0.
         25    1    1    2    0    0  0.16910207047E+03  0.94107469928E+01 -0.23811546601E+03  0.31781763253E+03  0.12500000000E+03 0.  0.
         25    1    1    2    0    0 -0.35976254650E+03  0.70975745170E+00  0.59359588424E+03  0.70527346994E+03  0.12500000000E+03 0.  0.
</event>
<event>
 5    0  0.5778875E-005  0.2075974E+03  0.7546771E-02  0.1143483E+00
         21   -1    0    0  502  501  0.00000000000E+00  0.00000000000E+00  0.17791823385E+03  0.17791823385E+03  0.00000000000E+00 0.  1.
         21   -1    0    0  501  502 -0.00000000000E+00 -0.00000000000E+00 -0.24222735013E+03  0.24222735013E+03  0.00000000000E+00 0.  1.
         25    1    1    2    0    0 -0.36832194604E+02  0.32707629509E+02 -0.12072420312E+02  0.13489678617E+03  0.12500000000E+03 0.  0.
         25    1    1    2    0    0  0.16258085755E+02  0.40074395258E+02 -0.76287155361E+01  0.13248954603E+03  0.12500000000E+03 0.  0.
         25    1    1    2    0    0  0.20574108849E+02 -0.72782024767E+02 -0.44607980437E+02  0.15275925177E+03  0.12500000000E+03 0.  0.
</event>
<event>
 5    0  0.5778875E-005  0.2153059E+03  0.7546771E-02  0.1137432E+00
         21   -1    0    0  502  501  0.00000000000E+00  0.00000000000E+00  0.63836279823E+02  0.63836279823E+02  0.00000000000E+00 0. -1.
         21   -1    0    0  501  502 -0.00000000000E+00 -0.00000000000E+00 -0.72617977032E+03  0.72617977032E+03  0.00000000000E+00 0. -1.
         25    1    1    2    0    0 -0.30579963912E+02  0.30658672359E+01 -0.15742875052E+03  0.20335521932E+03  0.12500000000E+03 0.  0.
         25    1    1    2    0    0 -0.60644579042E+02 -0.85791215495E+01 -0.29104640307E+03  0.32262110135E+03  0.12500000000E+03 0.  0.
         25    1    1    2    0    0  0.91224542953E+02  0.55132543136E+01 -0.21386833691E+03  0.26403972947E+03  0.12500000000E+03 0.  0.
</event>
<event>
 5    0  0.5778875E-005  0.3478012E+03  0.7546771E-02  0.1063521E+00
         21   -1    0    0  502  501  0.00000000000E+00  0.00000000000E+00  0.81631308986E+03  0.81631308986E+03  0.00000000000E+00 0. -1.
         21   -1    0    0  501  502 -0.00000000000E+00 -0.00000000000E+00 -0.14818541982E+03  0.14818541982E+03  0.00000000000E+00 0. -1.
         25    1    1    2    0    0  0.11007101697E+03 -0.84461568026E+02  0.11466238380E+03  0.21913887722E+03  0.12500000000E+03 0.  0.
         25    1    1    2    0    0 -0.14235848453E+03  0.23355821886E+03  0.36004775159E+03  0.46912126699E+03  0.12500000000E+03 0.  0.
         25    1    1    2    0    0  0.32287467565E+02 -0.14909665084E+03  0.19341753465E+03  0.27623836548E+03  0.12500000000E+03 0.  0.
</event>
<event>
 5    0  0.5778875E-005  0.2732347E+03  0.7546771E-02  0.1099442E+00
         21   -1    0    0  502  501  0.00000000000E+00  0.00000000000E+00  0.16593049887E+03  0.16593049887E+03  0.00000000000E+00 0. -1.
         21   -1    0    0  501  502 -0.00000000000E+00 -0.00000000000E+00 -0.44993062952E+03  0.44993062952E+03  0.00000000000E+00 0. -1.
         25    1    1    2    0    0  0.31569375665E+02  0.41131363683E+02 -0.27972274252E+03  0.31073819726E+03  0.12500000000E+03 0.  0.
         25    1    1    2    0    0  0.79039814885E+01 -0.10078352810E+03  0.46160202046E+01  0.16082941305E+03  0.12500000000E+03 0.  0.
         25    1    1    2    0    0 -0.39473357154E+02  0.59652164418E+02 -0.88934083387E+01  0.14429351807E+03  0.12500000000E+03 0.  0.
</event>
<event>
 5    0  0.5778875E-005  0.4115843E+03  0.7546771E-02  0.1039841E+00
         21   -1    0    0  502  501  0.00000000000E+00  0.00000000000E+00  0.44443260505E+03  0.44443260505E+03  0.00000000000E+00 0. -1.
         21   -1    0    0  501  502 -0.00000000000E+00 -0.00000000000E+00 -0.38116391152E+03  0.38116391152E+03  0.00000000000E+00 0. -1.
         25    1    1    2    0    0  0.10890302276E+03 -0.13935835105E+03  0.90372512074E+02  0.23467596663E+03  0.12500000000E+03 0.  0.
         25    1    1    2    0    0  0.10723684195E+03 -0.95837780028E+02  0.11171119820E+03  0.22088234913E+03  0.12500000000E+03 0.  0.
         25    1    1    2    0    0 -0.21613986471E+03  0.23519613108E+03 -0.13881501674E+03  0.37003820082E+03  0.12500000000E+03 0.  0.
</event>
<event>
 5    0  0.8190319E-005  0.4968264E+03  0.7546771E-02  0.1014611E+00
         21   -1    0    0  502  501  0.00000000000E+00  0.00000000000E+00  0.83573468410E+03  0.83573468410E+03  0.00000000000E+00 0.  1.
         21   -1    0    0  501  502 -0.00000000000E+00 -0.00000000000E+00 -0.29535267153E+03  0.29535267153E+03  0.00000000000E+00 0.  1.
         25    1    1    2    0    0 -0.61853446962E+02  0.16974460651E+03  0.42460917870E+03  0.47807639031E+03  0.12500000000E+03 0.  0.
         25    1    1    2    0    0  0.29955171196E+03  0.21458738300E-02  0.69588567880E+02  0.33196204139E+03  0.12500000000E+03 0.  0.
         25    1    1    2    0    0 -0.23769826500E+03 -0.16974675239E+03  0.46184265991E+02  0.32104892393E+03  0.12500000000E+03 0.  0.
</event>
<event>
 5    0  0.5778875E-005  0.4915900E+03  0.7546771E-02  0.1015998E+00
         21   -1    0    0  502  501  0.00000000000E+00  0.00000000000E+00  0.15575814569E+03  0.15575814569E+03  0.00000000000E+00 0. -1.
         21   -1    0    0  501  502 -0.00000000000E+00 -0.00000000000E+00 -0.15515124673E+04  0.15515124673E+04  0.00000000000E+00 0. -1.
         25    1    1    2    0    0 -0.84847613311E+02  0.36502664496E+03 -0.80978119434E+03  0.90100729837E+03  0.12500000000E+03 0.  0.
         25    1    1    2    0    0 -0.13164605826E+02  0.25255222099E+02 -0.96884452247E+02  0.16069452442E+03  0.12500000000E+03 0.  0.
         25    1    1    2    0    0  0.98012219137E+02 -0.39028186706E+03 -0.48908867502E+03  0.64556879021E+03  0.12500000000E+03 0.  0.
</event>
<event>
 5    0  0.5778875E-005  0.2689760E+03  0.7546771E-02  0.1101867E+00
         21   -1    0    0  502  501  0.00000000000E+00  0.00000000000E+00  0.17010187494E+04  0.17010187494E+04  0.00000000000E+00 0.  1.
         21   -1    0    0  501  502 -0.00000000000E+00 -0.00000000000E+00 -0.42532218394E+02  0.42532218394E+02  0.00000000000E+00 0.  1.
         25    1    1    2    0    0 -0.71541524718E+01  0.88220401590E+02  0.19589759303E+03  0.24866621827E+03  0.12500000000E+03 0.  0.
         25    1    1    2    0    0 -0.66472510454E+02 -0.78969592312E+02  0.69542735908E+03  0.71407212725E+03  0.12500000000E+03 0.  0.
         25    1    1    2    0    0  0.73626662926E+02 -0.92508092778E+01  0.76716157886E+03  0.78081262223E+03  0.12500000000E+03 0.  0.
</event>
<event>
 5    0  0.5778875E-005  0.2631996E+03  0.7546771E-02  0.1105236E+00
         21   -1    0    0  502  501  0.00000000000E+00  0.00000000000E+00  0.63341928632E+02  0.63341928632E+02  0.00000000000E+00 0.  1.
         21   -1    0    0  501  502 -0.00000000000E+00 -0.00000000000E+00 -0.10936522978E+04  0.10936522978E+04  0.00000000000E+00 0.  1.
         25    1    1    2    0    0 -0.94616193425E+02  0.58442162792E+02 -0.21287068519E+03  0.27075198811E+03  0.12500000000E+03 0.  0.
         25    1    1    2    0    0  0.31827895509E+02  0.49595567596E+01 -0.63396105010E+03  0.64696926139E+03  0.12500000000E+03 0.  0.
         25    1    1    2    0    0  0.62788297917E+02 -0.63401719552E+02 -0.18347863382E+03  0.23927297689E+03  0.12500000000E+03 0.  0.
</event>
<event>
 5    0  0.5778875E-005  0.2334140E+03  0.7546771E-02  0.1124260E+00
         21   -1    0    0  502  501  0.00000000000E+00  0.00000000000E+00  0.12459608161E+03  0.12459608161E+03  0.00000000000E+00 0.  1.
         21   -1    0    0  501  502 -0.00000000000E+00 -0.00000000000E+00 -0.43726963589E+03  0.43726963589E+03  0.00000000000E+00 0.  1.
         25    1    1    2    0    0  0.79830552235E+02 -0.10369671086E+03 -0.11585227567E+03  0.21487827878E+03  0.12500000000E+03 0.  0.
         25    1    1    2    0    0 -0.45163637623E+02  0.29029150089E+02 -0.90479730808E+02  0.16338306952E+03  0.12500000000E+03 0.  0.
         25    1    1    2    0    0 -0.34666914612E+02  0.74667560776E+02 -0.10634154779E+03  0.18360436920E+03  0.12500000000E+03 0.  0.
</event>
<event>
 5    0  0.5778875E-005  0.2676956E+03  0.7546771E-02  0.1102606E+00
         21   -1    0    0  502  501  0.00000000000E+00  0.00000000000E+00  0.41228001455E+03  0.41228001455E+03  0.00000000000E+00 0.  1.
         21   -1    0    0  501  502 -0.00000000000E+00 -0.00000000000E+00 -0.17381611928E+03  0.17381611928E+03  0.00000000000E+00 0.  1.
         25    1    1    2    0    0  0.28100522620E+02  0.53042429510E+02  0.16962120591E+03  0.21908786409E+03  0.12500000000E+03 0.  0.
         25    1    1    2    0    0 -0.10730771723E+03 -0.31281329960E+02  0.12296940651E+03  0.20794216196E+03  0.12500000000E+03 0.  0.
         25    1    1    2    0    0  0.79207194612E+02 -0.21761099550E+02 -0.54126717152E+02  0.15906610777E+03  0.12500000000E+03 0.  0.
</event>
<event>
 5    0  0.5778875E-005  0.2813080E+03  0.7546771E-02  0.1094977E+00
         21   -1    0    0  502  501  0.00000000000E+00  0.00000000000E+00  0.80564918948E+02  0.80564918948E+02  0.00000000000E+00 0.  1.
         21   -1    0    0  501  502 -0.00000000000E+00 -0.00000000000E+00 -0.98224102117E+03  0.98224102117E+03  0.00000000000E+00 0.  1.
         25    1    1    2    0    0 -0.42094509931E+02 -0.13901738726E+02 -0.51961604884E+03  0.53627515729E+03  0.12500000000E+03 0.  0.
         25    1    1    2    0    0  0.28917905976E+02 -0.11796450951E+03 -0.23401231778E+03  0.29178525607E+03  0.12500000000E+03 0.  0.
         25    1    1    2    0    0  0.13176603955E+02  0.13186624824E+03 -0.14804773560E+03  0.23474552676E+03  0.12500000000E+03 0.  0.
</event>
<event>
 5    0  0.5778875E-005  0.2881615E+03  0.7546771E-02  0.1091313E+00
         21   -1    0    0  502  501  0.00000000000E+00  0.00000000000E+00  0.19134408951E+03  0.19134408951E+03  0.00000000000E+00 0. -1.
         21   -1    0    0  501  502 -0.00000000000E+00 -0.00000000000E+00 -0.43396713364E+03  0.43396713364E+03  0.00000000000E+00 0. -1.
         25    1    1    2    0    0 -0.54701820300E+02 -0.90689642736E+02 -0.25180518358E+03  0.30041263443E+03  0.12500000000E+03 0.  0.
         25    1    1    2    0    0  0.26319554771E+02  0.66840908542E+02  0.91452494124E+02  0.17073073742E+03  0.12500000000E+03 0.  0.
         25    1    1    2    0    0  0.28382265529E+02  0.23848734194E+02 -0.82270354668E+02  0.15416785131E+03  0.12500000000E+03 0.  0.
</event>
<event>
 5    0  0.5778875E-005  0.3505907E+03  0.7546771E-02  0.1062373E+00
         21   -1    0    0  502  501  0.00000000000E+00  0.00000000000E+00  0.84386711801E+03  0.84386711801E+03  0.00000000000E+00 0. -1.
         21   -1    0    0  501  502 -0.00000000000E+00 -0.00000000000E+00 -0.14565541429E+03  0.14565541429E+03  0.00000000000E+00 0. -1.
         25    1    1    2    0    0  0.26258054058E+02  0.11634466488E+03  0.14062323211E+03  0.22276772625E+03  0.12500000000E+03 0.  0.
         25    1    1    2    0    0 -0.38998370447E+02 -0.22164155044E+03  0.54451179990E+03  0.60229888760E+03  0.12500000000E+03 0.  0.
         25    1    1    2    0    0  0.12740316388E+02  0.10529688556E+03  0.13076671712E+02  0.16445591845E+03  0.12500000000E+03 0.  0.
</event>
<event>
 5    0  0.5778875E-005  0.2869683E+03  0.7546771E-02  0.1091943E+00
         21   -1    0    0  502  501  0.00000000000E+00  0.00000000000E+00  0.41099214460E+03  0.41099214460E+03  0.00000000000E+00 0.  1.
         21   -1    0    0  501  502 -0.00000000000E+00 -0.00000000000E+00 -0.20037081224E+03  0.20037081224E+03  0.00000000000E+00 0.  1.
         25    1    1    2    0    0 -0.20726516371E+02  0.26100471536E+02 -0.68719786735E+02  0.14648628668E+03  0.12500000000E+03 0.  0.
         25    1    1    2    0    0 -0.10679881108E+03  0.33407890795E+02  0.19883072909E+03  0.26015520761E+03  0.12500000000E+03 0.  0.
         25    1    1    2    0    0  0.12752532746E+03 -0.59508362331E+02  0.80510390011E+02  0.20472146255E+03  0.12500000000E+03 0.  0.
</event>
<event>
 5    0  0.5778875E-005  0.3303964E+03  0.7546771E-02  0.1070962E+00
         21   -1    0    0  502  501  0.00000000000E+00  0.00000000000E+00  0.14811622686E+03  0.14811622686E+03  0.00000000000E+00 0.  1.
         21   -1    0    0  501  502 -0.00000000000E+00 -0.00000000000E+00 -0.73700095415E+03  0.73700095415E+03  0.00000000000E+00 0.  1.
         25    1    1    2    0    0  0.41838204228E+02  0.11711366220E+03 -0.44454641093E+03  0.47823901626E+03  0.12500000000E+03 0.  0.
         25    1    1    2    0    0 -0.11173071392E+03 -0.10069628377E+03  0.98256378931E+01  0.19581888867E+03  0.12500000000E+03 0.  0.
         25    1    1    2    0    0  0.69892509697E+02 -0.16417378436E+02 -0.15416395426E+03  0.21105927608E+03  0.12500000000E+03 0.  0.
</event>
<event>
 5    0  0.5778875E-005  0.3629082E+03  0.7546771E-02  0.1057438E+00
         21   -1    0    0  502  501  0.00000000000E+00  0.00000000000E+00  0.16362727264E+04  0.16362727264E+04  0.00000000000E+00 0.  1.
         21   -1    0    0  501  502 -0.00000000000E+00 -0.00000000000E+00 -0.80489242951E+02  0.80489242951E+02  0.00000000000E+00 0.  1.
         25    1    1    2    0    0  0.42547386965E+02 -0.13579479943E+03  0.83985896946E+03  0.86095214517E+03  0.12500000000E+03 0.  0.
         25    1    1    2    0    0 -0.15509486880E+03  0.72781236637E+02  0.14400356292E+03  0.25634654838E+03  0.12500000000E+03 0.  0.
         25    1    1    2    0    0  0.11254748183E+03  0.63013562791E+02  0.57192095105E+03  0.59946327579E+03  0.12500000000E+03 0.  0.
</event>
<event>
 5    0  0.5778875E-005  0.2263518E+03  0.7546771E-02  0.1129234E+00
         21   -1    0    0  502  501  0.00000000000E+00  0.00000000000E+00  0.13897839986E+03  0.13897839986E+03  0.00000000000E+00 0. -1.
         21   -1    0    0  501  502 -0.00000000000E+00 -0.00000000000E+00 -0.36865524126E+03  0.36865524126E+03  0.00000000000E+00 0. -1.
         25    1    1    2    0    0 -0.92538265470E+01 -0.11454068796E+01 -0.19476520008E+03  0.23161482773E+03  0.12500000000E+03 0.  0.
         25    1    1    2    0    0  0.32673920775E+02  0.43489784977E+02 -0.39406053859E+02  0.14190413516E+03  0.12500000000E+03 0.  0.
         25    1    1    2    0    0 -0.23420094228E+02 -0.42344378098E+02  0.44944125332E+01  0.13411467822E+03  0.12500000000E+03 0.  0.
</event>
<event>
 5    0  0.5778875E-005  0.3465704E+03  0.7546771E-02  0.1064032E+00
         21   -1    0    0  502  501  0.00000000000E+00  0.00000000000E+00  0.21526595678E+03  0.21526595678E+03  0.00000000000E+00 0. -1.
         21   -1    0    0  501  502 -0.00000000000E+00 -0.00000000000E+00 -0.55796591520E+03  0.55796591520E+03  0.00000000000E+00 0. -1.
         25    1    1    2    0    0  0.11740972683E+03 -0.16991376565E+03 -0.29281403597E+03  0.37950071326E+03  0.12500000000E+03 0.  0.
         25    1    1    2    0    0 -0.15126503523E+03  0.17165314806E+03 -0.40941318206E+02  0.26390738084E+03  0.12500000000E+03 0.  0.
         25    1    1    2    0    0  0.33855308400E+02 -0.17393824191E+01 -0.89446042477E+01  0.12982377788E+03  0.12500000000E+03 0.  0.
</event>
<event>
 5    0  0.5778875E-005  0.2904010E+03  0.7546771E-02  0.1090140E+00
         21   -1    0    0  502  501  0.00000000000E+00  0.00000000000E+00  0.55385390394E+03  0.55385390394E+03  0.00000000000E+00 0.  1.
         21   -1    0    0  501  502 -0.00000000000E+00 -0.00000000000E+00 -0.15226533965E+03  0.15226533965E+03  0.00000000000E+00 0.  1.
         25    1    1    2    0    0 -0.39972072198E+02 -0.73878195072E+02 -0.48957762328E+02  0.15835913853E+03  0.12500000000E+03 0.  0.
         25    1    1    2    0    0  0.31625087888E+01 -0.46683793313E+02  0.20930249725E+03  0.24823761475E+03  0.12500000000E+03 0.  0.
         25    1    1    2    0    0  0.36809563409E+02  0.12056198839E+03  0.24124382936E+03  0.29952249032E+03  0.12500000000E+03 0.  0.
</event>
<event>
 5    0  0.5778875E-005  0.3716028E+03  0.7546771E-02  0.1054082E+00
         21   -1    0    0  502  501  0.00000000000E+00  0.00000000000E+00  0.87694886841E+03  0.87694886841E+03  0.00000000000E+00 0.  1.
         21   -1    0    0  501  502 -0.00000000000E+00 -0.00000000000E+00 -0.15746483057E+03  0.15746483057E+03  0.00000000000E+00 0.  1.
         25    1    1    2    0    0  0.15056056037E+03  0.10170639163E+03  0.38432856253E+03  0.44310959865E+03  0.12500000000E+03 0.  0.
         25    1    1    2    0    0 -0.19090362499E+03 -0.19777869375E+03  0.12826508609E+03  0.32808160272E+03  0.12500000000E+03 0.  0.
         25    1    1    2    0    0  0.40343064617E+02  0.96072302115E+02  0.20689038922E+03  0.26322249761E+03  0.12500000000E+03 0.  0.
</event>
<event>
 5    0  0.5778875E-005  0.3790184E+03  0.7546771E-02  0.1051297E+00
         21   -1    0    0  502  501  0.00000000000E+00  0.00000000000E+00  0.13874453109E+03  0.13874453109E+03  0.00000000000E+00 0.  1.
         21   -1    0    0  501  502 -0.00000000000E+00 -0.00000000000E+00 -0.10353915863E+04  0.10353915863E+04  0.00000000000E+00 0.  1.
         25    1    1    2    0    0 -0.17702007018E+03 -0.19571024276E+03 -0.31589094463E+03  0.43017518904E+03  0.12500000000E+03 0.  0.
         25    1    1    2    0    0 -0.31517923521E+02  0.15874423717E+03 -0.35728159979E+03  0.41166522064E+03  0.12500000000E+03 0.  0.
         25    1    1    2    0    0  0.20853799370E+03  0.36966005598E+02 -0.22347451076E+03  0.33229570768E+03  0.12500000000E+03 0.  0.
</event>
<event>
 5    0  0.5778875E-005  0.4530085E+03  0.7546771E-02  0.1026829E+00
         21   -1    0    0  502  501  0.00000000000E+00  0.00000000000E+00  0.10343613356E+03  0.10343613356E+03  0.00000000000E+00 0.  1.
         21   -1    0    0  501  502 -0.00000000000E+00 -0.00000000000E+00 -0.19839941917E+04  0.19839941917E+04  0.00000000000E+00 0.  1.
         25    1    1    2    0    0  0.30858948095E+03 -0.18236217417E+03 -0.10981044123E+04  0.11618699284E+04  0.12500000000E+03 0.  0.
         25    1    1    2    0    0 -0.19972035977E+03 -0.31489075627E+01 -0.28853787559E+03  0.37252817796E+03  0.12500000000E+03 0.  0.
         25    1    1    2    0    0 -0.10886912118E+03  0.18551108174E+03 -0.49391577027E+03  0.55303221888E+03  0.12500000000E+03 0.  0.
</event>
<event>
 5    0  0.6507892E-005  0.4946901E+03  0.7546771E-02  0.1015174E+00
         21   -1    0    0  502  501  0.00000000000E+00  0.00000000000E+00  0.55541225033E+03  0.55541225033E+03  0.00000000000E+00 0. -1.
         21   -1    0    0  501  502 -0.00000000000E+00 -0.00000000000E+00 -0.44060664641E+03  0.44060664641E+03  0.00000000000E+00 0. -1.
         25    1    1    2    0    0  0.15508524440E+02 -0.28138730648E+02  0.41629969011E+03  0.43584714577E+03  0.12500000000E+03 0.  0.
         25    1    1    2    0    0  0.12142994365E+03 -0.13700635545E+03 -0.11566500086E+03  0.25003872715E+03  0.12500000000E+03 0.  0.
         25    1    1    2    0    0 -0.13693846809E+03  0.16514508610E+03 -0.18582908533E+03  0.31013302381E+03  0.12500000000E+03 0.  0.
</event>
<event>
 5    0  0.5778875E-005  0.3903430E+03  0.7546771E-02  0.1047176E+00
         21   -1    0    0  502  501  0.00000000000E+00  0.00000000000E+00  0.28061809459E+03  0.28061809459E+03  0.00000000000E+00 0. -1.
         21   -1    0    0  501  502 -0.00000000000E+00 -0.00000000000E+00 -0.54297148030E+03  0.54297148030E+03  0.00000000000E+00 0. -1.
         25    1    1    2    0    0  0.11914521633E+03  0.47859184475E+02  0.13689595009E+03  0.22550296065E+03  0.12500000000E+03 0.  0.
         25    1    1    2    0    0  0.97856068851E+02 -0.18401053003E+02 -0.50248125553E+02  0.16752397764E+03  0.12500000000E+03 0.  0.
         25    1    1    2    0    0 -0.21700128518E+03 -0.29458131472E+02 -0.34900121024E+03  0.43056263659E+03  0.12500000000E+03 0.  0.
</event>
<event>
 5    0  0.5778875E-005  0.2453157E+03  0.7546771E-02  0.1116301E+00
         21   -1    0    0  502  501  0.00000000000E+00  0.00000000000E+00  0.17661332279E+03  0.17661332279E+03  0.00000000000E+00 0.  1.
         21   -1    0    0  501  502 -0.00000000000E+00 -0.00000000000E+00 -0.34074332893E+03  0.34074332893E+03  0.00000000000E+00 0.  1.
         25    1    1    2    0    0 -0.90119282265E+02 -0.11899327792E+02 -0.10083575253E+02  0.15488627288E+03  0.12500000000E+03 0.  0.
         25    1    1    2    0    0  0.16572882033E+01 -0.68990404436E+02 -0.11877557823E+03  0.18572845903E+03  0.12500000000E+03 0.  0.
         25    1    1    2    0    0  0.88461994061E+02  0.80889732228E+02 -0.35270852653E+02  0.17674191982E+03  0.12500000000E+03 0.  0.
</event>
<event>
 5    0  0.5778875E-005  0.2785533E+03  0.7546771E-02  0.1096482E+00
         21   -1    0    0  502  501  0.00000000000E+00  0.00000000000E+00  0.92425239737E+02  0.92425239737E+02  0.00000000000E+00 0. -1.
         21   -1    0    0  501  502 -0.00000000000E+00 -0.00000000000E+00 -0.83951011842E+03  0.83951011842E+03  0.00000000000E+00 0. -1.
         25    1    1    2    0    0 -0.36581942375E+02  0.92269644985E+02 -0.12368318118E+03  0.20192685607E+03  0.12500000000E+03 0.  0.
         25    1    1    2    0    0  0.40343810774E+00  0.62384997221E+02 -0.10859461539E+03  0.17694587062E+03  0.12500000000E+03 0.  0.
         25    1    1    2    0    0  0.36178504267E+02 -0.15465464221E+03 -0.51480708212E+03  0.55306263147E+03  0.12500000000E+03 0.  0.
</event>
<event>
 5    0  0.5778875E-005  0.2553165E+03  0.7546771E-02  0.1109990E+00
         21   -1    0    0  502  501  0.00000000000E+00  0.00000000000E+00  0.15327438632E+03  0.15327438632E+03  0.00000000000E+00 0.  1.
         21   -1    0    0  501  502 -0.00000000000E+00 -0.00000000000E+00 -0.42529308051E+03  0.42529308051E+03  0.00000000000E+00 0.  1.
         25    1    1    2    0    0 -0.80497931040E+02  0.52975827617E+02  0.28112497281E+02  0.16031739680E+03  0.12500000000E+03 0.  0.
         25    1    1    2    0    0  0.14755882050E+02  0.13598713952E+02 -0.18535762140E+03  0.22446627561E+03  0.12500000000E+03 0.  0.
         25    1    1    2    0    0  0.65742048990E+02 -0.66574541568E+02 -0.11477357007E+03  0.19378379442E+03  0.12500000000E+03 0.  0.
</event>
<event>
 5    0  0.5778875E-005  0.2696376E+03  0.7546771E-02  0.1101487E+00
         21   -1    0    0  502  501  0.00000000000E+00  0.00000000000E+00  0.98684581216E+02  0.98684581216E+02  0.00000000000E+00 0.  1.
         21   -1    0    0  501  502 -0.00000000000E+00 -0.00000000000E+00 -0.73673564956E+03  0.73673564956E+03  0.00000000000E+00 0.  1.
         25    1    1    2    0    0 -0.68799610071E+02 -0.12625982067E+02 -0.21819943100E+03  0.26101492957E+03  0.12500000000E+03 0.  0.
         25    1    1    2    0    0 -0.74004507500E+02  0.10255871175E+03 -0.23450015643E+03  0.29429624505E+03  0.12500000000E+03 0.  0.
         25    1    1    2    0    0  0.14280411757E+03 -0.89932729682E+02 -0.18535148091E+03  0.28010905615E+03  0.12500000000E+03 0.  0.
</event>
<event>
 5    0  0.5778875E-005  0.3307802E+03  0.7546771E-02  0.1070792E+00
         21   -1    0    0  502  501  0.00000000000E+00  0.00000000000E+00  0.10346692276E+03  0.10346692276E+03  0.00000000000E+00 0. -1.
         21   -1    0    0  501  502 -0.00000000000E+00 -0.00000000000E+00 -0.10574928817E+04  0.10574928817E+04  0.00000000000E+00 0. -1.
         25    1    1    2    0    0  0.46218501026E+01 -0.25451634402E+02 -0.82910727322E+03  0.83887604430E+03  0.12500000000E+03 0.  0.
         25    1    1    2    0    0 -0.59193716497E+02  0.54699860667E+02 -0.10291310602E+03  0.18086480647E+03  0.12500000000E+03 0.  0.
         25    1    1    2    0    0  0.54571866395E+02 -0.29248226265E+02 -0.22005579697E+02  0.14121895368E+03  0.12500000000E+03 0.  0.
</event>
<event>
 5    0  0.5778875E-005  0.3301438E+03  0.7546771E-02  0.1071073E+00
         21   -1    0    0  502  501  0.00000000000E+00  0.00000000000E+00  0.79307300960E+03  0.79307300960E+03  0.00000000000E+00 0. -1.
         21   -1    0    0  501  502 -0.00000000000E+00 -0.00000000000E+00 -0.13743366821E+03  0.13743366821E+03  0.00000000000E+00 0. -1.
         25    1    1    2    0    0  0.12415498024E+03  0.13219798113E+03  0.31141834995E+02  0.22245354396E+03  0.12500000000E+03 0.  0.
         25    1    1    2    0    0 -0.77426385702E+02 -0.18818431810E+01  0.26639314925E+03  0.30428390773E+03  0.12500000000E+03 0.  0.
         25    1    1    2    0    0 -0.46728594537E+02 -0.13031613795E+03  0.35810435715E+03  0.40376922613E+03  0.12500000000E+03 0.  0.
</event>
<event>
 5    0  0.5778875E-005  0.2253604E+03  0.7546771E-02  0.1129949E+00
         21   -1    0    0  502  501  0.00000000000E+00  0.00000000000E+00  0.48242794173E+03  0.48242794173E+03  0.00000000000E+00 0.  1.
         21   -1    0    0  501  502 -0.00000000000E+00 -0.00000000000E+00 -0.10527441096E+03  0.10527441096E+03  0.00000000000E+00 0.  1.
         25    1    1    2    0    0 -0.23855593731E+02  0.97037068595E+02  0.22202592165E+03  0.27368922507E+03  0.12500000000E+03 0.  0.
         25    1    1    2    0    0  0.21592893002E+02 -0.52394442053E+02  0.55534861901E+02  0.14805590658E+03  0.12500000000E+03 0.  0.
         25    1    1    2    0    0  0.22627007285E+01 -0.44642626543E+02  0.99592747215E+02  0.16595722104E+03  0.12500000000E+03 0.  0.
</event>
<event>
 5    0  0.5778875E-005  0.2388239E+03  0.7546771E-02  0.1120579E+00
         21   -1    0    0  502  501  0.00000000000E+00  0.00000000000E+00  0.89067026826E+02  0.89067026826E+02  0.00000000000E+00 0.  1.
         21   -1    0    0  501  502 -0.00000000000E+00 -0.00000000000E+00 -0.64038148466E+03  0.64038148466E+03  0.00000000000E+00 0.  1.
         25    1    1    2    0    0 -0.37721763876E+02  0.38222824115E+02 -0.80185824975E+02  0.15791986031E+03  0.12500000000E+03 0.  0.
         25    1    1    2    0    0  0.92884202644E+02 -0.75745351839E+02 -0.32331772271E+03  0.36677538528E+03  0.12500000000E+03 0.  0.
         25    1    1    2    0    0 -0.55162438768E+02  0.37522527723E+02 -0.14781091014E+03  0.20475326590E+03  0.12500000000E+03 0.  0.
</event>
<event>
 5    0  0.5778875E-005  0.2753497E+03  0.7546771E-02  0.1098256E+00
         21   -1    0    0  502  501  0.00000000000E+00  0.00000000000E+00  0.74918723380E+03  0.74918723380E+03  0.00000000000E+00 0.  1.
         21   -1    0    0  501  502 -0.00000000000E+00 -0.00000000000E+00 -0.10119961060E+03  0.10119961060E+03  0.00000000000E+00 0.  1.
         25    1    1    2    0    0  0.43938034185E+02  0.39167020142E+02  0.35672824655E+02  0.14269602914E+03  0.12500000000E+03 0.  0.
         25    1    1    2    0    0  0.77024502280E+01  0.91300579707E+02  0.36923360318E+03  0.40044172774E+03  0.12500000000E+03 0.  0.
         25    1    1    2    0    0 -0.51640484413E+02 -0.13046759985E+03  0.24308119537E+03  0.30724908752E+03  0.12500000000E+03 0.  0.
</event>
<event>
 5    0  0.5778875E-005  0.3367736E+03  0.7546771E-02  0.1068178E+00
         21   -1    0    0  502  501  0.00000000000E+00  0.00000000000E+00  0.29811132866E+03  0.29811132866E+03  0.00000000000E+00 0.  1.
         21   -1    0    0  501  502 -0.00000000000E+00 -0.00000000000E+00 -0.38044991722E+03  0.38044991722E+03  0.00000000000E+00 0.  1.
         25    1    1    2    0    0  0.52681053253E+01  0.66848173325E+01 -0.24318662183E+02  0.12762772836E+03  0.12500000000E+03 0.  0.
         25    1    1    2    0    0 -0.21455455205E+03  0.11338414666E+03  0.45313506204E+00  0.27297403879E+03  0.12500000000E+03 0.  0.
         25    1    1    2    0    0  0.20928644673E+03 -0.12006896399E+03 -0.58473061444E+02  0.27795947873E+03  0.12500000000E+03 0.  0.
</event>
<event>
 5    0  0.5778875E-005  0.3888375E+03  0.7546771E-02  0.1047715E+00
         21   -1    0    0  502  501  0.00000000000E+00  0.00000000000E+00  0.22788800421E+03  0.22788800421E+03  0.00000000000E+00 0.  1.
         21   -1    0    0  501  502 -0.00000000000E+00 -0.00000000000E+00 -0.66346018256E+03  0.66346018256E+03  0.00000000000E+00 0.  1.
         25    1    1    2    0    0  0.34224351573E+02  0.20824829301E+03 -0.71514157320E+02  0.25549546469E+03  0.12500000000E+03 0.  0.
         25    1    1    2    0    0 -0.15950919679E+03  0.48574732028E+02 -0.12641464475E+03  0.24373828353E+03  0.12500000000E+03 0.  0.
         25    1    1    2    0    0  0.12528484521E+03 -0.25682302504E+03 -0.23764337628E+03  0.39211443855E+03  0.12500000000E+03 0.  0.
</event>
<event>
 5    0  0.5778875E-005  0.2332683E+03  0.7546771E-02  0.1124360E+00
         21   -1    0    0  502  501  0.00000000000E+00  0.00000000000E+00  0.15172318194E+03  0.15172318194E+03  0.00000000000E+00 0.  1.
         21   -1    0    0  501  502 -0.00000000000E+00 -0.00000000000E+00 -0.35864073406E+03  0.35864073406E+03  0.00000000000E+00 0.  1.
         25    1    1    2    0    0 -0.71033185559E+02  0.26820249293E+02 -0.63690707063E+02  0.15951973354E+03  0.12500000000E+03 0.  0.
         25    1    1    2    0    0  0.12565914390E+03 -0.21909577270E+02 -0.49716522055E+02  0.18538333956E+03  0.12500000000E+03 0.  0.
         25    1    1    2    0    0 -0.54625958342E+02 -0.49106720228E+01 -0.93510323001E+02  0.16546084290E+03  0.12500000000E+03 0.  0.
</event>
<event>
 5    0  0.5778875E-005  0.4377553E+03  0.7546771E-02  0.1031438E+00
         21   -1    0    0  502  501  0.00000000000E+00  0.00000000000E+00  0.11005001587E+03  0.11005001587E+03  0.00000000000E+00 0. -1.
         21   -1    0    0  501  502 -0.00000000000E+00 -0.00000000000E+00 -0.17412966186E+04  0.17412966186E+04  0.00000000000E+00 0.  1.
         25    1    1    2    0    0  0.72042577772E+02  0.10038890560E+03 -0.37525691481E+03  0.41438003993E+03  0.12500000000E+03 0.  0.
         25    1    1    2    0    0 -0.81209674916E+02 -0.29773616603E+03 -0.11156880975E+04  0.11643138609E+04  0.12500000000E+03 0.  0.
         25    1    1    2    0    0  0.91670971443E+01  0.19734726043E+03 -0.14030159043E+03  0.27265273361E+03  0.12500000000E+03 0.  0.
</event>
<event>
 5    0  0.5778875E-005  0.4092105E+03  0.7546771E-02  0.1040636E+00
         21   -1    0    0  502  501  0.00000000000E+00  0.00000000000E+00  0.15839901864E+03  0.15839901864E+03  0.00000000000E+00 0. -1.
         21   -1    0    0  501  502 -0.00000000000E+00 -0.00000000000E+00 -0.10571610347E+04  0.10571610347E+04  0.00000000000E+00 0. -1.
         25    1    1    2    0    0 -0.27112866753E+03 -0.46923434362E+02 -0.27273122339E+03  0.40708707086E+03  0.12500000000E+03 0.  0.
         25    1    1    2    0    0  0.19824780169E+03 -0.13926085455E+03 -0.38016603385E+03  0.46781084830E+03  0.12500000000E+03 0.  0.
         25    1    1    2    0    0  0.72880865836E+02  0.18618428891E+03 -0.24586475881E+03  0.34066213419E+03  0.12500000000E+03 0.  0.
</event>
<event>
 5    0  0.5778875E-005  0.2815801E+03  0.7546771E-02  0.1094829E+00
         21   -1    0    0  502  501  0.00000000000E+00  0.00000000000E+00  0.20126649105E+03  0.20126649105E+03  0.00000000000E+00 0. -1.
         21   -1    0    0  501  502 -0.00000000000E+00 -0.00000000000E+00 -0.39394202711E+03  0.39394202711E+03  0.00000000000E+00 0. -1.
         25    1    1    2    0    0 -0.73572775036E+02 -0.21767589034E+02 -0.14970843416E+03  0.20958147919E+03  0.12500000000E+03 0.  0.
         25    1    1    2    0    0  0.10865034301E+03 -0.10110893525E+03  0.22314968594E+02  0.19532248116E+03  0.12500000000E+03 0.  0.
         25    1    1    2    0    0 -0.35077567976E+02  0.12287652428E+03 -0.65282070499E+02  0.19030455781E+03  0.12500000000E+03 0.  0.
</event>
<event>
 5    0  0.5778875E-005  0.4923519E+03  0.7546771E-02  0.1015795E+00
         21   -1    0    0  502  501  0.00000000000E+00  0.00000000000E+00  0.17202505635E+03  0.17202505635E+03  0.00000000000E+00 0. -1.
         21   -1    0    0  501  502 -0.00000000000E+00 -0.00000000000E+00 -0.14091574979E+04  0.14091574979E+04  0.00000000000E+00 0. -1.
         25    1    1    2    0    0 -0.14419456507E+03 -0.22346347415E+03 -0.64136850164E+03  0.70548320446E+03  0.12500000000E+03 0.  0.
         25    1    1    2    0    0 -0.66687743977E+02 -0.86951938975E+02 -0.40248074664E+03  0.43545797307E+03  0.12500000000E+03 0.  0.
         25    1    1    2    0    0  0.21088230905E+03  0.31041541312E+03 -0.19328319324E+03  0.44024137670E+03  0.12500000000E+03 0.  0.
</event>
<event>
 5    0  0.5778875E-005  0.2544838E+03  0.7546771E-02  0.1110504E+00
         21   -1    0    0  502  501  0.00000000000E+00  0.00000000000E+00  0.14684243279E+03  0.14684243279E+03  0.00000000000E+00 0. -1.
         21   -1    0    0  501  502 -0.00000000000E+00 -0.00000000000E+00 -0.44103043594E+03  0.44103043594E+03  0.00000000000E+00 0. -1.
         25    1    1    2    0    0  0.62048649149E+02  0.74972527780E+02 -0.13045878702E+03  0.20522039346E+03  0.12500000000E+03 0.  0.
         25    1    1    2    0    0 -0.12893683936E+03  0.41733211028E+01 -0.11436481355E+03  0.21294702565E+03  0.12500000000E+03 0.  0.
         25    1    1    2    0    0  0.66888190213E+02 -0.79145848883E+02 -0.49364402581E+02  0.16970544961E+03  0.12500000000E+03 0.  0.
</event>
<event>
 5    0  0.5778875E-005  0.2712523E+03  0.7546771E-02  0.1100565E+00
         21   -1    0    0  502  501  0.00000000000E+00  0.00000000000E+00  0.12821097480E+04  0.12821097480E+04  0.00000000000E+00 0. -1.
         21   -1    0    0  501  502 -0.00000000000E+00 -0.00000000000E+00 -0.57388055460E+02  0.57388055460E+02  0.00000000000E+00 0. -1.
         25    1    1    2    0    0  0.89491121891E+02  0.56690155205E+02  0.13906993622E+03  0.21491366116E+03  0.12500000000E+03 0.  0.
         25    1    1    2    0    0 -0.24470409075E+02 -0.71486950734E+02  0.66017887771E+03  0.67614372409E+03  0.12500000000E+03 0.  0.
         25    1    1    2    0    0 -0.65020712817E+02  0.14796795529E+02  0.42547287862E+03  0.44844041822E+03  0.12500000000E+03 0.  0.
</event>
<event>
 5    0  0.5778875E-005  0.3413483E+03  0.7546771E-02  0.1066223E+00
         21   -1    0    0  502  501  0.00000000000E+00  0.00000000000E+00  0.10329479744E+04  0.10329479744E+04  0.00000000000E+00 0.  1.
         21   -1    0    0  501  502 -0.00000000000E+00 -0.00000000000E+00 -0.11280205736E+03  0.11280205736E+03  0.00000000000E+00 0.  1.
         25    1    1    2    0    0 -0.15564294153E+03  0.76775243607E+02  0.56902455259E+03  0.60789234633E+03  0.12500000000E+03 0.  0.
         25    1    1    2    0    0  0.13652928782E+03  0.18468750078E+02  0.42228780680E+02  0.19076061197E+03  0.12500000000E+03 0.  0.
         25    1    1    2    0    0  0.19113653707E+02 -0.95243993685E+02  0.30889258382E+03  0.34709707350E+03  0.12500000000E+03 0.  0.
</event>
<event>
 5    0  0.5778875E-005  0.3662669E+03  0.7546771E-02  0.1056130E+00
         21   -1    0    0  502  501  0.00000000000E+00  0.00000000000E+00  0.42150423452E+02  0.42150423452E+02  0.00000000000E+00 0. -1.
         21   -1    0    0  501  502 -0.00000000000E+00 -0.00000000000E+00 -0.31826837524E+04  0.31826837524E+04  0.00000000000E+00 0. -1.
         25    1    1    2    0    0 -0.90742351498E+01  0.76207234274E+02 -0.73617246489E+03  0.75064291269E+03  0.12500000000E+03 0.  0.
         25    1    1    2    0    0  0.20742200839E+03 -0.19330485458E+03 -0.10526011675E+04  0.10972624454E+04  0.12500000000E+03 0.  0.
         25    1    1    2    0    0 -0.19834777324E+03  0.11709762031E+03 -0.13517596965E+04  0.13769288177E+04  0.12500000000E+03 0.  0.
</event>
<event>
 5    0  0.5778875E-005  0.2788953E+03  0.7546771E-02  0.1096294E+00
         21   -1    0    0  502  501  0.00000000000E+00  0.00000000000E+00  0.34629321408E+02  0.34629321408E+02  0.00000000000E+00 0. -1.
         21   -1    0    0  501  502 -0.00000000000E+00 -0.00000000000E+00 -0.22461479817E+04  0.22461479817E+04  0.00000000000E+00 0. -1.
         25    1    1    2    0    0  0.21924744672E+02  0.14591265368E+03 -0.68102224348E+03  0.70794596760E+03  0.12500000000E+03 0.  0.
         25    1    1    2    0    0 -0.23215966689E+02 -0.88103003279E+02 -0.12583308414E+04  0.12678022822E+04  0.12500000000E+03 0.  0.
         25    1    1    2    0    0  0.12912220174E+01 -0.57809650397E+02 -0.27216557547E+03  0.30502905338E+03  0.12500000000E+03 0.  0.
</event>
<event>
 5    0  0.5778875E-005  0.2110688E+03  0.7546771E-02  0.1140722E+00
         21   -1    0    0  502  501  0.00000000000E+00  0.00000000000E+00  0.16318506658E+03  0.16318506658E+03  0.00000000000E+00 0. -1.
         21   -1    0    0  501  502 -0.00000000000E+00 -0.00000000000E+00 -0.27300321000E+03  0.27300321000E+03  0.00000000000E+00 0. -1.
         25    1    1    2    0    0 -0.51084720458E+02  0.19404010123E+02 -0.10083076417E+03  0.16964081843E+03  0.12500000000E+03 0.  0.
         25    1    1    2    0    0 -0.11040432189E+01 -0.35586450418E+02 -0.51021540293E+01  0.13007169692E+03  0.12500000000E+03 0.  0.
         25    1    1    2    0    0  0.52188763677E+02  0.16182440295E+02 -0.38852252282E+01  0.13647576123E+03  0.12500000000E+03 0.  0.
</event>
<event>
 5    0  0.5778875E-005  0.3036627E+03  0.7546771E-02  0.1083424E+00
         21   -1    0    0  502  501  0.00000000000E+00  0.00000000000E+00  0.60435120903E+02  0.60435120903E+02  0.00000000000E+00 0.  1.
         21   -1    0    0  501  502 -0.00000000000E+00 -0.00000000000E+00 -0.15257856084E+04  0.15257856084E+04  0.00000000000E+00 0.  1.
         25    1    1    2    0    0  0.37757336702E+02  0.19100847173E+03 -0.51077791000E+03  0.56073962415E+03  0.12500000000E+03 0.  0.
         25    1    1    2    0    0  0.16966593420E+02 -0.86446729149E+02 -0.20106693998E+03  0.25261396760E+03  0.12500000000E+03 0.  0.
         25    1    1    2    0    0 -0.54723930121E+02 -0.10456174258E+03 -0.75350563755E+03  0.77286713759E+03  0.12500000000E+03 0.  0.
</event>
<event>
 5    0  0.5778875E-005  0.3186295E+03  0.7546771E-02  0.1076282E+00
         21   -1    0    0  502  501  0.00000000000E+00  0.00000000000E+00  0.18810641899E+03  0.18810641899E+03  0.00000000000E+00 0. -1.
         21   -1    0    0  501  502 -0.00000000000E+00 -0.00000000000E+00 -0.53971972130E+03  0.53971972130E+03  0.00000000000E+00 0. -1.
         25    1    1    2    0    0 -0.21579594861E+01  0.11427112208E+03 -0.30740579062E+03  0.35097844127E+03  0.12500000000E+03 0.  0.
         25    1    1    2    0    0  0.11035717179E+03 -0.56228027079E+02  0.42971853881E+02  0.18114048863E+03  0.12500000000E+03 0.  0.
         25    1    1    2    0    0 -0.10819921230E+03 -0.58043095003E+02 -0.87179365570E+02  0.19570721040E+03  0.12500000000E+03 0.  0.
</event>
<event>
 5    0  0.5778875E-005  0.3071496E+03  0.7546771E-02  0.1081720E+00
         21   -1    0    0  502  501  0.00000000000E+00  0.00000000000E+00  0.84143926171E+03  0.84143926171E+03  0.00000000000E+00 0.  1.
         21   -1    0    0  501  502 -0.00000000000E+00 -0.00000000000E+00 -0.11211842910E+03  0.11211842910E+03  0.00000000000E+00 0.  1.
         25    1    1    2    0    0 -0.17259243889E+02  0.45741860623E+02  0.28646021758E+03  0.31634578481E+03  0.12500000000E+03 0.  0.
         25    1    1    2    0    0  0.91053705108E+02  0.88908049567E+02  0.39515518016E+03  0.43355280520E+03  0.12500000000E+03 0.  0.
         25    1    1    2    0    0 -0.73794461220E+02 -0.13464991019E+03  0.47705434872E+02  0.20365910080E+03  0.12500000000E+03 0.  0.
</event>
<event>
 5    0  0.5778875E-005  0.2988598E+03  0.7546771E-02  0.1085812E+00
         21   -1    0    0  502  501  0.00000000000E+00  0.00000000000E+00  0.51633314014E+02  0.51633314014E+02  0.00000000000E+00 0.  1.
         21   -1    0    0  501  502 -0.00000000000E+00 -0.00000000000E+00 -0.17298362713E+04  0.17298362713E+04  0.00000000000E+00 0.  1.
         25    1    1    2    0    0 -0.14576234023E+03  0.64520915440E+02 -0.87129767421E+03  0.89453577091E+03  0.12500000000E+03 0.  0.
         25    1    1    2    0    0  0.14432957159E+03 -0.15133433687E+02 -0.66260223646E+03  0.68972949032E+03  0.12500000000E+03 0.  0.
         25    1    1    2    0    0  0.14327686357E+01 -0.49387481752E+02 -0.14430304666E+03  0.19720432413E+03  0.12500000000E+03 0.  0.
</event>
<event>
 5    0  0.5778875E-005  0.2841573E+03  0.7546771E-02  0.1093440E+00
         21   -1    0    0  502  501  0.00000000000E+00  0.00000000000E+00  0.15888993675E+03  0.15888993675E+03  0.00000000000E+00 0.  1.
         21   -1    0    0  501  502 -0.00000000000E+00 -0.00000000000E+00 -0.50818431266E+03  0.50818431266E+03  0.00000000000E+00 0.  1.
         25    1    1    2    0    0  0.94733805700E+02  0.48382057825E+02 -0.18925319896E+03  0.25051365387E+03  0.12500000000E+03 0.  0.
         25    1    1    2    0    0 -0.82484942643E+02 -0.15740436032E+03 -0.10552795570E+03  0.24153891580E+03  0.12500000000E+03 0.  0.
         25    1    1    2    0    0 -0.12248863057E+02  0.10902230249E+03 -0.54513221245E+02  0.17502167973E+03  0.12500000000E+03 0.  0.
</event>
<event>
 5    0  0.5778875E-005  0.2455012E+03  0.7546771E-02  0.1116181E+00
         21   -1    0    0  502  501  0.00000000000E+00  0.00000000000E+00  0.63423787778E+02  0.63423787778E+02  0.00000000000E+00 0. -1.
         21   -1    0    0  501  502 -0.00000000000E+00 -0.00000000000E+00 -0.95028775206E+03  0.95028775206E+03  0.00000000000E+00 0. -1.
         25    1    1    2    0    0  0.63979451464E+02  0.72115785263E+01 -0.36593589926E+03  0.39201971818E+03  0.12500000000E+03 0.  0.
         25    1    1    2    0    0 -0.12170886473E+03 -0.61993333211E+02 -0.34608840738E+03  0.39250274756E+03  0.12500000000E+03 0.  0.
         25    1    1    2    0    0  0.57729413269E+02  0.54781754685E+02 -0.17483965764E+03  0.22918907410E+03  0.12500000000E+03 0.  0.
</event>
<event>
 5    0  0.5778875E-005  0.2839879E+03  0.7546771E-02  0.1093531E+00
         21   -1    0    0  502  501  0.00000000000E+00  0.00000000000E+00  0.55150578373E+02  0.55150578373E+02  0.00000000000E+00 0.  1.
         21   -1    0    0  501  502 -0.00000000000E+00 -0.00000000000E+00 -0.14623440365E+04  0.14623440365E+04  0.00000000000E+00 0.  1.
         25    1    1    2    0    0  0.50263664431E+02  0.42938028146E+02 -0.50633959853E+03  0.52571370466E+03  0.12500000000E+03 0.  0.
         25    1    1    2    0    0 -0.17583596855E+03 -0.29131310296E+02 -0.34253803498E+03  0.40586232454E+03  0.12500000000E+03 0.  0.
         25    1    1    2    0    0  0.12557230412E+03 -0.13806717850E+02 -0.55831582465E+03  0.58591858570E+03  0.12500000000E+03 0.  0.
</event>
<event>
 5    0  0.5778875E-005  0.3644682E+03  0.7546771E-02  0.1056829E+00
         21   -1    0    0  502  501  0.00000000000E+00  0.00000000000E+00  0.47329460152E+03  0.47329460152E+03  0.00000000000E+00 0. -1.
         21   -1    0    0  501  502 -0.00000000000E+00 -0.00000000000E+00 -0.28066466137E+03  0.28066466137E+03  0.00000000000E+00 0. -1.
         25    1    1    2    0    0  0.42273505708E+02 -0.58573887525E+02 -0.12619222629E+03  0.19174834435E+03  0.12500000000E+03 0.  0.
         25    1    1    2    0    0 -0.20005038268E+03  0.69225881464E+02  0.10199019202E+03  0.26615667856E+03  0.12500000000E+03 0.  0.
         25    1    1    2    0    0  0.15777687697E+03 -0.10651993939E+02  0.21683197441E+03  0.29605423998E+03  0.12500000000E+03 0.  0.
</event>
<event>
 5    0  0.5778875E-005  0.2347204E+03  0.7546771E-02  0.1123361E+00
         21   -1    0    0  502  501  0.00000000000E+00  0.00000000000E+00  0.18346331472E+03  0.18346331472E+03  0.00000000000E+00 0.  1.
         21   -1    0    0  501  502 -0.00000000000E+00 -0.00000000000E+00 -0.30029793608E+03  0.30029793608E+03  0.00000000000E+00 0.  1.
         25    1    1    2    0    0  0.43286755757E+02  0.19011248115E+02 -0.14945916114E+02  0.13447509505E+03  0.12500000000E+03 0.  0.
         25    1    1    2    0    0 -0.61442397448E+02  0.68934807914E+02 -0.11715041467E+03  0.19461859008E+03  0.12500000000E+03 0.  0.
         25    1    1    2    0    0  0.18155641691E+02 -0.87946056030E+02  0.15261709421E+02  0.15466756567E+03  0.12500000000E+03 0.  0.
</event>
<event>
 5    0  0.5778875E-005  0.3042488E+03  0.7546771E-02  0.1083136E+00
         21   -1    0    0  502  501  0.00000000000E+00  0.00000000000E+00  0.13811249017E+03  0.13811249017E+03  0.00000000000E+00 0. -1.
         21   -1    0    0  501  502 -0.00000000000E+00 -0.00000000000E+00 -0.67023148912E+03  0.67023148912E+03  0.00000000000E+00 0. -1.
         25    1    1    2    0    0  0.12117766902E+03 -0.58864834263E+02 -0.24824207741E+03  0.30886603112E+03  0.12500000000E+03 0.  0.
         25    1    1    2    0    0  0.30346667447E+02  0.38340932334E+02  0.21366112925E+02  0.13591342133E+03  0.12500000000E+03 0.  0.
         25    1    1    2    0    0 -0.15152433646E+03  0.20523901929E+02 -0.30524303446E+03  0.36356452685E+03  0.12500000000E+03 0.  0.
</event>
<event>
 5    0  0.5778875E-005  0.2783651E+03  0.7546771E-02  0.1096585E+00
         21   -1    0    0  502  501  0.00000000000E+00  0.00000000000E+00  0.30928567632E+04  0.30928567632E+04  0.00000000000E+00 0.  1.
         21   -1    0    0  501  502 -0.00000000000E+00 -0.00000000000E+00 -0.25053587009E+02  0.25053587009E+02  0.00000000000E+00 0.  1.
         25    1    1    2    0    0 -0.23454950303E+02  0.88844377025E+02  0.89484717056E+03  0.90819596821E+03  0.12500000000E+03 0.  0.
         25    1    1    2    0    0  0.34606229439E+02 -0.19381679790E+03  0.11093661598E+04  0.11336140520E+04  0.12500000000E+03 0.  0.
         25    1    1    2    0    0 -0.11151279136E+02  0.10497242088E+03  0.10635898458E+04  0.10761003300E+04  0.12500000000E+03 0.  0.
</event>
<event>
 5    0  0.5778875E-005  0.2764558E+03  0.7546771E-02  0.1097641E+00
         21   -1    0    0  502  501  0.00000000000E+00  0.00000000000E+00  0.21278553836E+03  0.21278553836E+03  0.00000000000E+00 0. -1.
         21   -1    0    0  501  502 -0.00000000000E+00 -0.00000000000E+00 -0.35917769051E+03  0.35917769051E+03  0.00000000000E+00 0. -1.
         25    1    1    2    0    0 -0.89290930587E+01  0.48936264387E+02 -0.13987656116E+03  0.19407457081E+03  0.12500000000E+03 0.  0.
         25    1    1    2    0    0  0.10076431694E+03  0.43893605552E+02  0.71311496628E+02  0.18108126830E+03  0.12500000000E+03 0.  0.
         25    1    1    2    0    0 -0.91835223881E+02 -0.92829869939E+02 -0.77827087626E+02  0.19680738977E+03  0.12500000000E+03 0.  0.
</event>
<event>
 5    0  0.5778875E-005  0.2628551E+03  0.7546771E-02  0.1105440E+00
         21   -1    0    0  502  501  0.00000000000E+00  0.00000000000E+00  0.97785920487E+02  0.97785920487E+02  0.00000000000E+00 0.  1.
         21   -1    0    0  501  502 -0.00000000000E+00 -0.00000000000E+00 -0.70657199419E+03  0.70657199419E+03  0.00000000000E+00 0.  1.
         25    1    1    2    0    0 -0.10485602240E+03 -0.72230123504E+02 -0.22599026113E+03  0.28793849048E+03  0.12500000000E+03 0.  0.
         25    1    1    2    0    0 -0.14741418146E+02 -0.10019792902E+02 -0.57115242309E+02  0.13858158811E+03  0.12500000000E+03 0.  0.
         25    1    1    2    0    0  0.11959744054E+03  0.82249916406E+02 -0.32568057026E+03  0.37783783608E+03  0.12500000000E+03 0.  0.
</event>
<event>
 5    0  0.5778875E-005  0.3945579E+03  0.7546771E-02  0.1045681E+00
         21   -1    0    0  502  501  0.00000000000E+00  0.00000000000E+00  0.15393537898E+03  0.15393537898E+03  0.00000000000E+00 0.  1.
         21   -1    0    0  501  502 -0.00000000000E+00 -0.00000000000E+00 -0.10113072246E+04  0.10113072246E+04  0.00000000000E+00 0.  1.
         25    1    1    2    0    0  0.15390818986E+03 -0.14709075564E+03 -0.49840312596E+03  0.55619609605E+03  0.12500000000E+03 0.  0.
         25    1    1    2    0    0 -0.36781190395E+02  0.11293034409E+03  0.36920286475E+02  0.17633554984E+03  0.12500000000E+03 0.  0.
         25    1    1    2    0    0 -0.11712699947E+03  0.34160411549E+02 -0.39588900611E+03  0.43271095767E+03  0.12500000000E+03 0.  0.
</event>
<event>
 5    0  0.5778875E-005  0.2526617E+03  0.7546771E-02  0.1111634E+00
         21   -1    0    0  502  501  0.00000000000E+00  0.00000000000E+00  0.10179532341E+03  0.10179532341E+03  0.00000000000E+00 0.  1.
         21   -1    0    0  501  502 -0.00000000000E+00 -0.00000000000E+00 -0.62712054412E+03  0.62712054412E+03  0.00000000000E+00 0.  1.
         25    1    1    2    0    0  0.22325778570E+02 -0.37362451495E+02 -0.11779706736E+03  0.17718787275E+03  0.12500000000E+03 0.  0.
         25    1    1    2    0    0 -0.13215408697E+03  0.81114966970E+02 -0.23543708556E+03  0.30838281701E+03  0.12500000000E+03 0.  0.
         25    1    1    2    0    0  0.10982830840E+03 -0.43752515476E+02 -0.17209106778E+03  0.24334517777E+03  0.12500000000E+03 0.  0.
</event>
<event>
 5    0  0.5778875E-005  0.3078887E+03  0.7546771E-02  0.1081362E+00
         21   -1    0    0  502  501  0.00000000000E+00  0.00000000000E+00  0.21570392004E+03  0.21570392004E+03  0.00000000000E+00 0.  1.
         21   -1    0    0  501  502 -0.00000000000E+00 -0.00000000000E+00 -0.43947023948E+03  0.43947023948E+03  0.00000000000E+00 0.  1.
         25    1    1    2    0    0 -0.17401877647E+02 -0.23308218663E+02  0.42653501751E+02  0.13524207783E+03  0.12500000000E+03 0.  0.
         25    1    1    2    0    0 -0.12779176622E+03  0.15693865228E+01 -0.27377668658E+03  0.32697381027E+03  0.12500000000E+03 0.  0.
         25    1    1    2    0    0  0.14519364386E+03  0.21738832140E+02  0.73568653878E+01  0.19295827142E+03  0.12500000000E+03 0.  0.
</event>
<event>
 5    0  0.5778875E-005  0.2569144E+03  0.7546771E-02  0.1109011E+00
         21   -1    0    0  502  501  0.00000000000E+00  0.00000000000E+00  0.30068807635E+03  0.30068807635E+03  0.00000000000E+00 0. -1.
         21   -1    0    0  501  502 -0.00000000000E+00 -0.00000000000E+00 -0.21951316461E+03  0.21951316461E+03  0.00000000000E+00 0. -1.
         25    1    1    2    0    0  0.66568663993E+02  0.50923017256E+01  0.17595418457E+03  0.22592519477E+03  0.12500000000E+03 0.  0.
         25    1    1    2    0    0 -0.42817716436E+02 -0.71979049136E+01  0.52251757025E+01  0.13242910986E+03  0.12500000000E+03 0.  0.
         25    1    1    2    0    0 -0.23750947557E+02  0.21056031880E+01 -0.10000444854E+03  0.16184693634E+03  0.12500000000E+03 0.  0.
</event>
<event>
 5    0  0.5778875E-005  0.2736615E+03  0.7546771E-02  0.1099202E+00
         21   -1    0    0  502  501  0.00000000000E+00  0.00000000000E+00  0.31310637658E+03  0.31310637658E+03  0.00000000000E+00 0. -1.
         21   -1    0    0  501  502 -0.00000000000E+00 -0.00000000000E+00 -0.23918580192E+03  0.23918580192E+03  0.00000000000E+00 0. -1.
         25    1    1    2    0    0  0.70262838238E+01  0.13308090152E+03 -0.74152116919E+02  0.19718882184E+03  0.12500000000E+03 0.  0.
         25    1    1    2    0    0  0.19437602339E+02 -0.13646580483E+03  0.12767792658E+03  0.22567097555E+03  0.12500000000E+03 0.  0.
         25    1    1    2    0    0 -0.26463886163E+02  0.33849033108E+01  0.20394765001E+02  0.12943238111E+03  0.12500000000E+03 0.  0.
</event>
<event>
 5    0  0.5778875E-005  0.2451221E+03  0.7546771E-02  0.1116427E+00
         21   -1    0    0  502  501  0.00000000000E+00  0.00000000000E+00  0.16497347864E+03  0.16497347864E+03  0.00000000000E+00 0.  1.
         21   -1    0    0  501  502 -0.00000000000E+00 -0.00000000000E+00 -0.36420907554E+03  0.36420907554E+03  0.00000000000E+00 0.  1.
         25    1    1    2    0    0  0.68947669909E+02  0.44694231299E+02  0.30793131236E+02  0.15272384368E+03  0.12500000000E+03 0.  0.
         25    1    1    2    0    0  0.25169971270E+02  0.19274367693E+02 -0.10085917650E+03  0.16371500294E+03  0.12500000000E+03 0.  0.
         25    1    1    2    0    0 -0.94117641179E+02 -0.63968598991E+02 -0.12916955163E+03  0.21274370756E+03  0.12500000000E+03 0.  0.
</event>
<event>
 5    0  0.5778875E-005  0.4251337E+03  0.7546771E-02  0.1035408E+00
         21   -1    0    0  502  501  0.00000000000E+00  0.00000000000E+00  0.20151884456E+04  0.20151884456E+04  0.00000000000E+00 0. -1.
         21   -1    0    0  501  502 -0.00000000000E+00 -0.00000000000E+00 -0.89688200239E+02  0.89688200239E+02  0.00000000000E+00 0. -1.
         25    1    1    2    0    0 -0.64642888433E+02 -0.83064014628E+01  0.68779306447E+02  0.15685436661E+03  0.12500000000E+03 0.  0.
         25    1    1    2    0    0 -0.19686267028E+02  0.12369156468E+03  0.15350524444E+03  0.23425629630E+03  0.12500000000E+03 0.  0.
         25    1    1    2    0    0  0.84329155461E+02 -0.11538516322E+03  0.17032156944E+04  0.17137659829E+04  0.12500000000E+03 0.  0.
</event>
<event>
 5    0  0.5778875E-005  0.3648565E+03  0.7546771E-02  0.1056677E+00
         21   -1    0    0  502  501  0.00000000000E+00  0.00000000000E+00  0.31001469556E+03  0.31001469556E+03  0.00000000000E+00 0. -1.
         21   -1    0    0  501  502 -0.00000000000E+00 -0.00000000000E+00 -0.42939985483E+03  0.42939985483E+03  0.00000000000E+00 0. -1.
         25    1    1    2    0    0  0.13374653132E+03  0.16736691874E+03 -0.21801258034E+03  0.33023371317E+03  0.12500000000E+03 0.  0.
         25    1    1    2    0    0 -0.16573519709E+03 -0.35366937352E+02  0.32320448794E+02  0.21304597443E+03  0.12500000000E+03 0.  0.
         25    1    1    2    0    0  0.31988665773E+02 -0.13199998139E+03  0.66306972283E+02  0.19613486278E+03  0.12500000000E+03 0.  0.
</event>
<event>
 5    0  0.5778875E-005  0.2589145E+03  0.7546771E-02  0.1107797E+00
         21   -1    0    0  502  501  0.00000000000E+00  0.00000000000E+00  0.21478197092E+03  0.21478197092E+03  0.00000000000E+00 0.  1.
         21   -1    0    0  501  502 -0.00000000000E+00 -0.00000000000E+00 -0.31211523309E+03  0.31211523309E+03  0.00000000000E+00 0.  1.
         25    1    1    2    0    0 -0.47772102253E+02  0.10379703382E+03  0.68795306586E+02  0.18279439869E+03  0.12500000000E+03 0.  0.
         25    1    1    2    0    0  0.64737432514E+02 -0.66100237753E+01 -0.62870136567E+02  0.15431228614E+03  0.12500000000E+03 0.  0.
         25    1    1    2    0    0 -0.16965330261E+02 -0.97187010050E+02 -0.10325843218E+03  0.18979051918E+03  0.12500000000E+03 0.  0.
</event>
<event>
 5    0  0.5778875E-005  0.3694668E+03  0.7546771E-02  0.1054897E+00
         21   -1    0    0  502  501  0.00000000000E+00  0.00000000000E+00  0.88893792779E+03  0.88893792779E+03  0.00000000000E+00 0.  1.
         21   -1    0    0  501  502 -0.00000000000E+00 -0.00000000000E+00 -0.15356043471E+03  0.15356043471E+03  0.00000000000E+00 0.  1.
         25    1    1    2    0    0  0.40489928168E+01 -0.49590337596E+02 -0.90865637555E+02  0.16234888362E+03  0.12500000000E+03 0.  0.
         25    1    1    2    0    0 -0.34873582099E+02  0.99656738807E+02  0.40366204122E+03  0.43556363007E+03  0.12500000000E+03 0.  0.
         25    1    1    2    0    0  0.30824589282E+02 -0.50066401211E+02  0.42258108942E+03  0.44458584882E+03  0.12500000000E+03 0.  0.
</event>
<event>
 5    0  0.5778875E-005  0.2219780E+03  0.7546771E-02  0.1132417E+00
         21   -1    0    0  502  501  0.00000000000E+00  0.00000000000E+00  0.27847123313E+03  0.27847123313E+03  0.00000000000E+00 0.  1.
         21   -1    0    0  501  502 -0.00000000000E+00 -0.00000000000E+00 -0.17694552815E+03  0.17694552815E+03  0.00000000000E+00 0.  1.
         25    1    1    2    0    0 -0.97133312420E+01 -0.39317598310E+02  0.57408829283E+02  0.14339105976E+03  0.12500000000E+03 0.  0.
         25    1    1    2    0    0 -0.56381519885E+02  0.83663005951E+02  0.26209050173E+02  0.16275837508E+03  0.12500000000E+03 0.  0.
         25    1    1    2    0    0  0.66094851127E+02 -0.44345407640E+02  0.17907825522E+02  0.14926732643E+03  0.12500000000E+03 0.  0.
</event>
<event>
 5    0  0.5778875E-005  0.4036168E+03  0.7546771E-02  0.1042534E+00
         21   -1    0    0  502  501  0.00000000000E+00  0.00000000000E+00  0.23640430373E+03  0.23640430373E+03  0.00000000000E+00 0.  1.
         21   -1    0    0  501  502 -0.00000000000E+00 -0.00000000000E+00 -0.68910120002E+03  0.68910120002E+03  0.00000000000E+00 0.  1.
         25    1    1    2    0    0  0.30942339982E+03  0.44568239065E+02 -0.15363469394E+03  0.37007808294E+03  0.12500000000E+03 0.  0.
         25    1    1    2    0    0 -0.23471472065E+03  0.27357655864E+02 -0.28752413416E+03  0.39259975693E+03  0.12500000000E+03 0.  0.
         25    1    1    2    0    0 -0.74708679177E+02 -0.71925894929E+02 -0.11538068202E+02  0.16282766388E+03  0.12500000000E+03 0.  0.
</event>
<event>
 5    0  0.5778875E-005  0.3035638E+03  0.7546771E-02  0.1083473E+00
         21   -1    0    0  502  501  0.00000000000E+00  0.00000000000E+00  0.17286189018E+04  0.17286189018E+04  0.00000000000E+00 0. -1.
         21   -1    0    0  501  502 -0.00000000000E+00 -0.00000000000E+00 -0.53309008945E+02  0.53309008945E+02  0.00000000000E+00 0. -1.
         25    1    1    2    0    0 -0.87209816390E+02 -0.16561105150E+03  0.91454140484E+03  0.94182989633E+03  0.12500000000E+03 0.  0.
         25    1    1    2    0    0 -0.21466116419E+02  0.10233722490E+03  0.24109062038E+03  0.29100410477E+03  0.12500000000E+03 0.  0.
         25    1    1    2    0    0  0.10867593281E+03  0.63273826599E+02  0.51967786760E+03  0.54909390962E+03  0.12500000000E+03 0.  0.
</event>
<event>
 5    0  0.5778875E-005  0.2099742E+03  0.7546771E-02  0.1141586E+00
         21   -1    0    0  502  501  0.00000000000E+00  0.00000000000E+00  0.10116957775E+03  0.10116957775E+03  0.00000000000E+00 0. -1.
         21   -1    0    0  501  502 -0.00000000000E+00 -0.00000000000E+00 -0.43579454322E+03  0.43579454322E+03  0.00000000000E+00 0. -1.
         25    1    1    2    0    0  0.33295903587E+02  0.51885876852E+02 -0.11811810541E+03  0.18269550689E+03  0.12500000000E+03 0.  0.
         25    1    1    2    0    0 -0.11840247347E+02 -0.77577694413E+02 -0.87683484130E+02  0.17167377061E+03  0.12500000000E+03 0.  0.
         25    1    1    2    0    0 -0.21455656240E+02  0.25691817560E+02 -0.12882337593E+03  0.18259484347E+03  0.12500000000E+03 0.  0.
</event>
<event>
 5    0  0.5778875E-005  0.4635483E+03  0.7546771E-02  0.1023757E+00
         21   -1    0    0  502  501  0.00000000000E+00  0.00000000000E+00  0.54796606715E+03  0.54796606715E+03  0.00000000000E+00 0.  1.
         21   -1    0    0  501  502 -0.00000000000E+00 -0.00000000000E+00 -0.39213558210E+03  0.39213558210E+03  0.00000000000E+00 0.  1.
         25    1    1    2    0    0  0.29435159141E+02 -0.13468099519E+03  0.43515897975E+03  0.47327976580E+03  0.12500000000E+03 0.  0.
         25    1    1    2    0    0  0.66653856121E+02 -0.31323830036E+02 -0.10750971495E+03  0.18057479800E+03  0.12500000000E+03 0.  0.
         25    1    1    2    0    0 -0.96089015262E+02  0.16600482522E+03 -0.17181877975E+03  0.28624708545E+03  0.12500000000E+03 0.  0.
</event>
<event>
 5    0  0.5778875E-005  0.2950328E+03  0.7546771E-02  0.1087750E+00
         21   -1    0    0  502  501  0.00000000000E+00  0.00000000000E+00  0.39211705667E+03  0.39211705667E+03  0.00000000000E+00 0.  1.
         21   -1    0    0  501  502 -0.00000000000E+00 -0.00000000000E+00 -0.22198562600E+03  0.22198562600E+03  0.00000000000E+00 0.  1.
         25    1    1    2    0    0 -0.76267977774E+02 -0.41546233153E+02  0.65540668572E+02  0.16572107036E+03  0.12500000000E+03 0.  0.
         25    1    1    2    0    0 -0.56156740425E+02 -0.12072547871E+03  0.91117435886E+02  0.20409705492E+03  0.12500000000E+03 0.  0.
         25    1    1    2    0    0  0.13242471820E+03  0.16227171186E+03  0.13473326207E+02  0.24428455739E+03  0.12500000000E+03 0.  0.
</event>
<event>
 5    0  0.5778875E-005  0.2431113E+03  0.7546771E-02  0.1117737E+00
         21   -1    0    0  502  501  0.00000000000E+00  0.00000000000E+00  0.12472739092E+03  0.12472739092E+03  0.00000000000E+00 0. -1.
         21   -1    0    0  501  502 -0.00000000000E+00 -0.00000000000E+00 -0.47385807486E+03  0.47385807486E+03  0.00000000000E+00 0. -1.
         25    1    1    2    0    0 -0.82631996516E+02 -0.16917982979E+00 -0.34933885890E+02  0.15386179465E+03  0.12500000000E+03 0.  0.
         25    1    1    2    0    0  0.10785054030E+03  0.44910941595E+02 -0.12356341968E+03  0.21104892892E+03  0.12500000000E+03 0.  0.
         25    1    1    2    0    0 -0.25218543783E+02 -0.44741761765E+02 -0.19063337837E+03  0.23367474220E+03  0.12500000000E+03 0.  0.
</event>
<event>
 5    0  0.5778875E-005  0.2757941E+03  0.7546771E-02  0.1098009E+00
         21   -1    0    0  502  501  0.00000000000E+00  0.00000000000E+00  0.25691265642E+03  0.25691265642E+03  0.00000000000E+00 0.  1.
         21   -1    0    0  501  502 -0.00000000000E+00 -0.00000000000E+00 -0.29606316372E+03  0.29606316372E+03  0.00000000000E+00 0. -1.
         25    1    1    2    0    0 -0.29470785067E+02  0.75928538657E+02 -0.12484663104E+03  0.19453881730E+03  0.12500000000E+03 0.  0.
         25    1    1    2    0    0  0.30208182654E+02 -0.14890260324E+03  0.14910044315E+02  0.19731150238E+03  0.12500000000E+03 0.  0.
         25    1    1    2    0    0 -0.73739758642E+00  0.72974064582E+02  0.70786079418E+02  0.16112550045E+03  0.12500000000E+03 0.  0.
</event>
<event>
 5    0  0.5778875E-005  0.4111806E+03  0.7546771E-02  0.1039976E+00
         21   -1    0    0  502  501  0.00000000000E+00  0.00000000000E+00  0.70791027218E+03  0.70791027218E+03  0.00000000000E+00 0.  1.
         21   -1    0    0  501  502 -0.00000000000E+00 -0.00000000000E+00 -0.23882901792E+03  0.23882901792E+03  0.00000000000E+00 0.  1.
         25    1    1    2    0    0  0.28983376048E+02  0.23970396686E+03  0.23446334167E+03  0.35902101109E+03  0.12500000000E+03 0.  0.
         25    1    1    2    0    0 -0.61810270677E+02 -0.32231648875E+03  0.61689898393E+02  0.35656566302E+03  0.12500000000E+03 0.  0.
         25    1    1    2    0    0  0.32826894629E+02  0.82612521894E+02  0.17292801420E+03  0.23115261599E+03  0.12500000000E+03 0.  0.
</event>
<event>
 5    0  0.5778875E-005  0.4202678E+03  0.7546771E-02  0.1036979E+00
         21   -1    0    0  502  501  0.00000000000E+00  0.00000000000E+00  0.73146951921E+02  0.73146951921E+02  0.00000000000E+00 0.  1.
         21   -1    0    0  501  502 -0.00000000000E+00 -0.00000000000E+00 -0.24146598645E+04  0.24146598645E+04  0.00000000000E+00 0.  1.
         25    1    1    2    0    0  0.31205257140E+02 -0.20821618977E+03 -0.19595347486E+03  0.31360885521E+03  0.12500000000E+03 0.  0.
         25    1    1    2    0    0  0.49579898949E+01  0.64371890601E+02 -0.12488384175E+04  0.12567381250E+04  0.12500000000E+03 0.  0.
         25    1    1    2    0    0 -0.36163247035E+02  0.14384429917E+03 -0.89672102020E+03  0.91745983612E+03  0.12500000000E+03 0.  0.
</event>
<event>
 5    0  0.5778875E-005  0.2667426E+03  0.7546771E-02  0.1103159E+00
         21   -1    0    0  502  501  0.00000000000E+00  0.00000000000E+00  0.85106868776E+03  0.85106868776E+03  0.00000000000E+00 0. -1.
         21   -1    0    0  501  502 -0.00000000000E+00 -0.00000000000E+00 -0.83602656149E+02  0.83602656149E+02  0.00000000000E+00 0. -1.
         25    1    1    2    0    0 -0.15526295243E+03  0.18306154339E+02  0.42265927093E+03  0.46766179979E+03  0.12500000000E+03 0.  0.
         25    1    1    2    0    0  0.22686433428E+02 -0.28254113752E+02  0.17198337867E+03  0.21567626607E+03  0.12500000000E+03 0.  0.
         25    1    1    2    0    0  0.13257651900E+03  0.99479594129E+01  0.17282338201E+03  0.25133327805E+03  0.12500000000E+03 0.  0.
</event>
<event>
 5    0  0.5778875E-005  0.3331165E+03  0.7546771E-02  0.1069766E+00
         21   -1    0    0  502  501  0.00000000000E+00  0.00000000000E+00  0.10888071456E+04  0.10888071456E+04  0.00000000000E+00 0. -1.
         21   -1    0    0  501  502 -0.00000000000E+00 -0.00000000000E+00 -0.10191576250E+03  0.10191576250E+03  0.00000000000E+00 0. -1.
         25    1    1    2    0    0  0.17233189064E+02 -0.12912466399E+03  0.17216089122E+03  0.24946850327E+03  0.12500000000E+03 0.  0.
         25    1    1    2    0    0 -0.13690693533E+03  0.20566960709E+03  0.55103521206E+03  0.61669141485E+03  0.12500000000E+03 0.  0.
         25    1    1    2    0    0  0.11967374627E+03 -0.76544943100E+02  0.26369527980E+03  0.32456298995E+03  0.12500000000E+03 0.  0.
</event>
<event>
 5    0  0.5778875E-005  0.2109537E+03  0.7546771E-02  0.1140813E+00
         21   -1    0    0  502  501  0.00000000000E+00  0.00000000000E+00  0.79379420548E+03  0.79379420548E+03  0.00000000000E+00 0. -1.
         21   -1    0    0  501  502 -0.00000000000E+00 -0.00000000000E+00 -0.56061694291E+02  0.56061694291E+02  0.00000000000E+00 0. -1.
         25    1    1    2    0    0  0.59113511922E+01  0.50546368019E+02  0.24648212307E+03  0.28101301818E+03  0.12500000000E+03 0.  0.
         25    1    1    2    0    0  0.36301003979E+01 -0.58117121711E+02  0.14308826313E+03  0.19872098156E+03  0.12500000000E+03 0.  0.
         25    1    1    2    0    0 -0.95414515901E+01  0.75707536920E+01  0.34816212499E+03  0.37012190004E+03  0.12500000000E+03 0.  0.
</event>
<event>
 5    0  0.5778875E-005  0.2923802E+03  0.7546771E-02  0.1089113E+00
         21   -1    0    0  502  501  0.00000000000E+00  0.00000000000E+00  0.47569723406E+03  0.47569723406E+03  0.00000000000E+00 0.  1.
         21   -1    0    0  501  502 -0.00000000000E+00 -0.00000000000E+00 -0.17970707364E+03  0.17970707364E+03  0.00000000000E+00 0.  1.
         25    1    1    2    0    0 -0.10568856941E+03 -0.67547086906E+02 -0.34694004139E+02  0.18044765606E+03  0.12500000000E+03 0.  0.
         25    1    1    2    0    0 -0.26773382490E+02  0.90578766890E+02  0.13742702377E+03  0.20840468777E+03  0.12500000000E+03 0.  0.
         25    1    1    2    0    0  0.13246195190E+03 -0.23031679984E+02  0.19325714079E+03  0.26655196388E+03  0.12500000000E+03 0.  0.
</event>
<event>
 5    0  0.5778875E-005  0.2686238E+03  0.7546771E-02  0.1102070E+00
         21   -1    0    0  502  501  0.00000000000E+00  0.00000000000E+00  0.15397370537E+04  0.15397370537E+04  0.00000000000E+00 0. -1.
         21   -1    0    0  501  502 -0.00000000000E+00 -0.00000000000E+00 -0.46864326849E+02  0.46864326849E+02  0.00000000000E+00 0. -1.
         25    1    1    2    0    0  0.21832863819E+02  0.14833362590E+02  0.25761646125E+03  0.28755511419E+03  0.12500000000E+03 0.  0.
         25    1    1    2    0    0  0.21622492896E+02 -0.10137175387E+03  0.23068536219E+03  0.28210725090E+03  0.12500000000E+03 0.  0.
         25    1    1    2    0    0 -0.43455356715E+02  0.86538391277E+02  0.10045709034E+04  0.10169390155E+04  0.12500000000E+03 0.  0.
</event>
<event>
 5    0  0.5778875E-005  0.2359939E+03  0.7546771E-02  0.1122491E+00
         21   -1    0    0  502  501  0.00000000000E+00  0.00000000000E+00  0.12195058639E+04  0.12195058639E+04  0.00000000000E+00 0. -1.
         21   -1    0    0  501  502 -0.00000000000E+00 -0.00000000000E+00 -0.45668592817E+02  0.45668592817E+02  0.00000000000E+00 0. -1.
         25    1    1    2    0    0 -0.40188518522E+02  0.48274480598E+02  0.40422467905E+03  0.42774774535E+03  0.12500000000E+03 0.  0.
         25    1    1    2    0    0  0.69827627331E+02 -0.80533444118E+02  0.23549962417E+03  0.28713517051E+03  0.12500000000E+03 0.  0.
         25    1    1    2    0    0 -0.29639108810E+02  0.32258963521E+02  0.53411296786E+03  0.55029154085E+03  0.12500000000E+03 0.  0.
</event>
<event>
 5    0  0.5778875E-005  0.6400096E+03  0.7546771E-02  0.9825708E-01
         21   -1    0    0  502  501  0.00000000000E+00  0.00000000000E+00  0.95686105986E+03  0.95686105986E+03  0.00000000000E+00 0.  1.
         21   -1    0    0  501  502 -0.00000000000E+00 -0.00000000000E+00 -0.42807913245E+03  0.42807913245E+03  0.00000000000E+00 0.  1.
         25    1    1    2    0    0  0.33831515344E+02  0.19778413699E+03  0.16933954700E+03  0.29079893131E+03  0.12500000000E+03 0.  0.
         25    1    1    2    0    0 -0.68348876931E+02  0.38210534127E+03  0.16645522843E+02  0.40813984642E+03  0.12500000000E+03 0.  0.
         25    1    1    2    0    0  0.34517361587E+02 -0.57988947826E+03  0.34279685756E+03  0.68600141458E+03  0.12500000000E+03 0.  0.
</event>
<event>
 5    0  0.5778875E-005  0.2718745E+03  0.7546771E-02  0.1100212E+00
         21   -1    0    0  502  501  0.00000000000E+00  0.00000000000E+00  0.11202082064E+03  0.11202082064E+03  0.00000000000E+00 0.  1.
         21   -1    0    0  501  502 -0.00000000000E+00 -0.00000000000E+00 -0.65983945052E+03  0.65983945052E+03  0.00000000000E+00 0.  1.
         25    1    1    2    0    0 -0.80872647448E+02  0.76232142072E+02 -0.16956470393E+03  0.23817832271E+03  0.12500000000E+03 0.  0.
         25    1    1    2    0    0 -0.12251864343E+02 -0.12921180975E+03 -0.30329578970E+03  0.35278766420E+03  0.12500000000E+03 0.  0.
         25    1    1    2    0    0  0.93124511791E+02  0.52979667678E+02 -0.74958136255E+02  0.18089428425E+03  0.12500000000E+03 0.  0.
</event>
<event>
 5    0  0.5778875E-005  0.3285399E+03  0.7546771E-02  0.1071785E+00
         21   -1    0    0  502  501  0.00000000000E+00  0.00000000000E+00  0.11911275717E+03  0.11911275717E+03  0.00000000000E+00 0. -1.
         21   -1    0    0  501  502 -0.00000000000E+00 -0.00000000000E+00 -0.90618727940E+03  0.90618727940E+03  0.00000000000E+00 0. -1.
         25    1    1    2    0    0  0.34206732132E+02  0.23119116296E+02 -0.50957697521E+03  0.52630626799E+03  0.12500000000E+03 0.  0.
         25    1    1    2    0    0  0.56671644269E+02 -0.65832834795E+02  0.27251154322E+02  0.15463913739E+03  0.12500000000E+03 0.  0.
         25    1    1    2    0    0 -0.90878376401E+02  0.42713718499E+02 -0.30474870135E+03  0.34435463119E+03  0.12500000000E+03 0.  0.
</event>
<event>
 5    0  0.5778875E-005  0.2844262E+03  0.7546771E-02  0.1093296E+00
         21   -1    0    0  502  501  0.00000000000E+00  0.00000000000E+00  0.75186381188E+03  0.75186381188E+03  0.00000000000E+00 0. -1.
         21   -1    0    0  501  502 -0.00000000000E+00 -0.00000000000E+00 -0.10759695396E+03  0.10759695396E+03  0.00000000000E+00 0. -1.
         25    1    1    2    0    0  0.28826936540E+02 -0.11584726742E+03  0.23226217492E+02  0.17440194614E+03  0.12500000000E+03 0.  0.
         25    1    1    2    0    0 -0.17192117647E+02  0.13121492096E+02  0.26402810938E+03  0.29292248976E+03  0.12500000000E+03 0.  0.
         25    1    1    2    0    0 -0.11634818894E+02  0.10272577533E+03  0.35701253106E+03  0.39213632994E+03  0.12500000000E+03 0.  0.
</event>
<event>
 5    0  0.5778875E-005  0.2830792E+03  0.7546771E-02  0.1094019E+00
         21   -1    0    0  502  501  0.00000000000E+00  0.00000000000E+00  0.15355937782E+04  0.15355937782E+04  0.00000000000E+00 0.  1.
         21   -1    0    0  501  502 -0.00000000000E+00 -0.00000000000E+00 -0.52184270664E+02  0.52184270664E+02  0.00000000000E+00 0.  1.
         25    1    1    2    0    0  0.42375786815E+02 -0.77827712077E+02  0.45275578425E+03  0.47798081578E+03  0.12500000000E+03 0.  0.
         25    1    1    2    0    0 -0.13614715099E+03 -0.67006394018E+02  0.44122978786E+03  0.48304723294E+03  0.12500000000E+03 0.  0.
         25    1    1    2    0    0  0.93771364172E+02  0.14483410610E+03  0.58942393538E+03  0.62675000010E+03  0.12500000000E+03 0.  0.
</event>
<event>
 5    0  0.5778875E-005  0.2759378E+03  0.7546771E-02  0.1097929E+00
         21   -1    0    0  502  501  0.00000000000E+00  0.00000000000E+00  0.53663228084E+03  0.53663228084E+03  0.00000000000E+00 0. -1.
         21   -1    0    0  501  502 -0.00000000000E+00 -0.00000000000E+00 -0.14188799458E+03  0.14188799458E+03  0.00000000000E+00 0. -1.
         25    1    1    2    0    0 -0.39109622785E+02  0.14587794538E+03  0.75372948672E+02  0.21003813685E+03  0.12500000000E+03 0.  0.
         25    1    1    2    0    0  0.63656468723E+02 -0.30269273566E+02  0.56288083166E+02  0.15414838059E+03  0.12500000000E+03 0.  0.
         25    1    1    2    0    0 -0.24546845938E+02 -0.11560867181E+03  0.26308325442E+03  0.31433375797E+03  0.12500000000E+03 0.  0.
</event>
<event>
 5    0  0.5778875E-005  0.3293816E+03  0.7546771E-02  0.1071411E+00
         21   -1    0    0  502  501  0.00000000000E+00  0.00000000000E+00  0.28795021314E+03  0.28795021314E+03  0.00000000000E+00 0. -1.
         21   -1    0    0  501  502 -0.00000000000E+00 -0.00000000000E+00 -0.37677433300E+03  0.37677433300E+03  0.00000000000E+00 0. -1.
         25    1    1    2    0    0 -0.20664127214E+02 -0.14792719490E+03  0.40468143546E+02  0.19892745358E+03  0.12500000000E+03 0.  0.
         25    1    1    2    0    0  0.16110537401E+03  0.21028576875E+02 -0.58202795762E+00  0.20499385683E+03  0.12500000000E+03 0.  0.
         25    1    1    2    0    0 -0.14044124680E+03  0.12689861802E+03 -0.12871023545E+03  0.26080323573E+03  0.12500000000E+03 0.  0.
</event>
<event>
 5    0  0.5778875E-005  0.2562713E+03  0.7546771E-02  0.1109404E+00
         21   -1    0    0  502  501  0.00000000000E+00  0.00000000000E+00  0.17230614760E+03  0.17230614760E+03  0.00000000000E+00 0. -1.
         21   -1    0    0  501  502 -0.00000000000E+00 -0.00000000000E+00 -0.38115274914E+03  0.38115274914E+03  0.00000000000E+00 0. -1.
         25    1    1    2    0    0 -0.59971232090E+01  0.39239456952E+02  0.68600187403E+02  0.14800907466E+03  0.12500000000E+03 0.  0.
         25    1    1    2    0    0 -0.21800942533E+02 -0.81591133011E+02 -0.93958571296E+02  0.17772340083E+03  0.12500000000E+03 0.  0.
         25    1    1    2    0    0  0.27798065742E+02  0.42351676059E+02 -0.18348821764E+03  0.22772642126E+03  0.12500000000E+03 0.  0.
</event>
<event>
 5    0  0.5778875E-005  0.3228043E+03  0.7546771E-02  0.1074366E+00
         21   -1    0    0  502  501  0.00000000000E+00  0.00000000000E+00  0.51732251380E+03  0.51732251380E+03  0.00000000000E+00 0. -1.
         21   -1    0    0  501  502 -0.00000000000E+00 -0.00000000000E+00 -0.20142674661E+03  0.20142674661E+03  0.00000000000E+00 0. -1.
         25    1    1    2    0    0  0.11097969175E+03 -0.70425812578E+02  0.15840392438E+03  0.24081754570E+03  0.12500000000E+03 0.  0.
         25    1    1    2    0    0 -0.16545250431E+03  0.20757638914E+02 -0.59643926474E+02  0.21676671497E+03  0.12500000000E+03 0.  0.
         25    1    1    2    0    0  0.54472812556E+02  0.49668173664E+02  0.21713576929E+03  0.26116499974E+03  0.12500000000E+03 0.  0.
</event>
<event>
 5    0  0.5778875E-005  0.3188976E+03  0.7546771E-02  0.1076158E+00
         21   -1    0    0  502  501  0.00000000000E+00  0.00000000000E+00  0.21408286902E+04  0.21408286902E+04  0.00000000000E+00 0. -1.
         21   -1    0    0  501  502 -0.00000000000E+00 -0.00000000000E+00 -0.47502948174E+02  0.47502948174E+02  0.00000000000E+00 0. -1.
         25    1    1    2    0    0 -0.17149288266E+03 -0.29052703565E+01  0.95739509811E+03  0.98063684577E+03  0.12500000000E+03 0.  0.
         25    1    1    2    0    0  0.15686168265E+03  0.90763106410E+02  0.40647831271E+03  0.46226956170E+03  0.12500000000E+03 0.  0.
         25    1    1    2    0    0  0.14631200015E+02 -0.87857836054E+02  0.72945233125E+03  0.74542523095E+03  0.12500000000E+03 0.  0.
</event>
<event>
 5    0  0.5778875E-005  0.3712154E+03  0.7546771E-02  0.1054229E+00
         21   -1    0    0  502  501  0.00000000000E+00  0.00000000000E+00  0.88768315316E+03  0.88768315316E+03  0.00000000000E+00 0. -1.
         21   -1    0    0  501  502 -0.00000000000E+00 -0.00000000000E+00 -0.15523652509E+03  0.15523652509E+03  0.00000000000E+00 0. -1.
         25    1    1    2    0    0 -0.25426042429E+03 -0.54816867149E+02  0.32393523196E+03  0.43383440019E+03  0.12500000000E+03 0.  0.
         25    1    1    2    0    0  0.19011348104E+03 -0.77762106292E+02  0.13977457206E+03  0.27812229656E+03  0.12500000000E+03 0.  0.
         25    1    1    2    0    0  0.64146943256E+02  0.13257897344E+03  0.26873682405E+03  0.33096298150E+03  0.12500000000E+03 0.  0.
</event>
<event>
 5    0  0.5778875E-005  0.2260502E+03  0.7546771E-02  0.1129451E+00
         21   -1    0    0  502  501  0.00000000000E+00  0.00000000000E+00  0.34706670231E+04  0.34706670231E+04  0.00000000000E+00 0. -1.
         21   -1    0    0  501  502 -0.00000000000E+00 -0.00000000000E+00 -0.14723013352E+02  0.14723013352E+02  0.00000000000E+00 0. -1.
         25    1    1    2    0    0  0.73060227819E+02  0.69228895957E+02  0.93915336887E+03  0.95276675382E+03  0.12500000000E+03 0.  0.
         25    1    1    2    0    0 -0.56869202215E+02 -0.46604030442E+02  0.10036080259E+04  0.10140316126E+04  0.12500000000E+03 0.  0.
         25    1    1    2    0    0 -0.16191025604E+02 -0.22624865514E+02  0.15131826150E+04  0.15185916700E+04  0.12500000000E+03 0.  0.
</event>
<event>
 5    0  0.5778875E-005  0.3655951E+03  0.7546771E-02  0.1056390E+00
         21   -1    0    0  502  501  0.00000000000E+00  0.00000000000E+00  0.90607449813E+03  0.90607449813E+03  0.00000000000E+00 0.  1.
         21   -1    0    0  501  502 -0.00000000000E+00 -0.00000000000E+00 -0.14751522675E+03  0.14751522675E+03  0.00000000000E+00 0.  1.
         25    1    1    2    0    0 -0.23472375720E+03 -0.82967518900E+02  0.10740386619E+03  0.29856229142E+03  0.12500000000E+03 0.  0.
         25    1    1    2    0    0  0.32333418895E+02  0.62402475320E+02  0.24716969541E+03  0.28575754974E+03  0.12500000000E+03 0.  0.
         25    1    1    2    0    0  0.20239033831E+03  0.20565043580E+02  0.40398570979E+03  0.46926988372E+03  0.12500000000E+03 0.  0.
</event>
<event>
 5    0  0.5778875E-005  0.2947692E+03  0.7546771E-02  0.1087885E+00
         21   -1    0    0  502  501  0.00000000000E+00  0.00000000000E+00  0.18764349845E+03  0.18764349845E+03  0.00000000000E+00 0.  1.
         21   -1    0    0  501  502 -0.00000000000E+00 -0.00000000000E+00 -0.46305286015E+03  0.46305286015E+03  0.00000000000E+00 0.  1.
         25    1    1    2    0    0  0.44360829351E+02  0.84715710445E+02 -0.43459034234E+02  0.16327376529E+03  0.12500000000E+03 0.  0.
         25    1    1    2    0    0  0.89134384379E+02 -0.98244468362E+02 -0.24293790676E+03  0.30371160758E+03  0.12500000000E+03 0.  0.
         25    1    1    2    0    0 -0.13349521373E+03  0.13528757917E+02  0.10987579289E+02  0.18371098573E+03  0.12500000000E+03 0.  0.
</event>
<event>
 5    0  0.5778875E-005  0.2817641E+03  0.7546771E-02  0.1094729E+00
         21   -1    0    0  502  501  0.00000000000E+00  0.00000000000E+00  0.26871010421E+03  0.26871010421E+03  0.00000000000E+00 0.  1.
         21   -1    0    0  501  502 -0.00000000000E+00 -0.00000000000E+00 -0.29545233656E+03  0.29545233656E+03  0.00000000000E+00 0.  1.
         25    1    1    2    0    0 -0.14972075258E+03  0.47515940794E+02  0.23467095120E+02  0.20211326759E+03  0.12500000000E+03 0.  0.
         25    1    1    2    0    0  0.11526484578E+03 -0.11808341769E+03 -0.55530446639E+02  0.21433223908E+03  0.12500000000E+03 0.  0.
         25    1    1    2    0    0  0.34455906801E+02  0.70567476898E+02  0.53211191601E+01  0.14771693409E+03  0.12500000000E+03 0.  0.
</event>
<event>
 5    0  0.5778875E-005  0.3852373E+03  0.7546771E-02  0.1049015E+00
         21   -1    0    0  502  501  0.00000000000E+00  0.00000000000E+00  0.24375389710E+03  0.24375389710E+03  0.00000000000E+00 0. -1.
         21   -1    0    0  501  502 -0.00000000000E+00 -0.00000000000E+00 -0.60884256897E+03  0.60884256897E+03  0.00000000000E+00 0. -1.
         25    1    1    2    0    0 -0.15948999235E+03 -0.11195396261E+03 -0.96303006181E+02  0.25073894074E+03  0.12500000000E+03 0.  0.
         25    1    1    2    0    0 -0.20313586187E+02 -0.85952847491E+02 -0.26575593263E+03  0.30667857686E+03  0.12500000000E+03 0.  0.
         25    1    1    2    0    0  0.17980357854E+03  0.19790681010E+03 -0.30297330518E+01  0.29517894847E+03  0.12500000000E+03 0.  0.
</event>
<event>
 5    0  0.5778875E-005  0.4782902E+03  0.7546771E-02  0.1019606E+00
         21   -1    0    0  502  501  0.00000000000E+00  0.00000000000E+00  0.35153106686E+03  0.35153106686E+03  0.00000000000E+00 0. -1.
         21   -1    0    0  501  502 -0.00000000000E+00 -0.00000000000E+00 -0.65075767047E+03  0.65075767047E+03  0.00000000000E+00 0. -1.
         25    1    1    2    0    0 -0.30111879926E+03  0.27857689172E+03 -0.16549089509E+03  0.45966275923E+03  0.12500000000E+03 0.  0.
         25    1    1    2    0    0  0.78092142356E+02 -0.18874686546E+03 -0.12808431823E+03  0.27157752944E+03  0.12500000000E+03 0.  0.
         25    1    1    2    0    0  0.22302665690E+03 -0.89830026266E+02 -0.56513902794E+01  0.27104844866E+03  0.12500000000E+03 0.  0.
</event>
<event>
 5    0  0.5778875E-005  0.3356729E+03  0.7546771E-02  0.1068654E+00
         21   -1    0    0  502  501  0.00000000000E+00  0.00000000000E+00  0.98917814850E+03  0.98917814850E+03  0.00000000000E+00 0.  1.
         21   -1    0    0  501  502 -0.00000000000E+00 -0.00000000000E+00 -0.11390902099E+03  0.11390902099E+03  0.00000000000E+00 0.  1.
         25    1    1    2    0    0 -0.43807917357E+02 -0.11069830967E+03  0.51537047980E+01  0.17269861047E+03  0.12500000000E+03 0.  0.
         25    1    1    2    0    0 -0.17405410212E+02  0.12729969606E+03  0.59805357342E+03  0.62434064228E+03  0.12500000000E+03 0.  0.
         25    1    1    2    0    0  0.61213327569E+02 -0.16601386388E+02  0.27206184930E+03  0.30604791675E+03  0.12500000000E+03 0.  0.
</event>
<event>
 5    0  0.5778875E-005  0.2882066E+03  0.7546771E-02  0.1091289E+00
         21   -1    0    0  502  501  0.00000000000E+00  0.00000000000E+00  0.37601903509E+03  0.37601903509E+03  0.00000000000E+00 0.  1.
         21   -1    0    0  501  502 -0.00000000000E+00 -0.00000000000E+00 -0.22090116522E+03  0.22090116522E+03  0.00000000000E+00 0.  1.
         25    1    1    2    0    0 -0.18235282971E+02  0.26068065900E+02  0.21410529445E+03  0.24995628961E+03  0.12500000000E+03 0.  0.
         25    1    1    2    0    0 -0.99474452147E+02 -0.38121919445E+02 -0.59961569811E+02  0.17483946130E+03  0.12500000000E+03 0.  0.
         25    1    1    2    0    0  0.11770973512E+03  0.12053853545E+02  0.97414523498E+00  0.17212444941E+03  0.12500000000E+03 0.  0.
</event>
<event>
 5    0  0.5778875E-005  0.3199286E+03  0.7546771E-02  0.1075682E+00
         21   -1    0    0  502  501  0.00000000000E+00  0.00000000000E+00  0.49916791413E+03  0.49916791413E+03  0.00000000000E+00 0.  1.
         21   -1    0    0  501  502 -0.00000000000E+00 -0.00000000000E+00 -0.20504980711E+03  0.20504980711E+03  0.00000000000E+00 0.  1.
         25    1    1    2    0    0  0.46722482361E+02 -0.15192746133E+03  0.25154272273E+02  0.20377114927E+03  0.12500000000E+03 0.  0.
         25    1    1    2    0    0 -0.99333893440E+02  0.12337100304E+03  0.44496583560E+01  0.20182275946E+03  0.12500000000E+03 0.  0.
         25    1    1    2    0    0  0.52611411079E+02  0.28556458286E+02  0.26451417638E+03  0.29862381250E+03  0.12500000000E+03 0.  0.
</event>
<event>
 5    0  0.5778875E-005  0.3543582E+03  0.7546771E-02  0.1060840E+00
         21   -1    0    0  502  501  0.00000000000E+00  0.00000000000E+00  0.55035747146E+02  0.55035747146E+02  0.00000000000E+00 0. -1.
         21   -1    0    0  501  502 -0.00000000000E+00 -0.00000000000E+00 -0.22816027751E+04  0.22816027751E+04  0.00000000000E+00 0. -1.
         25    1    1    2    0    0  0.94036115353E+02 -0.20954732354E+03 -0.96278718962E+03  0.99766579789E+03  0.12500000000E+03 0.  0.
         25    1    1    2    0    0 -0.14990775343E+03  0.14885801784E+03 -0.10476544787E+04  0.10760278578E+04  0.12500000000E+03 0.  0.
         25    1    1    2    0    0  0.55871638076E+02  0.60689305704E+02 -0.21612535961E+03  0.26294486653E+03  0.12500000000E+03 0.  0.
</event>
<event>
 5    0  0.5778875E-005  0.5506900E+03  0.7546771E-02  0.1001334E+00
         21   -1    0    0  502  501  0.00000000000E+00  0.00000000000E+00  0.15786956540E+04  0.15786956540E+04  0.00000000000E+00 0.  1.
         21   -1    0    0  501  502 -0.00000000000E+00 -0.00000000000E+00 -0.19209494676E+03  0.19209494676E+03  0.00000000000E+00 0.  1.
         25    1    1    2    0    0  0.18354169893E+03  0.37549552124E+03  0.10682204168E+04  0.11538649404E+04  0.12500000000E+03 0.  0.
         25    1    1    2    0    0 -0.41608455289E+02 -0.13477281787E+03  0.20153149527E+02  0.18954188303E+03  0.12500000000E+03 0.  0.
         25    1    1    2    0    0 -0.14193324364E+03 -0.24072270338E+03  0.29822714089E+03  0.42738377735E+03  0.12500000000E+03 0.  0.
</event>
<event>
 5    0  0.5778875E-005  0.2504102E+03  0.7546771E-02  0.1113046E+00
         21   -1    0    0  502  501  0.00000000000E+00  0.00000000000E+00  0.80860782119E+03  0.80860782119E+03  0.00000000000E+00 0.  1.
         21   -1    0    0  501  502 -0.00000000000E+00 -0.00000000000E+00 -0.77547167800E+02  0.77547167800E+02  0.00000000000E+00 0.  1.
         25    1    1    2    0    0 -0.87955739868E+00  0.68675722333E+02  0.32587819774E+03  0.35572282499E+03  0.12500000000E+03 0.  0.
         25    1    1    2    0    0  0.38429360050E+02 -0.52897384977E+02  0.36753822420E+03  0.39368044821E+03  0.12500000000E+03 0.  0.
         25    1    1    2    0    0 -0.37549802651E+02 -0.15778337356E+02  0.37644231444E+02  0.13675171578E+03  0.12500000000E+03 0.  0.
</event>
<event>
 5    0  0.5778875E-005  0.3942635E+03  0.7546771E-02  0.1045784E+00
         21   -1    0    0  502  501  0.00000000000E+00  0.00000000000E+00  0.13407417783E+03  0.13407417783E+03  0.00000000000E+00 0.  1.
         21   -1    0    0  501  502 -0.00000000000E+00 -0.00000000000E+00 -0.11593856819E+04  0.11593856819E+04  0.00000000000E+00 0.  1.
         25    1    1    2    0    0  0.62113229579E+02 -0.14633742904E+03 -0.17168938626E+01  0.20223907672E+03  0.12500000000E+03 0.  0.
         25    1    1    2    0    0  0.76587805939E+02  0.70753321126E+02 -0.60753427450E+03  0.62896313021E+03  0.12500000000E+03 0.  0.
         25    1    1    2    0    0 -0.13870103552E+03  0.75584107918E+02 -0.41606033576E+03  0.46225765285E+03  0.12500000000E+03 0.  0.
</event>
<event>
 5    0  0.5778875E-005  0.3656215E+03  0.7546771E-02  0.1056380E+00
         21   -1    0    0  502  501  0.00000000000E+00  0.00000000000E+00  0.19721366931E+03  0.19721366931E+03  0.00000000000E+00 0.  1.
         21   -1    0    0  501  502 -0.00000000000E+00 -0.00000000000E+00 -0.67783898196E+03  0.67783898196E+03  0.00000000000E+00 0.  1.
         25    1    1    2    0    0  0.38704070492E+02 -0.24491993618E+03 -0.28683759625E+03  0.39922999240E+03  0.12500000000E+03 0.  0.
         25    1    1    2    0    0 -0.67210923950E+02  0.26870386215E+03 -0.12752110895E+03  0.32955379995E+03  0.12500000000E+03 0.  0.
         25    1    1    2    0    0  0.28506853458E+02 -0.23783925965E+02 -0.66266607450E+02  0.14626885893E+03  0.12500000000E+03 0.  0.
</event>
<event>
 5    0  0.5778875E-005  0.4140954E+03  0.7546771E-02  0.1039005E+00
         21   -1    0    0  502  501  0.00000000000E+00  0.00000000000E+00  0.11003891651E+03  0.11003891651E+03  0.00000000000E+00 0.  1.
         21   -1    0    0  501  502 -0.00000000000E+00 -0.00000000000E+00 -0.15583122677E+04  0.15583122677E+04  0.00000000000E+00 0.  1.
         25    1    1    2    0    0  0.10476542466E+03 -0.14135819719E+03 -0.78021824791E+03  0.80952050529E+03  0.12500000000E+03 0.  0.
         25    1    1    2    0    0 -0.25718634226E+03  0.17613564054E+03 -0.46601567239E+03  0.57442509122E+03  0.12500000000E+03 0.  0.
         25    1    1    2    0    0  0.15242091760E+03 -0.34777443350E+02 -0.20203943094E+03  0.28440558775E+03  0.12500000000E+03 0.  0.
</event>
<event>
 5    0  0.5778875E-005  0.3260803E+03  0.7546771E-02  0.1072885E+00
         21   -1    0    0  502  501  0.00000000000E+00  0.00000000000E+00  0.83349828601E+03  0.83349828601E+03  0.00000000000E+00 0. -1.
         21   -1    0    0  501  502 -0.00000000000E+00 -0.00000000000E+00 -0.12756875909E+03  0.12756875909E+03  0.00000000000E+00 0. -1.
         25    1    1    2    0    0 -0.10396564871E+03  0.36979248520E+02  0.42719121342E+03  0.45857786008E+03  0.12500000000E+03 0.  0.
         25    1    1    2    0    0  0.16437867516E+03  0.78604728214E+02  0.22179581796E+03  0.31307736585E+03  0.12500000000E+03 0.  0.
         25    1    1    2    0    0 -0.60413026448E+02 -0.11558397673E+03  0.56942495539E+02  0.18941181917E+03  0.12500000000E+03 0.  0.
</event>
<event>
 5    0  0.5778875E-005  0.2489753E+03  0.7546771E-02  0.1113954E+00
         21   -1    0    0  502  501  0.00000000000E+00  0.00000000000E+00  0.15891852799E+03  0.15891852799E+03  0.00000000000E+00 0.  1.
         21   -1    0    0  501  502 -0.00000000000E+00 -0.00000000000E+00 -0.39006582673E+03  0.39006582673E+03  0.00000000000E+00 0.  1.
         25    1    1    2    0    0 -0.90765384778E+02 -0.94391716997E+02 -0.16268376641E+02  0.18176306388E+03  0.12500000000E+03 0.  0.
         25    1    1    2    0    0 -0.46887517058E+01  0.44824196213E+02 -0.97262126775E+02  0.16466971265E+03  0.12500000000E+03 0.  0.
         25    1    1    2    0    0  0.95454136483E+02  0.49567520784E+02 -0.11761679533E+03  0.20255157820E+03  0.12500000000E+03 0.  0.
</event>
<event>
 5    0  0.5778875E-005  0.2997352E+03  0.7546771E-02  0.1085373E+00
         21   -1    0    0  502  501  0.00000000000E+00  0.00000000000E+00  0.70736851157E+03  0.70736851157E+03  0.00000000000E+00 0.  1.
         21   -1    0    0  501  502 -0.00000000000E+00 -0.00000000000E+00 -0.12700764777E+03  0.12700764777E+03  0.00000000000E+00 0.  1.
         25    1    1    2    0    0  0.46454787617E+01  0.46879515402E+02 -0.28414083160E+02  0.13657096895E+03  0.12500000000E+03 0.  0.
         25    1    1    2    0    0  0.46146566106E+02 -0.26716356142E+02  0.93950412783E+02  0.16521183163E+03  0.12500000000E+03 0.  0.
         25    1    1    2    0    0 -0.50792044868E+02 -0.20163159260E+02  0.51482453417E+03  0.53259335876E+03  0.12500000000E+03 0.  0.
</event>
<event>
 5    0  0.5778875E-005  0.4262728E+03  0.7546771E-02  0.1035044E+00
         21   -1    0    0  502  501  0.00000000000E+00  0.00000000000E+00  0.10002749302E+04  0.10002749302E+04  0.00000000000E+00 0.  1.
         21   -1    0    0  501  502 -0.00000000000E+00 -0.00000000000E+00 -0.18165851731E+03  0.18165851731E+03  0.00000000000E+00 0.  1.
         25    1    1    2    0    0  0.84546622746E+02 -0.18718676265E+03  0.15571950045E+02  0.24094501688E+03  0.12500000000E+03 0.  0.
         25    1    1    2    0    0 -0.79790128374E+02  0.28511690181E+03  0.62204365568E+03  0.70015814061E+03  0.12500000000E+03 0.  0.
         25    1    1    2    0    0 -0.47564943724E+01 -0.97930139156E+02  0.18100080713E+03  0.24083028999E+03  0.12500000000E+03 0.  0.
</event>
<event>
 5    0  0.6299309E-005  0.3507276E+03  0.7546771E-02  0.1062317E+00
         21   -1    0    0  502  501  0.00000000000E+00  0.00000000000E+00  0.39019132517E+03  0.39019132517E+03  0.00000000000E+00 0.  1.
         21   -1    0    0  501  502 -0.00000000000E+00 -0.00000000000E+00 -0.31525518708E+03  0.31525518708E+03  0.00000000000E+00 0.  1.
         25    1    1    2    0    0 -0.14169029507E+03  0.18932744354E+03  0.12756357181E+02  0.26778488613E+03  0.12500000000E+03 0.  0.
         25    1    1    2    0    0  0.14330002689E+03 -0.45527183729E+02  0.13068056857E+03  0.23518085204E+03  0.12500000000E+03 0.  0.
         25    1    1    2    0    0 -0.16097318167E+01 -0.14380025981E+03 -0.68500787670E+02  0.20248077407E+03  0.12500000000E+03 0.  0.
</event>
<event>
 5    0  0.5778875E-005  0.2881260E+03  0.7546771E-02  0.1091332E+00
         21   -1    0    0  502  501  0.00000000000E+00  0.00000000000E+00  0.10821550149E+04  0.10821550149E+04  0.00000000000E+00 0. -1.
         21   -1    0    0  501  502 -0.00000000000E+00 -0.00000000000E+00 -0.76714161375E+02  0.76714161375E+02  0.00000000000E+00 0. -1.
         25    1    1    2    0    0  0.91894850314E+02  0.59809687742E+02  0.44401974286E+03  0.47413119947E+03  0.12500000000E+03 0.  0.
         25    1    1    2    0    0 -0.97959896347E+02  0.98823935238E+02  0.31162667847E+03  0.36345357091E+03  0.12500000000E+03 0.  0.
         25    1    1    2    0    0  0.60650460323E+01 -0.15863362298E+03  0.24979443222E+03  0.32128440593E+03  0.12500000000E+03 0.  0.
</event>
<event>
 5    0  0.5778875E-005  0.3578732E+03  0.7546771E-02  0.1059429E+00
         21   -1    0    0  502  501  0.00000000000E+00  0.00000000000E+00  0.78608572754E+02  0.78608572754E+02  0.00000000000E+00 0. -1.
         21   -1    0    0  501  502 -0.00000000000E+00 -0.00000000000E+00 -0.16292525051E+04  0.16292525051E+04  0.00000000000E+00 0. -1.
         25    1    1    2    0    0 -0.13315301087E+03 -0.90664938194E+02 -0.34465928642E+03  0.40045583906E+03  0.12500000000E+03 0.  0.
         25    1    1    2    0    0  0.21350959455E+03  0.12965310126E+02 -0.31488262356E+03  0.40066259228E+03  0.12500000000E+03 0.  0.
         25    1    1    2    0    0 -0.80356583678E+02  0.77699628068E+02 -0.89110202237E+03  0.90674264652E+03  0.12500000000E+03 0.  0.
</event>
<event>
 5    0  0.5778875E-005  0.2897967E+03  0.7546771E-02  0.1090455E+00
         21   -1    0    0  502  501  0.00000000000E+00  0.00000000000E+00  0.75812370209E+03  0.75812370209E+03  0.00000000000E+00 0.  1.
         21   -1    0    0  501  502 -0.00000000000E+00 -0.00000000000E+00 -0.11077624806E+03  0.11077624806E+03  0.00000000000E+00 0.  1.
         25    1    1    2    0    0 -0.11050749449E+03  0.99331823180E+02  0.11394809345E+03  0.22513970204E+03  0.12500000000E+03 0.  0.
         25    1    1    2    0    0  0.83680239363E+02 -0.98309109586E+02  0.13333604454E+03  0.22376452861E+03  0.12500000000E+03 0.  0.
         25    1    1    2    0    0  0.26827255131E+02 -0.10227135937E+01  0.40006331604E+03  0.41999571951E+03  0.12500000000E+03 0.  0.
</event>
<event>
 5    0  0.5778875E-005  0.2802034E+03  0.7546771E-02  0.1095578E+00
         21   -1    0    0  502  501  0.00000000000E+00  0.00000000000E+00  0.43389191594E+02  0.43389191594E+02  0.00000000000E+00 0.  1.
         21   -1    0    0  501  502 -0.00000000000E+00 -0.00000000000E+00 -0.18095270998E+04  0.18095270998E+04  0.00000000000E+00 0.  1.
         25    1    1    2    0    0 -0.89010894006E+02  0.98348050000E+02 -0.46886655252E+03  0.50304683904E+03  0.12500000000E+03 0.  0.
         25    1    1    2    0    0  0.23112879429E+02  0.65104519358E+02 -0.34499995829E+03  0.37339359241E+03  0.12500000000E+03 0.  0.
         25    1    1    2    0    0  0.65898014577E+02 -0.16345256936E+03 -0.95227139738E+03  0.97647585992E+03  0.12500000000E+03 0.  0.
</event>
<event>
 5    0  0.5778875E-005  0.4159237E+03  0.7546771E-02  0.1038401E+00
         21   -1    0    0  502  501  0.00000000000E+00  0.00000000000E+00  0.49619390771E+03  0.49619390771E+03  0.00000000000E+00 0.  1.
         21   -1    0    0  501  502 -0.00000000000E+00 -0.00000000000E+00 -0.34863903531E+03  0.34863903531E+03  0.00000000000E+00 0.  1.
         25    1    1    2    0    0 -0.21501534723E+02 -0.43904412685E+01 -0.27838326416E+03  0.30594743623E+03  0.12500000000E+03 0.  0.
         25    1    1    2    0    0 -0.11279539026E+02  0.65762632251E+02  0.34851754030E+03  0.37621991933E+03  0.12500000000E+03 0.  0.
         25    1    1    2    0    0  0.32781073749E+02 -0.61372190982E+02  0.77420596251E+02  0.16266558747E+03  0.12500000000E+03 0.  0.
</event>
<event>
 5    0  0.5778875E-005  0.3638421E+03  0.7546771E-02  0.1057073E+00
         21   -1    0    0  502  501  0.00000000000E+00  0.00000000000E+00  0.26485900086E+03  0.26485900086E+03  0.00000000000E+00 0.  1.
         21   -1    0    0  501  502 -0.00000000000E+00 -0.00000000000E+00 -0.49981725360E+03  0.49981725360E+03  0.00000000000E+00 0.  1.
         25    1    1    2    0    0  0.20300977785E+03 -0.82283874230E+02 -0.59325213146E+02  0.25909088516E+03  0.12500000000E+03 0.  0.
         25    1    1    2    0    0  0.47797669731E+02 -0.73766404135E+02 -0.45493126056E+02  0.15943877862E+03  0.12500000000E+03 0.  0.
         25    1    1    2    0    0 -0.25080744758E+03  0.15605027836E+03 -0.13013991354E+03  0.34614659067E+03  0.12500000000E+03 0.  0.
</event>
<event>
 5    0  0.5778875E-005  0.5454599E+03  0.7546771E-02  0.1002550E+00
         21   -1    0    0  502  501  0.00000000000E+00  0.00000000000E+00  0.46035518128E+03  0.46035518128E+03  0.00000000000E+00 0. -1.
         21   -1    0    0  501  502 -0.00000000000E+00 -0.00000000000E+00 -0.64629768721E+03  0.64629768721E+03  0.00000000000E+00 0. -1.
         25    1    1    2    0    0  0.12214556624E+03  0.23181776002E+03 -0.11454148174E+03  0.31209576135E+03  0.12500000000E+03 0.  0.
         25    1    1    2    0    0 -0.82277033799E+01  0.16607231544E+03  0.19632368170E+03  0.28603443334E+03  0.12500000000E+03 0.  0.
         25    1    1    2    0    0 -0.11391786286E+03 -0.39789007546E+03 -0.26772470588E+03  0.50852267380E+03  0.12500000000E+03 0.  0.
</event>
<event>
 5    0  0.5778875E-005  0.2870070E+03  0.7546771E-02  0.1091922E+00
         21   -1    0    0  502  501  0.00000000000E+00  0.00000000000E+00  0.14955700116E+03  0.14955700116E+03  0.00000000000E+00 0.  1.
         21   -1    0    0  501  502 -0.00000000000E+00 -0.00000000000E+00 -0.55078001223E+03  0.55078001223E+03  0.00000000000E+00 0.  1.
         25    1    1    2    0    0 -0.47123534791E+02  0.51052688789E+02 -0.31948461258E+03  0.35003203031E+03  0.12500000000E+03 0.  0.
         25    1    1    2    0    0 -0.65269456906E+02 -0.88949816868E+02 -0.57117466464E+02  0.17623727444E+03  0.12500000000E+03 0.  0.
         25    1    1    2    0    0  0.11239299170E+03  0.37897128079E+02 -0.24620932032E+02  0.17406770865E+03  0.12500000000E+03 0.  0.
</event>
<event>
 5    0  0.5778875E-005  0.4020711E+03  0.7546771E-02  0.1043065E+00
         21   -1    0    0  502  501  0.00000000000E+00  0.00000000000E+00  0.15630823363E+04  0.15630823363E+04  0.00000000000E+00 0. -1.
         21   -1    0    0  501  502 -0.00000000000E+00 -0.00000000000E+00 -0.10342462144E+03  0.10342462144E+03  0.00000000000E+00 0. -1.
         25    1    1    2    0    0 -0.98320963867E+02 -0.75958714302E+02  0.22946195732E+03  0.28933462992E+03  0.12500000000E+03 0.  0.
         25    1    1    2    0    0 -0.21746361293E+02 -0.16638062946E+03  0.93363564854E+03  0.95679461867E+03  0.12500000000E+03 0.  0.
         25    1    1    2    0    0  0.12006732516E+03  0.24233934376E+03  0.29656010905E+03  0.42037770919E+03  0.12500000000E+03 0.  0.
</event>
<event>
 5    0  0.5778875E-005  0.2668707E+03  0.7546771E-02  0.1103084E+00
         21   -1    0    0  502  501  0.00000000000E+00  0.00000000000E+00  0.35027230563E+03  0.35027230563E+03  0.00000000000E+00 0.  1.
         21   -1    0    0  501  502 -0.00000000000E+00 -0.00000000000E+00 -0.20332749471E+03  0.20332749471E+03  0.00000000000E+00 0.  1.
         25    1    1    2    0    0  0.72937729098E+02  0.17016866612E+02  0.18523135532E+03  0.23568016689E+03  0.12500000000E+03 0.  0.
         25    1    1    2    0    0  0.46848497307E+01 -0.58566792775E+02  0.43132913724E+02  0.14469784131E+03  0.12500000000E+03 0.  0.
         25    1    1    2    0    0 -0.77622578829E+02  0.41549926163E+02 -0.81419458124E+02  0.17322179213E+03  0.12500000000E+03 0.  0.
</event>
<event>
 5    0  0.5778875E-005  0.3663644E+03  0.7546771E-02  0.1056092E+00
         21   -1    0    0  502  501  0.00000000000E+00  0.00000000000E+00  0.17133747126E+04  0.17133747126E+04  0.00000000000E+00 0.  1.
         21   -1    0    0  501  502 -0.00000000000E+00 -0.00000000000E+00 -0.78338319947E+02  0.78338319947E+02  0.00000000000E+00 0.  1.
         25    1    1    2    0    0  0.15697681891E+03  0.19619718953E+03  0.82655094151E+03  0.87289547929E+03  0.12500000000E+03 0.  0.
         25    1    1    2    0    0 -0.14100300837E+03 -0.10355590524E+03  0.68964430314E+03  0.72238489653E+03  0.12500000000E+03 0.  0.
         25    1    1    2    0    0 -0.15973810536E+02 -0.92641284291E+02  0.11884114805E+03  0.19643265678E+03  0.12500000000E+03 0.  0.
</event>
<event>
 5    0  0.5778875E-005  0.3378192E+03  0.7546771E-02  0.1067729E+00
         21   -1    0    0  502  501  0.00000000000E+00  0.00000000000E+00  0.55635938745E+02  0.55635938745E+02  0.00000000000E+00 0. -1.
         21   -1    0    0  501  502 -0.00000000000E+00 -0.00000000000E+00 -0.20512252116E+04  0.20512252116E+04  0.00000000000E+00 0. -1.
         25    1    1    2    0    0 -0.11691274616E+03 -0.33079352813E+02 -0.42661879484E+03  0.46085944702E+03  0.12500000000E+03 0.  0.
         25    1    1    2    0    0  0.11497625786E+03  0.15067470486E+03 -0.13439729718E+04  0.13630153174E+04  0.12500000000E+03 0.  0.
         25    1    1    2    0    0  0.19364883031E+01 -0.11759535204E+03 -0.22499750619E+03  0.28298638589E+03  0.12500000000E+03 0.  0.
</event>
<event>
 5    0  0.5778875E-005  0.3228903E+03  0.7546771E-02  0.1074327E+00
         21   -1    0    0  502  501  0.00000000000E+00  0.00000000000E+00  0.21418653390E+04  0.21418653390E+04  0.00000000000E+00 0.  1.
         21   -1    0    0  501  502 -0.00000000000E+00 -0.00000000000E+00 -0.48676325706E+02  0.48676325706E+02  0.00000000000E+00 0.  1.
         25    1    1    2    0    0  0.34275424796E+01  0.48726752095E+02  0.11432159471E+03  0.17629654402E+03  0.12500000000E+03 0.  0.
         25    1    1    2    0    0 -0.11829851387E+03  0.99335328113E+01  0.13246083656E+04  0.13357789995E+04  0.12500000000E+03 0.  0.
         25    1    1    2    0    0  0.11487097139E+03 -0.58660284906E+02  0.65425905297E+03  0.67846612111E+03  0.12500000000E+03 0.  0.
</event>
<event>
 5    0  0.5778875E-005  0.3524116E+03  0.7546771E-02  0.1061630E+00
         21   -1    0    0  502  501  0.00000000000E+00  0.00000000000E+00  0.41543828530E+03  0.41543828530E+03  0.00000000000E+00 0.  1.
         21   -1    0    0  501  502 -0.00000000000E+00 -0.00000000000E+00 -0.29894679161E+03  0.29894679161E+03  0.00000000000E+00 0.  1.
         25    1    1    2    0    0  0.10867943270E+03 -0.23880120527E+03  0.88358753279E+02  0.30375895709E+03  0.12500000000E+03 0.  0.
         25    1    1    2    0    0 -0.63389280576E+02  0.43051687490E+02 -0.59582044345E+02  0.15826139357E+03  0.12500000000E+03 0.  0.
         25    1    1    2    0    0 -0.45290152120E+02  0.19574951778E+03  0.87714784754E+02  0.25236472625E+03  0.12500000000E+03 0.  0.
</event>
<event>
 5    0  0.5778875E-005  0.2800633E+03  0.7546771E-02  0.1095654E+00
         21   -1    0    0  502  501  0.00000000000E+00  0.00000000000E+00  0.46038440798E+03  0.46038440798E+03  0.00000000000E+00 0. -1.
         21   -1    0    0  501  502 -0.00000000000E+00 -0.00000000000E+00 -0.17036944821E+03  0.17036944821E+03  0.00000000000E+00 0. -1.
         25    1    1    2    0    0 -0.45514043984E+01  0.21952494732E+01 -0.30777215926E+02  0.12883233842E+03  0.12500000000E+03 0.  0.
         25    1    1    2    0    0 -0.12177859861E+03  0.15706375151E+01  0.56552603931E+02  0.18345487454E+03  0.12500000000E+03 0.  0.
         25    1    1    2    0    0  0.12633000301E+03 -0.37658869883E+01  0.26423957177E+03  0.31846664323E+03  0.12500000000E+03 0.  0.
</event>
<event>
 5    0  0.5778875E-005  0.2902002E+03  0.7546771E-02  0.1090245E+00
         21   -1    0    0  502  501  0.00000000000E+00  0.00000000000E+00  0.22976004561E+03  0.22976004561E+03  0.00000000000E+00 0.  1.
         21   -1    0    0  501  502 -0.00000000000E+00 -0.00000000000E+00 -0.36653970962E+03  0.36653970962E+03  0.00000000000E+00 0.  1.
         25    1    1    2    0    0 -0.11684285723E+03 -0.90635509242E+02 -0.78562835943E+02  0.20895972821E+03  0.12500000000E+03 0.  0.
         25    1    1    2    0    0 -0.57643388861E+01  0.12856159808E+03  0.38874627990E+02  0.18356892113E+03  0.12500000000E+03 0.  0.
         25    1    1    2    0    0  0.12260719612E+03 -0.37926088840E+02 -0.97091456055E+02  0.20377110588E+03  0.12500000000E+03 0.  0.
</event>
<event>
 5    0  0.5778875E-005  0.2667977E+03  0.7546771E-02  0.1103126E+00
         21   -1    0    0  502  501  0.00000000000E+00  0.00000000000E+00  0.69354511735E+03  0.69354511735E+03  0.00000000000E+00 0.  1.
         21   -1    0    0  501  502 -0.00000000000E+00 -0.00000000000E+00 -0.10263353631E+03  0.10263353631E+03  0.00000000000E+00 0.  1.
         25    1    1    2    0    0  0.10872848716E+03  0.65493522085E+02  0.80640916809E+02  0.19554856895E+03  0.12500000000E+03 0.  0.
         25    1    1    2    0    0  0.11001461462E+02 -0.27628168538E+02  0.29535622407E+03  0.32209415851E+03  0.12500000000E+03 0.  0.
         25    1    1    2    0    0 -0.11972994862E+03 -0.37865353547E+02  0.21491444016E+03  0.27853592620E+03  0.12500000000E+03 0.  0.
</event>
<event>
 5    0  0.5778875E-005  0.4278908E+03  0.7546771E-02  0.1034528E+00
         21   -1    0    0  502  501  0.00000000000E+00  0.00000000000E+00  0.26027668461E+04  0.26027668461E+04  0.00000000000E+00 0.  1.
         21   -1    0    0  501  502 -0.00000000000E+00 -0.00000000000E+00 -0.70344575596E+02  0.70344575596E+02  0.00000000000E+00 0.  1.
         25    1    1    2    0    0  0.21486913160E+03  0.12076323579E+02  0.80889566637E+03  0.84631659583E+03  0.12500000000E+03 0.  0.
         25    1    1    2    0    0 -0.21449940181E+03 -0.86332798277E+02  0.31270242498E+03  0.40849865608E+03  0.12500000000E+03 0.  0.
         25    1    1    2    0    0 -0.36972979110E+00  0.74256474698E+02  0.14108241792E+04  0.14182961698E+04  0.12500000000E+03 0.  0.
</event>
<event>
 5    0  0.5778875E-005  0.4391637E+03  0.7546771E-02  0.1031004E+00
         21   -1    0    0  502  501  0.00000000000E+00  0.00000000000E+00  0.16828353753E+03  0.16828353753E+03  0.00000000000E+00 0.  1.
         21   -1    0    0  501  502 -0.00000000000E+00 -0.00000000000E+00 -0.11460702323E+04  0.11460702323E+04  0.00000000000E+00 0.  1.
         25    1    1    2    0    0 -0.14611006992E+03  0.11452287869E+03 -0.96109600218E+03  0.98681009707E+03  0.12500000000E+03 0.  0.
         25    1    1    2    0    0  0.42846360953E+02 -0.79850294667E+02 -0.41555778144E+02  0.15988671897E+03  0.12500000000E+03 0.  0.
         25    1    1    2    0    0  0.10326370897E+03 -0.34672584018E+02  0.24865085567E+02  0.16765695378E+03  0.12500000000E+03 0.  0.
</event>
<event>
 5    0  0.5778875E-005  0.2865728E+03  0.7546771E-02  0.1092152E+00
         21   -1    0    0  502  501  0.00000000000E+00  0.00000000000E+00  0.11419027510E+03  0.11419027510E+03  0.00000000000E+00 0.  1.
         21   -1    0    0  501  502 -0.00000000000E+00 -0.00000000000E+00 -0.71918547502E+03  0.71918547502E+03  0.00000000000E+00 0.  1.
         25    1    1    2    0    0  0.27155652000E+02 -0.24944919892E+02  0.92043448794E+01  0.13064990788E+03  0.12500000000E+03 0.  0.
         25    1    1    2    0    0 -0.11768542189E+03  0.54041377156E+02 -0.27137888770E+03  0.32564064497E+03  0.12500000000E+03 0.  0.
         25    1    1    2    0    0  0.90529769889E+02 -0.29096457264E+02 -0.34282065710E+03  0.37708519727E+03  0.12500000000E+03 0.  0.
</event>
<event>
 5    0  0.5778875E-005  0.2390635E+03  0.7546771E-02  0.1120418E+00
         21   -1    0    0  502  501  0.00000000000E+00  0.00000000000E+00  0.83224318832E+03  0.83224318832E+03  0.00000000000E+00 0. -1.
         21   -1    0    0  501  502 -0.00000000000E+00 -0.00000000000E+00 -0.68671434544E+02  0.68671434544E+02  0.00000000000E+00 0. -1.
         25    1    1    2    0    0 -0.75619142947E+02 -0.10093045338E+03  0.41881966240E+03  0.45490671661E+03  0.12500000000E+03 0.  0.
         25    1    1    2    0    0  0.24622815190E+02  0.44967333778E+02  0.14117710788E+03  0.19540808562E+03  0.12500000000E+03 0.  0.
         25    1    1    2    0    0  0.50996327758E+02  0.55963119601E+02  0.20357498349E+03  0.25059982063E+03  0.12500000000E+03 0.  0.
</event>
<event>
 5    0  0.5778875E-005  0.4075087E+03  0.7546771E-02  0.1041210E+00
         21   -1    0    0  502  501  0.00000000000E+00  0.00000000000E+00  0.41386715526E+03  0.41386715526E+03  0.00000000000E+00 0.  1.
         21   -1    0    0  501  502 -0.00000000000E+00 -0.00000000000E+00 -0.40124799655E+03  0.40124799655E+03  0.00000000000E+00 0.  1.
         25    1    1    2    0    0 -0.93938049321E+02  0.26487405975E+01 -0.21990264697E+03  0.26983985451E+03  0.12500000000E+03 0.  0.
         25    1    1    2    0    0  0.24256003283E+03  0.60989450427E+02  0.18559065290E+03  0.33559495383E+03  0.12500000000E+03 0.  0.
         25    1    1    2    0    0 -0.14862198351E+03 -0.63638191024E+02  0.46931152771E+02  0.20968034347E+03  0.12500000000E+03 0.  0.
</event>
<event>
 5    0  0.5778875E-005  0.2509205E+03  0.7546771E-02  0.1112724E+00
         21   -1    0    0  502  501  0.00000000000E+00  0.00000000000E+00  0.84590910299E+02  0.84590910299E+02  0.00000000000E+00 0. -1.
         21   -1    0    0  501  502 -0.00000000000E+00 -0.00000000000E+00 -0.74430079380E+03  0.74430079380E+03  0.00000000000E+00 0. -1.
         25    1    1    2    0    0 -0.12365405061E+02 -0.36902382975E+01 -0.14577672471E+02  0.12650703394E+03  0.12500000000E+03 0.  0.
         25    1    1    2    0    0 -0.38775370056E+02 -0.12214731024E+02 -0.22264873868E+03  0.25855403655E+03  0.12500000000E+03 0.  0.
         25    1    1    2    0    0  0.51140775117E+02  0.15904969322E+02 -0.42248347235E+03  0.44383063362E+03  0.12500000000E+03 0.  0.
</event>
<event>
 5    0  0.5778875E-005  0.2562777E+03  0.7546771E-02  0.1109400E+00
         21   -1    0    0  502  501  0.00000000000E+00  0.00000000000E+00  0.31083308807E+02  0.31083308807E+02  0.00000000000E+00 0.  1.
         21   -1    0    0  501  502 -0.00000000000E+00 -0.00000000000E+00 -0.21129756638E+04  0.21129756638E+04  0.00000000000E+00 0.  1.
         25    1    1    2    0    0  0.10598156612E+02  0.45901985839E+02 -0.65175565521E+03  0.66530425170E+03  0.12500000000E+03 0.  0.
         25    1    1    2    0    0 -0.24838655900E+02  0.76290777218E+02 -0.10457757121E+04  0.10562713106E+04  0.12500000000E+03 0.  0.
         25    1    1    2    0    0  0.14240499288E+02 -0.12219276306E+03 -0.38436098772E+03  0.42248341038E+03  0.12500000000E+03 0.  0.
</event>
<event>
 5    0  0.5778875E-005  0.3666932E+03  0.7546771E-02  0.1055965E+00
         21   -1    0    0  502  501  0.00000000000E+00  0.00000000000E+00  0.25891646620E+03  0.25891646620E+03  0.00000000000E+00 0. -1.
         21   -1    0    0  501  502 -0.00000000000E+00 -0.00000000000E+00 -0.51933305269E+03  0.51933305269E+03  0.00000000000E+00 0. -1.
         25    1    1    2    0    0  0.41802738585E+02  0.84973962801E+02 -0.52814731151E+02  0.16547640053E+03  0.12500000000E+03 0.  0.
         25    1    1    2    0    0 -0.19303794855E+02 -0.26236879338E+03 -0.25772163555E+03  0.38891575137E+03  0.12500000000E+03 0.  0.
         25    1    1    2    0    0 -0.22498943730E+02  0.17739483058E+03  0.50119780217E+02  0.22385736698E+03  0.12500000000E+03 0.  0.
</event>
<event>
 5    0  0.5778875E-005  0.3013645E+03  0.7546771E-02  0.1084560E+00
         21   -1    0    0  502  501  0.00000000000E+00  0.00000000000E+00  0.11797276182E+04  0.11797276182E+04  0.00000000000E+00 0.  1.
         21   -1    0    0  501  502 -0.00000000000E+00 -0.00000000000E+00 -0.76984355275E+02  0.76984355275E+02  0.00000000000E+00 0.  1.
         25    1    1    2    0    0 -0.99842123083E+01  0.33747029752E+02  0.58119052787E+02  0.14227217159E+03  0.12500000000E+03 0.  0.
         25    1    1    2    0    0  0.47112392880E+02 -0.10778017611E+03  0.85819073769E+03  0.87518711496E+03  0.12500000000E+03 0.  0.
         25    1    1    2    0    0 -0.37128180572E+02  0.74033146357E+02  0.18643347244E+03  0.23925268692E+03  0.12500000000E+03 0.  0.
</event>
<event>
 5    0  0.5778875E-005  0.5886730E+03  0.7546771E-02  0.9929189E-01
         21   -1    0    0  502  501  0.00000000000E+00  0.00000000000E+00  0.22869948852E+04  0.22869948852E+04  0.00000000000E+00 0. -1.
         21   -1    0    0  501  502 -0.00000000000E+00 -0.00000000000E+00 -0.15152458123E+03  0.15152458123E+03  0.00000000000E+00 0. -1.
         25    1    1    2    0    0  0.10237236120E+03 -0.11463067159E+03  0.54205156487E+02  0.20538619768E+03  0.12500000000E+03 0.  0.
         25    1    1    2    0    0  0.45952476303E+02 -0.31113785617E+03  0.97190255302E+03  0.10291442893E+04  0.12500000000E+03 0.  0.
         25    1    1    2    0    0 -0.14832483750E+03  0.42576852776E+03  0.11093625945E+04  0.12039889795E+04  0.12500000000E+03 0.  0.
</event>
<event>
 5    0  0.5778875E-005  0.2929406E+03  0.7546771E-02  0.1088824E+00
         21   -1    0    0  502  501  0.00000000000E+00  0.00000000000E+00  0.16926190005E+04  0.16926190005E+04  0.00000000000E+00 0. -1.
         21   -1    0    0  501  502 -0.00000000000E+00 -0.00000000000E+00 -0.50699069509E+02  0.50699069509E+02  0.00000000000E+00 0. -1.
         25    1    1    2    0    0 -0.12397658018E+03 -0.13477904399E+03  0.98454630322E+03  0.10092036496E+04  0.12500000000E+03 0.  0.
         25    1    1    2    0    0  0.10691695816E+03  0.73155409090E+02  0.29627619721E+03  0.34668073909E+03  0.12500000000E+03 0.  0.
         25    1    1    2    0    0  0.17059622012E+02  0.61623634901E+02  0.36109743053E+03  0.38743368132E+03  0.12500000000E+03 0.  0.
</event>
<event>
 5    0  0.5778875E-005  0.3089489E+03  0.7546771E-02  0.1080851E+00
         21   -1    0    0  502  501  0.00000000000E+00  0.00000000000E+00  0.13342666013E+03  0.13342666013E+03  0.00000000000E+00 0.  1.
         21   -1    0    0  501  502 -0.00000000000E+00 -0.00000000000E+00 -0.71536977146E+03  0.71536977146E+03  0.00000000000E+00 0.  1.
         25    1    1    2    0    0 -0.61555673123E+02 -0.16768521812E+02 -0.22465674354E+03  0.26488853624E+03  0.12500000000E+03 0.  0.
         25    1    1    2    0    0 -0.39678996767E+02  0.88466542456E+02 -0.37491091476E+03  0.40692007314E+03  0.12500000000E+03 0.  0.
         25    1    1    2    0    0  0.10123466989E+03 -0.71698020643E+02  0.17624546968E+02  0.17698782220E+03  0.12500000000E+03 0.  0.
</event>
<event>
 5    0  0.5778875E-005  0.2828515E+03  0.7546771E-02  0.1094142E+00
         21   -1    0    0  502  501  0.00000000000E+00  0.00000000000E+00  0.31907802757E+02  0.31907802757E+02  0.00000000000E+00 0.  1.
         21   -1    0    0  501  502 -0.00000000000E+00 -0.00000000000E+00 -0.25073792980E+04  0.25073792980E+04  0.00000000000E+00 0.  1.
         25    1    1    2    0    0  0.81267110401E+02  0.32744902941E+02 -0.46594519061E+03  0.49031264776E+03  0.12500000000E+03 0.  0.
         25    1    1    2    0    0 -0.14987344544E+03  0.66808566982E+02 -0.14003637348E+04  0.14154748405E+04  0.12500000000E+03 0.  0.
         25    1    1    2    0    0  0.68606335037E+02 -0.99553469923E+02 -0.60916256984E+03  0.63349961253E+03  0.12500000000E+03 0.  0.
</event>
<event>
 5    0  0.5778875E-005  0.4375508E+03  0.7546771E-02  0.1031501E+00
         21   -1    0    0  502  501  0.00000000000E+00  0.00000000000E+00  0.19481915622E+03  0.19481915622E+03  0.00000000000E+00 0.  1.
         21   -1    0    0  501  502 -0.00000000000E+00 -0.00000000000E+00 -0.98271001165E+03  0.98271001165E+03  0.00000000000E+00 0.  1.
         25    1    1    2    0    0  0.12086495168E+03  0.28688354798E+03 -0.61397780851E+02  0.34103547343E+03  0.12500000000E+03 0.  0.
         25    1    1    2    0    0 -0.79367313589E+02 -0.19900315379E+03 -0.52138642488E+03  0.57738222153E+03  0.12500000000E+03 0.  0.
         25    1    1    2    0    0 -0.41497638091E+02 -0.87880394183E+02 -0.20510664969E+03  0.25911147292E+03  0.12500000000E+03 0.  0.
</event>
<event>
 5    0  0.5778875E-005  0.2820932E+03  0.7546771E-02  0.1094551E+00
         21   -1    0    0  502  501  0.00000000000E+00  0.00000000000E+00  0.45586006603E+02  0.45586006603E+02  0.00000000000E+00 0. -1.
         21   -1    0    0  501  502 -0.00000000000E+00 -0.00000000000E+00 -0.17456364271E+04  0.17456364271E+04  0.00000000000E+00 0. -1.
         25    1    1    2    0    0  0.13435891272E+02  0.18333926229E+02 -0.43887714620E+03  0.45689693092E+03  0.12500000000E+03 0.  0.
         25    1    1    2    0    0  0.43915431447E+02  0.16177425023E+03 -0.59878567412E+03  0.63424660558E+03  0.12500000000E+03 0.  0.
         25    1    1    2    0    0 -0.57351322719E+02 -0.18010817646E+03 -0.66238760015E+03  0.70007889718E+03  0.12500000000E+03 0.  0.
</event>
<event>
 5    0  0.5778875E-005  0.2985314E+03  0.7546771E-02  0.1085977E+00
         21   -1    0    0  502  501  0.00000000000E+00  0.00000000000E+00  0.33056837165E+03  0.33056837165E+03  0.00000000000E+00 0.  1.
         21   -1    0    0  501  502 -0.00000000000E+00 -0.00000000000E+00 -0.26959924304E+03  0.26959924304E+03  0.00000000000E+00 0.  1.
         25    1    1    2    0    0 -0.26532524587E+02 -0.28482596904E+02  0.12516190847E+03  0.18112353938E+03  0.12500000000E+03 0.  0.
         25    1    1    2    0    0  0.58931488714E+02  0.63515788418E+02 -0.18450251701E+03  0.23910950321E+03  0.12500000000E+03 0.  0.
         25    1    1    2    0    0 -0.32398964127E+02 -0.35033191514E+02  0.12030973714E+03  0.17993457210E+03  0.12500000000E+03 0.  0.
</event>
<event>
 5    0  0.5778875E-005  0.3223562E+03  0.7546771E-02  0.1074570E+00
         21   -1    0    0  502  501  0.00000000000E+00  0.00000000000E+00  0.25143162749E+03  0.25143162749E+03  0.00000000000E+00 0. -1.
         21   -1    0    0  501  502 -0.00000000000E+00 -0.00000000000E+00 -0.41328740127E+03  0.41328740127E+03  0.00000000000E+00 0. -1.
         25    1    1    2    0    0 -0.50357013683E+02  0.14309024308E+03 -0.17395009072E+03  0.26247720006E+03  0.12500000000E+03 0.  0.
         25    1    1    2    0    0  0.15869705638E+03 -0.10798871107E+03  0.34552126504E+02  0.23165743430E+03  0.12500000000E+03 0.  0.
         25    1    1    2    0    0 -0.10834004270E+03 -0.35101532008E+02 -0.22457809563E+02  0.17058439440E+03  0.12500000000E+03 0.  0.
</event>
<event>
 5    0  0.5778875E-005  0.2392248E+03  0.7546771E-02  0.1120310E+00
         21   -1    0    0  502  501  0.00000000000E+00  0.00000000000E+00  0.84675157748E+03  0.84675157748E+03  0.00000000000E+00 0. -1.
         21   -1    0    0  501  502 -0.00000000000E+00 -0.00000000000E+00 -0.67585945453E+02  0.67585945453E+02  0.00000000000E+00 0. -1.
         25    1    1    2    0    0 -0.72819620602E+02 -0.21324257866E+02  0.20771296751E+03  0.25402184549E+03  0.12500000000E+03 0.  0.
         25    1    1    2    0    0  0.43767453710E+02 -0.81655342622E+02  0.36155690083E+03  0.39361348747E+03  0.12500000000E+03 0.  0.
         25    1    1    2    0    0  0.29052166891E+02  0.10297960049E+03  0.20989576370E+03  0.26670218997E+03  0.12500000000E+03 0.  0.
</event>
<event>
 5    0  0.5778875E-005  0.4294769E+03  0.7546771E-02  0.1034025E+00
         21   -1    0    0  502  501  0.00000000000E+00  0.00000000000E+00  0.10845739648E+04  0.10845739648E+04  0.00000000000E+00 0. -1.
         21   -1    0    0  501  502 -0.00000000000E+00 -0.00000000000E+00 -0.17006712730E+03  0.17006712730E+03  0.00000000000E+00 0. -1.
         25    1    1    2    0    0 -0.13808151751E+03 -0.20710931306E+03  0.78811684162E+03  0.83589109881E+03  0.12500000000E+03 0.  0.
         25    1    1    2    0    0  0.16321953258E+03  0.15369214769E+03  0.11099708467E+03  0.27965558260E+03  0.12500000000E+03 0.  0.
         25    1    1    2    0    0 -0.25138015068E+02  0.53417165370E+02  0.15392911177E+02  0.13909441064E+03  0.12500000000E+03 0.  0.
</event>
<event>
 5    0  0.5778875E-005  0.2811087E+03  0.7546771E-02  0.1095085E+00
         21   -1    0    0  502  501  0.00000000000E+00  0.00000000000E+00  0.11323483972E+03  0.11323483972E+03  0.00000000000E+00 0.  1.
         21   -1    0    0  501  502 -0.00000000000E+00 -0.00000000000E+00 -0.69786020961E+03  0.69786020961E+03  0.00000000000E+00 0.  1.
         25    1    1    2    0    0 -0.64288123161E+02  0.10420736678E+02 -0.28370686701E+03  0.31679037378E+03  0.12500000000E+03 0.  0.
         25    1    1    2    0    0  0.10746772014E+03  0.72161048215E+02 -0.31011580934E+02  0.18260133051E+03  0.12500000000E+03 0.  0.
         25    1    1    2    0    0 -0.43179596983E+02 -0.82581784894E+02 -0.26990692194E+03  0.31170334503E+03  0.12500000000E+03 0.  0.
</event>
<event>
 5    0  0.5778875E-005  0.2261601E+03  0.7546771E-02  0.1129372E+00
         21   -1    0    0  502  501  0.00000000000E+00  0.00000000000E+00  0.20718100838E+02  0.20718100838E+02  0.00000000000E+00 0.  1.
         21   -1    0    0  501  502 -0.00000000000E+00 -0.00000000000E+00 -0.24687777932E+04  0.24687777932E+04  0.00000000000E+00 0.  1.
         25    1    1    2    0    0  0.49890481206E+02 -0.42573425057E+02 -0.44838810334E+03  0.47008344776E+03  0.12500000000E+03 0.  0.
         25    1    1    2    0    0  0.19636497273E+02  0.28863690116E+02 -0.71034400448E+03  0.72210269999E+03  0.12500000000E+03 0.  0.
         25    1    1    2    0    0 -0.69526978478E+02  0.13709734941E+02 -0.12893275845E+04  0.12973097463E+04  0.12500000000E+03 0.  0.
</event>
<event>
 5    0  0.5778875E-005  0.3071227E+03  0.7546771E-02  0.1081733E+00
         21   -1    0    0  502  501  0.00000000000E+00  0.00000000000E+00  0.55925307426E+03  0.55925307426E+03  0.00000000000E+00 0.  1.
         21   -1    0    0  501  502 -0.00000000000E+00 -0.00000000000E+00 -0.16866135604E+03  0.16866135604E+03  0.00000000000E+00 0.  1.
         25    1    1    2    0    0 -0.56151637949E+02 -0.13531009509E+03  0.51167388410E+02  0.19926095933E+03  0.12500000000E+03 0.  0.
         25    1    1    2    0    0  0.13430964230E+03  0.14397607599E+03  0.29166321272E+03  0.37344426642E+03  0.12500000000E+03 0.  0.
         25    1    1    2    0    0 -0.78158004351E+02 -0.86659809032E+01  0.47761117099E+02  0.15520920455E+03  0.12500000000E+03 0.  0.
</event>
<event>
 5    0  0.7616003E-005  0.3742784E+03  0.7546771E-02  0.1053069E+00
         21   -1    0    0  502  501  0.00000000000E+00  0.00000000000E+00  0.22443053940E+03  0.22443053940E+03  0.00000000000E+00 0.  1.
         21   -1    0    0  501  502 -0.00000000000E+00 -0.00000000000E+00 -0.62417664555E+03  0.62417664555E+03  0.00000000000E+00 0.  1.
         25    1    1    2    0    0 -0.17421698665E+03 -0.28171362071E+02 -0.25440113229E+03  0.33390136296E+03  0.12500000000E+03 0.  0.
         25    1    1    2    0    0  0.24014170159E+03  0.51225940918E+02 -0.22058716896E+03  0.35295301809E+03  0.12500000000E+03 0.  0.
         25    1    1    2    0    0 -0.65924714941E+02 -0.23054578846E+02  0.75242195101E+02  0.16175280390E+03  0.12500000000E+03 0.  0.
</event>
<event>
 5    0  0.5778875E-005  0.4453793E+03  0.7546771E-02  0.1029109E+00
         21   -1    0    0  502  501  0.00000000000E+00  0.00000000000E+00  0.16664273904E+04  0.16664273904E+04  0.00000000000E+00 0.  1.
         21   -1    0    0  501  502 -0.00000000000E+00 -0.00000000000E+00 -0.11903471709E+03  0.11903471709E+03  0.00000000000E+00 0.  1.
         25    1    1    2    0    0 -0.21014476694E+03  0.40731735960E+02  0.11859623825E+04  0.12115905538E+04  0.12500000000E+03 0.  0.
         25    1    1    2    0    0  0.18254876716E+03  0.81990982554E+02  0.30932325150E+03  0.38904041889E+03  0.12500000000E+03 0.  0.
         25    1    1    2    0    0  0.27595999783E+02 -0.12272271851E+03  0.52107039330E+02  0.18483113480E+03  0.12500000000E+03 0.  0.
</event>
<event>
 5    0  0.5778875E-005  0.2946130E+03  0.7546771E-02  0.1087965E+00
         21   -1    0    0  502  501  0.00000000000E+00  0.00000000000E+00  0.59533435496E+02  0.59533435496E+02  0.00000000000E+00 0. -1.
         21   -1    0    0  501  502 -0.00000000000E+00 -0.00000000000E+00 -0.14579503586E+04  0.14579503586E+04  0.00000000000E+00 0. -1.
         25    1    1    2    0    0  0.23519873922E+02  0.56837311571E+02 -0.34536183047E+03  0.37240228034E+03  0.12500000000E+03 0.  0.
         25    1    1    2    0    0  0.31899763247E+02  0.15236240403E+03 -0.48462589952E+03  0.52413658482E+03  0.12500000000E+03 0.  0.
         25    1    1    2    0    0 -0.55419637168E+02 -0.20919971560E+03 -0.56842919311E+03  0.62094492894E+03  0.12500000000E+03 0.  0.
</event>
<event>
 5    0  0.6332919E-005  0.3111273E+03  0.7546771E-02  0.1079807E+00
         21   -1    0    0  502  501  0.00000000000E+00  0.00000000000E+00  0.67992550587E+03  0.67992550587E+03  0.00000000000E+00 0.  1.
         21   -1    0    0  501  502 -0.00000000000E+00 -0.00000000000E+00 -0.14236879506E+03  0.14236879506E+03  0.00000000000E+00 0.  1.
         25    1    1    2    0    0  0.38683354065E+02 -0.70104201784E+02  0.38455082128E+03  0.41220787854E+03  0.12500000000E+03 0.  0.
         25    1    1    2    0    0 -0.60232889026E+02 -0.60654394327E+02 -0.27183282728E+02  0.15385346058E+03  0.12500000000E+03 0.  0.
         25    1    1    2    0    0  0.21549534961E+02  0.13075859611E+03  0.18018917227E+03  0.25623296181E+03  0.12500000000E+03 0.  0.
</event>
<event>
 5    0  0.5778875E-005  0.2632182E+03  0.7546771E-02  0.1105225E+00
         21   -1    0    0  502  501  0.00000000000E+00  0.00000000000E+00  0.37381163091E+03  0.37381163091E+03  0.00000000000E+00 0.  1.
         21   -1    0    0  501  502 -0.00000000000E+00 -0.00000000000E+00 -0.18534425958E+03  0.18534425958E+03  0.00000000000E+00 0.  1.
         25    1    1    2    0    0 -0.31751599464E+02  0.93031307545E+01  0.33366961612E+02  0.13354050486E+03  0.12500000000E+03 0.  0.
         25    1    1    2    0    0 -0.38623435868E+02  0.53168888461E+02  0.21570798149E+03  0.25782481218E+03  0.12500000000E+03 0.  0.
         25    1    1    2    0    0  0.70375035331E+02 -0.62472019216E+02 -0.60607571774E+02  0.16779057345E+03  0.12500000000E+03 0.  0.
</event>
<event>
 5    0  0.5778875E-005  0.3813299E+03  0.7546771E-02  0.1050443E+00
         21   -1    0    0  502  501  0.00000000000E+00  0.00000000000E+00  0.56320643121E+03  0.56320643121E+03  0.00000000000E+00 0.  1.
         21   -1    0    0  501  502 -0.00000000000E+00 -0.00000000000E+00 -0.25818682080E+03  0.25818682080E+03  0.00000000000E+00 0.  1.
         25    1    1    2    0    0 -0.17447090352E+02  0.17025935554E+02  0.32325396101E+02  0.13139335857E+03  0.12500000000E+03 0.  0.
         25    1    1    2    0    0  0.12270082794E+03 -0.18236994101E+03  0.36148834683E+03  0.44114976307E+03  0.12500000000E+03 0.  0.
         25    1    1    2    0    0 -0.10525373759E+03  0.16534400546E+03 -0.88794132510E+02  0.24885013037E+03  0.12500000000E+03 0.  0.
</event>
<event>
 5    0  0.5778875E-005  0.3067571E+03  0.7546771E-02  0.1081911E+00
         21   -1    0    0  502  501  0.00000000000E+00  0.00000000000E+00  0.71036139600E+03  0.71036139600E+03  0.00000000000E+00 0.  1.
         21   -1    0    0  501  502 -0.00000000000E+00 -0.00000000000E+00 -0.13246767388E+03  0.13246767388E+03  0.00000000000E+00 0.  1.
         25    1    1    2    0    0  0.95505230589E+02  0.59467340159E+02  0.54507180766E+02  0.17678700849E+03  0.12500000000E+03 0.  0.
         25    1    1    2    0    0 -0.11625059835E+03 -0.10574345845E+03  0.10530681814E+03  0.22673863052E+03  0.12500000000E+03 0.  0.
         25    1    1    2    0    0  0.20745367761E+02  0.46276118296E+02  0.41807972322E+03  0.43930343088E+03  0.12500000000E+03 0.  0.
</event>
<event>
 5    0  0.5778875E-005  0.2502019E+03  0.7546771E-02  0.1113177E+00
         21   -1    0    0  502  501  0.00000000000E+00  0.00000000000E+00  0.14617388093E+04  0.14617388093E+04  0.00000000000E+00 0. -1.
         21   -1    0    0  501  502 -0.00000000000E+00 -0.00000000000E+00 -0.42826396968E+02  0.42826396968E+02  0.00000000000E+00 0. -1.
         25    1    1    2    0    0  0.55831449773E+01 -0.93691682129E+02  0.45931322068E+03  0.48518340604E+03  0.12500000000E+03 0.  0.
         25    1    1    2    0    0 -0.13806048245E+02  0.10145440732E+03  0.80096456379E+03  0.81710026079E+03  0.12500000000E+03 0.  0.
         25    1    1    2    0    0  0.82229032679E+01 -0.77627251883E+01  0.15863462786E+03  0.20228153944E+03  0.12500000000E+03 0.  0.
</event>
<event>
 5    0  0.7144626E-005  0.3137073E+03  0.7546771E-02  0.1078582E+00
         21   -1    0    0  502  501  0.00000000000E+00  0.00000000000E+00  0.48607835254E+03  0.48607835254E+03  0.00000000000E+00 0. -1.
         21   -1    0    0  501  502 -0.00000000000E+00 -0.00000000000E+00 -0.20246175034E+03  0.20246175034E+03  0.00000000000E+00 0. -1.
         25    1    1    2    0    0  0.76081590195E+01 -0.13959513176E+03  0.85451915126E+02  0.20608666792E+03  0.12500000000E+03 0.  0.
         25    1    1    2    0    0 -0.13437484118E+03  0.39946130364E+01  0.18133482478E+03  0.25803076087E+03  0.12500000000E+03 0.  0.
         25    1    1    2    0    0  0.12676668216E+03  0.13560051872E+03  0.16829862290E+02  0.22442267410E+03  0.12500000000E+03 0.  0.
</event>
<event>
 5    0  0.5778875E-005  0.3321308E+03  0.7546771E-02  0.1070198E+00
         21   -1    0    0  502  501  0.00000000000E+00  0.00000000000E+00  0.20152369807E+03  0.20152369807E+03  0.00000000000E+00 0.  1.
         21   -1    0    0  501  502 -0.00000000000E+00 -0.00000000000E+00 -0.54738396014E+03  0.54738396014E+03  0.00000000000E+00 0.  1.
         25    1    1    2    0    0 -0.92096459240E+02  0.25047431793E+02  0.88606484846E+02  0.18051382440E+03  0.12500000000E+03 0.  0.
         25    1    1    2    0    0  0.14365845787E+03 -0.62561687662E+02 -0.35353498240E+03  0.40640337235E+03  0.12500000000E+03 0.  0.
         25    1    1    2    0    0 -0.51561998632E+02  0.37514255869E+02 -0.80931764522E+02  0.16199046146E+03  0.12500000000E+03 0.  0.
</event>
<event>
 5    0  0.5778875E-005  0.4024926E+03  0.7546771E-02  0.1042920E+00
         21   -1    0    0  502  501  0.00000000000E+00  0.00000000000E+00  0.78950551287E+02  0.78950551287E+02  0.00000000000E+00 0.  1.
         21   -1    0    0  501  502 -0.00000000000E+00 -0.00000000000E+00 -0.20519214317E+04  0.20519214317E+04  0.00000000000E+00 0.  1.
         25    1    1    2    0    0  0.10152813204E+01  0.75078797851E+02 -0.43618675655E+03  0.45991493048E+03  0.12500000000E+03 0.  0.
         25    1    1    2    0    0  0.54651092392E+02 -0.24617917697E+03 -0.13617612032E+04  0.13905428809E+04  0.12500000000E+03 0.  0.
         25    1    1    2    0    0 -0.55666373713E+02  0.17110037912E+03 -0.17502292071E+03  0.28041417167E+03  0.12500000000E+03 0.  0.
</event>
<event>
 5    0  0.5778875E-005  0.3007567E+03  0.7546771E-02  0.1084863E+00
         21   -1    0    0  502  501  0.00000000000E+00  0.00000000000E+00  0.40033680646E+03  0.40033680646E+03  0.00000000000E+00 0. -1.
         21   -1    0    0  501  502 -0.00000000000E+00 -0.00000000000E+00 -0.22594624096E+03  0.22594624096E+03  0.00000000000E+00 0. -1.
         25    1    1    2    0    0 -0.19558184714E+03  0.83855425610E+02  0.42549534945E+02  0.25043852391E+03  0.12500000000E+03 0.  0.
         25    1    1    2    0    0  0.28085339422E+02 -0.27122487935E+02  0.21212273401E+02  0.13266264050E+03  0.12500000000E+03 0.  0.
         25    1    1    2    0    0  0.16749650771E+03 -0.56732937675E+02  0.11062875715E+03  0.24318188301E+03  0.12500000000E+03 0.  0.
</event>
<event>
 5    0  0.5778875E-005  0.2314039E+03  0.7546771E-02  0.1125656E+00
         21   -1    0    0  502  501  0.00000000000E+00  0.00000000000E+00  0.10377132313E+04  0.10377132313E+04  0.00000000000E+00 0. -1.
         21   -1    0    0  501  502 -0.00000000000E+00 -0.00000000000E+00 -0.51601706188E+02  0.51601706188E+02  0.00000000000E+00 0. -1.
         25    1    1    2    0    0  0.16160240987E+02 -0.36689075336E+02  0.49438907306E+03  0.51152008485E+03  0.12500000000E+03 0.  0.
         25    1    1    2    0    0 -0.23533220413E+01 -0.16039630288E+02  0.38355989354E+03  0.40374001510E+03  0.12500000000E+03 0.  0.
         25    1    1    2    0    0 -0.13806918946E+02  0.52728705624E+02  0.10816255852E+03  0.17405483755E+03  0.12500000000E+03 0.  0.
</event>
<event>
 5    0  0.5778875E-005  0.4629506E+03  0.7546771E-02  0.1023929E+00
         21   -1    0    0  502  501  0.00000000000E+00  0.00000000000E+00  0.27135937671E+03  0.27135937671E+03  0.00000000000E+00 0. -1.
         21   -1    0    0  501  502 -0.00000000000E+00 -0.00000000000E+00 -0.78981345898E+03  0.78981345898E+03  0.00000000000E+00 0. -1.
         25    1    1    2    0    0 -0.66519306794E+02  0.16123516921E+03 -0.81971701357E+02  0.22970841907E+03  0.12500000000E+03 0.  0.
         25    1    1    2    0    0 -0.17131716882E+03 -0.14739744815E+03  0.61470125604E+02  0.26547910727E+03  0.12500000000E+03 0.  0.
         25    1    1    2    0    0  0.23783647562E+03 -0.13837721067E+02 -0.49795250652E+03  0.56598530936E+03  0.12500000000E+03 0.  0.
</event>
<event>
 5    0  0.5778875E-005  0.3343602E+03  0.7546771E-02  0.1069224E+00
         21   -1    0    0  502  501  0.00000000000E+00  0.00000000000E+00  0.25745055831E+03  0.25745055831E+03  0.00000000000E+00 0.  1.
         21   -1    0    0  501  502 -0.00000000000E+00 -0.00000000000E+00 -0.43424550421E+03  0.43424550421E+03  0.00000000000E+00 0.  1.
         25    1    1    2    0    0 -0.32538018673E+02  0.45684500009E+02 -0.31000392062E+03  0.33892953102E+03  0.12500000000E+03 0.  0.
         25    1    1    2    0    0  0.79109476339E+02 -0.98386042766E+02  0.10569743998E+03  0.20672462716E+03  0.12500000000E+03 0.  0.
         25    1    1    2    0    0 -0.46571457665E+02  0.52701542756E+02  0.27511534746E+02  0.14604190434E+03  0.12500000000E+03 0.  0.
</event>
<event>
 5    0  0.5778875E-005  0.3603540E+03  0.7546771E-02  0.1058444E+00
         21   -1    0    0  502  501  0.00000000000E+00  0.00000000000E+00  0.27896741715E+03  0.27896741715E+03  0.00000000000E+00 0.  1.
         21   -1    0    0  501  502 -0.00000000000E+00 -0.00000000000E+00 -0.46548453780E+03  0.46548453780E+03  0.00000000000E+00 0.  1.
         25    1    1    2    0    0 -0.34143689086E+02  0.12542317846E+03 -0.32579912955E+03  0.37237996458E+03  0.12500000000E+03 0.  0.
         25    1    1    2    0    0  0.27495128981E+02 -0.13670339691E+03  0.15798229017E+03  0.24500449965E+03  0.12500000000E+03 0.  0.
         25    1    1    2    0    0  0.66485601050E+01  0.11280218448E+02 -0.18700281263E+02  0.12706749072E+03  0.12500000000E+03 0.  0.
</event>
