<event>
 5    0  0.5576108E-005  0.2383821E+03  0.7546771E-02  0.1120875E+00
         21   -1    0    0  502  501  0.00000000000E+00  0.00000000000E+00  0.63386791917E+03  0.63386791917E+03  0.00000000000E+00 0.  1.
         21   -1    0    0  501  502 -0.00000000000E+00 -0.00000000000E+00 -0.89649595209E+02  0.89649595209E+02  0.00000000000E+00 0.  1.
         25    1    1    2    0    0 -0.51019461975E+02 -0.10444837943E+01  0.91240539861E+02  0.16295371294E+03  0.12500000000E+03 0.  0.
         25    1    1    2    0    0 -0.72793983179E+02  0.14688596708E+02  0.14334962026E+03  0.20417843297E+03  0.12500000000E+03 0.  0.
         25    1    1    2    0    0  0.12381344515E+03 -0.13644112914E+02  0.30962816384E+03  0.35638536847E+03  0.12500000000E+03 0.  0.
</event>
<event>
 5    0  0.5576108E-005  0.3228476E+03  0.7546771E-02  0.1074346E+00
         21   -1    0    0  502  501  0.00000000000E+00  0.00000000000E+00  0.98677851973E+03  0.98677851973E+03  0.00000000000E+00 0. -1.
         21   -1    0    0  501  502 -0.00000000000E+00 -0.00000000000E+00 -0.10562714555E+03  0.10562714555E+03  0.00000000000E+00 0. -1.
         25    1    1    2    0    0  0.12847080511E+03  0.89892546969E+02  0.18090048874E+03  0.27006555610E+03  0.12500000000E+03 0.  0.
         25    1    1    2    0    0 -0.46275874098E+02 -0.12922182274E+03  0.62175122568E+03  0.64887542921E+03  0.12500000000E+03 0.  0.
         25    1    1    2    0    0 -0.82194931007E+02  0.39329275771E+02  0.78499659760E+02  0.17346467997E+03  0.12500000000E+03 0.  0.
</event>
<event>
 5    0  0.5576108E-005  0.5303761E+03  0.7546771E-02  0.1006141E+00
         21   -1    0    0  502  501  0.00000000000E+00  0.00000000000E+00  0.11512027287E+04  0.11512027287E+04  0.00000000000E+00 0.  1.
         21   -1    0    0  501  502 -0.00000000000E+00 -0.00000000000E+00 -0.24435214220E+03  0.24435214220E+03  0.00000000000E+00 0.  1.
         25    1    1    2    0    0  0.29432518131E+03 -0.43970237280E+02  0.85052857006E+03  0.90971673756E+03  0.12500000000E+03 0.  0.
         25    1    1    2    0    0 -0.20491734926E+03  0.88873517244E+00 -0.10219846985E+03  0.26088586990E+03  0.12500000000E+03 0.  0.
         25    1    1    2    0    0 -0.89407832050E+02  0.43081502107E+02  0.15852048633E+03  0.22495226348E+03  0.12500000000E+03 0.  0.
</event>
<event>
 5    0  0.5768623E-005  0.3124683E+03  0.7546771E-02  0.1079169E+00
         21   -1    0    0  502  501  0.00000000000E+00  0.00000000000E+00  0.73186637060E+03  0.73186637060E+03  0.00000000000E+00 0.  1.
         21   -1    0    0  501  502 -0.00000000000E+00 -0.00000000000E+00 -0.13340745210E+03  0.13340745210E+03  0.00000000000E+00 0.  1.
         25    1    1    2    0    0 -0.98670143367E+02  0.10766559512E+03  0.16876738662E+03  0.25580287010E+03  0.12500000000E+03 0.  0.
         25    1    1    2    0    0 -0.11780021656E+02 -0.21313001527E+01 -0.11539423686E+02  0.12610102953E+03  0.12500000000E+03 0.  0.
         25    1    1    2    0    0  0.11045016502E+03 -0.10553429497E+03  0.44123095557E+03  0.48336992306E+03  0.12500000000E+03 0.  0.
</event>
<event>
 5    0  0.5576108E-005  0.5904937E+03  0.7546771E-02  0.9925327E-01
         21   -1    0    0  502  501  0.00000000000E+00  0.00000000000E+00  0.40765910106E+03  0.40765910106E+03  0.00000000000E+00 0. -1.
         21   -1    0    0  501  502 -0.00000000000E+00 -0.00000000000E+00 -0.85532929664E+03  0.85532929664E+03  0.00000000000E+00 0. -1.
         25    1    1    2    0    0  0.16632614037E+02 -0.92312315137E+02 -0.73635531770E+02  0.17275820940E+03  0.12500000000E+03 0.  0.
         25    1    1    2    0    0 -0.35737170128E+03 -0.18776942692E+03  0.96287198143E+02  0.43343755616E+03  0.12500000000E+03 0.  0.
         25    1    1    2    0    0  0.34073908724E+03  0.28008174206E+03 -0.47032186195E+03  0.65679263215E+03  0.12500000000E+03 0.  0.
</event>
<event>
 5    0  0.5576108E-005  0.4147926E+03  0.7546771E-02  0.1038775E+00
         21   -1    0    0  502  501  0.00000000000E+00  0.00000000000E+00  0.19317185239E+03  0.19317185239E+03  0.00000000000E+00 0. -1.
         21   -1    0    0  501  502 -0.00000000000E+00 -0.00000000000E+00 -0.89067280547E+03  0.89067280547E+03  0.00000000000E+00 0. -1.
         25    1    1    2    0    0 -0.27537040729E+03 -0.68991736952E+02 -0.26734798232E+03  0.40949806426E+03  0.12500000000E+03 0.  0.
         25    1    1    2    0    0  0.28828342041E+03  0.68258620946E+02 -0.12617246097E+03  0.34541433051E+03  0.12500000000E+03 0.  0.
         25    1    1    2    0    0 -0.12913013124E+02  0.73311600645E+00 -0.30398050979E+03  0.32893226309E+03  0.12500000000E+03 0.  0.
</event>
<event>
 5    0  0.5576108E-005  0.2717370E+03  0.7546771E-02  0.1100290E+00
         21   -1    0    0  502  501  0.00000000000E+00  0.00000000000E+00  0.53876150844E+03  0.53876150844E+03  0.00000000000E+00 0. -1.
         21   -1    0    0  501  502 -0.00000000000E+00 -0.00000000000E+00 -0.13705690838E+03  0.13705690838E+03  0.00000000000E+00 0. -1.
         25    1    1    2    0    0  0.83052795789E+02  0.85768596313E+01  0.25077151957E+03  0.29237421986E+03  0.12500000000E+03 0.  0.
         25    1    1    2    0    0 -0.14004210334E+03 -0.19179807832E+02  0.14037489618E+02  0.18921338972E+03  0.12500000000E+03 0.  0.
         25    1    1    2    0    0  0.56989307547E+02  0.10602948200E+02  0.13689559087E+03  0.19423080725E+03  0.12500000000E+03 0.  0.
</event>
<event>
 5    0  0.5576108E-005  0.3386100E+03  0.7546771E-02  0.1067390E+00
         21   -1    0    0  502  501  0.00000000000E+00  0.00000000000E+00  0.25511233876E+03  0.25511233876E+03  0.00000000000E+00 0.  1.
         21   -1    0    0  501  502 -0.00000000000E+00 -0.00000000000E+00 -0.44943614876E+03  0.44943614876E+03  0.00000000000E+00 0.  1.
         25    1    1    2    0    0 -0.25504381620E+01  0.74738097281E+02 -0.26048422177E+03  0.29844483194E+03  0.12500000000E+03 0.  0.
         25    1    1    2    0    0 -0.15393024192E+02 -0.14696007163E+03  0.14388389628E+03  0.24116754229E+03  0.12500000000E+03 0.  0.
         25    1    1    2    0    0  0.17943462354E+02  0.72221974347E+02 -0.77723484522E+02  0.16493611329E+03  0.12500000000E+03 0.  0.
</event>
<event>
 5    0  0.5576108E-005  0.2787435E+03  0.7546771E-02  0.1096377E+00
         21   -1    0    0  502  501  0.00000000000E+00  0.00000000000E+00  0.47065435368E+03  0.47065435368E+03  0.00000000000E+00 0.  1.
         21   -1    0    0  501  502 -0.00000000000E+00 -0.00000000000E+00 -0.16508496624E+03  0.16508496624E+03  0.00000000000E+00 0.  1.
         25    1    1    2    0    0  0.42272259984E+02  0.45563248470E+02  0.16981853791E+03  0.21983241206E+03  0.12500000000E+03 0.  0.
         25    1    1    2    0    0  0.33618041439E+02  0.11369182731E+03  0.28732415393E+02  0.17466126073E+03  0.12500000000E+03 0.  0.
         25    1    1    2    0    0 -0.75890301423E+02 -0.15925507578E+03  0.10701843414E+03  0.24124564713E+03  0.12500000000E+03 0.  0.
</event>
<event>
 5    0  0.5576108E-005  0.2179123E+03  0.7546771E-02  0.1135449E+00
         21   -1    0    0  502  501  0.00000000000E+00  0.00000000000E+00  0.77548885035E+02  0.77548885035E+02  0.00000000000E+00 0.  1.
         21   -1    0    0  501  502 -0.00000000000E+00 -0.00000000000E+00 -0.61233331955E+03  0.61233331955E+03  0.00000000000E+00 0.  1.
         25    1    1    2    0    0  0.42681328199E+02 -0.37881984239E+02 -0.27183213207E+03  0.30458898295E+03  0.12500000000E+03 0.  0.
         25    1    1    2    0    0 -0.57316453267E+01  0.29265817258E+02 -0.20597745257E+03  0.24277778066E+03  0.12500000000E+03 0.  0.
         25    1    1    2    0    0 -0.36949682873E+02  0.86161669812E+01 -0.56974849880E+02  0.14251544098E+03  0.12500000000E+03 0.  0.
</event>
<event>
 5    0  0.5576108E-005  0.2196607E+03  0.7546771E-02  0.1134136E+00
         21   -1    0    0  502  501  0.00000000000E+00  0.00000000000E+00  0.43400836805E+02  0.43400836805E+02  0.00000000000E+00 0. -1.
         21   -1    0    0  501  502 -0.00000000000E+00 -0.00000000000E+00 -0.11117485961E+04  0.11117485961E+04  0.00000000000E+00 0. -1.
         25    1    1    2    0    0  0.61465200677E+02  0.58320322982E+02 -0.32135518346E+03  0.35506814121E+03  0.12500000000E+03 0.  0.
         25    1    1    2    0    0 -0.20393021719E+02 -0.80010080081E+02 -0.45627887199E+03  0.48024254005E+03  0.12500000000E+03 0.  0.
         25    1    1    2    0    0 -0.41072178958E+02  0.21689757099E+02 -0.29071370382E+03  0.31983875162E+03  0.12500000000E+03 0.  0.
</event>
<event>
 5    0  0.5576108E-005  0.2699040E+03  0.7546771E-02  0.1101335E+00
         21   -1    0    0  502  501  0.00000000000E+00  0.00000000000E+00  0.66924115284E+02  0.66924115284E+02  0.00000000000E+00 0.  1.
         21   -1    0    0  501  502 -0.00000000000E+00 -0.00000000000E+00 -0.10885185705E+04  0.10885185705E+04  0.00000000000E+00 0.  1.
         25    1    1    2    0    0 -0.20238273224E+02  0.92768727973E+02 -0.23233782047E+03  0.28039523429E+03  0.12500000000E+03 0.  0.
         25    1    1    2    0    0 -0.16579558442E+02 -0.50085616215E+02 -0.90799144895E+02  0.16325726760E+03  0.12500000000E+03 0.  0.
         25    1    1    2    0    0  0.36817831665E+02 -0.42683111758E+02 -0.69845748988E+03  0.71179018392E+03  0.12500000000E+03 0.  0.
</event>
<event>
 5    0  0.5576108E-005  0.2771248E+03  0.7546771E-02  0.1097270E+00
         21   -1    0    0  502  501  0.00000000000E+00  0.00000000000E+00  0.22531138821E+03  0.22531138821E+03  0.00000000000E+00 0.  1.
         21   -1    0    0  501  502 -0.00000000000E+00 -0.00000000000E+00 -0.34085334447E+03  0.34085334447E+03  0.00000000000E+00 0.  1.
         25    1    1    2    0    0 -0.41707161610E+02 -0.78777713893E+01  0.92720804186E+02  0.16131861065E+03  0.12500000000E+03 0.  0.
         25    1    1    2    0    0  0.89325561068E+02  0.38215663865E+02 -0.34586051668E+01  0.15835546967E+03  0.12500000000E+03 0.  0.
         25    1    1    2    0    0 -0.47618399458E+02 -0.30337892476E+02 -0.20480415528E+03  0.24649065237E+03  0.12500000000E+03 0.  0.
</event>
<event>
 5    0  0.5576108E-005  0.3027160E+03  0.7546771E-02  0.1083891E+00
         21   -1    0    0  502  501  0.00000000000E+00  0.00000000000E+00  0.56000031000E+03  0.56000031000E+03  0.00000000000E+00 0.  1.
         21   -1    0    0  501  502 -0.00000000000E+00 -0.00000000000E+00 -0.16363738699E+03  0.16363738699E+03  0.00000000000E+00 0.  1.
         25    1    1    2    0    0  0.14897704115E+03  0.24164322098E+02  0.11117915422E+03  0.22530840550E+03  0.12500000000E+03 0.  0.
         25    1    1    2    0    0  0.11034687864E+02  0.90159967640E+02  0.39021865669E+02  0.15936840999E+03  0.12500000000E+03 0.  0.
         25    1    1    2    0    0 -0.16001172902E+03 -0.11432428974E+03  0.24616190312E+03  0.33896088151E+03  0.12500000000E+03 0.  0.
</event>
<event>
 5    0  0.5576108E-005  0.2274172E+03  0.7546771E-02  0.1128471E+00
         21   -1    0    0  502  501  0.00000000000E+00  0.00000000000E+00  0.45043839912E+03  0.45043839912E+03  0.00000000000E+00 0. -1.
         21   -1    0    0  501  502 -0.00000000000E+00 -0.00000000000E+00 -0.11481835970E+03  0.11481835970E+03  0.00000000000E+00 0. -1.
         25    1    1    2    0    0 -0.50793807102E+02  0.70944541285E+02  0.76008515330E+02  0.17033917101E+03  0.12500000000E+03 0.  0.
         25    1    1    2    0    0  0.41606190635E+02 -0.78753787357E+02  0.72941381601E+02  0.16993728041E+03  0.12500000000E+03 0.  0.
         25    1    1    2    0    0  0.91876164669E+01  0.78092460714E+01  0.18667014249E+03  0.22498030740E+03  0.12500000000E+03 0.  0.
</event>
<event>
 5    0  0.5576108E-005  0.3257655E+03  0.7546771E-02  0.1073026E+00
         21   -1    0    0  502  501  0.00000000000E+00  0.00000000000E+00  0.12668454003E+03  0.12668454003E+03  0.00000000000E+00 0. -1.
         21   -1    0    0  501  502 -0.00000000000E+00 -0.00000000000E+00 -0.83769620186E+03  0.83769620186E+03  0.00000000000E+00 0. -1.
         25    1    1    2    0    0  0.14973866113E+03  0.19251377958E+03 -0.21890617120E+03  0.35075366535E+03  0.12500000000E+03 0.  0.
         25    1    1    2    0    0 -0.12551695595E+03 -0.90488968310E+02 -0.22211198567E+03  0.29816353532E+03  0.12500000000E+03 0.  0.
         25    1    1    2    0    0 -0.24221705179E+02 -0.10202481127E+03 -0.26999350497E+03  0.31546354123E+03  0.12500000000E+03 0.  0.
</event>
<event>
 5    0  0.5576108E-005  0.3174182E+03  0.7546771E-02  0.1076844E+00
         21   -1    0    0  502  501  0.00000000000E+00  0.00000000000E+00  0.41444392430E+03  0.41444392430E+03  0.00000000000E+00 0.  1.
         21   -1    0    0  501  502 -0.00000000000E+00 -0.00000000000E+00 -0.24310715291E+03  0.24310715291E+03  0.00000000000E+00 0.  1.
         25    1    1    2    0    0 -0.15166055804E+00 -0.32813852591E+02  0.28703740222E+03  0.31478920279E+03  0.12500000000E+03 0.  0.
         25    1    1    2    0    0  0.66597472978E+02 -0.21797100668E+02 -0.12581272503E+03  0.19069394008E+03  0.12500000000E+03 0.  0.
         25    1    1    2    0    0 -0.66445812420E+02  0.54610953259E+02  0.10112094197E+02  0.15206793434E+03  0.12500000000E+03 0.  0.
</event>
<event>
 5    0  0.5576108E-005  0.2410865E+03  0.7546771E-02  0.1119071E+00
         21   -1    0    0  502  501  0.00000000000E+00  0.00000000000E+00  0.95107056179E+02  0.95107056179E+02  0.00000000000E+00 0. -1.
         21   -1    0    0  501  502 -0.00000000000E+00 -0.00000000000E+00 -0.61112923665E+03  0.61112923665E+03  0.00000000000E+00 0. -1.
         25    1    1    2    0    0 -0.81332292864E+02 -0.13136480405E+02 -0.15554180546E+03  0.21588367754E+03  0.12500000000E+03 0.  0.
         25    1    1    2    0    0 -0.61886286631E+02  0.22827994411E+02 -0.13760855100E+03  0.19726161084E+03  0.12500000000E+03 0.  0.
         25    1    1    2    0    0  0.14321857949E+03 -0.96915140059E+01 -0.22287182401E+03  0.29309100445E+03  0.12500000000E+03 0.  0.
</event>
<event>
 5    0  0.5576108E-005  0.4321552E+03  0.7546771E-02  0.1033181E+00
         21   -1    0    0  502  501  0.00000000000E+00  0.00000000000E+00  0.20590461063E+03  0.20590461063E+03  0.00000000000E+00 0. -1.
         21   -1    0    0  501  502 -0.00000000000E+00 -0.00000000000E+00 -0.90701288637E+03  0.90701288637E+03  0.00000000000E+00 0. -1.
         25    1    1    2    0    0  0.14841910263E+03 -0.17859440498E+02  0.11350960764E+03  0.22551412521E+03  0.12500000000E+03 0.  0.
         25    1    1    2    0    0 -0.14926856724E+02 -0.75325796421E+02 -0.34340752055E+03  0.37343073230E+03  0.12500000000E+03 0.  0.
         25    1    1    2    0    0 -0.13349224591E+03  0.93185236919E+02 -0.47121036284E+03  0.51397263949E+03  0.12500000000E+03 0.  0.
</event>
<event>
 5    0  0.5576108E-005  0.2737967E+03  0.7546771E-02  0.1099126E+00
         21   -1    0    0  502  501  0.00000000000E+00  0.00000000000E+00  0.34178548566E+03  0.34178548566E+03  0.00000000000E+00 0.  1.
         21   -1    0    0  501  502 -0.00000000000E+00 -0.00000000000E+00 -0.21933241828E+03  0.21933241828E+03  0.00000000000E+00 0.  1.
         25    1    1    2    0    0 -0.11727680078E+02  0.57229993723E+02 -0.12092145710E+03  0.18346609891E+03  0.12500000000E+03 0.  0.
         25    1    1    2    0    0 -0.26906007371E+02  0.10739114948E+02  0.16993708266E+03  0.21293866226E+03  0.12500000000E+03 0.  0.
         25    1    1    2    0    0  0.38633687448E+02 -0.67969108671E+02  0.73437441813E+02  0.16471314276E+03  0.12500000000E+03 0.  0.
</event>
<event>
 5    0  0.5576108E-005  0.2191426E+03  0.7546771E-02  0.1134524E+00
         21   -1    0    0  502  501  0.00000000000E+00  0.00000000000E+00  0.80887331449E+02  0.80887331449E+02  0.00000000000E+00 0.  1.
         21   -1    0    0  501  502 -0.00000000000E+00 -0.00000000000E+00 -0.59370829271E+03  0.59370829271E+03  0.00000000000E+00 0.  1.
         25    1    1    2    0    0  0.26822810064E+02  0.71500355215E+01 -0.15979006994E+03  0.20476438313E+03  0.12500000000E+03 0.  0.
         25    1    1    2    0    0 -0.66997184569E+02  0.18081157069E+02 -0.28716708627E+03  0.32078885020E+03  0.12500000000E+03 0.  0.
         25    1    1    2    0    0  0.40174374504E+02 -0.25231192590E+02 -0.65863805056E+02  0.14904239082E+03  0.12500000000E+03 0.  0.
</event>
<event>
 5    0  0.5718979E-005  0.2901136E+03  0.7546771E-02  0.1090290E+00
         21   -1    0    0  502  501  0.00000000000E+00  0.00000000000E+00  0.29166783018E+03  0.29166783018E+03  0.00000000000E+00 0. -1.
         21   -1    0    0  501  502 -0.00000000000E+00 -0.00000000000E+00 -0.28856759506E+03  0.28856759506E+03  0.00000000000E+00 0. -1.
         25    1    1    2    0    0 -0.21790726945E+02  0.59393167126E+02  0.14888193604E+02  0.14088662957E+03  0.12500000000E+03 0.  0.
         25    1    1    2    0    0 -0.79635627904E+02  0.96914549194E+02  0.83247239221E+02  0.19567668720E+03  0.12500000000E+03 0.  0.
         25    1    1    2    0    0  0.10142635485E+03 -0.15630771632E+03 -0.95035197708E+02  0.24367210846E+03  0.12500000000E+03 0.  0.
</event>
<event>
 5    0  0.5576108E-005  0.2894942E+03  0.7546771E-02  0.1090614E+00
         21   -1    0    0  502  501  0.00000000000E+00  0.00000000000E+00  0.19103355608E+03  0.19103355608E+03  0.00000000000E+00 0.  1.
         21   -1    0    0  501  502 -0.00000000000E+00 -0.00000000000E+00 -0.43870258054E+03  0.43870258054E+03  0.00000000000E+00 0.  1.
         25    1    1    2    0    0  0.92381187251E+02  0.15086533998E+03 -0.24099136119E+02  0.21794587155E+03  0.12500000000E+03 0.  0.
         25    1    1    2    0    0 -0.32635587406E+01 -0.36410309805E+01 -0.41482275892E+02  0.13179410888E+03  0.12500000000E+03 0.  0.
         25    1    1    2    0    0 -0.89117628511E+02 -0.14722430900E+03 -0.18208761245E+03  0.27999615619E+03  0.12500000000E+03 0.  0.
</event>
<event>
 5    0  0.5576108E-005  0.3276613E+03  0.7546771E-02  0.1072176E+00
         21   -1    0    0  502  501  0.00000000000E+00  0.00000000000E+00  0.12320507252E+03  0.12320507252E+03  0.00000000000E+00 0.  1.
         21   -1    0    0  501  502 -0.00000000000E+00 -0.00000000000E+00 -0.87140847753E+03  0.87140847753E+03  0.00000000000E+00 0.  1.
         25    1    1    2    0    0  0.35779814982E+02 -0.14863506496E+03 -0.63684642313E+02  0.20749291883E+03  0.12500000000E+03 0.  0.
         25    1    1    2    0    0  0.10965249935E+03  0.60548408266E+02 -0.33380758793E+03  0.37781250127E+03  0.12500000000E+03 0.  0.
         25    1    1    2    0    0 -0.14543231433E+03  0.88086656696E+02 -0.35071117478E+03  0.40930812996E+03  0.12500000000E+03 0.  0.
</event>
<event>
 5    0  0.5619858E-005  0.2645372E+03  0.7546771E-02  0.1104447E+00
         21   -1    0    0  502  501  0.00000000000E+00  0.00000000000E+00  0.52097680734E+03  0.52097680734E+03  0.00000000000E+00 0.  1.
         21   -1    0    0  501  502 -0.00000000000E+00 -0.00000000000E+00 -0.13432443605E+03  0.13432443605E+03  0.00000000000E+00 0.  1.
         25    1    1    2    0    0 -0.24330570104E+02  0.14451666224E+03  0.18300016842E+03  0.26568986422E+03  0.12500000000E+03 0.  0.
         25    1    1    2    0    0  0.64901088867E+02 -0.63242504903E+02  0.17337237593E+03  0.23215242083E+03  0.12500000000E+03 0.  0.
         25    1    1    2    0    0 -0.40570518763E+02 -0.81274157339E+02  0.30279826937E+02  0.15745895835E+03  0.12500000000E+03 0.  0.
</event>
<event>
 5    0  0.5576108E-005  0.4266037E+03  0.7546771E-02  0.1034938E+00
         21   -1    0    0  502  501  0.00000000000E+00  0.00000000000E+00  0.18649510438E+04  0.18649510438E+04  0.00000000000E+00 0.  1.
         21   -1    0    0  501  502 -0.00000000000E+00 -0.00000000000E+00 -0.97584703067E+02  0.97584703067E+02  0.00000000000E+00 0.  1.
         25    1    1    2    0    0 -0.26862019951E+03  0.16296556643E+03  0.62153832713E+03  0.70756588352E+03  0.12500000000E+03 0.  0.
         25    1    1    2    0    0  0.69591576938E+02  0.39713932645E+01  0.11209875350E+03  0.18179628732E+03  0.12500000000E+03 0.  0.
         25    1    1    2    0    0  0.19902862257E+03 -0.16693695969E+03  0.10337292601E+04  0.10731735760E+04  0.12500000000E+03 0.  0.
</event>
<event>
 5    0  0.5576108E-005  0.5439562E+03  0.7546771E-02  0.1002903E+00
         21   -1    0    0  502  501  0.00000000000E+00  0.00000000000E+00  0.12310815996E+04  0.12310815996E+04  0.00000000000E+00 0.  1.
         21   -1    0    0  501  502 -0.00000000000E+00 -0.00000000000E+00 -0.24034829288E+03  0.24034829288E+03  0.00000000000E+00 0.  1.
         25    1    1    2    0    0 -0.11956188293E+03 -0.83656598704E+02  0.19612712501E+03  0.27456205040E+03  0.12500000000E+03 0.  0.
         25    1    1    2    0    0  0.48305341519E+03  0.83877645005E+02  0.39038230116E+03  0.63906134472E+03  0.12500000000E+03 0.  0.
         25    1    1    2    0    0 -0.36349153226E+03 -0.22104630092E+00  0.40422388055E+03  0.55780649736E+03  0.12500000000E+03 0.  0.
</event>
<event>
 5    0  0.5576108E-005  0.3396184E+03  0.7546771E-02  0.1066959E+00
         21   -1    0    0  502  501  0.00000000000E+00  0.00000000000E+00  0.28531788807E+03  0.28531788807E+03  0.00000000000E+00 0.  1.
         21   -1    0    0  501  502 -0.00000000000E+00 -0.00000000000E+00 -0.40425321484E+03  0.40425321484E+03  0.00000000000E+00 0.  1.
         25    1    1    2    0    0 -0.80413725668E+02 -0.74722530798E+02 -0.29964755091E+02  0.16903464270E+03  0.12500000000E+03 0.  0.
         25    1    1    2    0    0 -0.70221516258E+02  0.12482009586E+03  0.12400439359E+03  0.22696521167E+03  0.12500000000E+03 0.  0.
         25    1    1    2    0    0  0.15063524193E+03 -0.50097565065E+02 -0.21297496528E+03  0.29357124854E+03  0.12500000000E+03 0.  0.
</event>
<event>
 5    0  0.5576108E-005  0.2832530E+03  0.7546771E-02  0.1093925E+00
         21   -1    0    0  502  501  0.00000000000E+00  0.00000000000E+00  0.26241785763E+03  0.26241785763E+03  0.00000000000E+00 0.  1.
         21   -1    0    0  501  502 -0.00000000000E+00 -0.00000000000E+00 -0.30574235935E+03  0.30574235935E+03  0.00000000000E+00 0.  1.
         25    1    1    2    0    0  0.68180299444E+01 -0.13918037315E+03  0.23554102668E+02  0.18867288506E+03  0.12500000000E+03 0.  0.
         25    1    1    2    0    0 -0.87601334355E+02  0.16050558142E+01  0.28832808591E+02  0.15534767728E+03  0.12500000000E+03 0.  0.
         25    1    1    2    0    0  0.80783304411E+02  0.13757531734E+03 -0.95711412974E+02  0.22413965465E+03  0.12500000000E+03 0.  0.
</event>
<event>
 5    0  0.5662961E-005  0.2710454E+03  0.7546771E-02  0.1100683E+00
         21   -1    0    0  502  501  0.00000000000E+00  0.00000000000E+00  0.12436494664E+03  0.12436494664E+03  0.00000000000E+00 0.  1.
         21   -1    0    0  501  502 -0.00000000000E+00 -0.00000000000E+00 -0.59072609899E+03  0.59072609899E+03  0.00000000000E+00 0.  1.
         25    1    1    2    0    0 -0.44123667706E+02  0.12034150645E+03 -0.17501101394E+03  0.25036539543E+03  0.12500000000E+03 0.  0.
         25    1    1    2    0    0  0.10965273914E+03 -0.12492264470E+03 -0.23193530564E+03  0.31152588394E+03  0.12500000000E+03 0.  0.
         25    1    1    2    0    0 -0.65529071433E+02  0.45811382531E+01 -0.59414832777E+02  0.15319976627E+03  0.12500000000E+03 0.  0.
</event>
<event>
 5    0  0.5576108E-005  0.3825175E+03  0.7546771E-02  0.1050007E+00
         21   -1    0    0  502  501  0.00000000000E+00  0.00000000000E+00  0.52443349590E+03  0.52443349590E+03  0.00000000000E+00 0. -1.
         21   -1    0    0  501  502 -0.00000000000E+00 -0.00000000000E+00 -0.27900514769E+03  0.27900514769E+03  0.00000000000E+00 0.  1.
         25    1    1    2    0    0 -0.12573709375E+02 -0.19804346412E+03 -0.12288604499E+02  0.23485170140E+03  0.12500000000E+03 0.  0.
         25    1    1    2    0    0 -0.84703602319E+02 -0.38713837777E+02  0.23609651432E+03  0.28291345948E+03  0.12500000000E+03 0.  0.
         25    1    1    2    0    0  0.97277311695E+02  0.23675730190E+03  0.21620438382E+02  0.28567348272E+03  0.12500000000E+03 0.  0.
</event>
<event>
 5    0  0.5576108E-005  0.3283791E+03  0.7546771E-02  0.1071856E+00
         21   -1    0    0  502  501  0.00000000000E+00  0.00000000000E+00  0.43491311192E+03  0.43491311192E+03  0.00000000000E+00 0.  1.
         21   -1    0    0  501  502 -0.00000000000E+00 -0.00000000000E+00 -0.24794108048E+03  0.24794108048E+03  0.00000000000E+00 0.  1.
         25    1    1    2    0    0 -0.50026737580E+02 -0.31957928623E+02 -0.13445144955E+03  0.19294086131E+03  0.12500000000E+03 0.  0.
         25    1    1    2    0    0 -0.85228684839E+02  0.13974053272E+02  0.24798199291E+03  0.29082515656E+03  0.12500000000E+03 0.  0.
         25    1    1    2    0    0  0.13525542242E+03  0.17983875350E+02  0.73441488083E+02  0.19908817453E+03  0.12500000000E+03 0.  0.
</event>
<event>
 5    0  0.5576108E-005  0.5739110E+03  0.7546771E-02  0.9961061E-01
         21   -1    0    0  502  501  0.00000000000E+00  0.00000000000E+00  0.27398313400E+03  0.27398313400E+03  0.00000000000E+00 0.  1.
         21   -1    0    0  501  502 -0.00000000000E+00 -0.00000000000E+00 -0.12021684566E+04  0.12021684566E+04  0.00000000000E+00 0.  1.
         25    1    1    2    0    0 -0.68818882957E+02 -0.93454151538E+01  0.61214392748E+02  0.15554927616E+03  0.12500000000E+03 0.  0.
         25    1    1    2    0    0  0.81671579035E+02 -0.29169610917E+03 -0.93387057365E+03  0.98969496072E+03  0.12500000000E+03 0.  0.
         25    1    1    2    0    0 -0.12852696078E+02  0.30104152433E+03 -0.55529141686E+02  0.33090735372E+03  0.12500000000E+03 0.  0.
</event>
<event>
 5    0  0.5576108E-005  0.3137006E+03  0.7546771E-02  0.1078586E+00
         21   -1    0    0  502  501  0.00000000000E+00  0.00000000000E+00  0.52121849219E+02  0.52121849219E+02  0.00000000000E+00 0. -1.
         21   -1    0    0  501  502 -0.00000000000E+00 -0.00000000000E+00 -0.18880391603E+04  0.18880391603E+04  0.00000000000E+00 0. -1.
         25    1    1    2    0    0 -0.20459631035E+02  0.93209348022E+02 -0.53075850627E+03  0.55356677198E+03  0.12500000000E+03 0.  0.
         25    1    1    2    0    0  0.17558938719E+03 -0.11835329871E+03 -0.50585767778E+03  0.56245544391E+03  0.12500000000E+03 0.  0.
         25    1    1    2    0    0 -0.15512975616E+03  0.25143950685E+02 -0.79930112703E+03  0.82413879364E+03  0.12500000000E+03 0.  0.
</event>
<event>
 5    0  0.5576108E-005  0.3123356E+03  0.7546771E-02  0.1079232E+00
         21   -1    0    0  502  501  0.00000000000E+00  0.00000000000E+00  0.55716159817E+03  0.55716159817E+03  0.00000000000E+00 0.  1.
         21   -1    0    0  501  502 -0.00000000000E+00 -0.00000000000E+00 -0.17509021273E+03  0.17509021273E+03  0.00000000000E+00 0.  1.
         25    1    1    2    0    0 -0.32353720634E+02  0.82105215873E+02  0.16725591470E+03  0.22668826771E+03  0.12500000000E+03 0.  0.
         25    1    1    2    0    0 -0.74304961694E+02 -0.14765841027E+03  0.25047181226E+03  0.32509285165E+03  0.12500000000E+03 0.  0.
         25    1    1    2    0    0  0.10665868233E+03  0.65553194402E+02 -0.35656341524E+02  0.18047069153E+03  0.12500000000E+03 0.  0.
</event>
<event>
 5    0  0.5576108E-005  0.2704988E+03  0.7546771E-02  0.1100994E+00
         21   -1    0    0  502  501  0.00000000000E+00  0.00000000000E+00  0.94680490739E+03  0.94680490739E+03  0.00000000000E+00 0. -1.
         21   -1    0    0  501  502 -0.00000000000E+00 -0.00000000000E+00 -0.77280519662E+02  0.77280519662E+02  0.00000000000E+00 0. -1.
         25    1    1    2    0    0  0.93668329265E+02 -0.11018018697E+03  0.36711168698E+03  0.41389542185E+03  0.12500000000E+03 0.  0.
         25    1    1    2    0    0 -0.29993005620E+02 -0.45140576838E+02  0.21791091546E+03  0.25699692438E+03  0.12500000000E+03 0.  0.
         25    1    1    2    0    0 -0.63675323645E+02  0.15532076381E+03  0.28450178530E+03  0.35319308083E+03  0.12500000000E+03 0.  0.
</event>
<event>
 5    0  0.5737531E-005  0.3253025E+03  0.7546771E-02  0.1073234E+00
         21   -1    0    0  502  501  0.00000000000E+00  0.00000000000E+00  0.33283301225E+03  0.33283301225E+03  0.00000000000E+00 0.  1.
         21   -1    0    0  501  502 -0.00000000000E+00 -0.00000000000E+00 -0.31794244845E+03  0.31794244845E+03  0.00000000000E+00 0.  1.
         25    1    1    2    0    0 -0.36252446698E+02 -0.19346261970E+03 -0.52133345877E+01  0.23322565033E+03  0.12500000000E+03 0.  0.
         25    1    1    2    0    0 -0.51501283690E+02  0.18133622051E+03 -0.73718478734E+02  0.23789624040E+03  0.12500000000E+03 0.  0.
         25    1    1    2    0    0  0.87753730388E+02  0.12126399189E+02  0.93822377125E+02  0.17965356997E+03  0.12500000000E+03 0.  0.
</event>
<event>
 5    0  0.5576108E-005  0.2793676E+03  0.7546771E-02  0.1096035E+00
         21   -1    0    0  502  501  0.00000000000E+00  0.00000000000E+00  0.17949441945E+04  0.17949441945E+04  0.00000000000E+00 0. -1.
         21   -1    0    0  501  502 -0.00000000000E+00 -0.00000000000E+00 -0.43481164697E+02  0.43481164697E+02  0.00000000000E+00 0. -1.
         25    1    1    2    0    0  0.13939604942E+03 -0.14198847529E+03  0.65450753684E+03  0.69541146201E+03  0.12500000000E+03 0.  0.
         25    1    1    2    0    0 -0.86587236036E+02  0.68408921565E+02  0.55550443992E+03  0.57998906263E+03  0.12500000000E+03 0.  0.
         25    1    1    2    0    0 -0.52808813389E+02  0.73579553725E+02  0.54145105308E+03  0.56302483460E+03  0.12500000000E+03 0.  0.
</event>
<event>
 5    0  0.5576108E-005  0.3305380E+03  0.7546771E-02  0.1070899E+00
         21   -1    0    0  502  501  0.00000000000E+00  0.00000000000E+00  0.28078862676E+03  0.28078862676E+03  0.00000000000E+00 0. -1.
         21   -1    0    0  501  502 -0.00000000000E+00 -0.00000000000E+00 -0.38910193553E+03  0.38910193553E+03  0.00000000000E+00 0. -1.
         25    1    1    2    0    0  0.11147334511E+03 -0.71841543866E+02 -0.15346989964E+02  0.18288806466E+03  0.12500000000E+03 0.  0.
         25    1    1    2    0    0  0.13649827110E+03 -0.55089473800E+01 -0.69501975087E+02  0.19778182691E+03  0.12500000000E+03 0.  0.
         25    1    1    2    0    0 -0.24797161621E+03  0.77350491246E+02 -0.23464343718E+02  0.28922067071E+03  0.12500000000E+03 0.  0.
</event>
<event>
 5    0  0.6475372E-005  0.2978287E+03  0.7546771E-02  0.1086331E+00
         21   -1    0    0  502  501  0.00000000000E+00  0.00000000000E+00  0.52031320371E+03  0.52031320371E+03  0.00000000000E+00 0. -1.
         21   -1    0    0  501  502 -0.00000000000E+00 -0.00000000000E+00 -0.17047799923E+03  0.17047799923E+03  0.00000000000E+00 0. -1.
         25    1    1    2    0    0 -0.98401158976E+02  0.76563949839E+02  0.17330786534E+03  0.24739733768E+03  0.12500000000E+03 0.  0.
         25    1    1    2    0    0  0.33575581207E+02 -0.76810181161E+02 -0.64900950779E+02  0.16390319398E+03  0.12500000000E+03 0.  0.
         25    1    1    2    0    0  0.64825577769E+02  0.24623132190E+00  0.24142828992E+03  0.27949067128E+03  0.12500000000E+03 0.  0.
</event>
<event>
 5    0  0.5576108E-005  0.4578327E+03  0.7546771E-02  0.1025412E+00
         21   -1    0    0  502  501  0.00000000000E+00  0.00000000000E+00  0.24481777357E+03  0.24481777357E+03  0.00000000000E+00 0.  1.
         21   -1    0    0  501  502 -0.00000000000E+00 -0.00000000000E+00 -0.85619088876E+03  0.85619088876E+03  0.00000000000E+00 0.  1.
         25    1    1    2    0    0 -0.67247512732E+02 -0.18556141536E+03 -0.62468224965E+03  0.66693941244E+03  0.12500000000E+03 0.  0.
         25    1    1    2    0    0  0.99091036414E+02  0.91112900508E+02 -0.12539138869E+03  0.22241536479E+03  0.12500000000E+03 0.  0.
         25    1    1    2    0    0 -0.31843523683E+02  0.94448514850E+02  0.13870052314E+03  0.21165388510E+03  0.12500000000E+03 0.  0.
</event>
<event>
 5    0  0.5576108E-005  0.3020905E+03  0.7546771E-02  0.1084200E+00
         21   -1    0    0  502  501  0.00000000000E+00  0.00000000000E+00  0.63874283008E+03  0.63874283008E+03  0.00000000000E+00 0. -1.
         21   -1    0    0  501  502 -0.00000000000E+00 -0.00000000000E+00 -0.14287229035E+03  0.14287229035E+03  0.00000000000E+00 0. -1.
         25    1    1    2    0    0 -0.50807730271E+02 -0.25385241742E+02  0.28087211449E+03  0.31263394034E+03  0.12500000000E+03 0.  0.
         25    1    1    2    0    0 -0.86938226969E+02  0.12672466213E+03  0.61619658032E+02  0.20745933953E+03  0.12500000000E+03 0.  0.
         25    1    1    2    0    0  0.13774595724E+03 -0.10133942039E+03  0.15337876721E+03  0.26152184057E+03  0.12500000000E+03 0.  0.
</event>
<event>
 5    0  0.5576108E-005  0.4316462E+03  0.7546771E-02  0.1033341E+00
         21   -1    0    0  502  501  0.00000000000E+00  0.00000000000E+00  0.16600014919E+03  0.16600014919E+03  0.00000000000E+00 0.  1.
         21   -1    0    0  501  502 -0.00000000000E+00 -0.00000000000E+00 -0.11223992399E+04  0.11223992399E+04  0.00000000000E+00 0.  1.
         25    1    1    2    0    0 -0.81997550274E+01 -0.12313598420E+03  0.38924261546E+02  0.17991610468E+03  0.12500000000E+03 0.  0.
         25    1    1    2    0    0  0.16510726194E+03  0.17298689335E+03 -0.67852083867E+03  0.73020572561E+03  0.12500000000E+03 0.  0.
         25    1    1    2    0    0 -0.15690750692E+03 -0.49850909150E+02 -0.31680251360E+03  0.37827755881E+03  0.12500000000E+03 0.  0.
</event>
<event>
 5    0  0.5576108E-005  0.3307761E+03  0.7546771E-02  0.1070794E+00
         21   -1    0    0  502  501  0.00000000000E+00  0.00000000000E+00  0.39307221012E+03  0.39307221012E+03  0.00000000000E+00 0.  1.
         21   -1    0    0  501  502 -0.00000000000E+00 -0.00000000000E+00 -0.27835302932E+03  0.27835302932E+03  0.00000000000E+00 0.  1.
         25    1    1    2    0    0  0.17781907718E+03 -0.11949748860E+02 -0.15822187917E+01  0.21769226932E+03  0.12500000000E+03 0.  0.
         25    1    1    2    0    0 -0.20496705433E+03  0.10769279038E+03  0.12948822048E+02  0.26344240823E+03  0.12500000000E+03 0.  0.
         25    1    1    2    0    0  0.27147977149E+02 -0.95743041516E+02  0.10335257754E+03  0.19029056189E+03  0.12500000000E+03 0.  0.
</event>
<event>
 5    0  0.5576108E-005  0.2943208E+03  0.7546771E-02  0.1088115E+00
         21   -1    0    0  502  501  0.00000000000E+00  0.00000000000E+00  0.67024664433E+03  0.67024664433E+03  0.00000000000E+00 0.  1.
         21   -1    0    0  501  502 -0.00000000000E+00 -0.00000000000E+00 -0.12924306117E+03  0.12924306117E+03  0.00000000000E+00 0.  1.
         25    1    1    2    0    0  0.75504170344E+02  0.87760025540E+02  0.20871898256E+03  0.26942775563E+03  0.12500000000E+03 0.  0.
         25    1    1    2    0    0 -0.44911512392E+02 -0.12621704495E+03  0.34953263488E+03  0.39464648640E+03  0.12500000000E+03 0.  0.
         25    1    1    2    0    0 -0.30592657952E+02  0.38457019405E+02 -0.17248034282E+02  0.13541546348E+03  0.12500000000E+03 0.  0.
</event>
<event>
 5    0  0.5576108E-005  0.4332606E+03  0.7546771E-02  0.1032835E+00
         21   -1    0    0  502  501  0.00000000000E+00  0.00000000000E+00  0.10067547874E+04  0.10067547874E+04  0.00000000000E+00 0. -1.
         21   -1    0    0  501  502 -0.00000000000E+00 -0.00000000000E+00 -0.18645525848E+03  0.18645525848E+03  0.00000000000E+00 0. -1.
         25    1    1    2    0    0  0.32048465089E+02  0.84256294573E+02  0.68269775357E+01  0.15426546896E+03  0.12500000000E+03 0.  0.
         25    1    1    2    0    0  0.48052501899E+02 -0.29624323576E+02  0.86249127378E+03  0.87332859843E+03  0.12500000000E+03 0.  0.
         25    1    1    2    0    0 -0.80100966988E+02 -0.54631970997E+02 -0.49018722451E+02  0.16561597845E+03  0.12500000000E+03 0.  0.
</event>
<event>
 5    0  0.5576108E-005  0.3761353E+03  0.7546771E-02  0.1052371E+00
         21   -1    0    0  502  501  0.00000000000E+00  0.00000000000E+00  0.90377191898E+03  0.90377191898E+03  0.00000000000E+00 0.  1.
         21   -1    0    0  501  502 -0.00000000000E+00 -0.00000000000E+00 -0.15654145010E+03  0.15654145010E+03  0.00000000000E+00 0.  1.
         25    1    1    2    0    0 -0.17196555333E+03 -0.96738338680E+02  0.16487815745E+03  0.28590254372E+03  0.12500000000E+03 0.  0.
         25    1    1    2    0    0 -0.12416018468E+03  0.42416500822E+02  0.16719693335E+03  0.24656586448E+03  0.12500000000E+03 0.  0.
         25    1    1    2    0    0  0.29612573801E+03  0.54321837858E+02  0.41515537808E+03  0.52784496088E+03  0.12500000000E+03 0.  0.
</event>
<event>
 5    0  0.5576108E-005  0.2676186E+03  0.7546771E-02  0.1102650E+00
         21   -1    0    0  502  501  0.00000000000E+00  0.00000000000E+00  0.81381133423E+02  0.81381133423E+02  0.00000000000E+00 0. -1.
         21   -1    0    0  501  502 -0.00000000000E+00 -0.00000000000E+00 -0.88005273567E+03  0.88005273567E+03  0.00000000000E+00 0. -1.
         25    1    1    2    0    0  0.56118490864E+02 -0.76119365855E+02 -0.35669327798E+03  0.38961331783E+03  0.12500000000E+03 0.  0.
         25    1    1    2    0    0  0.45646286682E+01  0.14595730747E+03 -0.16127235647E+03  0.25091461576E+03  0.12500000000E+03 0.  0.
         25    1    1    2    0    0 -0.60683119532E+02 -0.69837941616E+02 -0.28070596780E+03  0.32090593550E+03  0.12500000000E+03 0.  0.
</event>
<event>
 5    0  0.5576108E-005  0.3282648E+03  0.7546771E-02  0.1071907E+00
         21   -1    0    0  502  501  0.00000000000E+00  0.00000000000E+00  0.59906871407E+03  0.59906871407E+03  0.00000000000E+00 0.  1.
         21   -1    0    0  501  502 -0.00000000000E+00 -0.00000000000E+00 -0.17987545111E+03  0.17987545111E+03  0.00000000000E+00 0.  1.
         25    1    1    2    0    0 -0.31951885046E+02 -0.33772989833E+02  0.22901790805E+03  0.26502026339E+03  0.12500000000E+03 0.  0.
         25    1    1    2    0    0  0.58733359793E+02 -0.59230068654E+02 -0.10206873371E+03  0.18166131946E+03  0.12500000000E+03 0.  0.
         25    1    1    2    0    0 -0.26781474747E+02  0.93003058486E+02  0.29224408862E+03  0.33226258233E+03  0.12500000000E+03 0.  0.
</event>
<event>
 5    0  0.6085452E-005  0.2825101E+03  0.7546771E-02  0.1094326E+00
         21   -1    0    0  502  501  0.00000000000E+00  0.00000000000E+00  0.34636739144E+03  0.34636739144E+03  0.00000000000E+00 0. -1.
         21   -1    0    0  501  502 -0.00000000000E+00 -0.00000000000E+00 -0.23042573578E+03  0.23042573578E+03  0.00000000000E+00 0. -1.
         25    1    1    2    0    0 -0.53608091912E+02 -0.90394226376E+02  0.11746837878E+03  0.20116849578E+03  0.12500000000E+03 0.  0.
         25    1    1    2    0    0  0.75286619840E+02 -0.92813305434E+01  0.10699622964E+03  0.18118336397E+03  0.12500000000E+03 0.  0.
         25    1    1    2    0    0 -0.21678527928E+02  0.99675556919E+02 -0.10852295275E+03  0.19444126747E+03  0.12500000000E+03 0.  0.
</event>
<event>
 5    0  0.5576108E-005  0.4155734E+03  0.7546771E-02  0.1038517E+00
         21   -1    0    0  502  501  0.00000000000E+00  0.00000000000E+00  0.45992901743E+03  0.45992901743E+03  0.00000000000E+00 0. -1.
         21   -1    0    0  501  502 -0.00000000000E+00 -0.00000000000E+00 -0.37549551869E+03  0.37549551869E+03  0.00000000000E+00 0. -1.
         25    1    1    2    0    0 -0.46156764413E+02  0.78066363960E+02  0.19290660603E+03  0.24710880748E+03  0.12500000000E+03 0.  0.
         25    1    1    2    0    0 -0.76310838207E+02  0.10198857912E+03  0.14618387301E+03  0.23069403769E+03  0.12500000000E+03 0.  0.
         25    1    1    2    0    0  0.12246760262E+03 -0.18005494308E+03 -0.25465698030E+03  0.35762169095E+03  0.12500000000E+03 0.  0.
</event>
<event>
 5    0  0.5576108E-005  0.2406247E+03  0.7546771E-02  0.1119377E+00
         21   -1    0    0  502  501  0.00000000000E+00  0.00000000000E+00  0.30352595052E+04  0.30352595052E+04  0.00000000000E+00 0.  1.
         21   -1    0    0  501  502 -0.00000000000E+00 -0.00000000000E+00 -0.19075882762E+02  0.19075882762E+02  0.00000000000E+00 0.  1.
         25    1    1    2    0    0  0.57476350988E+02 -0.65552909599E+02  0.55634114358E+03  0.57683722394E+03  0.12500000000E+03 0.  0.
         25    1    1    2    0    0 -0.38063595182E+02 -0.19130312867E+02  0.14826629287E+04  0.14885325546E+04  0.12500000000E+03 0.  0.
         25    1    1    2    0    0 -0.19412755806E+02  0.84683222465E+02  0.97717955018E+03  0.98896560938E+03  0.12500000000E+03 0.  0.
</event>
<event>
 5    0  0.5576108E-005  0.3890766E+03  0.7546771E-02  0.1047629E+00
         21   -1    0    0  502  501  0.00000000000E+00  0.00000000000E+00  0.13768755114E+03  0.13768755114E+03  0.00000000000E+00 0. -1.
         21   -1    0    0  501  502 -0.00000000000E+00 -0.00000000000E+00 -0.10994500080E+04  0.10994500080E+04  0.00000000000E+00 0. -1.
         25    1    1    2    0    0 -0.14654816319E+03  0.15320117709E+03 -0.25472832097E+03  0.35420118902E+03  0.12500000000E+03 0.  0.
         25    1    1    2    0    0  0.27345932077E+03 -0.15287050523E+03 -0.55142162824E+03  0.64640560299E+03  0.12500000000E+03 0.  0.
         25    1    1    2    0    0 -0.12691115759E+03 -0.33067186738E+00 -0.15561250768E+03  0.23653076715E+03  0.12500000000E+03 0.  0.
</event>
<event>
 5    0  0.5576108E-005  0.2744919E+03  0.7546771E-02  0.1098736E+00
         21   -1    0    0  502  501  0.00000000000E+00  0.00000000000E+00  0.28597785356E+02  0.28597785356E+02  0.00000000000E+00 0.  1.
         21   -1    0    0  501  502 -0.00000000000E+00 -0.00000000000E+00 -0.26346731433E+04  0.26346731433E+04  0.00000000000E+00 0.  1.
         25    1    1    2    0    0  0.10064713403E+03  0.47258394194E+02 -0.10947285488E+04  0.11074379428E+04  0.12500000000E+03 0.  0.
         25    1    1    2    0    0 -0.48740284208E+02 -0.54756048733E+02 -0.12762854098E+04  0.12844856120E+04  0.12500000000E+03 0.  0.
         25    1    1    2    0    0 -0.51906849822E+02  0.74976545398E+01 -0.23506139936E+03  0.27134737396E+03  0.12500000000E+03 0.  0.
</event>
<event>
 5    0  0.5576108E-005  0.3610160E+03  0.7546771E-02  0.1058182E+00
         21   -1    0    0  502  501  0.00000000000E+00  0.00000000000E+00  0.24315727151E+03  0.24315727151E+03  0.00000000000E+00 0.  1.
         21   -1    0    0  501  502 -0.00000000000E+00 -0.00000000000E+00 -0.53600116956E+03  0.53600116956E+03  0.00000000000E+00 0.  1.
         25    1    1    2    0    0 -0.12515720730E+03  0.13203840543E+03 -0.90047200030E+02  0.23839455799E+03  0.12500000000E+03 0.  0.
         25    1    1    2    0    0 -0.22055942899E+01 -0.97437000418E+02  0.10012929216E+03  0.18748255611E+03  0.12500000000E+03 0.  0.
         25    1    1    2    0    0  0.12736280159E+03 -0.34601405016E+02 -0.30292599018E+03  0.35328132696E+03  0.12500000000E+03 0.  0.
</event>
<event>
 5    0  0.6198390E-005  0.2860542E+03  0.7546771E-02  0.1092427E+00
         21   -1    0    0  502  501  0.00000000000E+00  0.00000000000E+00  0.61888835733E+03  0.61888835733E+03  0.00000000000E+00 0. -1.
         21   -1    0    0  501  502 -0.00000000000E+00 -0.00000000000E+00 -0.13221610393E+03  0.13221610393E+03  0.00000000000E+00 0.  1.
         25    1    1    2    0    0  0.98727692236E+02 -0.17401819244E+03  0.23458882043E+03  0.33269566150E+03  0.12500000000E+03 0.  0.
         25    1    1    2    0    0 -0.41953820245E+01  0.94143655546E+02  0.13855274470E+03  0.20905141036E+03  0.12500000000E+03 0.  0.
         25    1    1    2    0    0 -0.94532310212E+02  0.79874536890E+02  0.11353068828E+03  0.20935738941E+03  0.12500000000E+03 0.  0.
</event>
<event>
 5    0  0.5668331E-005  0.2868864E+03  0.7546771E-02  0.1091986E+00
         21   -1    0    0  502  501  0.00000000000E+00  0.00000000000E+00  0.17202637144E+03  0.17202637144E+03  0.00000000000E+00 0.  1.
         21   -1    0    0  501  502 -0.00000000000E+00 -0.00000000000E+00 -0.47843699781E+03  0.47843699781E+03  0.00000000000E+00 0.  1.
         25    1    1    2    0    0 -0.40891207712E+02  0.62532126952E+02 -0.81565297899E+02  0.16691391671E+03  0.12500000000E+03 0.  0.
         25    1    1    2    0    0 -0.65066360540E+02  0.10440667361E+03 -0.27552245598E+02  0.17753453468E+03  0.12500000000E+03 0.  0.
         25    1    1    2    0    0  0.10595756825E+03 -0.16693880056E+03 -0.19729308287E+03  0.30601491786E+03  0.12500000000E+03 0.  0.
</event>
<event>
 5    0  0.5576108E-005  0.2229317E+03  0.7546771E-02  0.1131716E+00
         21   -1    0    0  502  501  0.00000000000E+00  0.00000000000E+00  0.23412167709E+03  0.23412167709E+03  0.00000000000E+00 0.  1.
         21   -1    0    0  501  502 -0.00000000000E+00 -0.00000000000E+00 -0.21227662632E+03  0.21227662632E+03  0.00000000000E+00 0.  1.
         25    1    1    2    0    0  0.17308423144E+02 -0.71733500590E+02 -0.34342612503E+02  0.14916330531E+03  0.12500000000E+03 0.  0.
         25    1    1    2    0    0 -0.10366520803E+02  0.10145398755E+03  0.14480783099E+02  0.16197243414E+03  0.12500000000E+03 0.  0.
         25    1    1    2    0    0 -0.69419023409E+01 -0.29720486959E+02  0.41706880172E+02  0.13526256395E+03  0.12500000000E+03 0.  0.
</event>
<event>
 5    0  0.5576108E-005  0.3920412E+03  0.7546771E-02  0.1046571E+00
         21   -1    0    0  502  501  0.00000000000E+00  0.00000000000E+00  0.95943113506E+03  0.95943113506E+03  0.00000000000E+00 0. -1.
         21   -1    0    0  501  502 -0.00000000000E+00 -0.00000000000E+00 -0.16019527865E+03  0.16019527865E+03  0.00000000000E+00 0. -1.
         25    1    1    2    0    0 -0.16300734166E+03 -0.14046042488E+03  0.10915796908E+03  0.27173698057E+03  0.12500000000E+03 0.  0.
         25    1    1    2    0    0  0.90046841730E+01  0.18597816152E+03  0.14754818548E+03  0.26844818483E+03  0.12500000000E+03 0.  0.
         25    1    1    2    0    0  0.15400265749E+03 -0.45517736637E+02  0.54252970184E+03  0.57944124831E+03  0.12500000000E+03 0.  0.
</event>
<event>
 5    0  0.5576108E-005  0.3792617E+03  0.7546771E-02  0.1051207E+00
         21   -1    0    0  502  501  0.00000000000E+00  0.00000000000E+00  0.32406252171E+03  0.32406252171E+03  0.00000000000E+00 0.  1.
         21   -1    0    0  501  502 -0.00000000000E+00 -0.00000000000E+00 -0.44386329165E+03  0.44386329165E+03  0.00000000000E+00 0.  1.
         25    1    1    2    0    0 -0.19799300493E+02  0.68223177291E+02 -0.19647251088E+02  0.14511178000E+03  0.12500000000E+03 0.  0.
         25    1    1    2    0    0  0.24364374215E+02 -0.31170143877E+03 -0.18743121805E+02  0.33723539891E+03  0.12500000000E+03 0.  0.
         25    1    1    2    0    0 -0.45650737220E+01  0.24347826148E+03 -0.81410397047E+02  0.28557863446E+03  0.12500000000E+03 0.  0.
</event>
<event>
 5    0  0.5576108E-005  0.5955853E+03  0.7546771E-02  0.9914608E-01
         21   -1    0    0  502  501  0.00000000000E+00  0.00000000000E+00  0.17679186266E+04  0.17679186266E+04  0.00000000000E+00 0. -1.
         21   -1    0    0  501  502 -0.00000000000E+00 -0.00000000000E+00 -0.20064377624E+03  0.20064377624E+03  0.00000000000E+00 0.  1.
         25    1    1    2    0    0  0.27554149856E+03  0.18127473388E+03  0.47820436615E+03  0.59421213584E+03  0.12500000000E+03 0.  0.
         25    1    1    2    0    0 -0.35668571677E+03  0.14021580836E+03  0.86706666455E+03  0.95619808316E+03  0.12500000000E+03 0.  0.
         25    1    1    2    0    0  0.81144218205E+02 -0.32149054224E+03  0.22200381963E+03  0.41815218382E+03  0.12500000000E+03 0.  0.
</event>
<event>
 5    0  0.5576108E-005  0.3308269E+03  0.7546771E-02  0.1070772E+00
         21   -1    0    0  502  501  0.00000000000E+00  0.00000000000E+00  0.47835376361E+02  0.47835376361E+02  0.00000000000E+00 0.  1.
         21   -1    0    0  501  502 -0.00000000000E+00 -0.00000000000E+00 -0.22879807864E+04  0.22879807864E+04  0.00000000000E+00 0.  1.
         25    1    1    2    0    0 -0.74789561655E+02  0.64574712712E+02 -0.14343977418E+03  0.21439062683E+03  0.12500000000E+03 0.  0.
         25    1    1    2    0    0 -0.11803550175E+02  0.30144497706E+02 -0.12052120024E+04  0.12121093125E+04  0.12500000000E+03 0.  0.
         25    1    1    2    0    0  0.86593111830E+02 -0.94719210418E+02 -0.89149363342E+03  0.90931622347E+03  0.12500000000E+03 0.  0.
</event>
<event>
 5    0  0.5576108E-005  0.3366072E+03  0.7546771E-02  0.1068250E+00
         21   -1    0    0  502  501  0.00000000000E+00  0.00000000000E+00  0.27084903347E+03  0.27084903347E+03  0.00000000000E+00 0.  1.
         21   -1    0    0  501  502 -0.00000000000E+00 -0.00000000000E+00 -0.41833046638E+03  0.41833046638E+03  0.00000000000E+00 0.  1.
         25    1    1    2    0    0 -0.25008263104E+03  0.52970258958E+02  0.10283886301E+02  0.28474186380E+03  0.12500000000E+03 0.  0.
         25    1    1    2    0    0  0.15260331109E+03  0.14347620631E+02 -0.61417277884E+02  0.20710071655E+03  0.12500000000E+03 0.  0.
         25    1    1    2    0    0  0.97479319950E+02 -0.67317879590E+02 -0.96348041324E+02  0.19733691950E+03  0.12500000000E+03 0.  0.
</event>
<event>
 5    0  0.5576108E-005  0.2838837E+03  0.7546771E-02  0.1093586E+00
         21   -1    0    0  502  501  0.00000000000E+00  0.00000000000E+00  0.18861857048E+03  0.18861857048E+03  0.00000000000E+00 0.  1.
         21   -1    0    0  501  502 -0.00000000000E+00 -0.00000000000E+00 -0.42726410351E+03  0.42726410351E+03  0.00000000000E+00 0.  1.
         25    1    1    2    0    0  0.13668370307E+03 -0.23850818960E+02  0.14116686728E+02  0.18728474870E+03  0.12500000000E+03 0.  0.
         25    1    1    2    0    0 -0.51016415738E+02  0.28960971185E+02 -0.23942395677E+03  0.27638784996E+03  0.12500000000E+03 0.  0.
         25    1    1    2    0    0 -0.85667287335E+02 -0.51101522251E+01 -0.13338262986E+02  0.15221007534E+03  0.12500000000E+03 0.  0.
</event>
<event>
 5    0  0.5576108E-005  0.2037589E+03  0.7546771E-02  0.1146606E+00
         21   -1    0    0  502  501  0.00000000000E+00  0.00000000000E+00  0.99652144244E+02  0.99652144244E+02  0.00000000000E+00 0.  1.
         21   -1    0    0  501  502 -0.00000000000E+00 -0.00000000000E+00 -0.41662633624E+03  0.41662633624E+03  0.00000000000E+00 0.  1.
         25    1    1    2    0    0  0.16387426803E+02 -0.16613463532E+02 -0.91385023584E+02  0.15659111553E+03  0.12500000000E+03 0.  0.
         25    1    1    2    0    0 -0.61367156837E+02  0.23001532542E+02 -0.15304543897E+03  0.20818958866E+03  0.12500000000E+03 0.  0.
         25    1    1    2    0    0  0.44979730034E+02 -0.63880690094E+01 -0.72543729439E+02  0.15149777629E+03  0.12500000000E+03 0.  0.
</event>
<event>
 5    0  0.5576108E-005  0.4806132E+03  0.7546771E-02  0.1018967E+00
         21   -1    0    0  502  501  0.00000000000E+00  0.00000000000E+00  0.55774507398E+03  0.55774507398E+03  0.00000000000E+00 0.  1.
         21   -1    0    0  501  502 -0.00000000000E+00 -0.00000000000E+00 -0.41414800351E+03  0.41414800351E+03  0.00000000000E+00 0.  1.
         25    1    1    2    0    0  0.45433893786E+02 -0.22277160958E+03  0.16594932205E+02  0.25998426974E+03  0.12500000000E+03 0.  0.
         25    1    1    2    0    0  0.21078215319E+03  0.31623248169E+03  0.60566433406E+02  0.40462994382E+03  0.12500000000E+03 0.  0.
         25    1    1    2    0    0 -0.25621604697E+03 -0.93460872112E+02  0.66435704852E+02  0.30727886393E+03  0.12500000000E+03 0.  0.
</event>
<event>
 5    0  0.5576108E-005  0.2583218E+03  0.7546771E-02  0.1108156E+00
         21   -1    0    0  502  501  0.00000000000E+00  0.00000000000E+00  0.10787728848E+04  0.10787728848E+04  0.00000000000E+00 0.  1.
         21   -1    0    0  501  502 -0.00000000000E+00 -0.00000000000E+00 -0.61857441050E+02  0.61857441050E+02  0.00000000000E+00 0.  1.
         25    1    1    2    0    0 -0.77019239880E+02  0.10670907628E+03  0.48647471844E+03  0.51923158798E+03  0.12500000000E+03 0.  0.
         25    1    1    2    0    0  0.52442554087E+02 -0.13339964237E+03  0.35761569836E+03  0.40504280487E+03  0.12500000000E+03 0.  0.
         25    1    1    2    0    0  0.24576685793E+02  0.26690566088E+02  0.17282502692E+03  0.21635593298E+03  0.12500000000E+03 0.  0.
</event>
<event>
 5    0  0.5576108E-005  0.2318236E+03  0.7546771E-02  0.1125363E+00
         21   -1    0    0  502  501  0.00000000000E+00  0.00000000000E+00  0.10443289506E+03  0.10443289506E+03  0.00000000000E+00 0. -1.
         21   -1    0    0  501  502 -0.00000000000E+00 -0.00000000000E+00 -0.51460954706E+03  0.51460954706E+03  0.00000000000E+00 0. -1.
         25    1    1    2    0    0  0.25460878522E+02 -0.49966190850E+02 -0.68439954935E+02  0.15314667478E+03  0.12500000000E+03 0.  0.
         25    1    1    2    0    0 -0.81157986056E+02  0.13699758895E+02 -0.83455770185E+02  0.17135976095E+03  0.12500000000E+03 0.  0.
         25    1    1    2    0    0  0.55697107533E+02  0.36266431955E+02 -0.25828092688E+03  0.29453600640E+03  0.12500000000E+03 0.  0.
</event>
<event>
 5    0  0.5701375E-005  0.3358701E+03  0.7546771E-02  0.1068569E+00
         21   -1    0    0  502  501  0.00000000000E+00  0.00000000000E+00  0.29157621358E+03  0.29157621358E+03  0.00000000000E+00 0.  1.
         21   -1    0    0  501  502 -0.00000000000E+00 -0.00000000000E+00 -0.38689283597E+03  0.38689283597E+03  0.00000000000E+00 0.  1.
         25    1    1    2    0    0  0.20069207192E+03  0.93178243199E+02 -0.13083700507E+03  0.28583704209E+03  0.12500000000E+03 0.  0.
         25    1    1    2    0    0 -0.55184773003E+02  0.36791099906E+02  0.70837324428E+02  0.15824623451E+03  0.12500000000E+03 0.  0.
         25    1    1    2    0    0 -0.14550729892E+03 -0.12996934310E+03 -0.35316941752E+02  0.23438577295E+03  0.12500000000E+03 0.  0.
</event>
<event>
 5    0  0.5576108E-005  0.2325089E+03  0.7546771E-02  0.1124886E+00
         21   -1    0    0  502  501  0.00000000000E+00  0.00000000000E+00  0.13492787809E+03  0.13492787809E+03  0.00000000000E+00 0. -1.
         21   -1    0    0  501  502 -0.00000000000E+00 -0.00000000000E+00 -0.40066132146E+03  0.40066132146E+03  0.00000000000E+00 0. -1.
         25    1    1    2    0    0 -0.87528043743E+02 -0.45828414118E+02 -0.12481146782E+03  0.20239640432E+03  0.12500000000E+03 0.  0.
         25    1    1    2    0    0 -0.48915895425E+01 -0.24172948317E+02 -0.87377785447E+02  0.15449315994E+03  0.12500000000E+03 0.  0.
         25    1    1    2    0    0  0.92419633286E+02  0.70001362434E+02 -0.53544190112E+02  0.17869963529E+03  0.12500000000E+03 0.  0.
</event>
<event>
 5    0  0.5576108E-005  0.4134424E+03  0.7546771E-02  0.1039222E+00
         21   -1    0    0  502  501  0.00000000000E+00  0.00000000000E+00  0.36899617805E+03  0.36899617805E+03  0.00000000000E+00 0. -1.
         21   -1    0    0  501  502 -0.00000000000E+00 -0.00000000000E+00 -0.46324229421E+03  0.46324229421E+03  0.00000000000E+00 0. -1.
         25    1    1    2    0    0  0.25870002470E+02 -0.34228955206E+02  0.92456729325E+02  0.16128894940E+03  0.12500000000E+03 0.  0.
         25    1    1    2    0    0 -0.71868508496E+02  0.30762656533E+03 -0.11285294955E+03  0.35799437765E+03  0.12500000000E+03 0.  0.
         25    1    1    2    0    0  0.45998506026E+02 -0.27339761012E+03 -0.73849895941E+02  0.31295514520E+03  0.12500000000E+03 0.  0.
</event>
<event>
 5    0  0.5576108E-005  0.2388553E+03  0.7546771E-02  0.1120558E+00
         21   -1    0    0  502  501  0.00000000000E+00  0.00000000000E+00  0.85536691041E+02  0.85536691041E+02  0.00000000000E+00 0.  1.
         21   -1    0    0  501  502 -0.00000000000E+00 -0.00000000000E+00 -0.66698709403E+03  0.66698709403E+03  0.00000000000E+00 0.  1.
         25    1    1    2    0    0  0.47313397017E+02 -0.10530622038E+02 -0.39453439196E+02  0.13975344505E+03  0.12500000000E+03 0.  0.
         25    1    1    2    0    0  0.11492525034E+02 -0.49811684596E+02 -0.24871358195E+03  0.28301365321E+03  0.12500000000E+03 0.  0.
         25    1    1    2    0    0 -0.58805922051E+02  0.60342306634E+02 -0.29328338185E+03  0.32975668682E+03  0.12500000000E+03 0.  0.
</event>
<event>
 5    0  0.5576108E-005  0.3073023E+03  0.7546771E-02  0.1081646E+00
         21   -1    0    0  502  501  0.00000000000E+00  0.00000000000E+00  0.38464228229E+03  0.38464228229E+03  0.00000000000E+00 0. -1.
         21   -1    0    0  501  502 -0.00000000000E+00 -0.00000000000E+00 -0.24551307559E+03  0.24551307559E+03  0.00000000000E+00 0. -1.
         25    1    1    2    0    0 -0.92183146118E+01  0.48819501602E+02  0.16441028579E+03  0.21242425270E+03  0.12500000000E+03 0.  0.
         25    1    1    2    0    0  0.12810904299E+03  0.81500388733E+02 -0.41215827749E+02  0.20094273989E+03  0.12500000000E+03 0.  0.
         25    1    1    2    0    0 -0.11889072837E+03 -0.13031989034E+03  0.15934748654E+02  0.21678836529E+03  0.12500000000E+03 0.  0.
</event>
<event>
 5    0  0.5576108E-005  0.3422353E+03  0.7546771E-02  0.1065848E+00
         21   -1    0    0  502  501  0.00000000000E+00  0.00000000000E+00  0.14902721016E+03  0.14902721016E+03  0.00000000000E+00 0.  1.
         21   -1    0    0  501  502 -0.00000000000E+00 -0.00000000000E+00 -0.78593024481E+03  0.78593024481E+03  0.00000000000E+00 0.  1.
         25    1    1    2    0    0 -0.42027477670E+02 -0.17343800752E+03 -0.12290581566E+03  0.25015573321E+03  0.12500000000E+03 0.  0.
         25    1    1    2    0    0  0.15453355166E+03  0.20028135803E+03 -0.31644898885E+03  0.42397901305E+03  0.12500000000E+03 0.  0.
         25    1    1    2    0    0 -0.11250607399E+03 -0.26843350503E+02 -0.19754823014E+03  0.26082270871E+03  0.12500000000E+03 0.  0.
</event>
<event>
 5    0  0.5576108E-005  0.2578031E+03  0.7546771E-02  0.1108470E+00
         21   -1    0    0  502  501  0.00000000000E+00  0.00000000000E+00  0.10503081928E+04  0.10503081928E+04  0.00000000000E+00 0.  1.
         21   -1    0    0  501  502 -0.00000000000E+00 -0.00000000000E+00 -0.63278967878E+02  0.63278967878E+02  0.00000000000E+00 0.  1.
         25    1    1    2    0    0 -0.87599084486E+02 -0.47200447036E+02  0.12802502248E+03  0.20473614284E+03  0.12500000000E+03 0.  0.
         25    1    1    2    0    0  0.62931200678E+02 -0.27562301730E+02  0.32779976118E+03  0.35748804166E+03  0.12500000000E+03 0.  0.
         25    1    1    2    0    0  0.24667883808E+02  0.74762748766E+02  0.53120444126E+03  0.55136297619E+03  0.12500000000E+03 0.  0.
</event>
<event>
 5    0  0.5576108E-005  0.2569724E+03  0.7546771E-02  0.1108976E+00
         21   -1    0    0  502  501  0.00000000000E+00  0.00000000000E+00  0.13777476012E+03  0.13777476012E+03  0.00000000000E+00 0.  1.
         21   -1    0    0  501  502 -0.00000000000E+00 -0.00000000000E+00 -0.47929542852E+03  0.47929542852E+03  0.00000000000E+00 0.  1.
         25    1    1    2    0    0 -0.15973662044E+03  0.49618561489E+02 -0.10506370534E+03  0.23375451169E+03  0.12500000000E+03 0.  0.
         25    1    1    2    0    0  0.85276983300E+02 -0.16931451203E+02 -0.12811685888E+03  0.19899187785E+03  0.12500000000E+03 0.  0.
         25    1    1    2    0    0  0.74459637140E+02 -0.32687110286E+02 -0.10834010418E+03  0.18432379911E+03  0.12500000000E+03 0.  0.
</event>
<event>
 5    0  0.5576108E-005  0.2387532E+03  0.7546771E-02  0.1120626E+00
         21   -1    0    0  502  501  0.00000000000E+00  0.00000000000E+00  0.59118096354E+03  0.59118096354E+03  0.00000000000E+00 0.  1.
         21   -1    0    0  501  502 -0.00000000000E+00 -0.00000000000E+00 -0.96422393458E+02  0.96422393458E+02  0.00000000000E+00 0.  1.
         25    1    1    2    0    0 -0.33375184414E+02  0.22134654931E+02  0.29636039343E+03  0.32412702553E+03  0.12500000000E+03 0.  0.
         25    1    1    2    0    0  0.10622567735E+02 -0.78751790099E+02  0.41556194431E+02  0.15383952901E+03  0.12500000000E+03 0.  0.
         25    1    1    2    0    0  0.22752616679E+02  0.56617135168E+02  0.15684198221E+03  0.20963680246E+03  0.12500000000E+03 0.  0.
</event>
<event>
 5    0  0.6452694E-005  0.9119875E+03  0.7546771E-02  0.9410719E-01
         21   -1    0    0  502  501  0.00000000000E+00  0.00000000000E+00  0.47645532675E+03  0.47645532675E+03  0.00000000000E+00 0. -1.
         21   -1    0    0  501  502 -0.00000000000E+00 -0.00000000000E+00 -0.17456436977E+04  0.17456436977E+04  0.00000000000E+00 0. -1.
         25    1    1    2    0    0 -0.41046416701E+03 -0.21184934200E+03  0.10448116278E+03  0.48979821303E+03  0.12500000000E+03 0.  0.
         25    1    1    2    0    0  0.25794337471E+03  0.13172808988E+01 -0.14124505651E+04  0.14412418668E+04  0.12500000000E+03 0.  0.
         25    1    1    2    0    0  0.15252079230E+03  0.21053206111E+03  0.38781031385E+02  0.29105894460E+03  0.12500000000E+03 0.  0.
</event>
<event>
 5    0  0.5576108E-005  0.3529232E+03  0.7546771E-02  0.1061422E+00
         21   -1    0    0  502  501  0.00000000000E+00  0.00000000000E+00  0.43191405645E+03  0.43191405645E+03  0.00000000000E+00 0.  1.
         21   -1    0    0  501  502 -0.00000000000E+00 -0.00000000000E+00 -0.28837866120E+03  0.28837866120E+03  0.00000000000E+00 0.  1.
         25    1    1    2    0    0  0.33843387817E+02 -0.10314330126E+03  0.73826471437E+02  0.18127124256E+03  0.12500000000E+03 0.  0.
         25    1    1    2    0    0  0.12407912707E+02  0.18411594902E+03 -0.15067783146E+03  0.26903800452E+03  0.12500000000E+03 0.  0.
         25    1    1    2    0    0 -0.46251300524E+02 -0.80972647763E+02  0.22038675528E+03  0.26998347058E+03  0.12500000000E+03 0.  0.
</event>
<event>
 5    0  0.5576108E-005  0.2929366E+03  0.7546771E-02  0.1088826E+00
         21   -1    0    0  502  501  0.00000000000E+00  0.00000000000E+00  0.10926267493E+03  0.10926267493E+03  0.00000000000E+00 0. -1.
         21   -1    0    0  501  502 -0.00000000000E+00 -0.00000000000E+00 -0.78537195332E+03  0.78537195332E+03  0.00000000000E+00 0. -1.
         25    1    1    2    0    0  0.85109028216E+02  0.82849753598E+02 -0.49076423447E+02  0.17927945698E+03  0.12500000000E+03 0.  0.
         25    1    1    2    0    0  0.28123650504E+02 -0.50401938167E+01 -0.41055285143E+03  0.43011043592E+03  0.12500000000E+03 0.  0.
         25    1    1    2    0    0 -0.11323267872E+03 -0.77809559782E+02 -0.21648000352E+03  0.28524473536E+03  0.12500000000E+03 0.  0.
</event>
<event>
 5    0  0.5576108E-005  0.2558766E+03  0.7546771E-02  0.1109646E+00
         21   -1    0    0  502  501  0.00000000000E+00  0.00000000000E+00  0.32931316408E+03  0.32931316408E+03  0.00000000000E+00 0. -1.
         21   -1    0    0  501  502 -0.00000000000E+00 -0.00000000000E+00 -0.19881638368E+03  0.19881638368E+03  0.00000000000E+00 0. -1.
         25    1    1    2    0    0  0.10730971897E+03  0.59148575848E+01  0.13377620979E+03  0.21230034299E+03  0.12500000000E+03 0.  0.
         25    1    1    2    0    0 -0.51347265755E+02 -0.56074677337E+02 -0.61603621067E+02  0.15874796776E+03  0.12500000000E+03 0.  0.
         25    1    1    2    0    0 -0.55962453216E+02  0.50159819752E+02  0.58324191671E+02  0.15708123701E+03  0.12500000000E+03 0.  0.
</event>
<event>
 5    0  0.5576108E-005  0.2721846E+03  0.7546771E-02  0.1100036E+00
         21   -1    0    0  502  501  0.00000000000E+00  0.00000000000E+00  0.14419385336E+03  0.14419385336E+03  0.00000000000E+00 0.  1.
         21   -1    0    0  501  502 -0.00000000000E+00 -0.00000000000E+00 -0.51378390064E+03  0.51378390064E+03  0.00000000000E+00 0.  1.
         25    1    1    2    0    0  0.12249162423E+03  0.83959073788E+02 -0.15106522608E+03  0.24596549882E+03  0.12500000000E+03 0.  0.
         25    1    1    2    0    0 -0.15392973026E+03 -0.94724996786E+02 -0.14409115519E+03  0.26278213006E+03  0.12500000000E+03 0.  0.
         25    1    1    2    0    0  0.31438106031E+02  0.10765922998E+02 -0.74433666005E+02  0.14923012512E+03  0.12500000000E+03 0.  0.
</event>
<event>
 5    0  0.5576108E-005  0.2442176E+03  0.7546771E-02  0.1117015E+00
         21   -1    0    0  502  501  0.00000000000E+00  0.00000000000E+00  0.15634606425E+04  0.15634606425E+04  0.00000000000E+00 0. -1.
         21   -1    0    0  501  502 -0.00000000000E+00 -0.00000000000E+00 -0.38147590499E+02  0.38147590499E+02  0.00000000000E+00 0. -1.
         25    1    1    2    0    0  0.43084146704E+02  0.52204622647E+02  0.48516837847E+03  0.50556396409E+03  0.12500000000E+03 0.  0.
         25    1    1    2    0    0  0.18616040696E+02  0.82923801796E+02  0.47659596845E+03  0.49999163095E+03  0.12500000000E+03 0.  0.
         25    1    1    2    0    0 -0.61700187400E+02 -0.13512842444E+03  0.56354870509E+03  0.59605263797E+03  0.12500000000E+03 0.  0.
</event>
<event>
 5    0  0.5576108E-005  0.2478124E+03  0.7546771E-02  0.1114695E+00
         21   -1    0    0  502  501  0.00000000000E+00  0.00000000000E+00  0.10361321067E+04  0.10361321067E+04  0.00000000000E+00 0. -1.
         21   -1    0    0  501  502 -0.00000000000E+00 -0.00000000000E+00 -0.59269447337E+02  0.59269447337E+02  0.00000000000E+00 0. -1.
         25    1    1    2    0    0  0.19413429540E+02  0.46491101588E+02  0.23254891246E+03  0.26877927833E+03  0.12500000000E+03 0.  0.
         25    1    1    2    0    0  0.22475740054E+02  0.81466111715E+02  0.18981284956E+03  0.24247846112E+03  0.12500000000E+03 0.  0.
         25    1    1    2    0    0 -0.41889169594E+02 -0.12795721330E+03  0.55450089734E+03  0.58414381458E+03  0.12500000000E+03 0.  0.
</event>
<event>
 5    0  0.6941329E-005  0.2744649E+03  0.7546771E-02  0.1098751E+00
         21   -1    0    0  502  501  0.00000000000E+00  0.00000000000E+00  0.42125667410E+03  0.42125667410E+03  0.00000000000E+00 0.  1.
         21   -1    0    0  501  502 -0.00000000000E+00 -0.00000000000E+00 -0.17882440735E+03  0.17882440735E+03  0.00000000000E+00 0.  1.
         25    1    1    2    0    0  0.59824355787E+02  0.49264717954E+02  0.16430666500E+03  0.22051677066E+03  0.12500000000E+03 0.  0.
         25    1    1    2    0    0 -0.11329995211E+03 -0.11893368112E+03  0.92355051978E+02  0.22613393217E+03  0.12500000000E+03 0.  0.
         25    1    1    2    0    0  0.53475596318E+02  0.69668963168E+02 -0.14229450230E+02  0.15343037862E+03  0.12500000000E+03 0.  0.
</event>
<event>
 5    0  0.5576108E-005  0.3273654E+03  0.7546771E-02  0.1072309E+00
         21   -1    0    0  502  501  0.00000000000E+00  0.00000000000E+00  0.30489862631E+03  0.30489862631E+03  0.00000000000E+00 0. -1.
         21   -1    0    0  501  502 -0.00000000000E+00 -0.00000000000E+00 -0.35148762315E+03  0.35148762315E+03  0.00000000000E+00 0. -1.
         25    1    1    2    0    0 -0.77871927462E+02  0.70234202114E+02 -0.18810400552E+03  0.24900802623E+03  0.12500000000E+03 0.  0.
         25    1    1    2    0    0  0.27954031596E+01  0.11041739376E+02 -0.65387910793E+02  0.14152848888E+03  0.12500000000E+03 0.  0.
         25    1    1    2    0    0  0.75076524302E+02 -0.81275941490E+02  0.20690291947E+03  0.26584973435E+03  0.12500000000E+03 0.  0.
</event>
<event>
 5    0  0.5576108E-005  0.2453428E+03  0.7546771E-02  0.1116284E+00
         21   -1    0    0  502  501  0.00000000000E+00  0.00000000000E+00  0.54210679198E+02  0.54210679198E+02  0.00000000000E+00 0. -1.
         21   -1    0    0  501  502 -0.00000000000E+00 -0.00000000000E+00 -0.11103549055E+04  0.11103549055E+04  0.00000000000E+00 0. -1.
         25    1    1    2    0    0 -0.75523851097E+01 -0.77552257194E+02 -0.18155563176E+03  0.23379229786E+03  0.12500000000E+03 0.  0.
         25    1    1    2    0    0  0.13839303255E+02  0.66777129554E+02 -0.20561026919E+03  0.25010256724E+03  0.12500000000E+03 0.  0.
         25    1    1    2    0    0 -0.62869181456E+01  0.10775127640E+02 -0.66897832534E+03  0.68067071958E+03  0.12500000000E+03 0.  0.
</event>
<event>
 5    0  0.5576108E-005  0.2387907E+03  0.7546771E-02  0.1120601E+00
         21   -1    0    0  502  501  0.00000000000E+00  0.00000000000E+00  0.43076576339E+03  0.43076576339E+03  0.00000000000E+00 0. -1.
         21   -1    0    0  501  502 -0.00000000000E+00 -0.00000000000E+00 -0.13237124852E+03  0.13237124852E+03  0.00000000000E+00 0. -1.
         25    1    1    2    0    0  0.20698985621E+02  0.36236090675E+02 -0.23304932678E+01  0.13180263075E+03  0.12500000000E+03 0.  0.
         25    1    1    2    0    0 -0.51478262654E+02 -0.77597789888E+02  0.87225980620E+02  0.17861914852E+03  0.12500000000E+03 0.  0.
         25    1    1    2    0    0  0.30779277033E+02  0.41361699212E+02  0.21349902752E+03  0.25271523264E+03  0.12500000000E+03 0.  0.
</event>
<event>
 5    0  0.5576108E-005  0.4162636E+03  0.7546771E-02  0.1038289E+00
         21   -1    0    0  502  501  0.00000000000E+00  0.00000000000E+00  0.20000448911E+03  0.20000448911E+03  0.00000000000E+00 0.  1.
         21   -1    0    0  501  502 -0.00000000000E+00 -0.00000000000E+00 -0.86635737801E+03  0.86635737801E+03  0.00000000000E+00 0.  1.
         25    1    1    2    0    0  0.50423462195E+02  0.21424947928E+03  0.10011924666E+02  0.25331917327E+03  0.12500000000E+03 0.  0.
         25    1    1    2    0    0  0.10875102044E+03 -0.52487491798E+02 -0.16432705793E+03  0.23918633575E+03  0.12500000000E+03 0.  0.
         25    1    1    2    0    0 -0.15917448264E+03 -0.16176198749E+03 -0.51203775563E+03  0.57385635808E+03  0.12500000000E+03 0.  0.
</event>
<event>
 5    0  0.5764140E-005  0.2679561E+03  0.7546771E-02  0.1102455E+00
         21   -1    0    0  502  501  0.00000000000E+00  0.00000000000E+00  0.19479774952E+03  0.19479774952E+03  0.00000000000E+00 0.  1.
         21   -1    0    0  501  502 -0.00000000000E+00 -0.00000000000E+00 -0.36858983737E+03  0.36858983737E+03  0.00000000000E+00 0.  1.
         25    1    1    2    0    0  0.72425939043E+02 -0.41559613715E+01  0.93015470008E+02  0.17187107471E+03  0.12500000000E+03 0.  0.
         25    1    1    2    0    0 -0.29321012482E+02  0.61051424329E+02 -0.14311362218E+03  0.20172631717E+03  0.12500000000E+03 0.  0.
         25    1    1    2    0    0 -0.43104926560E+02 -0.56895462957E+02 -0.12369393567E+03  0.18979019501E+03  0.12500000000E+03 0.  0.
</event>
<event>
 5    0  0.5576108E-005  0.3610725E+03  0.7546771E-02  0.1058160E+00
         21   -1    0    0  502  501  0.00000000000E+00  0.00000000000E+00  0.20107935492E+03  0.20107935492E+03  0.00000000000E+00 0.  1.
         21   -1    0    0  501  502 -0.00000000000E+00 -0.00000000000E+00 -0.64836758450E+03  0.64836758450E+03  0.00000000000E+00 0.  1.
         25    1    1    2    0    0  0.73918162443E+02 -0.69113194306E+02  0.13018347847E+01  0.16083290441E+03  0.12500000000E+03 0.  0.
         25    1    1    2    0    0  0.14994407531E+03  0.30593224790E+02 -0.35292997633E+02  0.20072310979E+03  0.12500000000E+03 0.  0.
         25    1    1    2    0    0 -0.22386223775E+03  0.38519969516E+02 -0.41329706673E+03  0.48789092522E+03  0.12500000000E+03 0.  0.
</event>
<event>
 5    0  0.7229234E-005  0.3490566E+03  0.7546771E-02  0.1063003E+00
         21   -1    0    0  502  501  0.00000000000E+00  0.00000000000E+00  0.62017115594E+03  0.62017115594E+03  0.00000000000E+00 0.  1.
         21   -1    0    0  501  502 -0.00000000000E+00 -0.00000000000E+00 -0.19646272580E+03  0.19646272580E+03  0.00000000000E+00 0.  1.
         25    1    1    2    0    0  0.23081757287E+03 -0.45373763908E+02  0.48946176867E+02  0.27084360547E+03  0.12500000000E+03 0.  0.
         25    1    1    2    0    0 -0.12539768481E+03 -0.75959735329E+02  0.19598204955E+03  0.27482435207E+03  0.12500000000E+03 0.  0.
         25    1    1    2    0    0 -0.10541988805E+03  0.12133349924E+03  0.17878020372E+03  0.27096592420E+03  0.12500000000E+03 0.  0.
</event>
<event>
 5    0  0.5576108E-005  0.3098262E+03  0.7546771E-02  0.1080429E+00
         21   -1    0    0  502  501  0.00000000000E+00  0.00000000000E+00  0.80064193053E+03  0.80064193053E+03  0.00000000000E+00 0.  1.
         21   -1    0    0  501  502 -0.00000000000E+00 -0.00000000000E+00 -0.11989413004E+03  0.11989413004E+03  0.00000000000E+00 0.  1.
         25    1    1    2    0    0 -0.37398857161E+02  0.35324291348E+02 -0.31015405709E+01  0.13520761676E+03  0.12500000000E+03 0.  0.
         25    1    1    2    0    0  0.11300381163E+03 -0.68693989959E+01  0.57954936417E+03  0.60358886304E+03  0.12500000000E+03 0.  0.
         25    1    1    2    0    0 -0.75604954468E+02 -0.28454892352E+02  0.10429997689E+03  0.18173958077E+03  0.12500000000E+03 0.  0.
</event>
<event>
 5    0  0.5576108E-005  0.2614639E+03  0.7546771E-02  0.1106267E+00
         21   -1    0    0  502  501  0.00000000000E+00  0.00000000000E+00  0.98489139591E+02  0.98489139591E+02  0.00000000000E+00 0.  1.
         21   -1    0    0  501  502 -0.00000000000E+00 -0.00000000000E+00 -0.69412066448E+03  0.69412066448E+03  0.00000000000E+00 0.  1.
         25    1    1    2    0    0 -0.75104887496E+01  0.36315592630E+02 -0.46396618360E+03  0.48193863637E+03  0.12500000000E+03 0.  0.
         25    1    1    2    0    0 -0.22589846015E+02  0.17865323129E+02 -0.11098610642E+03  0.16962425160E+03  0.12500000000E+03 0.  0.
         25    1    1    2    0    0  0.30100334764E+02 -0.54180915759E+02 -0.20679234877E+02  0.14104691610E+03  0.12500000000E+03 0.  0.
</event>
<event>
 5    0  0.5576108E-005  0.2373679E+03  0.7546771E-02  0.1121559E+00
         21   -1    0    0  502  501  0.00000000000E+00  0.00000000000E+00  0.18075708204E+04  0.18075708204E+04  0.00000000000E+00 0.  1.
         21   -1    0    0  501  502 -0.00000000000E+00 -0.00000000000E+00 -0.31170848113E+02  0.31170848113E+02  0.00000000000E+00 0.  1.
         25    1    1    2    0    0 -0.86796381429E+02  0.40917210309E+01  0.35206385602E+03  0.38356787239E+03  0.12500000000E+03 0.  0.
         25    1    1    2    0    0  0.11340371327E+03 -0.16485272410E+02  0.81636179719E+03  0.83378879238E+03  0.12500000000E+03 0.  0.
         25    1    1    2    0    0 -0.26607331842E+02  0.12393551379E+02  0.60797431903E+03  0.62138500370E+03  0.12500000000E+03 0.  0.
</event>
<event>
 5    0  0.5775922E-005  0.7732908E+03  0.7546771E-02  0.9599503E-01
         21   -1    0    0  502  501  0.00000000000E+00  0.00000000000E+00  0.37301609730E+03  0.37301609730E+03  0.00000000000E+00 0. -1.
         21   -1    0    0  501  502 -0.00000000000E+00 -0.00000000000E+00 -0.16030907220E+04  0.16030907220E+04  0.00000000000E+00 0. -1.
         25    1    1    2    0    0  0.33834536597E+03 -0.44089632292E+03 -0.39555568416E+03  0.69351024038E+03  0.12500000000E+03 0.  0.
         25    1    1    2    0    0 -0.54614528451E+03  0.13178983472E+03 -0.56217317075E+03  0.80455385540E+03  0.12500000000E+03 0.  0.
         25    1    1    2    0    0  0.20779991854E+03  0.30910648820E+03 -0.27234576980E+03  0.47804272353E+03  0.12500000000E+03 0.  0.
</event>
<event>
 5    0  0.5576108E-005  0.3204242E+03  0.7546771E-02  0.1075454E+00
         21   -1    0    0  502  501  0.00000000000E+00  0.00000000000E+00  0.42068732643E+03  0.42068732643E+03  0.00000000000E+00 0.  1.
         21   -1    0    0  501  502 -0.00000000000E+00 -0.00000000000E+00 -0.24405700203E+03  0.24405700203E+03  0.00000000000E+00 0.  1.
         25    1    1    2    0    0 -0.47207435449E+02  0.12547052847E+03  0.25406795686E+03  0.31328409180E+03  0.12500000000E+03 0.  0.
         25    1    1    2    0    0  0.99989245246E+02 -0.31014246381E+01 -0.37182240443E+02  0.16436236493E+03  0.12500000000E+03 0.  0.
         25    1    1    2    0    0 -0.52781809796E+02 -0.12236910383E+03 -0.40255392013E+02  0.18709787173E+03  0.12500000000E+03 0.  0.
</event>
<event>
 5    0  0.5576108E-005  0.3185326E+03  0.7546771E-02  0.1076327E+00
         21   -1    0    0  502  501  0.00000000000E+00  0.00000000000E+00  0.62699138402E+02  0.62699138402E+02  0.00000000000E+00 0. -1.
         21   -1    0    0  501  502 -0.00000000000E+00 -0.00000000000E+00 -0.16182519049E+04  0.16182519049E+04  0.00000000000E+00 0. -1.
         25    1    1    2    0    0  0.10409099128E+02 -0.34103827862E+02 -0.62708291653E+03  0.64041346381E+03  0.12500000000E+03 0.  0.
         25    1    1    2    0    0  0.20875134256E+02  0.48785262225E+02 -0.89681929944E+03  0.90704224206E+03  0.12500000000E+03 0.  0.
         25    1    1    2    0    0 -0.31284233384E+02 -0.14681434363E+02 -0.31650550558E+02  0.13349533746E+03  0.12500000000E+03 0.  0.
</event>
<event>
 5    0  0.5576108E-005  0.4734721E+03  0.7546771E-02  0.1020945E+00
         21   -1    0    0  502  501  0.00000000000E+00  0.00000000000E+00  0.32280998653E+03  0.32280998653E+03  0.00000000000E+00 0.  1.
         21   -1    0    0  501  502 -0.00000000000E+00 -0.00000000000E+00 -0.69445134025E+03  0.69445134025E+03  0.00000000000E+00 0.  1.
         25    1    1    2    0    0  0.41742451829E+02 -0.14917592041E+03  0.67745448716E+02  0.21026253431E+03  0.12500000000E+03 0.  0.
         25    1    1    2    0    0  0.39254833774E+02 -0.21958581872E+03 -0.27822286029E+03  0.37787806730E+03  0.12500000000E+03 0.  0.
         25    1    1    2    0    0 -0.80997285603E+02  0.36876173912E+03 -0.16116394215E+03  0.42912072516E+03  0.12500000000E+03 0.  0.
</event>
<event>
 5    0  0.5576108E-005  0.2667013E+03  0.7546771E-02  0.1103183E+00
         21   -1    0    0  502  501  0.00000000000E+00  0.00000000000E+00  0.24798312665E+03  0.24798312665E+03  0.00000000000E+00 0. -1.
         21   -1    0    0  501  502 -0.00000000000E+00 -0.00000000000E+00 -0.28683236576E+03  0.28683236576E+03  0.00000000000E+00 0. -1.
         25    1    1    2    0    0  0.36109866642E+02  0.11930110713E+03 -0.11688768614E+02  0.17691326673E+03  0.12500000000E+03 0.  0.
         25    1    1    2    0    0 -0.10437521161E+02 -0.11662410643E+03 -0.11199743440E+03  0.20464249158E+03  0.12500000000E+03 0.  0.
         25    1    1    2    0    0 -0.25672345480E+02 -0.26770007021E+01  0.84836963897E+02  0.15325973411E+03  0.12500000000E+03 0.  0.
</event>
<event>
 5    0  0.5576108E-005  0.2803766E+03  0.7546771E-02  0.1095483E+00
         21   -1    0    0  502  501  0.00000000000E+00  0.00000000000E+00  0.17787568582E+03  0.17787568582E+03  0.00000000000E+00 0.  1.
         21   -1    0    0  501  502 -0.00000000000E+00 -0.00000000000E+00 -0.44194379920E+03  0.44194379920E+03  0.00000000000E+00 0.  1.
         25    1    1    2    0    0 -0.91517261818E+02  0.10832611721E+03 -0.17105602314E+03  0.25494140490E+03  0.12500000000E+03 0.  0.
         25    1    1    2    0    0  0.10149152702E+03 -0.10629939088E+03  0.22661776405E+02  0.19426437313E+03  0.12500000000E+03 0.  0.
         25    1    1    2    0    0 -0.99742651980E+01 -0.20267263255E+01 -0.11567386666E+03  0.17061370699E+03  0.12500000000E+03 0.  0.
</event>
<event>
 5    0  0.5586792E-005  0.3996767E+03  0.7546771E-02  0.1043892E+00
         21   -1    0    0  502  501  0.00000000000E+00  0.00000000000E+00  0.62745308445E+03  0.62745308445E+03  0.00000000000E+00 0. -1.
         21   -1    0    0  501  502 -0.00000000000E+00 -0.00000000000E+00 -0.25458705550E+03  0.25458705550E+03  0.00000000000E+00 0. -1.
         25    1    1    2    0    0 -0.23281523585E+03 -0.76686817183E+02 -0.47265838472E+02  0.27918248774E+03  0.12500000000E+03 0.  0.
         25    1    1    2    0    0  0.21852840366E+03  0.48613499459E+02  0.13462355813E+03  0.28959702682E+03  0.12500000000E+03 0.  0.
         25    1    1    2    0    0  0.14286832185E+02  0.28073317725E+02  0.28550830930E+03  0.31326062539E+03  0.12500000000E+03 0.  0.
</event>
<event>
 5    0  0.5576108E-005  0.2802154E+03  0.7546771E-02  0.1095571E+00
         21   -1    0    0  502  501  0.00000000000E+00  0.00000000000E+00  0.83315751958E+02  0.83315751958E+02  0.00000000000E+00 0. -1.
         21   -1    0    0  501  502 -0.00000000000E+00 -0.00000000000E+00 -0.94244678032E+03  0.94244678032E+03  0.00000000000E+00 0. -1.
         25    1    1    2    0    0 -0.45445081561E+02  0.87153571896E+01 -0.54538168126E+03  0.56143333633E+03  0.12500000000E+03 0.  0.
         25    1    1    2    0    0  0.66309275470E+02  0.67303995376E+02 -0.26655019791E+03  0.30919371891E+03  0.12500000000E+03 0.  0.
         25    1    1    2    0    0 -0.20864193909E+02 -0.76019352565E+02 -0.47199149195E+02  0.15513547704E+03  0.12500000000E+03 0.  0.
</event>
<event>
 5    0  0.5576108E-005  0.3654384E+03  0.7546771E-02  0.1056451E+00
         21   -1    0    0  502  501  0.00000000000E+00  0.00000000000E+00  0.47397924860E+03  0.47397924860E+03  0.00000000000E+00 0.  1.
         21   -1    0    0  501  502 -0.00000000000E+00 -0.00000000000E+00 -0.28175328825E+03  0.28175328825E+03  0.00000000000E+00 0.  1.
         25    1    1    2    0    0  0.19663341973E+02  0.20656374274E+03 -0.81489108825E+02  0.25557914956E+03  0.12500000000E+03 0.  0.
         25    1    1    2    0    0 -0.10955585406E+03 -0.34276580809E+02  0.18909737263E+03  0.25408696442E+03  0.12500000000E+03 0.  0.
         25    1    1    2    0    0  0.89892512091E+02 -0.17228716193E+03  0.84617696546E+02  0.24606642287E+03  0.12500000000E+03 0.  0.
</event>
<event>
 5    0  0.5576108E-005  0.2513840E+03  0.7546771E-02  0.1112433E+00
         21   -1    0    0  502  501  0.00000000000E+00  0.00000000000E+00  0.13062271286E+04  0.13062271286E+04  0.00000000000E+00 0.  1.
         21   -1    0    0  501  502 -0.00000000000E+00 -0.00000000000E+00 -0.48378972314E+02  0.48378972314E+02  0.00000000000E+00 0.  1.
         25    1    1    2    0    0  0.23948561867E+02  0.96607764184E+02  0.37493584607E+03  0.40756408378E+03  0.12500000000E+03 0.  0.
         25    1    1    2    0    0 -0.10227943494E+03 -0.19781662219E+02  0.30524108147E+03  0.34590390976E+03  0.12500000000E+03 0.  0.
         25    1    1    2    0    0  0.78330873072E+02 -0.76826101965E+02  0.57767122876E+03  0.60113810739E+03  0.12500000000E+03 0.  0.
</event>
<event>
 5    0  0.5576108E-005  0.3880217E+03  0.7546771E-02  0.1048008E+00
         21   -1    0    0  502  501  0.00000000000E+00  0.00000000000E+00  0.22186120346E+03  0.22186120346E+03  0.00000000000E+00 0.  1.
         21   -1    0    0  501  502 -0.00000000000E+00 -0.00000000000E+00 -0.67862609821E+03  0.67862609821E+03  0.00000000000E+00 0.  1.
         25    1    1    2    0    0  0.11212356788E+03 -0.12344038255E+03  0.10709234564E+03  0.23431387712E+03  0.12500000000E+03 0.  0.
         25    1    1    2    0    0 -0.83841014238E+02  0.15837033754E+03 -0.30444907641E+03  0.37473286433E+03  0.12500000000E+03 0.  0.
         25    1    1    2    0    0 -0.28282553640E+02 -0.34929954995E+02 -0.25940816399E+03  0.29144056022E+03  0.12500000000E+03 0.  0.
</event>
<event>
 5    0  0.5576108E-005  0.2460153E+03  0.7546771E-02  0.1115849E+00
         21   -1    0    0  502  501  0.00000000000E+00  0.00000000000E+00  0.62055530538E+02  0.62055530538E+02  0.00000000000E+00 0.  1.
         21   -1    0    0  501  502 -0.00000000000E+00 -0.00000000000E+00 -0.97531206840E+03  0.97531206840E+03  0.00000000000E+00 0.  1.
         25    1    1    2    0    0  0.37171757665E+02  0.86819031737E+02 -0.30313693719E+03  0.34122761689E+03  0.12500000000E+03 0.  0.
         25    1    1    2    0    0 -0.12196193748E+02  0.36223776687E+01 -0.94119689210E+02  0.15698848575E+03  0.12500000000E+03 0.  0.
         25    1    1    2    0    0 -0.24975563917E+02 -0.90441409406E+02 -0.51599991146E+03  0.53915149629E+03  0.12500000000E+03 0.  0.
</event>
<event>
 5    0  0.5576108E-005  0.2718756E+03  0.7546771E-02  0.1100211E+00
         21   -1    0    0  502  501  0.00000000000E+00  0.00000000000E+00  0.66030554218E+02  0.66030554218E+02  0.00000000000E+00 0.  1.
         21   -1    0    0  501  502 -0.00000000000E+00 -0.00000000000E+00 -0.11194261768E+04  0.11194261768E+04  0.00000000000E+00 0.  1.
         25    1    1    2    0    0  0.11376514138E+03 -0.57846156517E+02 -0.44803530692E+03  0.48233735234E+03  0.12500000000E+03 0.  0.
         25    1    1    2    0    0 -0.93303390792E+02  0.13285115928E+03 -0.28981289855E+03  0.35492459681E+03  0.12500000000E+03 0.  0.
         25    1    1    2    0    0 -0.20461750585E+02 -0.75005002759E+02 -0.31554741715E+03  0.34819478191E+03  0.12500000000E+03 0.  0.
</event>
<event>
 5    0  0.5576108E-005  0.5453179E+03  0.7546771E-02  0.1002583E+00
         21   -1    0    0  502  501  0.00000000000E+00  0.00000000000E+00  0.47586958019E+03  0.47586958019E+03  0.00000000000E+00 0.  1.
         21   -1    0    0  501  502 -0.00000000000E+00 -0.00000000000E+00 -0.62490142540E+03  0.62490142540E+03  0.00000000000E+00 0.  1.
         25    1    1    2    0    0  0.19611430823E+03  0.11021176238E+03 -0.39402812380E+03  0.47062789633E+03  0.12500000000E+03 0.  0.
         25    1    1    2    0    0 -0.23470324998E+03 -0.26414025523E+03  0.19284875400E+03  0.42151077318E+03  0.12500000000E+03 0.  0.
         25    1    1    2    0    0  0.38588941749E+02  0.15392849285E+03  0.52147524587E+02  0.20863233608E+03  0.12500000000E+03 0.  0.
</event>
<event>
 5    0  0.5576108E-005  0.2871196E+03  0.7546771E-02  0.1091863E+00
         21   -1    0    0  502  501  0.00000000000E+00  0.00000000000E+00  0.23488809958E+03  0.23488809958E+03  0.00000000000E+00 0. -1.
         21   -1    0    0  501  502 -0.00000000000E+00 -0.00000000000E+00 -0.35096572273E+03  0.35096572273E+03  0.00000000000E+00 0. -1.
         25    1    1    2    0    0  0.12436372290E+03 -0.52434821381E+02 -0.13550954628E+03  0.22848103466E+03  0.12500000000E+03 0.  0.
         25    1    1    2    0    0 -0.13065547893E+03  0.88059606064E+02 -0.53610315290E+02  0.20814517602E+03  0.12500000000E+03 0.  0.
         25    1    1    2    0    0  0.62917560295E+01 -0.35624784683E+02  0.73042238418E+02  0.14922761162E+03  0.12500000000E+03 0.  0.
</event>
<event>
 5    0  0.5576108E-005  0.2183168E+03  0.7546771E-02  0.1135144E+00
         21   -1    0    0  502  501  0.00000000000E+00  0.00000000000E+00  0.16457149136E+03  0.16457149136E+03  0.00000000000E+00 0.  1.
         21   -1    0    0  501  502 -0.00000000000E+00 -0.00000000000E+00 -0.28961407226E+03  0.28961407226E+03  0.00000000000E+00 0.  1.
         25    1    1    2    0    0 -0.49593400189E+02  0.57601562107E+02 -0.10762055176E+02  0.14669106016E+03  0.12500000000E+03 0.  0.
         25    1    1    2    0    0  0.74233902659E+01 -0.81949454224E+02 -0.76794336273E+02  0.16820579614E+03  0.12500000000E+03 0.  0.
         25    1    1    2    0    0  0.42170009923E+02  0.24347892117E+02 -0.37486189448E+02  0.13928870732E+03  0.12500000000E+03 0.  0.
</event>
<event>
 5    0  0.5576108E-005  0.2310660E+03  0.7546771E-02  0.1125892E+00
         21   -1    0    0  502  501  0.00000000000E+00  0.00000000000E+00  0.23946482282E+03  0.23946482282E+03  0.00000000000E+00 0.  1.
         21   -1    0    0  501  502 -0.00000000000E+00 -0.00000000000E+00 -0.22296184512E+03  0.22296184512E+03  0.00000000000E+00 0.  1.
         25    1    1    2    0    0  0.39834387550E+02  0.85625486772E+02 -0.59396246165E+02  0.16754526694E+03  0.12500000000E+03 0.  0.
         25    1    1    2    0    0 -0.32749348690E+02  0.57760655681E+01  0.43934650385E+02  0.13660576956E+03  0.12500000000E+03 0.  0.
         25    1    1    2    0    0 -0.70850388600E+01 -0.91401552340E+02  0.31964573481E+02  0.15827563143E+03  0.12500000000E+03 0.  0.
</event>
<event>
 5    0  0.5576108E-005  0.2949588E+03  0.7546771E-02  0.1087788E+00
         21   -1    0    0  502  501  0.00000000000E+00  0.00000000000E+00  0.24071491343E+03  0.24071491343E+03  0.00000000000E+00 0. -1.
         21   -1    0    0  501  502 -0.00000000000E+00 -0.00000000000E+00 -0.36142636872E+03  0.36142636872E+03  0.00000000000E+00 0. -1.
         25    1    1    2    0    0 -0.59466640782E+02  0.15768205347E+03 -0.55860614679E+02  0.21712972994E+03  0.12500000000E+03 0.  0.
         25    1    1    2    0    0 -0.81685635229E+02 -0.52701318132E+02  0.42793139088E+01  0.15840859971E+03  0.12500000000E+03 0.  0.
         25    1    1    2    0    0  0.14115227601E+03 -0.10498073534E+03 -0.69130154518E+02  0.22660295249E+03  0.12500000000E+03 0.  0.
</event>
<event>
 5    0  0.5576108E-005  0.7464640E+03  0.7546771E-02  0.9640914E-01
         21   -1    0    0  502  501  0.00000000000E+00  0.00000000000E+00  0.88214578815E+03  0.88214578815E+03  0.00000000000E+00 0.  1.
         21   -1    0    0  501  502 -0.00000000000E+00 -0.00000000000E+00 -0.63165130182E+03  0.63165130182E+03  0.00000000000E+00 0.  1.
         25    1    1    2    0    0 -0.75008902410E+02  0.11151433597E+03  0.42090263216E+02  0.18830393736E+03  0.12500000000E+03 0.  0.
         25    1    1    2    0    0  0.80658710341E+02  0.17480585524E+03  0.70352191714E+03  0.74002094732E+03  0.12500000000E+03 0.  0.
         25    1    1    2    0    0 -0.56498079305E+01 -0.28632019121E+03 -0.49511769403E+03  0.58547220529E+03  0.12500000000E+03 0.  0.
</event>
<event>
 5    0  0.5576108E-005  0.2546637E+03  0.7546771E-02  0.1110392E+00
         21   -1    0    0  502  501  0.00000000000E+00  0.00000000000E+00  0.51421813935E+03  0.51421813935E+03  0.00000000000E+00 0.  1.
         21   -1    0    0  501  502 -0.00000000000E+00 -0.00000000000E+00 -0.12612075566E+03  0.12612075566E+03  0.00000000000E+00 0.  1.
         25    1    1    2    0    0  0.47546601284E+02 -0.20471515648E+02  0.16852996630E+03  0.21611828194E+03  0.12500000000E+03 0.  0.
         25    1    1    2    0    0 -0.98678784111E+02 -0.43381901629E+02  0.21974631525E+03  0.27483255792E+03  0.12500000000E+03 0.  0.
         25    1    1    2    0    0  0.51132182827E+02  0.63853417277E+02 -0.17889786372E+00  0.14938805515E+03  0.12500000000E+03 0.  0.
</event>
<event>
 5    0  0.7750115E-005  0.4686913E+03  0.7546771E-02  0.1022290E+00
         21   -1    0    0  502  501  0.00000000000E+00  0.00000000000E+00  0.80071768101E+03  0.80071768101E+03  0.00000000000E+00 0. -1.
         21   -1    0    0  501  502 -0.00000000000E+00 -0.00000000000E+00 -0.27434331103E+03  0.27434331103E+03  0.00000000000E+00 0. -1.
         25    1    1    2    0    0  0.15035372438E+03 -0.49816879171E+02 -0.11518003501E+03  0.23233468176E+03  0.12500000000E+03 0.  0.
         25    1    1    2    0    0  0.92309890314E+02  0.14828375735E+03  0.43934666032E+03  0.48903954490E+03  0.12500000000E+03 0.  0.
         25    1    1    2    0    0 -0.24266361469E+03 -0.98466878178E+02  0.20220774467E+03  0.35368676537E+03  0.12500000000E+03 0.  0.
</event>
<event>
 5    0  0.5576108E-005  0.5998362E+03  0.7546771E-02  0.9905746E-01
         21   -1    0    0  502  501  0.00000000000E+00  0.00000000000E+00  0.31167819588E+03  0.31167819588E+03  0.00000000000E+00 0.  1.
         21   -1    0    0  501  502 -0.00000000000E+00 -0.00000000000E+00 -0.11544068774E+04  0.11544068774E+04  0.00000000000E+00 0.  1.
         25    1    1    2    0    0  0.46694638407E+03  0.50958543760E+02 -0.16137709527E+03  0.51215550925E+03  0.12500000000E+03 0.  0.
         25    1    1    2    0    0 -0.28824454568E+03  0.93499061595E+02 -0.14754386049E+03  0.35947348081E+03  0.12500000000E+03 0.  0.
         25    1    1    2    0    0 -0.17870183838E+03 -0.14445760535E+03 -0.53380772572E+03  0.59445608317E+03  0.12500000000E+03 0.  0.
</event>
<event>
 5    0  0.5576108E-005  0.4196372E+03  0.7546771E-02  0.1037184E+00
         21   -1    0    0  502  501  0.00000000000E+00  0.00000000000E+00  0.21577393077E+03  0.21577393077E+03  0.00000000000E+00 0.  1.
         21   -1    0    0  501  502 -0.00000000000E+00 -0.00000000000E+00 -0.81611035670E+03  0.81611035670E+03  0.00000000000E+00 0.  1.
         25    1    1    2    0    0 -0.86981839942E+02 -0.26020672406E+03  0.16792795816E+02  0.30196088773E+03  0.12500000000E+03 0.  0.
         25    1    1    2    0    0  0.55262614538E+02  0.17564934191E+03 -0.26874812845E+03  0.34893724998E+03  0.12500000000E+03 0.  0.
         25    1    1    2    0    0  0.31719225404E+02  0.84557382159E+02 -0.34838109330E+03  0.38098614976E+03  0.12500000000E+03 0.  0.
</event>
<event>
 5    0  0.5576108E-005  0.3297997E+03  0.7546771E-02  0.1071226E+00
         21   -1    0    0  502  501  0.00000000000E+00  0.00000000000E+00  0.52755217530E+03  0.52755217530E+03  0.00000000000E+00 0.  1.
         21   -1    0    0  501  502 -0.00000000000E+00 -0.00000000000E+00 -0.20617461627E+03  0.20617461627E+03  0.00000000000E+00 0.  1.
         25    1    1    2    0    0 -0.14065181751E+03 -0.34803323248E+02  0.42260946706E+02  0.19597242841E+03  0.12500000000E+03 0.  0.
         25    1    1    2    0    0  0.22550562707E+03 -0.79898890025E+02  0.16101638229E+03  0.31430541808E+03  0.12500000000E+03 0.  0.
         25    1    1    2    0    0 -0.84853809561E+02  0.11470221327E+03  0.11810023003E+03  0.22344894508E+03  0.12500000000E+03 0.  0.
</event>
<event>
 5    0  0.5576108E-005  0.5742718E+03  0.7546771E-02  0.9960270E-01
         21   -1    0    0  502  501  0.00000000000E+00  0.00000000000E+00  0.25988587347E+03  0.25988587347E+03  0.00000000000E+00 0. -1.
         21   -1    0    0  501  502 -0.00000000000E+00 -0.00000000000E+00 -0.12689727576E+04  0.12689727576E+04  0.00000000000E+00 0. -1.
         25    1    1    2    0    0 -0.19252797630E+03 -0.20718979850E+03 -0.32123277041E+03  0.44588129255E+03  0.12500000000E+03 0.  0.
         25    1    1    2    0    0  0.33919922084E+02  0.28830777094E+03  0.44308623381E+02  0.31915542609E+03  0.12500000000E+03 0.  0.
         25    1    1    2    0    0  0.15860805422E+03 -0.81117972438E+02 -0.73216273709E+03  0.76382191242E+03  0.12500000000E+03 0.  0.
</event>
<event>
 5    0  0.5576108E-005  0.5359083E+03  0.7546771E-02  0.1004809E+00
         21   -1    0    0  502  501  0.00000000000E+00  0.00000000000E+00  0.12709194718E+03  0.12709194718E+03  0.00000000000E+00 0.  1.
         21   -1    0    0  501  502 -0.00000000000E+00 -0.00000000000E+00 -0.22597631437E+04  0.22597631437E+04  0.00000000000E+00 0.  1.
         25    1    1    2    0    0 -0.55071409985E+02  0.12051602421E+01 -0.82960033877E+03  0.84077109530E+03  0.12500000000E+03 0.  0.
         25    1    1    2    0    0  0.40557087429E+02  0.37011627571E+02 -0.13846218882E+04  0.13913365917E+04  0.12500000000E+03 0.  0.
         25    1    1    2    0    0  0.14514322556E+02 -0.38216787814E+02  0.81551030515E+02  0.15474740388E+03  0.12500000000E+03 0.  0.
</event>
<event>
 5    0  0.5576108E-005  0.2338137E+03  0.7546771E-02  0.1123984E+00
         21   -1    0    0  502  501  0.00000000000E+00  0.00000000000E+00  0.39241069608E+03  0.39241069608E+03  0.00000000000E+00 0.  1.
         21   -1    0    0  501  502 -0.00000000000E+00 -0.00000000000E+00 -0.13931540072E+03  0.13931540072E+03  0.00000000000E+00 0.  1.
         25    1    1    2    0    0  0.74656804438E+02 -0.20917146334E+02  0.35245257850E+02  0.15125605330E+03  0.12500000000E+03 0.  0.
         25    1    1    2    0    0 -0.87354477312E+02  0.16842688872E+02  0.20215666650E+03  0.25378494574E+03  0.12500000000E+03 0.  0.
         25    1    1    2    0    0  0.12697672874E+02  0.40744574624E+01  0.15693371006E+02  0.12668509776E+03  0.12500000000E+03 0.  0.
</event>
<event>
 5    0  0.5576108E-005  0.3230501E+03  0.7546771E-02  0.1074254E+00
         21   -1    0    0  502  501  0.00000000000E+00  0.00000000000E+00  0.17945337857E+03  0.17945337857E+03  0.00000000000E+00 0. -1.
         21   -1    0    0  501  502 -0.00000000000E+00 -0.00000000000E+00 -0.58155133560E+03  0.58155133560E+03  0.00000000000E+00 0. -1.
         25    1    1    2    0    0 -0.13719028188E+03 -0.55029449554E+01 -0.27543467688E+03  0.33217573222E+03  0.12500000000E+03 0.  0.
         25    1    1    2    0    0  0.31491504549E+02 -0.43781748675E+02  0.82116225586E+02  0.15898626004E+03  0.12500000000E+03 0.  0.
         25    1    1    2    0    0  0.10569877733E+03  0.49284693631E+02 -0.20877950573E+03  0.26984272191E+03  0.12500000000E+03 0.  0.
</event>
<event>
 5    0  0.5576108E-005  0.6658247E+03  0.7546771E-02  0.9777530E-01
         21   -1    0    0  502  501  0.00000000000E+00  0.00000000000E+00  0.10113792704E+04  0.10113792704E+04  0.00000000000E+00 0.  1.
         21   -1    0    0  501  502 -0.00000000000E+00 -0.00000000000E+00 -0.43833465741E+03  0.43833465741E+03  0.00000000000E+00 0.  1.
         25    1    1    2    0    0  0.24851539885E+02 -0.78124309991E+02  0.24017795881E+03  0.28289831874E+03  0.12500000000E+03 0.  0.
         25    1    1    2    0    0 -0.19701860097E+03 -0.34862230524E+03 -0.18882200732E+03  0.46003542395E+03  0.12500000000E+03 0.  0.
         25    1    1    2    0    0  0.17216706109E+03  0.42674661523E+03  0.52168866147E+03  0.70678018509E+03  0.12500000000E+03 0.  0.
</event>
<event>
 5    0  0.5576108E-005  0.3097724E+03  0.7546771E-02  0.1080455E+00
         21   -1    0    0  502  501  0.00000000000E+00  0.00000000000E+00  0.24229857272E+03  0.24229857272E+03  0.00000000000E+00 0. -1.
         21   -1    0    0  501  502 -0.00000000000E+00 -0.00000000000E+00 -0.39603594861E+03  0.39603594861E+03  0.00000000000E+00 0. -1.
         25    1    1    2    0    0  0.10954139595E+03 -0.36473714254E+02  0.14460311202E+03  0.22330407355E+03  0.12500000000E+03 0.  0.
         25    1    1    2    0    0 -0.14446464674E+02  0.25426338274E+02 -0.16243259267E+03  0.20703754775E+03  0.12500000000E+03 0.  0.
         25    1    1    2    0    0 -0.95094931281E+02  0.11047375981E+02 -0.13590789524E+03  0.20799290002E+03  0.12500000000E+03 0.  0.
</event>
<event>
 5    0  0.5576108E-005  0.3317448E+03  0.7546771E-02  0.1070367E+00
         21   -1    0    0  502  501  0.00000000000E+00  0.00000000000E+00  0.11280393887E+03  0.11280393887E+03  0.00000000000E+00 0. -1.
         21   -1    0    0  501  502 -0.00000000000E+00 -0.00000000000E+00 -0.97562768136E+03  0.97562768136E+03  0.00000000000E+00 0. -1.
         25    1    1    2    0    0  0.56516623945E+02  0.21938371729E+03 -0.32862656768E+03  0.41826279440E+03  0.12500000000E+03 0.  0.
         25    1    1    2    0    0  0.18889932367E+02 -0.22023869239E+03 -0.38682084797E+03  0.46272808386E+03  0.12500000000E+03 0.  0.
         25    1    1    2    0    0 -0.75406556312E+02  0.85497510019E+00 -0.14737632684E+03  0.20744074197E+03  0.12500000000E+03 0.  0.
</event>
<event>
 5    0  0.5576108E-005  0.2764859E+03  0.7546771E-02  0.1097624E+00
         21   -1    0    0  502  501  0.00000000000E+00  0.00000000000E+00  0.58705708131E+02  0.58705708131E+02  0.00000000000E+00 0.  1.
         21   -1    0    0  501  502 -0.00000000000E+00 -0.00000000000E+00 -0.13021637239E+04  0.13021637239E+04  0.00000000000E+00 0.  1.
         25    1    1    2    0    0  0.72881430431E+02  0.24839440084E+02 -0.52719186596E+03  0.54725219435E+03  0.12500000000E+03 0.  0.
         25    1    1    2    0    0  0.26806807585E+01  0.12490570413E+03 -0.32558148333E+03  0.37045502191E+03  0.12500000000E+03 0.  0.
         25    1    1    2    0    0 -0.75562111189E+02 -0.14974514421E+03 -0.39068466645E+03  0.44316221574E+03  0.12500000000E+03 0.  0.
</event>
<event>
 5    0  0.5576108E-005  0.3029181E+03  0.7546771E-02  0.1083791E+00
         21   -1    0    0  502  501  0.00000000000E+00  0.00000000000E+00  0.70788334964E+03  0.70788334964E+03  0.00000000000E+00 0.  1.
         21   -1    0    0  501  502 -0.00000000000E+00 -0.00000000000E+00 -0.12962499296E+03  0.12962499296E+03  0.00000000000E+00 0.  1.
         25    1    1    2    0    0 -0.11847899792E+03 -0.15279299284E+03  0.13042320442E+03  0.26460949314E+03  0.12500000000E+03 0.  0.
         25    1    1    2    0    0  0.33760974677E+02  0.15291884811E+03  0.20293627016E+03  0.28518784558E+03  0.12500000000E+03 0.  0.
         25    1    1    2    0    0  0.84718023240E+02 -0.12585526623E+00  0.24489888210E+03  0.28771100388E+03  0.12500000000E+03 0.  0.
</event>
<event>
 5    0  0.5576108E-005  0.3345526E+03  0.7546771E-02  0.1069140E+00
         21   -1    0    0  502  501  0.00000000000E+00  0.00000000000E+00  0.11770554573E+03  0.11770554573E+03  0.00000000000E+00 0. -1.
         21   -1    0    0  501  502 -0.00000000000E+00 -0.00000000000E+00 -0.95089334251E+03  0.95089334251E+03  0.00000000000E+00 0. -1.
         25    1    1    2    0    0  0.16783011452E+03  0.14309463826E+03 -0.54775345943E+03  0.60357424991E+03  0.12500000000E+03 0.  0.
         25    1    1    2    0    0 -0.10359657055E+03 -0.64834269544E+02 -0.53598667147E+02  0.18284843192E+03  0.12500000000E+03 0.  0.
         25    1    1    2    0    0 -0.64233543971E+02 -0.78260368714E+02 -0.23183567021E+03  0.28217620641E+03  0.12500000000E+03 0.  0.
</event>
<event>
 5    0  0.5576108E-005  0.3003906E+03  0.7546771E-02  0.1085046E+00
         21   -1    0    0  502  501  0.00000000000E+00  0.00000000000E+00  0.91903715545E+03  0.91903715545E+03  0.00000000000E+00 0. -1.
         21   -1    0    0  501  502 -0.00000000000E+00 -0.00000000000E+00 -0.98183746386E+02  0.98183746386E+02  0.00000000000E+00 0. -1.
         25    1    1    2    0    0  0.35703879026E+02  0.75010575296E+02  0.51723663589E+03  0.53857227081E+03  0.12500000000E+03 0.  0.
         25    1    1    2    0    0  0.90023816022E+02  0.99659902974E+01  0.60050241747E+02  0.16563405431E+03  0.12500000000E+03 0.  0.
         25    1    1    2    0    0 -0.12572769505E+03 -0.84976565593E+02  0.24356653143E+03  0.31301457672E+03  0.12500000000E+03 0.  0.
</event>
<event>
 5    0  0.5576108E-005  0.3102360E+03  0.7546771E-02  0.1080233E+00
         21   -1    0    0  502  501  0.00000000000E+00  0.00000000000E+00  0.20536608105E+04  0.20536608105E+04  0.00000000000E+00 0.  1.
         21   -1    0    0  501  502 -0.00000000000E+00 -0.00000000000E+00 -0.46865752278E+02  0.46865752278E+02  0.00000000000E+00 0.  1.
         25    1    1    2    0    0 -0.16303835099E+02 -0.10802105256E+03  0.82514589511E+03  0.84167993385E+03  0.12500000000E+03 0.  0.
         25    1    1    2    0    0  0.35561951611E+02  0.15697118750E+02  0.96933517104E+02  0.16288695061E+03  0.12500000000E+03 0.  0.
         25    1    1    2    0    0 -0.19258116512E+02  0.92323933811E+02  0.10847156460E+04  0.10959596784E+04  0.12500000000E+03 0.  0.
</event>
<event>
 5    0  0.5576108E-005  0.4092952E+03  0.7546771E-02  0.1040608E+00
         21   -1    0    0  502  501  0.00000000000E+00  0.00000000000E+00  0.51168957935E+03  0.51168957935E+03  0.00000000000E+00 0. -1.
         21   -1    0    0  501  502 -0.00000000000E+00 -0.00000000000E+00 -0.32739103568E+03  0.32739103568E+03  0.00000000000E+00 0. -1.
         25    1    1    2    0    0 -0.11912419935E+03 -0.10562403197E+03 -0.49275748986E+02  0.20832693162E+03  0.12500000000E+03 0.  0.
         25    1    1    2    0    0  0.10824195826E+03  0.19284293663E+03  0.35433695323E+03  0.43598669264E+03  0.12500000000E+03 0.  0.
         25    1    1    2    0    0  0.10882241098E+02 -0.87218904659E+02 -0.12076266058E+03  0.19476699077E+03  0.12500000000E+03 0.  0.
</event>
<event>
 5    0  0.5576108E-005  0.2801630E+03  0.7546771E-02  0.1095600E+00
         21   -1    0    0  502  501  0.00000000000E+00  0.00000000000E+00  0.81916360894E+03  0.81916360894E+03  0.00000000000E+00 0.  1.
         21   -1    0    0  501  502 -0.00000000000E+00 -0.00000000000E+00 -0.95818853298E+02  0.95818853298E+02  0.00000000000E+00 0.  1.
         25    1    1    2    0    0  0.13223148530E+03  0.10029728603E+03  0.42128903381E+03  0.46973839666E+03  0.12500000000E+03 0.  0.
         25    1    1    2    0    0 -0.54953549752E+01 -0.31111969170E+02  0.77390249176E+02  0.15037421394E+03  0.12500000000E+03 0.  0.
         25    1    1    2    0    0 -0.12673613032E+03 -0.69185316857E+02  0.22466547266E+03  0.29486985164E+03  0.12500000000E+03 0.  0.
</event>
<event>
 5    0  0.5576108E-005  0.4066227E+03  0.7546771E-02  0.1041510E+00
         21   -1    0    0  502  501  0.00000000000E+00  0.00000000000E+00  0.29042595510E+03  0.29042595510E+03  0.00000000000E+00 0. -1.
         21   -1    0    0  501  502 -0.00000000000E+00 -0.00000000000E+00 -0.56930869711E+03  0.56930869711E+03  0.00000000000E+00 0. -1.
         25    1    1    2    0    0 -0.22744407144E+03 -0.85919853027E+02  0.10706618048E+03  0.29360039813E+03  0.12500000000E+03 0.  0.
         25    1    1    2    0    0  0.36691972762E+02  0.57161205055E+02 -0.34830339344E+02  0.14646452392E+03  0.12500000000E+03 0.  0.
         25    1    1    2    0    0  0.19075209868E+03  0.28758647972E+02 -0.35111858314E+03  0.41966973016E+03  0.12500000000E+03 0.  0.
</event>
<event>
 5    0  0.5576108E-005  0.3053825E+03  0.7546771E-02  0.1082580E+00
         21   -1    0    0  502  501  0.00000000000E+00  0.00000000000E+00  0.79133448945E+03  0.79133448945E+03  0.00000000000E+00 0.  1.
         21   -1    0    0  501  502 -0.00000000000E+00 -0.00000000000E+00 -0.11784962605E+03  0.11784962605E+03  0.00000000000E+00 0.  1.
         25    1    1    2    0    0  0.10456236677E+02  0.87366164158E+01  0.41231283519E+03  0.43105978172E+03  0.12500000000E+03 0.  0.
         25    1    1    2    0    0  0.80514152598E+02 -0.13483747208E+03  0.12228868412E+03  0.23503870938E+03  0.12500000000E+03 0.  0.
         25    1    1    2    0    0 -0.90970389275E+02  0.12610085566E+03  0.13888334409E+03  0.24308562440E+03  0.12500000000E+03 0.  0.
</event>
<event>
 5    0  0.5576108E-005  0.2636883E+03  0.7546771E-02  0.1104947E+00
         21   -1    0    0  502  501  0.00000000000E+00  0.00000000000E+00  0.89214673468E+03  0.89214673468E+03  0.00000000000E+00 0.  1.
         21   -1    0    0  501  502 -0.00000000000E+00 -0.00000000000E+00 -0.77937312851E+02  0.77937312851E+02  0.00000000000E+00 0.  1.
         25    1    1    2    0    0 -0.39101142886E+02 -0.11916041365E+03  0.21432106829E+03  0.27800471915E+03  0.12500000000E+03 0.  0.
         25    1    1    2    0    0  0.20236536615E+02  0.10007268565E+03  0.51225640450E+03  0.53708070509E+03  0.12500000000E+03 0.  0.
         25    1    1    2    0    0  0.18864606272E+02  0.19087728004E+02  0.87631949037E+02  0.15499862329E+03  0.12500000000E+03 0.  0.
</event>
<event>
 5    0  0.5576108E-005  0.2265608E+03  0.7546771E-02  0.1129084E+00
         21   -1    0    0  502  501  0.00000000000E+00  0.00000000000E+00  0.32581570658E+03  0.32581570658E+03  0.00000000000E+00 0.  1.
         21   -1    0    0  501  502 -0.00000000000E+00 -0.00000000000E+00 -0.15754247234E+03  0.15754247234E+03  0.00000000000E+00 0.  1.
         25    1    1    2    0    0  0.31744400057E+02  0.78466254912E+02  0.25757797334E+02  0.15314412891E+03  0.12500000000E+03 0.  0.
         25    1    1    2    0    0  0.38339842792E+02 -0.45974894290E+02  0.22335748424E+02  0.14038347520E+03  0.12500000000E+03 0.  0.
         25    1    1    2    0    0 -0.70084242849E+02 -0.32491360622E+02  0.12017968849E+03  0.18983057482E+03  0.12500000000E+03 0.  0.
</event>
<event>
 5    0  0.5576108E-005  0.2274934E+03  0.7546771E-02  0.1128417E+00
         21   -1    0    0  502  501  0.00000000000E+00  0.00000000000E+00  0.11807620928E+03  0.11807620928E+03  0.00000000000E+00 0. -1.
         21   -1    0    0  501  502 -0.00000000000E+00 -0.00000000000E+00 -0.43830364058E+03  0.43830364058E+03  0.00000000000E+00 0. -1.
         25    1    1    2    0    0 -0.54205003329E+02 -0.87994665488E+02 -0.18540520146E+03  0.24633581199E+03  0.12500000000E+03 0.  0.
         25    1    1    2    0    0 -0.27412805096E+01  0.26214519965E+02 -0.73831350382E+02  0.14754925949E+03  0.12500000000E+03 0.  0.
         25    1    1    2    0    0  0.56946283839E+02  0.61780145523E+02 -0.60990879461E+02  0.16249477838E+03  0.12500000000E+03 0.  0.
</event>
<event>
 5    0  0.5576108E-005  0.2542587E+03  0.7546771E-02  0.1110643E+00
         21   -1    0    0  502  501  0.00000000000E+00  0.00000000000E+00  0.15968447980E+03  0.15968447980E+03  0.00000000000E+00 0. -1.
         21   -1    0    0  501  502 -0.00000000000E+00 -0.00000000000E+00 -0.40484513505E+03  0.40484513505E+03  0.00000000000E+00 0. -1.
         25    1    1    2    0    0 -0.29707123219E+02  0.96745177729E+02  0.36250957704E+02  0.16486744530E+03  0.12500000000E+03 0.  0.
         25    1    1    2    0    0 -0.11304937234E+02 -0.70568088152E+02 -0.18520674858E+03  0.23459368361E+03  0.12500000000E+03 0.  0.
         25    1    1    2    0    0  0.41012060453E+02 -0.26177089577E+02 -0.96204864376E+02  0.16506848594E+03  0.12500000000E+03 0.  0.
</event>
<event>
 5    0  0.5576108E-005  0.3988913E+03  0.7546771E-02  0.1044164E+00
         21   -1    0    0  502  501  0.00000000000E+00  0.00000000000E+00  0.34348566642E+03  0.34348566642E+03  0.00000000000E+00 0. -1.
         21   -1    0    0  501  502 -0.00000000000E+00 -0.00000000000E+00 -0.46323397210E+03  0.46323397210E+03  0.00000000000E+00 0. -1.
         25    1    1    2    0    0  0.44893279089E+02 -0.10113528503E+03 -0.38229261393E+03  0.41715272389E+03  0.12500000000E+03 0.  0.
         25    1    1    2    0    0  0.80459189624E+01  0.47786119694E+02  0.17129266711E+03  0.21751879885E+03  0.12500000000E+03 0.  0.
         25    1    1    2    0    0 -0.52939198052E+02  0.53349165335E+02  0.91251641133E+02  0.17204811578E+03  0.12500000000E+03 0.  0.
</event>
<event>
 5    0  0.5576108E-005  0.5814655E+03  0.7546771E-02  0.9944623E-01
         21   -1    0    0  502  501  0.00000000000E+00  0.00000000000E+00  0.57641489032E+03  0.57641489032E+03  0.00000000000E+00 0. -1.
         21   -1    0    0  501  502 -0.00000000000E+00 -0.00000000000E+00 -0.58656045930E+03  0.58656045930E+03  0.00000000000E+00 0. -1.
         25    1    1    2    0    0  0.35190121330E+02 -0.16940923099E+03  0.14945761661E+03  0.26057707371E+03  0.12500000000E+03 0.  0.
         25    1    1    2    0    0  0.28496655999E+03 -0.20713431448E+03 -0.11269801545E+03  0.39043105311E+03  0.12500000000E+03 0.  0.
         25    1    1    2    0    0 -0.32015668132E+03  0.37654354547E+03 -0.46905170133E+02  0.51196722279E+03  0.12500000000E+03 0.  0.
</event>
<event>
 5    0  0.5576108E-005  0.2445994E+03  0.7546771E-02  0.1116766E+00
         21   -1    0    0  502  501  0.00000000000E+00  0.00000000000E+00  0.18080565029E+03  0.18080565029E+03  0.00000000000E+00 0. -1.
         21   -1    0    0  501  502 -0.00000000000E+00 -0.00000000000E+00 -0.33090146281E+03  0.33090146281E+03  0.00000000000E+00 0. -1.
         25    1    1    2    0    0 -0.39006370294E+02 -0.75971975208E+02 -0.18970073067E+02  0.15257162781E+03  0.12500000000E+03 0.  0.
         25    1    1    2    0    0  0.44992008736E+02 -0.40384689852E+02  0.75609937317E+01  0.13905888196E+03  0.12500000000E+03 0.  0.
         25    1    1    2    0    0 -0.59856384420E+01  0.11635666506E+03 -0.13868673319E+03  0.22007660333E+03  0.12500000000E+03 0.  0.
</event>
<event>
 5    0  0.5576108E-005  0.3494693E+03  0.7546771E-02  0.1062833E+00
         21   -1    0    0  502  501  0.00000000000E+00  0.00000000000E+00  0.76207417931E+02  0.76207417931E+02  0.00000000000E+00 0.  1.
         21   -1    0    0  501  502 -0.00000000000E+00 -0.00000000000E+00 -0.16025835840E+04  0.16025835840E+04  0.00000000000E+00 0.  1.
         25    1    1    2    0    0 -0.11175622799E+03  0.25478776849E+02 -0.28883773365E+03  0.33494903933E+03  0.12500000000E+03 0.  0.
         25    1    1    2    0    0  0.11140128471E+03  0.19932100751E+03 -0.51841100442E+03  0.58009833629E+03  0.12500000000E+03 0.  0.
         25    1    1    2    0    0  0.35494327867E+00 -0.22479978436E+03 -0.71912742805E+03  0.76374362636E+03  0.12500000000E+03 0.  0.
</event>
<event>
 5    0  0.5576108E-005  0.2455841E+03  0.7546771E-02  0.1116128E+00
         21   -1    0    0  502  501  0.00000000000E+00  0.00000000000E+00  0.11965469449E+03  0.11965469449E+03  0.00000000000E+00 0.  1.
         21   -1    0    0  501  502 -0.00000000000E+00 -0.00000000000E+00 -0.50404684463E+03  0.50404684463E+03  0.00000000000E+00 0.  1.
         25    1    1    2    0    0 -0.32763647363E+01 -0.39734743654E+02 -0.46990468821E+02  0.13936530622E+03  0.12500000000E+03 0.  0.
         25    1    1    2    0    0 -0.14991076643E+02 -0.86294267076E+02 -0.23008637406E+03  0.27610898652E+03  0.12500000000E+03 0.  0.
         25    1    1    2    0    0  0.18267441380E+02  0.12602901073E+03 -0.10731530726E+03  0.20822724637E+03  0.12500000000E+03 0.  0.
</event>
<event>
 5    0  0.5576108E-005  0.2576233E+03  0.7546771E-02  0.1108580E+00
         21   -1    0    0  502  501  0.00000000000E+00  0.00000000000E+00  0.80144871973E+02  0.80144871973E+02  0.00000000000E+00 0. -1.
         21   -1    0    0  501  502 -0.00000000000E+00 -0.00000000000E+00 -0.82812264604E+03  0.82812264604E+03  0.00000000000E+00 0. -1.
         25    1    1    2    0    0 -0.45041020454E+02  0.37752121266E+02 -0.37925436232E+02  0.14323845467E+03  0.12500000000E+03 0.  0.
         25    1    1    2    0    0  0.44401903684E+02  0.48370254505E+01 -0.49655034394E+03  0.51398654645E+03  0.12500000000E+03 0.  0.
         25    1    1    2    0    0  0.63911676957E+00 -0.42589146717E+02 -0.21350199389E+03  0.25104251689E+03  0.12500000000E+03 0.  0.
</event>
<event>
 5    0  0.5576108E-005  0.3139437E+03  0.7546771E-02  0.1078471E+00
         21   -1    0    0  502  501  0.00000000000E+00  0.00000000000E+00  0.46276035771E+03  0.46276035771E+03  0.00000000000E+00 0.  1.
         21   -1    0    0  501  502 -0.00000000000E+00 -0.00000000000E+00 -0.21298418179E+03  0.21298418179E+03  0.00000000000E+00 0.  1.
         25    1    1    2    0    0  0.12022887402E+02 -0.10081529453E+03  0.22252202214E+02  0.16256824394E+03  0.12500000000E+03 0.  0.
         25    1    1    2    0    0 -0.65771069872E+02  0.21588277339E+03  0.52244556760E+02  0.26322176808E+03  0.12500000000E+03 0.  0.
         25    1    1    2    0    0  0.53748182469E+02 -0.11506747886E+03  0.17527941694E+03  0.24995452749E+03  0.12500000000E+03 0.  0.
</event>
<event>
 5    0  0.5576108E-005  0.3007631E+03  0.7546771E-02  0.1084860E+00
         21   -1    0    0  502  501  0.00000000000E+00  0.00000000000E+00  0.28604179436E+03  0.28604179436E+03  0.00000000000E+00 0. -1.
         21   -1    0    0  501  502 -0.00000000000E+00 -0.00000000000E+00 -0.31624211980E+03  0.31624211980E+03  0.00000000000E+00 0. -1.
         25    1    1    2    0    0  0.44129724201E+02  0.12258133703E+03 -0.15013059172E+03  0.23481441889E+03  0.12500000000E+03 0.  0.
         25    1    1    2    0    0 -0.21878591195E+02 -0.30198999638E+02 -0.46665443441E+02  0.13853994349E+03  0.12500000000E+03 0.  0.
         25    1    1    2    0    0 -0.22251133006E+02 -0.92382337387E+02  0.16659570972E+03  0.22892955178E+03  0.12500000000E+03 0.  0.
</event>
<event>
 5    0  0.5576108E-005  0.4749398E+03  0.7546771E-02  0.1020535E+00
         21   -1    0    0  502  501  0.00000000000E+00  0.00000000000E+00  0.24680838839E+03  0.24680838839E+03  0.00000000000E+00 0.  1.
         21   -1    0    0  501  502 -0.00000000000E+00 -0.00000000000E+00 -0.91393914452E+03  0.91393914452E+03  0.00000000000E+00 0.  1.
         25    1    1    2    0    0  0.34477202335E+02  0.76511611484E+02 -0.57013524026E+02  0.16099144727E+03  0.12500000000E+03 0.  0.
         25    1    1    2    0    0 -0.26884556671E+03  0.17056373257E+03 -0.52588980576E+03  0.62733963163E+03  0.12500000000E+03 0.  0.
         25    1    1    2    0    0  0.23436836438E+03 -0.24707534406E+03 -0.84227426343E+02  0.37241645400E+03  0.12500000000E+03 0.  0.
</event>
<event>
 5    0  0.5576108E-005  0.4403776E+03  0.7546771E-02  0.1030631E+00
         21   -1    0    0  502  501  0.00000000000E+00  0.00000000000E+00  0.30280798748E+03  0.30280798748E+03  0.00000000000E+00 0.  1.
         21   -1    0    0  501  502 -0.00000000000E+00 -0.00000000000E+00 -0.64044683132E+03  0.64044683132E+03  0.00000000000E+00 0.  1.
         25    1    1    2    0    0  0.24411522778E+03  0.66996950681E+01  0.15683426826E+03  0.31600493358E+03  0.12500000000E+03 0.  0.
         25    1    1    2    0    0 -0.19229679320E+03  0.52009081202E+02 -0.34246831880E+03  0.41544259602E+03  0.12500000000E+03 0.  0.
         25    1    1    2    0    0 -0.51818434581E+02 -0.58708776270E+02 -0.15200479329E+03  0.21180728919E+03  0.12500000000E+03 0.  0.
</event>
<event>
 5    0  0.5576108E-005  0.2295636E+03  0.7546771E-02  0.1126947E+00
         21   -1    0    0  502  501  0.00000000000E+00  0.00000000000E+00  0.20159167243E+03  0.20159167243E+03  0.00000000000E+00 0.  1.
         21   -1    0    0  501  502 -0.00000000000E+00 -0.00000000000E+00 -0.26141671516E+03  0.26141671516E+03  0.00000000000E+00 0.  1.
         25    1    1    2    0    0 -0.17933977646E+02  0.64934333839E+02 -0.11346758174E+02  0.14244944432E+03  0.12500000000E+03 0.  0.
         25    1    1    2    0    0  0.58861420993E+02 -0.10647649177E+03 -0.24029111467E+00  0.17443327641E+03  0.12500000000E+03 0.  0.
         25    1    1    2    0    0 -0.40927443347E+02  0.41542157928E+02 -0.48237993434E+02  0.14612566686E+03  0.12500000000E+03 0.  0.
</event>
<event>
 5    0  0.5576108E-005  0.3515853E+03  0.7546771E-02  0.1061966E+00
         21   -1    0    0  502  501  0.00000000000E+00  0.00000000000E+00  0.49075120696E+03  0.49075120696E+03  0.00000000000E+00 0. -1.
         21   -1    0    0  501  502 -0.00000000000E+00 -0.00000000000E+00 -0.25188372881E+03  0.25188372881E+03  0.00000000000E+00 0. -1.
         25    1    1    2    0    0 -0.62396157543E+02 -0.78527922188E+02 -0.16405214253E+03  0.22934258329E+03  0.12500000000E+03 0.  0.
         25    1    1    2    0    0  0.91490515195E+02  0.65038498527E+01  0.28604186589E+03  0.32535790059E+03  0.12500000000E+03 0.  0.
         25    1    1    2    0    0 -0.29094357652E+02  0.72024072335E+02  0.11687775479E+03  0.18793445189E+03  0.12500000000E+03 0.  0.
</event>
<event>
 5    0  0.5576108E-005  0.5908230E+03  0.7546771E-02  0.9924631E-01
         21   -1    0    0  502  501  0.00000000000E+00  0.00000000000E+00  0.10545320924E+04  0.10545320924E+04  0.00000000000E+00 0. -1.
         21   -1    0    0  501  502 -0.00000000000E+00 -0.00000000000E+00 -0.33102052951E+03  0.33102052951E+03  0.00000000000E+00 0. -1.
         25    1    1    2    0    0 -0.40207500764E+03  0.18374536994E+02  0.13531042863E+03  0.44264641360E+03  0.12500000000E+03 0.  0.
         25    1    1    2    0    0  0.43453925550E+03 -0.19088773566E+03  0.52420113011E+03  0.71810466995E+03  0.12500000000E+03 0.  0.
         25    1    1    2    0    0 -0.32464247864E+02  0.17251319866E+03  0.64000004107E+02  0.22480153831E+03  0.12500000000E+03 0.  0.
</event>
<event>
 5    0  0.5576108E-005  0.2967054E+03  0.7546771E-02  0.1086899E+00
         21   -1    0    0  502  501  0.00000000000E+00  0.00000000000E+00  0.95930936927E+02  0.95930936927E+02  0.00000000000E+00 0. -1.
         21   -1    0    0  501  502 -0.00000000000E+00 -0.00000000000E+00 -0.91768228679E+03  0.91768228679E+03  0.00000000000E+00 0. -1.
         25    1    1    2    0    0 -0.38443197558E+02  0.89496553809E+02 -0.29536501356E+03  0.33519099603E+03  0.12500000000E+03 0.  0.
         25    1    1    2    0    0  0.13671969145E+02 -0.38551410172E+02  0.29798093449E+01  0.13155612198E+03  0.12500000000E+03 0.  0.
         25    1    1    2    0    0  0.24771228413E+02 -0.50945143637E+02 -0.52936614565E+03  0.54686610571E+03  0.12500000000E+03 0.  0.
</event>
<event>
 5    0  0.5576108E-005  0.3738536E+03  0.7546771E-02  0.1053229E+00
         21   -1    0    0  502  501  0.00000000000E+00  0.00000000000E+00  0.19913768034E+03  0.19913768034E+03  0.00000000000E+00 0. -1.
         21   -1    0    0  501  502 -0.00000000000E+00 -0.00000000000E+00 -0.70185873920E+03  0.70185873920E+03  0.00000000000E+00 0. -1.
         25    1    1    2    0    0  0.12514553112E+03  0.17819868465E+03 -0.44577102998E+03  0.51161800823E+03  0.12500000000E+03 0.  0.
         25    1    1    2    0    0  0.17589801387E+02 -0.69898712255E+02  0.40934450959E+02  0.14998620058E+03  0.12500000000E+03 0.  0.
         25    1    1    2    0    0 -0.14273533251E+03 -0.10829997240E+03 -0.97884479835E+02  0.23939221073E+03  0.12500000000E+03 0.  0.
</event>
<event>
 5    0  0.5576108E-005  0.3887608E+03  0.7546771E-02  0.1047742E+00
         21   -1    0    0  502  501  0.00000000000E+00  0.00000000000E+00  0.62475860421E+03  0.62475860421E+03  0.00000000000E+00 0. -1.
         21   -1    0    0  501  502 -0.00000000000E+00 -0.00000000000E+00 -0.24190938047E+03  0.24190938047E+03  0.00000000000E+00 0. -1.
         25    1    1    2    0    0 -0.95241840239E+02 -0.46656061989E+02  0.14887953162E+03  0.22144505230E+03  0.12500000000E+03 0.  0.
         25    1    1    2    0    0  0.22922418134E+03  0.21453249878E+03  0.63440488291E+02  0.34382788412E+03  0.12500000000E+03 0.  0.
         25    1    1    2    0    0 -0.13398234110E+03 -0.16787643679E+03  0.17052920383E+03  0.30139504826E+03  0.12500000000E+03 0.  0.
</event>
<event>
 5    0  0.5576108E-005  0.3523162E+03  0.7546771E-02  0.1061668E+00
         21   -1    0    0  502  501  0.00000000000E+00  0.00000000000E+00  0.15526702589E+03  0.15526702589E+03  0.00000000000E+00 0. -1.
         21   -1    0    0  501  502 -0.00000000000E+00 -0.00000000000E+00 -0.79944021134E+03  0.79944021134E+03  0.00000000000E+00 0. -1.
         25    1    1    2    0    0  0.17573871144E+03 -0.46695332590E+02 -0.15789767791E+03  0.27133231557E+03  0.12500000000E+03 0.  0.
         25    1    1    2    0    0 -0.20438157289E+03 -0.79617157839E+02 -0.42293615893E+03  0.49255528998E+03  0.12500000000E+03 0.  0.
         25    1    1    2    0    0  0.28642861446E+02  0.12631249043E+03 -0.63339348618E+02  0.19081963168E+03  0.12500000000E+03 0.  0.
</event>
<event>
 5    0  0.5576108E-005  0.3707145E+03  0.7546771E-02  0.1054420E+00
         21   -1    0    0  502  501  0.00000000000E+00  0.00000000000E+00  0.13697964887E+03  0.13697964887E+03  0.00000000000E+00 0.  1.
         21   -1    0    0  501  502 -0.00000000000E+00 -0.00000000000E+00 -0.10032820560E+04  0.10032820560E+04  0.00000000000E+00 0.  1.
         25    1    1    2    0    0 -0.75326459239E+02  0.17483963508E+02 -0.40502571791E+03  0.43087190279E+03  0.12500000000E+03 0.  0.
         25    1    1    2    0    0  0.26121231222E+03  0.68297740280E+02 -0.28194212822E+03  0.40989366554E+03  0.12500000000E+03 0.  0.
         25    1    1    2    0    0 -0.18588585298E+03 -0.85781703788E+02 -0.17933456101E+03  0.29949613656E+03  0.12500000000E+03 0.  0.
</event>
<event>
 5    0  0.5576108E-005  0.3573285E+03  0.7546771E-02  0.1059647E+00
         21   -1    0    0  502  501  0.00000000000E+00  0.00000000000E+00  0.29286929932E+03  0.29286929932E+03  0.00000000000E+00 0.  1.
         21   -1    0    0  501  502 -0.00000000000E+00 -0.00000000000E+00 -0.43597477929E+03  0.43597477929E+03  0.00000000000E+00 0.  1.
         25    1    1    2    0    0 -0.16888952679E+03  0.45071476287E+02 -0.75672176712E+02  0.22782973591E+03  0.12500000000E+03 0.  0.
         25    1    1    2    0    0  0.27600927804E+03  0.35569195194E+02 -0.85461167388E+02  0.31681998097E+03  0.12500000000E+03 0.  0.
         25    1    1    2    0    0 -0.10711975125E+03 -0.80640671481E+02  0.18027864129E+02  0.18419436172E+03  0.12500000000E+03 0.  0.
</event>
<event>
 5    0  0.5576108E-005  0.3069823E+03  0.7546771E-02  0.1081801E+00
         21   -1    0    0  502  501  0.00000000000E+00  0.00000000000E+00  0.83967767037E+03  0.83967767037E+03  0.00000000000E+00 0. -1.
         21   -1    0    0  501  502 -0.00000000000E+00 -0.00000000000E+00 -0.11223129810E+03  0.11223129810E+03  0.00000000000E+00 0. -1.
         25    1    1    2    0    0 -0.14659236252E+02 -0.77093734314E+02 -0.20666415145E+02  0.14903166708E+03  0.12500000000E+03 0.  0.
         25    1    1    2    0    0  0.17453260783E+02  0.86050173637E+02  0.52713290562E+03  0.54881996035E+03  0.12500000000E+03 0.  0.
         25    1    1    2    0    0 -0.27940245307E+01 -0.89564393234E+01  0.22097988179E+03  0.25405734104E+03  0.12500000000E+03 0.  0.
</event>
<event>
 5    0  0.5576108E-005  0.6197687E+03  0.7546771E-02  0.9865220E-01
         21   -1    0    0  502  501  0.00000000000E+00  0.00000000000E+00  0.95844679281E+03  0.95844679281E+03  0.00000000000E+00 0. -1.
         21   -1    0    0  501  502 -0.00000000000E+00 -0.00000000000E+00 -0.40076641321E+03  0.40076641321E+03  0.00000000000E+00 0. -1.
         25    1    1    2    0    0 -0.28765506480E+03  0.86533246672E+00  0.26157782954E+02  0.31473070189E+03  0.12500000000E+03 0.  0.
         25    1    1    2    0    0 -0.20977449717E+03  0.22425919233E+03  0.13385863897E+03  0.35754812296E+03  0.12500000000E+03 0.  0.
         25    1    1    2    0    0  0.49742956197E+03 -0.22512452479E+03  0.39766395768E+03  0.68693438116E+03  0.12500000000E+03 0.  0.
</event>
<event>
 5    0  0.5576108E-005  0.2738527E+03  0.7546771E-02  0.1099095E+00
         21   -1    0    0  502  501  0.00000000000E+00  0.00000000000E+00  0.84527727124E+03  0.84527727124E+03  0.00000000000E+00 0. -1.
         21   -1    0    0  501  502 -0.00000000000E+00 -0.00000000000E+00 -0.88722733780E+02  0.88722733780E+02  0.00000000000E+00 0. -1.
         25    1    1    2    0    0  0.12650744549E+03  0.81723534937E+02  0.38053539765E+03  0.42791945362E+03  0.12500000000E+03 0.  0.
         25    1    1    2    0    0  0.25107703313E+02 -0.38727732026E+02  0.19025181795E+03  0.23227352029E+03  0.12500000000E+03 0.  0.
         25    1    1    2    0    0 -0.15161514880E+03 -0.42995802911E+02  0.18576732186E+03  0.27380703111E+03  0.12500000000E+03 0.  0.
</event>
<event>
 5    0  0.5576108E-005  0.2575058E+03  0.7546771E-02  0.1108651E+00
         21   -1    0    0  502  501  0.00000000000E+00  0.00000000000E+00  0.20386765766E+03  0.20386765766E+03  0.00000000000E+00 0.  1.
         21   -1    0    0  501  502 -0.00000000000E+00 -0.00000000000E+00 -0.32525632673E+03  0.32525632673E+03  0.00000000000E+00 0.  1.
         25    1    1    2    0    0  0.11683789406E+02 -0.98717382423E+02 -0.11988727883E+03  0.19969875351E+03  0.12500000000E+03 0.  0.
         25    1    1    2    0    0 -0.14429760654E+02  0.47083752444E+02  0.93885454474E+02  0.16390416803E+03  0.12500000000E+03 0.  0.
         25    1    1    2    0    0  0.27459712478E+01  0.51633629979E+02 -0.95386844708E+02  0.16552106285E+03  0.12500000000E+03 0.  0.
</event>
<event>
 5    0  0.5576108E-005  0.3326930E+03  0.7546771E-02  0.1069951E+00
         21   -1    0    0  502  501  0.00000000000E+00  0.00000000000E+00  0.75411632661E+03  0.75411632661E+03  0.00000000000E+00 0.  1.
         21   -1    0    0  501  502 -0.00000000000E+00 -0.00000000000E+00 -0.14677395968E+03  0.14677395968E+03  0.00000000000E+00 0.  1.
         25    1    1    2    0    0 -0.73883763509E+02 -0.52085438066E+02  0.19700678959E+03  0.25021666314E+03  0.12500000000E+03 0.  0.
         25    1    1    2    0    0  0.36437140340E+02  0.10498734252E+03 -0.45706002781E+02  0.17338986699E+03  0.12500000000E+03 0.  0.
         25    1    1    2    0    0  0.37446623169E+02 -0.52901904457E+02  0.45604158013E+03  0.47728375615E+03  0.12500000000E+03 0.  0.
</event>
<event>
 5    0  0.5576108E-005  0.3632561E+03  0.7546771E-02  0.1057302E+00
         21   -1    0    0  502  501  0.00000000000E+00  0.00000000000E+00  0.20047150124E+04  0.20047150124E+04  0.00000000000E+00 0. -1.
         21   -1    0    0  501  502 -0.00000000000E+00 -0.00000000000E+00 -0.65822331902E+02  0.65822331902E+02  0.00000000000E+00 0. -1.
         25    1    1    2    0    0 -0.28062759799E+03  0.44299917477E+02  0.62617656810E+03  0.69888226897E+03  0.12500000000E+03 0.  0.
         25    1    1    2    0    0  0.19383880906E+03 -0.60225199394E+02  0.67554448174E+03  0.71636995006E+03  0.12500000000E+03 0.  0.
         25    1    1    2    0    0  0.86788788931E+02  0.15925281917E+02  0.63717163065E+03  0.65528512526E+03  0.12500000000E+03 0.  0.
</event>
<event>
 5    0  0.5576108E-005  0.2333330E+03  0.7546771E-02  0.1124316E+00
         21   -1    0    0  502  501  0.00000000000E+00  0.00000000000E+00  0.82417389842E+03  0.82417389842E+03  0.00000000000E+00 0. -1.
         21   -1    0    0  501  502 -0.00000000000E+00 -0.00000000000E+00 -0.66059236590E+02  0.66059236590E+02  0.00000000000E+00 0. -1.
         25    1    1    2    0    0  0.32841332242E+02  0.36144293418E+02  0.26868846522E+03  0.30033889923E+03  0.12500000000E+03 0.  0.
         25    1    1    2    0    0  0.16207753769E+02 -0.24426343176E+02  0.63670848467E+02  0.14331194810E+03  0.12500000000E+03 0.  0.
         25    1    1    2    0    0 -0.49049086010E+02 -0.11717950243E+02  0.42575534814E+03  0.44658228767E+03  0.12500000000E+03 0.  0.
</event>
<event>
 5    0  0.5576108E-005  0.3309576E+03  0.7546771E-02  0.1070714E+00
         21   -1    0    0  502  501  0.00000000000E+00  0.00000000000E+00  0.36103015215E+03  0.36103015215E+03  0.00000000000E+00 0.  1.
         21   -1    0    0  501  502 -0.00000000000E+00 -0.00000000000E+00 -0.30339005371E+03  0.30339005371E+03  0.00000000000E+00 0.  1.
         25    1    1    2    0    0  0.15391250799E+03 -0.39778290922E+02  0.83960521834E+02  0.21896516109E+03  0.12500000000E+03 0.  0.
         25    1    1    2    0    0 -0.10609185576E+02  0.78103971503E+02 -0.15383441705E+03  0.21331388387E+03  0.12500000000E+03 0.  0.
         25    1    1    2    0    0 -0.14330332241E+03 -0.38325680581E+02  0.12751399365E+03  0.23214116090E+03  0.12500000000E+03 0.  0.
</event>
<event>
 5    0  0.5576108E-005  0.2718509E+03  0.7546771E-02  0.1100225E+00
         21   -1    0    0  502  501  0.00000000000E+00  0.00000000000E+00  0.16858656459E+03  0.16858656459E+03  0.00000000000E+00 0.  1.
         21   -1    0    0  501  502 -0.00000000000E+00 -0.00000000000E+00 -0.43836774983E+03  0.43836774983E+03  0.00000000000E+00 0.  1.
         25    1    1    2    0    0  0.55153966764E+02  0.42603051883E+02 -0.13573472049E+03  0.19724577163E+03  0.12500000000E+03 0.  0.
         25    1    1    2    0    0  0.11543964526E+03 -0.80855713616E+01 -0.82697960750E+02  0.18935585778E+03  0.12500000000E+03 0.  0.
         25    1    1    2    0    0 -0.17059361203E+03 -0.34517480521E+02 -0.51348503999E+02  0.22035268501E+03  0.12500000000E+03 0.  0.
</event>
<event>
 5    0  0.5576108E-005  0.3205683E+03  0.7546771E-02  0.1075388E+00
         21   -1    0    0  502  501  0.00000000000E+00  0.00000000000E+00  0.14059027743E+03  0.14059027743E+03  0.00000000000E+00 0. -1.
         21   -1    0    0  501  502 -0.00000000000E+00 -0.00000000000E+00 -0.73094682766E+03  0.73094682766E+03  0.00000000000E+00 0. -1.
         25    1    1    2    0    0  0.11000073791E+03  0.46576533215E+02  0.30728949187E+02  0.17560980640E+03  0.12500000000E+03 0.  0.
         25    1    1    2    0    0 -0.45463663091E+02 -0.16338126966E+02 -0.14007171371E+03  0.19385294436E+03  0.12500000000E+03 0.  0.
         25    1    1    2    0    0 -0.64537074817E+02 -0.30238406249E+02 -0.48101378571E+03  0.50207435434E+03  0.12500000000E+03 0.  0.
</event>
<event>
 5    0  0.5576108E-005  0.2675709E+03  0.7546771E-02  0.1102678E+00
         21   -1    0    0  502  501  0.00000000000E+00  0.00000000000E+00  0.13859408297E+03  0.13859408297E+03  0.00000000000E+00 0. -1.
         21   -1    0    0  501  502 -0.00000000000E+00 -0.00000000000E+00 -0.51657463753E+03  0.51657463753E+03  0.00000000000E+00 0. -1.
         25    1    1    2    0    0 -0.99437104933E+02  0.61637617486E+02 -0.18566120425E+03  0.25255101760E+03  0.12500000000E+03 0.  0.
         25    1    1    2    0    0  0.53924934000E+02  0.78517387989E+02 -0.11383455151E+03  0.19405201324E+03  0.12500000000E+03 0.  0.
         25    1    1    2    0    0  0.45512170933E+02 -0.14015500548E+03 -0.78484798802E+02  0.20856568967E+03  0.12500000000E+03 0.  0.
</event>
<event>
 5    0  0.5576108E-005  0.2197264E+03  0.7546771E-02  0.1134087E+00
         21   -1    0    0  502  501  0.00000000000E+00  0.00000000000E+00  0.81704897096E+03  0.81704897096E+03  0.00000000000E+00 0. -1.
         21   -1    0    0  501  502 -0.00000000000E+00 -0.00000000000E+00 -0.59090306409E+02  0.59090306409E+02  0.00000000000E+00 0. -1.
         25    1    1    2    0    0 -0.51715475659E+02 -0.68737510655E+02  0.24472721477E+03  0.28795094277E+03  0.12500000000E+03 0.  0.
         25    1    1    2    0    0  0.23025476595E+02  0.68292717844E+01  0.34523868613E+03  0.36795592389E+03  0.12500000000E+03 0.  0.
         25    1    1    2    0    0  0.28689999064E+02  0.61908238870E+02  0.16799276365E+03  0.22023241070E+03  0.12500000000E+03 0.  0.
</event>
<event>
 5    0  0.5576108E-005  0.2356009E+03  0.7546771E-02  0.1122759E+00
         21   -1    0    0  502  501  0.00000000000E+00  0.00000000000E+00  0.10444521883E+04  0.10444521883E+04  0.00000000000E+00 0.  1.
         21   -1    0    0  501  502 -0.00000000000E+00 -0.00000000000E+00 -0.53145372393E+02  0.53145372393E+02  0.00000000000E+00 0.  1.
         25    1    1    2    0    0 -0.55103256720E+02 -0.17050872333E+02  0.29477928520E+03  0.32534124874E+03  0.12500000000E+03 0.  0.
         25    1    1    2    0    0 -0.33248388671E+02  0.56425431466E+02  0.50282565930E+03  0.52225274371E+03  0.12500000000E+03 0.  0.
         25    1    1    2    0    0  0.88351645391E+02 -0.39374559133E+02  0.19370187145E+03  0.25000356828E+03  0.12500000000E+03 0.  0.
</event>
<event>
 5    0  0.5576108E-005  0.5891134E+03  0.7546771E-02  0.9928253E-01
         21   -1    0    0  502  501  0.00000000000E+00  0.00000000000E+00  0.98513023835E+03  0.98513023835E+03  0.00000000000E+00 0.  1.
         21   -1    0    0  501  502 -0.00000000000E+00 -0.00000000000E+00 -0.35229306462E+03  0.35229306462E+03  0.00000000000E+00 0.  1.
         25    1    1    2    0    0  0.10567668874E+03  0.21566688443E+03 -0.16038542016E+01  0.27075328240E+03  0.12500000000E+03 0.  0.
         25    1    1    2    0    0  0.64621650457E+02 -0.65331176695E+02  0.76205324483E+03  0.77768519872E+03  0.12500000000E+03 0.  0.
         25    1    1    2    0    0 -0.17029833919E+03 -0.15033570774E+03 -0.12761221690E+03  0.28898482184E+03  0.12500000000E+03 0.  0.
</event>
<event>
 5    0  0.5576108E-005  0.2860004E+03  0.7546771E-02  0.1092456E+00
         21   -1    0    0  502  501  0.00000000000E+00  0.00000000000E+00  0.29495634578E+04  0.29495634578E+04  0.00000000000E+00 0.  1.
         21   -1    0    0  501  502 -0.00000000000E+00 -0.00000000000E+00 -0.27731635992E+02  0.27731635992E+02  0.00000000000E+00 0.  1.
         25    1    1    2    0    0 -0.13817239333E+03  0.13808944021E+02  0.70731447440E+03  0.73157437278E+03  0.12500000000E+03 0.  0.
         25    1    1    2    0    0 -0.23195822062E+02  0.67341513204E+02  0.64108477879E+03  0.65702938987E+03  0.12500000000E+03 0.  0.
         25    1    1    2    0    0  0.16136821539E+03 -0.81150457225E+02  0.15734325686E+04  0.15886913312E+04  0.12500000000E+03 0.  0.
</event>
<event>
 5    0  0.5576108E-005  0.2994753E+03  0.7546771E-02  0.1085503E+00
         21   -1    0    0  502  501  0.00000000000E+00  0.00000000000E+00  0.11967016880E+03  0.11967016880E+03  0.00000000000E+00 0.  1.
         21   -1    0    0  501  502 -0.00000000000E+00 -0.00000000000E+00 -0.74943855401E+03  0.74943855401E+03  0.00000000000E+00 0.  1.
         25    1    1    2    0    0  0.79037096404E+02  0.36362540196E+02 -0.11687308484E+03  0.19197243265E+03  0.12500000000E+03 0.  0.
         25    1    1    2    0    0 -0.13238998368E+03  0.67385098547E+02 -0.76915891958E+02  0.20882747358E+03  0.12500000000E+03 0.  0.
         25    1    1    2    0    0  0.53352887276E+02 -0.10374763874E+03 -0.43597940841E+03  0.46830881658E+03  0.12500000000E+03 0.  0.
</event>
<event>
 5    0  0.5576108E-005  0.3694252E+03  0.7546771E-02  0.1054913E+00
         21   -1    0    0  502  501  0.00000000000E+00  0.00000000000E+00  0.31646685425E+03  0.31646685425E+03  0.00000000000E+00 0.  1.
         21   -1    0    0  501  502 -0.00000000000E+00 -0.00000000000E+00 -0.43124573645E+03  0.43124573645E+03  0.00000000000E+00 0.  1.
         25    1    1    2    0    0  0.14522832730E+03  0.18864695414E+03 -0.15296574096E+03  0.30935813916E+03  0.12500000000E+03 0.  0.
         25    1    1    2    0    0 -0.19714463998E+03 -0.52944475094E+02 -0.13814956913E+02  0.23976025432E+03  0.12500000000E+03 0.  0.
         25    1    1    2    0    0  0.51916312680E+02 -0.13570247904E+03  0.52001815669E+02  0.19859419723E+03  0.12500000000E+03 0.  0.
</event>
<event>
 5    0  0.5576108E-005  0.2525086E+03  0.7546771E-02  0.1111730E+00
         21   -1    0    0  502  501  0.00000000000E+00  0.00000000000E+00  0.75586913305E+03  0.75586913305E+03  0.00000000000E+00 0. -1.
         21   -1    0    0  501  502 -0.00000000000E+00 -0.00000000000E+00 -0.84354043736E+02  0.84354043736E+02  0.00000000000E+00 0. -1.
         25    1    1    2    0    0  0.82127104434E+01  0.39399496441E+02  0.18896212411E+03  0.23011182777E+03  0.12500000000E+03 0.  0.
         25    1    1    2    0    0 -0.66683618055E+02  0.32877193771E+02  0.41603302972E+03  0.44072224428E+03  0.12500000000E+03 0.  0.
         25    1    1    2    0    0  0.58470907611E+02 -0.72276690212E+02  0.66519935487E+02  0.16938910473E+03  0.12500000000E+03 0.  0.
</event>
<event>
 5    0  0.6182142E-005  0.3940035E+03  0.7546771E-02  0.1045876E+00
         21   -1    0    0  502  501  0.00000000000E+00  0.00000000000E+00  0.55934966055E+03  0.55934966055E+03  0.00000000000E+00 0.  1.
         21   -1    0    0  501  502 -0.00000000000E+00 -0.00000000000E+00 -0.27753437465E+03  0.27753437465E+03  0.00000000000E+00 0.  1.
         25    1    1    2    0    0 -0.28159918670E+02 -0.10741928958E+03  0.32131882190E+03  0.36221909130E+03  0.12500000000E+03 0.  0.
         25    1    1    2    0    0  0.19237226381E+03  0.20725496986E+02 -0.86289943636E+02  0.24598290282E+03  0.12500000000E+03 0.  0.
         25    1    1    2    0    0 -0.16421234514E+03  0.86693792592E+02  0.46786407635E+02  0.22868204107E+03  0.12500000000E+03 0.  0.
</event>
<event>
 5    0  0.5576108E-005  0.3845996E+03  0.7546771E-02  0.1049247E+00
         21   -1    0    0  502  501  0.00000000000E+00  0.00000000000E+00  0.74916461329E+03  0.74916461329E+03  0.00000000000E+00 0.  1.
         21   -1    0    0  501  502 -0.00000000000E+00 -0.00000000000E+00 -0.19744241346E+03  0.19744241346E+03  0.00000000000E+00 0.  1.
         25    1    1    2    0    0 -0.13905406825E+03  0.26819562589E+03  0.29471065009E+03  0.44016394096E+03  0.12500000000E+03 0.  0.
         25    1    1    2    0    0  0.87227270693E+02 -0.24689654254E+03  0.22119365084E+03  0.36485357425E+03  0.12500000000E+03 0.  0.
         25    1    1    2    0    0  0.51826797560E+02 -0.21299083354E+02  0.35817898896E+02  0.14158951154E+03  0.12500000000E+03 0.  0.
</event>
<event>
 5    0  0.5576108E-005  0.2918841E+03  0.7546771E-02  0.1089370E+00
         21   -1    0    0  502  501  0.00000000000E+00  0.00000000000E+00  0.98987265876E+03  0.98987265876E+03  0.00000000000E+00 0.  1.
         21   -1    0    0  501  502 -0.00000000000E+00 -0.00000000000E+00 -0.86067966666E+02  0.86067966666E+02  0.00000000000E+00 0.  1.
         25    1    1    2    0    0 -0.84943534160E+02  0.10089598802E+03  0.17161062749E+03  0.24994121681E+03  0.12500000000E+03 0.  0.
         25    1    1    2    0    0  0.61493776961E+02  0.66234085667E+01  0.59230879384E+03  0.60850641854E+03  0.12500000000E+03 0.  0.
         25    1    1    2    0    0  0.23449757200E+02 -0.10751939659E+03  0.13988527077E+03  0.21749299008E+03  0.12500000000E+03 0.  0.
</event>
<event>
 5    0  0.6149884E-005  0.3588261E+03  0.7546771E-02  0.1059050E+00
         21   -1    0    0  502  501  0.00000000000E+00  0.00000000000E+00  0.36004192336E+03  0.36004192336E+03  0.00000000000E+00 0.  1.
         21   -1    0    0  501  502 -0.00000000000E+00 -0.00000000000E+00 -0.35761428685E+03  0.35761428685E+03  0.00000000000E+00 0.  1.
         25    1    1    2    0    0 -0.15702678192E+03  0.91819808580E+02 -0.21518690942E+02  0.22175739345E+03  0.12500000000E+03 0.  0.
         25    1    1    2    0    0  0.27675719508E+02  0.11373575109E+03  0.11692452410E+03  0.20735985837E+03  0.12500000000E+03 0.  0.
         25    1    1    2    0    0  0.12935106242E+03 -0.20555555967E+03 -0.92978196646E+02  0.28853895839E+03  0.12500000000E+03 0.  0.
</event>
<event>
 5    0  0.5576108E-005  0.2756651E+03  0.7546771E-02  0.1098080E+00
         21   -1    0    0  502  501  0.00000000000E+00  0.00000000000E+00  0.42440240713E+03  0.42440240713E+03  0.00000000000E+00 0.  1.
         21   -1    0    0  501  502 -0.00000000000E+00 -0.00000000000E+00 -0.17905476636E+03  0.17905476636E+03  0.00000000000E+00 0.  1.
         25    1    1    2    0    0  0.55771114096E+02  0.80288949879E+02  0.12344738714E+03  0.20104972030E+03  0.12500000000E+03 0.  0.
         25    1    1    2    0    0 -0.59559324982E+02 -0.79840330747E+01  0.19595848697E+03  0.24007454382E+03  0.12500000000E+03 0.  0.
         25    1    1    2    0    0  0.37882108860E+01 -0.72304916804E+02 -0.74058233350E+02  0.16233290936E+03  0.12500000000E+03 0.  0.
</event>
<event>
 5    0  0.5576108E-005  0.2860216E+03  0.7546771E-02  0.1092445E+00
         21   -1    0    0  502  501  0.00000000000E+00  0.00000000000E+00  0.17278234339E+04  0.17278234339E+04  0.00000000000E+00 0.  1.
         21   -1    0    0  501  502 -0.00000000000E+00 -0.00000000000E+00 -0.47347648643E+02  0.47347648643E+02  0.00000000000E+00 0.  1.
         25    1    1    2    0    0  0.42085427155E+02  0.51548059547E+02  0.61417438570E+03  0.63028847496E+03  0.12500000000E+03 0.  0.
         25    1    1    2    0    0 -0.13902852849E+03  0.30968793986E+01  0.25333468770E+03  0.31486820479E+03  0.12500000000E+03 0.  0.
         25    1    1    2    0    0  0.96943101338E+02 -0.54644938946E+02  0.81296671190E+03  0.83001440283E+03  0.12500000000E+03 0.  0.
</event>
<event>
 5    0  0.5576108E-005  0.3649403E+03  0.7546771E-02  0.1056645E+00
         21   -1    0    0  502  501  0.00000000000E+00  0.00000000000E+00  0.48902012939E+03  0.48902012939E+03  0.00000000000E+00 0. -1.
         21   -1    0    0  501  502 -0.00000000000E+00 -0.00000000000E+00 -0.27234337903E+03  0.27234337903E+03  0.00000000000E+00 0. -1.
         25    1    1    2    0    0 -0.13383331500E+02 -0.10145168709E+03 -0.15804768482E+03  0.22599917932E+03  0.12500000000E+03 0.  0.
         25    1    1    2    0    0  0.75400426957E+02  0.11490201139E+03  0.67483761883E+02  0.19765311716E+03  0.12500000000E+03 0.  0.
         25    1    1    2    0    0 -0.62017095457E+02 -0.13450324294E+02  0.30724067329E+03  0.33771121195E+03  0.12500000000E+03 0.  0.
</event>
<event>
 5    0  0.5576108E-005  0.2405878E+03  0.7546771E-02  0.1119402E+00
         21   -1    0    0  502  501  0.00000000000E+00  0.00000000000E+00  0.25975671356E+03  0.25975671356E+03  0.00000000000E+00 0.  1.
         21   -1    0    0  501  502 -0.00000000000E+00 -0.00000000000E+00 -0.22283345249E+03  0.22283345249E+03  0.00000000000E+00 0.  1.
         25    1    1    2    0    0  0.28472518119E+02  0.22271008484E+02 -0.26222591918E+02  0.13273773553E+03  0.12500000000E+03 0.  0.
         25    1    1    2    0    0  0.22688508814E+02  0.10014173700E+03  0.32874952945E+02  0.16507240367E+03  0.12500000000E+03 0.  0.
         25    1    1    2    0    0 -0.51161026933E+02 -0.12241274548E+03  0.30270900043E+02  0.18478002685E+03  0.12500000000E+03 0.  0.
</event>
<event>
 5    0  0.6113121E-005  0.6112690E+03  0.7546771E-02  0.9882298E-01
         21   -1    0    0  502  501  0.00000000000E+00  0.00000000000E+00  0.67810353862E+03  0.67810353862E+03  0.00000000000E+00 0.  1.
         21   -1    0    0  501  502 -0.00000000000E+00 -0.00000000000E+00 -0.55102173307E+03  0.55102173307E+03  0.00000000000E+00 0.  1.
         25    1    1    2    0    0 -0.31485266486E+03  0.30486216945E+03 -0.22594859569E+02  0.45629888298E+03  0.12500000000E+03 0.  0.
         25    1    1    2    0    0  0.37586632704E+03 -0.13123374089E+03 -0.10935440727E+03  0.43137127505E+03  0.12500000000E+03 0.  0.
         25    1    1    2    0    0 -0.61013662184E+02 -0.17362842856E+03  0.25903107239E+03  0.34145511366E+03  0.12500000000E+03 0.  0.
</event>
<event>
 5    0  0.5576108E-005  0.3124829E+03  0.7546771E-02  0.1079162E+00
         21   -1    0    0  502  501  0.00000000000E+00  0.00000000000E+00  0.11155178182E+03  0.11155178182E+03  0.00000000000E+00 0.  1.
         21   -1    0    0  501  502 -0.00000000000E+00 -0.00000000000E+00 -0.87533835236E+03  0.87533835236E+03  0.00000000000E+00 0.  1.
         25    1    1    2    0    0 -0.12851522366E+03 -0.43350925837E+01 -0.16784352690E+03  0.24562452089E+03  0.12500000000E+03 0.  0.
         25    1    1    2    0    0  0.41388875575E+02 -0.12735368663E+03 -0.46824456748E+03  0.50280212359E+03  0.12500000000E+03 0.  0.
         25    1    1    2    0    0  0.87126348086E+02  0.13168877922E+03 -0.12769847616E+03  0.23846348969E+03  0.12500000000E+03 0.  0.
</event>
<event>
 5    0  0.5576108E-005  0.3009293E+03  0.7546771E-02  0.1084777E+00
         21   -1    0    0  502  501  0.00000000000E+00  0.00000000000E+00  0.58225738027E+03  0.58225738027E+03  0.00000000000E+00 0. -1.
         21   -1    0    0  501  502 -0.00000000000E+00 -0.00000000000E+00 -0.15552988850E+03  0.15552988850E+03  0.00000000000E+00 0. -1.
         25    1    1    2    0    0 -0.90198789338E+02  0.78704630489E+02  0.76360789899E+02  0.18917243640E+03  0.12500000000E+03 0.  0.
         25    1    1    2    0    0  0.40359632495E+02 -0.15632882730E+03  0.33523887284E+03  0.39252732904E+03  0.12500000000E+03 0.  0.
         25    1    1    2    0    0  0.49839156843E+02  0.77624196807E+02  0.15127829026E+02  0.15608750333E+03  0.12500000000E+03 0.  0.
</event>
<event>
 5    0  0.5576108E-005  0.2611143E+03  0.7546771E-02  0.1106476E+00
         21   -1    0    0  502  501  0.00000000000E+00  0.00000000000E+00  0.10405119459E+04  0.10405119459E+04  0.00000000000E+00 0. -1.
         21   -1    0    0  501  502 -0.00000000000E+00 -0.00000000000E+00 -0.65526108030E+02  0.65526108030E+02  0.00000000000E+00 0. -1.
         25    1    1    2    0    0 -0.13700656647E+03  0.69419398189E+02  0.32207855512E+03  0.37808656121E+03  0.12500000000E+03 0.  0.
         25    1    1    2    0    0  0.82931806817E+02 -0.46060842993E+02  0.19871214236E+03  0.25320110853E+03  0.12500000000E+03 0.  0.
         25    1    1    2    0    0  0.54074759650E+02 -0.23358555196E+02  0.45419514037E+03  0.47475038416E+03  0.12500000000E+03 0.  0.
</event>
<event>
 5    0  0.5665783E-005  0.3507414E+03  0.7546771E-02  0.1062311E+00
         21   -1    0    0  502  501  0.00000000000E+00  0.00000000000E+00  0.71604321926E+03  0.71604321926E+03  0.00000000000E+00 0. -1.
         21   -1    0    0  501  502 -0.00000000000E+00 -0.00000000000E+00 -0.17180460696E+03  0.17180460696E+03  0.00000000000E+00 0. -1.
         25    1    1    2    0    0 -0.26850880192E+03 -0.21492791783E+02  0.18320649220E+03  0.34892482799E+03  0.12500000000E+03 0.  0.
         25    1    1    2    0    0  0.11015382848E+03 -0.32899735965E+02  0.77396543350E+02  0.18663194656E+03  0.12500000000E+03 0.  0.
         25    1    1    2    0    0  0.15835497344E+03  0.54392527748E+02  0.28363557674E+03  0.35229105166E+03  0.12500000000E+03 0.  0.
</event>
<event>
 5    0  0.5576108E-005  0.2728321E+03  0.7546771E-02  0.1099670E+00
         21   -1    0    0  502  501  0.00000000000E+00  0.00000000000E+00  0.13308878247E+03  0.13308878247E+03  0.00000000000E+00 0.  1.
         21   -1    0    0  501  502 -0.00000000000E+00 -0.00000000000E+00 -0.55930611628E+03  0.55930611628E+03  0.00000000000E+00 0.  1.
         25    1    1    2    0    0  0.32355965784E+02  0.17500165053E+03 -0.12137020391E+03  0.24905463779E+03  0.12500000000E+03 0.  0.
         25    1    1    2    0    0 -0.61337371415E+02 -0.89086589458E+02 -0.18326351160E+03  0.24679790971E+03  0.12500000000E+03 0.  0.
         25    1    1    2    0    0  0.28981405631E+02 -0.85915061071E+02 -0.12158361830E+03  0.19654235124E+03  0.12500000000E+03 0.  0.
</event>
<event>
 5    0  0.6290636E-005  0.3358876E+03  0.7546771E-02  0.1068561E+00
         21   -1    0    0  502  501  0.00000000000E+00  0.00000000000E+00  0.51548283069E+03  0.51548283069E+03  0.00000000000E+00 0.  1.
         21   -1    0    0  501  502 -0.00000000000E+00 -0.00000000000E+00 -0.21886365402E+03  0.21886365402E+03  0.00000000000E+00 0.  1.
         25    1    1    2    0    0  0.18601681008E+03 -0.35497743723E+02  0.83970834376E+02  0.24194719355E+03  0.12500000000E+03 0.  0.
         25    1    1    2    0    0 -0.88227873577E+02 -0.12695468174E+03  0.30225006133E+02  0.20109748852E+03  0.12500000000E+03 0.  0.
         25    1    1    2    0    0 -0.97788936504E+02  0.16245242547E+03  0.18242333616E+03  0.29130180264E+03  0.12500000000E+03 0.  0.
</event>
<event>
 5    0  0.5576108E-005  0.2087365E+03  0.7546771E-02  0.1142570E+00
         21   -1    0    0  502  501  0.00000000000E+00  0.00000000000E+00  0.49153534882E+03  0.49153534882E+03  0.00000000000E+00 0. -1.
         21   -1    0    0  501  502 -0.00000000000E+00 -0.00000000000E+00 -0.88642549713E+02  0.88642549713E+02  0.00000000000E+00 0. -1.
         25    1    1    2    0    0 -0.29014272625E+02  0.68805402023E+01  0.16914786305E+03  0.21242685664E+03  0.12500000000E+03 0.  0.
         25    1    1    2    0    0 -0.20572111813E+02 -0.12829724097E+02  0.43204779195E+02  0.13445990685E+03  0.12500000000E+03 0.  0.
         25    1    1    2    0    0  0.49586384438E+02  0.59491838944E+01  0.19054015686E+03  0.23329113504E+03  0.12500000000E+03 0.  0.
</event>
<event>
 5    0  0.5576108E-005  0.4007808E+03  0.7546771E-02  0.1043510E+00
         21   -1    0    0  502  501  0.00000000000E+00  0.00000000000E+00  0.29378983936E+04  0.29378983936E+04  0.00000000000E+00 0.  1.
         21   -1    0    0  501  502 -0.00000000000E+00 -0.00000000000E+00 -0.54673519118E+02  0.54673519118E+02  0.00000000000E+00 0.  1.
         25    1    1    2    0    0  0.54419380335E+02  0.17303357397E+03  0.49930822413E+03  0.54574333652E+03  0.12500000000E+03 0.  0.
         25    1    1    2    0    0 -0.18548900294E+03 -0.26563086412E+03  0.15578382990E+04  0.15960736487E+04  0.12500000000E+03 0.  0.
         25    1    1    2    0    0  0.13106962261E+03  0.92597290152E+02  0.82607835138E+03  0.85075492754E+03  0.12500000000E+03 0.  0.
</event>
<event>
 5    0  0.5576108E-005  0.3016855E+03  0.7546771E-02  0.1084401E+00
         21   -1    0    0  502  501  0.00000000000E+00  0.00000000000E+00  0.16498374900E+03  0.16498374900E+03  0.00000000000E+00 0.  1.
         21   -1    0    0  501  502 -0.00000000000E+00 -0.00000000000E+00 -0.55165506308E+03  0.55165506308E+03  0.00000000000E+00 0.  1.
         25    1    1    2    0    0  0.17084615363E+03  0.30786760762E+02 -0.11988012080E+03  0.24521924112E+03  0.12500000000E+03 0.  0.
         25    1    1    2    0    0  0.21723533076E+02 -0.30198651538E+02 -0.15972603999E+02  0.13139252080E+03  0.12500000000E+03 0.  0.
         25    1    1    2    0    0 -0.19256968671E+03 -0.58810922391E+00 -0.25081858928E+03  0.34002705016E+03  0.12500000000E+03 0.  0.
</event>
<event>
 5    0  0.5576108E-005  0.3146147E+03  0.7546771E-02  0.1078155E+00
         21   -1    0    0  502  501  0.00000000000E+00  0.00000000000E+00  0.43297132952E+03  0.43297132952E+03  0.00000000000E+00 0. -1.
         21   -1    0    0  501  502 -0.00000000000E+00 -0.00000000000E+00 -0.22861194239E+03  0.22861194239E+03  0.00000000000E+00 0. -1.
         25    1    1    2    0    0 -0.93685997084E+02 -0.48929333857E+02 -0.45023256363E+02  0.16977408334E+03  0.12500000000E+03 0.  0.
         25    1    1    2    0    0  0.96633551136E+02  0.15554614902E+03  0.39421819061E+02  0.22519264530E+03  0.12500000000E+03 0.  0.
         25    1    1    2    0    0 -0.29475540523E+01 -0.10661681516E+03  0.20996082442E+03  0.26661654327E+03  0.12500000000E+03 0.  0.
</event>
<event>
 5    0  0.5576108E-005  0.2646442E+03  0.7546771E-02  0.1104385E+00
         21   -1    0    0  502  501  0.00000000000E+00  0.00000000000E+00  0.13600022888E+03  0.13600022888E+03  0.00000000000E+00 0.  1.
         21   -1    0    0  501  502 -0.00000000000E+00 -0.00000000000E+00 -0.51497361485E+03  0.51497361485E+03  0.00000000000E+00 0.  1.
         25    1    1    2    0    0  0.55408082426E+02  0.95985106510E+02 -0.14914061584E+03  0.22394445643E+03  0.12500000000E+03 0.  0.
         25    1    1    2    0    0 -0.84044614700E+02 -0.14180484629E+03 -0.73121851167E+02  0.21941722086E+03  0.12500000000E+03 0.  0.
         25    1    1    2    0    0  0.28636532274E+02  0.45819739778E+02 -0.15671091896E+03  0.20761216645E+03  0.12500000000E+03 0.  0.
</event>
<event>
 5    0  0.5576108E-005  0.3365438E+03  0.7546771E-02  0.1068278E+00
         21   -1    0    0  502  501  0.00000000000E+00  0.00000000000E+00  0.41927168245E+02  0.41927168245E+02  0.00000000000E+00 0.  1.
         21   -1    0    0  501  502 -0.00000000000E+00 -0.00000000000E+00 -0.27013916368E+04  0.27013916368E+04  0.00000000000E+00 0.  1.
         25    1    1    2    0    0  0.57871446758E+01  0.19129294807E+03 -0.11869949655E+04  0.12088045876E+04  0.12500000000E+03 0.  0.
         25    1    1    2    0    0  0.15310719058E+02 -0.14049239080E+03 -0.13043054608E+04  0.13178809753E+04  0.12500000000E+03 0.  0.
         25    1    1    2    0    0 -0.21097863733E+02 -0.50800557268E+02 -0.16816404231E+03  0.21663324214E+03  0.12500000000E+03 0.  0.
</event>
<event>
 5    0  0.5576108E-005  0.3425428E+03  0.7546771E-02  0.1065718E+00
         21   -1    0    0  502  501  0.00000000000E+00  0.00000000000E+00  0.91039989080E+03  0.91039989080E+03  0.00000000000E+00 0.  1.
         21   -1    0    0  501  502 -0.00000000000E+00 -0.00000000000E+00 -0.12888353849E+03  0.12888353849E+03  0.00000000000E+00 0.  1.
         25    1    1    2    0    0 -0.15834564657E+03 -0.55173766595E+02  0.21152512752E+03  0.29746490193E+03  0.12500000000E+03 0.  0.
         25    1    1    2    0    0  0.20861185623E+03  0.14010204729E+03  0.21769286807E+03  0.35519385555E+03  0.12500000000E+03 0.  0.
         25    1    1    2    0    0 -0.50266209665E+02 -0.84928280690E+02  0.35229835672E+03  0.38662467180E+03  0.12500000000E+03 0.  0.
</event>
<event>
 5    0  0.5576108E-005  0.2788068E+03  0.7546771E-02  0.1096342E+00
         21   -1    0    0  502  501  0.00000000000E+00  0.00000000000E+00  0.10980840782E+04  0.10980840782E+04  0.00000000000E+00 0. -1.
         21   -1    0    0  501  502 -0.00000000000E+00 -0.00000000000E+00 -0.70789848331E+02  0.70789848331E+02  0.00000000000E+00 0. -1.
         25    1    1    2    0    0 -0.10738694985E+03  0.82988694562E+02  0.20036523213E+03  0.27237897619E+03  0.12500000000E+03 0.  0.
         25    1    1    2    0    0 -0.83170172393E+01  0.36478939792E+02  0.41465970393E+03  0.43470398651E+03  0.12500000000E+03 0.  0.
         25    1    1    2    0    0  0.11570396709E+03 -0.11946763435E+03  0.41226929379E+03  0.46179096382E+03  0.12500000000E+03 0.  0.
</event>
<event>
 5    0  0.5576108E-005  0.3450617E+03  0.7546771E-02  0.1064660E+00
         21   -1    0    0  502  501  0.00000000000E+00  0.00000000000E+00  0.29152824726E+03  0.29152824726E+03  0.00000000000E+00 0.  1.
         21   -1    0    0  501  502 -0.00000000000E+00 -0.00000000000E+00 -0.40842547033E+03  0.40842547033E+03  0.00000000000E+00 0.  1.
         25    1    1    2    0    0 -0.17338377449E+03  0.80670292981E+01 -0.60163692913E+02  0.22219739009E+03  0.12500000000E+03 0.  0.
         25    1    1    2    0    0  0.44916791833E+02  0.17271206255E+03 -0.47572809706E+02  0.22301378200E+03  0.12500000000E+03 0.  0.
         25    1    1    2    0    0  0.12846698266E+03 -0.18077909185E+03 -0.91607204582E+01  0.25474254549E+03  0.12500000000E+03 0.  0.
</event>
<event>
 5    0  0.5576108E-005  0.3375658E+03  0.7546771E-02  0.1067837E+00
         21   -1    0    0  502  501  0.00000000000E+00  0.00000000000E+00  0.76344565102E+02  0.76344565102E+02  0.00000000000E+00 0.  1.
         21   -1    0    0  501  502 -0.00000000000E+00 -0.00000000000E+00 -0.14925842053E+04  0.14925842053E+04  0.00000000000E+00 0.  1.
         25    1    1    2    0    0 -0.92587120586E+02  0.82362807027E+02 -0.36168681477E+03  0.40224166723E+03  0.12500000000E+03 0.  0.
         25    1    1    2    0    0  0.24242604654E+03  0.21557456219E+02 -0.50549947258E+03  0.57479546687E+03  0.12500000000E+03 0.  0.
         25    1    1    2    0    0 -0.14983892596E+03 -0.10392026325E+03 -0.54905335288E+03  0.59189163632E+03  0.12500000000E+03 0.  0.
</event>
<event>
 5    0  0.5576108E-005  0.2706170E+03  0.7546771E-02  0.1100927E+00
         21   -1    0    0  502  501  0.00000000000E+00  0.00000000000E+00  0.16619788757E+04  0.16619788757E+04  0.00000000000E+00 0. -1.
         21   -1    0    0  501  502 -0.00000000000E+00 -0.00000000000E+00 -0.44064082703E+02  0.44064082703E+02  0.00000000000E+00 0. -1.
         25    1    1    2    0    0 -0.11766806836E+02  0.42506150507E+02  0.17601544967E+03  0.22034443287E+03  0.12500000000E+03 0.  0.
         25    1    1    2    0    0  0.24743207085E+02  0.90220509659E+02  0.43101747354E+03  0.45842450758E+03  0.12500000000E+03 0.  0.
         25    1    1    2    0    0 -0.12976400248E+02 -0.13272666017E+03  0.10108818698E+04  0.10272740180E+04  0.12500000000E+03 0.  0.
</event>
<event>
 5    0  0.5576108E-005  0.4132437E+03  0.7546771E-02  0.1039288E+00
         21   -1    0    0  502  501  0.00000000000E+00  0.00000000000E+00  0.22692558985E+03  0.22692558985E+03  0.00000000000E+00 0.  1.
         21   -1    0    0  501  502 -0.00000000000E+00 -0.00000000000E+00 -0.75253887197E+03  0.75253887197E+03  0.00000000000E+00 0.  1.
         25    1    1    2    0    0 -0.15757572837E+03 -0.96051017996E+02 -0.48403099616E+03  0.53288546000E+03  0.12500000000E+03 0.  0.
         25    1    1    2    0    0  0.10052095338E+03 -0.86817013602E+02  0.65789512968E+02  0.19389408432E+03  0.12500000000E+03 0.  0.
         25    1    1    2    0    0  0.57054774991E+02  0.18286803160E+03 -0.10737179892E+03  0.25268491750E+03  0.12500000000E+03 0.  0.
</event>
<event>
 5    0  0.5576108E-005  0.3069480E+03  0.7546771E-02  0.1081818E+00
         21   -1    0    0  502  501  0.00000000000E+00  0.00000000000E+00  0.17193739650E+04  0.17193739650E+04  0.00000000000E+00 0.  1.
         21   -1    0    0  501  502 -0.00000000000E+00 -0.00000000000E+00 -0.54797326792E+02  0.54797326792E+02  0.00000000000E+00 0.  1.
         25    1    1    2    0    0  0.10214128691E+03  0.23068928704E+02  0.33424770108E+03  0.37190259967E+03  0.12500000000E+03 0.  0.
         25    1    1    2    0    0  0.90506149197E+02  0.21908081481E+01  0.90664306695E+03  0.91968625820E+03  0.12500000000E+03 0.  0.
         25    1    1    2    0    0 -0.19264743611E+03 -0.25259736852E+02  0.42368587022E+03  0.48258243396E+03  0.12500000000E+03 0.  0.
</event>
<event>
 5    0  0.5576108E-005  0.2549807E+03  0.7546771E-02  0.1110197E+00
         21   -1    0    0  502  501  0.00000000000E+00  0.00000000000E+00  0.46997152084E+03  0.46997152084E+03  0.00000000000E+00 0.  1.
         21   -1    0    0  501  502 -0.00000000000E+00 -0.00000000000E+00 -0.13833852310E+03  0.13833852310E+03  0.00000000000E+00 0.  1.
         25    1    1    2    0    0  0.19225565472E+02  0.12794543265E+03  0.16222799190E+03  0.24224487086E+03  0.12500000000E+03 0.  0.
         25    1    1    2    0    0 -0.56678156224E+01  0.17873556192E+02  0.10078895257E+03  0.16166323362E+03  0.12500000000E+03 0.  0.
         25    1    1    2    0    0 -0.13557749850E+02 -0.14581898884E+03  0.68616053265E+02  0.20440193946E+03  0.12500000000E+03 0.  0.
</event>
<event>
 5    0  0.5576108E-005  0.2657420E+03  0.7546771E-02  0.1103742E+00
         21   -1    0    0  502  501  0.00000000000E+00  0.00000000000E+00  0.28858439098E+03  0.28858439098E+03  0.00000000000E+00 0. -1.
         21   -1    0    0  501  502 -0.00000000000E+00 -0.00000000000E+00 -0.24470758982E+03  0.24470758982E+03  0.00000000000E+00 0. -1.
         25    1    1    2    0    0 -0.50238278444E+00 -0.21825400861E+02  0.22686937851E+02  0.12890421894E+03  0.12500000000E+03 0.  0.
         25    1    1    2    0    0  0.37108468029E+02  0.59892530505E+02 -0.13532645686E+03  0.19723692234E+03  0.12500000000E+03 0.  0.
         25    1    1    2    0    0 -0.36606085244E+02 -0.38067129643E+02  0.15651632016E+03  0.20715083952E+03  0.12500000000E+03 0.  0.
</event>
<event>
 5    0  0.5576108E-005  0.2581341E+03  0.7546771E-02  0.1108270E+00
         21   -1    0    0  502  501  0.00000000000E+00  0.00000000000E+00  0.23834708272E+03  0.23834708272E+03  0.00000000000E+00 0. -1.
         21   -1    0    0  501  502 -0.00000000000E+00 -0.00000000000E+00 -0.27956370677E+03  0.27956370677E+03  0.00000000000E+00 0. -1.
         25    1    1    2    0    0 -0.46142851424E+02  0.36394863633E+02  0.85182424989E+02  0.16227998756E+03  0.12500000000E+03 0.  0.
         25    1    1    2    0    0  0.43867267414E+02 -0.46449674863E+02  0.41194972984E+02  0.14630083815E+03  0.12500000000E+03 0.  0.
         25    1    1    2    0    0  0.22755840096E+01  0.10054811230E+02 -0.16759402203E+03  0.20932996377E+03  0.12500000000E+03 0.  0.
</event>
<event>
 5    0  0.5576108E-005  0.3902578E+03  0.7546771E-02  0.1047206E+00
         21   -1    0    0  502  501  0.00000000000E+00  0.00000000000E+00  0.51514690073E+03  0.51514690073E+03  0.00000000000E+00 0.  1.
         21   -1    0    0  501  502 -0.00000000000E+00 -0.00000000000E+00 -0.29564603645E+03  0.29564603645E+03  0.00000000000E+00 0.  1.
         25    1    1    2    0    0 -0.14786219783E+03 -0.28069165325E+02  0.13520853313E+03  0.23781811331E+03  0.12500000000E+03 0.  0.
         25    1    1    2    0    0  0.30301878112E+03  0.10607488741E+03  0.43325985408E+01  0.34455193347E+03  0.12500000000E+03 0.  0.
         25    1    1    2    0    0 -0.15515658329E+03 -0.78005722086E+02  0.79959732619E+02  0.22842289039E+03  0.12500000000E+03 0.  0.
</event>
<event>
 5    0  0.5576108E-005  0.3278710E+03  0.7546771E-02  0.1072083E+00
         21   -1    0    0  502  501  0.00000000000E+00  0.00000000000E+00  0.20846506111E+04  0.20846506111E+04  0.00000000000E+00 0. -1.
         21   -1    0    0  501  502 -0.00000000000E+00 -0.00000000000E+00 -0.51567092186E+02  0.51567092186E+02  0.00000000000E+00 0. -1.
         25    1    1    2    0    0  0.12597348756E+03  0.14181144852E+03  0.40922455360E+03  0.46804865321E+03  0.12500000000E+03 0.  0.
         25    1    1    2    0    0  0.15922606771E+02 -0.10807141241E+03  0.47057846112E+03  0.49900104976E+03  0.12500000000E+03 0.  0.
         25    1    1    2    0    0 -0.14189609433E+03 -0.33740036117E+02  0.11532805042E+04  0.11691680003E+04  0.12500000000E+03 0.  0.
</event>
<event>
 5    0  0.5576108E-005  0.2187852E+03  0.7546771E-02  0.1134792E+00
         21   -1    0    0  502  501  0.00000000000E+00  0.00000000000E+00  0.94334742702E+02  0.94334742702E+02  0.00000000000E+00 0. -1.
         21   -1    0    0  501  502 -0.00000000000E+00 -0.00000000000E+00 -0.50741620452E+03  0.50741620452E+03  0.00000000000E+00 0. -1.
         25    1    1    2    0    0 -0.83939489318E+02 -0.39719978027E+01 -0.19340748288E+03  0.24513887711E+03  0.12500000000E+03 0.  0.
         25    1    1    2    0    0  0.86563531564E+01  0.35635090790E+02 -0.85099527272E+02  0.15560116223E+03  0.12500000000E+03 0.  0.
         25    1    1    2    0    0  0.75283136161E+02 -0.31663092987E+02 -0.13457445166E+03  0.20101090788E+03  0.12500000000E+03 0.  0.
</event>
<event>
 5    0  0.8345331E-005  0.2860034E+03  0.7546771E-02  0.1092454E+00
         21   -1    0    0  502  501  0.00000000000E+00  0.00000000000E+00  0.19390583700E+03  0.19390583700E+03  0.00000000000E+00 0.  1.
         21   -1    0    0  501  502 -0.00000000000E+00 -0.00000000000E+00 -0.42184349867E+03  0.42184349867E+03  0.00000000000E+00 0.  1.
         25    1    1    2    0    0 -0.61909825858E+02 -0.19537759321E+02  0.50455073012E+02  0.14961706109E+03  0.12500000000E+03 0.  0.
         25    1    1    2    0    0  0.16123077972E+03  0.45023910507E+02 -0.12611480094E+03  0.24403372689E+03  0.12500000000E+03 0.  0.
         25    1    1    2    0    0 -0.99320953858E+02 -0.25486151186E+02 -0.15227793375E+03  0.22209854768E+03  0.12500000000E+03 0.  0.
</event>
<event>
 5    0  0.5576108E-005  0.3363893E+03  0.7546771E-02  0.1068344E+00
         21   -1    0    0  502  501  0.00000000000E+00  0.00000000000E+00  0.12903086873E+03  0.12903086873E+03  0.00000000000E+00 0.  1.
         21   -1    0    0  501  502 -0.00000000000E+00 -0.00000000000E+00 -0.87698225865E+03  0.87698225865E+03  0.00000000000E+00 0.  1.
         25    1    1    2    0    0  0.10013498077E+03  0.14357556531E+03 -0.48904730524E+03  0.53425951006E+03  0.12500000000E+03 0.  0.
         25    1    1    2    0    0  0.65938427581E+02 -0.27462766271E+02 -0.42757471056E+02  0.15018415727E+03  0.12500000000E+03 0.  0.
         25    1    1    2    0    0 -0.16607340835E+03 -0.11611279904E+03 -0.21614661362E+03  0.32156946005E+03  0.12500000000E+03 0.  0.
</event>
<event>
 5    0  0.5576108E-005  0.2756113E+03  0.7546771E-02  0.1098110E+00
         21   -1    0    0  502  501  0.00000000000E+00  0.00000000000E+00  0.17494709156E+03  0.17494709156E+03  0.00000000000E+00 0.  1.
         21   -1    0    0  501  502 -0.00000000000E+00 -0.00000000000E+00 -0.43419763044E+03  0.43419763044E+03  0.00000000000E+00 0.  1.
         25    1    1    2    0    0  0.16780561500E+02  0.31511941549E+02 -0.18222274593E+03  0.22384083371E+03  0.12500000000E+03 0.  0.
         25    1    1    2    0    0 -0.12647141059E+03  0.58049441366E+02 -0.20702300875E+02  0.18819761051E+03  0.12500000000E+03 0.  0.
         25    1    1    2    0    0  0.10969084909E+03 -0.89561382914E+02 -0.56325492069E+02  0.19710627778E+03  0.12500000000E+03 0.  0.
</event>
<event>
 5    0  0.6444352E-005  0.2792736E+03  0.7546771E-02  0.1096086E+00
         21   -1    0    0  502  501  0.00000000000E+00  0.00000000000E+00  0.11665513822E+03  0.11665513822E+03  0.00000000000E+00 0.  1.
         21   -1    0    0  501  502 -0.00000000000E+00 -0.00000000000E+00 -0.66858409688E+03  0.66858409688E+03  0.00000000000E+00 0.  1.
         25    1    1    2    0    0  0.14416219626E+03  0.91516643675E+02 -0.31264380197E+03  0.37753037204E+03  0.12500000000E+03 0.  0.
         25    1    1    2    0    0 -0.30048035667E+02 -0.96523367868E+02 -0.11468674140E+03  0.19747833715E+03  0.12500000000E+03 0.  0.
         25    1    1    2    0    0 -0.11411416059E+03  0.50067241925E+01 -0.12459841529E+03  0.21023052592E+03  0.12500000000E+03 0.  0.
</event>
<event>
 5    0  0.5576108E-005  0.3947462E+03  0.7546771E-02  0.1045614E+00
         21   -1    0    0  502  501  0.00000000000E+00  0.00000000000E+00  0.66586659777E+03  0.66586659777E+03  0.00000000000E+00 0.  1.
         21   -1    0    0  501  502 -0.00000000000E+00 -0.00000000000E+00 -0.23401769647E+03  0.23401769647E+03  0.00000000000E+00 0.  1.
         25    1    1    2    0    0 -0.10698049994E+02  0.29342609066E+03  0.57012642278E+02  0.32417396615E+03  0.12500000000E+03 0.  0.
         25    1    1    2    0    0  0.37096238582E+02 -0.36350007298E+02  0.55466448531E+02  0.14628390499E+03  0.12500000000E+03 0.  0.
         25    1    1    2    0    0 -0.26398188588E+02 -0.25707608336E+03  0.31936981049E+03  0.42942642309E+03  0.12500000000E+03 0.  0.
</event>
<event>
 5    0  0.5618893E-005  0.2563249E+03  0.7546771E-02  0.1109372E+00
         21   -1    0    0  502  501  0.00000000000E+00  0.00000000000E+00  0.40896112849E+03  0.40896112849E+03  0.00000000000E+00 0. -1.
         21   -1    0    0  501  502 -0.00000000000E+00 -0.00000000000E+00 -0.16065700743E+03  0.16065700743E+03  0.00000000000E+00 0. -1.
         25    1    1    2    0    0 -0.85503306231E+02  0.70023859526E+02  0.81477516844E+02  0.18568183010E+03  0.12500000000E+03 0.  0.
         25    1    1    2    0    0  0.13930439808E+03 -0.75653364809E+02  0.13849949057E+03  0.24481882244E+03  0.12500000000E+03 0.  0.
         25    1    1    2    0    0 -0.53801091847E+02  0.56295052834E+01  0.28327113640E+02  0.13911748338E+03  0.12500000000E+03 0.  0.
</event>
<event>
 5    0  0.5576108E-005  0.3738174E+03  0.7546771E-02  0.1053243E+00
         21   -1    0    0  502  501  0.00000000000E+00  0.00000000000E+00  0.12133929038E+03  0.12133929038E+03  0.00000000000E+00 0.  1.
         21   -1    0    0  501  502 -0.00000000000E+00 -0.00000000000E+00 -0.11516420148E+04  0.11516420148E+04  0.00000000000E+00 0.  1.
         25    1    1    2    0    0 -0.33802310116E+02 -0.31618720203E+02 -0.43214687917E+03  0.45223695648E+03  0.12500000000E+03 0.  0.
         25    1    1    2    0    0  0.18756927848E+03  0.20045997439E+03 -0.32030369539E+03  0.43998396885E+03  0.12500000000E+03 0.  0.
         25    1    1    2    0    0 -0.15376696837E+03 -0.16884125419E+03 -0.27785214987E+03  0.38076037985E+03  0.12500000000E+03 0.  0.
</event>
<event>
 5    0  0.5576108E-005  0.3896357E+03  0.7546771E-02  0.1047429E+00
         21   -1    0    0  502  501  0.00000000000E+00  0.00000000000E+00  0.71893979675E+02  0.71893979675E+02  0.00000000000E+00 0.  1.
         21   -1    0    0  501  502 -0.00000000000E+00 -0.00000000000E+00 -0.21116652356E+04  0.21116652356E+04  0.00000000000E+00 0.  1.
         25    1    1    2    0    0 -0.50329691616E+02  0.14960950584E+03 -0.31951144247E+03  0.37766207642E+03  0.12500000000E+03 0.  0.
         25    1    1    2    0    0 -0.93238078073E+02 -0.33918070095E+02 -0.14355767606E+04  0.14444200948E+04  0.12500000000E+03 0.  0.
         25    1    1    2    0    0  0.14356776969E+03 -0.11569143574E+03 -0.28468305285E+03  0.36147704406E+03  0.12500000000E+03 0.  0.
</event>
<event>
 5    0  0.5576108E-005  0.2790045E+03  0.7546771E-02  0.1096234E+00
         21   -1    0    0  502  501  0.00000000000E+00  0.00000000000E+00  0.39051630130E+03  0.39051630130E+03  0.00000000000E+00 0. -1.
         21   -1    0    0  501  502 -0.00000000000E+00 -0.00000000000E+00 -0.19933478706E+03  0.19933478706E+03  0.00000000000E+00 0. -1.
         25    1    1    2    0    0  0.46769654151E-01  0.68678527488E+02 -0.28571991796E+01  0.14265309640E+03  0.12500000000E+03 0.  0.
         25    1    1    2    0    0 -0.11703352113E+03 -0.13297331204E+03  0.76985651002E+02  0.23006637573E+03  0.12500000000E+03 0.  0.
         25    1    1    2    0    0  0.11698675147E+03  0.64294784555E+02  0.11705306242E+03  0.21713161622E+03  0.12500000000E+03 0.  0.
</event>
<event>
 5    0  0.5576108E-005  0.2757060E+03  0.7546771E-02  0.1098058E+00
         21   -1    0    0  502  501  0.00000000000E+00  0.00000000000E+00  0.53712069923E+03  0.53712069923E+03  0.00000000000E+00 0. -1.
         21   -1    0    0  501  502 -0.00000000000E+00 -0.00000000000E+00 -0.14152091653E+03  0.14152091653E+03  0.00000000000E+00 0. -1.
         25    1    1    2    0    0 -0.84581636121E+02  0.47412351829E+02  0.32417113802E+02  0.16148638810E+03  0.12500000000E+03 0.  0.
         25    1    1    2    0    0  0.14164082186E+03  0.51847941885E+02  0.16297087262E+03  0.25482314812E+03  0.12500000000E+03 0.  0.
         25    1    1    2    0    0 -0.57059185743E+02 -0.99260293715E+02  0.20021179628E+03  0.26233207954E+03  0.12500000000E+03 0.  0.
</event>
<event>
 5    0  0.5576108E-005  0.3063764E+03  0.7546771E-02  0.1082096E+00
         21   -1    0    0  502  501  0.00000000000E+00  0.00000000000E+00  0.18834996097E+03  0.18834996097E+03  0.00000000000E+00 0. -1.
         21   -1    0    0  501  502 -0.00000000000E+00 -0.00000000000E+00 -0.49836222286E+03  0.49836222286E+03  0.00000000000E+00 0. -1.
         25    1    1    2    0    0  0.44364515830E+02  0.74905336595E+02  0.10241504284E+02  0.15267255197E+03  0.12500000000E+03 0.  0.
         25    1    1    2    0    0 -0.80601620806E+02 -0.49405574876E+02  0.29954304717E+02  0.15956124992E+03  0.12500000000E+03 0.  0.
         25    1    1    2    0    0  0.36237104976E+02 -0.25499761720E+02 -0.35020807089E+03  0.37447838194E+03  0.12500000000E+03 0.  0.
</event>
<event>
 5    0  0.5600135E-005  0.3165057E+03  0.7546771E-02  0.1077269E+00
         21   -1    0    0  502  501  0.00000000000E+00  0.00000000000E+00  0.15653763299E+03  0.15653763299E+03  0.00000000000E+00 0. -1.
         21   -1    0    0  501  502 -0.00000000000E+00 -0.00000000000E+00 -0.63994731443E+03  0.63994731443E+03  0.00000000000E+00 0. -1.
         25    1    1    2    0    0 -0.48752349664E+02 -0.31793404572E+02 -0.10509031491E+03  0.17336835484E+03  0.12500000000E+03 0.  0.
         25    1    1    2    0    0 -0.89347315218E+02 -0.42880470921E+02 -0.39074413989E+03  0.42205172714E+03  0.12500000000E+03 0.  0.
         25    1    1    2    0    0  0.13809966488E+03  0.74673875493E+02  0.12424773352E+02  0.20106486544E+03  0.12500000000E+03 0.  0.
</event>
<event>
 5    0  0.5576108E-005  0.4491517E+03  0.7546771E-02  0.1027975E+00
         21   -1    0    0  502  501  0.00000000000E+00  0.00000000000E+00  0.11635059334E+04  0.11635059334E+04  0.00000000000E+00 0. -1.
         21   -1    0    0  501  502 -0.00000000000E+00 -0.00000000000E+00 -0.17338738222E+03  0.17338738222E+03  0.00000000000E+00 0. -1.
         25    1    1    2    0    0  0.61772292028E+02 -0.17071627840E+02  0.64775250779E+03  0.66280884717E+03  0.12500000000E+03 0.  0.
         25    1    1    2    0    0 -0.25396747845E+02  0.15248467710E+03  0.42474887727E+03  0.46897034053E+03  0.12500000000E+03 0.  0.
         25    1    1    2    0    0 -0.36375544183E+02 -0.13541304926E+03 -0.82382833936E+02  0.20511412787E+03  0.12500000000E+03 0.  0.
</event>
<event>
 5    0  0.6911190E-005  0.3217105E+03  0.7546771E-02  0.1074865E+00
         21   -1    0    0  502  501  0.00000000000E+00  0.00000000000E+00  0.32991137070E+03  0.32991137070E+03  0.00000000000E+00 0.  1.
         21   -1    0    0  501  502 -0.00000000000E+00 -0.00000000000E+00 -0.31371356350E+03  0.31371356350E+03  0.00000000000E+00 0.  1.
         25    1    1    2    0    0 -0.16617965870E+03 -0.93547896041E+02  0.13776478117E+03  0.26640387150E+03  0.12500000000E+03 0.  0.
         25    1    1    2    0    0  0.93915530911E+02  0.47584227508E+02  0.26265714027E+02  0.16552725874E+03  0.12500000000E+03 0.  0.
         25    1    1    2    0    0  0.72264127790E+02  0.45963668533E+02 -0.14783268800E+03  0.21169380395E+03  0.12500000000E+03 0.  0.
</event>
<event>
 5    0  0.5576108E-005  0.2693459E+03  0.7546771E-02  0.1101655E+00
         21   -1    0    0  502  501  0.00000000000E+00  0.00000000000E+00  0.82102077233E+03  0.82102077233E+03  0.00000000000E+00 0.  1.
         21   -1    0    0  501  502 -0.00000000000E+00 -0.00000000000E+00 -0.88362203036E+02  0.88362203036E+02  0.00000000000E+00 0.  1.
         25    1    1    2    0    0 -0.55580190780E+02  0.58615622782E+02  0.41798839471E+03  0.44369386625E+03  0.12500000000E+03 0.  0.
         25    1    1    2    0    0  0.13189218038E+03 -0.10933724253E+02  0.21727761936E+03  0.28346015143E+03  0.12500000000E+03 0.  0.
         25    1    1    2    0    0 -0.76311989604E+02 -0.47681898529E+02  0.97392555226E+02  0.18222895768E+03  0.12500000000E+03 0.  0.
</event>
<event>
 5    0  0.5576108E-005  0.2887756E+03  0.7546771E-02  0.1090990E+00
         21   -1    0    0  502  501  0.00000000000E+00  0.00000000000E+00  0.11770675017E+03  0.11770675017E+03  0.00000000000E+00 0. -1.
         21   -1    0    0  501  502 -0.00000000000E+00 -0.00000000000E+00 -0.70846721804E+03  0.70846721804E+03  0.00000000000E+00 0. -1.
         25    1    1    2    0    0  0.58986616670E+02  0.17139504415E+03 -0.10458007312E+03  0.24375740768E+03  0.12500000000E+03 0.  0.
         25    1    1    2    0    0 -0.39002581783E+02 -0.88551097848E+02 -0.17137276969E+03  0.23314399951E+03  0.12500000000E+03 0.  0.
         25    1    1    2    0    0 -0.19984034886E+02 -0.82843946302E+02 -0.31480762506E+03  0.34927256103E+03  0.12500000000E+03 0.  0.
</event>
<event>
 5    0  0.5576108E-005  0.2455214E+03  0.7546771E-02  0.1116168E+00
         21   -1    0    0  502  501  0.00000000000E+00  0.00000000000E+00  0.47887233187E+03  0.47887233187E+03  0.00000000000E+00 0. -1.
         21   -1    0    0  501  502 -0.00000000000E+00 -0.00000000000E+00 -0.12588060678E+03  0.12588060678E+03  0.00000000000E+00 0. -1.
         25    1    1    2    0    0  0.43924453452E+02  0.31805541677E+02  0.72583007576E+02  0.15438342878E+03  0.12500000000E+03 0.  0.
         25    1    1    2    0    0  0.66498625206E+02 -0.55106702105E+02  0.22801906402E+03  0.27400092943E+03  0.12500000000E+03 0.  0.
         25    1    1    2    0    0 -0.11042307866E+03  0.23301160428E+02  0.52389653499E+02  0.17636858045E+03  0.12500000000E+03 0.  0.
</event>
<event>
 5    0  0.5576108E-005  0.4174171E+03  0.7546771E-02  0.1037910E+00
         21   -1    0    0  502  501  0.00000000000E+00  0.00000000000E+00  0.74584547211E+02  0.74584547211E+02  0.00000000000E+00 0. -1.
         21   -1    0    0  501  502 -0.00000000000E+00 -0.00000000000E+00 -0.23361008830E+04  0.23361008830E+04  0.00000000000E+00 0. -1.
         25    1    1    2    0    0 -0.26300724130E+02 -0.64400518619E+02 -0.53516134398E+02  0.15273549531E+03  0.12500000000E+03 0.  0.
         25    1    1    2    0    0 -0.96775831759E+02 -0.13206556771E+03 -0.10953199781E+04  0.11145213010E+04  0.12500000000E+03 0.  0.
         25    1    1    2    0    0  0.12307655589E+03  0.19646608633E+03 -0.11126802233E+04  0.11434286340E+04  0.12500000000E+03 0.  0.
</event>
<event>
 5    0  0.5576108E-005  0.5246186E+03  0.7546771E-02  0.1007546E+00
         21   -1    0    0  502  501  0.00000000000E+00  0.00000000000E+00  0.12854043749E+04  0.12854043749E+04  0.00000000000E+00 0.  1.
         21   -1    0    0  501  502 -0.00000000000E+00 -0.00000000000E+00 -0.21411523171E+03  0.21411523171E+03  0.00000000000E+00 0.  1.
         25    1    1    2    0    0 -0.30920833108E+03  0.59490481566E+02  0.53743634133E+03  0.63530443914E+03  0.12500000000E+03 0.  0.
         25    1    1    2    0    0  0.39710629081E+03  0.26902314064E+02  0.54728673294E+03  0.68816052543E+03  0.12500000000E+03 0.  0.
         25    1    1    2    0    0 -0.87897959737E+02 -0.86392795630E+02 -0.13433931132E+02  0.17605464200E+03  0.12500000000E+03 0.  0.
</event>
<event>
 5    0  0.5576108E-005  0.3753592E+03  0.7546771E-02  0.1052662E+00
         21   -1    0    0  502  501  0.00000000000E+00  0.00000000000E+00  0.46715566675E+03  0.46715566675E+03  0.00000000000E+00 0.  1.
         21   -1    0    0  501  502 -0.00000000000E+00 -0.00000000000E+00 -0.30160084133E+03  0.30160084133E+03  0.00000000000E+00 0.  1.
         25    1    1    2    0    0 -0.12180087255E+03 -0.11880411283E+03 -0.80394689101E+02  0.22591630268E+03  0.12500000000E+03 0.  0.
         25    1    1    2    0    0 -0.21777823375E+02  0.78293164562E+02  0.30496481294E+03  0.33945932060E+03  0.12500000000E+03 0.  0.
         25    1    1    2    0    0  0.14357869593E+03  0.40510948268E+02 -0.59015298424E+02  0.20338088480E+03  0.12500000000E+03 0.  0.
</event>
<event>
 5    0  0.5576108E-005  0.4249741E+03  0.7546771E-02  0.1035459E+00
         21   -1    0    0  502  501  0.00000000000E+00  0.00000000000E+00  0.92683029415E+02  0.92683029415E+02  0.00000000000E+00 0. -1.
         21   -1    0    0  501  502 -0.00000000000E+00 -0.00000000000E+00 -0.19486088188E+04  0.19486088188E+04  0.00000000000E+00 0. -1.
         25    1    1    2    0    0  0.74403382444E+02  0.38614478123E+02 -0.21248072167E+03  0.26038432810E+03  0.12500000000E+03 0.  0.
         25    1    1    2    0    0  0.33990126669E+02  0.20919065062E+03 -0.23140030510E+03  0.33776790584E+03  0.12500000000E+03 0.  0.
         25    1    1    2    0    0 -0.10839350911E+03 -0.24780512874E+03 -0.14120447626E+04  0.14431396142E+04  0.12500000000E+03 0.  0.
</event>
<event>
 5    0  0.5576108E-005  0.3670926E+03  0.7546771E-02  0.1055810E+00
         21   -1    0    0  502  501  0.00000000000E+00  0.00000000000E+00  0.46470048237E+02  0.46470048237E+02  0.00000000000E+00 0. -1.
         21   -1    0    0  501  502 -0.00000000000E+00 -0.00000000000E+00 -0.28998679212E+04  0.28998679212E+04  0.00000000000E+00 0. -1.
         25    1    1    2    0    0  0.11364776552E+03  0.46891835699E+02 -0.38181972389E+03  0.42014992611E+03  0.12500000000E+03 0.  0.
         25    1    1    2    0    0  0.14319853501E+03  0.82839633143E+02 -0.89600279344E+03  0.91968159223E+03  0.12500000000E+03 0.  0.
         25    1    1    2    0    0 -0.25684630053E+03 -0.12973146884E+03 -0.15755753556E+04  0.16065064511E+04  0.12500000000E+03 0.  0.
</event>
<event>
 5    0  0.5576108E-005  0.2261913E+03  0.7546771E-02  0.1129350E+00
         21   -1    0    0  502  501  0.00000000000E+00  0.00000000000E+00  0.56964615145E+03  0.56964615145E+03  0.00000000000E+00 0.  1.
         21   -1    0    0  501  502 -0.00000000000E+00 -0.00000000000E+00 -0.89814520569E+02  0.89814520569E+02  0.00000000000E+00 0.  1.
         25    1    1    2    0    0 -0.47119825600E+02  0.98061181611E+02  0.23746408895E+03  0.28956945082E+03  0.12500000000E+03 0.  0.
         25    1    1    2    0    0  0.43451454012E+02 -0.27184856821E+02  0.12935657307E+03  0.18704322573E+03  0.12500000000E+03 0.  0.
         25    1    1    2    0    0  0.36683715877E+01 -0.70876324790E+02  0.11301096887E+03  0.18284799548E+03  0.12500000000E+03 0.  0.
</event>
<event>
 5    0  0.5576108E-005  0.2794682E+03  0.7546771E-02  0.1095980E+00
         21   -1    0    0  502  501  0.00000000000E+00  0.00000000000E+00  0.58935636442E+03  0.58935636442E+03  0.00000000000E+00 0.  1.
         21   -1    0    0  501  502 -0.00000000000E+00 -0.00000000000E+00 -0.13252166296E+03  0.13252166296E+03  0.00000000000E+00 0.  1.
         25    1    1    2    0    0  0.13669686256E+03  0.42979569190E+01  0.22113365217E+02  0.18659717466E+03  0.12500000000E+03 0.  0.
         25    1    1    2    0    0 -0.29535120714E+02  0.67848250353E+00  0.28531886945E+03  0.31289717314E+03  0.12500000000E+03 0.  0.
         25    1    1    2    0    0 -0.10716174185E+03 -0.49764394225E+01  0.14940246679E+03  0.22238367959E+03  0.12500000000E+03 0.  0.
</event>
<event>
 5    0  0.5576108E-005  0.2383681E+03  0.7546771E-02  0.1120885E+00
         21   -1    0    0  502  501  0.00000000000E+00  0.00000000000E+00  0.31795317061E+02  0.31795317061E+02  0.00000000000E+00 0. -1.
         21   -1    0    0  501  502 -0.00000000000E+00 -0.00000000000E+00 -0.17870345365E+04  0.17870345365E+04  0.00000000000E+00 0. -1.
         25    1    1    2    0    0 -0.44173668690E+02  0.24074326254E+00 -0.33509105044E+03  0.36036423663E+03  0.12500000000E+03 0.  0.
         25    1    1    2    0    0  0.12743619757E+03 -0.22807667140E+02 -0.74026383510E+03  0.76182394271E+03  0.12500000000E+03 0.  0.
         25    1    1    2    0    0 -0.83262528875E+02  0.22566923877E+02 -0.67988433395E+03  0.69664167426E+03  0.12500000000E+03 0.  0.
</event>
<event>
 5    0  0.5576108E-005  0.2973806E+03  0.7546771E-02  0.1086557E+00
         21   -1    0    0  502  501  0.00000000000E+00  0.00000000000E+00  0.12472999557E+03  0.12472999557E+03  0.00000000000E+00 0. -1.
         21   -1    0    0  501  502 -0.00000000000E+00 -0.00000000000E+00 -0.70901347359E+03  0.70901347359E+03  0.00000000000E+00 0. -1.
         25    1    1    2    0    0  0.77296973163E+01  0.42891120751E+02 -0.94628202635E+02  0.16272336401E+03  0.12500000000E+03 0.  0.
         25    1    1    2    0    0  0.34179840759E+02  0.16168339679E+03 -0.16282485804E+03  0.26352744962E+03  0.12500000000E+03 0.  0.
         25    1    1    2    0    0 -0.41909538075E+02 -0.20457451754E+03 -0.32683041735E+03  0.40749265553E+03  0.12500000000E+03 0.  0.
</event>
<event>
 5    0  0.5576108E-005  0.2853720E+03  0.7546771E-02  0.1092791E+00
         21   -1    0    0  502  501  0.00000000000E+00  0.00000000000E+00  0.38434737280E+03  0.38434737280E+03  0.00000000000E+00 0.  1.
         21   -1    0    0  501  502 -0.00000000000E+00 -0.00000000000E+00 -0.21188435657E+03  0.21188435657E+03  0.00000000000E+00 0.  1.
         25    1    1    2    0    0 -0.60265633716E+02  0.66997382035E+02 -0.10659739950E+03  0.18737289395E+03  0.12500000000E+03 0.  0.
         25    1    1    2    0    0  0.91945283153E+02 -0.68509652128E+02  0.16645336674E+03  0.23765359418E+03  0.12500000000E+03 0.  0.
         25    1    1    2    0    0 -0.31679649437E+02  0.15122700929E+01  0.11260704897E+03  0.17120524124E+03  0.12500000000E+03 0.  0.
</event>
<event>
 5    0  0.5576108E-005  0.3022231E+03  0.7546771E-02  0.1084135E+00
         21   -1    0    0  502  501  0.00000000000E+00  0.00000000000E+00  0.17743415117E+03  0.17743415117E+03  0.00000000000E+00 0. -1.
         21   -1    0    0  501  502 -0.00000000000E+00 -0.00000000000E+00 -0.51477562124E+03  0.51477562124E+03  0.00000000000E+00 0. -1.
         25    1    1    2    0    0  0.17677883638E+03  0.65566619776E+02 -0.22370146758E+03  0.31814632674E+03  0.12500000000E+03 0.  0.
         25    1    1    2    0    0 -0.15899528873E+02  0.11519280638E+02 -0.89317501698E+02  0.15488093800E+03  0.12500000000E+03 0.  0.
         25    1    1    2    0    0 -0.16087930751E+03 -0.77085900415E+02 -0.24322500795E+02  0.21918250768E+03  0.12500000000E+03 0.  0.
</event>
<event>
 5    0  0.5576108E-005  0.3356250E+03  0.7546771E-02  0.1068675E+00
         21   -1    0    0  502  501  0.00000000000E+00  0.00000000000E+00  0.19853022331E+04  0.19853022331E+04  0.00000000000E+00 0.  1.
         21   -1    0    0  501  502 -0.00000000000E+00 -0.00000000000E+00 -0.56739034026E+02  0.56739034026E+02  0.00000000000E+00 0.  1.
         25    1    1    2    0    0  0.24600207998E+02 -0.63799935048E+02  0.96247003526E+03  0.97295897690E+03  0.12500000000E+03 0.  0.
         25    1    1    2    0    0 -0.33968827700E+02  0.22064804243E+03  0.57905185550E+03  0.63306041674E+03  0.12500000000E+03 0.  0.
         25    1    1    2    0    0  0.93686197015E+01 -0.15684810738E+03  0.38704130834E+03  0.43602187351E+03  0.12500000000E+03 0.  0.
</event>
<event>
 5    0  0.5576108E-005  0.2178943E+03  0.7546771E-02  0.1135463E+00
         21   -1    0    0  502  501  0.00000000000E+00  0.00000000000E+00  0.12643153529E+04  0.12643153529E+04  0.00000000000E+00 0.  1.
         21   -1    0    0  501  502 -0.00000000000E+00 -0.00000000000E+00 -0.37552273843E+02  0.37552273843E+02  0.00000000000E+00 0.  1.
         25    1    1    2    0    0 -0.21514820531E+02  0.38548523998E+02  0.45095613195E+03  0.47003756142E+03  0.12500000000E+03 0.  0.
         25    1    1    2    0    0 -0.33618262889E+02  0.36683906498E+02  0.25698209768E+03  0.29007015552E+03  0.12500000000E+03 0.  0.
         25    1    1    2    0    0  0.55133083420E+02 -0.75232430496E+02  0.51882484946E+03  0.54175990983E+03  0.12500000000E+03 0.  0.
</event>
<event>
 5    0  0.5576108E-005  0.2664782E+03  0.7546771E-02  0.1103312E+00
         21   -1    0    0  502  501  0.00000000000E+00  0.00000000000E+00  0.11080790673E+03  0.11080790673E+03  0.00000000000E+00 0.  1.
         21   -1    0    0  501  502 -0.00000000000E+00 -0.00000000000E+00 -0.64084439914E+03  0.64084439914E+03  0.00000000000E+00 0. -1.
         25    1    1    2    0    0  0.10740104406E+03  0.28363019594E+02 -0.14648491207E+03  0.22231121117E+03  0.12500000000E+03 0.  0.
         25    1    1    2    0    0  0.70822278501E+02  0.71981422725E+01 -0.13950309595E+03  0.20038393689E+03  0.12500000000E+03 0.  0.
         25    1    1    2    0    0 -0.17822332257E+03 -0.35561161866E+02 -0.24404848439E+03  0.32895715781E+03  0.12500000000E+03 0.  0.
</event>
<event>
 5    0  0.5576108E-005  0.3425408E+03  0.7546771E-02  0.1065719E+00
         21   -1    0    0  502  501  0.00000000000E+00  0.00000000000E+00  0.31758457501E+03  0.31758457501E+03  0.00000000000E+00 0. -1.
         21   -1    0    0  501  502 -0.00000000000E+00 -0.00000000000E+00 -0.36945817421E+03  0.36945817421E+03  0.00000000000E+00 0. -1.
         25    1    1    2    0    0 -0.39409831768E+02  0.57516563346E+02  0.42099713289E+01  0.14319222660E+03  0.12500000000E+03 0.  0.
         25    1    1    2    0    0  0.24593447905E+03 -0.10367401260E+03 -0.41687790311E+02  0.29764902274E+03  0.12500000000E+03 0.  0.
         25    1    1    2    0    0 -0.20652464728E+03  0.46157449255E+02 -0.14395780214E+02  0.24620149988E+03  0.12500000000E+03 0.  0.
</event>
<event>
 5    0  0.5576108E-005  0.2591491E+03  0.7546771E-02  0.1107656E+00
         21   -1    0    0  502  501  0.00000000000E+00  0.00000000000E+00  0.38294884176E+03  0.38294884176E+03  0.00000000000E+00 0. -1.
         21   -1    0    0  501  502 -0.00000000000E+00 -0.00000000000E+00 -0.17537138324E+03  0.17537138324E+03  0.00000000000E+00 0. -1.
         25    1    1    2    0    0 -0.98747688627E+01 -0.15511546591E+03  0.15709920940E+03  0.25389659395E+03  0.12500000000E+03 0.  0.
         25    1    1    2    0    0 -0.83685544179E+01  0.10002925530E+03  0.44962166625E+02  0.16650069383E+03  0.12500000000E+03 0.  0.
         25    1    1    2    0    0  0.18243323281E+02  0.55086210610E+02  0.55160824883E+01  0.13792293721E+03  0.12500000000E+03 0.  0.
</event>
<event>
 5    0  0.5576108E-005  0.2373503E+03  0.7546771E-02  0.1121571E+00
         21   -1    0    0  502  501  0.00000000000E+00  0.00000000000E+00  0.56857859546E+02  0.56857859546E+02  0.00000000000E+00 0.  1.
         21   -1    0    0  501  502 -0.00000000000E+00 -0.00000000000E+00 -0.99080681667E+03  0.99080681667E+03  0.00000000000E+00 0.  1.
         25    1    1    2    0    0 -0.68548987483E+01  0.44836328068E+02 -0.18135730736E+03  0.22488387867E+03  0.12500000000E+03 0.  0.
         25    1    1    2    0    0 -0.28093128282E+02  0.76759356583E+02 -0.27153158886E+03  0.30989615426E+03  0.12500000000E+03 0.  0.
         25    1    1    2    0    0  0.34948027031E+02 -0.12159568465E+03 -0.48106006090E+03  0.51288464328E+03  0.12500000000E+03 0.  0.
</event>
<event>
 5    0  0.5576108E-005  0.2574256E+03  0.7546771E-02  0.1108700E+00
         21   -1    0    0  502  501  0.00000000000E+00  0.00000000000E+00  0.93692937695E+03  0.93692937695E+03  0.00000000000E+00 0. -1.
         21   -1    0    0  501  502 -0.00000000000E+00 -0.00000000000E+00 -0.70728848624E+02  0.70728848624E+02  0.00000000000E+00 0. -1.
         25    1    1    2    0    0  0.40812517127E+01  0.17506633431E+02  0.49977386936E+03  0.51548235597E+03  0.12500000000E+03 0.  0.
         25    1    1    2    0    0 -0.67541015951E+01 -0.35087392940E+02  0.33885950499E+03  0.36294284282E+03  0.12500000000E+03 0.  0.
         25    1    1    2    0    0  0.26728498825E+01  0.17580759509E+02  0.27567153976E+02  0.12923302678E+03  0.12500000000E+03 0.  0.
</event>
<event>
 5    0  0.5576108E-005  0.3770757E+03  0.7546771E-02  0.1052020E+00
         21   -1    0    0  502  501  0.00000000000E+00  0.00000000000E+00  0.55215033274E+02  0.55215033274E+02  0.00000000000E+00 0.  1.
         21   -1    0    0  501  502 -0.00000000000E+00 -0.00000000000E+00 -0.25751336285E+04  0.25751336285E+04  0.00000000000E+00 0.  1.
         25    1    1    2    0    0  0.13539409997E+02 -0.20906181487E+02 -0.46140626107E+03  0.47868687239E+03  0.12500000000E+03 0.  0.
         25    1    1    2    0    0  0.62788807524E+02 -0.22788823538E+03 -0.14925895171E+04  0.15163521849E+04  0.12500000000E+03 0.  0.
         25    1    1    2    0    0 -0.76328217521E+02  0.24879441686E+03 -0.56592281710E+03  0.63530960450E+03  0.12500000000E+03 0.  0.
</event>
<event>
 5    0  0.5576108E-005  0.2265925E+03  0.7546771E-02  0.1129061E+00
         21   -1    0    0  502  501  0.00000000000E+00  0.00000000000E+00  0.18132829292E+04  0.18132829292E+04  0.00000000000E+00 0.  1.
         21   -1    0    0  501  502 -0.00000000000E+00 -0.00000000000E+00 -0.28315577077E+02  0.28315577077E+02  0.00000000000E+00 0.  1.
         25    1    1    2    0    0  0.36616329092E+02 -0.50393272371E+02  0.63725577921E+03  0.65238038412E+03  0.12500000000E+03 0.  0.
         25    1    1    2    0    0 -0.93275092435E+02 -0.12594264602E+02  0.67837996950E+03  0.69619195729E+03  0.12500000000E+03 0.  0.
         25    1    1    2    0    0  0.56658763344E+02  0.62987536973E+02  0.46933160339E+03  0.49302616484E+03  0.12500000000E+03 0.  0.
</event>
<event>
 5    0  0.5576108E-005  0.2671351E+03  0.7546771E-02  0.1102931E+00
         21   -1    0    0  502  501  0.00000000000E+00  0.00000000000E+00  0.14472261675E+03  0.14472261675E+03  0.00000000000E+00 0. -1.
         21   -1    0    0  501  502 -0.00000000000E+00 -0.00000000000E+00 -0.49308921935E+03  0.49308921935E+03  0.00000000000E+00 0. -1.
         25    1    1    2    0    0  0.32702755779E+02  0.25048385773E+02 -0.12838291643E+02  0.13223733814E+03  0.12500000000E+03 0.  0.
         25    1    1    2    0    0 -0.35990921617E+02 -0.12813296549E+03 -0.72136459093E+02  0.19632134885E+03  0.12500000000E+03 0.  0.
         25    1    1    2    0    0  0.32881658382E+01  0.10308457972E+03 -0.26339185186E+03  0.30925314911E+03  0.12500000000E+03 0.  0.
</event>
<event>
 5    0  0.5576108E-005  0.2656743E+03  0.7546771E-02  0.1103781E+00
         21   -1    0    0  502  501  0.00000000000E+00  0.00000000000E+00  0.46996093070E+02  0.46996093070E+02  0.00000000000E+00 0.  1.
         21   -1    0    0  501  502 -0.00000000000E+00 -0.00000000000E+00 -0.15018872445E+04  0.15018872445E+04  0.00000000000E+00 0.  1.
         25    1    1    2    0    0 -0.70872301588E+01  0.91687004197E+02 -0.15388536210E+03  0.21854619703E+03  0.12500000000E+03 0.  0.
         25    1    1    2    0    0  0.25985272431E+02 -0.54721732552E+02 -0.51655284651E+03  0.53490330494E+03  0.12500000000E+03 0.  0.
         25    1    1    2    0    0 -0.18898042272E+02 -0.36965271645E+02 -0.78445294281E+03  0.79543383558E+03  0.12500000000E+03 0.  0.
</event>
<event>
 5    0  0.5576108E-005  0.4949435E+03  0.7546771E-02  0.1015107E+00
         21   -1    0    0  502  501  0.00000000000E+00  0.00000000000E+00  0.56258121161E+03  0.56258121161E+03  0.00000000000E+00 0.  1.
         21   -1    0    0  501  502 -0.00000000000E+00 -0.00000000000E+00 -0.43543763509E+03  0.43543763509E+03  0.00000000000E+00 0.  1.
         25    1    1    2    0    0  0.17617854084E+03 -0.21984114538E+03  0.35140846780E+02  0.31020781191E+03  0.12500000000E+03 0.  0.
         25    1    1    2    0    0 -0.32104135958E+03  0.51822315786E+02 -0.10719852769E+03  0.36451286852E+03  0.12500000000E+03 0.  0.
         25    1    1    2    0    0  0.14486281874E+03  0.16801882960E+03  0.19920125743E+03  0.32329816627E+03  0.12500000000E+03 0.  0.
</event>
<event>
 5    0  0.5576108E-005  0.2928803E+03  0.7546771E-02  0.1088855E+00
         21   -1    0    0  502  501  0.00000000000E+00  0.00000000000E+00  0.24284971485E+04  0.24284971485E+04  0.00000000000E+00 0.  1.
         21   -1    0    0  501  502 -0.00000000000E+00 -0.00000000000E+00 -0.35321794134E+02  0.35321794134E+02  0.00000000000E+00 0.  1.
         25    1    1    2    0    0 -0.11728384726E+03 -0.14789643731E+03  0.98247194463E+03  0.10082187158E+04  0.12500000000E+03 0.  0.
         25    1    1    2    0    0  0.38155367513E+02 -0.80219488799E+01  0.35838412981E+03  0.38155519683E+03  0.12500000000E+03 0.  0.
         25    1    1    2    0    0  0.79128479744E+02  0.15591838619E+03  0.10523192799E+04  0.10740450300E+04  0.12500000000E+03 0.  0.
</event>
<event>
 5    0  0.5576108E-005  0.2786592E+03  0.7546771E-02  0.1096423E+00
         21   -1    0    0  502  501  0.00000000000E+00  0.00000000000E+00  0.60345124703E+03  0.60345124703E+03  0.00000000000E+00 0. -1.
         21   -1    0    0  501  502 -0.00000000000E+00 -0.00000000000E+00 -0.12867812849E+03  0.12867812849E+03  0.00000000000E+00 0. -1.
         25    1    1    2    0    0 -0.93268222130E+02  0.46048762321E+02  0.39424223614E+03  0.42646382089E+03  0.12500000000E+03 0.  0.
         25    1    1    2    0    0  0.81505126555E+02  0.23736902096E+02  0.36888178368E+02  0.15553862504E+03  0.12500000000E+03 0.  0.
         25    1    1    2    0    0  0.11763095575E+02 -0.69785664417E+02  0.43642704032E+02  0.15012692960E+03  0.12500000000E+03 0.  0.
</event>
<event>
 5    0  0.5576108E-005  0.3033263E+03  0.7546771E-02  0.1083590E+00
         21   -1    0    0  502  501  0.00000000000E+00  0.00000000000E+00  0.64227775520E+02  0.64227775520E+02  0.00000000000E+00 0. -1.
         21   -1    0    0  501  502 -0.00000000000E+00 -0.00000000000E+00 -0.14325083724E+04  0.14325083724E+04  0.00000000000E+00 0. -1.
         25    1    1    2    0    0  0.35318749011E+02 -0.36244404572E+01 -0.11947050846E+03  0.17651842112E+03  0.12500000000E+03 0.  0.
         25    1    1    2    0    0  0.30189262909E+02  0.68260127819E+02 -0.10843260206E+04  0.10940561026E+04  0.12500000000E+03 0.  0.
         25    1    1    2    0    0 -0.65508011920E+02 -0.64635687362E+02 -0.16448406781E+03  0.22616162422E+03  0.12500000000E+03 0.  0.
</event>
<event>
 5    0  0.5576108E-005  0.4208788E+03  0.7546771E-02  0.1036781E+00
         21   -1    0    0  502  501  0.00000000000E+00  0.00000000000E+00  0.13001250207E+03  0.13001250207E+03  0.00000000000E+00 0.  1.
         21   -1    0    0  501  502 -0.00000000000E+00 -0.00000000000E+00 -0.13624760832E+04  0.13624760832E+04  0.00000000000E+00 0.  1.
         25    1    1    2    0    0  0.28168480754E+03  0.54915927615E+02 -0.27627334264E+03  0.41750934092E+03  0.12500000000E+03 0.  0.
         25    1    1    2    0    0  0.28824202749E+02  0.32090175169E+02 -0.38685978586E+03  0.40883506200E+03  0.12500000000E+03 0.  0.
         25    1    1    2    0    0 -0.31050901029E+03 -0.87006102784E+02 -0.56933045262E+03  0.66614418235E+03  0.12500000000E+03 0.  0.
</event>
<event>
 5    0  0.5576108E-005  0.3004437E+03  0.7546771E-02  0.1085019E+00
         21   -1    0    0  502  501  0.00000000000E+00  0.00000000000E+00  0.11743925717E+03  0.11743925717E+03  0.00000000000E+00 0. -1.
         21   -1    0    0  501  502 -0.00000000000E+00 -0.00000000000E+00 -0.76862211414E+03  0.76862211414E+03  0.00000000000E+00 0. -1.
         25    1    1    2    0    0  0.84921066606E+02 -0.31589896319E+02 -0.92380731580E+02  0.17991305864E+03  0.12500000000E+03 0.  0.
         25    1    1    2    0    0  0.52538299782E+02  0.74334095988E+02 -0.49545296844E+02  0.16237477393E+03  0.12500000000E+03 0.  0.
         25    1    1    2    0    0 -0.13745936639E+03 -0.42744199668E+02 -0.50925682854E+03  0.54377353874E+03  0.12500000000E+03 0.  0.
</event>
<event>
 5    0  0.5576108E-005  0.3488232E+03  0.7546771E-02  0.1063099E+00
         21   -1    0    0  502  501  0.00000000000E+00  0.00000000000E+00  0.65203479077E+02  0.65203479077E+02  0.00000000000E+00 0.  1.
         21   -1    0    0  501  502 -0.00000000000E+00 -0.00000000000E+00 -0.18661221252E+04  0.18661221252E+04  0.00000000000E+00 0.  1.
         25    1    1    2    0    0 -0.63087937777E+02  0.12781820750E+02 -0.68578627775E+02  0.15643366333E+03  0.12500000000E+03 0.  0.
         25    1    1    2    0    0 -0.99619421996E+02 -0.66205065647E+02 -0.85096152913E+03  0.86837069505E+03  0.12500000000E+03 0.  0.
         25    1    1    2    0    0  0.16270735977E+03  0.53423244897E+02 -0.88137848924E+03  0.90652124592E+03  0.12500000000E+03 0.  0.
</event>
<event>
 5    0  0.5576108E-005  0.5537519E+03  0.7546771E-02  0.1000629E+00
         21   -1    0    0  502  501  0.00000000000E+00  0.00000000000E+00  0.37861739855E+03  0.37861739855E+03  0.00000000000E+00 0.  1.
         21   -1    0    0  501  502 -0.00000000000E+00 -0.00000000000E+00 -0.80989714487E+03  0.80989714487E+03  0.00000000000E+00 0.  1.
         25    1    1    2    0    0 -0.82365800292E+02 -0.11618472701E+03 -0.72534724716E+03  0.74969103290E+03  0.12500000000E+03 0.  0.
         25    1    1    2    0    0 -0.32520786772E+02  0.80407620386E+02  0.13299554948E+03  0.20207870538E+03  0.12500000000E+03 0.  0.
         25    1    1    2    0    0  0.11488658706E+03  0.35777106623E+02  0.16107195135E+03  0.23674480514E+03  0.12500000000E+03 0.  0.
</event>
<event>
 5    0  0.5576108E-005  0.3022407E+03  0.7546771E-02  0.1084126E+00
         21   -1    0    0  502  501  0.00000000000E+00  0.00000000000E+00  0.18366013415E+04  0.18366013415E+04  0.00000000000E+00 0.  1.
         21   -1    0    0  501  502 -0.00000000000E+00 -0.00000000000E+00 -0.49738307035E+02  0.49738307035E+02  0.00000000000E+00 0.  1.
         25    1    1    2    0    0  0.90364062593E+02 -0.94779719959E+02  0.30057820393E+03  0.35088618639E+03  0.12500000000E+03 0.  0.
         25    1    1    2    0    0  0.55243116452E+01 -0.77915413797E+02  0.68990218704E+03  0.70547243562E+03  0.12500000000E+03 0.  0.
         25    1    1    2    0    0 -0.95888374238E+02  0.17269513376E+03  0.79638264347E+03  0.82998102650E+03  0.12500000000E+03 0.  0.
</event>
<event>
 5    0  0.5576108E-005  0.3626477E+03  0.7546771E-02  0.1057540E+00
         21   -1    0    0  502  501  0.00000000000E+00  0.00000000000E+00  0.51894097802E+02  0.51894097802E+02  0.00000000000E+00 0.  1.
         21   -1    0    0  501  502 -0.00000000000E+00 -0.00000000000E+00 -0.25342638945E+04  0.25342638945E+04  0.00000000000E+00 0.  1.
         25    1    1    2    0    0 -0.13201399486E+03 -0.26230363352E+03 -0.99143782594E+03  0.10415396554E+04  0.12500000000E+03 0.  0.
         25    1    1    2    0    0  0.91822594023E+02  0.11267839727E+03 -0.92606439064E+03  0.94569977561E+03  0.12500000000E+03 0.  0.
         25    1    1    2    0    0  0.40191400833E+02  0.14962523625E+03 -0.56486758008E+03  0.59891856128E+03  0.12500000000E+03 0.  0.
</event>
<event>
 5    0  0.6061391E-005  0.2905849E+03  0.7546771E-02  0.1090044E+00
         21   -1    0    0  502  501  0.00000000000E+00  0.00000000000E+00  0.19718817992E+03  0.19718817992E+03  0.00000000000E+00 0. -1.
         21   -1    0    0  501  502 -0.00000000000E+00 -0.00000000000E+00 -0.42821841777E+03  0.42821841777E+03  0.00000000000E+00 0. -1.
         25    1    1    2    0    0  0.13362094676E+03  0.10032199215E+03  0.10321282451E+02  0.20892723229E+03  0.12500000000E+03 0.  0.
         25    1    1    2    0    0  0.10055676190E+02 -0.49553525079E+02 -0.14178696854E+03  0.19566607504E+03  0.12500000000E+03 0.  0.
         25    1    1    2    0    0 -0.14367662295E+03 -0.50768467071E+02 -0.99564551757E+02  0.22081329035E+03  0.12500000000E+03 0.  0.
</event>
<event>
 5    0  0.5576108E-005  0.6405982E+03  0.7546771E-02  0.9824583E-01
         21   -1    0    0  502  501  0.00000000000E+00  0.00000000000E+00  0.50210822285E+03  0.50210822285E+03  0.00000000000E+00 0. -1.
         21   -1    0    0  501  502 -0.00000000000E+00 -0.00000000000E+00 -0.81728598440E+03  0.81728598440E+03  0.00000000000E+00 0. -1.
         25    1    1    2    0    0 -0.26898895218E+03  0.32721278706E+03 -0.10036355230E+03  0.45290297751E+03  0.12500000000E+03 0.  0.
         25    1    1    2    0    0 -0.16472980916E+03 -0.69277845609E+02  0.11923068790E+03  0.24854835919E+03  0.12500000000E+03 0.  0.
         25    1    1    2    0    0  0.43371876133E+03 -0.25793494145E+03 -0.33404489715E+03  0.61794287055E+03  0.12500000000E+03 0.  0.
</event>
<event>
 5    0  0.5576108E-005  0.2833058E+03  0.7546771E-02  0.1093897E+00
         21   -1    0    0  502  501  0.00000000000E+00  0.00000000000E+00  0.29585547872E+03  0.29585547872E+03  0.00000000000E+00 0.  1.
         21   -1    0    0  501  502 -0.00000000000E+00 -0.00000000000E+00 -0.27128847592E+03  0.27128847592E+03  0.00000000000E+00 0.  1.
         25    1    1    2    0    0 -0.10431941701E+03  0.76318220008E+02  0.53484343049E+02  0.18759687210E+03  0.12500000000E+03 0.  0.
         25    1    1    2    0    0  0.15359815891E+03 -0.10411765327E+03 -0.73140556930E+02  0.23538781024E+03  0.12500000000E+03 0.  0.
         25    1    1    2    0    0 -0.49278741897E+02  0.27799433267E+02  0.44223216678E+02  0.14415927229E+03  0.12500000000E+03 0.  0.
</event>
<event>
 5    0  0.6310732E-005  0.2863847E+03  0.7546771E-02  0.1092252E+00
         21   -1    0    0  502  501  0.00000000000E+00  0.00000000000E+00  0.38078971043E+03  0.38078971043E+03  0.00000000000E+00 0.  1.
         21   -1    0    0  501  502 -0.00000000000E+00 -0.00000000000E+00 -0.21538447362E+03  0.21538447362E+03  0.00000000000E+00 0.  1.
         25    1    1    2    0    0 -0.11431527068E+03  0.55002457959E+01  0.69974748495E+02  0.18335675401E+03  0.12500000000E+03 0.  0.
         25    1    1    2    0    0  0.14590037010E+03 -0.10575504413E+03  0.11618484652E+03  0.24818333126E+03  0.12500000000E+03 0.  0.
         25    1    1    2    0    0 -0.31585099418E+02  0.10025479834E+03 -0.20754358211E+02  0.16463409878E+03  0.12500000000E+03 0.  0.
</event>
<event>
 5    0  0.5576108E-005  0.3194518E+03  0.7546771E-02  0.1075902E+00
         21   -1    0    0  502  501  0.00000000000E+00  0.00000000000E+00  0.30488085086E+03  0.30488085086E+03  0.00000000000E+00 0. -1.
         21   -1    0    0  501  502 -0.00000000000E+00 -0.00000000000E+00 -0.33471902422E+03  0.33471902422E+03  0.00000000000E+00 0. -1.
         25    1    1    2    0    0 -0.50702608608E+01 -0.25752182349E+02  0.62644759202E+02  0.14226119744E+03  0.12500000000E+03 0.  0.
         25    1    1    2    0    0 -0.60333290920E+02  0.81789904175E+02 -0.23777487102E+03  0.28721348106E+03  0.12500000000E+03 0.  0.
         25    1    1    2    0    0  0.65403551781E+02 -0.56037721825E+02  0.14529193846E+03  0.21012519657E+03  0.12500000000E+03 0.  0.
</event>
<event>
 5    0  0.5576108E-005  0.4865766E+03  0.7546771E-02  0.1017343E+00
         21   -1    0    0  502  501  0.00000000000E+00  0.00000000000E+00  0.98463322602E+03  0.98463322602E+03  0.00000000000E+00 0.  1.
         21   -1    0    0  501  502 -0.00000000000E+00 -0.00000000000E+00 -0.24045174621E+03  0.24045174621E+03  0.00000000000E+00 0.  1.
         25    1    1    2    0    0  0.10529947132E+03  0.21020298736E+03  0.59114690162E+03  0.64834630704E+03  0.12500000000E+03 0.  0.
         25    1    1    2    0    0  0.22129826999E+02  0.59590334189E+02  0.20572674186E+03  0.24897636331E+03  0.12500000000E+03 0.  0.
         25    1    1    2    0    0 -0.12742929832E+03 -0.26979332155E+03 -0.52692163668E+02  0.32776230188E+03  0.12500000000E+03 0.  0.
</event>
<event>
 5    0  0.5576108E-005  0.3273108E+03  0.7546771E-02  0.1072333E+00
         21   -1    0    0  502  501  0.00000000000E+00  0.00000000000E+00  0.22304266958E+03  0.22304266958E+03  0.00000000000E+00 0. -1.
         21   -1    0    0  501  502 -0.00000000000E+00 -0.00000000000E+00 -0.48032239972E+03  0.48032239972E+03  0.00000000000E+00 0. -1.
         25    1    1    2    0    0 -0.25922501956E+02 -0.14757643094E+03 -0.44256677912E+02  0.20008606302E+03  0.12500000000E+03 0.  0.
         25    1    1    2    0    0  0.56806210135E+02  0.13674561675E+03  0.58633434062E+02  0.20245786920E+03  0.12500000000E+03 0.  0.
         25    1    1    2    0    0 -0.30883708179E+02  0.10830814182E+02 -0.27165648630E+03  0.30082113708E+03  0.12500000000E+03 0.  0.
</event>
<event>
 5    0  0.5576108E-005  0.5173868E+03  0.7546771E-02  0.1009338E+00
         21   -1    0    0  502  501  0.00000000000E+00  0.00000000000E+00  0.16009379812E+03  0.16009379812E+03  0.00000000000E+00 0. -1.
         21   -1    0    0  501  502 -0.00000000000E+00 -0.00000000000E+00 -0.16720767642E+04  0.16720767642E+04  0.00000000000E+00 0. -1.
         25    1    1    2    0    0 -0.96944683106E+02 -0.33172958151E+03 -0.21245985094E+03  0.42450792112E+03  0.12500000000E+03 0.  0.
         25    1    1    2    0    0  0.11272849835E+03  0.33843284547E+03 -0.11576879675E+04  0.12178304214E+04  0.12500000000E+03 0.  0.
         25    1    1    2    0    0 -0.15783815240E+02 -0.67032639631E+01 -0.14183514772E+03  0.18983221986E+03  0.12500000000E+03 0.  0.
</event>
<event>
 5    0  0.5576108E-005  0.3995708E+03  0.7546771E-02  0.1043928E+00
         21   -1    0    0  502  501  0.00000000000E+00  0.00000000000E+00  0.22956229022E+03  0.22956229022E+03  0.00000000000E+00 0. -1.
         21   -1    0    0  501  502 -0.00000000000E+00 -0.00000000000E+00 -0.69548380703E+03  0.69548380703E+03  0.00000000000E+00 0. -1.
         25    1    1    2    0    0  0.63011431570E+02  0.11519361998E+03 -0.47588078802E+03  0.50924211825E+03  0.12500000000E+03 0.  0.
         25    1    1    2    0    0  0.78991557066E+02 -0.82267494128E+02 -0.97968469191E+02  0.19552602802E+03  0.12500000000E+03 0.  0.
         25    1    1    2    0    0 -0.14200298864E+03 -0.32926125849E+02  0.10792774040E+03  0.22027795099E+03  0.12500000000E+03 0.  0.
</event>
<event>
 5    0  0.5576108E-005  0.3033947E+03  0.7546771E-02  0.1083556E+00
         21   -1    0    0  502  501  0.00000000000E+00  0.00000000000E+00  0.65647536800E+02  0.65647536800E+02  0.00000000000E+00 0. -1.
         21   -1    0    0  501  502 -0.00000000000E+00 -0.00000000000E+00 -0.14021600273E+04  0.14021600273E+04  0.00000000000E+00 0. -1.
         25    1    1    2    0    0 -0.44518736508E+02 -0.43391926066E+02 -0.25475163607E+03  0.29049642550E+03  0.12500000000E+03 0.  0.
         25    1    1    2    0    0 -0.27056120280E+02  0.20201113728E+03 -0.44053279467E+03  0.50123315574E+03  0.12500000000E+03 0.  0.
         25    1    1    2    0    0  0.71574856788E+02 -0.15861921121E+03 -0.64122805978E+03  0.67607798288E+03  0.12500000000E+03 0.  0.
</event>
<event>
 5    0  0.5576108E-005  0.2867551E+03  0.7546771E-02  0.1092056E+00
         21   -1    0    0  502  501  0.00000000000E+00  0.00000000000E+00  0.59948039077E+03  0.59948039077E+03  0.00000000000E+00 0. -1.
         21   -1    0    0  501  502 -0.00000000000E+00 -0.00000000000E+00 -0.13716628816E+03  0.13716628816E+03  0.00000000000E+00 0. -1.
         25    1    1    2    0    0 -0.12861373762E+03 -0.14020784936E+03  0.20618977254E+03  0.30714647455E+03  0.12500000000E+03 0.  0.
         25    1    1    2    0    0  0.99762155962E+02  0.12506727242E+03  0.21062560412E+03  0.29254479231E+03  0.12500000000E+03 0.  0.
         25    1    1    2    0    0  0.28851581656E+02  0.15140576939E+02  0.45498725951E+02  0.13695541208E+03  0.12500000000E+03 0.  0.
</event>
<event>
 5    0  0.5576108E-005  0.3084734E+03  0.7546771E-02  0.1081080E+00
         21   -1    0    0  502  501  0.00000000000E+00  0.00000000000E+00  0.33376873785E+03  0.33376873785E+03  0.00000000000E+00 0. -1.
         21   -1    0    0  501  502 -0.00000000000E+00 -0.00000000000E+00 -0.28509506829E+03  0.28509506829E+03  0.00000000000E+00 0. -1.
         25    1    1    2    0    0 -0.23755941032E+02 -0.16522124960E+03 -0.22349702964E+01  0.20854831849E+03  0.12500000000E+03 0.  0.
         25    1    1    2    0    0 -0.78434272146E+02 -0.29111689363E+02 -0.89120211825E+01  0.15067796663E+03  0.12500000000E+03 0.  0.
         25    1    1    2    0    0  0.10219021318E+03  0.19433293896E+03  0.59820661039E+02  0.25963752102E+03  0.12500000000E+03 0.  0.
</event>
<event>
 5    0  0.5576108E-005  0.2404040E+03  0.7546771E-02  0.1119524E+00
         21   -1    0    0  502  501  0.00000000000E+00  0.00000000000E+00  0.54218482186E+02  0.54218482186E+02  0.00000000000E+00 0. -1.
         21   -1    0    0  501  502 -0.00000000000E+00 -0.00000000000E+00 -0.10659477463E+04  0.10659477463E+04  0.00000000000E+00 0. -1.
         25    1    1    2    0    0  0.10307884246E+03 -0.68513536221E+02 -0.45248066245E+03  0.48547204069E+03  0.12500000000E+03 0.  0.
         25    1    1    2    0    0 -0.39304376395E+02 -0.63578757645E+01 -0.33495823436E+03  0.35973222729E+03  0.12500000000E+03 0.  0.
         25    1    1    2    0    0 -0.63774466063E+02  0.74871411986E+02 -0.22429036731E+03  0.27496196050E+03  0.12500000000E+03 0.  0.
</event>
<event>
 5    0  0.5576108E-005  0.2524617E+03  0.7546771E-02  0.1111759E+00
         21   -1    0    0  502  501  0.00000000000E+00  0.00000000000E+00  0.22422335523E+04  0.22422335523E+04  0.00000000000E+00 0.  1.
         21   -1    0    0  501  502 -0.00000000000E+00 -0.00000000000E+00 -0.28425643533E+02  0.28425643533E+02  0.00000000000E+00 0.  1.
         25    1    1    2    0    0 -0.12171068022E+03  0.29161176143E+02  0.99366595971E+03  0.10092873245E+04  0.12500000000E+03 0.  0.
         25    1    1    2    0    0 -0.11598593207E+02 -0.48471957976E+02  0.45582460933E+03  0.47527374485E+03  0.12500000000E+03 0.  0.
         25    1    1    2    0    0  0.13330927343E+03  0.19310781833E+02  0.76431733973E+03  0.78609812650E+03  0.12500000000E+03 0.  0.
</event>
<event>
 5    0  0.5576108E-005  0.2911105E+03  0.7546771E-02  0.1089771E+00
         21   -1    0    0  502  501  0.00000000000E+00  0.00000000000E+00  0.94461989577E+02  0.94461989577E+02  0.00000000000E+00 0.  1.
         21   -1    0    0  501  502 -0.00000000000E+00 -0.00000000000E+00 -0.89713664773E+03  0.89713664773E+03  0.00000000000E+00 0.  1.
         25    1    1    2    0    0  0.12616504994E+03  0.14589300880E+02 -0.13551358840E+03  0.22387362544E+03  0.12500000000E+03 0.  0.
         25    1    1    2    0    0 -0.14923365355E+03 -0.55993757358E+02 -0.56275833130E+03  0.59810360613E+03  0.12500000000E+03 0.  0.
         25    1    1    2    0    0  0.23068603609E+02  0.41404456478E+02 -0.10440273845E+03  0.16962140574E+03  0.12500000000E+03 0.  0.
</event>
<event>
 5    0  0.5576108E-005  0.2657017E+03  0.7546771E-02  0.1103765E+00
         21   -1    0    0  502  501  0.00000000000E+00  0.00000000000E+00  0.20744248087E+03  0.20744248087E+03  0.00000000000E+00 0.  1.
         21   -1    0    0  501  502 -0.00000000000E+00 -0.00000000000E+00 -0.34032269659E+03  0.34032269659E+03  0.00000000000E+00 0.  1.
         25    1    1    2    0    0  0.35682176146E+02 -0.83068620455E+02 -0.86255503371E+02  0.17674451975E+03  0.12500000000E+03 0.  0.
         25    1    1    2    0    0 -0.39798348191E+02 -0.21549132071E+02  0.88120947771E+02  0.15949474928E+03  0.12500000000E+03 0.  0.
         25    1    1    2    0    0  0.41161720444E+01  0.10461775253E+03 -0.13474566012E+03  0.21152590843E+03  0.12500000000E+03 0.  0.
</event>
<event>
 5    0  0.5576108E-005  0.5842330E+03  0.7546771E-02  0.9938668E-01
         21   -1    0    0  502  501  0.00000000000E+00  0.00000000000E+00  0.37295756105E+03  0.37295756105E+03  0.00000000000E+00 0. -1.
         21   -1    0    0  501  502 -0.00000000000E+00 -0.00000000000E+00 -0.91519323627E+03  0.91519323627E+03  0.00000000000E+00 0. -1.
         25    1    1    2    0    0  0.67636828202E+02 -0.20892741608E+02 -0.22105518400E+03  0.26363163990E+03  0.12500000000E+03 0.  0.
         25    1    1    2    0    0 -0.88021597108E+02 -0.19986767735E+03 -0.59781569059E+03  0.64861659702E+03  0.12500000000E+03 0.  0.
         25    1    1    2    0    0  0.20384768906E+02  0.22076041896E+03  0.27663519938E+03  0.37590256040E+03  0.12500000000E+03 0.  0.
</event>
<event>
 5    0  0.5744568E-005  0.2974053E+03  0.7546771E-02  0.1086545E+00
         21   -1    0    0  502  501  0.00000000000E+00  0.00000000000E+00  0.13850773140E+03  0.13850773140E+03  0.00000000000E+00 0.  1.
         21   -1    0    0  501  502 -0.00000000000E+00 -0.00000000000E+00 -0.63859186052E+03  0.63859186052E+03  0.00000000000E+00 0.  1.
         25    1    1    2    0    0 -0.33548732293E+02 -0.74950572107E+02 -0.71512359471E+02  0.16577733034E+03  0.12500000000E+03 0.  0.
         25    1    1    2    0    0 -0.14500799146E+03  0.19550505443E+02 -0.28710498310E+03  0.34563537315E+03  0.12500000000E+03 0.  0.
         25    1    1    2    0    0  0.17855672376E+03  0.55400066664E+02 -0.14146678654E+03  0.26568688842E+03  0.12500000000E+03 0.  0.
</event>
<event>
 5    0  0.5576108E-005  0.2157000E+03  0.7546771E-02  0.1137130E+00
         21   -1    0    0  502  501  0.00000000000E+00  0.00000000000E+00  0.46161076901E+03  0.46161076901E+03  0.00000000000E+00 0. -1.
         21   -1    0    0  501  502 -0.00000000000E+00 -0.00000000000E+00 -0.10079163100E+03  0.10079163100E+03  0.00000000000E+00 0. -1.
         25    1    1    2    0    0  0.33927700389E+02 -0.57992679136E+02  0.39706232905E+02  0.14736290109E+03  0.12500000000E+03 0.  0.
         25    1    1    2    0    0 -0.37598105307E+02  0.33197379420E+02  0.18087766020E+03  0.22551587856E+03  0.12500000000E+03 0.  0.
         25    1    1    2    0    0  0.36704049181E+01  0.24795299715E+02  0.14023524491E+03  0.18952362036E+03  0.12500000000E+03 0.  0.
</event>
<event>
 5    0  0.5576108E-005  0.3957921E+03  0.7546771E-02  0.1045247E+00
         21   -1    0    0  502  501  0.00000000000E+00  0.00000000000E+00  0.99626818388E+03  0.99626818388E+03  0.00000000000E+00 0. -1.
         21   -1    0    0  501  502 -0.00000000000E+00 -0.00000000000E+00 -0.15723819580E+03  0.15723819580E+03  0.00000000000E+00 0. -1.
         25    1    1    2    0    0  0.15505685956E+03  0.23786121658E+03  0.33013821895E+03  0.45303071823E+03  0.12500000000E+03 0.  0.
         25    1    1    2    0    0 -0.11119088228E+03 -0.21633470493E+02  0.38055637545E+03  0.41626863231E+03  0.12500000000E+03 0.  0.
         25    1    1    2    0    0 -0.43865977283E+02 -0.21622774609E+03  0.12833539368E+03  0.28420702914E+03  0.12500000000E+03 0.  0.
</event>
<event>
 5    0  0.5576108E-005  0.4318881E+03  0.7546771E-02  0.1033265E+00
         21   -1    0    0  502  501  0.00000000000E+00  0.00000000000E+00  0.87957353435E+03  0.87957353435E+03  0.00000000000E+00 0.  1.
         21   -1    0    0  501  502 -0.00000000000E+00 -0.00000000000E+00 -0.21206560734E+03  0.21206560734E+03  0.00000000000E+00 0.  1.
         25    1    1    2    0    0  0.34778265655E+03 -0.21770996100E+02  0.12279257117E+03  0.39003816224E+03  0.12500000000E+03 0.  0.
         25    1    1    2    0    0 -0.96868908555E+02  0.13102773206E+02  0.23736776835E+03  0.28552359896E+03  0.12500000000E+03 0.  0.
         25    1    1    2    0    0 -0.25091374799E+03  0.86682228939E+01  0.30734758749E+03  0.41607738049E+03  0.12500000000E+03 0.  0.
</event>
<event>
 5    0  0.5576108E-005  0.2909050E+03  0.7546771E-02  0.1089878E+00
         21   -1    0    0  502  501  0.00000000000E+00  0.00000000000E+00  0.12432128942E+04  0.12432128942E+04  0.00000000000E+00 0.  1.
         21   -1    0    0  501  502 -0.00000000000E+00 -0.00000000000E+00 -0.68070162302E+02  0.68070162302E+02  0.00000000000E+00 0.  1.
         25    1    1    2    0    0 -0.13550035762E+02  0.78651419193E+02  0.12059070123E+03  0.19114592968E+03  0.12500000000E+03 0.  0.
         25    1    1    2    0    0  0.34443315564E+02  0.77580697065E+02  0.26194872441E+03  0.30240244834E+03  0.12500000000E+03 0.  0.
         25    1    1    2    0    0 -0.20893279803E+02 -0.15623211626E+03  0.79260330623E+03  0.81773467845E+03  0.12500000000E+03 0.  0.
</event>
<event>
 5    0  0.5576108E-005  0.2282191E+03  0.7546771E-02  0.1127900E+00
         21   -1    0    0  502  501  0.00000000000E+00  0.00000000000E+00  0.23298979882E+03  0.23298979882E+03  0.00000000000E+00 0. -1.
         21   -1    0    0  501  502 -0.00000000000E+00 -0.00000000000E+00 -0.22354606520E+03  0.22354606520E+03  0.00000000000E+00 0. -1.
         25    1    1    2    0    0 -0.10940132941E+03 -0.16353751406E+02  0.33999069135E+02  0.17034386623E+03  0.12500000000E+03 0.  0.
         25    1    1    2    0    0  0.18859812999E+02  0.29030090111E+02 -0.22238169551E+01  0.12972426157E+03  0.12500000000E+03 0.  0.
         25    1    1    2    0    0  0.90541516407E+02 -0.12676338705E+02 -0.22331518553E+02  0.15646773622E+03  0.12500000000E+03 0.  0.
</event>
<event>
 5    0  0.5576108E-005  0.3242624E+03  0.7546771E-02  0.1073704E+00
         21   -1    0    0  502  501  0.00000000000E+00  0.00000000000E+00  0.12708744252E+03  0.12708744252E+03  0.00000000000E+00 0.  1.
         21   -1    0    0  501  502 -0.00000000000E+00 -0.00000000000E+00 -0.82735232352E+03  0.82735232352E+03  0.00000000000E+00 0. -1.
         25    1    1    2    0    0 -0.95847239825E+02 -0.14250302234E+03 -0.77595573017E+02  0.22614127821E+03  0.12500000000E+03 0.  0.
         25    1    1    2    0    0  0.14634495065E+03  0.12452203161E+03 -0.47570992536E+03  0.52806014243E+03  0.12500000000E+03 0.  0.
         25    1    1    2    0    0 -0.50497710825E+02  0.17980990732E+02 -0.14695938262E+03  0.20023834540E+03  0.12500000000E+03 0.  0.
</event>
<event>
 5    0  0.5576108E-005  0.2975260E+03  0.7546771E-02  0.1086484E+00
         21   -1    0    0  502  501  0.00000000000E+00  0.00000000000E+00  0.91441646454E+03  0.91441646454E+03  0.00000000000E+00 0. -1.
         21   -1    0    0  501  502 -0.00000000000E+00 -0.00000000000E+00 -0.96806819263E+02  0.96806819263E+02  0.00000000000E+00 0. -1.
         25    1    1    2    0    0 -0.21772128905E+02  0.10373799156E+03  0.48875635620E+03  0.51550302833E+03  0.12500000000E+03 0.  0.
         25    1    1    2    0    0 -0.14954943005E+02  0.54618194623E+02  0.42780534636E+02  0.14374272729E+03  0.12500000000E+03 0.  0.
         25    1    1    2    0    0  0.36727071910E+02 -0.15835618619E+03  0.28607275443E+03  0.35197752818E+03  0.12500000000E+03 0.  0.
</event>
<event>
 5    0  0.5576108E-005  0.2663444E+03  0.7546771E-02  0.1103390E+00
         21   -1    0    0  502  501  0.00000000000E+00  0.00000000000E+00  0.31955547004E+03  0.31955547004E+03  0.00000000000E+00 0.  1.
         21   -1    0    0  501  502 -0.00000000000E+00 -0.00000000000E+00 -0.22199383278E+03  0.22199383278E+03  0.00000000000E+00 0.  1.
         25    1    1    2    0    0 -0.59173398655E+02  0.11177136372E+03  0.51251803696E+02  0.18505695404E+03  0.12500000000E+03 0.  0.
         25    1    1    2    0    0  0.10971895948E+03 -0.13793792436E+03  0.31066104794E+02  0.21830076480E+03  0.12500000000E+03 0.  0.
         25    1    1    2    0    0 -0.50545560827E+02  0.26166560638E+02  0.15243728769E+02  0.13819158398E+03  0.12500000000E+03 0.  0.
</event>
<event>
 5    0  0.5576108E-005  0.2333190E+03  0.7546771E-02  0.1124325E+00
         21   -1    0    0  502  501  0.00000000000E+00  0.00000000000E+00  0.48144588421E+03  0.48144588421E+03  0.00000000000E+00 0.  1.
         21   -1    0    0  501  502 -0.00000000000E+00 -0.00000000000E+00 -0.11307141229E+03  0.11307141229E+03  0.00000000000E+00 0.  1.
         25    1    1    2    0    0 -0.49799107604E+02  0.89819509044E+02  0.14661258111E+03  0.21832943975E+03  0.12500000000E+03 0.  0.
         25    1    1    2    0    0  0.41741750123E+02 -0.69353535515E+01  0.35015465678E+02  0.13653408244E+03  0.12500000000E+03 0.  0.
         25    1    1    2    0    0  0.80573574812E+01 -0.82884155492E+02  0.18674642513E+03  0.23965377431E+03  0.12500000000E+03 0.  0.
</event>
<event>
 5    0  0.5576108E-005  0.3128730E+03  0.7546771E-02  0.1078977E+00
         21   -1    0    0  502  501  0.00000000000E+00  0.00000000000E+00  0.26799790740E+03  0.26799790740E+03  0.00000000000E+00 0.  1.
         21   -1    0    0  501  502 -0.00000000000E+00 -0.00000000000E+00 -0.36526219405E+03  0.36526219405E+03  0.00000000000E+00 0.  1.
         25    1    1    2    0    0  0.27820256767E+02  0.74845550525E+02  0.14795747575E+03  0.20950474398E+03  0.12500000000E+03 0.  0.
         25    1    1    2    0    0 -0.33113789972E+02 -0.10601172003E+03 -0.24278633882E+03  0.29479690329E+03  0.12500000000E+03 0.  0.
         25    1    1    2    0    0  0.52935332052E+01  0.31166169501E+02 -0.24354235763E+01  0.12895845417E+03  0.12500000000E+03 0.  0.
</event>
<event>
 5    0  0.5576108E-005  0.3410314E+03  0.7546771E-02  0.1066357E+00
         21   -1    0    0  502  501  0.00000000000E+00  0.00000000000E+00  0.52790234865E+03  0.52790234865E+03  0.00000000000E+00 0.  1.
         21   -1    0    0  501  502 -0.00000000000E+00 -0.00000000000E+00 -0.22031047619E+03  0.22031047619E+03  0.00000000000E+00 0.  1.
         25    1    1    2    0    0  0.21888317145E+02  0.98944844391E+02  0.22396382744E+02  0.16246777717E+03  0.12500000000E+03 0.  0.
         25    1    1    2    0    0 -0.61672504212E+01 -0.14065579615E+03 -0.74400950978E+02  0.20244157052E+03  0.12500000000E+03 0.  0.
         25    1    1    2    0    0 -0.15721066724E+02  0.41710951759E+02  0.35959644069E+03  0.38330347714E+03  0.12500000000E+03 0.  0.
</event>
<event>
 5    0  0.5576108E-005  0.3543135E+03  0.7546771E-02  0.1060858E+00
         21   -1    0    0  502  501  0.00000000000E+00  0.00000000000E+00  0.10957180164E+03  0.10957180164E+03  0.00000000000E+00 0.  1.
         21   -1    0    0  501  502 -0.00000000000E+00 -0.00000000000E+00 -0.11457148643E+04  0.11457148643E+04  0.00000000000E+00 0.  1.
         25    1    1    2    0    0 -0.94392365439E+02  0.21363664731E+03 -0.27417303687E+03  0.38124321617E+03  0.12500000000E+03 0.  0.
         25    1    1    2    0    0  0.14380964067E+03 -0.22231104926E+03 -0.54480817261E+03  0.61850170599E+03  0.12500000000E+03 0.  0.
         25    1    1    2    0    0 -0.49417275227E+02  0.86744019419E+01 -0.21716185319E+03  0.25554174379E+03  0.12500000000E+03 0.  0.
</event>
<event>
 5    0  0.5907524E-005  0.2865551E+03  0.7546771E-02  0.1092162E+00
         21   -1    0    0  502  501  0.00000000000E+00  0.00000000000E+00  0.11542526351E+03  0.11542526351E+03  0.00000000000E+00 0. -1.
         21   -1    0    0  501  502 -0.00000000000E+00 -0.00000000000E+00 -0.71140258393E+03  0.71140258393E+03  0.00000000000E+00 0. -1.
         25    1    1    2    0    0  0.86706283483E+02 -0.13874505081E+03 -0.15391598089E+03  0.25706671876E+03  0.12500000000E+03 0.  0.
         25    1    1    2    0    0 -0.97401552235E+02 -0.21541588744E+01 -0.12943835557E+03  0.20462402271E+03  0.12500000000E+03 0.  0.
         25    1    1    2    0    0  0.10695268752E+02  0.14089920968E+03 -0.31262298396E+03  0.36513710598E+03  0.12500000000E+03 0.  0.
</event>
<event>
 5    0  0.5576108E-005  0.2497608E+03  0.7546771E-02  0.1113456E+00
         21   -1    0    0  502  501  0.00000000000E+00  0.00000000000E+00  0.15010131716E+03  0.15010131716E+03  0.00000000000E+00 0. -1.
         21   -1    0    0  501  502 -0.00000000000E+00 -0.00000000000E+00 -0.41558885267E+03  0.41558885267E+03  0.00000000000E+00 0. -1.
         25    1    1    2    0    0  0.25020369453E+02  0.32569335062E+02 -0.11667018725E+03  0.17585139484E+03  0.12500000000E+03 0.  0.
         25    1    1    2    0    0 -0.67514722216E+02 -0.13218922911E+03 -0.66832971694E+02  0.20524101957E+03  0.12500000000E+03 0.  0.
         25    1    1    2    0    0  0.42494352763E+02  0.99619894044E+02 -0.81984376578E+02  0.18459775543E+03  0.12500000000E+03 0.  0.
</event>
<event>
 5    0  0.5576108E-005  0.4699687E+03  0.7546771E-02  0.1021929E+00
         21   -1    0    0  502  501  0.00000000000E+00  0.00000000000E+00  0.17229760321E+04  0.17229760321E+04  0.00000000000E+00 0. -1.
         21   -1    0    0  501  502 -0.00000000000E+00 -0.00000000000E+00 -0.12819133301E+03  0.12819133301E+03  0.00000000000E+00 0. -1.
         25    1    1    2    0    0 -0.27573490638E+03 -0.22373249284E+02  0.48802251433E+03  0.57473583095E+03  0.12500000000E+03 0.  0.
         25    1    1    2    0    0  0.26421720266E+03  0.13626960372E+03  0.10488513379E+04  0.10973122911E+04  0.12500000000E+03 0.  0.
         25    1    1    2    0    0  0.11517703721E+02 -0.11389635443E+03  0.57910846792E+02  0.17911924304E+03  0.12500000000E+03 0.  0.
</event>
<event>
 5    0  0.5576108E-005  0.2213489E+03  0.7546771E-02  0.1132881E+00
         21   -1    0    0  502  501  0.00000000000E+00  0.00000000000E+00  0.83721119853E+02  0.83721119853E+02  0.00000000000E+00 0.  1.
         21   -1    0    0  501  502 -0.00000000000E+00 -0.00000000000E+00 -0.58522055481E+03  0.58522055481E+03  0.00000000000E+00 0.  1.
         25    1    1    2    0    0  0.40420173705E+02  0.32898489272E+02 -0.16233885045E+03  0.21141192825E+03  0.12500000000E+03 0.  0.
         25    1    1    2    0    0 -0.75230727716E+02 -0.22616679759E+02 -0.80962191335E+02  0.16837770940E+03  0.12500000000E+03 0.  0.
         25    1    1    2    0    0  0.34810554010E+02 -0.10281809512E+02 -0.25819839317E+03  0.28915203702E+03  0.12500000000E+03 0.  0.
</event>
<event>
 5    0  0.5576108E-005  0.4682160E+03  0.7546771E-02  0.1022425E+00
         21   -1    0    0  502  501  0.00000000000E+00  0.00000000000E+00  0.31500088137E+03  0.31500088137E+03  0.00000000000E+00 0. -1.
         21   -1    0    0  501  502 -0.00000000000E+00 -0.00000000000E+00 -0.69595435806E+03  0.69595435806E+03  0.00000000000E+00 0. -1.
         25    1    1    2    0    0  0.20971730089E+03  0.41970608458E+02  0.12393005660E+03  0.27699555447E+03  0.12500000000E+03 0.  0.
         25    1    1    2    0    0 -0.86233349343E+02 -0.16282300246E+03 -0.45161850488E+02  0.22718299542E+03  0.12500000000E+03 0.  0.
         25    1    1    2    0    0 -0.12348395154E+03  0.12085239400E+03 -0.45972168280E+03  0.50677668954E+03  0.12500000000E+03 0.  0.
</event>
<event>
 5    0  0.5576108E-005  0.6383585E+03  0.7546771E-02  0.9828872E-01
         21   -1    0    0  502  501  0.00000000000E+00  0.00000000000E+00  0.41202662697E+03  0.41202662697E+03  0.00000000000E+00 0. -1.
         21   -1    0    0  501  502 -0.00000000000E+00 -0.00000000000E+00 -0.98901752074E+03  0.98901752074E+03  0.00000000000E+00 0. -1.
         25    1    1    2    0    0 -0.40940494214E+03  0.30941440345E+03 -0.24658293448E+03  0.58290464339E+03  0.12500000000E+03 0.  0.
         25    1    1    2    0    0 -0.28414380933E+02 -0.10216696573E+03  0.69137817576E+02  0.17790588453E+03  0.12500000000E+03 0.  0.
         25    1    1    2    0    0  0.43781932308E+03 -0.20724743772E+03 -0.39954577687E+03  0.64023361979E+03  0.12500000000E+03 0.  0.
</event>
<event>
 5    0  0.5576108E-005  0.3806144E+03  0.7546771E-02  0.1050707E+00
         21   -1    0    0  502  501  0.00000000000E+00  0.00000000000E+00  0.72982534638E+03  0.72982534638E+03  0.00000000000E+00 0. -1.
         21   -1    0    0  501  502 -0.00000000000E+00 -0.00000000000E+00 -0.19849588160E+03  0.19849588160E+03  0.00000000000E+00 0. -1.
         25    1    1    2    0    0  0.99397296224E+02 -0.54857480681E+02  0.16638728745E+03  0.23706306146E+03  0.12500000000E+03 0.  0.
         25    1    1    2    0    0 -0.22306709757E+03  0.97750472574E+02  0.42065222785E+03  0.50188383287E+03  0.12500000000E+03 0.  0.
         25    1    1    2    0    0  0.12366980135E+03 -0.42892991892E+02 -0.55710050514E+02  0.18937433365E+03  0.12500000000E+03 0.  0.
</event>
<event>
 5    0  0.5799052E-005  0.2695176E+03  0.7546771E-02  0.1101556E+00
         21   -1    0    0  502  501  0.00000000000E+00  0.00000000000E+00  0.27631328946E+03  0.27631328946E+03  0.00000000000E+00 0.  1.
         21   -1    0    0  501  502 -0.00000000000E+00 -0.00000000000E+00 -0.26288903325E+03  0.26288903325E+03  0.00000000000E+00 0.  1.
         25    1    1    2    0    0  0.11556365558E+03  0.13494980178E+03 -0.32422766472E+02  0.21964207993E+03  0.12500000000E+03 0.  0.
         25    1    1    2    0    0 -0.50774234158E+02 -0.10385291322E+03  0.77995917842E+01  0.17043850524E+03  0.12500000000E+03 0.  0.
         25    1    1    2    0    0 -0.64789421418E+02 -0.31096888569E+02  0.38047430899E+02  0.14912173753E+03  0.12500000000E+03 0.  0.
</event>
<event>
 5    0  0.5576108E-005  0.3298313E+03  0.7546771E-02  0.1071212E+00
         21   -1    0    0  502  501  0.00000000000E+00  0.00000000000E+00  0.16230177604E+03  0.16230177604E+03  0.00000000000E+00 0. -1.
         21   -1    0    0  501  502 -0.00000000000E+00 -0.00000000000E+00 -0.67028648736E+03  0.67028648736E+03  0.00000000000E+00 0. -1.
         25    1    1    2    0    0 -0.78722202730E+02  0.38228916373E+02  0.67682309573E+02  0.16692672128E+03  0.12500000000E+03 0.  0.
         25    1    1    2    0    0  0.80122481232E+02 -0.14166721594E+02 -0.49005490304E+03  0.51224907613E+03  0.12500000000E+03 0.  0.
         25    1    1    2    0    0 -0.14002785015E+01 -0.24062194779E+02 -0.85612117849E+02  0.15341246599E+03  0.12500000000E+03 0.  0.
</event>
<event>
 5    0  0.5576108E-005  0.2970503E+03  0.7546771E-02  0.1086724E+00
         21   -1    0    0  502  501  0.00000000000E+00  0.00000000000E+00  0.28423865746E+03  0.28423865746E+03  0.00000000000E+00 0. -1.
         21   -1    0    0  501  502 -0.00000000000E+00 -0.00000000000E+00 -0.31043940837E+03  0.31043940837E+03  0.00000000000E+00 0. -1.
         25    1    1    2    0    0 -0.93041655917E+01  0.15994815030E+03 -0.15142298204E+03  0.25342434329E+03  0.12500000000E+03 0.  0.
         25    1    1    2    0    0 -0.40267207224E+02 -0.44368801402E+02  0.71536861312E+02  0.15598897731E+03  0.12500000000E+03 0.  0.
         25    1    1    2    0    0  0.49571372815E+02 -0.11557934890E+03  0.53685369812E+02  0.18526474523E+03  0.12500000000E+03 0.  0.
</event>
<event>
 5    0  0.5576108E-005  0.2801335E+03  0.7546771E-02  0.1095616E+00
         21   -1    0    0  502  501  0.00000000000E+00  0.00000000000E+00  0.98069533782E+03  0.98069533782E+03  0.00000000000E+00 0.  1.
         21   -1    0    0  501  502 -0.00000000000E+00 -0.00000000000E+00 -0.80019508434E+02  0.80019508434E+02  0.00000000000E+00 0.  1.
         25    1    1    2    0    0  0.11016964394E+03  0.66662657655E+02  0.43734634598E+03  0.47273468956E+03  0.12500000000E+03 0.  0.
         25    1    1    2    0    0 -0.16704147283E+03 -0.74086182272E+02  0.24767391919E+03  0.33220323041E+03  0.12500000000E+03 0.  0.
         25    1    1    2    0    0  0.56871828894E+02  0.74235246173E+01  0.21565556422E+03  0.25577692628E+03  0.12500000000E+03 0.  0.
</event>
<event>
 5    0  0.5576108E-005  0.2217327E+03  0.7546771E-02  0.1132598E+00
         21   -1    0    0  502  501  0.00000000000E+00  0.00000000000E+00  0.17716106220E+04  0.17716106220E+04  0.00000000000E+00 0.  1.
         21   -1    0    0  501  502 -0.00000000000E+00 -0.00000000000E+00 -0.27751793456E+02  0.27751793456E+02  0.00000000000E+00 0.  1.
         25    1    1    2    0    0 -0.39002760219E+02 -0.50460521949E+01  0.93873148931E+03  0.94783357557E+03  0.12500000000E+03 0.  0.
         25    1    1    2    0    0  0.16949193894E+02  0.24435984568E+02  0.56284125549E+03  0.57732111636E+03  0.12500000000E+03 0.  0.
         25    1    1    2    0    0  0.22053566325E+02 -0.19389932373E+02  0.24228608372E+03  0.27420772350E+03  0.12500000000E+03 0.  0.
</event>
<event>
 5    0  0.5576108E-005  0.2886559E+03  0.7546771E-02  0.1091053E+00
         21   -1    0    0  502  501  0.00000000000E+00  0.00000000000E+00  0.11136579775E+03  0.11136579775E+03  0.00000000000E+00 0.  1.
         21   -1    0    0  501  502 -0.00000000000E+00 -0.00000000000E+00 -0.74818485478E+03  0.74818485478E+03  0.00000000000E+00 0.  1.
         25    1    1    2    0    0 -0.52677812000E+02 -0.11147307525E+03 -0.26430545458E+03  0.31730674702E+03  0.12500000000E+03 0.  0.
         25    1    1    2    0    0  0.17535713811E+02 -0.75799761337E+02 -0.23119892960E+03  0.27410043803E+03  0.12500000000E+03 0.  0.
         25    1    1    2    0    0  0.35142098189E+02  0.18727283659E+03 -0.14131467285E+03  0.26814346748E+03  0.12500000000E+03 0.  0.
</event>
<event>
 5    0  0.5576108E-005  0.4135859E+03  0.7546771E-02  0.1039174E+00
         21   -1    0    0  502  501  0.00000000000E+00  0.00000000000E+00  0.49032799828E+03  0.49032799828E+03  0.00000000000E+00 0.  1.
         21   -1    0    0  501  502 -0.00000000000E+00 -0.00000000000E+00 -0.34885489661E+03  0.34885489661E+03  0.00000000000E+00 0.  1.
         25    1    1    2    0    0 -0.24843127504E+03  0.75954484277E+02 -0.91608262337E+02  0.30249670383E+03  0.12500000000E+03 0.  0.
         25    1    1    2    0    0  0.68373784532E+02  0.61427042982E+02  0.23065891893E+03  0.27798703729E+03  0.12500000000E+03 0.  0.
         25    1    1    2    0    0  0.18005749051E+03 -0.13738152726E+03  0.24224450764E+01  0.25869915377E+03  0.12500000000E+03 0.  0.
</event>
<event>
 5    0  0.5576108E-005  0.3348297E+03  0.7546771E-02  0.1069020E+00
         21   -1    0    0  502  501  0.00000000000E+00  0.00000000000E+00  0.46870471162E+03  0.46870471162E+03  0.00000000000E+00 0.  1.
         21   -1    0    0  501  502 -0.00000000000E+00 -0.00000000000E+00 -0.23919311890E+03  0.23919311890E+03  0.00000000000E+00 0.  1.
         25    1    1    2    0    0  0.17313539856E+03  0.10990774153E+03  0.13321473416E+03  0.27463929668E+03  0.12500000000E+03 0.  0.
         25    1    1    2    0    0 -0.19444890636E+03 -0.44300021746E+02 -0.36612589119E+02  0.23819813348E+03  0.12500000000E+03 0.  0.
         25    1    1    2    0    0  0.21313507798E+02 -0.65607719788E+02  0.13290944768E+03  0.19506040037E+03  0.12500000000E+03 0.  0.
</event>
<event>
 5    0  0.5576108E-005  0.4746284E+03  0.7546771E-02  0.1020622E+00
         21   -1    0    0  502  501  0.00000000000E+00  0.00000000000E+00  0.14864345019E+03  0.14864345019E+03  0.00000000000E+00 0.  1.
         21   -1    0    0  501  502 -0.00000000000E+00 -0.00000000000E+00 -0.15155202635E+04  0.15155202635E+04  0.00000000000E+00 0.  1.
         25    1    1    2    0    0 -0.13085050730E+03 -0.15237427245E+03 -0.44926931991E+03  0.50774766960E+03  0.12500000000E+03 0.  0.
         25    1    1    2    0    0  0.20935050324E+03 -0.16715788022E+03 -0.65062596189E+03  0.71463874259E+03  0.12500000000E+03 0.  0.
         25    1    1    2    0    0 -0.78499995935E+02  0.31953215267E+03 -0.26698153150E+03  0.44177730149E+03  0.12500000000E+03 0.  0.
</event>
<event>
 5    0  0.5576108E-005  0.3398320E+03  0.7546771E-02  0.1066867E+00
         21   -1    0    0  502  501  0.00000000000E+00  0.00000000000E+00  0.29041335557E+03  0.29041335557E+03  0.00000000000E+00 0. -1.
         21   -1    0    0  501  502 -0.00000000000E+00 -0.00000000000E+00 -0.39766010863E+03  0.39766010863E+03  0.00000000000E+00 0. -1.
         25    1    1    2    0    0 -0.19803289593E+03  0.10799602005E+03 -0.19379006487E+03  0.32258294664E+03  0.12500000000E+03 0.  0.
         25    1    1    2    0    0  0.93481161985E+02 -0.10394156223E+03  0.17112288244E+02  0.18830933704E+03  0.12500000000E+03 0.  0.
         25    1    1    2    0    0  0.10455173395E+03 -0.40544578183E+01  0.69431023570E+02  0.17718118053E+03  0.12500000000E+03 0.  0.
</event>
<event>
 5    0  0.5576108E-005  0.3554278E+03  0.7546771E-02  0.1060409E+00
         21   -1    0    0  502  501  0.00000000000E+00  0.00000000000E+00  0.89576515662E+02  0.89576515662E+02  0.00000000000E+00 0.  1.
         21   -1    0    0  501  502 -0.00000000000E+00 -0.00000000000E+00 -0.14102909663E+04  0.14102909663E+04  0.00000000000E+00 0.  1.
         25    1    1    2    0    0  0.24741313696E+02  0.13787710919E+03 -0.12964642915E+03  0.22815658315E+03  0.12500000000E+03 0.  0.
         25    1    1    2    0    0 -0.36058998196E+02  0.18785150819E+02 -0.94523557021E+03  0.95433139760E+03  0.12500000000E+03 0.  0.
         25    1    1    2    0    0  0.11317684500E+02 -0.15666226001E+03 -0.24583245130E+03  0.31737950124E+03  0.12500000000E+03 0.  0.
</event>
<event>
 5    0  0.5576108E-005  0.3486501E+03  0.7546771E-02  0.1063170E+00
         21   -1    0    0  502  501  0.00000000000E+00  0.00000000000E+00  0.13099195720E+04  0.13099195720E+04  0.00000000000E+00 0. -1.
         21   -1    0    0  501  502 -0.00000000000E+00 -0.00000000000E+00 -0.92797239557E+02  0.92797239557E+02  0.00000000000E+00 0. -1.
         25    1    1    2    0    0  0.12602122755E+03  0.12343798907E+03  0.30619211339E+03  0.37482915741E+03  0.12500000000E+03 0.  0.
         25    1    1    2    0    0 -0.19685023518E+03 -0.20422710907E+03  0.55652061345E+03  0.63702348493E+03  0.12500000000E+03 0.  0.
         25    1    1    2    0    0  0.70829007629E+02  0.80789119997E+02  0.35440960558E+03  0.39086416920E+03  0.12500000000E+03 0.  0.
</event>
<event>
 5    0  0.5697232E-005  0.3437153E+03  0.7546771E-02  0.1065224E+00
         21   -1    0    0  502  501  0.00000000000E+00  0.00000000000E+00  0.17071426115E+03  0.17071426115E+03  0.00000000000E+00 0.  1.
         21   -1    0    0  501  502 -0.00000000000E+00 -0.00000000000E+00 -0.69203496418E+03  0.69203496418E+03  0.00000000000E+00 0.  1.
         25    1    1    2    0    0  0.16953154826E+03 -0.10385335482E+03 -0.18766148089E+03  0.30061320093E+03  0.12500000000E+03 0.  0.
         25    1    1    2    0    0 -0.14333874463E+03  0.20318085337E+03 -0.14571426998E+03  0.31414344393E+03  0.12500000000E+03 0.  0.
         25    1    1    2    0    0 -0.26192803624E+02 -0.99327498547E+02 -0.18794495215E+03  0.24799258047E+03  0.12500000000E+03 0.  0.
</event>
<event>
 5    0  0.5576108E-005  0.2391087E+03  0.7546771E-02  0.1120388E+00
         21   -1    0    0  502  501  0.00000000000E+00  0.00000000000E+00  0.34239899034E+02  0.34239899034E+02  0.00000000000E+00 0.  1.
         21   -1    0    0  501  502 -0.00000000000E+00 -0.00000000000E+00 -0.16697757021E+04  0.16697757021E+04  0.00000000000E+00 0.  1.
         25    1    1    2    0    0 -0.76312156057E+02  0.35625789710E+01 -0.94664113852E+03  0.95790953762E+03  0.12500000000E+03 0.  0.
         25    1    1    2    0    0  0.38733526271E+02  0.27449913758E+02 -0.47635596870E+03  0.49476640220E+03  0.12500000000E+03 0.  0.
         25    1    1    2    0    0  0.37578629786E+02 -0.31012492729E+02 -0.21253869588E+03  0.25133966135E+03  0.12500000000E+03 0.  0.
</event>
<event>
 5    0  0.5576108E-005  0.2286558E+03  0.7546771E-02  0.1127589E+00
         21   -1    0    0  502  501  0.00000000000E+00  0.00000000000E+00  0.41934724394E+03  0.41934724394E+03  0.00000000000E+00 0.  1.
         21   -1    0    0  501  502 -0.00000000000E+00 -0.00000000000E+00 -0.12467822236E+03  0.12467822236E+03  0.00000000000E+00 0.  1.
         25    1    1    2    0    0 -0.73414347208E+02  0.22858063769E+02  0.14702056592E+03  0.20773108640E+03  0.12500000000E+03 0.  0.
         25    1    1    2    0    0  0.75549498169E+02  0.52500394653E+02  0.89516459578E+02  0.17917090904E+03  0.12500000000E+03 0.  0.
         25    1    1    2    0    0 -0.21351509615E+01 -0.75358458421E+02  0.58131996076E+02  0.15712347085E+03  0.12500000000E+03 0.  0.
</event>
<event>
 5    0  0.5576108E-005  0.4827504E+03  0.7546771E-02  0.1018382E+00
         21   -1    0    0  502  501  0.00000000000E+00  0.00000000000E+00  0.95235788113E+03  0.95235788113E+03  0.00000000000E+00 0.  1.
         21   -1    0    0  501  502 -0.00000000000E+00 -0.00000000000E+00 -0.24470630474E+03  0.24470630474E+03  0.00000000000E+00 0.  1.
         25    1    1    2    0    0  0.12900775571E+03  0.15176300850E+03  0.15668166220E+03  0.28257592794E+03  0.12500000000E+03 0.  0.
         25    1    1    2    0    0 -0.18457761257E+03 -0.23410045429E+03 -0.17783838190E+02  0.32374864117E+03  0.12500000000E+03 0.  0.
         25    1    1    2    0    0  0.55569856851E+02  0.82337445789E+02  0.56875375237E+03  0.59073961676E+03  0.12500000000E+03 0.  0.
</event>
<event>
 5    0  0.5576108E-005  0.3033427E+03  0.7546771E-02  0.1083581E+00
         21   -1    0    0  502  501  0.00000000000E+00  0.00000000000E+00  0.18034150853E+03  0.18034150853E+03  0.00000000000E+00 0.  1.
         21   -1    0    0  501  502 -0.00000000000E+00 -0.00000000000E+00 -0.51023643634E+03  0.51023643634E+03  0.00000000000E+00 0.  1.
         25    1    1    2    0    0 -0.20946819611E+03  0.41123934643E+02 -0.11910575416E+03  0.27455287989E+03  0.12500000000E+03 0.  0.
         25    1    1    2    0    0  0.15191478680E+03  0.59277747101E+01 -0.18137133862E+03  0.26764492044E+03  0.12500000000E+03 0.  0.
         25    1    1    2    0    0  0.57553409306E+02 -0.47051709353E+02 -0.29417835039E+02  0.14838014454E+03  0.12500000000E+03 0.  0.
</event>
<event>
 5    0  0.5576108E-005  0.2961625E+03  0.7546771E-02  0.1087175E+00
         21   -1    0    0  502  501  0.00000000000E+00  0.00000000000E+00  0.24860026337E+03  0.24860026337E+03  0.00000000000E+00 0. -1.
         21   -1    0    0  501  502 -0.00000000000E+00 -0.00000000000E+00 -0.35282424664E+03  0.35282424664E+03  0.00000000000E+00 0. -1.
         25    1    1    2    0    0 -0.68410980443E+02 -0.52656988215E+02  0.50434376997E+02  0.16006700796E+03  0.12500000000E+03 0.  0.
         25    1    1    2    0    0  0.36038322830E+02 -0.13108703052E+03 -0.39030320185E+02  0.18876158554E+03  0.12500000000E+03 0.  0.
         25    1    1    2    0    0  0.32372657614E+02  0.18374401873E+03 -0.11562804009E+03  0.25259591651E+03  0.12500000000E+03 0.  0.
</event>
<event>
 5    0  0.5576108E-005  0.2866234E+03  0.7546771E-02  0.1092125E+00
         21   -1    0    0  502  501  0.00000000000E+00  0.00000000000E+00  0.78953517789E+03  0.78953517789E+03  0.00000000000E+00 0. -1.
         21   -1    0    0  501  502 -0.00000000000E+00 -0.00000000000E+00 -0.10405232836E+03  0.10405232836E+03  0.00000000000E+00 0. -1.
         25    1    1    2    0    0  0.70738906947E+02  0.10244325179E+03  0.35473179322E+03  0.39617957786E+03  0.12500000000E+03 0.  0.
         25    1    1    2    0    0  0.68575543784E+02  0.21080786945E+02  0.16143792535E+03  0.21641212657E+03  0.12500000000E+03 0.  0.
         25    1    1    2    0    0 -0.13931445073E+03 -0.12352403873E+03  0.16931313095E+03  0.28099580182E+03  0.12500000000E+03 0.  0.
</event>
<event>
 5    0  0.5576108E-005  0.2557663E+03  0.7546771E-02  0.1109714E+00
         21   -1    0    0  502  501  0.00000000000E+00  0.00000000000E+00  0.61788795780E+03  0.61788795780E+03  0.00000000000E+00 0. -1.
         21   -1    0    0  501  502 -0.00000000000E+00 -0.00000000000E+00 -0.10587098938E+03  0.10587098938E+03  0.00000000000E+00 0. -1.
         25    1    1    2    0    0  0.38700689349E+02  0.57087056342E+02  0.13015137544E+03  0.19318658309E+03  0.12500000000E+03 0.  0.
         25    1    1    2    0    0  0.11085107219E+02 -0.61058977452E+02  0.15686187929E+02  0.14043551837E+03  0.12500000000E+03 0.  0.
         25    1    1    2    0    0 -0.49785796568E+02  0.39719211097E+01  0.36617940505E+03  0.39013684571E+03  0.12500000000E+03 0.  0.
</event>
<event>
 5    0  0.5576108E-005  0.3261219E+03  0.7546771E-02  0.1072866E+00
         21   -1    0    0  502  501  0.00000000000E+00  0.00000000000E+00  0.95008000358E+02  0.95008000358E+02  0.00000000000E+00 0. -1.
         21   -1    0    0  501  502 -0.00000000000E+00 -0.00000000000E+00 -0.11194371961E+04  0.11194371961E+04  0.00000000000E+00 0. -1.
         25    1    1    2    0    0  0.13997683442E+03  0.85380708769E+02 -0.51745686545E+03  0.55701883919E+03  0.12500000000E+03 0.  0.
         25    1    1    2    0    0 -0.10441765880E+03 -0.13258351504E+03 -0.46925548734E+03  0.51410810957E+03  0.12500000000E+03 0.  0.
         25    1    1    2    0    0 -0.35559175615E+02  0.47202806271E+02 -0.37716842990E+02  0.14331824774E+03  0.12500000000E+03 0.  0.
</event>
<event>
 5    0  0.5576108E-005  0.3434794E+03  0.7546771E-02  0.1065324E+00
         21   -1    0    0  502  501  0.00000000000E+00  0.00000000000E+00  0.11957670784E+03  0.11957670784E+03  0.00000000000E+00 0. -1.
         21   -1    0    0  501  502 -0.00000000000E+00 -0.00000000000E+00 -0.98663119375E+03  0.98663119375E+03  0.00000000000E+00 0. -1.
         25    1    1    2    0    0 -0.86776356237E+02 -0.22221844434E+03 -0.25399564104E+03  0.37020259139E+03  0.12500000000E+03 0.  0.
         25    1    1    2    0    0  0.13331983391E+03  0.91129357646E+02 -0.42110173601E+03  0.46800684825E+03  0.12500000000E+03 0.  0.
         25    1    1    2    0    0 -0.46543477670E+02  0.13108908670E+03 -0.19195710886E+03  0.26799846195E+03  0.12500000000E+03 0.  0.
</event>
<event>
 5    0  0.5576108E-005  0.2822208E+03  0.7546771E-02  0.1094482E+00
         21   -1    0    0  502  501  0.00000000000E+00  0.00000000000E+00  0.26168908892E+03  0.26168908892E+03  0.00000000000E+00 0.  1.
         21   -1    0    0  501  502 -0.00000000000E+00 -0.00000000000E+00 -0.30436332516E+03  0.30436332516E+03  0.00000000000E+00 0.  1.
         25    1    1    2    0    0  0.52467043477E+02 -0.58782723611E+02  0.80375516359E+02  0.16820648881E+03  0.12500000000E+03 0.  0.
         25    1    1    2    0    0 -0.42016058296E+02  0.16461413748E+03 -0.43058644005E+02  0.21527240938E+03  0.12500000000E+03 0.  0.
         25    1    1    2    0    0 -0.10450985181E+02 -0.10583141387E+03 -0.79991108594E+02  0.18257351590E+03  0.12500000000E+03 0.  0.
</event>
<event>
 5    0  0.6345036E-005  0.3129740E+03  0.7546771E-02  0.1078929E+00
         21   -1    0    0  502  501  0.00000000000E+00  0.00000000000E+00  0.17952212621E+03  0.17952212621E+03  0.00000000000E+00 0.  1.
         21   -1    0    0  501  502 -0.00000000000E+00 -0.00000000000E+00 -0.54563049334E+03  0.54563049334E+03  0.00000000000E+00 0.  1.
         25    1    1    2    0    0  0.20862679729E+03  0.29073719990E+02 -0.30246847172E+03  0.38920765425E+03  0.12500000000E+03 0.  0.
         25    1    1    2    0    0 -0.12644729113E+03 -0.16525414848E+02 -0.20454200429E+02  0.17973697751E+03  0.12500000000E+03 0.  0.
         25    1    1    2    0    0 -0.82179506165E+02 -0.12548305141E+02 -0.43185694986E+02  0.15620798778E+03  0.12500000000E+03 0.  0.
</event>
<event>
 5    0  0.5576108E-005  0.3616091E+03  0.7546771E-02  0.1057949E+00
         21   -1    0    0  502  501  0.00000000000E+00  0.00000000000E+00  0.54079101848E+03  0.54079101848E+03  0.00000000000E+00 0. -1.
         21   -1    0    0  501  502 -0.00000000000E+00 -0.00000000000E+00 -0.24179609139E+03  0.24179609139E+03  0.00000000000E+00 0. -1.
         25    1    1    2    0    0 -0.50341013613E+02  0.47675961925E+02  0.97215668226E+02  0.17286729345E+03  0.12500000000E+03 0.  0.
         25    1    1    2    0    0  0.26877166005E+03 -0.18715332951E+02  0.19536874304E+02  0.29764938836E+03  0.12500000000E+03 0.  0.
         25    1    1    2    0    0 -0.21843064644E+03 -0.28960628974E+02  0.18224238456E+03  0.31207042805E+03  0.12500000000E+03 0.  0.
</event>
<event>
 5    0  0.5576108E-005  0.4897168E+03  0.7546771E-02  0.1016498E+00
         21   -1    0    0  502  501  0.00000000000E+00  0.00000000000E+00  0.32318564341E+03  0.32318564341E+03  0.00000000000E+00 0. -1.
         21   -1    0    0  501  502 -0.00000000000E+00 -0.00000000000E+00 -0.74205829478E+03  0.74205829478E+03  0.00000000000E+00 0. -1.
         25    1    1    2    0    0  0.14341908324E+02  0.15930082784E+03 -0.94782081816E+01  0.20321732337E+03  0.12500000000E+03 0.  0.
         25    1    1    2    0    0  0.33326727567E+03 -0.91940863736E+01 -0.23635091811E+03  0.42736210027E+03  0.12500000000E+03 0.  0.
         25    1    1    2    0    0 -0.34760918400E+03 -0.15010674147E+03 -0.17304352509E+03  0.43466451455E+03  0.12500000000E+03 0.  0.
</event>
<event>
 5    0  0.5576108E-005  0.4024217E+03  0.7546771E-02  0.1042944E+00
         21   -1    0    0  502  501  0.00000000000E+00  0.00000000000E+00  0.75778028731E+03  0.75778028731E+03  0.00000000000E+00 0. -1.
         21   -1    0    0  501  502 -0.00000000000E+00 -0.00000000000E+00 -0.21370740487E+03  0.21370740487E+03  0.00000000000E+00 0. -1.
         25    1    1    2    0    0  0.39184694191E+02 -0.18038923152E+03  0.38908607391E+03  0.44842913378E+03  0.12500000000E+03 0.  0.
         25    1    1    2    0    0 -0.19313532705E+03  0.18745613300E+03  0.12647926022E+03  0.32258806490E+03  0.12500000000E+03 0.  0.
         25    1    1    2    0    0  0.15395063286E+03 -0.70669014759E+01  0.28507548303E+02  0.20047049350E+03  0.12500000000E+03 0.  0.
</event>
<event>
 5    0  0.6426749E-005  0.4307414E+03  0.7546771E-02  0.1033626E+00
         21   -1    0    0  502  501  0.00000000000E+00  0.00000000000E+00  0.70999304893E+03  0.70999304893E+03  0.00000000000E+00 0.  1.
         21   -1    0    0  501  502 -0.00000000000E+00 -0.00000000000E+00 -0.26132388262E+03  0.26132388262E+03  0.00000000000E+00 0.  1.
         25    1    1    2    0    0  0.15171034065E+02  0.84142147786E+01  0.32261589714E+03  0.34642023089E+03  0.12500000000E+03 0.  0.
         25    1    1    2    0    0  0.24592849859E+03 -0.86776992592E+02 -0.22786481496E+02  0.29009532330E+03  0.12500000000E+03 0.  0.
         25    1    1    2    0    0 -0.26109953265E+03  0.78362777813E+02  0.14883975066E+03  0.33480137735E+03  0.12500000000E+03 0.  0.
</event>
<event>
 5    0  0.5576108E-005  0.2949966E+03  0.7546771E-02  0.1087769E+00
         21   -1    0    0  502  501  0.00000000000E+00  0.00000000000E+00  0.19808391611E+03  0.19808391611E+03  0.00000000000E+00 0.  1.
         21   -1    0    0  501  502 -0.00000000000E+00 -0.00000000000E+00 -0.43932388738E+03  0.43932388738E+03  0.00000000000E+00 0.  1.
         25    1    1    2    0    0 -0.11562869386E+03 -0.51948491711E+02  0.20958129724E+02  0.17925647502E+03  0.12500000000E+03 0.  0.
         25    1    1    2    0    0  0.87387133516E+01 -0.74140324357E+02 -0.18853227156E+03  0.23820699030E+03  0.12500000000E+03 0.  0.
         25    1    1    2    0    0  0.10688998050E+03  0.12608881607E+03 -0.73665829431E+02  0.21994433818E+03  0.12500000000E+03 0.  0.
</event>
<event>
 5    0  0.6882768E-005  0.5714644E+03  0.7546771E-02  0.9966443E-01
         21   -1    0    0  502  501  0.00000000000E+00  0.00000000000E+00  0.66618342491E+03  0.66618342491E+03  0.00000000000E+00 0. -1.
         21   -1    0    0  501  502 -0.00000000000E+00 -0.00000000000E+00 -0.49021271351E+03  0.49021271351E+03  0.00000000000E+00 0. -1.
         25    1    1    2    0    0  0.43772811085E+03  0.78971445792E+01 -0.30576410255E+02  0.45632026120E+03  0.12500000000E+03 0.  0.
         25    1    1    2    0    0 -0.22939976414E+03 -0.75111851024E+02  0.32320021191E+03  0.42231436032E+03  0.12500000000E+03 0.  0.
         25    1    1    2    0    0 -0.20832834671E+03  0.67214706445E+02 -0.11665309026E+03  0.27776151690E+03  0.12500000000E+03 0.  0.
</event>
<event>
 5    0  0.5576108E-005  0.5355745E+03  0.7546771E-02  0.1004889E+00
         21   -1    0    0  502  501  0.00000000000E+00  0.00000000000E+00  0.35858998196E+03  0.35858998196E+03  0.00000000000E+00 0. -1.
         21   -1    0    0  501  502 -0.00000000000E+00 -0.00000000000E+00 -0.79991095409E+03  0.79991095409E+03  0.00000000000E+00 0. -1.
         25    1    1    2    0    0  0.21549415428E+03 -0.17605058551E+03 -0.61372866455E+03  0.68536079030E+03  0.12500000000E+03 0.  0.
         25    1    1    2    0    0 -0.14327773671E+03  0.93685942002E+02 -0.26852347759E+02  0.21366238355E+03  0.12500000000E+03 0.  0.
         25    1    1    2    0    0 -0.72216417579E+02  0.82364643509E+02  0.19926004018E+03  0.25947776221E+03  0.12500000000E+03 0.  0.
</event>
<event>
 5    0  0.5576108E-005  0.3075546E+03  0.7546771E-02  0.1081524E+00
         21   -1    0    0  502  501  0.00000000000E+00  0.00000000000E+00  0.46345470703E+03  0.46345470703E+03  0.00000000000E+00 0.  1.
         21   -1    0    0  501  502 -0.00000000000E+00 -0.00000000000E+00 -0.20409720215E+03  0.20409720215E+03  0.00000000000E+00 0. -1.
         25    1    1    2    0    0  0.35302284047E+02  0.17767693153E+03  0.19706508886E+03  0.29542341225E+03  0.12500000000E+03 0.  0.
         25    1    1    2    0    0 -0.23206310762E+02 -0.35951210262E+02 -0.61665393926E+02  0.14580344024E+03  0.12500000000E+03 0.  0.
         25    1    1    2    0    0 -0.12095973286E+02 -0.14172572127E+03  0.12395780994E+03  0.22632505669E+03  0.12500000000E+03 0.  0.
</event>
<event>
 5    0  0.5576108E-005  0.4873776E+03  0.7546771E-02  0.1017127E+00
         21   -1    0    0  502  501  0.00000000000E+00  0.00000000000E+00  0.40654967676E+03  0.40654967676E+03  0.00000000000E+00 0.  1.
         21   -1    0    0  501  502 -0.00000000000E+00 -0.00000000000E+00 -0.58427528770E+03  0.58427528770E+03  0.00000000000E+00 0.  1.
         25    1    1    2    0    0  0.30675830951E+03  0.15956645280E+03 -0.17469601177E+03  0.40706978498E+03  0.12500000000E+03 0.  0.
         25    1    1    2    0    0 -0.86534363191E+02 -0.26797890613E+03 -0.90212969676E+01  0.30823249981E+03  0.12500000000E+03 0.  0.
         25    1    1    2    0    0 -0.22022394632E+03  0.10841245333E+03  0.59916978027E+01  0.27552267967E+03  0.12500000000E+03 0.  0.
</event>
<event>
 5    0  0.5576108E-005  0.3100021E+03  0.7546771E-02  0.1080345E+00
         21   -1    0    0  502  501  0.00000000000E+00  0.00000000000E+00  0.51109680711E+03  0.51109680711E+03  0.00000000000E+00 0.  1.
         21   -1    0    0  501  502 -0.00000000000E+00 -0.00000000000E+00 -0.18802958697E+03  0.18802958697E+03  0.00000000000E+00 0.  1.
         25    1    1    2    0    0 -0.88650402321E+02  0.89644866970E+02  0.11397894200E+03  0.21097700165E+03  0.12500000000E+03 0.  0.
         25    1    1    2    0    0 -0.15431708851E+01  0.12484649461E+03  0.75084958341E+02  0.19196817331E+03  0.12500000000E+03 0.  0.
         25    1    1    2    0    0  0.90193573206E+02 -0.21449136158E+03  0.13400331980E+03  0.29618121912E+03  0.12500000000E+03 0.  0.
</event>
<event>
 5    0  0.5576108E-005  0.2823171E+03  0.7546771E-02  0.1094430E+00
         21   -1    0    0  502  501  0.00000000000E+00  0.00000000000E+00  0.90482630292E+03  0.90482630292E+03  0.00000000000E+00 0. -1.
         21   -1    0    0  501  502 -0.00000000000E+00 -0.00000000000E+00 -0.88086468309E+02  0.88086468309E+02  0.00000000000E+00 0. -1.
         25    1    1    2    0    0 -0.77658096316E+02 -0.86480272833E+02  0.85161943756E+02  0.19075422453E+03  0.12500000000E+03 0.  0.
         25    1    1    2    0    0 -0.13962325478E+02  0.72560934244E+02  0.51761189968E+03  0.53759381916E+03  0.12500000000E+03 0.  0.
         25    1    1    2    0    0  0.91620421794E+02  0.13919338589E+02  0.21396599118E+03  0.26456472754E+03  0.12500000000E+03 0.  0.
</event>
<event>
 5    0  0.5576108E-005  0.6344892E+03  0.7546771E-02  0.9836327E-01
         21   -1    0    0  502  501  0.00000000000E+00  0.00000000000E+00  0.65367026972E+03  0.65367026972E+03  0.00000000000E+00 0.  1.
         21   -1    0    0  501  502 -0.00000000000E+00 -0.00000000000E+00 -0.61587088584E+03  0.61587088584E+03  0.00000000000E+00 0.  1.
         25    1    1    2    0    0  0.52615237849E+03 -0.21709143470E+03  0.33518711566E+02  0.58370670754E+03  0.12500000000E+03 0.  0.
         25    1    1    2    0    0 -0.44851161502E+03  0.22208554837E+03  0.77080445574E+02  0.52158513657E+03  0.12500000000E+03 0.  0.
         25    1    1    2    0    0 -0.77640763463E+02 -0.49941136685E+01 -0.72799773255E+02  0.16424931144E+03  0.12500000000E+03 0.  0.
</event>
<event>
 5    0  0.5576108E-005  0.2635991E+03  0.7546771E-02  0.1105000E+00
         21   -1    0    0  502  501  0.00000000000E+00  0.00000000000E+00  0.58239045725E+02  0.58239045725E+02  0.00000000000E+00 0.  1.
         21   -1    0    0  501  502 -0.00000000000E+00 -0.00000000000E+00 -0.11930914789E+04  0.11930914789E+04  0.00000000000E+00 0.  1.
         25    1    1    2    0    0 -0.70016083985E+02 -0.41724817019E+02 -0.42005938971E+03  0.44577808745E+03  0.12500000000E+03 0.  0.
         25    1    1    2    0    0  0.15154639210E+02  0.14552526509E+03 -0.29655498161E+03  0.35352103613E+03  0.12500000000E+03 0.  0.
         25    1    1    2    0    0  0.54861444775E+02 -0.10380044807E+03 -0.41823806185E+03  0.45203140103E+03  0.12500000000E+03 0.  0.
</event>
<event>
 5    0  0.5576108E-005  0.2625424E+03  0.7546771E-02  0.1105625E+00
         21   -1    0    0  502  501  0.00000000000E+00  0.00000000000E+00  0.15336754667E+03  0.15336754667E+03  0.00000000000E+00 0. -1.
         21   -1    0    0  501  502 -0.00000000000E+00 -0.00000000000E+00 -0.44943346090E+03  0.44943346090E+03  0.00000000000E+00 0. -1.
         25    1    1    2    0    0  0.18584478994E+02 -0.50719398510E+02 -0.50883397083E+02  0.14536836087E+03  0.12500000000E+03 0.  0.
         25    1    1    2    0    0 -0.95144661080E+02  0.10714064252E+03 -0.23177708128E+03  0.29979532888E+03  0.12500000000E+03 0.  0.
         25    1    1    2    0    0  0.76560182086E+02 -0.56421244013E+02 -0.13405435864E+02  0.15763731781E+03  0.12500000000E+03 0.  0.
</event>
<event>
 5    0  0.5576108E-005  0.4170996E+03  0.7546771E-02  0.1038014E+00
         21   -1    0    0  502  501  0.00000000000E+00  0.00000000000E+00  0.13269710049E+04  0.13269710049E+04  0.00000000000E+00 0.  1.
         21   -1    0    0  501  502 -0.00000000000E+00 -0.00000000000E+00 -0.13110463614E+03  0.13110463614E+03  0.00000000000E+00 0.  1.
         25    1    1    2    0    0  0.10177735355E+03  0.30291112187E+02 -0.69934805146E+01  0.16416482553E+03  0.12500000000E+03 0.  0.
         25    1    1    2    0    0 -0.76510717390E+02  0.17122517774E+03  0.73496812824E+03  0.76874904936E+03  0.12500000000E+03 0.  0.
         25    1    1    2    0    0 -0.25266636160E+02 -0.20151628993E+03  0.46789172105E+03  0.52516176616E+03  0.12500000000E+03 0.  0.
</event>
<event>
 5    0  0.5576108E-005  0.5008430E+03  0.7546771E-02  0.1013559E+00
         21   -1    0    0  502  501  0.00000000000E+00  0.00000000000E+00  0.66935001109E+03  0.66935001109E+03  0.00000000000E+00 0.  1.
         21   -1    0    0  501  502 -0.00000000000E+00 -0.00000000000E+00 -0.37475711954E+03  0.37475711954E+03  0.00000000000E+00 0.  1.
         25    1    1    2    0    0 -0.10078042227E+03  0.94801077735E+02  0.56499454365E+03  0.59496871531E+03  0.12500000000E+03 0.  0.
         25    1    1    2    0    0  0.94286157750E+02 -0.49785142254E+02 -0.19882824465E+02  0.16549551849E+03  0.12500000000E+03 0.  0.
         25    1    1    2    0    0  0.64942645154E+01 -0.45015935481E+02 -0.25051882763E+03  0.28364289682E+03  0.12500000000E+03 0.  0.
</event>
<event>
 5    0  0.5576108E-005  0.3427093E+03  0.7546771E-02  0.1065648E+00
         21   -1    0    0  502  501  0.00000000000E+00  0.00000000000E+00  0.13871808344E+04  0.13871808344E+04  0.00000000000E+00 0. -1.
         21   -1    0    0  501  502 -0.00000000000E+00 -0.00000000000E+00 -0.84667890870E+02  0.84667890870E+02  0.00000000000E+00 0. -1.
         25    1    1    2    0    0 -0.10020122994E+03  0.30974218832E+02  0.37416060421E+03  0.40819216854E+03  0.12500000000E+03 0.  0.
         25    1    1    2    0    0 -0.98513768149E+01  0.19899685780E+03  0.41702409611E+03  0.47878063430E+03  0.12500000000E+03 0.  0.
         25    1    1    2    0    0  0.11005260675E+03 -0.22997107663E+03  0.51132824316E+03  0.58487592239E+03  0.12500000000E+03 0.  0.
</event>
<event>
 5    0  0.5576108E-005  0.3057653E+03  0.7546771E-02  0.1082394E+00
         21   -1    0    0  502  501  0.00000000000E+00  0.00000000000E+00  0.94051846439E+03  0.94051846439E+03  0.00000000000E+00 0.  1.
         21   -1    0    0  501  502 -0.00000000000E+00 -0.00000000000E+00 -0.99405177074E+02  0.99405177074E+02  0.00000000000E+00 0.  1.
         25    1    1    2    0    0 -0.12175991647E+02 -0.12240287816E+03  0.57745010532E+03  0.60349344941E+03  0.12500000000E+03 0.  0.
         25    1    1    2    0    0  0.67319590996E+02  0.72201874455E+02  0.24135714578E+03  0.28917695245E+03  0.12500000000E+03 0.  0.
         25    1    1    2    0    0 -0.55143599349E+02  0.50201003701E+02  0.22306036215E+02  0.14725323960E+03  0.12500000000E+03 0.  0.
</event>
<event>
 5    0  0.5576108E-005  0.3613115E+03  0.7546771E-02  0.1058066E+00
         21   -1    0    0  502  501  0.00000000000E+00  0.00000000000E+00  0.24700301323E+02  0.24700301323E+02  0.00000000000E+00 0. -1.
         21   -1    0    0  501  502 -0.00000000000E+00 -0.00000000000E+00 -0.52851992995E+04  0.52851992995E+04  0.00000000000E+00 0. -1.
         25    1    1    2    0    0  0.66518586894E+02 -0.24887210536E+03 -0.12581577731E+04  0.12903286517E+04  0.12500000000E+03 0.  0.
         25    1    1    2    0    0 -0.30798026619E+02  0.59707306125E+02 -0.16125453000E+04  0.16187775713E+04  0.12500000000E+03 0.  0.
         25    1    1    2    0    0 -0.35720560275E+02  0.18916479923E+03 -0.23897959251E+04  0.24007933779E+04  0.12500000000E+03 0.  0.
</event>
<event>
 5    0  0.5576108E-005  0.2746916E+03  0.7546771E-02  0.1098624E+00
         21   -1    0    0  502  501  0.00000000000E+00  0.00000000000E+00  0.86524274690E+03  0.86524274690E+03  0.00000000000E+00 0.  1.
         21   -1    0    0  501  502 -0.00000000000E+00 -0.00000000000E+00 -0.87207283211E+02  0.87207283211E+02  0.00000000000E+00 0.  1.
         25    1    1    2    0    0  0.68549261707E+02 -0.15995239867E+03  0.28767458306E+03  0.35869964714E+03  0.12500000000E+03 0.  0.
         25    1    1    2    0    0 -0.76764436196E+01  0.12001015850E+03  0.35741385017E+03  0.39727953159E+03  0.12500000000E+03 0.  0.
         25    1    1    2    0    0 -0.60872818088E+02  0.39942240170E+02  0.13294703046E+03  0.19647085137E+03  0.12500000000E+03 0.  0.
</event>
<event>
 5    0  0.5576108E-005  0.3403365E+03  0.7546771E-02  0.1066653E+00
         21   -1    0    0  502  501  0.00000000000E+00  0.00000000000E+00  0.12872180145E+04  0.12872180145E+04  0.00000000000E+00 0. -1.
         21   -1    0    0  501  502 -0.00000000000E+00 -0.00000000000E+00 -0.89983931802E+02  0.89983931802E+02  0.00000000000E+00 0. -1.
         25    1    1    2    0    0  0.23987981654E+03  0.12127321072E+03  0.39139816076E+03  0.49098578215E+03  0.12500000000E+03 0.  0.
         25    1    1    2    0    0 -0.12804495932E+03 -0.79259067701E+02  0.44138718434E+03  0.48283036143E+03  0.12500000000E+03 0.  0.
         25    1    1    2    0    0 -0.11183485722E+03 -0.42014143024E+02  0.36444873758E+03  0.40338580271E+03  0.12500000000E+03 0.  0.
</event>
<event>
 5    0  0.5576108E-005  0.2836478E+03  0.7546771E-02  0.1093713E+00
         21   -1    0    0  502  501  0.00000000000E+00  0.00000000000E+00  0.22192189924E+03  0.22192189924E+03  0.00000000000E+00 0.  1.
         21   -1    0    0  501  502 -0.00000000000E+00 -0.00000000000E+00 -0.36254223439E+03  0.36254223439E+03  0.00000000000E+00 0.  1.
         25    1    1    2    0    0  0.10176305603E+03  0.10648679162E+03 -0.89070369321E+02  0.21272914011E+03  0.12500000000E+03 0.  0.
         25    1    1    2    0    0 -0.11450233637E+03 -0.49631630929E+02  0.67950093298E+02  0.18925194583E+03  0.12500000000E+03 0.  0.
         25    1    1    2    0    0  0.12739280340E+02 -0.56855160690E+02 -0.11950005912E+03  0.18248304768E+03  0.12500000000E+03 0.  0.
</event>
<event>
 5    0  0.5576108E-005  0.2479444E+03  0.7546771E-02  0.1114611E+00
         21   -1    0    0  502  501  0.00000000000E+00  0.00000000000E+00  0.27312587145E+03  0.27312587145E+03  0.00000000000E+00 0. -1.
         21   -1    0    0  501  502 -0.00000000000E+00 -0.00000000000E+00 -0.22508464016E+03  0.22508464016E+03  0.00000000000E+00 0. -1.
         25    1    1    2    0    0 -0.99821443567E+02  0.31901724303E+02  0.60188046332E+02  0.17386673497E+03  0.12500000000E+03 0.  0.
         25    1    1    2    0    0 -0.39439992317E+02 -0.34225543025E+02  0.10273516816E+02  0.13585818318E+03  0.12500000000E+03 0.  0.
         25    1    1    2    0    0  0.13926143588E+03  0.23238187213E+01 -0.22420331861E+02  0.18848559345E+03  0.12500000000E+03 0.  0.
</event>
<event>
 5    0  0.5576108E-005  0.2070006E+03  0.7546771E-02  0.1143963E+00
         21   -1    0    0  502  501  0.00000000000E+00  0.00000000000E+00  0.12373991035E+04  0.12373991035E+04  0.00000000000E+00 0.  1.
         21   -1    0    0  501  502 -0.00000000000E+00 -0.00000000000E+00 -0.34628483972E+02  0.34628483972E+02  0.00000000000E+00 0.  1.
         25    1    1    2    0    0  0.23047095139E+01  0.53447818653E+02  0.40814164878E+03  0.43019366159E+03  0.12500000000E+03 0.  0.
         25    1    1    2    0    0 -0.40764392832E+01  0.12238532040E+02  0.49330684154E+03  0.50906093833E+03  0.12500000000E+03 0.  0.
         25    1    1    2    0    0  0.17717297693E+01 -0.65686350693E+02  0.30132212922E+03  0.33277298756E+03  0.12500000000E+03 0.  0.
</event>
<event>
 5    0  0.5576108E-005  0.2972163E+03  0.7546771E-02  0.1086640E+00
         21   -1    0    0  502  501  0.00000000000E+00  0.00000000000E+00  0.67081443623E+03  0.67081443623E+03  0.00000000000E+00 0. -1.
         21   -1    0    0  501  502 -0.00000000000E+00 -0.00000000000E+00 -0.13168698041E+03  0.13168698041E+03  0.00000000000E+00 0. -1.
         25    1    1    2    0    0 -0.31365607754E+02  0.84803946724E+02  0.23768181016E+03  0.28336046586E+03  0.12500000000E+03 0.  0.
         25    1    1    2    0    0 -0.26888408168E+02  0.11876978054E+03  0.15180690195E+03  0.23129976814E+03  0.12500000000E+03 0.  0.
         25    1    1    2    0    0  0.58254015922E+02 -0.20357372726E+03  0.14963874371E+03  0.28784118264E+03  0.12500000000E+03 0.  0.
</event>
<event>
 5    0  0.5576108E-005  0.2731562E+03  0.7546771E-02  0.1099487E+00
         21   -1    0    0  502  501  0.00000000000E+00  0.00000000000E+00  0.32787378512E+03  0.32787378512E+03  0.00000000000E+00 0. -1.
         21   -1    0    0  501  502 -0.00000000000E+00 -0.00000000000E+00 -0.22757019820E+03  0.22757019820E+03  0.00000000000E+00 0. -1.
         25    1    1    2    0    0 -0.37683474558E+02  0.11328807364E+03  0.18099666043E+03  0.25027789150E+03  0.12500000000E+03 0.  0.
         25    1    1    2    0    0  0.48002031605E+02 -0.45733758943E+02 -0.11251257505E+00  0.14149482112E+03  0.12500000000E+03 0.  0.
         25    1    1    2    0    0 -0.10318557047E+02 -0.67554314698E+02 -0.80580560937E+02  0.16367127071E+03  0.12500000000E+03 0.  0.
</event>
<event>
 5    0  0.5576108E-005  0.3239929E+03  0.7546771E-02  0.1073826E+00
         21   -1    0    0  502  501  0.00000000000E+00  0.00000000000E+00  0.16307542053E+04  0.16307542053E+04  0.00000000000E+00 0.  1.
         21   -1    0    0  501  502 -0.00000000000E+00 -0.00000000000E+00 -0.64369847736E+02  0.64369847736E+02  0.00000000000E+00 0.  1.
         25    1    1    2    0    0  0.16160945827E+03  0.44991708001E+01  0.67512574719E+03  0.70537765350E+03  0.12500000000E+03 0.  0.
         25    1    1    2    0    0 -0.12736671933E+03  0.31676330917E+02  0.81535065486E+03  0.83525287280E+03  0.12500000000E+03 0.  0.
         25    1    1    2    0    0 -0.34242738943E+02 -0.36175501717E+02  0.75907955519E+02  0.15449352674E+03  0.12500000000E+03 0.  0.
</event>
<event>
 5    0  0.5576108E-005  0.2733885E+03  0.7546771E-02  0.1099356E+00
         21   -1    0    0  502  501  0.00000000000E+00  0.00000000000E+00  0.17219330887E+03  0.17219330887E+03  0.00000000000E+00 0.  1.
         21   -1    0    0  501  502 -0.00000000000E+00 -0.00000000000E+00 -0.43405452256E+03  0.43405452256E+03  0.00000000000E+00 0.  1.
         25    1    1    2    0    0 -0.89061027354E+01 -0.82548082236E+01 -0.10865928671E+03  0.16607016924E+03  0.12500000000E+03 0.  0.
         25    1    1    2    0    0 -0.10168644375E+03 -0.10438446195E+03 -0.84236689253E+01  0.19217754015E+03  0.12500000000E+03 0.  0.
         25    1    1    2    0    0  0.11059254648E+03  0.11263927018E+03 -0.14477825806E+03  0.24800012204E+03  0.12500000000E+03 0.  0.
</event>
<event>
 5    0  0.5576108E-005  0.2619220E+03  0.7546771E-02  0.1105994E+00
         21   -1    0    0  502  501  0.00000000000E+00  0.00000000000E+00  0.89124226517E+03  0.89124226517E+03  0.00000000000E+00 0.  1.
         21   -1    0    0  501  502 -0.00000000000E+00 -0.00000000000E+00 -0.76974750252E+02  0.76974750252E+02  0.00000000000E+00 0.  1.
         25    1    1    2    0    0  0.22250836005E+02 -0.45491524516E+02  0.30259425416E+03  0.33128969371E+03  0.12500000000E+03 0.  0.
         25    1    1    2    0    0  0.10986025050E+03 -0.82043410981E+01  0.35036543298E+03  0.38796587799E+03  0.12500000000E+03 0.  0.
         25    1    1    2    0    0 -0.13211108651E+03  0.53695865614E+02  0.16130782777E+03  0.24896144373E+03  0.12500000000E+03 0.  0.
</event>
<event>
 5    0  0.5576108E-005  0.3870606E+03  0.7546771E-02  0.1048355E+00
         21   -1    0    0  502  501  0.00000000000E+00  0.00000000000E+00  0.37092456327E+03  0.37092456327E+03  0.00000000000E+00 0.  1.
         21   -1    0    0  501  502 -0.00000000000E+00 -0.00000000000E+00 -0.40389861225E+03  0.40389861225E+03  0.00000000000E+00 0.  1.
         25    1    1    2    0    0 -0.24814573254E+03 -0.29232137734E+02  0.99604944173E+02  0.29660911544E+03  0.12500000000E+03 0.  0.
         25    1    1    2    0    0 -0.20266677023E+02  0.83751977646E+02 -0.69397042223E+01  0.15198122072E+03  0.12500000000E+03 0.  0.
         25    1    1    2    0    0  0.26841240957E+03 -0.54519839912E+02 -0.12563928894E+03  0.32623283936E+03  0.12500000000E+03 0.  0.
</event>
<event>
 5    0  0.5576108E-005  0.3748025E+03  0.7546771E-02  0.1052872E+00
         21   -1    0    0  502  501  0.00000000000E+00  0.00000000000E+00  0.36238941958E+03  0.36238941958E+03  0.00000000000E+00 0.  1.
         21   -1    0    0  501  502 -0.00000000000E+00 -0.00000000000E+00 -0.38764085733E+03  0.38764085733E+03  0.00000000000E+00 0.  1.
         25    1    1    2    0    0 -0.54189055371E+02 -0.84217022862E+02 -0.78471919456E+02  0.17835863535E+03  0.12500000000E+03 0.  0.
         25    1    1    2    0    0  0.26810297554E+03  0.47485535198E+02  0.10202728092E+03  0.31649430895E+03  0.12500000000E+03 0.  0.
         25    1    1    2    0    0 -0.21391392017E+03  0.36731487663E+02 -0.48806799214E+02  0.25517733261E+03  0.12500000000E+03 0.  0.
</event>
<event>
 5    0  0.5576108E-005  0.5920476E+03  0.7546771E-02  0.9922044E-01
         21   -1    0    0  502  501  0.00000000000E+00  0.00000000000E+00  0.38726822800E+03  0.38726822800E+03  0.00000000000E+00 0. -1.
         21   -1    0    0  501  502 -0.00000000000E+00 -0.00000000000E+00 -0.90510997508E+03  0.90510997508E+03  0.00000000000E+00 0. -1.
         25    1    1    2    0    0 -0.24923416606E+03 -0.18251995684E+03 -0.24066782678E+03  0.41106837269E+03  0.12500000000E+03 0.  0.
         25    1    1    2    0    0 -0.14183067861E+03 -0.17194532040E+03 -0.21760242516E+03  0.33564408238E+03  0.12500000000E+03 0.  0.
         25    1    1    2    0    0  0.39106484467E+03  0.35446527724E+03 -0.59571495134E+02  0.54566574800E+03  0.12500000000E+03 0.  0.
</event>
<event>
 5    0  0.5576108E-005  0.4454217E+03  0.7546771E-02  0.1029096E+00
         21   -1    0    0  502  501  0.00000000000E+00  0.00000000000E+00  0.55653576968E+03  0.55653576968E+03  0.00000000000E+00 0.  1.
         21   -1    0    0  501  502 -0.00000000000E+00 -0.00000000000E+00 -0.35649192837E+03  0.35649192837E+03  0.00000000000E+00 0.  1.
         25    1    1    2    0    0 -0.11013272867E+03 -0.20491906522E+03 -0.12663417463E+03  0.29288607922E+03  0.12500000000E+03 0.  0.
         25    1    1    2    0    0 -0.27046301037E+02  0.87295553199E+02 -0.67454854505E+02  0.16889989166E+03  0.12500000000E+03 0.  0.
         25    1    1    2    0    0  0.13717902971E+03  0.11762351202E+03  0.39413287044E+03  0.45124172717E+03  0.12500000000E+03 0.  0.
</event>
<event>
 5    0  0.5576108E-005  0.3115220E+03  0.7546771E-02  0.1079619E+00
         21   -1    0    0  502  501  0.00000000000E+00  0.00000000000E+00  0.33227049456E+02  0.33227049456E+02  0.00000000000E+00 0.  1.
         21   -1    0    0  501  502 -0.00000000000E+00 -0.00000000000E+00 -0.29206906326E+04  0.29206906326E+04  0.00000000000E+00 0.  1.
         25    1    1    2    0    0  0.10055286007E+03  0.90268783516E+02 -0.20797227394E+04  0.20878532045E+04  0.12500000000E+03 0.  0.
         25    1    1    2    0    0  0.17914462607E+02 -0.41672550415E+02 -0.31971309998E+03  0.34626434371E+03  0.12500000000E+03 0.  0.
         25    1    1    2    0    0 -0.11846732268E+03 -0.48596233102E+02 -0.48802774376E+03  0.51980013380E+03  0.12500000000E+03 0.  0.
</event>
<event>
 5    0  0.6794989E-005  0.4434150E+03  0.7546771E-02  0.1029704E+00
         21   -1    0    0  502  501  0.00000000000E+00  0.00000000000E+00  0.70333738952E+03  0.70333738952E+03  0.00000000000E+00 0. -1.
         21   -1    0    0  501  502 -0.00000000000E+00 -0.00000000000E+00 -0.27954844080E+03  0.27954844080E+03  0.00000000000E+00 0. -1.
         25    1    1    2    0    0  0.22734534029E+03 -0.11647040026E+03  0.25343874302E+03  0.38092972364E+03  0.12500000000E+03 0.  0.
         25    1    1    2    0    0 -0.84482386948E+02  0.14527252386E+03  0.30317773582E+03  0.36848761091E+03  0.12500000000E+03 0.  0.
         25    1    1    2    0    0 -0.14286295334E+03 -0.28802123601E+02 -0.13282753012E+03  0.23346849577E+03  0.12500000000E+03 0.  0.
</event>
<event>
 5    0  0.5576108E-005  0.2746044E+03  0.7546771E-02  0.1098673E+00
         21   -1    0    0  502  501  0.00000000000E+00  0.00000000000E+00  0.12362399576E+04  0.12362399576E+04  0.00000000000E+00 0. -1.
         21   -1    0    0  501  502 -0.00000000000E+00 -0.00000000000E+00 -0.60997543229E+02  0.60997543229E+02  0.00000000000E+00 0. -1.
         25    1    1    2    0    0  0.53284114912E+02 -0.57843834019E+02  0.53747447798E+03  0.55739476183E+03  0.12500000000E+03 0.  0.
         25    1    1    2    0    0 -0.11377250887E+03  0.11606222410E+03  0.24666148182E+03  0.32075147739E+03  0.12500000000E+03 0.  0.
         25    1    1    2    0    0  0.60488393955E+02 -0.58218390081E+02  0.39110645458E+03  0.41909126162E+03  0.12500000000E+03 0.  0.
</event>
<event>
 5    0  0.5576108E-005  0.3592103E+03  0.7546771E-02  0.1058897E+00
         21   -1    0    0  502  501  0.00000000000E+00  0.00000000000E+00  0.44078897688E+03  0.44078897688E+03  0.00000000000E+00 0. -1.
         21   -1    0    0  501  502 -0.00000000000E+00 -0.00000000000E+00 -0.29272972362E+03  0.29272972362E+03  0.00000000000E+00 0. -1.
         25    1    1    2    0    0 -0.20467099673E+03  0.13849677771E+03 -0.37172471778E+02  0.27942506509E+03  0.12500000000E+03 0.  0.
         25    1    1    2    0    0  0.18599627296E+03 -0.10672830252E+03  0.27867653589E+02  0.24977419848E+03  0.12500000000E+03 0.  0.
         25    1    1    2    0    0  0.18674723778E+02 -0.31768475198E+02  0.15736407145E+03  0.20431943693E+03  0.12500000000E+03 0.  0.
</event>
<event>
 5    0  0.5576108E-005  0.3991495E+03  0.7546771E-02  0.1044075E+00
         21   -1    0    0  502  501  0.00000000000E+00  0.00000000000E+00  0.20911828790E+03  0.20911828790E+03  0.00000000000E+00 0.  1.
         21   -1    0    0  501  502 -0.00000000000E+00 -0.00000000000E+00 -0.76186689269E+03  0.76186689269E+03  0.00000000000E+00 0.  1.
         25    1    1    2    0    0  0.38348711998E+02  0.26585280441E+03 -0.45548813281E+03  0.54336247244E+03  0.12500000000E+03 0.  0.
         25    1    1    2    0    0  0.72425860388E+02 -0.12578715724E+03 -0.84232146323E+02  0.20925574939E+03  0.12500000000E+03 0.  0.
         25    1    1    2    0    0 -0.11077457239E+03 -0.14006564718E+03 -0.13028325660E+02  0.21836695876E+03  0.12500000000E+03 0.  0.
</event>
<event>
 5    0  0.5576108E-005  0.3685353E+03  0.7546771E-02  0.1055254E+00
         21   -1    0    0  502  501  0.00000000000E+00  0.00000000000E+00  0.17272602933E+03  0.17272602933E+03  0.00000000000E+00 0. -1.
         21   -1    0    0  501  502 -0.00000000000E+00 -0.00000000000E+00 -0.78632198002E+03  0.78632198002E+03  0.00000000000E+00 0. -1.
         25    1    1    2    0    0  0.11338098659E+03 -0.68877289846E+02 -0.17641031935E+03  0.25366302440E+03  0.12500000000E+03 0.  0.
         25    1    1    2    0    0 -0.86522915842E+02  0.27310006518E+03 -0.24159615694E+03  0.39504881169E+03  0.12500000000E+03 0.  0.
         25    1    1    2    0    0 -0.26858070749E+02 -0.20422277534E+03 -0.19558947441E+03  0.31033617325E+03  0.12500000000E+03 0.  0.
</event>
<event>
 5    0  0.5576108E-005  0.4349618E+03  0.7546771E-02  0.1032304E+00
         21   -1    0    0  502  501  0.00000000000E+00  0.00000000000E+00  0.36862180423E+03  0.36862180423E+03  0.00000000000E+00 0.  1.
         21   -1    0    0  501  502 -0.00000000000E+00 -0.00000000000E+00 -0.51324086273E+03  0.51324086273E+03  0.00000000000E+00 0.  1.
         25    1    1    2    0    0  0.84672726574E+02 -0.23371842027E+03  0.31008564421E+02  0.27996482219E+03  0.12500000000E+03 0.  0.
         25    1    1    2    0    0  0.18007710857E+03  0.10842226064E+03 -0.13910422908E+03  0.28135056101E+03  0.12500000000E+03 0.  0.
         25    1    1    2    0    0 -0.26474983515E+03  0.12529615963E+03 -0.36523393844E+02  0.32054728376E+03  0.12500000000E+03 0.  0.
</event>
<event>
 5    0  0.5576108E-005  0.3080728E+03  0.7546771E-02  0.1081273E+00
         21   -1    0    0  502  501  0.00000000000E+00  0.00000000000E+00  0.11266518961E+04  0.11266518961E+04  0.00000000000E+00 0.  1.
         21   -1    0    0  501  502 -0.00000000000E+00 -0.00000000000E+00 -0.84239751740E+02  0.84239751740E+02  0.00000000000E+00 0.  1.
         25    1    1    2    0    0 -0.56239525946E+02  0.76996625491E+01  0.50770527206E+03  0.52593898160E+03  0.12500000000E+03 0.  0.
         25    1    1    2    0    0 -0.97221965120E+02  0.89026509492E+02  0.12739977022E+03  0.22188630275E+03  0.12500000000E+03 0.  0.
         25    1    1    2    0    0  0.15346149107E+03 -0.96726172041E+02  0.40730710204E+03  0.46306636346E+03  0.12500000000E+03 0.  0.
</event>
<event>
 5    0  0.5576108E-005  0.2949049E+03  0.7546771E-02  0.1087816E+00
         21   -1    0    0  502  501  0.00000000000E+00  0.00000000000E+00  0.47778556052E+03  0.47778556052E+03  0.00000000000E+00 0.  1.
         21   -1    0    0  501  502 -0.00000000000E+00 -0.00000000000E+00 -0.18202495192E+03  0.18202495192E+03  0.00000000000E+00 0.  1.
         25    1    1    2    0    0  0.12061897103E+03 -0.14442704277E+03  0.22952885156E+03  0.32205061800E+03  0.12500000000E+03 0.  0.
         25    1    1    2    0    0 -0.86410217201E+02  0.13101086420E+03  0.33413623752E+02  0.20340118590E+03  0.12500000000E+03 0.  0.
         25    1    1    2    0    0 -0.34208753833E+02  0.13416178578E+02  0.32818133289E+02  0.13435870853E+03  0.12500000000E+03 0.  0.
</event>
<event>
 5    0  0.5576108E-005  0.2869948E+03  0.7546771E-02  0.1091929E+00
         21   -1    0    0  502  501  0.00000000000E+00  0.00000000000E+00  0.76689659739E+02  0.76689659739E+02  0.00000000000E+00 0. -1.
         21   -1    0    0  501  502 -0.00000000000E+00 -0.00000000000E+00 -0.10740174471E+04  0.10740174471E+04  0.00000000000E+00 0. -1.
         25    1    1    2    0    0  0.25096537954E+02  0.73851480189E+02 -0.18354738233E+03  0.23536889961E+03  0.12500000000E+03 0.  0.
         25    1    1    2    0    0 -0.10346522449E+03  0.90395750613E+02 -0.48456988006E+03  0.51895029923E+03  0.12500000000E+03 0.  0.
         25    1    1    2    0    0  0.78368686537E+02 -0.16424723080E+03 -0.32921052497E+03  0.39638790799E+03  0.12500000000E+03 0.  0.
</event>
<event>
 5    0  0.5576108E-005  0.4519660E+03  0.7546771E-02  0.1027137E+00
         21   -1    0    0  502  501  0.00000000000E+00  0.00000000000E+00  0.31552597735E+03  0.31552597735E+03  0.00000000000E+00 0.  1.
         21   -1    0    0  501  502 -0.00000000000E+00 -0.00000000000E+00 -0.64740550762E+03  0.64740550762E+03  0.00000000000E+00 0.  1.
         25    1    1    2    0    0  0.36144620692E+01  0.73415712418E+02  0.25174197307E+03  0.29052014073E+03  0.12500000000E+03 0.  0.
         25    1    1    2    0    0  0.81371806153E+02 -0.10332635172E+02 -0.16381695377E+03  0.22178622258E+03  0.12500000000E+03 0.  0.
         25    1    1    2    0    0 -0.84986268222E+02 -0.63083077246E+02 -0.41980454957E+03  0.45062512165E+03  0.12500000000E+03 0.  0.
</event>
<event>
 5    0  0.5576108E-005  0.4142082E+03  0.7546771E-02  0.1038968E+00
         21   -1    0    0  502  501  0.00000000000E+00  0.00000000000E+00  0.14837226194E+03  0.14837226194E+03  0.00000000000E+00 0. -1.
         21   -1    0    0  501  502 -0.00000000000E+00 -0.00000000000E+00 -0.11563376095E+04  0.11563376095E+04  0.00000000000E+00 0. -1.
         25    1    1    2    0    0  0.14992738626E+03 -0.33986417425E+01 -0.33840047302E+03  0.39067845097E+03  0.12500000000E+03 0.  0.
         25    1    1    2    0    0 -0.11410815568E+03 -0.18028900713E+03 -0.46568525784E+02  0.25163152600E+03  0.12500000000E+03 0.  0.
         25    1    1    2    0    0 -0.35819230580E+02  0.18368764887E+03 -0.62299634872E+03  0.66239989443E+03  0.12500000000E+03 0.  0.
</event>
<event>
 5    0  0.5576108E-005  0.2534625E+03  0.7546771E-02  0.1111136E+00
         21   -1    0    0  502  501  0.00000000000E+00  0.00000000000E+00  0.15372489777E+03  0.15372489777E+03  0.00000000000E+00 0. -1.
         21   -1    0    0  501  502 -0.00000000000E+00 -0.00000000000E+00 -0.41791032476E+03  0.41791032476E+03  0.00000000000E+00 0. -1.
         25    1    1    2    0    0  0.51473209329E+02  0.40484489648E+02 -0.25401902076E+03  0.29058414976E+03  0.12500000000E+03 0.  0.
         25    1    1    2    0    0  0.55933718589E+01 -0.19637098608E+02  0.40726352333E+02  0.13304336596E+03  0.12500000000E+03 0.  0.
         25    1    1    2    0    0 -0.57066581188E+02 -0.20847391039E+02 -0.50892758567E+02  0.14800770681E+03  0.12500000000E+03 0.  0.
</event>
<event>
 5    0  0.6235957E-005  0.2978372E+03  0.7546771E-02  0.1086327E+00
         21   -1    0    0  502  501  0.00000000000E+00  0.00000000000E+00  0.23961348844E+03  0.23961348844E+03  0.00000000000E+00 0.  1.
         21   -1    0    0  501  502 -0.00000000000E+00 -0.00000000000E+00 -0.37020871397E+03  0.37020871397E+03  0.00000000000E+00 0.  1.
         25    1    1    2    0    0 -0.48206981286E+01 -0.36022973858E+02 -0.20543741963E+03  0.24320860832E+03  0.12500000000E+03 0.  0.
         25    1    1    2    0    0 -0.10251439996E+03 -0.19439069506E+02 -0.27128579608E+02  0.16506980176E+03  0.12500000000E+03 0.  0.
         25    1    1    2    0    0  0.10733509809E+03  0.55462043364E+02  0.10197077370E+03  0.20154379233E+03  0.12500000000E+03 0.  0.
</event>
<event>
 5    0  0.5576108E-005  0.4319044E+03  0.7546771E-02  0.1033260E+00
         21   -1    0    0  502  501  0.00000000000E+00  0.00000000000E+00  0.27158045989E+03  0.27158045989E+03  0.00000000000E+00 0. -1.
         21   -1    0    0  501  502 -0.00000000000E+00 -0.00000000000E+00 -0.68687343671E+03  0.68687343671E+03  0.00000000000E+00 0. -1.
         25    1    1    2    0    0 -0.15203675365E+03 -0.22380991501E+03 -0.24111167699E+03  0.38336130908E+03  0.12500000000E+03 0.  0.
         25    1    1    2    0    0 -0.10091432974E+03 -0.20082943196E+02 -0.11231386483E+03  0.19704423561E+03  0.12500000000E+03 0.  0.
         25    1    1    2    0    0  0.25295108339E+03  0.24389285820E+03 -0.61867435003E+02  0.37804835191E+03  0.12500000000E+03 0.  0.
</event>
<event>
 5    0  0.5576108E-005  0.2245127E+03  0.7546771E-02  0.1130563E+00
         21   -1    0    0  502  501  0.00000000000E+00  0.00000000000E+00  0.53492037223E+03  0.53492037223E+03  0.00000000000E+00 0. -1.
         21   -1    0    0  501  502 -0.00000000000E+00 -0.00000000000E+00 -0.94230790089E+02  0.94230790089E+02  0.00000000000E+00 0. -1.
         25    1    1    2    0    0 -0.59794754223E+01  0.21058974115E+02  0.12112332674E+03  0.17542831812E+03  0.12500000000E+03 0.  0.
         25    1    1    2    0    0  0.73209876757E+01  0.72876003996E+02  0.74215723455E+02  0.16278047311E+03  0.12500000000E+03 0.  0.
         25    1    1    2    0    0 -0.13415122534E+01 -0.93934978111E+02  0.24535053194E+03  0.29094237108E+03  0.12500000000E+03 0.  0.
</event>
<event>
 5    0  0.5576108E-005  0.2636659E+03  0.7546771E-02  0.1104960E+00
         21   -1    0    0  502  501  0.00000000000E+00  0.00000000000E+00  0.17103932763E+03  0.17103932763E+03  0.00000000000E+00 0. -1.
         21   -1    0    0  501  502 -0.00000000000E+00 -0.00000000000E+00 -0.40645457470E+03  0.40645457470E+03  0.00000000000E+00 0. -1.
         25    1    1    2    0    0 -0.67382342350E+02 -0.69956186985E+01  0.16612476786E+02  0.14314430875E+03  0.12500000000E+03 0.  0.
         25    1    1    2    0    0 -0.58115038289E+02  0.58199786939E+02 -0.18551398707E+03  0.23833802104E+03  0.12500000000E+03 0.  0.
         25    1    1    2    0    0  0.12549738064E+03 -0.51204168240E+02 -0.66513736789E+02  0.19601157255E+03  0.12500000000E+03 0.  0.
</event>
<event>
 5    0  0.5576108E-005  0.3644895E+03  0.7546771E-02  0.1056820E+00
         21   -1    0    0  502  501  0.00000000000E+00  0.00000000000E+00  0.51591410242E+03  0.51591410242E+03  0.00000000000E+00 0.  1.
         21   -1    0    0  501  502 -0.00000000000E+00 -0.00000000000E+00 -0.25750910883E+03  0.25750910883E+03  0.00000000000E+00 0.  1.
         25    1    1    2    0    0  0.20008716600E+03  0.15713709092E+02  0.92616362556E+02  0.25393815244E+03  0.12500000000E+03 0.  0.
         25    1    1    2    0    0 -0.26404447592E+03 -0.79922415271E+02  0.14343850054E+02  0.30321250594E+03  0.12500000000E+03 0.  0.
         25    1    1    2    0    0  0.63957309915E+02  0.64208706179E+02  0.15144478097E+03  0.21627255287E+03  0.12500000000E+03 0.  0.
</event>
<event>
 5    0  0.5576108E-005  0.3728160E+03  0.7546771E-02  0.1053621E+00
         21   -1    0    0  502  501  0.00000000000E+00  0.00000000000E+00  0.16997169581E+03  0.16997169581E+03  0.00000000000E+00 0. -1.
         21   -1    0    0  501  502 -0.00000000000E+00 -0.00000000000E+00 -0.81773498083E+03  0.81773498083E+03  0.00000000000E+00 0. -1.
         25    1    1    2    0    0  0.11254223843E+03  0.45184194267E+02 -0.20918037292E+02  0.17541360018E+03  0.12500000000E+03 0.  0.
         25    1    1    2    0    0 -0.23232189449E+03 -0.76260589986E+02 -0.56076721375E+03  0.62439891757E+03  0.12500000000E+03 0.  0.
         25    1    1    2    0    0  0.11977965606E+03  0.31076395719E+02 -0.66078033979E+02  0.18789415890E+03  0.12500000000E+03 0.  0.
</event>
<event>
 5    0  0.5576108E-005  0.3240580E+03  0.7546771E-02  0.1073797E+00
         21   -1    0    0  502  501  0.00000000000E+00  0.00000000000E+00  0.19283674184E+03  0.19283674184E+03  0.00000000000E+00 0.  1.
         21   -1    0    0  501  502 -0.00000000000E+00 -0.00000000000E+00 -0.54457250691E+03  0.54457250691E+03  0.00000000000E+00 0.  1.
         25    1    1    2    0    0 -0.11550543519E+03  0.10809049205E+03 -0.42616434168E+02  0.20607333765E+03  0.12500000000E+03 0.  0.
         25    1    1    2    0    0  0.14227937285E+03 -0.18543994005E+03 -0.12174384413E+03  0.29168125563E+03  0.12500000000E+03 0.  0.
         25    1    1    2    0    0 -0.26773937659E+02  0.77349448001E+02 -0.18737548677E+03  0.23965465547E+03  0.12500000000E+03 0.  0.
</event>
<event>
 5    0  0.5576108E-005  0.2994776E+03  0.7546771E-02  0.1085502E+00
         21   -1    0    0  502  501  0.00000000000E+00  0.00000000000E+00  0.10395788771E+03  0.10395788771E+03  0.00000000000E+00 0.  1.
         21   -1    0    0  501  502 -0.00000000000E+00 -0.00000000000E+00 -0.86272250054E+03  0.86272250054E+03  0.00000000000E+00 0.  1.
         25    1    1    2    0    0 -0.76263064109E+02 -0.46000909737E+02 -0.13408537841E+03  0.20380389434E+03  0.12500000000E+03 0.  0.
         25    1    1    2    0    0  0.29566863954E+02 -0.94937534118E+02 -0.51659611274E+03  0.54072532632E+03  0.12500000000E+03 0.  0.
         25    1    1    2    0    0  0.46696200156E+02  0.14093844386E+03 -0.10808312168E+03  0.22215116758E+03  0.12500000000E+03 0.  0.
</event>
<event>
 5    0  0.5576108E-005  0.2402880E+03  0.7546771E-02  0.1119601E+00
         21   -1    0    0  502  501  0.00000000000E+00  0.00000000000E+00  0.34987060121E+03  0.34987060121E+03  0.00000000000E+00 0. -1.
         21   -1    0    0  501  502 -0.00000000000E+00 -0.00000000000E+00 -0.16502759227E+03  0.16502759227E+03  0.00000000000E+00 0. -1.
         25    1    1    2    0    0  0.98158042935E+01 -0.12315915083E+03  0.94158797071E+02  0.19938757612E+03  0.12500000000E+03 0.  0.
         25    1    1    2    0    0 -0.20247793187E+02  0.68860058954E+02  0.10463790899E+03  0.17811730080E+03  0.12500000000E+03 0.  0.
         25    1    1    2    0    0  0.10431988894E+02  0.54299091873E+02 -0.13953697111E+02  0.13739331655E+03  0.12500000000E+03 0.  0.
</event>
<event>
 5    0  0.5576108E-005  0.2361379E+03  0.7546771E-02  0.1122393E+00
         21   -1    0    0  502  501  0.00000000000E+00  0.00000000000E+00  0.32273058262E+03  0.32273058262E+03  0.00000000000E+00 0.  1.
         21   -1    0    0  501  502 -0.00000000000E+00 -0.00000000000E+00 -0.17277909014E+03  0.17277909014E+03  0.00000000000E+00 0.  1.
         25    1    1    2    0    0 -0.71044257944E+02 -0.12116703137E+02  0.17953693408E+03  0.23033152581E+03  0.12500000000E+03 0.  0.
         25    1    1    2    0    0  0.41813011379E+02  0.24481745751E+02 -0.23190091317E+02  0.13605316656E+03  0.12500000000E+03 0.  0.
         25    1    1    2    0    0  0.29231246565E+02 -0.12365042614E+02 -0.63953502813E+01  0.12912498039E+03  0.12500000000E+03 0.  0.
</event>
<event>
 5    0  0.5576108E-005  0.2949793E+03  0.7546771E-02  0.1087778E+00
         21   -1    0    0  502  501  0.00000000000E+00  0.00000000000E+00  0.30795796264E+03  0.30795796264E+03  0.00000000000E+00 0.  1.
         21   -1    0    0  501  502 -0.00000000000E+00 -0.00000000000E+00 -0.28254756314E+03  0.28254756314E+03  0.00000000000E+00 0.  1.
         25    1    1    2    0    0 -0.17124504909E+02 -0.17383100768E+02 -0.20537479626E+02  0.12900468569E+03  0.12500000000E+03 0.  0.
         25    1    1    2    0    0  0.40124638953E+02  0.19740733960E+03  0.43994141738E+02  0.24112264283E+03  0.12500000000E+03 0.  0.
         25    1    1    2    0    0 -0.23000134043E+02 -0.18002423884E+03  0.19537373805E+01  0.22037819725E+03  0.12500000000E+03 0.  0.
</event>
<event>
 5    0  0.5673355E-005  0.2996770E+03  0.7546771E-02  0.1085402E+00
         21   -1    0    0  502  501  0.00000000000E+00  0.00000000000E+00  0.52406334116E+03  0.52406334116E+03  0.00000000000E+00 0.  1.
         21   -1    0    0  501  502 -0.00000000000E+00 -0.00000000000E+00 -0.17136532071E+03  0.17136532071E+03  0.00000000000E+00 0.  1.
         25    1    1    2    0    0 -0.27833258431E+02  0.78285518810E+02  0.11689429534E+03  0.19024349927E+03  0.12500000000E+03 0.  0.
         25    1    1    2    0    0 -0.13052170514E+03  0.14124628450E+01  0.22417884917E+03  0.28795671025E+03  0.12500000000E+03 0.  0.
         25    1    1    2    0    0  0.15835496357E+03 -0.79697981655E+02  0.11624875939E+02  0.21722845235E+03  0.12500000000E+03 0.  0.
</event>
<event>
 5    0  0.5576108E-005  0.6262515E+03  0.7546771E-02  0.9852391E-01
         21   -1    0    0  502  501  0.00000000000E+00  0.00000000000E+00  0.48962251623E+03  0.48962251623E+03  0.00000000000E+00 0. -1.
         21   -1    0    0  501  502 -0.00000000000E+00 -0.00000000000E+00 -0.80100677614E+03  0.80100677614E+03  0.00000000000E+00 0. -1.
         25    1    1    2    0    0  0.29493851468E+03 -0.68562583178E+02  0.19957258911E+03  0.38359323974E+03  0.12500000000E+03 0.  0.
         25    1    1    2    0    0  0.62867160714E+02 -0.13958617135E+03  0.45019597981E+02  0.20270259823E+03  0.12500000000E+03 0.  0.
         25    1    1    2    0    0 -0.35780567539E+03  0.20814875453E+03 -0.55597644700E+03  0.70433345439E+03  0.12500000000E+03 0.  0.
</event>
<event>
 5    0  0.5576108E-005  0.2912843E+03  0.7546771E-02  0.1089681E+00
         21   -1    0    0  502  501  0.00000000000E+00  0.00000000000E+00  0.42789479329E+02  0.42789479329E+02  0.00000000000E+00 0.  1.
         21   -1    0    0  501  502 -0.00000000000E+00 -0.00000000000E+00 -0.19828831091E+04  0.19828831091E+04  0.00000000000E+00 0.  1.
         25    1    1    2    0    0  0.44454992917E+02  0.16207509691E+02 -0.11953839833E+03  0.17931357573E+03  0.12500000000E+03 0.  0.
         25    1    1    2    0    0  0.63174879054E+02 -0.22115492514E+02 -0.90599274785E+03  0.91702127538E+03  0.12500000000E+03 0.  0.
         25    1    1    2    0    0 -0.10762987197E+03  0.59079828234E+01 -0.91456248357E+03  0.92933773729E+03  0.12500000000E+03 0.  0.
</event>
<event>
 5    0  0.5576108E-005  0.3588156E+03  0.7546771E-02  0.1059054E+00
         21   -1    0    0  502  501  0.00000000000E+00  0.00000000000E+00  0.16097349806E+03  0.16097349806E+03  0.00000000000E+00 0.  1.
         21   -1    0    0  501  502 -0.00000000000E+00 -0.00000000000E+00 -0.79981251247E+03  0.79981251247E+03  0.00000000000E+00 0.  1.
         25    1    1    2    0    0  0.22181019917E+02 -0.19040661485E+03 -0.95697922052E+02  0.24805194800E+03  0.12500000000E+03 0.  0.
         25    1    1    2    0    0  0.59514739436E+02  0.37050934624E+02 -0.16510281152E+02  0.14426491379E+03  0.12500000000E+03 0.  0.
         25    1    1    2    0    0 -0.81695759353E+02  0.15335568023E+03 -0.52663081121E+03  0.56846914874E+03  0.12500000000E+03 0.  0.
</event>
<event>
 5    0  0.5576108E-005  0.2902916E+03  0.7546771E-02  0.1090197E+00
         21   -1    0    0  502  501  0.00000000000E+00  0.00000000000E+00  0.15148363683E+03  0.15148363683E+03  0.00000000000E+00 0. -1.
         21   -1    0    0  501  502 -0.00000000000E+00 -0.00000000000E+00 -0.55629258425E+03  0.55629258425E+03  0.00000000000E+00 0. -1.
         25    1    1    2    0    0 -0.77385049546E+02  0.52589407911E+01 -0.14469639207E+02  0.14781905429E+03  0.12500000000E+03 0.  0.
         25    1    1    2    0    0  0.41794316102E+02  0.96273222770E+02 -0.33179112386E+02  0.16655675243E+03  0.12500000000E+03 0.  0.
         25    1    1    2    0    0  0.35590733444E+02 -0.10153216356E+03 -0.35716019583E+03  0.39340041437E+03  0.12500000000E+03 0.  0.
</event>
<event>
 5    0  0.5576108E-005  0.3754584E+03  0.7546771E-02  0.1052625E+00
         21   -1    0    0  502  501  0.00000000000E+00  0.00000000000E+00  0.15926436064E+04  0.15926436064E+04  0.00000000000E+00 0. -1.
         21   -1    0    0  501  502 -0.00000000000E+00 -0.00000000000E+00 -0.88512573835E+02  0.88512573835E+02  0.00000000000E+00 0. -1.
         25    1    1    2    0    0 -0.14593824536E+02  0.79848473817E+02  0.30832468864E+03  0.34245856992E+03  0.12500000000E+03 0.  0.
         25    1    1    2    0    0  0.18820320177E+03  0.16166105224E+03  0.50877786101E+03  0.57968495998E+03  0.12500000000E+03 0.  0.
         25    1    1    2    0    0 -0.17360937723E+03 -0.24150952606E+03  0.68702848290E+03  0.75901265033E+03  0.12500000000E+03 0.  0.
</event>
<event>
 5    0  0.5576108E-005  0.5177508E+03  0.7546771E-02  0.1009247E+00
         21   -1    0    0  502  501  0.00000000000E+00  0.00000000000E+00  0.21665286730E+04  0.21665286730E+04  0.00000000000E+00 0.  1.
         21   -1    0    0  501  502 -0.00000000000E+00 -0.00000000000E+00 -0.12373058033E+03  0.12373058033E+03  0.00000000000E+00 0.  1.
         25    1    1    2    0    0  0.22836463408E+03 -0.29805655682E+03  0.44586028899E+03  0.59615812874E+03  0.12500000000E+03 0.  0.
         25    1    1    2    0    0 -0.93028740524E+02  0.96140290562E+02  0.11892717031E+04  0.12032827954E+04  0.12500000000E+03 0.  0.
         25    1    1    2    0    0 -0.13533589355E+03  0.20191626625E+03  0.40766610058E+03  0.49081832915E+03  0.12500000000E+03 0.  0.
</event>
<event>
 5    0  0.5576108E-005  0.4165689E+03  0.7546771E-02  0.1038189E+00
         21   -1    0    0  502  501  0.00000000000E+00  0.00000000000E+00  0.89267325945E+03  0.89267325945E+03  0.00000000000E+00 0. -1.
         21   -1    0    0  501  502 -0.00000000000E+00 -0.00000000000E+00 -0.19439328081E+03  0.19439328081E+03  0.00000000000E+00 0. -1.
         25    1    1    2    0    0  0.12029320688E+03  0.25507981312E+03  0.38260536857E+02  0.31084567773E+03  0.12500000000E+03 0.  0.
         25    1    1    2    0    0 -0.66907977680E+02 -0.22452635596E+03  0.38171841979E+03  0.46499754193E+03  0.12500000000E+03 0.  0.
         25    1    1    2    0    0 -0.53385229203E+02 -0.30553457164E+02  0.27830102199E+03  0.31122332060E+03  0.12500000000E+03 0.  0.
</event>
<event>
 5    0  0.5576108E-005  0.3258089E+03  0.7546771E-02  0.1073007E+00
         21   -1    0    0  502  501  0.00000000000E+00  0.00000000000E+00  0.30930840939E+03  0.30930840939E+03  0.00000000000E+00 0. -1.
         21   -1    0    0  501  502 -0.00000000000E+00 -0.00000000000E+00 -0.34318962963E+03  0.34318962963E+03  0.00000000000E+00 0. -1.
         25    1    1    2    0    0  0.14771934307E+03 -0.10611232868E+03  0.15877349173E+02  0.22126436864E+03  0.12500000000E+03 0.  0.
         25    1    1    2    0    0 -0.40949100235E+02  0.10777882687E+02 -0.16322133987E+03  0.20990282836E+03  0.12500000000E+03 0.  0.
         25    1    1    2    0    0 -0.10677024283E+03  0.95334445991E+02  0.11346277045E+03  0.22133084201E+03  0.12500000000E+03 0.  0.
</event>
<event>
 5    0  0.6364358E-005  0.3550699E+03  0.7546771E-02  0.1060553E+00
         21   -1    0    0  502  501  0.00000000000E+00  0.00000000000E+00  0.19198179356E+03  0.19198179356E+03  0.00000000000E+00 0. -1.
         21   -1    0    0  501  502 -0.00000000000E+00 -0.00000000000E+00 -0.65670094555E+03  0.65670094555E+03  0.00000000000E+00 0. -1.
         25    1    1    2    0    0 -0.14609034931E+03 -0.98100509614E+02 -0.15510005102E+03  0.26579527079E+03  0.12500000000E+03 0.  0.
         25    1    1    2    0    0 -0.58260889759E+02  0.49295239203E+02  0.44059537768E+02  0.15293984030E+03  0.12500000000E+03 0.  0.
         25    1    1    2    0    0  0.20435123907E+03  0.48805270411E+02 -0.35367863874E+03  0.42994762801E+03  0.12500000000E+03 0.  0.
</event>
<event>
 5    0  0.5576108E-005  0.3734329E+03  0.7546771E-02  0.1053388E+00
         21   -1    0    0  502  501  0.00000000000E+00  0.00000000000E+00  0.25435618539E+03  0.25435618539E+03  0.00000000000E+00 0.  1.
         21   -1    0    0  501  502 -0.00000000000E+00 -0.00000000000E+00 -0.54825525396E+03  0.54825525396E+03  0.00000000000E+00 0.  1.
         25    1    1    2    0    0 -0.26629782195E+03 -0.32608084991E+02 -0.51359533280E+02  0.30040076372E+03  0.12500000000E+03 0.  0.
         25    1    1    2    0    0  0.68149358914E+02 -0.17783994336E+02  0.22127513686E+02  0.14517311196E+03  0.12500000000E+03 0.  0.
         25    1    1    2    0    0  0.19814846304E+03  0.50392079327E+02 -0.26466704897E+03  0.35703756367E+03  0.12500000000E+03 0.  0.
</event>
<event>
 5    0  0.5576108E-005  0.3528052E+03  0.7546771E-02  0.1061470E+00
         21   -1    0    0  502  501  0.00000000000E+00  0.00000000000E+00  0.32027015392E+03  0.32027015392E+03  0.00000000000E+00 0.  1.
         21   -1    0    0  501  502 -0.00000000000E+00 -0.00000000000E+00 -0.38864541890E+03  0.38864541890E+03  0.00000000000E+00 0.  1.
         25    1    1    2    0    0 -0.10260168007E+03  0.15834706268E+03  0.95721831318E+02  0.24574085131E+03  0.12500000000E+03 0.  0.
         25    1    1    2    0    0  0.38572978967E+01  0.35467865077E+02 -0.16781078084E+03  0.21226941929E+03  0.12500000000E+03 0.  0.
         25    1    1    2    0    0  0.98744382169E+02 -0.19381492775E+03  0.37136845459E+01  0.25090530222E+03  0.12500000000E+03 0.  0.
</event>
<event>
 5    0  0.5576108E-005  0.2776792E+03  0.7546771E-02  0.1096963E+00
         21   -1    0    0  502  501  0.00000000000E+00  0.00000000000E+00  0.18458606255E+03  0.18458606255E+03  0.00000000000E+00 0.  1.
         21   -1    0    0  501  502 -0.00000000000E+00 -0.00000000000E+00 -0.41772243823E+03  0.41772243823E+03  0.00000000000E+00 0.  1.
         25    1    1    2    0    0  0.16044999725E+02 -0.29946320244E+02  0.65527069551E+02  0.14516549506E+03  0.12500000000E+03 0.  0.
         25    1    1    2    0    0  0.23178875055E+02  0.12732246081E+03 -0.18612572496E+03  0.25887459274E+03  0.12500000000E+03 0.  0.
         25    1    1    2    0    0 -0.39223874780E+02 -0.97376140563E+02 -0.11253772026E+03  0.19826841298E+03  0.12500000000E+03 0.  0.
</event>
<event>
 5    0  0.5576108E-005  0.3089354E+03  0.7546771E-02  0.1080857E+00
         21   -1    0    0  502  501  0.00000000000E+00  0.00000000000E+00  0.39327252168E+03  0.39327252168E+03  0.00000000000E+00 0. -1.
         21   -1    0    0  501  502 -0.00000000000E+00 -0.00000000000E+00 -0.24268431134E+03  0.24268431134E+03  0.00000000000E+00 0. -1.
         25    1    1    2    0    0 -0.66739572611E+02 -0.21596038803E+03 -0.87019626101E+01  0.25844493399E+03  0.12500000000E+03 0.  0.
         25    1    1    2    0    0  0.77628308208E+01  0.10128000475E+03  0.57175135053E+02  0.17091488225E+03  0.12500000000E+03 0.  0.
         25    1    1    2    0    0  0.58976741790E+02  0.11468038328E+03  0.10211503789E+03  0.20659701679E+03  0.12500000000E+03 0.  0.
</event>
<event>
 5    0  0.5576108E-005  0.4401901E+03  0.7546771E-02  0.1030688E+00
         21   -1    0    0  502  501  0.00000000000E+00  0.00000000000E+00  0.22400149087E+03  0.22400149087E+03  0.00000000000E+00 0.  1.
         21   -1    0    0  501  502 -0.00000000000E+00 -0.00000000000E+00 -0.86502699773E+03  0.86502699773E+03  0.00000000000E+00 0.  1.
         25    1    1    2    0    0 -0.69723396169E+01  0.62171884385E+02  0.15208945740E+03  0.20656756711E+03  0.12500000000E+03 0.  0.
         25    1    1    2    0    0  0.10597899895E+02  0.11173740677E+03 -0.41799902348E+03  0.45049500240E+03  0.12500000000E+03 0.  0.
         25    1    1    2    0    0 -0.36255602779E+01 -0.17390929115E+03 -0.37511594077E+03  0.43196591909E+03  0.12500000000E+03 0.  0.
</event>
<event>
 5    0  0.5576108E-005  0.2244891E+03  0.7546771E-02  0.1130580E+00
         21   -1    0    0  502  501  0.00000000000E+00  0.00000000000E+00  0.19173482360E+03  0.19173482360E+03  0.00000000000E+00 0.  1.
         21   -1    0    0  501  502 -0.00000000000E+00 -0.00000000000E+00 -0.26283893283E+03  0.26283893283E+03  0.00000000000E+00 0.  1.
         25    1    1    2    0    0  0.75820740570E+02 -0.30153900301E+02  0.20451268013E+01  0.14928906506E+03  0.12500000000E+03 0.  0.
         25    1    1    2    0    0 -0.11015462553E+02 -0.26939407088E+02  0.15663498856E+02  0.12929585170E+03  0.12500000000E+03 0.  0.
         25    1    1    2    0    0 -0.64805278017E+02  0.57093307389E+02 -0.88812734888E+02  0.17598883966E+03  0.12500000000E+03 0.  0.
</event>
<event>
 5    0  0.5576108E-005  0.3200058E+03  0.7546771E-02  0.1075647E+00
         21   -1    0    0  502  501  0.00000000000E+00  0.00000000000E+00  0.11910859951E+03  0.11910859951E+03  0.00000000000E+00 0.  1.
         21   -1    0    0  501  502 -0.00000000000E+00 -0.00000000000E+00 -0.85975053359E+03  0.85975053359E+03  0.00000000000E+00 0.  1.
         25    1    1    2    0    0 -0.11391407624E+03 -0.12177427432E+01 -0.38763117790E+03  0.42291941283E+03  0.12500000000E+03 0.  0.
         25    1    1    2    0    0 -0.11296787872E+02 -0.69016825916E+01 -0.35731023917E+03  0.37877547130E+03  0.12500000000E+03 0.  0.
         25    1    1    2    0    0  0.12521086411E+03  0.81194253348E+01  0.42994829940E+01  0.17716424897E+03  0.12500000000E+03 0.  0.
</event>
<event>
 5    0  0.5576108E-005  0.2971758E+03  0.7546771E-02  0.1086661E+00
         21   -1    0    0  502  501  0.00000000000E+00  0.00000000000E+00  0.27138519872E+03  0.27138519872E+03  0.00000000000E+00 0. -1.
         21   -1    0    0  501  502 -0.00000000000E+00 -0.00000000000E+00 -0.32541735883E+03  0.32541735883E+03  0.00000000000E+00 0. -1.
         25    1    1    2    0    0  0.11636230003E+03  0.31341012992E+02 -0.19150034218E+03  0.25849530947E+03  0.12500000000E+03 0.  0.
         25    1    1    2    0    0 -0.10405362848E+03  0.34868960157E+02  0.62050602606E+02  0.17753388202E+03  0.12500000000E+03 0.  0.
         25    1    1    2    0    0 -0.12308671549E+02 -0.66209973149E+02  0.75417579468E+02  0.16077336605E+03  0.12500000000E+03 0.  0.
</event>
<event>
 5    0  0.5576108E-005  0.2549685E+03  0.7546771E-02  0.1110204E+00
         21   -1    0    0  502  501  0.00000000000E+00  0.00000000000E+00  0.24368937526E+03  0.24368937526E+03  0.00000000000E+00 0.  1.
         21   -1    0    0  501  502 -0.00000000000E+00 -0.00000000000E+00 -0.26676977862E+03  0.26676977862E+03  0.00000000000E+00 0.  1.
         25    1    1    2    0    0 -0.22022157968E+02  0.11530739367E+03 -0.52796306406E+02  0.17942469297E+03  0.12500000000E+03 0.  0.
         25    1    1    2    0    0 -0.49602171438E+02 -0.24821004835E+02  0.73653394750E+02  0.15532636689E+03  0.12500000000E+03 0.  0.
         25    1    1    2    0    0  0.71624329406E+02 -0.90486388836E+02 -0.43937491708E+02  0.17570809402E+03  0.12500000000E+03 0.  0.
</event>
<event>
 5    0  0.5576108E-005  0.2852328E+03  0.7546771E-02  0.1092865E+00
         21   -1    0    0  502  501  0.00000000000E+00  0.00000000000E+00  0.77174582863E+03  0.77174582863E+03  0.00000000000E+00 0. -1.
         21   -1    0    0  501  502 -0.00000000000E+00 -0.00000000000E+00 -0.10542039431E+03  0.10542039431E+03  0.00000000000E+00 0. -1.
         25    1    1    2    0    0  0.19133382540E+02  0.78638899885E+02  0.48465235886E+03  0.50701387738E+03  0.12500000000E+03 0.  0.
         25    1    1    2    0    0 -0.50312246256E+02  0.26128029378E+02  0.14585466138E+03  0.20028124797E+03  0.12500000000E+03 0.  0.
         25    1    1    2    0    0  0.31178863716E+02 -0.10476692926E+03  0.35818414065E+02  0.16987109759E+03  0.12500000000E+03 0.  0.
</event>
<event>
 5    0  0.5576108E-005  0.2399550E+03  0.7546771E-02  0.1119823E+00
         21   -1    0    0  502  501  0.00000000000E+00  0.00000000000E+00  0.61113425410E+03  0.61113425410E+03  0.00000000000E+00 0.  1.
         21   -1    0    0  501  502 -0.00000000000E+00 -0.00000000000E+00 -0.94215641035E+02  0.94215641035E+02  0.00000000000E+00 0.  1.
         25    1    1    2    0    0 -0.23952601923E+02  0.68853027427E+02  0.44952984574E+02  0.15152635859E+03  0.12500000000E+03 0.  0.
         25    1    1    2    0    0  0.75759698213E+01 -0.86894046700E+02  0.32753576490E+03  0.36126534287E+03  0.12500000000E+03 0.  0.
         25    1    1    2    0    0  0.16376632102E+02  0.18041019273E+02  0.14442986359E+03  0.19255819368E+03  0.12500000000E+03 0.  0.
</event>
<event>
 5    0  0.5576108E-005  0.3501350E+03  0.7546771E-02  0.1062560E+00
         21   -1    0    0  502  501  0.00000000000E+00  0.00000000000E+00  0.64535096090E+02  0.64535096090E+02  0.00000000000E+00 0.  1.
         21   -1    0    0  501  502 -0.00000000000E+00 -0.00000000000E+00 -0.18996562502E+04  0.18996562502E+04  0.00000000000E+00 0.  1.
         25    1    1    2    0    0  0.11760490758E+03 -0.10120269273E+03 -0.32209794274E+03  0.37874131543E+03  0.12500000000E+03 0.  0.
         25    1    1    2    0    0 -0.67104729040E+02  0.18081878313E+03 -0.13050274062E+04  0.13251113191E+04  0.12500000000E+03 0.  0.
         25    1    1    2    0    0 -0.50500178542E+02 -0.79616090402E+02 -0.20799580518E+03  0.26033871179E+03  0.12500000000E+03 0.  0.
</event>
<event>
 5    0  0.5576108E-005  0.2585670E+03  0.7546771E-02  0.1108007E+00
         21   -1    0    0  502  501  0.00000000000E+00  0.00000000000E+00  0.37408572584E+02  0.37408572584E+02  0.00000000000E+00 0. -1.
         21   -1    0    0  501  502 -0.00000000000E+00 -0.00000000000E+00 -0.17872076234E+04  0.17872076234E+04  0.00000000000E+00 0. -1.
         25    1    1    2    0    0  0.75427737814E+02  0.13126812427E+03 -0.65951184753E+03  0.68811448256E+03  0.12500000000E+03 0.  0.
         25    1    1    2    0    0 -0.95077733597E+02 -0.38120540962E+02 -0.61704746988E+03  0.63786011880E+03  0.12500000000E+03 0.  0.
         25    1    1    2    0    0  0.19649995784E+02 -0.93147583311E+02 -0.47323973340E+03  0.49864159461E+03  0.12500000000E+03 0.  0.
</event>
<event>
 5    0  0.5576108E-005  0.2799686E+03  0.7546771E-02  0.1095706E+00
         21   -1    0    0  502  501  0.00000000000E+00  0.00000000000E+00  0.96946046576E+03  0.96946046576E+03  0.00000000000E+00 0. -1.
         21   -1    0    0  501  502 -0.00000000000E+00 -0.00000000000E+00 -0.80851588868E+02  0.80851588868E+02  0.00000000000E+00 0. -1.
         25    1    1    2    0    0 -0.77915198759E+02  0.22416925810E+01  0.73220737511E+02  0.16450556156E+03  0.12500000000E+03 0.  0.
         25    1    1    2    0    0  0.58991583142E+02  0.10658966423E+03  0.34354501896E+03  0.38534340977E+03  0.12500000000E+03 0.  0.
         25    1    1    2    0    0  0.18923615616E+02 -0.10883135681E+03  0.47184312042E+03  0.50046308329E+03  0.12500000000E+03 0.  0.
</event>
<event>
 5    0  0.5576108E-005  0.2818444E+03  0.7546771E-02  0.1094686E+00
         21   -1    0    0  502  501  0.00000000000E+00  0.00000000000E+00  0.13420707999E+03  0.13420707999E+03  0.00000000000E+00 0. -1.
         21   -1    0    0  501  502 -0.00000000000E+00 -0.00000000000E+00 -0.59189343017E+03  0.59189343017E+03  0.00000000000E+00 0. -1.
         25    1    1    2    0    0  0.70117715933E+02 -0.51153365739E+02 -0.41125593801E+03  0.43850838928E+03  0.12500000000E+03 0.  0.
         25    1    1    2    0    0  0.91680376799E+01  0.72063785781E+01  0.26450187937E+01  0.12557062129E+03  0.12500000000E+03 0.  0.
         25    1    1    2    0    0 -0.79285753613E+02  0.43946987161E+02 -0.49075430962E+02  0.16202149959E+03  0.12500000000E+03 0.  0.
</event>
<event>
 5    0  0.5576108E-005  0.2393446E+03  0.7546771E-02  0.1120230E+00
         21   -1    0    0  502  501  0.00000000000E+00  0.00000000000E+00  0.16933040306E+04  0.16933040306E+04  0.00000000000E+00 0.  1.
         21   -1    0    0  501  502 -0.00000000000E+00 -0.00000000000E+00 -0.33830793428E+02  0.33830793428E+02  0.00000000000E+00 0.  1.
         25    1    1    2    0    0 -0.13529579829E+02 -0.53080553397E+02  0.47705232513E+03  0.49618999949E+03  0.12500000000E+03 0.  0.
         25    1    1    2    0    0 -0.72504029510E+02  0.98888481479E+02  0.75607975418E+03  0.77609107761E+03  0.12500000000E+03 0.  0.
         25    1    1    2    0    0  0.86033609340E+02 -0.45807928082E+02  0.42634115787E+03  0.45485374694E+03  0.12500000000E+03 0.  0.
</event>
<event>
 5    0  0.5760889E-005  0.4454096E+03  0.7546771E-02  0.1029100E+00
         21   -1    0    0  502  501  0.00000000000E+00  0.00000000000E+00  0.73065904666E+03  0.73065904666E+03  0.00000000000E+00 0.  1.
         21   -1    0    0  501  502 -0.00000000000E+00 -0.00000000000E+00 -0.27152159424E+03  0.27152159424E+03  0.00000000000E+00 0.  1.
         25    1    1    2    0    0  0.89768274233E+02 -0.13241429323E+03  0.30895901051E+03  0.36969251856E+03  0.12500000000E+03 0.  0.
         25    1    1    2    0    0  0.18553842063E+03  0.19239334853E+03  0.13329753664E+03  0.32377915214E+03  0.12500000000E+03 0.  0.
         25    1    1    2    0    0 -0.27530669486E+03 -0.59979055304E+02  0.16880905281E+02  0.30870897019E+03  0.12500000000E+03 0.  0.
</event>
<event>
 5    0  0.5576108E-005  0.5076730E+03  0.7546771E-02  0.1011795E+00
         21   -1    0    0  502  501  0.00000000000E+00  0.00000000000E+00  0.22651706364E+03  0.22651706364E+03  0.00000000000E+00 0.  1.
         21   -1    0    0  501  502 -0.00000000000E+00 -0.00000000000E+00 -0.11378031644E+04  0.11378031644E+04  0.00000000000E+00 0.  1.
         25    1    1    2    0    0  0.13427071572E+03 -0.49606134173E+02 -0.16862163366E+02  0.19078450200E+03  0.12500000000E+03 0.  0.
         25    1    1    2    0    0  0.16235134375E+03  0.19073362883E+03 -0.73710303689E+03  0.78846887255E+03  0.12500000000E+03 0.  0.
         25    1    1    2    0    0 -0.29662205948E+03 -0.14112749466E+03 -0.15732090050E+03  0.38506685348E+03  0.12500000000E+03 0.  0.
</event>
<event>
 5    0  0.5576108E-005  0.5129840E+03  0.7546771E-02  0.1010444E+00
         21   -1    0    0  502  501  0.00000000000E+00  0.00000000000E+00  0.22884582277E+03  0.22884582277E+03  0.00000000000E+00 0. -1.
         21   -1    0    0  501  502 -0.00000000000E+00 -0.00000000000E+00 -0.11499123143E+04  0.11499123143E+04  0.00000000000E+00 0. -1.
         25    1    1    2    0    0  0.12399752504E+02  0.22189308932E+03 -0.10871120546E+03  0.27718842534E+03  0.12500000000E+03 0.  0.
         25    1    1    2    0    0  0.25865822090E+03  0.22474340286E+02 -0.58925602320E+03  0.65593965583E+03  0.12500000000E+03 0.  0.
         25    1    1    2    0    0 -0.27105797341E+03 -0.24436742961E+03 -0.22309926283E+03  0.44563005585E+03  0.12500000000E+03 0.  0.
</event>
<event>
 5    0  0.5576108E-005  0.5284861E+03  0.7546771E-02  0.1006600E+00
         21   -1    0    0  502  501  0.00000000000E+00  0.00000000000E+00  0.81233317805E+03  0.81233317805E+03  0.00000000000E+00 0. -1.
         21   -1    0    0  501  502 -0.00000000000E+00 -0.00000000000E+00 -0.34382149138E+03  0.34382149138E+03  0.00000000000E+00 0. -1.
         25    1    1    2    0    0 -0.12881334423E+03 -0.12304442320E+03 -0.16093391935E+03  0.27066129042E+03  0.12500000000E+03 0.  0.
         25    1    1    2    0    0  0.10712566670E+03  0.13740134626E+03  0.70516853148E+03  0.73704999574E+03  0.12500000000E+03 0.  0.
         25    1    1    2    0    0  0.21687677524E+02 -0.14356923058E+02 -0.75722925462E+02  0.14844338327E+03  0.12500000000E+03 0.  0.
</event>
<event>
 5    0  0.5576108E-005  0.3793063E+03  0.7546771E-02  0.1051190E+00
         21   -1    0    0  502  501  0.00000000000E+00  0.00000000000E+00  0.96146974622E+03  0.96146974622E+03  0.00000000000E+00 0. -1.
         21   -1    0    0  501  502 -0.00000000000E+00 -0.00000000000E+00 -0.14963892065E+03  0.14963892065E+03  0.00000000000E+00 0. -1.
         25    1    1    2    0    0  0.15754809764E+03 -0.46198234721E+02  0.94489024974E+02  0.22695562518E+03  0.12500000000E+03 0.  0.
         25    1    1    2    0    0 -0.26959897067E+03 -0.62328809763E+01  0.26271211412E+03  0.39669271319E+03  0.12500000000E+03 0.  0.
         25    1    1    2    0    0  0.11205087303E+03  0.52431115697E+02  0.45462968647E+03  0.48746032850E+03  0.12500000000E+03 0.  0.
</event>
<event>
 5    0  0.5576108E-005  0.2627567E+03  0.7546771E-02  0.1105498E+00
         21   -1    0    0  502  501  0.00000000000E+00  0.00000000000E+00  0.33890742829E+03  0.33890742829E+03  0.00000000000E+00 0.  1.
         21   -1    0    0  501  502 -0.00000000000E+00 -0.00000000000E+00 -0.20371663442E+03  0.20371663442E+03  0.00000000000E+00 0.  1.
         25    1    1    2    0    0  0.14167738353E+02  0.94402211312E+02 -0.73208671703E+02  0.17348490402E+03  0.12500000000E+03 0.  0.
         25    1    1    2    0    0 -0.68067732537E+02 -0.40521306875E+02  0.15230127392E+03  0.21235788321E+03  0.12500000000E+03 0.  0.
         25    1    1    2    0    0  0.53899994183E+02 -0.53880904438E+02  0.56098191647E+02  0.15678127548E+03  0.12500000000E+03 0.  0.
</event>
<event>
 5    0  0.5576108E-005  0.2524747E+03  0.7546771E-02  0.1111751E+00
         21   -1    0    0  502  501  0.00000000000E+00  0.00000000000E+00  0.45649180380E+03  0.45649180380E+03  0.00000000000E+00 0.  1.
         21   -1    0    0  501  502 -0.00000000000E+00 -0.00000000000E+00 -0.13963776425E+03  0.13963776425E+03  0.00000000000E+00 0.  1.
         25    1    1    2    0    0 -0.64557123180E+02  0.39372369415E+02 -0.24959016277E+02  0.14820849544E+03  0.12500000000E+03 0.  0.
         25    1    1    2    0    0  0.42393104630E+02 -0.21999171901E+02  0.78634854631E+02  0.15520818035E+03  0.12500000000E+03 0.  0.
         25    1    1    2    0    0  0.22164018550E+02 -0.17373197514E+02  0.26317820120E+03  0.29271289226E+03  0.12500000000E+03 0.  0.
</event>
<event>
 5    0  0.5576108E-005  0.2570180E+03  0.7546771E-02  0.1108948E+00
         21   -1    0    0  502  501  0.00000000000E+00  0.00000000000E+00  0.10988267731E+03  0.10988267731E+03  0.00000000000E+00 0. -1.
         21   -1    0    0  501  502 -0.00000000000E+00 -0.00000000000E+00 -0.60117059763E+03  0.60117059763E+03  0.00000000000E+00 0.  1.
         25    1    1    2    0    0  0.10779148004E+02 -0.14595587063E+01 -0.41541172072E+02  0.13217030423E+03  0.12500000000E+03 0.  0.
         25    1    1    2    0    0 -0.99937408390E+02  0.32586904985E+02 -0.89941032503E+02  0.18645047948E+03  0.12500000000E+03 0.  0.
         25    1    1    2    0    0  0.89158260386E+02 -0.31127346278E+02 -0.35980571575E+03  0.39243249122E+03  0.12500000000E+03 0.  0.
</event>
<event>
 5    0  0.5576108E-005  0.4453227E+03  0.7546771E-02  0.1029126E+00
         21   -1    0    0  502  501  0.00000000000E+00  0.00000000000E+00  0.10743492803E+04  0.10743492803E+04  0.00000000000E+00 0. -1.
         21   -1    0    0  501  502 -0.00000000000E+00 -0.00000000000E+00 -0.18458827389E+03  0.18458827389E+03  0.00000000000E+00 0. -1.
         25    1    1    2    0    0  0.22439521881E+03 -0.99558899657E+02  0.18544635402E+03  0.33208513810E+03  0.12500000000E+03 0.  0.
         25    1    1    2    0    0  0.39047281277E+02  0.18931636620E+03  0.52429962923E+03  0.57260848570E+03  0.12500000000E+03 0.  0.
         25    1    1    2    0    0 -0.26344250009E+03 -0.89757466541E+02  0.18001502315E+03  0.35424393038E+03  0.12500000000E+03 0.  0.
</event>
<event>
 5    0  0.5576108E-005  0.3841278E+03  0.7546771E-02  0.1049419E+00
         21   -1    0    0  502  501  0.00000000000E+00  0.00000000000E+00  0.88160510011E+02  0.88160510011E+02  0.00000000000E+00 0.  1.
         21   -1    0    0  501  502 -0.00000000000E+00 -0.00000000000E+00 -0.16736992488E+04  0.16736992488E+04  0.00000000000E+00 0.  1.
         25    1    1    2    0    0 -0.11730399664E+03  0.92010488762E+02 -0.11868444698E+04  0.12026848936E+04  0.12500000000E+03 0.  0.
         25    1    1    2    0    0  0.73200522827E+02 -0.12114937795E+03 -0.66298574862E+02  0.20013992443E+03  0.12500000000E+03 0.  0.
         25    1    1    2    0    0  0.44103473818E+02  0.29138889191E+02 -0.33239569408E+03  0.35903494079E+03  0.12500000000E+03 0.  0.
</event>
<event>
 5    0  0.5576108E-005  0.4811533E+03  0.7546771E-02  0.1018819E+00
         21   -1    0    0  502  501  0.00000000000E+00  0.00000000000E+00  0.22871236427E+03  0.22871236427E+03  0.00000000000E+00 0.  1.
         21   -1    0    0  501  502 -0.00000000000E+00 -0.00000000000E+00 -0.10122254363E+04  0.10122254363E+04  0.00000000000E+00 0.  1.
         25    1    1    2    0    0 -0.44968076983E+01  0.16660741268E+03 -0.23783781488E+03  0.31618045074E+03  0.12500000000E+03 0.  0.
         25    1    1    2    0    0 -0.14531018197E+03 -0.32546824062E+03 -0.66475348994E+02  0.38352131187E+03  0.12500000000E+03 0.  0.
         25    1    1    2    0    0  0.14980698967E+03  0.15886082794E+03 -0.47919990813E+03  0.54123603794E+03  0.12500000000E+03 0.  0.
</event>
<event>
 5    0  0.5576108E-005  0.3262697E+03  0.7546771E-02  0.1072799E+00
         21   -1    0    0  502  501  0.00000000000E+00  0.00000000000E+00  0.10943930489E+03  0.10943930489E+03  0.00000000000E+00 0.  1.
         21   -1    0    0  501  502 -0.00000000000E+00 -0.00000000000E+00 -0.97270262800E+03  0.97270262800E+03  0.00000000000E+00 0.  1.
         25    1    1    2    0    0  0.87594057325E+02  0.10039757220E+03 -0.24739282721E+03  0.30753959475E+03  0.12500000000E+03 0.  0.
         25    1    1    2    0    0  0.51081128884E+02 -0.20277101353E+02 -0.11538584800E+02  0.13703496454E+03  0.12500000000E+03 0.  0.
         25    1    1    2    0    0 -0.13867518621E+03 -0.80120470843E+02 -0.60433191109E+03  0.63756737360E+03  0.12500000000E+03 0.  0.
</event>
<event>
 5    0  0.5576108E-005  0.2313179E+03  0.7546771E-02  0.1125716E+00
         21   -1    0    0  502  501  0.00000000000E+00  0.00000000000E+00  0.47395269660E+03  0.47395269660E+03  0.00000000000E+00 0.  1.
         21   -1    0    0  501  502 -0.00000000000E+00 -0.00000000000E+00 -0.11289725457E+03  0.11289725457E+03  0.00000000000E+00 0.  1.
         25    1    1    2    0    0  0.12178975536E+03 -0.19329676293E+02  0.15582309690E+03  0.23475991656E+03  0.12500000000E+03 0.  0.
         25    1    1    2    0    0 -0.51724435115E+02  0.55437496916E+01  0.13758023482E+03  0.19302712597E+03  0.12500000000E+03 0.  0.
         25    1    1    2    0    0 -0.70065320243E+02  0.13785926601E+02  0.67652110312E+02  0.15906290863E+03  0.12500000000E+03 0.  0.
</event>
<event>
 5    0  0.5576108E-005  0.3493285E+03  0.7546771E-02  0.1062891E+00
         21   -1    0    0  502  501  0.00000000000E+00  0.00000000000E+00  0.25036853351E+03  0.25036853351E+03  0.00000000000E+00 0. -1.
         21   -1    0    0  501  502 -0.00000000000E+00 -0.00000000000E+00 -0.48740301191E+03  0.48740301191E+03  0.00000000000E+00 0. -1.
         25    1    1    2    0    0 -0.11844562906E+03  0.46890942200E+02  0.58566812563E+02  0.18783822571E+03  0.12500000000E+03 0.  0.
         25    1    1    2    0    0 -0.64567179980E+01 -0.16835971594E+03 -0.35390187982E+02  0.21275372750E+03  0.12500000000E+03 0.  0.
         25    1    1    2    0    0  0.12490234705E+03  0.12146877374E+03 -0.26021110298E+03  0.33717959222E+03  0.12500000000E+03 0.  0.
</event>
<event>
 5    0  0.5576108E-005  0.2853228E+03  0.7546771E-02  0.1092817E+00
         21   -1    0    0  502  501  0.00000000000E+00  0.00000000000E+00  0.47412215118E+02  0.47412215118E+02  0.00000000000E+00 0. -1.
         21   -1    0    0  501  502 -0.00000000000E+00 -0.00000000000E+00 -0.17170485811E+04  0.17170485811E+04  0.00000000000E+00 0. -1.
         25    1    1    2    0    0  0.33819944442E+01  0.16600484828E+03 -0.66054305644E+03  0.69246745551E+03  0.12500000000E+03 0.  0.
         25    1    1    2    0    0  0.45901275749E+02 -0.52142971803E+01 -0.57130701124E+03  0.58664368836E+03  0.12500000000E+03 0.  0.
         25    1    1    2    0    0 -0.49283270193E+02 -0.16079055110E+03 -0.43778629834E+03  0.48534965237E+03  0.12500000000E+03 0.  0.
</event>
<event>
 5    0  0.5576108E-005  0.3769711E+03  0.7546771E-02  0.1052059E+00
         21   -1    0    0  502  501  0.00000000000E+00  0.00000000000E+00  0.46063519158E+03  0.46063519158E+03  0.00000000000E+00 0.  1.
         21   -1    0    0  501  502 -0.00000000000E+00 -0.00000000000E+00 -0.30850265089E+03  0.30850265089E+03  0.00000000000E+00 0.  1.
         25    1    1    2    0    0  0.87843564077E+01 -0.15273381898E+03  0.26617407646E+03  0.33147914468E+03  0.12500000000E+03 0.  0.
         25    1    1    2    0    0  0.34264565323E+01  0.99725706814E+02 -0.21503856518E+03  0.26799914499E+03  0.12500000000E+03 0.  0.
         25    1    1    2    0    0 -0.12210812940E+02  0.53008112170E+02  0.10099702941E+03  0.16965955280E+03  0.12500000000E+03 0.  0.
</event>
<event>
 5    0  0.5576108E-005  0.2671213E+03  0.7546771E-02  0.1102939E+00
         21   -1    0    0  502  501  0.00000000000E+00  0.00000000000E+00  0.87968840391E+03  0.87968840391E+03  0.00000000000E+00 0. -1.
         21   -1    0    0  501  502 -0.00000000000E+00 -0.00000000000E+00 -0.81112568711E+02  0.81112568711E+02  0.00000000000E+00 0. -1.
         25    1    1    2    0    0  0.26287361356E+02 -0.91362425456E+02  0.58767007532E+03  0.60829206438E+03  0.12500000000E+03 0.  0.
         25    1    1    2    0    0  0.17681918806E+02  0.61820507985E+02  0.70702904578E+02  0.15734778732E+03  0.12500000000E+03 0.  0.
         25    1    1    2    0    0 -0.43969280162E+02  0.29541917472E+02  0.14020285530E+03  0.19516112092E+03  0.12500000000E+03 0.  0.
</event>
<event>
 5    0  0.5576108E-005  0.4271592E+03  0.7546771E-02  0.1034761E+00
         21   -1    0    0  502  501  0.00000000000E+00  0.00000000000E+00  0.26772872311E+04  0.26772872311E+04  0.00000000000E+00 0.  1.
         21   -1    0    0  501  502 -0.00000000000E+00 -0.00000000000E+00 -0.68152935402E+02  0.68152935402E+02  0.00000000000E+00 0.  1.
         25    1    1    2    0    0  0.26277284606E+03  0.10598288313E+03  0.81174162334E+03  0.86881033788E+03  0.12500000000E+03 0.  0.
         25    1    1    2    0    0 -0.30041043501E+03 -0.18541218941E+03  0.14407969177E+04  0.14886721827E+04  0.12500000000E+03 0.  0.
         25    1    1    2    0    0  0.37637588956E+02  0.79429306282E+02  0.35659575461E+03  0.38795764589E+03  0.12500000000E+03 0.  0.
</event>
<event>
 5    0  0.5699853E-005  0.3462683E+03  0.7546771E-02  0.1064157E+00
         21   -1    0    0  502  501  0.00000000000E+00  0.00000000000E+00  0.13193063759E+04  0.13193063759E+04  0.00000000000E+00 0.  1.
         21   -1    0    0  501  502 -0.00000000000E+00 -0.00000000000E+00 -0.90882395179E+02  0.90882395179E+02  0.00000000000E+00 0.  1.
         25    1    1    2    0    0  0.17050513155E+03 -0.77981335324E+01  0.38808517869E+03  0.44200443062E+03  0.12500000000E+03 0.  0.
         25    1    1    2    0    0 -0.22499312041E+02  0.99610685493E+02  0.68416515908E+03  0.70294770261E+03  0.12500000000E+03 0.  0.
         25    1    1    2    0    0 -0.14800581950E+03 -0.91812551960E+02  0.15617364296E+03  0.26523663785E+03  0.12500000000E+03 0.  0.
</event>
<event>
 5    0  0.5576108E-005  0.3687126E+03  0.7546771E-02  0.1055186E+00
         21   -1    0    0  502  501  0.00000000000E+00  0.00000000000E+00  0.25956027400E+03  0.25956027400E+03  0.00000000000E+00 0.  1.
         21   -1    0    0  501  502 -0.00000000000E+00 -0.00000000000E+00 -0.52376638754E+03  0.52376638754E+03  0.00000000000E+00 0.  1.
         25    1    1    2    0    0  0.63484583984E+02  0.53694162670E+02 -0.86299250135E+02  0.17316441922E+03  0.12500000000E+03 0.  0.
         25    1    1    2    0    0  0.11459379241E+03 -0.24070664092E+03 -0.11720719022E+03  0.31691315795E+03  0.12500000000E+03 0.  0.
         25    1    1    2    0    0 -0.17807837639E+03  0.18701247825E+03 -0.60699673189E+02  0.29324908437E+03  0.12500000000E+03 0.  0.
</event>
<event>
 5    0  0.5576108E-005  0.4110799E+03  0.7546771E-02  0.1040009E+00
         21   -1    0    0  502  501  0.00000000000E+00  0.00000000000E+00  0.58638430213E+03  0.58638430213E+03  0.00000000000E+00 0. -1.
         21   -1    0    0  501  502 -0.00000000000E+00 -0.00000000000E+00 -0.28818421695E+03  0.28818421695E+03  0.00000000000E+00 0. -1.
         25    1    1    2    0    0  0.16281028026E+03  0.19152944386E+02 -0.30842818807E+02  0.20844736052E+03  0.12500000000E+03 0.  0.
         25    1    1    2    0    0 -0.87953816920E+02 -0.65519884428E+02  0.44445954137E+03  0.47455032724E+03  0.12500000000E+03 0.  0.
         25    1    1    2    0    0 -0.74856463336E+02  0.46366940042E+02 -0.11541663738E+03  0.19157083133E+03  0.12500000000E+03 0.  0.
</event>
<event>
 5    0  0.5576108E-005  0.2791329E+03  0.7546771E-02  0.1096163E+00
         21   -1    0    0  502  501  0.00000000000E+00  0.00000000000E+00  0.68374242357E+03  0.68374242357E+03  0.00000000000E+00 0.  1.
         21   -1    0    0  501  502 -0.00000000000E+00 -0.00000000000E+00 -0.11395401549E+03  0.11395401549E+03  0.00000000000E+00 0.  1.
         25    1    1    2    0    0 -0.11121658345E+03  0.19419810497E+01  0.20477239885E+03  0.26444212042E+03  0.12500000000E+03 0.  0.
         25    1    1    2    0    0  0.21779589915E+02 -0.56638704527E+02  0.61974953620E+01  0.13908882894E+03  0.12500000000E+03 0.  0.
         25    1    1    2    0    0  0.89436993533E+02  0.54696723477E+02  0.35881851387E+03  0.39416548969E+03  0.12500000000E+03 0.  0.
</event>
<event>
 5    0  0.5576108E-005  0.3720239E+03  0.7546771E-02  0.1053922E+00
         21   -1    0    0  502  501  0.00000000000E+00  0.00000000000E+00  0.50265203351E+03  0.50265203351E+03  0.00000000000E+00 0. -1.
         21   -1    0    0  501  502 -0.00000000000E+00 -0.00000000000E+00 -0.27534318891E+03  0.27534318891E+03  0.00000000000E+00 0. -1.
         25    1    1    2    0    0 -0.17912058001E+02  0.84817550431E+01  0.13168996927E+03  0.18264728303E+03  0.12500000000E+03 0.  0.
         25    1    1    2    0    0 -0.12024020893E+03  0.19524083526E+03  0.16727253973E+03  0.31013189798E+03  0.12500000000E+03 0.  0.
         25    1    1    2    0    0  0.13815226693E+03 -0.20372259031E+03 -0.71653664406E+02  0.28521604142E+03  0.12500000000E+03 0.  0.
</event>
<event>
 5    0  0.5576108E-005  0.4050205E+03  0.7546771E-02  0.1042055E+00
         21   -1    0    0  502  501  0.00000000000E+00  0.00000000000E+00  0.11569321888E+04  0.11569321888E+04  0.00000000000E+00 0. -1.
         21   -1    0    0  501  502 -0.00000000000E+00 -0.00000000000E+00 -0.14179013190E+03  0.14179013190E+03  0.00000000000E+00 0.  1.
         25    1    1    2    0    0  0.69802414952E+02  0.75125030628E+02  0.18896220909E+03  0.24869230753E+03  0.12500000000E+03 0.  0.
         25    1    1    2    0    0  0.84671989215E+02 -0.30729500691E+03  0.42792598870E+03  0.54803760714E+03  0.12500000000E+03 0.  0.
         25    1    1    2    0    0 -0.15447440417E+03  0.23216997628E+03  0.39825385913E+03  0.50199240606E+03  0.12500000000E+03 0.  0.
</event>
<event>
 5    0  0.5576108E-005  0.2716345E+03  0.7546771E-02  0.1100348E+00
         21   -1    0    0  502  501  0.00000000000E+00  0.00000000000E+00  0.76935924932E+03  0.76935924932E+03  0.00000000000E+00 0.  1.
         21   -1    0    0  501  502 -0.00000000000E+00 -0.00000000000E+00 -0.95904860750E+02  0.95904860750E+02  0.00000000000E+00 0.  1.
         25    1    1    2    0    0 -0.40039403201E+02 -0.53968652735E+02  0.23022530551E+03  0.27045232590E+03  0.12500000000E+03 0.  0.
         25    1    1    2    0    0  0.54906922682E+02 -0.10691901421E+03  0.29581178550E+03  0.34289365435E+03  0.12500000000E+03 0.  0.
         25    1    1    2    0    0 -0.14867519480E+02  0.16088766694E+03  0.14741729756E+03  0.25191812982E+03  0.12500000000E+03 0.  0.
</event>
<event>
 5    0  0.5576108E-005  0.3345417E+03  0.7546771E-02  0.1069145E+00
         21   -1    0    0  502  501  0.00000000000E+00  0.00000000000E+00  0.28397113973E+03  0.28397113973E+03  0.00000000000E+00 0.  1.
         21   -1    0    0  501  502 -0.00000000000E+00 -0.00000000000E+00 -0.39411797354E+03  0.39411797354E+03  0.00000000000E+00 0.  1.
         25    1    1    2    0    0  0.16492136281E+02  0.50710463022E+02  0.20569123680E+03  0.24653078208E+03  0.12500000000E+03 0.  0.
         25    1    1    2    0    0  0.27066924519E+02  0.37208665129E+02 -0.16911501195E+03  0.21527189884E+03  0.12500000000E+03 0.  0.
         25    1    1    2    0    0 -0.43559060799E+02 -0.87919128151E+02 -0.14672305866E+03  0.21628643234E+03  0.12500000000E+03 0.  0.
</event>
<event>
 5    0  0.5635739E-005  0.3102206E+03  0.7546771E-02  0.1080240E+00
         21   -1    0    0  502  501  0.00000000000E+00  0.00000000000E+00  0.40126458149E+03  0.40126458149E+03  0.00000000000E+00 0.  1.
         21   -1    0    0  501  502 -0.00000000000E+00 -0.00000000000E+00 -0.23983379605E+03  0.23983379605E+03  0.00000000000E+00 0.  1.
         25    1    1    2    0    0 -0.28479673466E+02 -0.88033261144E+02  0.17015919318E+03  0.23052136103E+03  0.12500000000E+03 0.  0.
         25    1    1    2    0    0 -0.57210824199E+02  0.48976954584E+02  0.13447429752E+03  0.19844434277E+03  0.12500000000E+03 0.  0.
         25    1    1    2    0    0  0.85690497665E+02  0.39056306560E+02 -0.14320270526E+03  0.21213267374E+03  0.12500000000E+03 0.  0.
</event>
<event>
 5    0  0.5576108E-005  0.3060445E+03  0.7546771E-02  0.1082257E+00
         21   -1    0    0  502  501  0.00000000000E+00  0.00000000000E+00  0.25970134965E+04  0.25970134965E+04  0.00000000000E+00 0. -1.
         21   -1    0    0  501  502 -0.00000000000E+00 -0.00000000000E+00 -0.36065757547E+02  0.36065757547E+02  0.00000000000E+00 0. -1.
         25    1    1    2    0    0 -0.15936948747E+02 -0.16393984646E+03  0.99369848731E+03  0.10149837158E+04  0.12500000000E+03 0.  0.
         25    1    1    2    0    0 -0.89283368072E+02 -0.18660927445E+02  0.51821853001E+03  0.54082824896E+03  0.12500000000E+03 0.  0.
         25    1    1    2    0    0  0.10522031682E+03  0.18260077391E+03  0.10490307216E+04  0.10772672893E+04  0.12500000000E+03 0.  0.
</event>
<event>
 5    0  0.5576108E-005  0.2496995E+03  0.7546771E-02  0.1113495E+00
         21   -1    0    0  502  501  0.00000000000E+00  0.00000000000E+00  0.30218797098E+02  0.30218797098E+02  0.00000000000E+00 0. -1.
         21   -1    0    0  501  502 -0.00000000000E+00 -0.00000000000E+00 -0.20632794054E+04  0.20632794054E+04  0.00000000000E+00 0.  1.
         25    1    1    2    0    0  0.87039778466E+02  0.92464932797E+02 -0.46897605968E+03  0.50168638748E+03  0.12500000000E+03 0.  0.
         25    1    1    2    0    0 -0.89748635111E+02 -0.33745964208E+02 -0.85783384296E+03  0.87217974623E+03  0.12500000000E+03 0.  0.
         25    1    1    2    0    0  0.27088566453E+01 -0.58718968588E+02 -0.70625070563E+03  0.71963206876E+03  0.12500000000E+03 0.  0.
</event>
<event>
 5    0  0.5576108E-005  0.3201108E+03  0.7546771E-02  0.1075598E+00
         21   -1    0    0  502  501  0.00000000000E+00  0.00000000000E+00  0.12271434608E+04  0.12271434608E+04  0.00000000000E+00 0. -1.
         21   -1    0    0  501  502 -0.00000000000E+00 -0.00000000000E+00 -0.83503601529E+02  0.83503601529E+02  0.00000000000E+00 0. -1.
         25    1    1    2    0    0 -0.72222065493E+02 -0.15867303643E+03  0.49814816669E+03  0.54237418376E+03  0.12500000000E+03 0.  0.
         25    1    1    2    0    0 -0.10041787176E+03  0.74822767026E+02  0.19778233826E+03  0.26537718207E+03  0.12500000000E+03 0.  0.
         25    1    1    2    0    0  0.17263993725E+03  0.83850269406E+02  0.44770935436E+03  0.50289569654E+03  0.12500000000E+03 0.  0.
</event>
<event>
 5    0  0.5576108E-005  0.2570735E+03  0.7546771E-02  0.1108914E+00
         21   -1    0    0  502  501  0.00000000000E+00  0.00000000000E+00  0.12594635667E+03  0.12594635667E+03  0.00000000000E+00 0.  1.
         21   -1    0    0  501  502 -0.00000000000E+00 -0.00000000000E+00 -0.52472157849E+03  0.52472157849E+03  0.00000000000E+00 0.  1.
         25    1    1    2    0    0 -0.49641102784E+02 -0.15060495223E+03 -0.13927324791E+03  0.24529192466E+03  0.12500000000E+03 0.  0.
         25    1    1    2    0    0  0.42632115549E+02  0.10785512255E+03 -0.19223693902E+03  0.25696354889E+03  0.12500000000E+03 0.  0.
         25    1    1    2    0    0  0.70089872349E+01  0.42749829679E+02 -0.67265034894E+02  0.14841246160E+03  0.12500000000E+03 0.  0.
</event>
<event>
 5    0  0.5576108E-005  0.2844672E+03  0.7546771E-02  0.1093274E+00
         21   -1    0    0  502  501  0.00000000000E+00  0.00000000000E+00  0.12262929906E+03  0.12262929906E+03  0.00000000000E+00 0. -1.
         21   -1    0    0  501  502 -0.00000000000E+00 -0.00000000000E+00 -0.65988765611E+03  0.65988765611E+03  0.00000000000E+00 0. -1.
         25    1    1    2    0    0  0.64692642352E+02  0.41606934116E+02  0.10012492948E+02  0.14711058750E+03  0.12500000000E+03 0.  0.
         25    1    1    2    0    0  0.60819838824E+01  0.57408855645E+02 -0.32409536655E+03  0.35213005247E+03  0.12500000000E+03 0.  0.
         25    1    1    2    0    0 -0.70774626234E+02 -0.99015789761E+02 -0.22317548345E+03  0.28327631520E+03  0.12500000000E+03 0.  0.
</event>
<event>
 5    0  0.5932683E-005  0.3037927E+03  0.7546771E-02  0.1083360E+00
         21   -1    0    0  502  501  0.00000000000E+00  0.00000000000E+00  0.55891196740E+03  0.55891196740E+03  0.00000000000E+00 0. -1.
         21   -1    0    0  501  502 -0.00000000000E+00 -0.00000000000E+00 -0.16512441451E+03  0.16512441451E+03  0.00000000000E+00 0. -1.
         25    1    1    2    0    0 -0.22692804770E+02  0.10220864756E+03  0.17045846306E+03  0.23588696160E+03  0.12500000000E+03 0.  0.
         25    1    1    2    0    0 -0.46809510989E+01 -0.21632864084E+03  0.18893712476E+03  0.31327660185E+03  0.12500000000E+03 0.  0.
         25    1    1    2    0    0  0.27373755869E+02  0.11411999328E+03  0.34391965065E+02  0.17487281846E+03  0.12500000000E+03 0.  0.
</event>
<event>
 5    0  0.5576108E-005  0.3521459E+03  0.7546771E-02  0.1061738E+00
         21   -1    0    0  502  501  0.00000000000E+00  0.00000000000E+00  0.11959875738E+04  0.11959875738E+04  0.00000000000E+00 0.  1.
         21   -1    0    0  501  502 -0.00000000000E+00 -0.00000000000E+00 -0.10368561102E+03  0.10368561102E+03  0.00000000000E+00 0.  1.
         25    1    1    2    0    0  0.14231885890E+02  0.14539429768E+03  0.32644760878E+03  0.37886025082E+03  0.12500000000E+03 0.  0.
         25    1    1    2    0    0  0.16825229119E+03 -0.10780234278E+03  0.18984107583E+03  0.30264634918E+03  0.12500000000E+03 0.  0.
         25    1    1    2    0    0 -0.18248417708E+03 -0.37591954905E+02  0.57601327815E+03  0.61816658480E+03  0.12500000000E+03 0.  0.
</event>
<event>
 5    0  0.5576108E-005  0.2748606E+03  0.7546771E-02  0.1098530E+00
         21   -1    0    0  502  501  0.00000000000E+00  0.00000000000E+00  0.39479546058E+02  0.39479546058E+02  0.00000000000E+00 0. -1.
         21   -1    0    0  501  502 -0.00000000000E+00 -0.00000000000E+00 -0.19136072306E+04  0.19136072306E+04  0.00000000000E+00 0. -1.
         25    1    1    2    0    0  0.98753035353E+02 -0.64305357466E+02 -0.43103770852E+03  0.46401061104E+03  0.12500000000E+03 0.  0.
         25    1    1    2    0    0 -0.10626265748E+03  0.23990688797E+02 -0.34113133584E+03  0.37929262293E+03  0.12500000000E+03 0.  0.
         25    1    1    2    0    0  0.75096221254E+01  0.40314668668E+02 -0.11019586401E+04  0.11097835426E+04  0.12500000000E+03 0.  0.
</event>
<event>
 5    0  0.5576108E-005  0.3861970E+03  0.7546771E-02  0.1048667E+00
         21   -1    0    0  502  501  0.00000000000E+00  0.00000000000E+00  0.61500927153E+03  0.61500927153E+03  0.00000000000E+00 0. -1.
         21   -1    0    0  501  502 -0.00000000000E+00 -0.00000000000E+00 -0.24251359324E+03  0.24251359324E+03  0.00000000000E+00 0. -1.
         25    1    1    2    0    0 -0.20187893464E+03 -0.25827459104E+03  0.19903545803E+03  0.40336209810E+03  0.12500000000E+03 0.  0.
         25    1    1    2    0    0  0.60963306856E+02  0.11302511043E+03  0.99940583632E+02  0.20519337374E+03  0.12500000000E+03 0.  0.
         25    1    1    2    0    0  0.14091562778E+03  0.14524948062E+03  0.73519636633E+02  0.24896739293E+03  0.12500000000E+03 0.  0.
</event>
<event>
 5    0  0.5576108E-005  0.3313024E+03  0.7546771E-02  0.1070562E+00
         21   -1    0    0  502  501  0.00000000000E+00  0.00000000000E+00  0.10906397738E+04  0.10906397738E+04  0.00000000000E+00 0. -1.
         21   -1    0    0  501  502 -0.00000000000E+00 -0.00000000000E+00 -0.10063934750E+03  0.10063934750E+03  0.00000000000E+00 0. -1.
         25    1    1    2    0    0 -0.86921675562E+02 -0.10999333120E+03  0.71425508617E+03  0.73853858309E+03  0.12500000000E+03 0.  0.
         25    1    1    2    0    0 -0.87052560529E+01  0.14847579959E+03  0.17815160593E+03  0.26359787412E+03  0.12500000000E+03 0.  0.
         25    1    1    2    0    0  0.95626931615E+02 -0.38482468385E+02  0.97593734217E+02  0.18914266410E+03  0.12500000000E+03 0.  0.
</event>
<event>
 5    0  0.5576108E-005  0.8395051E+03  0.7546771E-02  0.9504532E-01
         21   -1    0    0  502  501  0.00000000000E+00  0.00000000000E+00  0.48621273570E+03  0.48621273570E+03  0.00000000000E+00 0. -1.
         21   -1    0    0  501  502 -0.00000000000E+00 -0.00000000000E+00 -0.14495072236E+04  0.14495072236E+04  0.00000000000E+00 0. -1.
         25    1    1    2    0    0 -0.87472168415E+02 -0.43435695279E+03 -0.58921729134E+02  0.46412725933E+03  0.12500000000E+03 0.  0.
         25    1    1    2    0    0  0.86010147456E+02  0.77033971774E+03 -0.49828270371E+03  0.92990950044E+03  0.12500000000E+03 0.  0.
         25    1    1    2    0    0  0.14620209588E+01 -0.33598276495E+03 -0.40609005507E+03  0.54168319955E+03  0.12500000000E+03 0.  0.
</event>
<event>
 5    0  0.5576108E-005  0.3067606E+03  0.7546771E-02  0.1081909E+00
         21   -1    0    0  502  501  0.00000000000E+00  0.00000000000E+00  0.42806273793E+03  0.42806273793E+03  0.00000000000E+00 0. -1.
         21   -1    0    0  501  502 -0.00000000000E+00 -0.00000000000E+00 -0.21983234622E+03  0.21983234622E+03  0.00000000000E+00 0. -1.
         25    1    1    2    0    0  0.56058210999E+02  0.20429366031E+02  0.99571194686E+02  0.17058518350E+03  0.12500000000E+03 0.  0.
         25    1    1    2    0    0  0.12719368470E+03 -0.36803573908E+02 -0.66850535016E+02  0.19397610810E+03  0.12500000000E+03 0.  0.
         25    1    1    2    0    0 -0.18325189570E+03  0.16374207878E+02  0.17550973204E+03  0.28333379255E+03  0.12500000000E+03 0.  0.
</event>
<event>
 5    0  0.5576108E-005  0.4888684E+03  0.7546771E-02  0.1016726E+00
         21   -1    0    0  502  501  0.00000000000E+00  0.00000000000E+00  0.30621721710E+03  0.30621721710E+03  0.00000000000E+00 0. -1.
         21   -1    0    0  501  502 -0.00000000000E+00 -0.00000000000E+00 -0.78046645950E+03  0.78046645950E+03  0.00000000000E+00 0. -1.
         25    1    1    2    0    0 -0.39200550491E+02  0.57599029982E+02 -0.71890870012E+02  0.16014877023E+03  0.12500000000E+03 0.  0.
         25    1    1    2    0    0  0.36102734959E+03  0.71879994781E+02 -0.40000589290E+03  0.55779673283E+03  0.12500000000E+03 0.  0.
         25    1    1    2    0    0 -0.32182679910E+03 -0.12947902476E+03 -0.23524794853E+01  0.36873817355E+03  0.12500000000E+03 0.  0.
</event>
<event>
 5    0  0.5576108E-005  0.2889212E+03  0.7546771E-02  0.1090914E+00
         21   -1    0    0  502  501  0.00000000000E+00  0.00000000000E+00  0.22755780565E+03  0.22755780565E+03  0.00000000000E+00 0.  1.
         21   -1    0    0  501  502 -0.00000000000E+00 -0.00000000000E+00 -0.36683179814E+03  0.36683179814E+03  0.00000000000E+00 0.  1.
         25    1    1    2    0    0 -0.59280027677E+02  0.15697924642E+03  0.89066710358E+01  0.20943002238E+03  0.12500000000E+03 0.  0.
         25    1    1    2    0    0  0.17367004147E+02 -0.17927202709E+03 -0.11325397338E+03  0.24676210207E+03  0.12500000000E+03 0.  0.
         25    1    1    2    0    0  0.41913023530E+02  0.22292780677E+02 -0.34926690137E+02  0.13819747934E+03  0.12500000000E+03 0.  0.
</event>
<event>
 5    0  0.5576108E-005  0.4649644E+03  0.7546771E-02  0.1023351E+00
         21   -1    0    0  502  501  0.00000000000E+00  0.00000000000E+00  0.12094202385E+04  0.12094202385E+04  0.00000000000E+00 0.  1.
         21   -1    0    0  501  502 -0.00000000000E+00 -0.00000000000E+00 -0.17875664285E+03  0.17875664285E+03  0.00000000000E+00 0.  1.
         25    1    1    2    0    0  0.54011267875E+02 -0.14757128802E+02 -0.62734731420E+01  0.13711070846E+03  0.12500000000E+03 0.  0.
         25    1    1    2    0    0 -0.29195117949E+03 -0.10784330501E+03  0.27452799713E+03  0.43342391587E+03  0.12500000000E+03 0.  0.
         25    1    1    2    0    0  0.23793991162E+03  0.12260043381E+03  0.76240907167E+03  0.81764225703E+03  0.12500000000E+03 0.  0.
</event>
<event>
 5    0  0.5576108E-005  0.4237245E+03  0.7546771E-02  0.1035861E+00
         21   -1    0    0  502  501  0.00000000000E+00  0.00000000000E+00  0.81563264760E+03  0.81563264760E+03  0.00000000000E+00 0.  1.
         21   -1    0    0  501  502 -0.00000000000E+00 -0.00000000000E+00 -0.22012657133E+03  0.22012657133E+03  0.00000000000E+00 0. -1.
         25    1    1    2    0    0  0.55003303325E+02 -0.28645689609E+03  0.21250804475E+03  0.38192615225E+03  0.12500000000E+03 0.  0.
         25    1    1    2    0    0 -0.13947757480E+03  0.32300803238E+03  0.24926079553E+03  0.44893666262E+03  0.12500000000E+03 0.  0.
         25    1    1    2    0    0  0.84474271475E+02 -0.36551136289E+02  0.13373723599E+03  0.20489640406E+03  0.12500000000E+03 0.  0.
</event>
<event>
 5    0  0.5576108E-005  0.2368364E+03  0.7546771E-02  0.1121918E+00
         21   -1    0    0  502  501  0.00000000000E+00  0.00000000000E+00  0.75838780681E+03  0.75838780681E+03  0.00000000000E+00 0. -1.
         21   -1    0    0  501  502 -0.00000000000E+00 -0.00000000000E+00 -0.73961492537E+02  0.73961492537E+02  0.00000000000E+00 0. -1.
         25    1    1    2    0    0 -0.34429163951E+02 -0.74298220724E+02  0.27748659616E+03  0.31516567704E+03  0.12500000000E+03 0.  0.
         25    1    1    2    0    0 -0.27115656020E+01  0.33372873851E+01  0.57784422210E+02  0.13777710087E+03  0.12500000000E+03 0.  0.
         25    1    1    2    0    0  0.37140729553E+02  0.70960933339E+02  0.34915529590E+03  0.37940652144E+03  0.12500000000E+03 0.  0.
</event>
<event>
 5    0  0.5576108E-005  0.2825572E+03  0.7546771E-02  0.1094300E+00
         21   -1    0    0  502  501  0.00000000000E+00  0.00000000000E+00  0.19156613723E+03  0.19156613723E+03  0.00000000000E+00 0.  1.
         21   -1    0    0  501  502 -0.00000000000E+00 -0.00000000000E+00 -0.41676762164E+03  0.41676762164E+03  0.00000000000E+00 0.  1.
         25    1    1    2    0    0 -0.91275043163E+02  0.52047323677E+02  0.49040411604E+02  0.17049932368E+03  0.12500000000E+03 0.  0.
         25    1    1    2    0    0  0.65545305231E+02  0.76102395306E+02 -0.13410947447E+03  0.20904093559E+03  0.12500000000E+03 0.  0.
         25    1    1    2    0    0  0.25729737932E+02 -0.12814971898E+03 -0.14013242154E+03  0.22879349959E+03  0.12500000000E+03 0.  0.
</event>
<event>
 5    0  0.5576108E-005  0.2708482E+03  0.7546771E-02  0.1100795E+00
         21   -1    0    0  502  501  0.00000000000E+00  0.00000000000E+00  0.11742302617E+04  0.11742302617E+04  0.00000000000E+00 0. -1.
         21   -1    0    0  501  502 -0.00000000000E+00 -0.00000000000E+00 -0.62473898834E+02  0.62473898834E+02  0.00000000000E+00 0. -1.
         25    1    1    2    0    0  0.25897871197E+02 -0.16015311636E+03  0.32845332394E+03  0.38707403222E+03  0.12500000000E+03 0.  0.
         25    1    1    2    0    0  0.55241525705E+02  0.91587826366E+02  0.36777478477E+03  0.40289359441E+03  0.12500000000E+03 0.  0.
         25    1    1    2    0    0 -0.81139396902E+02  0.68565289996E+02  0.41552825412E+03  0.44673653387E+03  0.12500000000E+03 0.  0.
</event>
<event>
 5    0  0.5576108E-005  0.3452682E+03  0.7546771E-02  0.1064574E+00
         21   -1    0    0  502  501  0.00000000000E+00  0.00000000000E+00  0.11357747057E+03  0.11357747057E+03  0.00000000000E+00 0.  1.
         21   -1    0    0  501  502 -0.00000000000E+00 -0.00000000000E+00 -0.10495928656E+04  0.10495928656E+04  0.00000000000E+00 0.  1.
         25    1    1    2    0    0 -0.15459406898E+03 -0.14428701527E+03 -0.67768381926E+03  0.72083176111E+03  0.12500000000E+03 0.  0.
         25    1    1    2    0    0  0.53646067980E+01  0.91861215482E+02 -0.13708796393E+03  0.20708783588E+03  0.12500000000E+03 0.  0.
         25    1    1    2    0    0  0.14922946218E+03  0.52425799792E+02 -0.12124361184E+03  0.23525073917E+03  0.12500000000E+03 0.  0.
</event>
<event>
 5    0  0.5576108E-005  0.4003408E+03  0.7546771E-02  0.1043662E+00
         21   -1    0    0  502  501  0.00000000000E+00  0.00000000000E+00  0.12216358314E+03  0.12216358314E+03  0.00000000000E+00 0.  1.
         21   -1    0    0  501  502 -0.00000000000E+00 -0.00000000000E+00 -0.13119517656E+04  0.13119517656E+04  0.00000000000E+00 0.  1.
         25    1    1    2    0    0  0.13554959207E+03 -0.12575828572E+03 -0.23409848250E+03  0.32344387124E+03  0.12500000000E+03 0.  0.
         25    1    1    2    0    0  0.68307005165E+02  0.19719714817E+03 -0.74613342683E+03  0.78478828536E+03  0.12500000000E+03 0.  0.
         25    1    1    2    0    0 -0.20385659723E+03 -0.71438862446E+02 -0.20955627310E+03  0.32588319211E+03  0.12500000000E+03 0.  0.
</event>
<event>
 5    0  0.5576108E-005  0.2628025E+03  0.7546771E-02  0.1105471E+00
         21   -1    0    0  502  501  0.00000000000E+00  0.00000000000E+00  0.28033971756E+02  0.28033971756E+02  0.00000000000E+00 0.  1.
         21   -1    0    0  501  502 -0.00000000000E+00 -0.00000000000E+00 -0.24636235964E+04  0.24636235964E+04  0.00000000000E+00 0.  1.
         25    1    1    2    0    0  0.59951338537E+02 -0.13669068022E+03 -0.64468063088E+03  0.67343642675E+03  0.12500000000E+03 0.  0.
         25    1    1    2    0    0  0.17983173367E+02  0.31888296184E+02 -0.63037750442E+03  0.64369329346E+03  0.12500000000E+03 0.  0.
         25    1    1    2    0    0 -0.77934511903E+02  0.10480238403E+03 -0.11605314893E+04  0.11745278479E+04  0.12500000000E+03 0.  0.
</event>
<event>
 5    0  0.5685489E-005  0.2678091E+03  0.7546771E-02  0.1102540E+00
         21   -1    0    0  502  501  0.00000000000E+00  0.00000000000E+00  0.62749251251E+03  0.62749251251E+03  0.00000000000E+00 0.  1.
         21   -1    0    0  501  502 -0.00000000000E+00 -0.00000000000E+00 -0.11429887816E+03  0.11429887816E+03  0.00000000000E+00 0.  1.
         25    1    1    2    0    0  0.10915136257E+02  0.20636697375E+02  0.29090676161E+03  0.31748505071E+03  0.12500000000E+03 0.  0.
         25    1    1    2    0    0  0.16643240325E+01 -0.14716265335E+02  0.26344534545E+03  0.29197223923E+03  0.12500000000E+03 0.  0.
         25    1    1    2    0    0 -0.12579460289E+02 -0.59204320401E+01 -0.41158472711E+02  0.13233410072E+03  0.12500000000E+03 0.  0.
</event>
<event>
 5    0  0.5576108E-005  0.2893690E+03  0.7546771E-02  0.1090679E+00
         21   -1    0    0  502  501  0.00000000000E+00  0.00000000000E+00  0.72427202860E+02  0.72427202860E+02  0.00000000000E+00 0. -1.
         21   -1    0    0  501  502 -0.00000000000E+00 -0.00000000000E+00 -0.11561181085E+04  0.11561181085E+04  0.00000000000E+00 0. -1.
         25    1    1    2    0    0  0.15519326073E+03 -0.13596472685E+02 -0.17922125028E+03  0.26835623488E+03  0.12500000000E+03 0.  0.
         25    1    1    2    0    0 -0.16295933437E+02  0.37951524818E+02 -0.42874870869E+03  0.44850454946E+03  0.12500000000E+03 0.  0.
         25    1    1    2    0    0 -0.13889732729E+03 -0.24355052134E+02 -0.47572094669E+03  0.51168452705E+03  0.12500000000E+03 0.  0.
</event>
<event>
 5    0  0.5576108E-005  0.4486894E+03  0.7546771E-02  0.1028114E+00
         21   -1    0    0  502  501  0.00000000000E+00  0.00000000000E+00  0.10071570507E+03  0.10071570507E+03  0.00000000000E+00 0. -1.
         21   -1    0    0  501  502 -0.00000000000E+00 -0.00000000000E+00 -0.19989155068E+04  0.19989155068E+04  0.00000000000E+00 0. -1.
         25    1    1    2    0    0 -0.20053496755E+03  0.25358043627E+03 -0.39284218894E+03  0.52389626481E+03  0.12500000000E+03 0.  0.
         25    1    1    2    0    0  0.57904209598E+02 -0.29964298694E+02 -0.79231216974E+03  0.80475731187E+03  0.12500000000E+03 0.  0.
         25    1    1    2    0    0  0.14263075795E+03 -0.22361613758E+03 -0.71304544306E+03  0.77097763519E+03  0.12500000000E+03 0.  0.
</event>
<event>
 5    0  0.5576108E-005  0.2987281E+03  0.7546771E-02  0.1085878E+00
         21   -1    0    0  502  501  0.00000000000E+00  0.00000000000E+00  0.66791656016E+03  0.66791656016E+03  0.00000000000E+00 0. -1.
         21   -1    0    0  501  502 -0.00000000000E+00 -0.00000000000E+00 -0.13360725113E+03  0.13360725113E+03  0.00000000000E+00 0. -1.
         25    1    1    2    0    0 -0.87314200101E+02  0.14518553712E+03  0.32653902595E+03  0.38852972241E+03  0.12500000000E+03 0.  0.
         25    1    1    2    0    0  0.78770174152E+02 -0.88108334120E+01  0.16740466275E+03  0.22345400474E+03  0.12500000000E+03 0.  0.
         25    1    1    2    0    0  0.85440259485E+01 -0.13637470371E+03  0.40365620324E+02  0.18954008414E+03  0.12500000000E+03 0.  0.
</event>
<event>
 5    0  0.5576108E-005  0.5242537E+03  0.7546771E-02  0.1007635E+00
         21   -1    0    0  502  501  0.00000000000E+00  0.00000000000E+00  0.42784561222E+03  0.42784561222E+03  0.00000000000E+00 0.  1.
         21   -1    0    0  501  502 -0.00000000000E+00 -0.00000000000E+00 -0.64238584804E+03  0.64238584804E+03  0.00000000000E+00 0. -1.
         25    1    1    2    0    0  0.39304558017E+03 -0.85950236214E+02 -0.48301142393E+02  0.42406399465E+03  0.12500000000E+03 0.  0.
         25    1    1    2    0    0 -0.46747407454E+02 -0.71132617303E+02  0.85093478088E+02  0.17352541417E+03  0.12500000000E+03 0.  0.
         25    1    1    2    0    0 -0.34629817272E+03  0.15708285352E+03 -0.25133257151E+03  0.47264205145E+03  0.12500000000E+03 0.  0.
</event>
<event>
 5    0  0.5576108E-005  0.3254537E+03  0.7546771E-02  0.1073166E+00
         21   -1    0    0  502  501  0.00000000000E+00  0.00000000000E+00  0.13583739391E+04  0.13583739391E+04  0.00000000000E+00 0. -1.
         21   -1    0    0  501  502 -0.00000000000E+00 -0.00000000000E+00 -0.77975682232E+02  0.77975682232E+02  0.00000000000E+00 0. -1.
         25    1    1    2    0    0  0.64950762302E+02  0.74518972007E+02  0.20362886764E+03  0.25857570351E+03  0.12500000000E+03 0.  0.
         25    1    1    2    0    0 -0.10907498733E+03 -0.69730711046E+02  0.13060420609E+03  0.22235598389E+03  0.12500000000E+03 0.  0.
         25    1    1    2    0    0  0.44124225028E+02 -0.47882609609E+01  0.94616518311E+03  0.95541793389E+03  0.12500000000E+03 0.  0.
</event>
<event>
 5    0  0.8445746E-005  0.3347823E+03  0.7546771E-02  0.1069040E+00
         21   -1    0    0  502  501  0.00000000000E+00  0.00000000000E+00  0.19459832760E+03  0.19459832760E+03  0.00000000000E+00 0.  1.
         21   -1    0    0  501  502 -0.00000000000E+00 -0.00000000000E+00 -0.57595156633E+03  0.57595156633E+03  0.00000000000E+00 0.  1.
         25    1    1    2    0    0 -0.87980155779E+02  0.11724023474E+03 -0.29821445784E+03  0.35502484887E+03  0.12500000000E+03 0.  0.
         25    1    1    2    0    0  0.52890056172E+02 -0.15182808759E+03 -0.16156005904E+03  0.25995341679E+03  0.12500000000E+03 0.  0.
         25    1    1    2    0    0  0.35090099607E+02  0.34587852851E+02  0.78421278146E+02  0.15557162827E+03  0.12500000000E+03 0.  0.
</event>
<event>
 5    0  0.5576108E-005  0.3138444E+03  0.7546771E-02  0.1078518E+00
         21   -1    0    0  502  501  0.00000000000E+00  0.00000000000E+00  0.27596417029E+04  0.27596417029E+04  0.00000000000E+00 0. -1.
         21   -1    0    0  501  502 -0.00000000000E+00 -0.00000000000E+00 -0.35692426455E+02  0.35692426455E+02  0.00000000000E+00 0. -1.
         25    1    1    2    0    0 -0.52180713744E+02  0.25777546138E+02  0.72349929820E+03  0.73652124428E+03  0.12500000000E+03 0.  0.
         25    1    1    2    0    0  0.16705554837E+03 -0.13166006748E+03  0.14946941280E+04  0.15149183033E+04  0.12500000000E+03 0.  0.
         25    1    1    2    0    0 -0.11487483463E+03  0.10588252134E+03  0.50575585025E+03  0.54389458172E+03  0.12500000000E+03 0.  0.
</event>
<event>
 5    0  0.5576108E-005  0.2866750E+03  0.7546771E-02  0.1092098E+00
         21   -1    0    0  502  501  0.00000000000E+00  0.00000000000E+00  0.15737840413E+03  0.15737840413E+03  0.00000000000E+00 0.  1.
         21   -1    0    0  501  502 -0.00000000000E+00 -0.00000000000E+00 -0.52219726294E+03  0.52219726294E+03  0.00000000000E+00 0.  1.
         25    1    1    2    0    0 -0.81166492288E+02 -0.46610599601E+02 -0.34359804386E+03  0.37741908167E+03  0.12500000000E+03 0.  0.
         25    1    1    2    0    0 -0.31326342744E+02  0.11742256768E+02 -0.28070262377E+01  0.12942990280E+03  0.12500000000E+03 0.  0.
         25    1    1    2    0    0  0.11249283503E+03  0.34868342833E+02 -0.18413788716E+02  0.17272668260E+03  0.12500000000E+03 0.  0.
</event>
<event>
 5    0  0.5576108E-005  0.3112559E+03  0.7546771E-02  0.1079745E+00
         21   -1    0    0  502  501  0.00000000000E+00  0.00000000000E+00  0.38055421124E+03  0.38055421124E+03  0.00000000000E+00 0.  1.
         21   -1    0    0  501  502 -0.00000000000E+00 -0.00000000000E+00 -0.25457669655E+03  0.25457669655E+03  0.00000000000E+00 0.  1.
         25    1    1    2    0    0 -0.15277211313E+03  0.92281653158E+02 -0.15701485264E+02  0.21846454792E+03  0.12500000000E+03 0.  0.
         25    1    1    2    0    0  0.20547940427E+03 -0.34386769329E+02  0.10500753424E+03  0.26468059569E+03  0.12500000000E+03 0.  0.
         25    1    1    2    0    0 -0.52707291141E+02 -0.57894883829E+02  0.36671465712E+02  0.15198576417E+03  0.12500000000E+03 0.  0.
</event>
<event>
 5    0  0.5576108E-005  0.2205685E+03  0.7546771E-02  0.1133460E+00
         21   -1    0    0  502  501  0.00000000000E+00  0.00000000000E+00  0.10783769486E+03  0.10783769486E+03  0.00000000000E+00 0. -1.
         21   -1    0    0  501  502 -0.00000000000E+00 -0.00000000000E+00 -0.45114507080E+03  0.45114507080E+03  0.00000000000E+00 0. -1.
         25    1    1    2    0    0 -0.57613202661E+02  0.86873412424E+01 -0.15002263456E+03  0.20378062199E+03  0.12500000000E+03 0.  0.
         25    1    1    2    0    0  0.33761820838E+02  0.37977278331E+02 -0.21902877707E+02  0.13669992783E+03  0.12500000000E+03 0.  0.
         25    1    1    2    0    0  0.23851381824E+02 -0.46664619573E+02 -0.17138186367E+03  0.21850221584E+03  0.12500000000E+03 0.  0.
</event>
<event>
 5    0  0.5576108E-005  0.4085887E+03  0.7546771E-02  0.1040846E+00
         21   -1    0    0  502  501  0.00000000000E+00  0.00000000000E+00  0.24095579233E+03  0.24095579233E+03  0.00000000000E+00 0. -1.
         21   -1    0    0  501  502 -0.00000000000E+00 -0.00000000000E+00 -0.69284366592E+03  0.69284366592E+03  0.00000000000E+00 0. -1.
         25    1    1    2    0    0  0.81713115574E+02  0.57065471459E+02 -0.52982218141E+03  0.55341670123E+03  0.12500000000E+03 0.  0.
         25    1    1    2    0    0 -0.10702175512E+03  0.65202755985E+02 -0.20414094241E+02  0.17817629107E+03  0.12500000000E+03 0.  0.
         25    1    1    2    0    0  0.25308639547E+02 -0.12226822744E+03  0.98348402064E+02  0.20220646594E+03  0.12500000000E+03 0.  0.
</event>
<event>
 5    0  0.5576108E-005  0.3104526E+03  0.7546771E-02  0.1080129E+00
         21   -1    0    0  502  501  0.00000000000E+00  0.00000000000E+00  0.40304208492E+03  0.40304208492E+03  0.00000000000E+00 0. -1.
         21   -1    0    0  501  502 -0.00000000000E+00 -0.00000000000E+00 -0.23913338828E+03  0.23913338828E+03  0.00000000000E+00 0. -1.
         25    1    1    2    0    0  0.19158818945E+02 -0.49855797052E+02 -0.23782322699E+01  0.13595336271E+03  0.12500000000E+03 0.  0.
         25    1    1    2    0    0  0.18559244512E+03  0.69282987371E+02  0.52748659479E+02  0.24010853609E+03  0.12500000000E+03 0.  0.
         25    1    1    2    0    0 -0.20475126406E+03 -0.19427190319E+02  0.11353826943E+03  0.26611357441E+03  0.12500000000E+03 0.  0.
</event>
<event>
 5    0  0.5576108E-005  0.5159748E+03  0.7546771E-02  0.1009691E+00
         21   -1    0    0  502  501  0.00000000000E+00  0.00000000000E+00  0.53234554473E+03  0.53234554473E+03  0.00000000000E+00 0.  1.
         21   -1    0    0  501  502 -0.00000000000E+00 -0.00000000000E+00 -0.50010756170E+03  0.50010756170E+03  0.00000000000E+00 0.  1.
         25    1    1    2    0    0 -0.34288760617E+03  0.20156922671E+02 -0.13139501370E+03  0.38841712324E+03  0.12500000000E+03 0.  0.
         25    1    1    2    0    0  0.39457208254E+02  0.33145288708E+02 -0.13939131876E+03  0.19419171247E+03  0.12500000000E+03 0.  0.
         25    1    1    2    0    0  0.30343039792E+03 -0.53302211378E+02  0.30302431549E+03  0.44984427072E+03  0.12500000000E+03 0.  0.
</event>
<event>
 5    0  0.5576108E-005  0.2389767E+03  0.7546771E-02  0.1120476E+00
         21   -1    0    0  502  501  0.00000000000E+00  0.00000000000E+00  0.37539112976E+03  0.37539112976E+03  0.00000000000E+00 0.  1.
         21   -1    0    0  501  502 -0.00000000000E+00 -0.00000000000E+00 -0.15213427290E+03  0.15213427290E+03  0.00000000000E+00 0.  1.
         25    1    1    2    0    0 -0.20758566295E+01 -0.10688586414E+02  0.33059845474E+02  0.12975557192E+03  0.12500000000E+03 0.  0.
         25    1    1    2    0    0  0.59970881905E+02  0.52387143394E+02  0.20512830232E+03  0.25306825143E+03  0.12500000000E+03 0.  0.
         25    1    1    2    0    0 -0.57895025276E+02 -0.41698556980E+02 -0.14931290930E+02  0.14470157931E+03  0.12500000000E+03 0.  0.
</event>
<event>
 5    0  0.5576108E-005  0.2799859E+03  0.7546771E-02  0.1095697E+00
         21   -1    0    0  502  501  0.00000000000E+00  0.00000000000E+00  0.16296705157E+04  0.16296705157E+04  0.00000000000E+00 0.  1.
         21   -1    0    0  501  502 -0.00000000000E+00 -0.00000000000E+00 -0.48103025050E+02  0.48103025050E+02  0.00000000000E+00 0.  1.
         25    1    1    2    0    0  0.87093414829E+01  0.96178774618E+02  0.68050452387E+03  0.69859689115E+03  0.12500000000E+03 0.  0.
         25    1    1    2    0    0  0.83044749953E+02  0.77433633898E+01  0.18068536415E+03  0.23500764028E+03  0.12500000000E+03 0.  0.
         25    1    1    2    0    0 -0.91754091436E+02 -0.10392213801E+03  0.72037760260E+03  0.74416900929E+03  0.12500000000E+03 0.  0.
</event>
<event>
 5    0  0.5576108E-005  0.2452158E+03  0.7546771E-02  0.1116366E+00
         21   -1    0    0  502  501  0.00000000000E+00  0.00000000000E+00  0.18472416364E+03  0.18472416364E+03  0.00000000000E+00 0.  1.
         21   -1    0    0  501  502 -0.00000000000E+00 -0.00000000000E+00 -0.32551661994E+03  0.32551661994E+03  0.00000000000E+00 0.  1.
         25    1    1    2    0    0 -0.46098659169E+02 -0.42255799685E+02  0.52179607437E+02  0.14919232694E+03  0.12500000000E+03 0.  0.
         25    1    1    2    0    0  0.39887821823E+02  0.10069527355E+03 -0.86497177946E+02  0.18664763122E+03  0.12500000000E+03 0.  0.
         25    1    1    2    0    0  0.62108373464E+01 -0.58439473869E+02 -0.10647488579E+03  0.17440082543E+03  0.12500000000E+03 0.  0.
</event>
<event>
 5    0  0.5576108E-005  0.4006036E+03  0.7546771E-02  0.1043571E+00
         21   -1    0    0  502  501  0.00000000000E+00  0.00000000000E+00  0.35502591997E+03  0.35502591997E+03  0.00000000000E+00 0. -1.
         21   -1    0    0  501  502 -0.00000000000E+00 -0.00000000000E+00 -0.45203247599E+03  0.45203247599E+03  0.00000000000E+00 0. -1.
         25    1    1    2    0    0  0.64794582769E+02 -0.29836272980E+02 -0.18445392701E+02  0.14509918557E+03  0.12500000000E+03 0.  0.
         25    1    1    2    0    0 -0.91261213907E+02  0.29286637956E+03  0.62823801969E+02  0.33715153200E+03  0.12500000000E+03 0.  0.
         25    1    1    2    0    0  0.26466631138E+02 -0.26303010658E+03 -0.14138496529E+03  0.32480767839E+03  0.12500000000E+03 0.  0.
</event>
<event>
 5    0  0.5576108E-005  0.2275642E+03  0.7546771E-02  0.1128366E+00
         21   -1    0    0  502  501  0.00000000000E+00  0.00000000000E+00  0.15512579653E+02  0.15512579653E+02  0.00000000000E+00 0.  1.
         21   -1    0    0  501  502 -0.00000000000E+00 -0.00000000000E+00 -0.33382883644E+04  0.33382883644E+04  0.00000000000E+00 0.  1.
         25    1    1    2    0    0  0.77089330092E+01 -0.34314895425E+02 -0.14892267058E+04  0.14948772930E+04  0.12500000000E+03 0.  0.
         25    1    1    2    0    0 -0.56385126744E+02  0.48688614537E+01 -0.50549655435E+03  0.52378884561E+03  0.12500000000E+03 0.  0.
         25    1    1    2    0    0  0.48676193734E+02  0.29446033971E+02 -0.13280525246E+04  0.13351348055E+04  0.12500000000E+03 0.  0.
</event>
<event>
 5    0  0.5576108E-005  0.3310670E+03  0.7546771E-02  0.1070666E+00
         21   -1    0    0  502  501  0.00000000000E+00  0.00000000000E+00  0.20339382695E+04  0.20339382695E+04  0.00000000000E+00 0.  1.
         21   -1    0    0  501  502 -0.00000000000E+00 -0.00000000000E+00 -0.53888233138E+02  0.53888233138E+02  0.00000000000E+00 0.  1.
         25    1    1    2    0    0 -0.14958013874E+03 -0.64667752560E+02  0.68335182699E+03  0.71354807517E+03  0.12500000000E+03 0.  0.
         25    1    1    2    0    0  0.12538990788E+03  0.17352051292E+03  0.10294021737E+04  0.10588322967E+04  0.12500000000E+03 0.  0.
         25    1    1    2    0    0  0.24190230857E+02 -0.10885276036E+03  0.26729603570E+03  0.31544613075E+03  0.12500000000E+03 0.  0.
</event>
<event>
 5    0  0.5576108E-005  0.2302449E+03  0.7546771E-02  0.1126468E+00
         21   -1    0    0  502  501  0.00000000000E+00  0.00000000000E+00  0.10645021330E+03  0.10645021330E+03  0.00000000000E+00 0. -1.
         21   -1    0    0  501  502 -0.00000000000E+00 -0.00000000000E+00 -0.49800477086E+03  0.49800477086E+03  0.00000000000E+00 0. -1.
         25    1    1    2    0    0 -0.20949288320E+02  0.35088530439E+02 -0.30202296151E+03  0.32941303394E+03  0.12500000000E+03 0.  0.
         25    1    1    2    0    0  0.14805141668E+02 -0.81855081980E+01 -0.15294753315E+02  0.12706346541E+03  0.12500000000E+03 0.  0.
         25    1    1    2    0    0  0.61441466516E+01 -0.26903022241E+02 -0.74236842733E+02  0.14797848480E+03  0.12500000000E+03 0.  0.
</event>
<event>
 5    0  0.5576108E-005  0.1996420E+03  0.7546771E-02  0.1150041E+00
         21   -1    0    0  502  501  0.00000000000E+00  0.00000000000E+00  0.21088175236E+03  0.21088175236E+03  0.00000000000E+00 0.  1.
         21   -1    0    0  501  502 -0.00000000000E+00 -0.00000000000E+00 -0.18900131795E+03  0.18900131795E+03  0.00000000000E+00 0.  1.
         25    1    1    2    0    0 -0.16493779384E+02  0.88413300857E+01  0.39103690295E+02  0.13230386416E+03  0.12500000000E+03 0.  0.
         25    1    1    2    0    0 -0.17174575827E+02  0.33967867559E+02 -0.94731422353E+01  0.13100962753E+03  0.12500000000E+03 0.  0.
         25    1    1    2    0    0  0.33668355210E+02 -0.42809197645E+02 -0.77501136468E+01  0.13656957863E+03  0.12500000000E+03 0.  0.
</event>
<event>
 5    0  0.5576108E-005  0.6223958E+03  0.7546771E-02  0.9860001E-01
         21   -1    0    0  502  501  0.00000000000E+00  0.00000000000E+00  0.67664258130E+03  0.67664258130E+03  0.00000000000E+00 0.  1.
         21   -1    0    0  501  502 -0.00000000000E+00 -0.00000000000E+00 -0.57249802181E+03  0.57249802181E+03  0.00000000000E+00 0.  1.
         25    1    1    2    0    0 -0.27338590307E+03  0.44823451377E+03  0.93165193463E+02  0.54768493188E+03  0.12500000000E+03 0.  0.
         25    1    1    2    0    0  0.19852644249E+03 -0.31981012908E+03  0.18776016809E+03  0.43882815287E+03  0.12500000000E+03 0.  0.
         25    1    1    2    0    0  0.74859460584E+02 -0.12842438469E+03 -0.17678080206E+03  0.26262751835E+03  0.12500000000E+03 0.  0.
</event>
<event>
 5    0  0.6390114E-005  0.3314106E+03  0.7546771E-02  0.1070514E+00
         21   -1    0    0  502  501  0.00000000000E+00  0.00000000000E+00  0.62038911388E+03  0.62038911388E+03  0.00000000000E+00 0.  1.
         21   -1    0    0  501  502 -0.00000000000E+00 -0.00000000000E+00 -0.17703881554E+03  0.17703881554E+03  0.00000000000E+00 0.  1.
         25    1    1    2    0    0  0.32007907992E+02 -0.94350760089E+02  0.43629268351E+03  0.46465350294E+03  0.12500000000E+03 0.  0.
         25    1    1    2    0    0 -0.10184996384E+03  0.77210469376E-01  0.53757469984E+01  0.16132984768E+03  0.12500000000E+03 0.  0.
         25    1    1    2    0    0  0.69842055849E+02  0.94273549619E+02  0.16818678272E+01  0.17144457881E+03  0.12500000000E+03 0.  0.
</event>
<event>
 5    0  0.5576108E-005  0.2985379E+03  0.7546771E-02  0.1085974E+00
         21   -1    0    0  502  501  0.00000000000E+00  0.00000000000E+00  0.19025991201E+03  0.19025991201E+03  0.00000000000E+00 0. -1.
         21   -1    0    0  501  502 -0.00000000000E+00 -0.00000000000E+00 -0.46843749480E+03  0.46843749480E+03  0.00000000000E+00 0. -1.
         25    1    1    2    0    0  0.14868497157E+03  0.14943067957E+03 -0.37431590614E+02  0.24791706828E+03  0.12500000000E+03 0.  0.
         25    1    1    2    0    0 -0.87110691069E+02 -0.97043738138E+02 -0.16061612608E+03  0.24171946460E+03  0.12500000000E+03 0.  0.
         25    1    1    2    0    0 -0.61574280499E+02 -0.52386941436E+02 -0.80129866101E+02  0.16906087393E+03  0.12500000000E+03 0.  0.
</event>
<event>
 5    0  0.5576108E-005  0.3276985E+03  0.7546771E-02  0.1072160E+00
         21   -1    0    0  502  501  0.00000000000E+00  0.00000000000E+00  0.47239796517E+03  0.47239796517E+03  0.00000000000E+00 0. -1.
         21   -1    0    0  501  502 -0.00000000000E+00 -0.00000000000E+00 -0.22732170099E+03  0.22732170099E+03  0.00000000000E+00 0. -1.
         25    1    1    2    0    0  0.95483267911E+02  0.12929160734E+03 -0.89745138702E+02  0.22251418854E+03  0.12500000000E+03 0.  0.
         25    1    1    2    0    0 -0.11478846636E+03 -0.21459020772E+02  0.20010810506E+03  0.26325868512E+03  0.12500000000E+03 0.  0.
         25    1    1    2    0    0  0.19305198444E+02 -0.10783258657E+03  0.13471329782E+03  0.21394679251E+03  0.12500000000E+03 0.  0.
</event>
<event>
 5    0  0.5576108E-005  0.2987670E+03  0.7546771E-02  0.1085859E+00
         21   -1    0    0  502  501  0.00000000000E+00  0.00000000000E+00  0.35759357224E+03  0.35759357224E+03  0.00000000000E+00 0. -1.
         21   -1    0    0  501  502 -0.00000000000E+00 -0.00000000000E+00 -0.24961772135E+03  0.24961772135E+03  0.00000000000E+00 0. -1.
         25    1    1    2    0    0  0.79299520158E+02 -0.12261062243E+03  0.14427761153E+03  0.24033894361E+03  0.12500000000E+03 0.  0.
         25    1    1    2    0    0 -0.73235455283E+02 -0.44268259967E+02  0.14515464452E+02  0.15218018747E+03  0.12500000000E+03 0.  0.
         25    1    1    2    0    0 -0.60640648749E+01  0.16687888240E+03 -0.50817225086E+02  0.21469216250E+03  0.12500000000E+03 0.  0.
</event>
<event>
 5    0  0.5576108E-005  0.2307199E+03  0.7546771E-02  0.1126134E+00
         21   -1    0    0  502  501  0.00000000000E+00  0.00000000000E+00  0.13150631046E+03  0.13150631046E+03  0.00000000000E+00 0. -1.
         21   -1    0    0  501  502 -0.00000000000E+00 -0.00000000000E+00 -0.40478412488E+03  0.40478412488E+03  0.00000000000E+00 0. -1.
         25    1    1    2    0    0 -0.67162884232E+00  0.68782727613E+02 -0.15541533073E+03  0.21097497418E+03  0.12500000000E+03 0.  0.
         25    1    1    2    0    0 -0.52315510863E+02 -0.67029039320E+02 -0.92853888646E+01  0.15146294344E+03  0.12500000000E+03 0.  0.
         25    1    1    2    0    0  0.52987139706E+02 -0.17536882924E+01 -0.10857709483E+03  0.17385251772E+03  0.12500000000E+03 0.  0.
</event>
<event>
 5    0  0.5576108E-005  0.2706035E+03  0.7546771E-02  0.1100935E+00
         21   -1    0    0  502  501  0.00000000000E+00  0.00000000000E+00  0.77182177796E+02  0.77182177796E+02  0.00000000000E+00 0.  1.
         21   -1    0    0  501  502 -0.00000000000E+00 -0.00000000000E+00 -0.94874572183E+03  0.94874572183E+03  0.00000000000E+00 0. -1.
         25    1    1    2    0    0  0.12841104670E+03  0.88998072204E+02 -0.41824057983E+03  0.46363804459E+03  0.12500000000E+03 0.  0.
         25    1    1    2    0    0 -0.83665013951E+01  0.16821320898E+02 -0.13705614906E+03  0.18644662287E+03  0.12500000000E+03 0.  0.
         25    1    1    2    0    0 -0.12004454530E+03 -0.10581939310E+03 -0.31626681514E+03  0.37584323218E+03  0.12500000000E+03 0.  0.
</event>
<event>
 5    0  0.5576108E-005  0.4330840E+03  0.7546771E-02  0.1032890E+00
         21   -1    0    0  502  501  0.00000000000E+00  0.00000000000E+00  0.14963901086E+04  0.14963901086E+04  0.00000000000E+00 0. -1.
         21   -1    0    0  501  502 -0.00000000000E+00 -0.00000000000E+00 -0.12534281220E+03  0.12534281220E+03  0.00000000000E+00 0. -1.
         25    1    1    2    0    0  0.52637524229E+02  0.25540141931E+03  0.19018820055E+03  0.34611724252E+03  0.12500000000E+03 0.  0.
         25    1    1    2    0    0  0.13285437274E+03 -0.12858530159E+03  0.48905092600E+03  0.53756885360E+03  0.12500000000E+03 0.  0.
         25    1    1    2    0    0 -0.18549189697E+03 -0.12681611772E+03  0.69180816988E+03  0.73804682472E+03  0.12500000000E+03 0.  0.
</event>
<event>
 5    0  0.5576108E-005  0.3464563E+03  0.7546771E-02  0.1064079E+00
         21   -1    0    0  502  501  0.00000000000E+00  0.00000000000E+00  0.42447302104E+03  0.42447302104E+03  0.00000000000E+00 0. -1.
         21   -1    0    0  501  502 -0.00000000000E+00 -0.00000000000E+00 -0.28277878760E+03  0.28277878760E+03  0.00000000000E+00 0. -1.
         25    1    1    2    0    0 -0.12548930883E+03 -0.20334270643E+03  0.11851091122E+03  0.29456011096E+03  0.12500000000E+03 0.  0.
         25    1    1    2    0    0  0.96817913650E+02  0.21435622527E+03  0.70534779011E+02  0.27554029608E+03  0.12500000000E+03 0.  0.
         25    1    1    2    0    0  0.28671395181E+02 -0.11013518843E+02 -0.47351456798E+02  0.13715140160E+03  0.12500000000E+03 0.  0.
</event>
<event>
 5    0  0.5576108E-005  0.2679115E+03  0.7546771E-02  0.1102481E+00
         21   -1    0    0  502  501  0.00000000000E+00  0.00000000000E+00  0.28282506431E+02  0.28282506431E+02  0.00000000000E+00 0. -1.
         21   -1    0    0  501  502 -0.00000000000E+00 -0.00000000000E+00 -0.25378429536E+04  0.25378429536E+04  0.00000000000E+00 0. -1.
         25    1    1    2    0    0  0.52606184531E+02  0.60066110639E+02 -0.78897725408E+03  0.80279851504E+03  0.12500000000E+03 0.  0.
         25    1    1    2    0    0 -0.14479200129E+03 -0.84394351745E+01 -0.57331776506E+03  0.60444537175E+03  0.12500000000E+03 0.  0.
         25    1    1    2    0    0  0.92185816756E+02 -0.51626675465E+02 -0.11472654280E+04  0.11588815732E+04  0.12500000000E+03 0.  0.
</event>
<event>
 5    0  0.5576108E-005  0.2346477E+03  0.7546771E-02  0.1123411E+00
         21   -1    0    0  502  501  0.00000000000E+00  0.00000000000E+00  0.31486277656E+04  0.31486277656E+04  0.00000000000E+00 0. -1.
         21   -1    0    0  501  502 -0.00000000000E+00 -0.00000000000E+00 -0.17486835477E+02  0.17486835477E+02  0.00000000000E+00 0. -1.
         25    1    1    2    0    0  0.95002711166E+02 -0.57673549383E+02  0.10206860333E+04  0.10343001170E+04  0.12500000000E+03 0.  0.
         25    1    1    2    0    0  0.10177698191E+02  0.12452276295E+02  0.11059677609E+04  0.11131254794E+04  0.12500000000E+03 0.  0.
         25    1    1    2    0    0 -0.10518040936E+03  0.45221273088E+02  0.10044871358E+04  0.10186890046E+04  0.12500000000E+03 0.  0.
</event>
<event>
 5    0  0.5576108E-005  0.2205001E+03  0.7546771E-02  0.1133511E+00
         21   -1    0    0  502  501  0.00000000000E+00  0.00000000000E+00  0.36764610291E+03  0.36764610291E+03  0.00000000000E+00 0.  1.
         21   -1    0    0  501  502 -0.00000000000E+00 -0.00000000000E+00 -0.13224756721E+03  0.13224756721E+03  0.00000000000E+00 0.  1.
         25    1    1    2    0    0 -0.20771342305E+02 -0.51616051170E+02  0.59236920144E+02  0.14909620420E+03  0.12500000000E+03 0.  0.
         25    1    1    2    0    0  0.64933640434E+02  0.79327429592E+02  0.60222478393E+02  0.17251366801E+03  0.12500000000E+03 0.  0.
         25    1    1    2    0    0 -0.44162298129E+02 -0.27711378422E+02  0.11593913717E+03  0.17828379791E+03  0.12500000000E+03 0.  0.
</event>
<event>
 5    0  0.5576108E-005  0.2607256E+03  0.7546771E-02  0.1106708E+00
         21   -1    0    0  502  501  0.00000000000E+00  0.00000000000E+00  0.90960912290E+03  0.90960912290E+03  0.00000000000E+00 0.  1.
         21   -1    0    0  501  502 -0.00000000000E+00 -0.00000000000E+00 -0.74733015891E+02  0.74733015891E+02  0.00000000000E+00 0.  1.
         25    1    1    2    0    0 -0.71850708085E+02  0.35828523166E+02  0.10477074341E+03  0.18179140793E+03  0.12500000000E+03 0.  0.
         25    1    1    2    0    0  0.81240000047E+02 -0.75913928752E+02  0.22378309176E+03  0.27940424897E+03  0.12500000000E+03 0.  0.
         25    1    1    2    0    0 -0.93892919613E+01  0.40085405586E+02  0.50632227184E+03  0.52314648189E+03  0.12500000000E+03 0.  0.
</event>
<event>
 5    0  0.5576108E-005  0.2386917E+03  0.7546771E-02  0.1120667E+00
         21   -1    0    0  502  501  0.00000000000E+00  0.00000000000E+00  0.11469763988E+03  0.11469763988E+03  0.00000000000E+00 0. -1.
         21   -1    0    0  501  502 -0.00000000000E+00 -0.00000000000E+00 -0.49672984316E+03  0.49672984316E+03  0.00000000000E+00 0. -1.
         25    1    1    2    0    0 -0.11090632727E+03  0.29696805039E+02 -0.19106528042E+03  0.25556418967E+03  0.12500000000E+03 0.  0.
         25    1    1    2    0    0  0.50954818310E+02  0.15472009162E+02 -0.15414694052E+03  0.20548006192E+03  0.12500000000E+03 0.  0.
         25    1    1    2    0    0  0.59951508960E+02 -0.45168814201E+02 -0.36819982333E+02  0.15038323145E+03  0.12500000000E+03 0.  0.
</event>
<event>
 5    0  0.5576108E-005  0.3397497E+03  0.7546771E-02  0.1066903E+00
         21   -1    0    0  502  501  0.00000000000E+00  0.00000000000E+00  0.55035105965E+02  0.55035105965E+02  0.00000000000E+00 0. -1.
         21   -1    0    0  501  502 -0.00000000000E+00 -0.00000000000E+00 -0.20973859280E+04  0.20973859280E+04  0.00000000000E+00 0. -1.
         25    1    1    2    0    0  0.21102329628E+03  0.10052649924E+03 -0.80755176968E+03  0.84994192115E+03  0.12500000000E+03 0.  0.
         25    1    1    2    0    0 -0.63203336081E+02 -0.41886908270E+02 -0.89633170525E+03  0.90817658009E+03  0.12500000000E+03 0.  0.
         25    1    1    2    0    0 -0.14781996020E+03 -0.58639590970E+02 -0.33846734713E+03  0.39430253275E+03  0.12500000000E+03 0.  0.
</event>
<event>
 5    0  0.5576108E-005  0.3017909E+03  0.7546771E-02  0.1084349E+00
         21   -1    0    0  502  501  0.00000000000E+00  0.00000000000E+00  0.89542441139E+02  0.89542441139E+02  0.00000000000E+00 0. -1.
         21   -1    0    0  501  502 -0.00000000000E+00 -0.00000000000E+00 -0.10171460192E+04  0.10171460192E+04  0.00000000000E+00 0. -1.
         25    1    1    2    0    0  0.93571366421E+01 -0.12003704986E+03 -0.93385752094E+02  0.19708462152E+03  0.12500000000E+03 0.  0.
         25    1    1    2    0    0  0.92632422905E+02  0.62060962231E+02 -0.25135795383E+03  0.30205653405E+03  0.12500000000E+03 0.  0.
         25    1    1    2    0    0 -0.10198955955E+03  0.57976087627E+02 -0.58285987218E+03  0.60754730482E+03  0.12500000000E+03 0.  0.
</event>
<event>
 5    0  0.5576108E-005  0.3423626E+03  0.7546771E-02  0.1065794E+00
         21   -1    0    0  502  501  0.00000000000E+00  0.00000000000E+00  0.27014915629E+04  0.27014915629E+04  0.00000000000E+00 0. -1.
         21   -1    0    0  501  502 -0.00000000000E+00 -0.00000000000E+00 -0.43387947448E+02  0.43387947448E+02  0.00000000000E+00 0. -1.
         25    1    1    2    0    0  0.67860645240E+02 -0.37946923832E+02  0.42257439917E+03  0.44748090354E+03  0.12500000000E+03 0.  0.
         25    1    1    2    0    0 -0.14190490051E+03  0.21285703766E+03  0.94394402669E+03  0.98595154282E+03  0.12500000000E+03 0.  0.
         25    1    1    2    0    0  0.74044255269E+02 -0.17491011383E+03  0.12915851896E+04  0.13114470640E+04  0.12500000000E+03 0.  0.
</event>
<event>
 5    0  0.5576108E-005  0.2451362E+03  0.7546771E-02  0.1116418E+00
         21   -1    0    0  502  501  0.00000000000E+00  0.00000000000E+00  0.10286576654E+03  0.10286576654E+03  0.00000000000E+00 0. -1.
         21   -1    0    0  501  502 -0.00000000000E+00 -0.00000000000E+00 -0.58417635770E+03  0.58417635770E+03  0.00000000000E+00 0. -1.
         25    1    1    2    0    0 -0.53189846212E+02 -0.14469499682E+02 -0.76605102448E+02  0.15662652356E+03  0.12500000000E+03 0.  0.
         25    1    1    2    0    0  0.95953098900E+02 -0.12879940392E+02 -0.76662199347E+02  0.17571278514E+03  0.12500000000E+03 0.  0.
         25    1    1    2    0    0 -0.42763252688E+02  0.27349440075E+02 -0.32804328937E+03  0.35470281554E+03  0.12500000000E+03 0.  0.
</event>
<event>
 5    0  0.5576108E-005  0.4424529E+03  0.7546771E-02  0.1029997E+00
         21   -1    0    0  502  501  0.00000000000E+00  0.00000000000E+00  0.10603283569E+04  0.10603283569E+04  0.00000000000E+00 0. -1.
         21   -1    0    0  501  502 -0.00000000000E+00 -0.00000000000E+00 -0.18462634197E+03  0.18462634197E+03  0.00000000000E+00 0. -1.
         25    1    1    2    0    0 -0.10858226762E+03  0.17823728951E+03  0.80904316025E+03  0.84482807444E+03  0.12500000000E+03 0.  0.
         25    1    1    2    0    0  0.53035185282E+02 -0.16861416069E+03  0.12624906191E+03  0.25061382982E+03  0.12500000000E+03 0.  0.
         25    1    1    2    0    0  0.55547082342E+02 -0.96231288144E+01 -0.59590207210E+02  0.14951279464E+03  0.12500000000E+03 0.  0.
</event>
<event>
 5    0  0.5576108E-005  0.2852259E+03  0.7546771E-02  0.1092868E+00
         21   -1    0    0  502  501  0.00000000000E+00  0.00000000000E+00  0.11460230254E+03  0.11460230254E+03  0.00000000000E+00 0. -1.
         21   -1    0    0  501  502 -0.00000000000E+00 -0.00000000000E+00 -0.70987921980E+03  0.70987921980E+03  0.00000000000E+00 0. -1.
         25    1    1    2    0    0  0.11961695419E+03 -0.79721950938E+02 -0.58248406057E+02  0.19920261544E+03  0.12500000000E+03 0.  0.
         25    1    1    2    0    0 -0.10525035845E+02 -0.12713438238E+02 -0.26553812955E+03  0.29395221744E+03  0.12500000000E+03 0.  0.
         25    1    1    2    0    0 -0.10909191835E+03  0.92435389176E+02 -0.27149038165E+03  0.33132668946E+03  0.12500000000E+03 0.  0.
</event>
<event>
 5    0  0.5576108E-005  0.3702634E+03  0.7546771E-02  0.1054592E+00
         21   -1    0    0  502  501  0.00000000000E+00  0.00000000000E+00  0.97501254298E+03  0.97501254298E+03  0.00000000000E+00 0. -1.
         21   -1    0    0  501  502 -0.00000000000E+00 -0.00000000000E+00 -0.14060841938E+03  0.14060841938E+03  0.00000000000E+00 0. -1.
         25    1    1    2    0    0  0.64099178546E+02  0.81354951503E+02  0.63817996547E+03  0.65850284825E+03  0.12500000000E+03 0.  0.
         25    1    1    2    0    0 -0.99917085921E+02 -0.83092121619E+02 -0.42516663206E+02  0.18525763516E+03  0.12500000000E+03 0.  0.
         25    1    1    2    0    0  0.35817907376E+02  0.17371701160E+01  0.23874082133E+03  0.27186047895E+03  0.12500000000E+03 0.  0.
</event>
<event>
 5    0  0.5576108E-005  0.2280789E+03  0.7546771E-02  0.1127999E+00
         21   -1    0    0  502  501  0.00000000000E+00  0.00000000000E+00  0.12742308253E+03  0.12742308253E+03  0.00000000000E+00 0.  1.
         21   -1    0    0  501  502 -0.00000000000E+00 -0.00000000000E+00 -0.40824632179E+03  0.40824632179E+03  0.00000000000E+00 0.  1.
         25    1    1    2    0    0 -0.40193049574E+02 -0.37253237293E+02 -0.11326794752E+02  0.13695466842E+03  0.12500000000E+03 0.  0.
         25    1    1    2    0    0  0.85874009098E+02  0.12790800801E+02 -0.18343090048E+03  0.23834815979E+03  0.12500000000E+03 0.  0.
         25    1    1    2    0    0 -0.45680959524E+02  0.24462436492E+02 -0.86065544028E+02  0.16036657610E+03  0.12500000000E+03 0.  0.
</event>
<event>
 5    0  0.5576108E-005  0.3094022E+03  0.7546771E-02  0.1080633E+00
         21   -1    0    0  502  501  0.00000000000E+00  0.00000000000E+00  0.38825925270E+03  0.38825925270E+03  0.00000000000E+00 0. -1.
         21   -1    0    0  501  502 -0.00000000000E+00 -0.00000000000E+00 -0.24656137577E+03  0.24656137577E+03  0.00000000000E+00 0. -1.
         25    1    1    2    0    0  0.82216341452E+01 -0.97743626134E+02 -0.74648569900E+01  0.15906645092E+03  0.12500000000E+03 0.  0.
         25    1    1    2    0    0 -0.60033159628E+02  0.14472991102E+03  0.23491803844E+03  0.30880772688E+03  0.12500000000E+03 0.  0.
         25    1    1    2    0    0  0.51811525482E+02 -0.46986284882E+02 -0.85755304519E+02  0.16694645067E+03  0.12500000000E+03 0.  0.
</event>
<event>
 5    0  0.5576108E-005  0.2804658E+03  0.7546771E-02  0.1095435E+00
         21   -1    0    0  502  501  0.00000000000E+00  0.00000000000E+00  0.19158429552E+03  0.19158429552E+03  0.00000000000E+00 0.  1.
         21   -1    0    0  501  502 -0.00000000000E+00 -0.00000000000E+00 -0.41058202312E+03  0.41058202312E+03  0.00000000000E+00 0.  1.
         25    1    1    2    0    0 -0.32962342834E+02 -0.49241408187E+02 -0.39581191591E+02  0.14388503415E+03  0.12500000000E+03 0.  0.
         25    1    1    2    0    0  0.13686010955E+02 -0.13534854986E+03 -0.13828531142E+03  0.23076907115E+03  0.12500000000E+03 0.  0.
         25    1    1    2    0    0  0.19276331879E+02  0.18458995805E+03 -0.41131224589E+02  0.22751221334E+03  0.12500000000E+03 0.  0.
</event>
<event>
 5    0  0.5576108E-005  0.3232480E+03  0.7546771E-02  0.1074164E+00
         21   -1    0    0  502  501  0.00000000000E+00  0.00000000000E+00  0.90970060845E+03  0.90970060845E+03  0.00000000000E+00 0. -1.
         21   -1    0    0  501  502 -0.00000000000E+00 -0.00000000000E+00 -0.11486112822E+03  0.11486112822E+03  0.00000000000E+00 0. -1.
         25    1    1    2    0    0 -0.46238164766E+02  0.12919225041E+03  0.23726686802E+03  0.30124603252E+03  0.12500000000E+03 0.  0.
         25    1    1    2    0    0 -0.57685135904E+02 -0.19434357506E+02  0.49989430163E+03  0.51886855943E+03  0.12500000000E+03 0.  0.
         25    1    1    2    0    0  0.10392330067E+03 -0.10975789290E+03  0.57678310574E+02  0.20444714473E+03  0.12500000000E+03 0.  0.
</event>
<event>
 5    0  0.5576108E-005  0.4700684E+03  0.7546771E-02  0.1021901E+00
         21   -1    0    0  502  501  0.00000000000E+00  0.00000000000E+00  0.23839603499E+03  0.23839603499E+03  0.00000000000E+00 0. -1.
         21   -1    0    0  501  502 -0.00000000000E+00 -0.00000000000E+00 -0.92687915735E+03  0.92687915735E+03  0.00000000000E+00 0. -1.
         25    1    1    2    0    0 -0.60231752622E+02  0.21608984064E+03 -0.67336769501E+03  0.72067450069E+03  0.12500000000E+03 0.  0.
         25    1    1    2    0    0  0.81880283711E+02  0.18242548232E+02  0.68401534542E+02  0.16535096418E+03  0.12500000000E+03 0.  0.
         25    1    1    2    0    0 -0.21648531090E+02 -0.23433238888E+03 -0.83516961888E+02  0.27924972748E+03  0.12500000000E+03 0.  0.
</event>
<event>
 5    0  0.5576108E-005  0.3146159E+03  0.7546771E-02  0.1078154E+00
         21   -1    0    0  502  501  0.00000000000E+00  0.00000000000E+00  0.77956738587E+02  0.77956738587E+02  0.00000000000E+00 0.  1.
         21   -1    0    0  501  502 -0.00000000000E+00 -0.00000000000E+00 -0.12697192554E+04  0.12697192554E+04  0.00000000000E+00 0.  1.
         25    1    1    2    0    0  0.95596814392E+02 -0.18134904638E+02 -0.72634986188E+03  0.74342232112E+03  0.12500000000E+03 0.  0.
         25    1    1    2    0    0 -0.38855103397E+02  0.56960788273E+02 -0.29743029428E+02  0.14582146022E+03  0.12500000000E+03 0.  0.
         25    1    1    2    0    0 -0.56741710995E+02 -0.38825883636E+02 -0.43566962555E+03  0.45843221269E+03  0.12500000000E+03 0.  0.
</event>
<event>
 5    0  0.5576108E-005  0.3049601E+03  0.7546771E-02  0.1082787E+00
         21   -1    0    0  502  501  0.00000000000E+00  0.00000000000E+00  0.54073595303E+03  0.54073595303E+03  0.00000000000E+00 0.  1.
         21   -1    0    0  501  502 -0.00000000000E+00 -0.00000000000E+00 -0.17198909774E+03  0.17198909774E+03  0.00000000000E+00 0.  1.
         25    1    1    2    0    0  0.11708978213E+03 -0.14719400915E+03  0.16540031859E+03  0.27992563083E+03  0.12500000000E+03 0.  0.
         25    1    1    2    0    0 -0.15021358468E+03  0.11526674006E+03  0.55046579506E+02  0.23346449045E+03  0.12500000000E+03 0.  0.
         25    1    1    2    0    0  0.33123802549E+02  0.31927269091E+02  0.14829995720E+03  0.19933492948E+03  0.12500000000E+03 0.  0.
</event>
<event>
 5    0  0.5576108E-005  0.4086862E+03  0.7546771E-02  0.1040813E+00
         21   -1    0    0  502  501  0.00000000000E+00  0.00000000000E+00  0.32979898238E+03  0.32979898238E+03  0.00000000000E+00 0. -1.
         21   -1    0    0  501  502 -0.00000000000E+00 -0.00000000000E+00 -0.50644305874E+03  0.50644305874E+03  0.00000000000E+00 0. -1.
         25    1    1    2    0    0  0.24661425078E+03  0.25062695108E+03 -0.58290310346E+02  0.37769725651E+03  0.12500000000E+03 0.  0.
         25    1    1    2    0    0 -0.14175171606E+03 -0.78071166520E+02 -0.70466221081E+02  0.21628486855E+03  0.12500000000E+03 0.  0.
         25    1    1    2    0    0 -0.10486253472E+03 -0.17255578456E+03 -0.47887544935E+02  0.24225991607E+03  0.12500000000E+03 0.  0.
</event>
<event>
 5    0  0.5576108E-005  0.2349277E+03  0.7546771E-02  0.1123219E+00
         21   -1    0    0  502  501  0.00000000000E+00  0.00000000000E+00  0.43433968246E+03  0.43433968246E+03  0.00000000000E+00 0. -1.
         21   -1    0    0  501  502 -0.00000000000E+00 -0.00000000000E+00 -0.12706877402E+03  0.12706877402E+03  0.00000000000E+00 0. -1.
         25    1    1    2    0    0 -0.32975020527E+02 -0.68029306560E+02  0.93232340621E+02  0.17329918600E+03  0.12500000000E+03 0.  0.
         25    1    1    2    0    0  0.48130023450E+02 -0.29420273611E+02  0.22397220990E+02  0.13895570217E+03  0.12500000000E+03 0.  0.
         25    1    1    2    0    0 -0.15155002923E+02  0.97449580171E+02  0.19164134683E+03  0.24915356832E+03  0.12500000000E+03 0.  0.
</event>
<event>
 5    0  0.5576108E-005  0.4380780E+03  0.7546771E-02  0.1031338E+00
         21   -1    0    0  502  501  0.00000000000E+00  0.00000000000E+00  0.10621910380E+04  0.10621910380E+04  0.00000000000E+00 0. -1.
         21   -1    0    0  501  502 -0.00000000000E+00 -0.00000000000E+00 -0.18067589453E+03  0.18067589453E+03  0.00000000000E+00 0. -1.
         25    1    1    2    0    0  0.76791390806E+02 -0.12867218244E+03  0.29427049907E+02  0.19734335434E+03  0.12500000000E+03 0.  0.
         25    1    1    2    0    0 -0.24709899735E+03  0.10214400243E+03  0.75668118229E+03  0.81220854672E+03  0.12500000000E+03 0.  0.
         25    1    1    2    0    0  0.17030760655E+03  0.26528180005E+02  0.95406911225E+02  0.23331503143E+03  0.12500000000E+03 0.  0.
</event>
<event>
 5    0  0.5576108E-005  0.3035435E+03  0.7546771E-02  0.1083483E+00
         21   -1    0    0  502  501  0.00000000000E+00  0.00000000000E+00  0.22265186320E+03  0.22265186320E+03  0.00000000000E+00 0.  1.
         21   -1    0    0  501  502 -0.00000000000E+00 -0.00000000000E+00 -0.41382397791E+03  0.41382397791E+03  0.00000000000E+00 0.  1.
         25    1    1    2    0    0  0.11947328176E+03 -0.74081973463E+02 -0.28118215573E+02  0.19020420051E+03  0.12500000000E+03 0.  0.
         25    1    1    2    0    0 -0.45838349841E+02 -0.10319564539E+03 -0.60510460373E+01  0.16855892353E+03  0.12500000000E+03 0.  0.
         25    1    1    2    0    0 -0.73634931915E+02  0.17727761885E+03 -0.15700285310E+03  0.27771271707E+03  0.12500000000E+03 0.  0.
</event>
<event>
 5    0  0.5576108E-005  0.2630174E+03  0.7546771E-02  0.1105344E+00
         21   -1    0    0  502  501  0.00000000000E+00  0.00000000000E+00  0.43830204287E+03  0.43830204287E+03  0.00000000000E+00 0.  1.
         21   -1    0    0  501  502 -0.00000000000E+00 -0.00000000000E+00 -0.15783213660E+03  0.15783213660E+03  0.00000000000E+00 0.  1.
         25    1    1    2    0    0  0.93443736650E+02  0.61792699098E+02  0.16439832280E+03  0.23495079936E+03  0.12500000000E+03 0.  0.
         25    1    1    2    0    0  0.54159222086E+02 -0.57147232663E+02  0.37918766413E+02  0.15251839359E+03  0.12500000000E+03 0.  0.
         25    1    1    2    0    0 -0.14760295874E+03 -0.46454664354E+01  0.78152817062E+02  0.20866498652E+03  0.12500000000E+03 0.  0.
</event>
<event>
 5    0  0.5576108E-005  0.4898332E+03  0.7546771E-02  0.1016467E+00
         21   -1    0    0  502  501  0.00000000000E+00  0.00000000000E+00  0.27697007465E+03  0.27697007465E+03  0.00000000000E+00 0. -1.
         21   -1    0    0  501  502 -0.00000000000E+00 -0.00000000000E+00 -0.86629062509E+03  0.86629062509E+03  0.00000000000E+00 0. -1.
         25    1    1    2    0    0 -0.17096568692E+02 -0.14405484016E+03  0.10149999612E+03  0.21672872179E+03  0.12500000000E+03 0.  0.
         25    1    1    2    0    0  0.35997798491E+02 -0.15430185631E+03 -0.49195158000E+02  0.20772594428E+03  0.12500000000E+03 0.  0.
         25    1    1    2    0    0 -0.18901229799E+02  0.29835669647E+03 -0.64162538856E+03  0.71880603368E+03  0.12500000000E+03 0.  0.
</event>
<event>
 5    0  0.5576108E-005  0.2479257E+03  0.7546771E-02  0.1114623E+00
         21   -1    0    0  502  501  0.00000000000E+00  0.00000000000E+00  0.81659936590E+02  0.81659936590E+02  0.00000000000E+00 0. -1.
         21   -1    0    0  501  502 -0.00000000000E+00 -0.00000000000E+00 -0.75272118771E+03  0.75272118771E+03  0.00000000000E+00 0. -1.
         25    1    1    2    0    0  0.69687555073E+02  0.28780407894E+02 -0.12069939062E+03  0.18941491522E+03  0.12500000000E+03 0.  0.
         25    1    1    2    0    0  0.23479650870E+02  0.74885393197E+02 -0.27273421714E+03  0.31010976979E+03  0.12500000000E+03 0.  0.
         25    1    1    2    0    0 -0.93167205943E+02 -0.10366580109E+03 -0.27762764335E+03  0.33485643929E+03  0.12500000000E+03 0.  0.
</event>
<event>
 5    0  0.5576108E-005  0.4853766E+03  0.7546771E-02  0.1017668E+00
         21   -1    0    0  502  501  0.00000000000E+00  0.00000000000E+00  0.12396464463E+03  0.12396464463E+03  0.00000000000E+00 0. -1.
         21   -1    0    0  501  502 -0.00000000000E+00 -0.00000000000E+00 -0.19004645387E+04  0.19004645387E+04  0.00000000000E+00 0. -1.
         25    1    1    2    0    0  0.26801537691E+03  0.26477583963E+03 -0.44405327170E+03  0.59560624209E+03  0.12500000000E+03 0.  0.
         25    1    1    2    0    0 -0.17182255213E+03 -0.64188018260E+02 -0.89758349565E+03  0.92462112391E+03  0.12500000000E+03 0.  0.
         25    1    1    2    0    0 -0.96192824785E+02 -0.20058782137E+03 -0.43486312676E+03  0.50420181737E+03  0.12500000000E+03 0.  0.
</event>
<event>
 5    0  0.5576108E-005  0.2614519E+03  0.7546771E-02  0.1106274E+00
         21   -1    0    0  502  501  0.00000000000E+00  0.00000000000E+00  0.68935980229E+03  0.68935980229E+03  0.00000000000E+00 0. -1.
         21   -1    0    0  501  502 -0.00000000000E+00 -0.00000000000E+00 -0.99160240970E+02  0.99160240970E+02  0.00000000000E+00 0. -1.
         25    1    1    2    0    0 -0.97363121572E+02  0.59359976153E+02  0.15251160942E+03  0.22778932200E+03  0.12500000000E+03 0.  0.
         25    1    1    2    0    0  0.11633557470E+03  0.55511108779E+02  0.23157790288E+03  0.29303374249E+03  0.12500000000E+03 0.  0.
         25    1    1    2    0    0 -0.18972453125E+02 -0.11487108493E+03  0.20611004903E+03  0.26769697877E+03  0.12500000000E+03 0.  0.
</event>
<event>
 5    0  0.5576108E-005  0.3623659E+03  0.7546771E-02  0.1057651E+00
         21   -1    0    0  502  501  0.00000000000E+00  0.00000000000E+00  0.85293820607E+03  0.85293820607E+03  0.00000000000E+00 0. -1.
         21   -1    0    0  501  502 -0.00000000000E+00 -0.00000000000E+00 -0.15394903351E+03  0.15394903351E+03  0.00000000000E+00 0. -1.
         25    1    1    2    0    0  0.88756872673E+02 -0.13933983419E+03  0.27531082949E+03  0.34454959683E+03  0.12500000000E+03 0.  0.
         25    1    1    2    0    0 -0.24580432276E+03  0.13798348015E+03  0.25963941554E+03  0.40310895796E+03  0.12500000000E+03 0.  0.
         25    1    1    2    0    0  0.15704745009E+03  0.13563540414E+01  0.16403892753E+03  0.25922868480E+03  0.12500000000E+03 0.  0.
</event>
<event>
 5    0  0.5576108E-005  0.3374903E+03  0.7546771E-02  0.1067870E+00
         21   -1    0    0  502  501  0.00000000000E+00  0.00000000000E+00  0.10580566751E+04  0.10580566751E+04  0.00000000000E+00 0. -1.
         21   -1    0    0  501  502 -0.00000000000E+00 -0.00000000000E+00 -0.10764992354E+03  0.10764992354E+03  0.00000000000E+00 0. -1.
         25    1    1    2    0    0 -0.20718475646E+03  0.16532567411E+03  0.36930160581E+03  0.47145177684E+03  0.12500000000E+03 0.  0.
         25    1    1    2    0    0  0.39173241397E+02 -0.60670212463E+02  0.25118912083E+03  0.28971777982E+03  0.12500000000E+03 0.  0.
         25    1    1    2    0    0  0.16801151507E+03 -0.10465546164E+03  0.32991602496E+03  0.40453704203E+03  0.12500000000E+03 0.  0.
</event>
<event>
 5    0  0.5576108E-005  0.4866203E+03  0.7546771E-02  0.1017331E+00
         21   -1    0    0  502  501  0.00000000000E+00  0.00000000000E+00  0.75131494325E+03  0.75131494325E+03  0.00000000000E+00 0. -1.
         21   -1    0    0  501  502 -0.00000000000E+00 -0.00000000000E+00 -0.31517987998E+03  0.31517987998E+03  0.00000000000E+00 0. -1.
         25    1    1    2    0    0 -0.12979646724E+03  0.11562519924E+03 -0.10627216470E+03  0.23902945968E+03  0.12500000000E+03 0.  0.
         25    1    1    2    0    0  0.16746883802E+03  0.13324814160E+03  0.47906412426E+03  0.53937771006E+03  0.12500000000E+03 0.  0.
         25    1    1    2    0    0 -0.37672370781E+02 -0.24887334084E+03  0.63343103704E+02  0.28808765348E+03  0.12500000000E+03 0.  0.
</event>
<event>
 5    0  0.5576108E-005  0.3834071E+03  0.7546771E-02  0.1049682E+00
         21   -1    0    0  502  501  0.00000000000E+00  0.00000000000E+00  0.75223227112E+03  0.75223227112E+03  0.00000000000E+00 0. -1.
         21   -1    0    0  501  502 -0.00000000000E+00 -0.00000000000E+00 -0.19541970671E+03  0.19541970671E+03  0.00000000000E+00 0. -1.
         25    1    1    2    0    0 -0.19623435049E+03 -0.49893920376E+01  0.23249703441E+03  0.32895696581E+03  0.12500000000E+03 0.  0.
         25    1    1    2    0    0  0.34342351447E+02 -0.36411470561E+02  0.37963429667E+03  0.40280564979E+03  0.12500000000E+03 0.  0.
         25    1    1    2    0    0  0.16189199904E+03  0.41400862598E+02 -0.55318766667E+02  0.21588936223E+03  0.12500000000E+03 0.  0.
</event>
<event>
 5    0  0.5576108E-005  0.3527721E+03  0.7546771E-02  0.1061483E+00
         21   -1    0    0  502  501  0.00000000000E+00  0.00000000000E+00  0.76136868685E+03  0.76136868685E+03  0.00000000000E+00 0.  1.
         21   -1    0    0  501  502 -0.00000000000E+00 -0.00000000000E+00 -0.16345323460E+03  0.16345323460E+03  0.00000000000E+00 0.  1.
         25    1    1    2    0    0 -0.14629550830E+03 -0.13486493494E+03  0.41578479365E+02  0.23863087892E+03  0.12500000000E+03 0.  0.
         25    1    1    2    0    0 -0.55595151312E+02  0.77664555245E+02  0.22615913591E+03  0.27549148580E+03  0.12500000000E+03 0.  0.
         25    1    1    2    0    0  0.20189065961E+03  0.57200379700E+02  0.33017783698E+03  0.41069955674E+03  0.12500000000E+03 0.  0.
</event>
<event>
 5    0  0.5576108E-005  0.3428029E+03  0.7546771E-02  0.1065608E+00
         21   -1    0    0  502  501  0.00000000000E+00  0.00000000000E+00  0.72865788014E+03  0.72865788014E+03  0.00000000000E+00 0. -1.
         21   -1    0    0  501  502 -0.00000000000E+00 -0.00000000000E+00 -0.16127434616E+03  0.16127434616E+03  0.00000000000E+00 0. -1.
         25    1    1    2    0    0 -0.19149811780E+03 -0.80793638652E+02  0.21092341564E+03  0.32142312989E+03  0.12500000000E+03 0.  0.
         25    1    1    2    0    0  0.16144705052E+03  0.26270132868E+02  0.23192615172E+02  0.20716700365E+03  0.12500000000E+03 0.  0.
         25    1    1    2    0    0  0.30051067275E+02  0.54523505784E+02  0.33326750317E+03  0.36134209276E+03  0.12500000000E+03 0.  0.
</event>
<event>
 5    0  0.5576108E-005  0.3131436E+03  0.7546771E-02  0.1078849E+00
         21   -1    0    0  502  501  0.00000000000E+00  0.00000000000E+00  0.55967727313E+03  0.55967727313E+03  0.00000000000E+00 0.  1.
         21   -1    0    0  501  502 -0.00000000000E+00 -0.00000000000E+00 -0.17520618096E+03  0.17520618096E+03  0.00000000000E+00 0.  1.
         25    1    1    2    0    0  0.19336667115E+03 -0.80459485790E+02  0.94157397796E+02  0.26144791819E+03  0.12500000000E+03 0.  0.
         25    1    1    2    0    0 -0.18215755004E+03  0.66045025283E+02  0.11588121961E+03  0.25806351052E+03  0.12500000000E+03 0.  0.
         25    1    1    2    0    0 -0.11209121107E+02  0.14414460507E+02  0.17443247476E+03  0.21537202539E+03  0.12500000000E+03 0.  0.
</event>
<event>
 5    0  0.5576108E-005  0.2714503E+03  0.7546771E-02  0.1100452E+00
         21   -1    0    0  502  501  0.00000000000E+00  0.00000000000E+00  0.36338106252E+02  0.36338106252E+02  0.00000000000E+00 0.  1.
         21   -1    0    0  501  502 -0.00000000000E+00 -0.00000000000E+00 -0.20277679039E+04  0.20277679039E+04  0.00000000000E+00 0.  1.
         25    1    1    2    0    0 -0.88681782718E+02  0.98306002944E+02 -0.39983388735E+03  0.43934117298E+03  0.12500000000E+03 0.  0.
         25    1    1    2    0    0  0.58854175105E+02 -0.88073869136E+02 -0.12302148179E+04  0.12410778857E+04  0.12500000000E+03 0.  0.
         25    1    1    2    0    0  0.29827607614E+02 -0.10232133808E+02 -0.36138109239E+03  0.38368695140E+03  0.12500000000E+03 0.  0.
</event>
<event>
 5    0  0.5576108E-005  0.3898305E+03  0.7546771E-02  0.1047359E+00
         21   -1    0    0  502  501  0.00000000000E+00  0.00000000000E+00  0.34950868034E+03  0.34950868034E+03  0.00000000000E+00 0.  1.
         21   -1    0    0  501  502 -0.00000000000E+00 -0.00000000000E+00 -0.43480403658E+03  0.43480403658E+03  0.00000000000E+00 0.  1.
         25    1    1    2    0    0  0.20932889462E+03 -0.99155881336E+02 -0.54388987714E+01  0.26325853556E+03  0.12500000000E+03 0.  0.
         25    1    1    2    0    0  0.10420718509E+03  0.14064396042E+02 -0.53829478273E+02  0.17198708495E+03  0.12500000000E+03 0.  0.
         25    1    1    2    0    0 -0.31353607970E+03  0.85091485294E+02 -0.26026979193E+02  0.34906709640E+03  0.12500000000E+03 0.  0.
</event>
<event>
 5    0  0.5576108E-005  0.2621413E+03  0.7546771E-02  0.1105863E+00
         21   -1    0    0  502  501  0.00000000000E+00  0.00000000000E+00  0.33900458926E+03  0.33900458926E+03  0.00000000000E+00 0. -1.
         21   -1    0    0  501  502 -0.00000000000E+00 -0.00000000000E+00 -0.20270539813E+03  0.20270539813E+03  0.00000000000E+00 0. -1.
         25    1    1    2    0    0 -0.75548552184E+02 -0.13301338650E+02 -0.56742853206E+00  0.14666230368E+03  0.12500000000E+03 0.  0.
         25    1    1    2    0    0  0.18338584801E+01 -0.24498535393E+02  0.19607387238E+03  0.23382366156E+03  0.12500000000E+03 0.  0.
         25    1    1    2    0    0  0.73714693704E+02  0.37799874043E+02 -0.59207252718E+02  0.16122402216E+03  0.12500000000E+03 0.  0.
</event>
<event>
 5    0  0.5576108E-005  0.3685585E+03  0.7546771E-02  0.1055246E+00
         21   -1    0    0  502  501  0.00000000000E+00  0.00000000000E+00  0.14641956513E+04  0.14641956513E+04  0.00000000000E+00 0.  1.
         21   -1    0    0  501  502 -0.00000000000E+00 -0.00000000000E+00 -0.92771316163E+02  0.92771316163E+02  0.00000000000E+00 0.  1.
         25    1    1    2    0    0 -0.50626784994E+02 -0.49081493976E+02  0.76868481628E+03  0.78196765355E+03  0.12500000000E+03 0.  0.
         25    1    1    2    0    0 -0.64906622195E+02  0.20942704049E+03  0.33679657770E+03  0.42086754406E+03  0.12500000000E+03 0.  0.
         25    1    1    2    0    0  0.11553340719E+03 -0.16034554652E+03  0.26594294112E+03  0.35413176982E+03  0.12500000000E+03 0.  0.
</event>
<event>
 5    0  0.5576108E-005  0.2219239E+03  0.7546771E-02  0.1132457E+00
         21   -1    0    0  502  501  0.00000000000E+00  0.00000000000E+00  0.16518015877E+03  0.16518015877E+03  0.00000000000E+00 0. -1.
         21   -1    0    0  501  502 -0.00000000000E+00 -0.00000000000E+00 -0.29816050764E+03  0.29816050764E+03  0.00000000000E+00 0. -1.
         25    1    1    2    0    0  0.23818658654E+02  0.12738039621E+02 -0.90483046561E+02  0.15665812417E+03  0.12500000000E+03 0.  0.
         25    1    1    2    0    0  0.67543313445E+02 -0.36083113483E+02 -0.29796844471E+02  0.14958924497E+03  0.12500000000E+03 0.  0.
         25    1    1    2    0    0 -0.91361972099E+02  0.23345073862E+02 -0.12700457835E+02  0.15709329727E+03  0.12500000000E+03 0.  0.
</event>
<event>
 5    0  0.5576108E-005  0.3982896E+03  0.7546771E-02  0.1044374E+00
         21   -1    0    0  502  501  0.00000000000E+00  0.00000000000E+00  0.25160546267E+03  0.25160546267E+03  0.00000000000E+00 0. -1.
         21   -1    0    0  501  502 -0.00000000000E+00 -0.00000000000E+00 -0.63048959660E+03  0.63048959660E+03  0.00000000000E+00 0. -1.
         25    1    1    2    0    0 -0.48241195571E+02 -0.15587443700E+03 -0.42164749499E+03  0.46907959142E+03  0.12500000000E+03 0.  0.
         25    1    1    2    0    0  0.15885564292E+03  0.52176911116E+02 -0.11736554336E+02  0.20909397899E+03  0.12500000000E+03 0.  0.
         25    1    1    2    0    0 -0.11061444735E+03  0.10369752589E+03  0.54499915396E+02  0.20392148885E+03  0.12500000000E+03 0.  0.
</event>
<event>
 5    0  0.5576108E-005  0.2755553E+03  0.7546771E-02  0.1098142E+00
         21   -1    0    0  502  501  0.00000000000E+00  0.00000000000E+00  0.40508977545E+03  0.40508977545E+03  0.00000000000E+00 0. -1.
         21   -1    0    0  501  502 -0.00000000000E+00 -0.00000000000E+00 -0.18744166246E+03  0.18744166246E+03  0.00000000000E+00 0. -1.
         25    1    1    2    0    0  0.91413835537E+02  0.11039832318E+03  0.63693912570E+02  0.20056468679E+03  0.12500000000E+03 0.  0.
         25    1    1    2    0    0 -0.11431299187E+03 -0.10630973910E+03  0.17170896800E+03  0.26358715908E+03  0.12500000000E+03 0.  0.
         25    1    1    2    0    0  0.22899156330E+02 -0.40885840738E+01 -0.17754767589E+02  0.12837959204E+03  0.12500000000E+03 0.  0.
</event>
<event>
 5    0  0.5576108E-005  0.3407811E+03  0.7546771E-02  0.1066464E+00
         21   -1    0    0  502  501  0.00000000000E+00  0.00000000000E+00  0.41180447635E+03  0.41180447635E+03  0.00000000000E+00 0. -1.
         21   -1    0    0  501  502 -0.00000000000E+00 -0.00000000000E+00 -0.28200701638E+03  0.28200701638E+03  0.00000000000E+00 0. -1.
         25    1    1    2    0    0 -0.81764298241E+02 -0.16177234031E+03  0.15021756908E+03  0.26654457154E+03  0.12500000000E+03 0.  0.
         25    1    1    2    0    0  0.12522357530E+03  0.29249776498E+02  0.99293429734E+02  0.20498945930E+03  0.12500000000E+03 0.  0.
         25    1    1    2    0    0 -0.43459277062E+02  0.13252256381E+03 -0.11971353885E+03  0.22227746189E+03  0.12500000000E+03 0.  0.
</event>
<event>
 5    0  0.5576108E-005  0.2972128E+03  0.7546771E-02  0.1086642E+00
         21   -1    0    0  502  501  0.00000000000E+00  0.00000000000E+00  0.48802427552E+03  0.48802427552E+03  0.00000000000E+00 0. -1.
         21   -1    0    0  501  502 -0.00000000000E+00 -0.00000000000E+00 -0.18100626794E+03  0.18100626794E+03  0.00000000000E+00 0. -1.
         25    1    1    2    0    0 -0.18480697658E+03  0.66463148046E+01  0.35856638874E+02  0.22607187053E+03  0.12500000000E+03 0.  0.
         25    1    1    2    0    0  0.29839771842E+02  0.15221435116E+02  0.36540582798E+02  0.13447051075E+03  0.12500000000E+03 0.  0.
         25    1    1    2    0    0  0.15496720474E+03 -0.21867749920E+02  0.23462078590E+03  0.30848816218E+03  0.12500000000E+03 0.  0.
</event>
<event>
 5    0  0.5576108E-005  0.2201160E+03  0.7546771E-02  0.1133797E+00
         21   -1    0    0  502  501  0.00000000000E+00  0.00000000000E+00  0.13878467969E+02  0.13878467969E+02  0.00000000000E+00 0. -1.
         21   -1    0    0  501  502 -0.00000000000E+00 -0.00000000000E+00 -0.34910964144E+04  0.34910964144E+04  0.00000000000E+00 0. -1.
         25    1    1    2    0    0 -0.77829076395E+02  0.56942923432E+01 -0.79300777710E+03  0.80658299302E+03  0.12500000000E+03 0.  0.
         25    1    1    2    0    0 -0.91787753160E+00 -0.12701696850E+02 -0.10462282689E+04  0.10537460634E+04  0.12500000000E+03 0.  0.
         25    1    1    2    0    0  0.78746953926E+02  0.70074045073E+01 -0.16379819004E+04  0.16446458259E+04  0.12500000000E+03 0.  0.
</event>
<event>
 5    0  0.5576108E-005  0.3758386E+03  0.7546771E-02  0.1052483E+00
         21   -1    0    0  502  501  0.00000000000E+00  0.00000000000E+00  0.46701005628E+02  0.46701005628E+02  0.00000000000E+00 0.  1.
         21   -1    0    0  501  502 -0.00000000000E+00 -0.00000000000E+00 -0.30246605139E+04  0.30246605139E+04  0.00000000000E+00 0.  1.
         25    1    1    2    0    0  0.40072192239E+02 -0.11201860983E+03 -0.45407348741E+03  0.48575887177E+03  0.12500000000E+03 0.  0.
         25    1    1    2    0    0  0.12222081691E+03 -0.13950428066E+03 -0.76380680832E+03  0.79588014980E+03  0.12500000000E+03 0.  0.
         25    1    1    2    0    0 -0.16229300915E+03  0.25152289048E+03 -0.17600792125E+04  0.17897224979E+04  0.12500000000E+03 0.  0.
</event>
<event>
 5    0  0.5576108E-005  0.3545864E+03  0.7546771E-02  0.1060748E+00
         21   -1    0    0  502  501  0.00000000000E+00  0.00000000000E+00  0.47834151959E+03  0.47834151959E+03  0.00000000000E+00 0. -1.
         21   -1    0    0  501  502 -0.00000000000E+00 -0.00000000000E+00 -0.26284877868E+03  0.26284877868E+03  0.00000000000E+00 0. -1.
         25    1    1    2    0    0  0.38681766838E+02 -0.19152568174E+03  0.26872435938E+03  0.35498753101E+03  0.12500000000E+03 0.  0.
         25    1    1    2    0    0  0.35500169377E+01  0.47113540790E+02 -0.11990720095E+03  0.17954115179E+03  0.12500000000E+03 0.  0.
         25    1    1    2    0    0 -0.42231783776E+02  0.14441214095E+03  0.66675582478E+02  0.20666161548E+03  0.12500000000E+03 0.  0.
</event>
<event>
 5    0  0.5576108E-005  0.2144042E+03  0.7546771E-02  0.1138125E+00
         21   -1    0    0  502  501  0.00000000000E+00  0.00000000000E+00  0.31776557671E+03  0.31776557671E+03  0.00000000000E+00 0.  1.
         21   -1    0    0  501  502 -0.00000000000E+00 -0.00000000000E+00 -0.14466379218E+03  0.14466379218E+03  0.00000000000E+00 0.  1.
         25    1    1    2    0    0  0.68006145227E+02  0.16594770019E+02  0.87858178158E+02  0.16806035121E+03  0.12500000000E+03 0.  0.
         25    1    1    2    0    0 -0.77450248480E+02 -0.16700250880E+02  0.10377143955E+02  0.14835809545E+03  0.12500000000E+03 0.  0.
         25    1    1    2    0    0  0.94441032528E+01  0.10548086032E+00  0.74866462422E+02  0.14601092222E+03  0.12500000000E+03 0.  0.
</event>
<event>
 5    0  0.5576108E-005  0.3002857E+03  0.7546771E-02  0.1085098E+00
         21   -1    0    0  502  501  0.00000000000E+00  0.00000000000E+00  0.12583133244E+04  0.12583133244E+04  0.00000000000E+00 0. -1.
         21   -1    0    0  501  502 -0.00000000000E+00 -0.00000000000E+00 -0.71660589246E+02  0.71660589246E+02  0.00000000000E+00 0. -1.
         25    1    1    2    0    0 -0.92991871520E+02 -0.13352182036E+03  0.51898254418E+03  0.55807118349E+03  0.12500000000E+03 0.  0.
         25    1    1    2    0    0  0.15797808854E+03  0.22996150405E+02  0.41888422343E+03  0.46537607591E+03  0.12500000000E+03 0.  0.
         25    1    1    2    0    0 -0.64986217016E+02  0.11052566995E+03  0.24878596759E+03  0.30652665429E+03  0.12500000000E+03 0.  0.
</event>
<event>
 5    0  0.5576108E-005  0.6659329E+03  0.7546771E-02  0.9777333E-01
         21   -1    0    0  502  501  0.00000000000E+00  0.00000000000E+00  0.41289178995E+03  0.41289178995E+03  0.00000000000E+00 0.  1.
         21   -1    0    0  501  502 -0.00000000000E+00 -0.00000000000E+00 -0.10740505265E+04  0.10740505265E+04  0.00000000000E+00 0.  1.
         25    1    1    2    0    0  0.10984962017E+03  0.10086612611E+03 -0.46117397831E+03  0.50054705345E+03  0.12500000000E+03 0.  0.
         25    1    1    2    0    0  0.27454806769E+03  0.27653916100E+03 -0.12758633337E+03  0.42866516245E+03  0.12500000000E+03 0.  0.
         25    1    1    2    0    0 -0.38439768786E+03 -0.37740528710E+03 -0.72398424903E+02  0.55773010058E+03  0.12500000000E+03 0.  0.
</event>
<event>
 5    0  0.5576108E-005  0.2421818E+03  0.7546771E-02  0.1118348E+00
         21   -1    0    0  502  501  0.00000000000E+00  0.00000000000E+00  0.34282102531E+03  0.34282102531E+03  0.00000000000E+00 0. -1.
         21   -1    0    0  501  502 -0.00000000000E+00 -0.00000000000E+00 -0.17108642994E+03  0.17108642994E+03  0.00000000000E+00 0. -1.
         25    1    1    2    0    0  0.78221608410E+01  0.10173121486E+03  0.34791464648E+02  0.16506323724E+03  0.12500000000E+03 0.  0.
         25    1    1    2    0    0 -0.80845540398E+02 -0.49213968195E+02  0.11236690666E+03  0.19289722077E+03  0.12500000000E+03 0.  0.
         25    1    1    2    0    0  0.73023379557E+02 -0.52517246661E+02  0.24576224061E+02  0.15594699724E+03  0.12500000000E+03 0.  0.
</event>
<event>
 5    0  0.5576108E-005  0.3794200E+03  0.7546771E-02  0.1051148E+00
         21   -1    0    0  502  501  0.00000000000E+00  0.00000000000E+00  0.58042413583E+03  0.58042413583E+03  0.00000000000E+00 0. -1.
         21   -1    0    0  501  502 -0.00000000000E+00 -0.00000000000E+00 -0.24802472592E+03  0.24802472592E+03  0.00000000000E+00 0. -1.
         25    1    1    2    0    0  0.47325889512E+02  0.75105842822E+02 -0.13249705854E+03  0.20263538182E+03  0.12500000000E+03 0.  0.
         25    1    1    2    0    0 -0.88919207218E+02 -0.32879595297E+02  0.17903721757E+02  0.15790261699E+03  0.12500000000E+03 0.  0.
         25    1    1    2    0    0  0.41593317705E+02 -0.42226247526E+02  0.44699274670E+03  0.46791086294E+03  0.12500000000E+03 0.  0.
</event>
<event>
 5    0  0.5774684E-005  0.3157908E+03  0.7546771E-02  0.1077603E+00
         21   -1    0    0  502  501  0.00000000000E+00  0.00000000000E+00  0.26957893279E+03  0.26957893279E+03  0.00000000000E+00 0.  1.
         21   -1    0    0  501  502 -0.00000000000E+00 -0.00000000000E+00 -0.36992431058E+03  0.36992431058E+03  0.00000000000E+00 0.  1.
         25    1    1    2    0    0  0.54355352749E+02  0.50184452289E+02  0.91704629793E+02  0.17177812069E+03  0.12500000000E+03 0.  0.
         25    1    1    2    0    0  0.13718775723E+03 -0.57466523371E+02 -0.59139540960E+02  0.20308955500E+03  0.12500000000E+03 0.  0.
         25    1    1    2    0    0 -0.19154310998E+03  0.72820710825E+01 -0.13291046663E+03  0.26463556768E+03  0.12500000000E+03 0.  0.
</event>
<event>
 5    0  0.5576108E-005  0.2755271E+03  0.7546771E-02  0.1098157E+00
         21   -1    0    0  502  501  0.00000000000E+00  0.00000000000E+00  0.33349494038E+03  0.33349494038E+03  0.00000000000E+00 0.  1.
         21   -1    0    0  501  502 -0.00000000000E+00 -0.00000000000E+00 -0.22763512487E+03  0.22763512487E+03  0.00000000000E+00 0.  1.
         25    1    1    2    0    0 -0.85968723792E+00 -0.54219437917E+02  0.10893791631E+03  0.17445044030E+03  0.12500000000E+03 0.  0.
         25    1    1    2    0    0  0.18941583734E+02  0.12908355790E+03 -0.10403850528E+03  0.20849546541E+03  0.12500000000E+03 0.  0.
         25    1    1    2    0    0 -0.18081896496E+02 -0.74864119988E+02  0.10096040447E+03  0.17818415954E+03  0.12500000000E+03 0.  0.
</event>
<event>
 5    0  0.5576108E-005  0.2710487E+03  0.7546771E-02  0.1100681E+00
         21   -1    0    0  502  501  0.00000000000E+00  0.00000000000E+00  0.11214750261E+03  0.11214750261E+03  0.00000000000E+00 0.  1.
         21   -1    0    0  501  502 -0.00000000000E+00 -0.00000000000E+00 -0.65509632105E+03  0.65509632105E+03  0.00000000000E+00 0.  1.
         25    1    1    2    0    0  0.30480056823E+02  0.76654513076E+02 -0.20785387700E+03  0.25618973910E+03  0.12500000000E+03 0.  0.
         25    1    1    2    0    0  0.80415090002E+02 -0.77478283208E+02 -0.29486719299E+03  0.33917714040E+03  0.12500000000E+03 0.  0.
         25    1    1    2    0    0 -0.11089514682E+03  0.82377013273E+00 -0.40227748447E+02  0.17187694415E+03  0.12500000000E+03 0.  0.
</event>
<event>
 5    0  0.5576108E-005  0.4758101E+03  0.7546771E-02  0.1020293E+00
         21   -1    0    0  502  501  0.00000000000E+00  0.00000000000E+00  0.21957741588E+03  0.21957741588E+03  0.00000000000E+00 0. -1.
         21   -1    0    0  501  502 -0.00000000000E+00 -0.00000000000E+00 -0.10310498057E+04  0.10310498057E+04  0.00000000000E+00 0. -1.
         25    1    1    2    0    0 -0.31002792267E+02 -0.56670436271E+02 -0.26419070605E+03  0.29932330454E+03  0.12500000000E+03 0.  0.
         25    1    1    2    0    0 -0.24620115079E+03  0.10833446358E+03 -0.56945002656E+03  0.64206673750E+03  0.12500000000E+03 0.  0.
         25    1    1    2    0    0  0.27720394306E+03 -0.51664027309E+02  0.22168342825E+02  0.30923717951E+03  0.12500000000E+03 0.  0.
</event>
<event>
 5    0  0.5576108E-005  0.2741418E+03  0.7546771E-02  0.1098932E+00
         21   -1    0    0  502  501  0.00000000000E+00  0.00000000000E+00  0.10112083536E+03  0.10112083536E+03  0.00000000000E+00 0.  1.
         21   -1    0    0  501  502 -0.00000000000E+00 -0.00000000000E+00 -0.74320722649E+03  0.74320722649E+03  0.00000000000E+00 0.  1.
         25    1    1    2    0    0 -0.29393273417E+02 -0.60439092665E+01  0.18492659268E+02  0.12987483131E+03  0.12500000000E+03 0.  0.
         25    1    1    2    0    0  0.39021586861E+02 -0.40766088101E+02 -0.30077090442E+03  0.33056420727E+03  0.12500000000E+03 0.  0.
         25    1    1    2    0    0 -0.96283134440E+01  0.46809997368E+02 -0.35980814599E+03  0.38388902328E+03  0.12500000000E+03 0.  0.
</event>
<event>
 5    0  0.6192775E-005  0.3523810E+03  0.7546771E-02  0.1061642E+00
         21   -1    0    0  502  501  0.00000000000E+00  0.00000000000E+00  0.41949814141E+03  0.41949814141E+03  0.00000000000E+00 0.  1.
         21   -1    0    0  501  502 -0.00000000000E+00 -0.00000000000E+00 -0.29600221797E+03  0.29600221797E+03  0.00000000000E+00 0.  1.
         25    1    1    2    0    0  0.15170353796E+03 -0.10514354801E+03  0.98239658540E+02  0.24360861978E+03  0.12500000000E+03 0.  0.
         25    1    1    2    0    0  0.84427967344E+02  0.10445119998E+03 -0.57360960466E+02  0.19223270958E+03  0.12500000000E+03 0.  0.
         25    1    1    2    0    0 -0.23613150531E+03  0.69234803364E+00  0.82617225369E+02  0.27965903002E+03  0.12500000000E+03 0.  0.
</event>
<event>
 5    0  0.6359451E-005  0.4629391E+03  0.7546771E-02  0.1023932E+00
         21   -1    0    0  502  501  0.00000000000E+00  0.00000000000E+00  0.85871401767E+03  0.85871401767E+03  0.00000000000E+00 0.  1.
         21   -1    0    0  501  502 -0.00000000000E+00 -0.00000000000E+00 -0.24957385771E+03  0.24957385771E+03  0.00000000000E+00 0.  1.
         25    1    1    2    0    0  0.63311258781E+02  0.16070689823E+03 -0.31476870713E+02  0.21552451373E+03  0.12500000000E+03 0.  0.
         25    1    1    2    0    0 -0.25027833480E+03  0.39633030043E+02  0.15759654575E+03  0.32353004988E+03  0.12500000000E+03 0.  0.
         25    1    1    2    0    0  0.18696707602E+03 -0.20033992828E+03  0.48302048493E+03  0.56923331178E+03  0.12500000000E+03 0.  0.
</event>
<event>
 5    0  0.5576108E-005  0.3649108E+03  0.7546771E-02  0.1056656E+00
         21   -1    0    0  502  501  0.00000000000E+00  0.00000000000E+00  0.92014152208E+03  0.92014152208E+03  0.00000000000E+00 0.  1.
         21   -1    0    0  501  502 -0.00000000000E+00 -0.00000000000E+00 -0.14471676033E+03  0.14471676033E+03  0.00000000000E+00 0.  1.
         25    1    1    2    0    0 -0.25357288719E+03  0.17317871685E+03  0.33985753832E+03  0.47478229058E+03  0.12500000000E+03 0.  0.
         25    1    1    2    0    0  0.14444775234E+03 -0.82727826579E+02  0.20809612351E+03  0.29434341010E+03  0.12500000000E+03 0.  0.
         25    1    1    2    0    0  0.10912513485E+03 -0.90450890275E+02  0.22747109991E+03  0.29573258174E+03  0.12500000000E+03 0.  0.
</event>
<event>
 5    0  0.5576108E-005  0.3150136E+03  0.7546771E-02  0.1077967E+00
         21   -1    0    0  502  501  0.00000000000E+00  0.00000000000E+00  0.28159281412E+03  0.28159281412E+03  0.00000000000E+00 0.  1.
         21   -1    0    0  501  502 -0.00000000000E+00 -0.00000000000E+00 -0.35240086844E+03  0.35240086844E+03  0.00000000000E+00 0.  1.
         25    1    1    2    0    0  0.52167675559E+02 -0.39082560011E+02 -0.25743055112E+03  0.29350366525E+03  0.12500000000E+03 0.  0.
         25    1    1    2    0    0 -0.40186087154E+02  0.65797447454E+02  0.55555298915E+02  0.15702107161E+03  0.12500000000E+03 0.  0.
         25    1    1    2    0    0 -0.11981588405E+02 -0.26714887443E+02  0.13106719788E+03  0.18346894569E+03  0.12500000000E+03 0.  0.
</event>
<event>
 5    0  0.5576108E-005  0.4012372E+03  0.7546771E-02  0.1043352E+00
         21   -1    0    0  502  501  0.00000000000E+00  0.00000000000E+00  0.13686743662E+04  0.13686743662E+04  0.00000000000E+00 0. -1.
         21   -1    0    0  501  502 -0.00000000000E+00 -0.00000000000E+00 -0.11762568749E+03  0.11762568749E+03  0.00000000000E+00 0. -1.
         25    1    1    2    0    0  0.14909775945E+03  0.16904026423E+03  0.11505855767E+03  0.28225560135E+03  0.12500000000E+03 0.  0.
         25    1    1    2    0    0 -0.30952210513E+02 -0.60268307058E+02  0.78958665096E+03  0.80228572687E+03  0.12500000000E+03 0.  0.
         25    1    1    2    0    0 -0.11814554894E+03 -0.10877195717E+03  0.34640347010E+03  0.40175872548E+03  0.12500000000E+03 0.  0.
</event>
<event>
 5    0  0.5576108E-005  0.2809224E+03  0.7546771E-02  0.1095186E+00
         21   -1    0    0  502  501  0.00000000000E+00  0.00000000000E+00  0.11343111180E+04  0.11343111180E+04  0.00000000000E+00 0. -1.
         21   -1    0    0  501  502 -0.00000000000E+00 -0.00000000000E+00 -0.69572971091E+02  0.69572971091E+02  0.00000000000E+00 0.  1.
         25    1    1    2    0    0 -0.10541483477E+02  0.69339525662E+02  0.14106781814E+03  0.20110748869E+03  0.12500000000E+03 0.  0.
         25    1    1    2    0    0 -0.40539563544E+02 -0.15966530885E+03  0.67310352825E+03  0.70415184925E+03  0.12500000000E+03 0.  0.
         25    1    1    2    0    0  0.51081047021E+02  0.90325783190E+02  0.25056680051E+03  0.29862475114E+03  0.12500000000E+03 0.  0.
</event>
<event>
 5    0  0.5576108E-005  0.3243788E+03  0.7546771E-02  0.1073652E+00
         21   -1    0    0  502  501  0.00000000000E+00  0.00000000000E+00  0.10430877758E+04  0.10430877758E+04  0.00000000000E+00 0. -1.
         21   -1    0    0  501  502 -0.00000000000E+00 -0.00000000000E+00 -0.10087510747E+03  0.10087510747E+03  0.00000000000E+00 0. -1.
         25    1    1    2    0    0  0.15371540541E+03 -0.22909567553E+02  0.35613327337E+03  0.40817788101E+03  0.12500000000E+03 0.  0.
         25    1    1    2    0    0  0.43832385669E+02 -0.15532036520E+02  0.43455283706E+03  0.45455878651E+03  0.12500000000E+03 0.  0.
         25    1    1    2    0    0 -0.19754779108E+03  0.38441604073E+02  0.15152655792E+03  0.28122621577E+03  0.12500000000E+03 0.  0.
</event>
<event>
 5    0  0.5576108E-005  0.2206196E+03  0.7546771E-02  0.1133422E+00
         21   -1    0    0  502  501  0.00000000000E+00  0.00000000000E+00  0.71956648319E+03  0.71956648319E+03  0.00000000000E+00 0.  1.
         21   -1    0    0  501  502 -0.00000000000E+00 -0.00000000000E+00 -0.67642101057E+02  0.67642101057E+02  0.00000000000E+00 0.  1.
         25    1    1    2    0    0 -0.91162573680E+02  0.13518494809E+01  0.24845787072E+03  0.29269225453E+03  0.12500000000E+03 0.  0.
         25    1    1    2    0    0  0.93272035843E+02 -0.71597043187E+01  0.26741965429E+03  0.30965982228E+03  0.12500000000E+03 0.  0.
         25    1    1    2    0    0 -0.21094621626E+01  0.58078548378E+01  0.13604685712E+03  0.18485650743E+03  0.12500000000E+03 0.  0.
</event>
<event>
 5    0  0.5576108E-005  0.2494497E+03  0.7546771E-02  0.1113653E+00
         21   -1    0    0  502  501  0.00000000000E+00  0.00000000000E+00  0.17250814256E+03  0.17250814256E+03  0.00000000000E+00 0. -1.
         21   -1    0    0  501  502 -0.00000000000E+00 -0.00000000000E+00 -0.36070855116E+03  0.36070855116E+03  0.00000000000E+00 0. -1.
         25    1    1    2    0    0 -0.21685068806E+02  0.20371720816E+02  0.54958118841E+02  0.13975208065E+03  0.12500000000E+03 0.  0.
         25    1    1    2    0    0 -0.13257342955E+02  0.63768358405E+02 -0.17427667731E+03  0.22414174295E+03  0.12500000000E+03 0.  0.
         25    1    1    2    0    0  0.34942411761E+02 -0.84140079222E+02 -0.68881850130E+02  0.16932287013E+03  0.12500000000E+03 0.  0.
</event>
<event>
 5    0  0.5576108E-005  0.3150999E+03  0.7546771E-02  0.1077927E+00
         21   -1    0    0  502  501  0.00000000000E+00  0.00000000000E+00  0.28252001464E+03  0.28252001464E+03  0.00000000000E+00 0.  1.
         21   -1    0    0  501  502 -0.00000000000E+00 -0.00000000000E+00 -0.35143685535E+03  0.35143685535E+03  0.00000000000E+00 0.  1.
         25    1    1    2    0    0  0.15287913580E+03 -0.91124703921E+02 -0.10514029067E+03  0.24156825650E+03  0.12500000000E+03 0.  0.
         25    1    1    2    0    0 -0.99182817934E+02  0.16836224238E+03  0.70953743486E+00  0.23196676373E+03  0.12500000000E+03 0.  0.
         25    1    1    2    0    0 -0.53696317863E+02 -0.77237538458E+02  0.35513912528E+02  0.16042184977E+03  0.12500000000E+03 0.  0.
</event>
<event>
 5    0  0.5576108E-005  0.2808141E+03  0.7546771E-02  0.1095245E+00
         21   -1    0    0  502  501  0.00000000000E+00  0.00000000000E+00  0.19327101347E+04  0.19327101347E+04  0.00000000000E+00 0.  1.
         21   -1    0    0  501  502 -0.00000000000E+00 -0.00000000000E+00 -0.40801026748E+02  0.40801026748E+02  0.00000000000E+00 0.  1.
         25    1    1    2    0    0  0.78464455769E+02  0.32306822262E+02  0.42412876141E+03  0.45023394789E+03  0.12500000000E+03 0.  0.
         25    1    1    2    0    0 -0.12954654993E+03 -0.62274787200E+02  0.36368362488E+03  0.41054991989E+03  0.12500000000E+03 0.  0.
         25    1    1    2    0    0  0.51082094156E+02  0.29967964938E+02  0.11040967217E+04  0.11127272936E+04  0.12500000000E+03 0.  0.
</event>
<event>
 5    0  0.5576108E-005  0.3495381E+03  0.7546771E-02  0.1062805E+00
         21   -1    0    0  502  501  0.00000000000E+00  0.00000000000E+00  0.40849242743E+02  0.40849242743E+02  0.00000000000E+00 0.  1.
         21   -1    0    0  501  502 -0.00000000000E+00 -0.00000000000E+00 -0.29909220608E+04  0.29909220608E+04  0.00000000000E+00 0.  1.
         25    1    1    2    0    0  0.36995059327E+02 -0.14085588269E+03 -0.59585709096E+03  0.62600294484E+03  0.12500000000E+03 0.  0.
         25    1    1    2    0    0 -0.11800672041E+03 -0.10947277141E+03 -0.10086182527E+04  0.10290022612E+04  0.12500000000E+03 0.  0.
         25    1    1    2    0    0  0.81011661085E+02  0.25032865411E+03 -0.13455974743E+04  0.13767660975E+04  0.12500000000E+03 0.  0.
</event>
<event>
 5    0  0.6201089E-005  0.2484058E+03  0.7546771E-02  0.1114317E+00
         21   -1    0    0  502  501  0.00000000000E+00  0.00000000000E+00  0.99731671190E+02  0.99731671190E+02  0.00000000000E+00 0.  1.
         21   -1    0    0  501  502 -0.00000000000E+00 -0.00000000000E+00 -0.61871442235E+03  0.61871442235E+03  0.00000000000E+00 0.  1.
         25    1    1    2    0    0 -0.82034013657E+02 -0.60100543328E+02 -0.86825953859E+02  0.18304480590E+03  0.12500000000E+03 0.  0.
         25    1    1    2    0    0 -0.35098342070E+02  0.69738280049E+01 -0.12895935798E+03  0.18312849015E+03  0.12500000000E+03 0.  0.
         25    1    1    2    0    0  0.11713235573E+03  0.53126715323E+02 -0.30319743932E+03  0.35227279749E+03  0.12500000000E+03 0.  0.
</event>
<event>
 5    0  0.5576108E-005  0.2731958E+03  0.7546771E-02  0.1099464E+00
         21   -1    0    0  502  501  0.00000000000E+00  0.00000000000E+00  0.62893109944E+03  0.62893109944E+03  0.00000000000E+00 0. -1.
         21   -1    0    0  501  502 -0.00000000000E+00 -0.00000000000E+00 -0.11867109657E+03  0.11867109657E+03  0.00000000000E+00 0. -1.
         25    1    1    2    0    0 -0.14810443838E+03  0.44250743757E+02  0.18894833661E+03  0.27426178534E+03  0.12500000000E+03 0.  0.
         25    1    1    2    0    0  0.16698098342E+03  0.12457216112E+02  0.18863777256E+03  0.28150850838E+03  0.12500000000E+03 0.  0.
         25    1    1    2    0    0 -0.18876545043E+02 -0.56707959868E+02  0.13267389370E+03  0.19183190229E+03  0.12500000000E+03 0.  0.
</event>
<event>
 5    0  0.5576108E-005  0.2642100E+03  0.7546771E-02  0.1104640E+00
         21   -1    0    0  502  501  0.00000000000E+00  0.00000000000E+00  0.61408356164E+02  0.61408356164E+02  0.00000000000E+00 0.  1.
         21   -1    0    0  501  502 -0.00000000000E+00 -0.00000000000E+00 -0.11367656587E+04  0.11367656587E+04  0.00000000000E+00 0.  1.
         25    1    1    2    0    0  0.75856350116E+01  0.63947819487E+02 -0.10279755898E+03  0.17418152487E+03  0.12500000000E+03 0.  0.
         25    1    1    2    0    0  0.65155244997E+02 -0.90644904202E+02 -0.42016182499E+03  0.45235236684E+03  0.12500000000E+03 0.  0.
         25    1    1    2    0    0 -0.72740880008E+02  0.26697084716E+02 -0.55239791858E+03  0.57164012317E+03  0.12500000000E+03 0.  0.
</event>
<event>
 5    0  0.5576108E-005  0.4296673E+03  0.7546771E-02  0.1033965E+00
         21   -1    0    0  502  501  0.00000000000E+00  0.00000000000E+00  0.15480140296E+03  0.15480140296E+03  0.00000000000E+00 0. -1.
         21   -1    0    0  501  502 -0.00000000000E+00 -0.00000000000E+00 -0.11925859021E+04  0.11925859021E+04  0.00000000000E+00 0. -1.
         25    1    1    2    0    0 -0.14085965511E+03  0.18556557687E+03 -0.20412984162E+03  0.33402098436E+03  0.12500000000E+03 0.  0.
         25    1    1    2    0    0 -0.78447370137E+02  0.82362574852E+02 -0.11053261737E+03  0.20194069208E+03  0.12500000000E+03 0.  0.
         25    1    1    2    0    0  0.21930702525E+03 -0.26792815172E+03 -0.72312204018E+03  0.81142562864E+03  0.12500000000E+03 0.  0.
</event>
<event>
 5    0  0.5576108E-005  0.3890181E+03  0.7546771E-02  0.1047650E+00
         21   -1    0    0  502  501  0.00000000000E+00  0.00000000000E+00  0.16989776752E+03  0.16989776752E+03  0.00000000000E+00 0. -1.
         21   -1    0    0  501  502 -0.00000000000E+00 -0.00000000000E+00 -0.89074192964E+03  0.89074192964E+03  0.00000000000E+00 0. -1.
         25    1    1    2    0    0 -0.10321231052E+02  0.10979157829E+03  0.46499921625E+02  0.17305479244E+03  0.12500000000E+03 0.  0.
         25    1    1    2    0    0 -0.73290673386E+02  0.10122561930E+03 -0.40720587584E+03  0.44391415175E+03  0.12500000000E+03 0.  0.
         25    1    1    2    0    0  0.83611904438E+02 -0.21101719759E+03 -0.36013820791E+03  0.44367075296E+03  0.12500000000E+03 0.  0.
</event>
<event>
 5    0  0.5576108E-005  0.3442431E+03  0.7546771E-02  0.1065003E+00
         21   -1    0    0  502  501  0.00000000000E+00  0.00000000000E+00  0.12444498555E+03  0.12444498555E+03  0.00000000000E+00 0. -1.
         21   -1    0    0  501  502 -0.00000000000E+00 -0.00000000000E+00 -0.95225457528E+03  0.95225457528E+03  0.00000000000E+00 0. -1.
         25    1    1    2    0    0  0.15004533981E+03  0.15010938388E+03 -0.18292709156E+03  0.30681224218E+03  0.12500000000E+03 0.  0.
         25    1    1    2    0    0 -0.19314740408E+03 -0.16315633350E+02 -0.31963372498E+03  0.39416092873E+03  0.12500000000E+03 0.  0.
         25    1    1    2    0    0  0.43102064272E+02 -0.13379375053E+03 -0.32524877320E+03  0.37572638993E+03  0.12500000000E+03 0.  0.
</event>
<event>
 5    0  0.5576108E-005  0.6627391E+03  0.7546771E-02  0.9783165E-01
         21   -1    0    0  502  501  0.00000000000E+00  0.00000000000E+00  0.89033499235E+03  0.89033499235E+03  0.00000000000E+00 0. -1.
         21   -1    0    0  501  502 -0.00000000000E+00 -0.00000000000E+00 -0.49332336119E+03  0.49332336119E+03  0.00000000000E+00 0. -1.
         25    1    1    2    0    0  0.41920711679E+03 -0.30842178505E+03  0.40358916683E+02  0.53676107014E+03  0.12500000000E+03 0.  0.
         25    1    1    2    0    0 -0.37387516788E+03  0.24315801324E+02  0.33259311784E+02  0.39636483342E+03  0.12500000000E+03 0.  0.
         25    1    1    2    0    0 -0.45331948917E+02  0.28410598372E+03  0.32339340269E+03  0.45053244998E+03  0.12500000000E+03 0.  0.
</event>
<event>
 5    0  0.5576108E-005  0.4385078E+03  0.7546771E-02  0.1031206E+00
         21   -1    0    0  502  501  0.00000000000E+00  0.00000000000E+00  0.15857977244E+04  0.15857977244E+04  0.00000000000E+00 0. -1.
         21   -1    0    0  501  502 -0.00000000000E+00 -0.00000000000E+00 -0.12125703717E+03  0.12125703717E+03  0.00000000000E+00 0. -1.
         25    1    1    2    0    0 -0.17656959032E+03 -0.62886812127E+01  0.50760311310E+03  0.55181725976E+03  0.12500000000E+03 0.  0.
         25    1    1    2    0    0  0.16911468756E+02 -0.18679304630E+03  0.80646986466E+03  0.83737463690E+03  0.12500000000E+03 0.  0.
         25    1    1    2    0    0  0.15965812157E+03  0.19308172751E+03  0.15046770944E+03  0.31786286487E+03  0.12500000000E+03 0.  0.
</event>
<event>
 5    0  0.5576108E-005  0.3364208E+03  0.7546771E-02  0.1068331E+00
         21   -1    0    0  502  501  0.00000000000E+00  0.00000000000E+00  0.13139666691E+04  0.13139666691E+04  0.00000000000E+00 0.  1.
         21   -1    0    0  501  502 -0.00000000000E+00 -0.00000000000E+00 -0.86135346560E+02  0.86135346560E+02  0.00000000000E+00 0.  1.
         25    1    1    2    0    0 -0.13346593007E+03 -0.41353307966E+01  0.83240154690E+03  0.85226028344E+03  0.12500000000E+03 0.  0.
         25    1    1    2    0    0 -0.28700336530E+02  0.76456065319E+02  0.23270554140E+03  0.27648889352E+03  0.12500000000E+03 0.  0.
         25    1    1    2    0    0  0.16216626660E+03 -0.72320734522E+02  0.16272423425E+03  0.27135283871E+03  0.12500000000E+03 0.  0.
</event>
<event>
 5    0  0.5576108E-005  0.2942448E+03  0.7546771E-02  0.1088153E+00
         21   -1    0    0  502  501  0.00000000000E+00  0.00000000000E+00  0.17632999130E+03  0.17632999130E+03  0.00000000000E+00 0.  1.
         21   -1    0    0  501  502 -0.00000000000E+00 -0.00000000000E+00 -0.49101112835E+03  0.49101112835E+03  0.00000000000E+00 0.  1.
         25    1    1    2    0    0 -0.48978223313E+02  0.13612607514E+03 -0.20040618785E+02  0.19223891670E+03  0.12500000000E+03 0.  0.
         25    1    1    2    0    0 -0.17683109741E+02 -0.83157484621E+02 -0.28614253717E+03  0.32362078301E+03  0.12500000000E+03 0.  0.
         25    1    1    2    0    0  0.66661333054E+02 -0.52968590520E+02 -0.84979810966E+01  0.15148141995E+03  0.12500000000E+03 0.  0.
</event>
<event>
 5    0  0.5576108E-005  0.3272931E+03  0.7546771E-02  0.1072341E+00
         21   -1    0    0  502  501  0.00000000000E+00  0.00000000000E+00  0.92995664770E+02  0.92995664770E+02  0.00000000000E+00 0. -1.
         21   -1    0    0  501  502 -0.00000000000E+00 -0.00000000000E+00 -0.11518896445E+04  0.11518896445E+04  0.00000000000E+00 0. -1.
         25    1    1    2    0    0 -0.13729408400E+02  0.37544658375E+02 -0.15514319225E+03  0.20320558095E+03  0.12500000000E+03 0.  0.
         25    1    1    2    0    0 -0.84807489782E+02 -0.22356041016E+03 -0.53286017053E+03  0.59727424911E+03  0.12500000000E+03 0.  0.
         25    1    1    2    0    0  0.98536898182E+02  0.18601575178E+03 -0.37089061697E+03  0.44440547923E+03  0.12500000000E+03 0.  0.
</event>
<event>
 5    0  0.5576108E-005  0.2280753E+03  0.7546771E-02  0.1128002E+00
         21   -1    0    0  502  501  0.00000000000E+00  0.00000000000E+00  0.14407237258E+04  0.14407237258E+04  0.00000000000E+00 0. -1.
         21   -1    0    0  501  502 -0.00000000000E+00 -0.00000000000E+00 -0.36105686882E+02  0.36105686882E+02  0.00000000000E+00 0. -1.
         25    1    1    2    0    0 -0.63353151040E+02 -0.21441450461E+02  0.23694449440E+03  0.27611782081E+03  0.12500000000E+03 0.  0.
         25    1    1    2    0    0  0.52362611026E+02 -0.54285212956E+01  0.39958568921E+03  0.42197752890E+03  0.12500000000E+03 0.  0.
         25    1    1    2    0    0  0.10990540015E+02  0.26869971756E+02  0.76808785535E+03  0.77873406301E+03  0.12500000000E+03 0.  0.
</event>
<event>
 5    0  0.5576108E-005  0.3403499E+03  0.7546771E-02  0.1066647E+00
         21   -1    0    0  502  501  0.00000000000E+00  0.00000000000E+00  0.28788975993E+03  0.28788975993E+03  0.00000000000E+00 0. -1.
         21   -1    0    0  501  502 -0.00000000000E+00 -0.00000000000E+00 -0.40236957921E+03  0.40236957921E+03  0.00000000000E+00 0. -1.
         25    1    1    2    0    0 -0.38583857886E+02 -0.99900581493E+02 -0.28299784951E+02  0.16701711918E+03  0.12500000000E+03 0.  0.
         25    1    1    2    0    0  0.67483879716E+02  0.26860542050E+03 -0.42068220683E+02  0.30675345334E+03  0.12500000000E+03 0.  0.
         25    1    1    2    0    0 -0.28900021829E+02 -0.16870483901E+03 -0.44111813649E+02  0.21648876661E+03  0.12500000000E+03 0.  0.
</event>
<event>
 5    0  0.5576108E-005  0.2154698E+03  0.7546771E-02  0.1137306E+00
         21   -1    0    0  502  501  0.00000000000E+00  0.00000000000E+00  0.21376497974E+03  0.21376497974E+03  0.00000000000E+00 0.  1.
         21   -1    0    0  501  502 -0.00000000000E+00 -0.00000000000E+00 -0.21718824655E+03  0.21718824655E+03  0.00000000000E+00 0.  1.
         25    1    1    2    0    0  0.16365079241E+02  0.77616675394E+02  0.34575884230E+02  0.15202847065E+03  0.12500000000E+03 0.  0.
         25    1    1    2    0    0 -0.28693755728E+02 -0.78366958471E+02 -0.13068757313E+02  0.15086584841E+03  0.12500000000E+03 0.  0.
         25    1    1    2    0    0  0.12328676487E+02  0.75028307649E+00 -0.24930393728E+02  0.12805890723E+03  0.12500000000E+03 0.  0.
</event>
<event>
 5    0  0.5576108E-005  0.3250293E+03  0.7546771E-02  0.1073358E+00
         21   -1    0    0  502  501  0.00000000000E+00  0.00000000000E+00  0.83837604579E+03  0.83837604579E+03  0.00000000000E+00 0. -1.
         21   -1    0    0  501  502 -0.00000000000E+00 -0.00000000000E+00 -0.12601035432E+03  0.12601035432E+03  0.00000000000E+00 0. -1.
         25    1    1    2    0    0  0.29564149092E+02 -0.37354638847E+02  0.49198270315E+03  0.50984447447E+03  0.12500000000E+03 0.  0.
         25    1    1    2    0    0 -0.10813958829E+03  0.42936207882E+02  0.25106568314E+03  0.30363903859E+03  0.12500000000E+03 0.  0.
         25    1    1    2    0    0  0.78575439198E+02 -0.55815690353E+01 -0.30682694819E+02  0.15090288705E+03  0.12500000000E+03 0.  0.
</event>
<event>
 5    0  0.5576108E-005  0.2929019E+03  0.7546771E-02  0.1088844E+00
         21   -1    0    0  502  501  0.00000000000E+00  0.00000000000E+00  0.64667288293E+03  0.64667288293E+03  0.00000000000E+00 0.  1.
         21   -1    0    0  501  502 -0.00000000000E+00 -0.00000000000E+00 -0.13266600682E+03  0.13266600682E+03  0.00000000000E+00 0.  1.
         25    1    1    2    0    0 -0.54939211812E+01  0.18825300470E+03  0.29842657922E+03  0.37436987076E+03  0.12500000000E+03 0.  0.
         25    1    1    2    0    0 -0.31831980455E+02 -0.16053419892E+03  0.15864892425E+03  0.25995958372E+03  0.12500000000E+03 0.  0.
         25    1    1    2    0    0  0.37325901636E+02 -0.27718805777E+02  0.56931372647E+02  0.14500943527E+03  0.12500000000E+03 0.  0.
</event>
<event>
 5    0  0.6078554E-005  0.5874753E+03  0.7546771E-02  0.9931737E-01
         21   -1    0    0  502  501  0.00000000000E+00  0.00000000000E+00  0.65564901275E+03  0.65564901275E+03  0.00000000000E+00 0. -1.
         21   -1    0    0  501  502 -0.00000000000E+00 -0.00000000000E+00 -0.52639015594E+03  0.52639015594E+03  0.00000000000E+00 0. -1.
         25    1    1    2    0    0 -0.11661560077E+03 -0.37931408290E+03 -0.11816485683E+03  0.43251162438E+03  0.12500000000E+03 0.  0.
         25    1    1    2    0    0  0.12242279677E+03  0.79429254882E+02  0.35798016780E+03  0.40628948822E+03  0.12500000000E+03 0.  0.
         25    1    1    2    0    0 -0.58071960009E+01  0.29988482802E+03 -0.11055645416E+03  0.34323805611E+03  0.12500000000E+03 0.  0.
</event>
<event>
 5    0  0.5576108E-005  0.2366205E+03  0.7546771E-02  0.1122065E+00
         21   -1    0    0  502  501  0.00000000000E+00  0.00000000000E+00  0.10397619492E+03  0.10397619492E+03  0.00000000000E+00 0.  1.
         21   -1    0    0  501  502 -0.00000000000E+00 -0.00000000000E+00 -0.53848148829E+03  0.53848148829E+03  0.00000000000E+00 0.  1.
         25    1    1    2    0    0  0.51886272330E+02 -0.16151346003E+02 -0.13437391503E+03  0.19140115014E+03  0.12500000000E+03 0.  0.
         25    1    1    2    0    0  0.58775376820E+02  0.66767945791E+02 -0.89702121584E+02  0.17771880633E+03  0.12500000000E+03 0.  0.
         25    1    1    2    0    0 -0.11066164915E+03 -0.50616599788E+02 -0.21042925676E+03  0.27333772675E+03  0.12500000000E+03 0.  0.
</event>
<event>
 5    0  0.5576108E-005  0.2551612E+03  0.7546771E-02  0.1110086E+00
         21   -1    0    0  502  501  0.00000000000E+00  0.00000000000E+00  0.52267934562E+03  0.52267934562E+03  0.00000000000E+00 0. -1.
         21   -1    0    0  501  502 -0.00000000000E+00 -0.00000000000E+00 -0.12456443605E+03  0.12456443605E+03  0.00000000000E+00 0. -1.
         25    1    1    2    0    0 -0.83365644893E+02  0.28616573480E+01  0.97139823057E+02  0.17893899814E+03  0.12500000000E+03 0.  0.
         25    1    1    2    0    0  0.10531319968E+03  0.98825585202E+02  0.20163262382E+03  0.27773743231E+03  0.12500000000E+03 0.  0.
         25    1    1    2    0    0 -0.21947554791E+02 -0.10168724255E+03  0.99342462691E+02  0.19056735122E+03  0.12500000000E+03 0.  0.
</event>
<event>
 5    0  0.5576108E-005  0.3164275E+03  0.7546771E-02  0.1077305E+00
         21   -1    0    0  502  501  0.00000000000E+00  0.00000000000E+00  0.27092642728E+03  0.27092642728E+03  0.00000000000E+00 0. -1.
         21   -1    0    0  501  502 -0.00000000000E+00 -0.00000000000E+00 -0.36957025486E+03  0.36957025486E+03  0.00000000000E+00 0. -1.
         25    1    1    2    0    0  0.20294494027E+02 -0.12915448262E+02  0.68906413905E+02  0.14474725962E+03  0.12500000000E+03 0.  0.
         25    1    1    2    0    0 -0.45316614630E+02  0.87534916883E+02 -0.27177736839E+03  0.31496649855E+03  0.12500000000E+03 0.  0.
         25    1    1    2    0    0  0.25022120604E+02 -0.74619468621E+02  0.10422712691E+03  0.18078292398E+03  0.12500000000E+03 0.  0.
</event>
<event>
 5    0  0.5576108E-005  0.2600676E+03  0.7546771E-02  0.1107103E+00
         21   -1    0    0  502  501  0.00000000000E+00  0.00000000000E+00  0.95455991763E+02  0.95455991763E+02  0.00000000000E+00 0. -1.
         21   -1    0    0  501  502 -0.00000000000E+00 -0.00000000000E+00 -0.70854798531E+03  0.70854798531E+03  0.00000000000E+00 0. -1.
         25    1    1    2    0    0 -0.86636656505E+02  0.19314847815E+02 -0.29214384406E+03  0.32992726352E+03  0.12500000000E+03 0.  0.
         25    1    1    2    0    0  0.13001438547E+03  0.46817299297E+02 -0.10982497716E+03  0.21629176025E+03  0.12500000000E+03 0.  0.
         25    1    1    2    0    0 -0.43377728969E+02 -0.66132147112E+02 -0.21112317233E+03  0.25778495330E+03  0.12500000000E+03 0.  0.
</event>
<event>
 5    0  0.5576108E-005  0.2272214E+03  0.7546771E-02  0.1128611E+00
         21   -1    0    0  502  501  0.00000000000E+00  0.00000000000E+00  0.75163695950E+03  0.75163695950E+03  0.00000000000E+00 0.  1.
         21   -1    0    0  501  502 -0.00000000000E+00 -0.00000000000E+00 -0.68689524894E+02  0.68689524894E+02  0.00000000000E+00 0.  1.
         25    1    1    2    0    0 -0.11938995276E-01  0.55522632294E+01  0.17670948922E+03  0.21652268091E+03  0.12500000000E+03 0.  0.
         25    1    1    2    0    0 -0.57657209933E+02  0.81368071244E+02  0.19177525928E+03  0.24969554852E+03  0.12500000000E+03 0.  0.
         25    1    1    2    0    0  0.57669148928E+02 -0.86920334474E+02  0.31446268610E+03  0.35410825496E+03  0.12500000000E+03 0.  0.
</event>
<event>
 5    0  0.5576108E-005  0.3063693E+03  0.7546771E-02  0.1082099E+00
         21   -1    0    0  502  501  0.00000000000E+00  0.00000000000E+00  0.41315083399E+03  0.41315083399E+03  0.00000000000E+00 0.  1.
         21   -1    0    0  501  502 -0.00000000000E+00 -0.00000000000E+00 -0.22718615676E+03  0.22718615676E+03  0.00000000000E+00 0.  1.
         25    1    1    2    0    0 -0.11252071539E+03 -0.90152540388E+02  0.22558147008E+01  0.19083626655E+03  0.12500000000E+03 0.  0.
         25    1    1    2    0    0  0.83599499270E+02 -0.64840236913E+02  0.18660483762E+03  0.24827303120E+03  0.12500000000E+03 0.  0.
         25    1    1    2    0    0  0.28921216119E+02  0.15499277730E+03 -0.28959750853E+01  0.20122769300E+03  0.12500000000E+03 0.  0.
</event>
<event>
 5    0  0.5576108E-005  0.4327020E+03  0.7546771E-02  0.1033010E+00
         21   -1    0    0  502  501  0.00000000000E+00  0.00000000000E+00  0.24503967993E+03  0.24503967993E+03  0.00000000000E+00 0.  1.
         21   -1    0    0  501  502 -0.00000000000E+00 -0.00000000000E+00 -0.76408465343E+03  0.76408465343E+03  0.00000000000E+00 0.  1.
         25    1    1    2    0    0  0.57147033597E+02 -0.34191114006E+02  0.73076768899E+02  0.15937386824E+03  0.12500000000E+03 0.  0.
         25    1    1    2    0    0 -0.13250956485E+03 -0.21337114965E+03 -0.44712696884E+03  0.52785751728E+03  0.12500000000E+03 0.  0.
         25    1    1    2    0    0  0.75362531256E+02  0.24756226366E+03 -0.14499477357E+03  0.32189294784E+03  0.12500000000E+03 0.  0.
</event>
<event>
 5    0  0.5576108E-005  0.2601223E+03  0.7546771E-02  0.1107070E+00
         21   -1    0    0  502  501  0.00000000000E+00  0.00000000000E+00  0.22704214206E+03  0.22704214206E+03  0.00000000000E+00 0. -1.
         21   -1    0    0  501  502 -0.00000000000E+00 -0.00000000000E+00 -0.29802216839E+03  0.29802216839E+03  0.00000000000E+00 0. -1.
         25    1    1    2    0    0  0.40778190579E+02  0.10886723959E+02  0.22678780344E+02  0.13386825114E+03  0.12500000000E+03 0.  0.
         25    1    1    2    0    0  0.25734205287E+02  0.89330901314E+02 -0.14234695572E+03  0.21102112466E+03  0.12500000000E+03 0.  0.
         25    1    1    2    0    0 -0.66512395866E+02 -0.10021762527E+03  0.48688149047E+02  0.18017493465E+03  0.12500000000E+03 0.  0.
</event>
<event>
 5    0  0.5576108E-005  0.4014920E+03  0.7546771E-02  0.1043264E+00
         21   -1    0    0  502  501  0.00000000000E+00  0.00000000000E+00  0.39475460255E+03  0.39475460255E+03  0.00000000000E+00 0. -1.
         21   -1    0    0  501  502 -0.00000000000E+00 -0.00000000000E+00 -0.40834434131E+03  0.40834434131E+03  0.00000000000E+00 0. -1.
         25    1    1    2    0    0  0.39178480392E+02  0.56702669975E+02  0.10837482263E+03  0.17922122723E+03  0.12500000000E+03 0.  0.
         25    1    1    2    0    0 -0.17664818269E+03 -0.25061022977E+03 -0.55087562385E+01  0.33115768768E+03  0.12500000000E+03 0.  0.
         25    1    1    2    0    0  0.13746970230E+03  0.19390755980E+03 -0.11645580515E+03  0.29272002895E+03  0.12500000000E+03 0.  0.
</event>
<event>
 5    0  0.5576108E-005  0.2426112E+03  0.7546771E-02  0.1118065E+00
         21   -1    0    0  502  501  0.00000000000E+00  0.00000000000E+00  0.97533454989E+02  0.97533454989E+02  0.00000000000E+00 0. -1.
         21   -1    0    0  501  502 -0.00000000000E+00 -0.00000000000E+00 -0.60348724606E+03  0.60348724606E+03  0.00000000000E+00 0. -1.
         25    1    1    2    0    0 -0.75762842052E+02  0.39861969320E+02 -0.10703125019E+03  0.18549844569E+03  0.12500000000E+03 0.  0.
         25    1    1    2    0    0  0.37854659145E+01 -0.69650608565E+02 -0.31501365729E+03  0.34601176469E+03  0.12500000000E+03 0.  0.
         25    1    1    2    0    0  0.71977376138E+02  0.29788639244E+02 -0.83908883595E+02  0.16951049068E+03  0.12500000000E+03 0.  0.
</event>
<event>
 5    0  0.5576108E-005  0.3753949E+03  0.7546771E-02  0.1052649E+00
         21   -1    0    0  502  501  0.00000000000E+00  0.00000000000E+00  0.24405342064E+03  0.24405342064E+03  0.00000000000E+00 0. -1.
         21   -1    0    0  501  502 -0.00000000000E+00 -0.00000000000E+00 -0.57741990221E+03  0.57741990221E+03  0.00000000000E+00 0. -1.
         25    1    1    2    0    0 -0.97482438712E+02 -0.32460035265E+02 -0.11107392826E+03  0.19626231754E+03  0.12500000000E+03 0.  0.
         25    1    1    2    0    0 -0.12908317121E+02  0.85660018275E+02  0.15013019308E+03  0.21370151674E+03  0.12500000000E+03 0.  0.
         25    1    1    2    0    0  0.11039075583E+03 -0.53199983010E+02 -0.37242274638E+03  0.41150948857E+03  0.12500000000E+03 0.  0.
</event>
<event>
 5    0  0.5576108E-005  0.2667956E+03  0.7546771E-02  0.1103128E+00
         21   -1    0    0  502  501  0.00000000000E+00  0.00000000000E+00  0.52528081678E+02  0.52528081678E+02  0.00000000000E+00 0.  1.
         21   -1    0    0  501  502 -0.00000000000E+00 -0.00000000000E+00 -0.13550828401E+04  0.13550828401E+04  0.00000000000E+00 0.  1.
         25    1    1    2    0    0 -0.20704732188E+02 -0.26111139857E+02 -0.10547310241E+03  0.16691330951E+03  0.12500000000E+03 0.  0.
         25    1    1    2    0    0  0.77821783271E+00  0.83278467605E+02 -0.90374246451E+03  0.91613937310E+03  0.12500000000E+03 0.  0.
         25    1    1    2    0    0  0.19926514355E+02 -0.57167327748E+02 -0.29333919146E+03  0.32455823912E+03  0.12500000000E+03 0.  0.
</event>
<event>
 5    0  0.5576108E-005  0.5760953E+03  0.7546771E-02  0.9956281E-01
         21   -1    0    0  502  501  0.00000000000E+00  0.00000000000E+00  0.31065230634E+03  0.31065230634E+03  0.00000000000E+00 0.  1.
         21   -1    0    0  501  502 -0.00000000000E+00 -0.00000000000E+00 -0.10683511583E+04  0.10683511583E+04  0.00000000000E+00 0.  1.
         25    1    1    2    0    0  0.11045611410E+03  0.12430182891E+03 -0.24575431023E+03  0.32198086715E+03  0.12500000000E+03 0.  0.
         25    1    1    2    0    0 -0.33886714804E+03  0.22385188469E+03 -0.58675988011E+02  0.42896209840E+03  0.12500000000E+03 0.  0.
         25    1    1    2    0    0  0.22841103394E+03 -0.34815371360E+03 -0.45326855369E+03  0.62806049907E+03  0.12500000000E+03 0.  0.
</event>
<event>
 5    0  0.5576108E-005  0.2651196E+03  0.7546771E-02  0.1104106E+00
         21   -1    0    0  502  501  0.00000000000E+00  0.00000000000E+00  0.19197183844E+03  0.19197183844E+03  0.00000000000E+00 0.  1.
         21   -1    0    0  501  502 -0.00000000000E+00 -0.00000000000E+00 -0.36613908302E+03  0.36613908302E+03  0.00000000000E+00 0.  1.
         25    1    1    2    0    0 -0.35887029030E+02 -0.11365336418E+03 -0.12714599916E+03  0.21446694651E+03  0.12500000000E+03 0.  0.
         25    1    1    2    0    0  0.34464448848E+02  0.10233636280E+03  0.62942871468E+02  0.17676915583E+03  0.12500000000E+03 0.  0.
         25    1    1    2    0    0  0.14225801812E+01  0.11317001382E+02 -0.10996411688E+03  0.16687481912E+03  0.12500000000E+03 0.  0.
</event>
<event>
 5    0  0.5576108E-005  0.2685903E+03  0.7546771E-02  0.1102089E+00
         21   -1    0    0  502  501  0.00000000000E+00  0.00000000000E+00  0.61571341448E+02  0.61571341448E+02  0.00000000000E+00 0.  1.
         21   -1    0    0  501  502 -0.00000000000E+00 -0.00000000000E+00 -0.11716608661E+04  0.11716608661E+04  0.00000000000E+00 0.  1.
         25    1    1    2    0    0 -0.47955190841E+02 -0.26103445543E+02 -0.22012766196E+03  0.25896385415E+03  0.12500000000E+03 0.  0.
         25    1    1    2    0    0  0.69858935114E+02  0.12187799631E+02 -0.10249317123E+03  0.17651816740E+03  0.12500000000E+03 0.  0.
         25    1    1    2    0    0 -0.21903744272E+02  0.13915645912E+02 -0.78746869148E+03  0.79775018601E+03  0.12500000000E+03 0.  0.
</event>
<event>
 5    0  0.5576108E-005  0.2648549E+03  0.7546771E-02  0.1104261E+00
         21   -1    0    0  502  501  0.00000000000E+00  0.00000000000E+00  0.10588611455E+03  0.10588611455E+03  0.00000000000E+00 0.  1.
         21   -1    0    0  501  502 -0.00000000000E+00 -0.00000000000E+00 -0.66248655856E+03  0.66248655856E+03  0.00000000000E+00 0.  1.
         25    1    1    2    0    0  0.30580665026E+02  0.67667423316E+02 -0.21185385049E+03  0.25694573594E+03  0.12500000000E+03 0.  0.
         25    1    1    2    0    0 -0.40157217079E+02  0.55723505470E+02 -0.29650896124E+03  0.32902929238E+03  0.12500000000E+03 0.  0.
         25    1    1    2    0    0  0.95765520529E+01 -0.12339092879E+03 -0.48237632276E+02  0.18239764479E+03  0.12500000000E+03 0.  0.
</event>
<event>
 5    0  0.5576108E-005  0.4705770E+03  0.7546771E-02  0.1021757E+00
         21   -1    0    0  502  501  0.00000000000E+00  0.00000000000E+00  0.12604321959E+04  0.12604321959E+04  0.00000000000E+00 0.  1.
         21   -1    0    0  501  502 -0.00000000000E+00 -0.00000000000E+00 -0.17568791357E+03  0.17568791357E+03  0.00000000000E+00 0.  1.
         25    1    1    2    0    0 -0.25591495982E+03  0.32184988394E+03  0.44092784983E+03  0.61572898519E+03  0.12500000000E+03 0.  0.
         25    1    1    2    0    0  0.17047236989E+03 -0.12741007633E+03  0.42172901137E+03  0.48864559292E+03  0.12500000000E+03 0.  0.
         25    1    1    2    0    0  0.85442589930E+02 -0.19443980762E+03  0.22208742117E+03  0.33174553140E+03  0.12500000000E+03 0.  0.
</event>
<event>
 5    0  0.5576108E-005  0.2766208E+03  0.7546771E-02  0.1097549E+00
         21   -1    0    0  502  501  0.00000000000E+00  0.00000000000E+00  0.10430953849E+03  0.10430953849E+03  0.00000000000E+00 0. -1.
         21   -1    0    0  501  502 -0.00000000000E+00 -0.00000000000E+00 -0.73357690912E+03  0.73357690912E+03  0.00000000000E+00 0. -1.
         25    1    1    2    0    0  0.12638130795E+03  0.75573970761E+02 -0.16253048516E+03  0.25243775205E+03  0.12500000000E+03 0.  0.
         25    1    1    2    0    0 -0.77773310571E+02  0.35037170062E+02 -0.33412223852E+03  0.36679553077E+03  0.12500000000E+03 0.  0.
         25    1    1    2    0    0 -0.48607997377E+02 -0.11061114082E+03 -0.13261464695E+03  0.21865316478E+03  0.12500000000E+03 0.  0.
</event>
<event>
 5    0  0.5576108E-005  0.3572930E+03  0.7546771E-02  0.1059661E+00
         21   -1    0    0  502  501  0.00000000000E+00  0.00000000000E+00  0.16811559531E+03  0.16811559531E+03  0.00000000000E+00 0.  1.
         21   -1    0    0  501  502 -0.00000000000E+00 -0.00000000000E+00 -0.75934835401E+03  0.75934835401E+03  0.00000000000E+00 0.  1.
         25    1    1    2    0    0 -0.98503300850E+02 -0.43193699617E+02 -0.23568817406E+03  0.28764998063E+03  0.12500000000E+03 0.  0.
         25    1    1    2    0    0  0.54929084704E+02  0.11982777360E+02  0.96583262307E+02  0.16767265089E+03  0.12500000000E+03 0.  0.
         25    1    1    2    0    0  0.43574216146E+02  0.31210922257E+02 -0.45212784695E+03  0.47214131780E+03  0.12500000000E+03 0.  0.
</event>
<event>
 5    0  0.5576108E-005  0.2284821E+03  0.7546771E-02  0.1127713E+00
         21   -1    0    0  502  501  0.00000000000E+00  0.00000000000E+00  0.24096840932E+03  0.24096840932E+03  0.00000000000E+00 0. -1.
         21   -1    0    0  501  502 -0.00000000000E+00 -0.00000000000E+00 -0.21664274146E+03  0.21664274146E+03  0.00000000000E+00 0. -1.
         25    1    1    2    0    0  0.12611069582E+02  0.23287257064E+02  0.55580518126E+02  0.13933961896E+03  0.12500000000E+03 0.  0.
         25    1    1    2    0    0  0.66972332461E+02 -0.63488261332E+02  0.19424599158E+02  0.15658342088E+03  0.12500000000E+03 0.  0.
         25    1    1    2    0    0 -0.79583402043E+02  0.40201004269E+02 -0.50679449429E+02  0.16168811094E+03  0.12500000000E+03 0.  0.
</event>
<event>
 5    0  0.3058282E-004  0.7678588E+03  0.7546771E-02  0.9607742E-01
         21   -1    0    0  502  501  0.00000000000E+00  0.00000000000E+00  0.46540758932E+03  0.46540758932E+03  0.00000000000E+00 0.  1.
         21   -1    0    0  501  502 -0.00000000000E+00 -0.00000000000E+00 -0.12668617682E+04  0.12668617682E+04  0.00000000000E+00 0.  1.
         25    1    1    2    0    0  0.11730875063E+02  0.20034286142E+03 -0.48223719586E+03  0.53707782362E+03  0.12500000000E+03 0.  0.
         25    1    1    2    0    0  0.20702470814E+03 -0.36110011403E+03 -0.62913171824E+03  0.76464648109E+03  0.12500000000E+03 0.  0.
         25    1    1    2    0    0 -0.21875558321E+03  0.16075725261E+03  0.30991473519E+03  0.43054505285E+03  0.12500000000E+03 0.  0.
</event>
<event>
 5    0  0.5576108E-005  0.2706822E+03  0.7546771E-02  0.1100890E+00
         21   -1    0    0  502  501  0.00000000000E+00  0.00000000000E+00  0.23208737396E+04  0.23208737396E+04  0.00000000000E+00 0. -1.
         21   -1    0    0  501  502 -0.00000000000E+00 -0.00000000000E+00 -0.31569517941E+02  0.31569517941E+02  0.00000000000E+00 0. -1.
         25    1    1    2    0    0  0.14924682902E+03  0.23670239591E+02  0.66350406031E+03  0.69187971083E+03  0.12500000000E+03 0.  0.
         25    1    1    2    0    0 -0.16838895630E+03 -0.23745540339E+01  0.99698192942E+03  0.10188024572E+04  0.12500000000E+03 0.  0.
         25    1    1    2    0    0  0.19142127272E+02 -0.21295685557E+02  0.62881823196E+03  0.64176108958E+03  0.12500000000E+03 0.  0.
</event>
<event>
 5    0  0.5576108E-005  0.3883114E+03  0.7546771E-02  0.1047904E+00
         21   -1    0    0  502  501  0.00000000000E+00  0.00000000000E+00  0.36144958019E+03  0.36144958019E+03  0.00000000000E+00 0. -1.
         21   -1    0    0  501  502 -0.00000000000E+00 -0.00000000000E+00 -0.41716951777E+03  0.41716951777E+03  0.00000000000E+00 0. -1.
         25    1    1    2    0    0 -0.11990034364E+03  0.11150727618E+03  0.20897720718E+03  0.29343898542E+03  0.12500000000E+03 0.  0.
         25    1    1    2    0    0  0.94368848466E+01  0.58205832246E+02 -0.13036025135E+02  0.13882331092E+03  0.12500000000E+03 0.  0.
         25    1    1    2    0    0  0.11046345880E+03 -0.16971310842E+03 -0.25166111963E+03  0.34635680162E+03  0.12500000000E+03 0.  0.
</event>
<event>
 5    0  0.5576108E-005  0.8870065E+03  0.7546771E-02  0.9441971E-01
         21   -1    0    0  502  501  0.00000000000E+00  0.00000000000E+00  0.68285178331E+03  0.68285178331E+03  0.00000000000E+00 0.  1.
         21   -1    0    0  501  502 -0.00000000000E+00 -0.00000000000E+00 -0.11521981854E+04  0.11521981854E+04  0.00000000000E+00 0.  1.
         25    1    1    2    0    0 -0.45852078787E+02  0.47685771368E+03 -0.18933595515E+03  0.53006489805E+03  0.12500000000E+03 0.  0.
         25    1    1    2    0    0  0.17406721899E+03  0.30980260943E+03  0.13191136421E+03  0.39912737509E+03  0.12500000000E+03 0.  0.
         25    1    1    2    0    0 -0.12821514020E+03 -0.78666032312E+03 -0.41192181118E+03  0.90585769559E+03  0.12500000000E+03 0.  0.
</event>
<event>
 5    0  0.5576108E-005  0.3423831E+03  0.7546771E-02  0.1065785E+00
         21   -1    0    0  502  501  0.00000000000E+00  0.00000000000E+00  0.43149382923E+03  0.43149382923E+03  0.00000000000E+00 0. -1.
         21   -1    0    0  501  502 -0.00000000000E+00 -0.00000000000E+00 -0.27167527938E+03  0.27167527938E+03  0.00000000000E+00 0. -1.
         25    1    1    2    0    0 -0.22429927870E+03  0.13081838028E+03  0.44844031824E+02  0.29164979382E+03  0.12500000000E+03 0.  0.
         25    1    1    2    0    0  0.22183909536E+02 -0.20743473094E+02  0.67775792071E+02  0.14539936557E+03  0.12500000000E+03 0.  0.
         25    1    1    2    0    0  0.20211536916E+03 -0.11007490719E+03  0.47198725950E+02  0.26611994922E+03  0.12500000000E+03 0.  0.
</event>
<event>
 5    0  0.5576108E-005  0.3006252E+03  0.7546771E-02  0.1084928E+00
         21   -1    0    0  502  501  0.00000000000E+00  0.00000000000E+00  0.15133537612E+03  0.15133537612E+03  0.00000000000E+00 0.  1.
         21   -1    0    0  501  502 -0.00000000000E+00 -0.00000000000E+00 -0.59718712417E+03  0.59718712417E+03  0.00000000000E+00 0.  1.
         25    1    1    2    0    0 -0.15485186732E+03 -0.87397800827E+02 -0.19681770673E+03  0.29322292899E+03  0.12500000000E+03 0.  0.
         25    1    1    2    0    0 -0.17650853448E+02 -0.30489316872E+02 -0.13193518592E+03  0.18512980407E+03  0.12500000000E+03 0.  0.
         25    1    1    2    0    0  0.17250272077E+03  0.11788711770E+03 -0.11709885541E+03  0.27016976724E+03  0.12500000000E+03 0.  0.
</event>
<event>
 5    0  0.5576108E-005  0.2275360E+03  0.7546771E-02  0.1128386E+00
         21   -1    0    0  502  501  0.00000000000E+00  0.00000000000E+00  0.13101356895E+04  0.13101356895E+04  0.00000000000E+00 0. -1.
         21   -1    0    0  501  502 -0.00000000000E+00 -0.00000000000E+00 -0.39516990006E+02  0.39516990006E+02  0.00000000000E+00 0. -1.
         25    1    1    2    0    0 -0.51931700164E+02 -0.28221685024E+02  0.58396595887E+03  0.60011216127E+03  0.12500000000E+03 0.  0.
         25    1    1    2    0    0 -0.21898657108E+02  0.28919063119E+02  0.17757987102E+03  0.22017146497E+03  0.12500000000E+03 0.  0.
         25    1    1    2    0    0  0.73830357272E+02 -0.69737809407E+00  0.50907286964E+03  0.52936905330E+03  0.12500000000E+03 0.  0.
</event>
<event>
 5    0  0.5576108E-005  0.2152197E+03  0.7546771E-02  0.1137498E+00
         21   -1    0    0  502  501  0.00000000000E+00  0.00000000000E+00  0.56033831663E+02  0.56033831663E+02  0.00000000000E+00 0.  1.
         21   -1    0    0  501  502 -0.00000000000E+00 -0.00000000000E+00 -0.82663487313E+03  0.82663487313E+03  0.00000000000E+00 0.  1.
         25    1    1    2    0    0  0.24806261109E+02 -0.63605563879E+01 -0.35136510739E+03  0.37381579148E+03  0.12500000000E+03 0.  0.
         25    1    1    2    0    0  0.24848099622E+02 -0.46993140665E+02 -0.14436249766E+03  0.19822036741E+03  0.12500000000E+03 0.  0.
         25    1    1    2    0    0 -0.49654360731E+02  0.53353697053E+02 -0.27487343641E+03  0.31063254590E+03  0.12500000000E+03 0.  0.
</event>
<event>
 5    0  0.5576108E-005  0.2502898E+03  0.7546771E-02  0.1113122E+00
         21   -1    0    0  502  501  0.00000000000E+00  0.00000000000E+00  0.11277965327E+03  0.11277965327E+03  0.00000000000E+00 0. -1.
         21   -1    0    0  501  502 -0.00000000000E+00 -0.00000000000E+00 -0.55546364195E+03  0.55546364195E+03  0.00000000000E+00 0. -1.
         25    1    1    2    0    0 -0.69888954495E+01 -0.62848759775E+02 -0.90676394445E+02  0.16687126707E+03  0.12500000000E+03 0.  0.
         25    1    1    2    0    0  0.55065992808E+02  0.13356659123E+03 -0.26507530268E+03  0.32674487594E+03  0.12500000000E+03 0.  0.
         25    1    1    2    0    0 -0.48077097359E+02 -0.70717831459E+02 -0.86932291542E+02  0.17462715221E+03  0.12500000000E+03 0.  0.
</event>
<event>
 5    0  0.5576108E-005  0.3744150E+03  0.7546771E-02  0.1053018E+00
         21   -1    0    0  502  501  0.00000000000E+00  0.00000000000E+00  0.57606651945E+03  0.57606651945E+03  0.00000000000E+00 0. -1.
         21   -1    0    0  501  502 -0.00000000000E+00 -0.00000000000E+00 -0.24335142521E+03  0.24335142521E+03  0.00000000000E+00 0. -1.
         25    1    1    2    0    0 -0.86181581646E+02 -0.13788464777E+03  0.50564838047E+02  0.21123741135E+03  0.12500000000E+03 0.  0.
         25    1    1    2    0    0 -0.17266195478E+03  0.12125409647E+03  0.86376770482E+02  0.26000125580E+03  0.12500000000E+03 0.  0.
         25    1    1    2    0    0  0.25884353642E+03  0.16630551300E+02  0.19577348571E+03  0.34817927752E+03  0.12500000000E+03 0.  0.
</event>
<event>
 5    0  0.5576108E-005  0.2860403E+03  0.7546771E-02  0.1092435E+00
         21   -1    0    0  502  501  0.00000000000E+00  0.00000000000E+00  0.95456266515E+02  0.95456266515E+02  0.00000000000E+00 0. -1.
         21   -1    0    0  501  502 -0.00000000000E+00 -0.00000000000E+00 -0.85713658049E+03  0.85713658049E+03  0.00000000000E+00 0. -1.
         25    1    1    2    0    0 -0.10711974745E+03  0.32746151749E+01 -0.24688823503E+03  0.29675606817E+03  0.12500000000E+03 0.  0.
         25    1    1    2    0    0  0.10866862786E+03 -0.41137596946E+02 -0.49516769645E+03  0.52375301448E+03  0.12500000000E+03 0.  0.
         25    1    1    2    0    0 -0.15488804120E+01  0.37862981771E+02 -0.19624382495E+02  0.13208376436E+03  0.12500000000E+03 0.  0.
</event>
<event>
 5    0  0.5576108E-005  0.3056720E+03  0.7546771E-02  0.1082439E+00
         21   -1    0    0  502  501  0.00000000000E+00  0.00000000000E+00  0.36407555394E+03  0.36407555394E+03  0.00000000000E+00 0. -1.
         21   -1    0    0  501  502 -0.00000000000E+00 -0.00000000000E+00 -0.25663729942E+03  0.25663729942E+03  0.00000000000E+00 0. -1.
         25    1    1    2    0    0 -0.17500531271E+03 -0.44505438738E+02  0.31325703671E+02  0.22184204576E+03  0.12500000000E+03 0.  0.
         25    1    1    2    0    0  0.21984158691E+03  0.18107296157E+02  0.71355539395E+02  0.26339098411E+03  0.12500000000E+03 0.  0.
         25    1    1    2    0    0 -0.44836274195E+02  0.26398142581E+02  0.47570114576E+01  0.13547982349E+03  0.12500000000E+03 0.  0.
</event>
<event>
 5    0  0.5576108E-005  0.2702444E+03  0.7546771E-02  0.1101140E+00
         21   -1    0    0  502  501  0.00000000000E+00  0.00000000000E+00  0.12973673640E+04  0.12973673640E+04  0.00000000000E+00 0. -1.
         21   -1    0    0  501  502 -0.00000000000E+00 -0.00000000000E+00 -0.56292466649E+02  0.56292466649E+02  0.00000000000E+00 0. -1.
         25    1    1    2    0    0 -0.34365949713E+02  0.19237393091E+02  0.76916679205E+03  0.78025229880E+03  0.12500000000E+03 0.  0.
         25    1    1    2    0    0 -0.83772618104E+02  0.57333471690E+01  0.19322737127E+03  0.24497456975E+03  0.12500000000E+03 0.  0.
         25    1    1    2    0    0  0.11813856782E+03 -0.24970740260E+02  0.27868073403E+03  0.32843296210E+03  0.12500000000E+03 0.  0.
</event>
<event>
 5    0  0.5576108E-005  0.2296552E+03  0.7546771E-02  0.1126883E+00
         21   -1    0    0  502  501  0.00000000000E+00  0.00000000000E+00  0.91939305118E+03  0.91939305118E+03  0.00000000000E+00 0.  1.
         21   -1    0    0  501  502 -0.00000000000E+00 -0.00000000000E+00 -0.57365596671E+02  0.57365596671E+02  0.00000000000E+00 0.  1.
         25    1    1    2    0    0 -0.64832582373E+02 -0.22998661097E+02  0.24761950450E+03  0.28578422133E+03  0.12500000000E+03 0.  0.
         25    1    1    2    0    0  0.32970522268E+02 -0.15456182060E+02  0.49233253050E+03  0.50925658512E+03  0.12500000000E+03 0.  0.
         25    1    1    2    0    0  0.31862060105E+02  0.38454843157E+02  0.12207541951E+03  0.18171784141E+03  0.12500000000E+03 0.  0.
</event>
<event>
 5    0  0.5576108E-005  0.2317348E+03  0.7546771E-02  0.1125425E+00
         21   -1    0    0  502  501  0.00000000000E+00  0.00000000000E+00  0.55739878936E+02  0.55739878936E+02  0.00000000000E+00 0.  1.
         21   -1    0    0  501  502 -0.00000000000E+00 -0.00000000000E+00 -0.96342172335E+03  0.96342172335E+03  0.00000000000E+00 0.  1.
         25    1    1    2    0    0 -0.90181429701E+02  0.19812318555E+02 -0.49606644926E+03  0.51983857140E+03  0.12500000000E+03 0.  0.
         25    1    1    2    0    0  0.23892359001E+01 -0.30532209448E+02 -0.16894852305E+03  0.21238297414E+03  0.12500000000E+03 0.  0.
         25    1    1    2    0    0  0.87792193801E+02  0.10719890893E+02 -0.24266687210E+03  0.28694005675E+03  0.12500000000E+03 0.  0.
</event>
<event>
 5    0  0.5576108E-005  0.3450954E+03  0.7546771E-02  0.1064646E+00
         21   -1    0    0  502  501  0.00000000000E+00  0.00000000000E+00  0.13780075164E+03  0.13780075164E+03  0.00000000000E+00 0. -1.
         21   -1    0    0  501  502 -0.00000000000E+00 -0.00000000000E+00 -0.86422507051E+03  0.86422507051E+03  0.00000000000E+00 0. -1.
         25    1    1    2    0    0 -0.15679047294E+03  0.15174708377E+02 -0.24356435764E+03  0.31585142154E+03  0.12500000000E+03 0.  0.
         25    1    1    2    0    0  0.13587306630E+03 -0.13772860006E+03 -0.45184229656E+03  0.50716577012E+03  0.12500000000E+03 0.  0.
         25    1    1    2    0    0  0.20917406641E+02  0.12255389168E+03 -0.31017664674E+02  0.17900863048E+03  0.12500000000E+03 0.  0.
</event>
<event>
 5    0  0.5576108E-005  0.4379784E+03  0.7546771E-02  0.1031369E+00
         21   -1    0    0  502  501  0.00000000000E+00  0.00000000000E+00  0.11654330891E+04  0.11654330891E+04  0.00000000000E+00 0. -1.
         21   -1    0    0  501  502 -0.00000000000E+00 -0.00000000000E+00 -0.16459550552E+03  0.16459550552E+03  0.00000000000E+00 0. -1.
         25    1    1    2    0    0 -0.31379622497E+03  0.76029289339E+02  0.47217528517E+03  0.58551090815E+03  0.12500000000E+03 0.  0.
         25    1    1    2    0    0  0.71007967365E+00  0.82865436933E+02  0.17847158349E+03  0.23311861995E+03  0.12500000000E+03 0.  0.
         25    1    1    2    0    0  0.31308614530E+03 -0.15889472627E+03  0.35019071489E+03  0.51139906649E+03  0.12500000000E+03 0.  0.
</event>
<event>
 5    0  0.5576108E-005  0.3879107E+03  0.7546771E-02  0.1048048E+00
         21   -1    0    0  502  501  0.00000000000E+00  0.00000000000E+00  0.55491742990E+03  0.55491742990E+03  0.00000000000E+00 0.  1.
         21   -1    0    0  501  502 -0.00000000000E+00 -0.00000000000E+00 -0.27116591054E+03  0.27116591054E+03  0.00000000000E+00 0.  1.
         25    1    1    2    0    0 -0.19037227615E+02  0.45233384682E+02  0.13400492355E+03  0.18971239986E+03  0.12500000000E+03 0.  0.
         25    1    1    2    0    0 -0.85134622101E+02 -0.21399799404E+03 -0.11200995669E+03  0.28498118487E+03  0.12500000000E+03 0.  0.
         25    1    1    2    0    0  0.10417184972E+03  0.16876460935E+03  0.26175655250E+03  0.35138975571E+03  0.12500000000E+03 0.  0.
</event>
<event>
 5    0  0.5576108E-005  0.2742700E+03  0.7546771E-02  0.1098860E+00
         21   -1    0    0  502  501  0.00000000000E+00  0.00000000000E+00  0.41408946919E+03  0.41408946919E+03  0.00000000000E+00 0. -1.
         21   -1    0    0  501  502 -0.00000000000E+00 -0.00000000000E+00 -0.18166128227E+03  0.18166128227E+03  0.00000000000E+00 0. -1.
         25    1    1    2    0    0  0.73926221244E+02  0.39927004577E+01  0.13004941397E+03  0.19498430173E+03  0.12500000000E+03 0.  0.
         25    1    1    2    0    0  0.99370626586E+02  0.27423908391E+02  0.62488921329E+00  0.16202463599E+03  0.12500000000E+03 0.  0.
         25    1    1    2    0    0 -0.17329684783E+03 -0.31416608849E+02  0.10175388373E+03  0.23874181375E+03  0.12500000000E+03 0.  0.
</event>
<event>
 5    0  0.5576108E-005  0.2863754E+03  0.7546771E-02  0.1092257E+00
         21   -1    0    0  502  501  0.00000000000E+00  0.00000000000E+00  0.28923582877E+03  0.28923582877E+03  0.00000000000E+00 0.  1.
         21   -1    0    0  501  502 -0.00000000000E+00 -0.00000000000E+00 -0.28354318705E+03  0.28354318705E+03  0.00000000000E+00 0.  1.
         25    1    1    2    0    0  0.10524655421E+03 -0.12483843847E+03  0.99296024477E+02  0.22835536641E+03  0.12500000000E+03 0.  0.
         25    1    1    2    0    0 -0.10273559382E+03  0.12730700973E+03 -0.67643311344E+02  0.21670785526E+03  0.12500000000E+03 0.  0.
         25    1    1    2    0    0 -0.25109603940E+01 -0.24685712552E+01 -0.25960071407E+02  0.12771579414E+03  0.12500000000E+03 0.  0.
</event>
<event>
 5    0  0.5576108E-005  0.3165003E+03  0.7546771E-02  0.1077271E+00
         21   -1    0    0  502  501  0.00000000000E+00  0.00000000000E+00  0.82601125553E+03  0.82601125553E+03  0.00000000000E+00 0.  1.
         21   -1    0    0  501  502 -0.00000000000E+00 -0.00000000000E+00 -0.12127249661E+03  0.12127249661E+03  0.00000000000E+00 0.  1.
         25    1    1    2    0    0  0.55361870758E+02  0.49702522971E+02  0.25054717384E+03  0.28971393449E+03  0.12500000000E+03 0.  0.
         25    1    1    2    0    0  0.95344053645E+02 -0.12554285089E+03  0.58338400870E+02  0.20947521331E+03  0.12500000000E+03 0.  0.
         25    1    1    2    0    0 -0.15070592440E+03  0.75840327915E+02  0.39585318422E+03  0.44809460434E+03  0.12500000000E+03 0.  0.
</event>
<event>
 5    0  0.5576108E-005  0.4100510E+03  0.7546771E-02  0.1040354E+00
         21   -1    0    0  502  501  0.00000000000E+00  0.00000000000E+00  0.17406279297E+03  0.17406279297E+03  0.00000000000E+00 0. -1.
         21   -1    0    0  501  502 -0.00000000000E+00 -0.00000000000E+00 -0.96598376058E+03  0.96598376058E+03  0.00000000000E+00 0.  1.
         25    1    1    2    0    0  0.54748647208E+02  0.23485912605E+03 -0.54181955452E+03  0.60609376595E+03  0.12500000000E+03 0.  0.
         25    1    1    2    0    0  0.41049675420E+02  0.52140370136E+02 -0.10308735848E+03  0.17508768525E+03  0.12500000000E+03 0.  0.
         25    1    1    2    0    0 -0.95798322628E+02 -0.28699949618E+03 -0.14701405461E+03  0.35886510235E+03  0.12500000000E+03 0.  0.
</event>
<event>
 5    0  0.5576108E-005  0.2900401E+03  0.7546771E-02  0.1090328E+00
         21   -1    0    0  502  501  0.00000000000E+00  0.00000000000E+00  0.89723589514E+03  0.89723589514E+03  0.00000000000E+00 0.  1.
         21   -1    0    0  501  502 -0.00000000000E+00 -0.00000000000E+00 -0.93758219259E+02  0.93758219259E+02  0.00000000000E+00 0.  1.
         25    1    1    2    0    0 -0.92246601954E+00  0.98421692760E+02  0.31565102913E+03  0.35348020134E+03  0.12500000000E+03 0.  0.
         25    1    1    2    0    0  0.12660680444E+03 -0.70337242872E+02  0.38688247302E+03  0.43160127270E+03  0.12500000000E+03 0.  0.
         25    1    1    2    0    0 -0.12568433842E+03 -0.28084449889E+02  0.10094417373E+03  0.20591264036E+03  0.12500000000E+03 0.  0.
</event>
<event>
 5    0  0.5576108E-005  0.6048477E+03  0.7546771E-02  0.9895399E-01
         21   -1    0    0  502  501  0.00000000000E+00  0.00000000000E+00  0.64054270638E+03  0.64054270638E+03  0.00000000000E+00 0. -1.
         21   -1    0    0  501  502 -0.00000000000E+00 -0.00000000000E+00 -0.57114190678E+03  0.57114190678E+03  0.00000000000E+00 0. -1.
         25    1    1    2    0    0  0.17124810596E+03 -0.48124532286E+02  0.70293871490E+02  0.22849094681E+03  0.12500000000E+03 0.  0.
         25    1    1    2    0    0  0.34484246297E+03 -0.47068538419E+02  0.18381621390E+03  0.41297115162E+03  0.12500000000E+03 0.  0.
         25    1    1    2    0    0 -0.51609056894E+03  0.95193070705E+02 -0.18470928579E+03  0.57022251474E+03  0.12500000000E+03 0.  0.
</event>
<event>
 5    0  0.5576108E-005  0.2372421E+03  0.7546771E-02  0.1121644E+00
         21   -1    0    0  502  501  0.00000000000E+00  0.00000000000E+00  0.13365244091E+03  0.13365244091E+03  0.00000000000E+00 0.  1.
         21   -1    0    0  501  502 -0.00000000000E+00 -0.00000000000E+00 -0.42112077570E+03  0.42112077570E+03  0.00000000000E+00 0.  1.
         25    1    1    2    0    0 -0.25150967439E+02  0.59377314185E+02 -0.51654983666E+02  0.14983815916E+03  0.12500000000E+03 0.  0.
         25    1    1    2    0    0 -0.39153570316E+02  0.39262625206E+02 -0.17645447234E+03  0.22323919149E+03  0.12500000000E+03 0.  0.
         25    1    1    2    0    0  0.64304537754E+02 -0.98639939390E+02 -0.59358878776E+02  0.18169586596E+03  0.12500000000E+03 0.  0.
</event>
<event>
 5    0  0.5576108E-005  0.2414811E+03  0.7546771E-02  0.1118810E+00
         21   -1    0    0  502  501  0.00000000000E+00  0.00000000000E+00  0.54717726236E+03  0.54717726236E+03  0.00000000000E+00 0. -1.
         21   -1    0    0  501  502 -0.00000000000E+00 -0.00000000000E+00 -0.10657079087E+03  0.10657079087E+03  0.00000000000E+00 0. -1.
         25    1    1    2    0    0  0.21767743618E+02 -0.17204002829E+02  0.44463387877E+02  0.13554263254E+03  0.12500000000E+03 0.  0.
         25    1    1    2    0    0 -0.41776775628E+02  0.15906801372E+02  0.36419922005E+03  0.38763951966E+03  0.12500000000E+03 0.  0.
         25    1    1    2    0    0  0.20009032011E+02  0.12972014566E+01  0.31943863555E+02  0.13056590103E+03  0.12500000000E+03 0.  0.
</event>
<event>
 5    0  0.5576108E-005  0.3603403E+03  0.7546771E-02  0.1058449E+00
         21   -1    0    0  502  501  0.00000000000E+00  0.00000000000E+00  0.71165007027E+02  0.71165007027E+02  0.00000000000E+00 0.  1.
         21   -1    0    0  501  502 -0.00000000000E+00 -0.00000000000E+00 -0.18245647774E+04  0.18245647774E+04  0.00000000000E+00 0.  1.
         25    1    1    2    0    0  0.15162002427E+01  0.75791020049E+01 -0.13212226923E+04  0.13271451105E+04  0.12500000000E+03 0.  0.
         25    1    1    2    0    0 -0.40278293393E+02 -0.11020718562E+03 -0.10360016658E+03  0.20031465047E+03  0.12500000000E+03 0.  0.
         25    1    1    2    0    0  0.38762093150E+02  0.10262808361E+03 -0.32857691148E+03  0.36827002345E+03  0.12500000000E+03 0.  0.
</event>
<event>
 5    0  0.5576108E-005  0.2956891E+03  0.7546771E-02  0.1087416E+00
         21   -1    0    0  502  501  0.00000000000E+00  0.00000000000E+00  0.15880372939E+03  0.15880372939E+03  0.00000000000E+00 0.  1.
         21   -1    0    0  501  502 -0.00000000000E+00 -0.00000000000E+00 -0.55056685479E+03  0.55056685479E+03  0.00000000000E+00 0.  1.
         25    1    1    2    0    0 -0.14871216185E+03  0.90203721024E+01 -0.20854245724E+03  0.28515194312E+03  0.12500000000E+03 0.  0.
         25    1    1    2    0    0 -0.69825103093E+01  0.61547786920E+02  0.68331740914E+01  0.13967311049E+03  0.12500000000E+03 0.  0.
         25    1    1    2    0    0  0.15569467216E+03 -0.70568159023E+02 -0.19005384225E+03  0.28454553056E+03  0.12500000000E+03 0.  0.
</event>
<event>
 5    0  0.5576108E-005  0.3027906E+03  0.7546771E-02  0.1083854E+00
         21   -1    0    0  502  501  0.00000000000E+00  0.00000000000E+00  0.31037587477E+03  0.31037587477E+03  0.00000000000E+00 0. -1.
         21   -1    0    0  501  502 -0.00000000000E+00 -0.00000000000E+00 -0.29539062852E+03  0.29539062852E+03  0.00000000000E+00 0. -1.
         25    1    1    2    0    0 -0.11237442445E+02 -0.62225696240E+02 -0.49210436222E+01  0.14016966168E+03  0.12500000000E+03 0.  0.
         25    1    1    2    0    0  0.34247705475E+02 -0.15684130902E+03 -0.34984484489E+02  0.20644857883E+03  0.12500000000E+03 0.  0.
         25    1    1    2    0    0 -0.23010263031E+02  0.21906700526E+03  0.54890774359E+02  0.25914826279E+03  0.12500000000E+03 0.  0.
</event>
<event>
 5    0  0.5576108E-005  0.2211477E+03  0.7546771E-02  0.1133030E+00
         21   -1    0    0  502  501  0.00000000000E+00  0.00000000000E+00  0.27876228034E+03  0.27876228034E+03  0.00000000000E+00 0. -1.
         21   -1    0    0  501  502 -0.00000000000E+00 -0.00000000000E+00 -0.17544088656E+03  0.17544088656E+03  0.00000000000E+00 0. -1.
         25    1    1    2    0    0 -0.52250589802E+01  0.67432691994E+02  0.29329833083E+02  0.14511963444E+03  0.12500000000E+03 0.  0.
         25    1    1    2    0    0 -0.30548428093E+00 -0.25009953884E+02  0.11402497682E+03  0.17103299814E+03  0.12500000000E+03 0.  0.
         25    1    1    2    0    0  0.55305432611E+01 -0.42422738109E+02 -0.40033416128E+02  0.13805053431E+03  0.12500000000E+03 0.  0.
</event>
<event>
 5    0  0.5576108E-005  0.4260917E+03  0.7546771E-02  0.1035102E+00
         21   -1    0    0  502  501  0.00000000000E+00  0.00000000000E+00  0.75067993368E+03  0.75067993368E+03  0.00000000000E+00 0. -1.
         21   -1    0    0  501  502 -0.00000000000E+00 -0.00000000000E+00 -0.24185290805E+03  0.24185290805E+03  0.00000000000E+00 0. -1.
         25    1    1    2    0    0 -0.31376229592E+03 -0.81593059710E+02  0.67197413420E+02  0.35389927678E+03  0.12500000000E+03 0.  0.
         25    1    1    2    0    0  0.82938106221E+02 -0.29256171419E+02  0.25728789803E+03  0.29926028053E+03  0.12500000000E+03 0.  0.
         25    1    1    2    0    0  0.23082418970E+03  0.11084923113E+03  0.18434171418E+03  0.33937328443E+03  0.12500000000E+03 0.  0.
</event>
<event>
 5    0  0.5576108E-005  0.2873800E+03  0.7546771E-02  0.1091725E+00
         21   -1    0    0  502  501  0.00000000000E+00  0.00000000000E+00  0.29866633133E+03  0.29866633133E+03  0.00000000000E+00 0. -1.
         21   -1    0    0  501  502 -0.00000000000E+00 -0.00000000000E+00 -0.27652018657E+03  0.27652018657E+03  0.00000000000E+00 0. -1.
         25    1    1    2    0    0 -0.77771158007E+02 -0.21060550970E+02  0.84264884902E+02  0.17093118689E+03  0.12500000000E+03 0.  0.
         25    1    1    2    0    0  0.16257780267E+03  0.56314650547E+02 -0.11323651432E+03  0.24093648533E+03  0.12500000000E+03 0.  0.
         25    1    1    2    0    0 -0.84806644661E+02 -0.35254099577E+02  0.51117774176E+02  0.16331884567E+03  0.12500000000E+03 0.  0.
</event>
<event>
 5    0  0.5576108E-005  0.3422334E+03  0.7546771E-02  0.1065849E+00
         21   -1    0    0  502  501  0.00000000000E+00  0.00000000000E+00  0.56575411915E+03  0.56575411915E+03  0.00000000000E+00 0. -1.
         21   -1    0    0  501  502 -0.00000000000E+00 -0.00000000000E+00 -0.20702225348E+03  0.20702225348E+03  0.00000000000E+00 0. -1.
         25    1    1    2    0    0 -0.41201169190E+02 -0.13966251925E+03  0.10219454337E+03  0.21742097489E+03  0.12500000000E+03 0.  0.
         25    1    1    2    0    0 -0.14191272848E+03  0.28590918611E+02 -0.97161278716E+01  0.19150996390E+03  0.12500000000E+03 0.  0.
         25    1    1    2    0    0  0.18311389767E+03  0.11107160064E+03  0.26625345018E+03  0.36384543384E+03  0.12500000000E+03 0.  0.
</event>
<event>
 5    0  0.5576108E-005  0.2669868E+03  0.7546771E-02  0.1103017E+00
         21   -1    0    0  502  501  0.00000000000E+00  0.00000000000E+00  0.39124350923E+02  0.39124350923E+02  0.00000000000E+00 0. -1.
         21   -1    0    0  501  502 -0.00000000000E+00 -0.00000000000E+00 -0.18219330254E+04  0.18219330254E+04  0.00000000000E+00 0. -1.
         25    1    1    2    0    0  0.37684742409E+02  0.94776046639E+02 -0.51129037921E+03  0.53613943214E+03  0.12500000000E+03 0.  0.
         25    1    1    2    0    0  0.78613224709E+02 -0.92124900508E+02 -0.39087682236E+03  0.42787466231E+03  0.12500000000E+03 0.  0.
         25    1    1    2    0    0 -0.11629796712E+03 -0.26511461301E+01 -0.88064147288E+03  0.89704328183E+03  0.12500000000E+03 0.  0.
</event>
<event>
 5    0  0.5576108E-005  0.5359044E+03  0.7546771E-02  0.1004810E+00
         21   -1    0    0  502  501  0.00000000000E+00  0.00000000000E+00  0.37407025746E+03  0.37407025746E+03  0.00000000000E+00 0.  1.
         21   -1    0    0  501  502 -0.00000000000E+00 -0.00000000000E+00 -0.76775279784E+03  0.76775279784E+03  0.00000000000E+00 0.  1.
         25    1    1    2    0    0 -0.40029725519E+03 -0.10033716538E+02 -0.21412310828E+03  0.47096950377E+03  0.12500000000E+03 0.  0.
         25    1    1    2    0    0  0.40197553210E+03  0.15985985859E+03 -0.14189809377E+03  0.47212241189E+03  0.12500000000E+03 0.  0.
         25    1    1    2    0    0 -0.16782769044E+01 -0.14982614205E+03 -0.37661338330E+02  0.19873113963E+03  0.12500000000E+03 0.  0.
</event>
<event>
 5    0  0.5576108E-005  0.2421572E+03  0.7546771E-02  0.1118364E+00
         21   -1    0    0  502  501  0.00000000000E+00  0.00000000000E+00  0.74440423421E+03  0.74440423421E+03  0.00000000000E+00 0. -1.
         21   -1    0    0  501  502 -0.00000000000E+00 -0.00000000000E+00 -0.78774538958E+02  0.78774538958E+02  0.00000000000E+00 0. -1.
         25    1    1    2    0    0  0.92884402228E+01 -0.10294283093E+03  0.22464573817E+03  0.27708159311E+03  0.12500000000E+03 0.  0.
         25    1    1    2    0    0  0.35153131274E+02  0.11168711461E+02  0.31666699374E+03  0.34243753836E+03  0.12500000000E+03 0.  0.
         25    1    1    2    0    0 -0.44441571497E+02  0.91774119473E+02  0.12431696335E+03  0.20365964170E+03  0.12500000000E+03 0.  0.
</event>
<event>
 5    0  0.5576108E-005  0.2586063E+03  0.7546771E-02  0.1107984E+00
         21   -1    0    0  502  501  0.00000000000E+00  0.00000000000E+00  0.52630215467E+02  0.52630215467E+02  0.00000000000E+00 0.  1.
         21   -1    0    0  501  502 -0.00000000000E+00 -0.00000000000E+00 -0.12706999424E+04  0.12706999424E+04  0.00000000000E+00 0.  1.
         25    1    1    2    0    0 -0.78293057714E+02  0.91548726097E+01 -0.29481726514E+03  0.32978149493E+03  0.12500000000E+03 0.  0.
         25    1    1    2    0    0  0.86849562090E+02  0.12350283384E+01 -0.16319581429E+03  0.22316416722E+03  0.12500000000E+03 0.  0.
         25    1    1    2    0    0 -0.85565043761E+01 -0.10389900948E+02 -0.76005664747E+03  0.77038449567E+03  0.12500000000E+03 0.  0.
</event>
<event>
 5    0  0.5576108E-005  0.2996404E+03  0.7546771E-02  0.1085421E+00
         21   -1    0    0  502  501  0.00000000000E+00  0.00000000000E+00  0.16109853248E+03  0.16109853248E+03  0.00000000000E+00 0.  1.
         21   -1    0    0  501  502 -0.00000000000E+00 -0.00000000000E+00 -0.55732564830E+03  0.55732564830E+03  0.00000000000E+00 0.  1.
         25    1    1    2    0    0 -0.17806093797E+02  0.16132048298E+02  0.38197708616E+02  0.13289606805E+03  0.12500000000E+03 0.  0.
         25    1    1    2    0    0  0.95533614020E+02 -0.10906710678E+03 -0.11943668271E+03  0.22563782123E+03  0.12500000000E+03 0.  0.
         25    1    1    2    0    0 -0.77727520223E+02  0.92935058487E+02 -0.31498814172E+03  0.35989029150E+03  0.12500000000E+03 0.  0.
</event>
<event>
 5    0  0.5576108E-005  0.3097118E+03  0.7546771E-02  0.1080484E+00
         21   -1    0    0  502  501  0.00000000000E+00  0.00000000000E+00  0.20961101565E+03  0.20961101565E+03  0.00000000000E+00 0.  1.
         21   -1    0    0  501  502 -0.00000000000E+00 -0.00000000000E+00 -0.45761634962E+03  0.45761634962E+03  0.00000000000E+00 0.  1.
         25    1    1    2    0    0 -0.12253606255E+03  0.36885893566E+02  0.32679976180E+02  0.18184783918E+03  0.12500000000E+03 0.  0.
         25    1    1    2    0    0  0.16606896636E+03  0.74681509210E+01 -0.27614235141E+03  0.34570836425E+03  0.12500000000E+03 0.  0.
         25    1    1    2    0    0 -0.43532903810E+02 -0.44354044487E+02 -0.45429587363E+01  0.13967116184E+03  0.12500000000E+03 0.  0.
</event>
<event>
 5    0  0.5576108E-005  0.2818170E+03  0.7546771E-02  0.1094701E+00
         21   -1    0    0  502  501  0.00000000000E+00  0.00000000000E+00  0.60183400644E+03  0.60183400644E+03  0.00000000000E+00 0.  1.
         21   -1    0    0  501  502 -0.00000000000E+00 -0.00000000000E+00 -0.13196464403E+03  0.13196464403E+03  0.00000000000E+00 0.  1.
         25    1    1    2    0    0 -0.17452060034E+03  0.82678430340E+01  0.20960762417E+03  0.30014355446E+03  0.12500000000E+03 0.  0.
         25    1    1    2    0    0  0.15569564483E+02  0.11706671827E+02  0.16848265661E+03  0.21069139299E+03  0.12500000000E+03 0.  0.
         25    1    1    2    0    0  0.15895103586E+03 -0.19974514861E+02  0.91779081631E+02  0.22296370303E+03  0.12500000000E+03 0.  0.
</event>
<event>
 5    0  0.5576108E-005  0.2938092E+03  0.7546771E-02  0.1088377E+00
         21   -1    0    0  502  501  0.00000000000E+00  0.00000000000E+00  0.99300055291E+03  0.99300055291E+03  0.00000000000E+00 0.  1.
         21   -1    0    0  501  502 -0.00000000000E+00 -0.00000000000E+00 -0.86932350127E+02  0.86932350127E+02  0.00000000000E+00 0.  1.
         25    1    1    2    0    0 -0.45976573435E+02 -0.42709876688E+02  0.28909962046E+03  0.32115661199E+03  0.12500000000E+03 0.  0.
         25    1    1    2    0    0 -0.84320527042E+02  0.77706356445E+02  0.52778313395E+03  0.55437195600E+03  0.12500000000E+03 0.  0.
         25    1    1    2    0    0  0.13029710048E+03 -0.34996479757E+02  0.89185448371E+02  0.20440433505E+03  0.12500000000E+03 0.  0.
</event>
<event>
 5    0  0.5576108E-005  0.2349845E+03  0.7546771E-02  0.1123180E+00
         21   -1    0    0  502  501  0.00000000000E+00  0.00000000000E+00  0.95922686607E+02  0.95922686607E+02  0.00000000000E+00 0.  1.
         21   -1    0    0  501  502 -0.00000000000E+00 -0.00000000000E+00 -0.57564825253E+03  0.57564825253E+03  0.00000000000E+00 0.  1.
         25    1    1    2    0    0 -0.18173164330E+01 -0.18136965271E+02 -0.27009954943E+02  0.12917735798E+03  0.12500000000E+03 0.  0.
         25    1    1    2    0    0 -0.47629700946E+02  0.72785964025E+02 -0.25736408521E+03  0.29904457415E+03  0.12500000000E+03 0.  0.
         25    1    1    2    0    0  0.49447017379E+02 -0.54648998754E+02 -0.19535152577E+03  0.24334900701E+03  0.12500000000E+03 0.  0.
</event>
<event>
 5    0  0.5576108E-005  0.4179850E+03  0.7546771E-02  0.1037724E+00
         21   -1    0    0  502  501  0.00000000000E+00  0.00000000000E+00  0.13219887611E+03  0.13219887611E+03  0.00000000000E+00 0. -1.
         21   -1    0    0  501  502 -0.00000000000E+00 -0.00000000000E+00 -0.13215805829E+04  0.13215805829E+04  0.00000000000E+00 0. -1.
         25    1    1    2    0    0 -0.73064144507E+02 -0.24896354670E+03 -0.14813837365E+03  0.32386910094E+03  0.12500000000E+03 0.  0.
         25    1    1    2    0    0  0.15302407484E+03  0.10897395443E+03 -0.43136981924E+03  0.48682297725E+03  0.12500000000E+03 0.  0.
         25    1    1    2    0    0 -0.79959930334E+02  0.13998959227E+03 -0.60987351388E+03  0.64308738079E+03  0.12500000000E+03 0.  0.
</event>
<event>
 5    0  0.5576108E-005  0.3676649E+03  0.7546771E-02  0.1055589E+00
         21   -1    0    0  502  501  0.00000000000E+00  0.00000000000E+00  0.22116512193E+03  0.22116512193E+03  0.00000000000E+00 0.  1.
         21   -1    0    0  501  502 -0.00000000000E+00 -0.00000000000E+00 -0.61120610881E+03  0.61120610881E+03  0.00000000000E+00 0.  1.
         25    1    1    2    0    0  0.23691123157E+03  0.14894095455E+02 -0.12430051120E+03  0.29567614514E+03  0.12500000000E+03 0.  0.
         25    1    1    2    0    0 -0.13835296351E+03 -0.15647167809E+03 -0.86619820296E+02  0.25836586815E+03  0.12500000000E+03 0.  0.
         25    1    1    2    0    0 -0.98558268053E+02  0.14157758263E+03 -0.17912065538E+03  0.27832921746E+03  0.12500000000E+03 0.  0.
</event>
<event>
 5    0  0.5576108E-005  0.3451562E+03  0.7546771E-02  0.1064621E+00
         21   -1    0    0  502  501  0.00000000000E+00  0.00000000000E+00  0.22387362925E+03  0.22387362925E+03  0.00000000000E+00 0.  1.
         21   -1    0    0  501  502 -0.00000000000E+00 -0.00000000000E+00 -0.53214307220E+03  0.53214307220E+03  0.00000000000E+00 0.  1.
         25    1    1    2    0    0 -0.29626734768E+02 -0.81489304021E+02 -0.27352172260E+02  0.15456840366E+03  0.12500000000E+03 0.  0.
         25    1    1    2    0    0 -0.17022853599E+03  0.12125528681E+03 -0.26788905103E+03  0.36203610691E+03  0.12500000000E+03 0.  0.
         25    1    1    2    0    0  0.19985527075E+03 -0.39765982788E+02 -0.13028219666E+02  0.23941219088E+03  0.12500000000E+03 0.  0.
</event>
<event>
 5    0  0.5576108E-005  0.2977774E+03  0.7546771E-02  0.1086357E+00
         21   -1    0    0  502  501  0.00000000000E+00  0.00000000000E+00  0.85927832101E+03  0.85927832101E+03  0.00000000000E+00 0.  1.
         21   -1    0    0  501  502 -0.00000000000E+00 -0.00000000000E+00 -0.10319284334E+03  0.10319284334E+03  0.00000000000E+00 0.  1.
         25    1    1    2    0    0 -0.11662355880E+03  0.17372966473E+03  0.37287469181E+03  0.44547007382E+03  0.12500000000E+03 0.  0.
         25    1    1    2    0    0  0.87910686083E+01 -0.11886474691E+03  0.17907197500E+03  0.24879285194E+03  0.12500000000E+03 0.  0.
         25    1    1    2    0    0  0.10783249019E+03 -0.54864917821E+02  0.20413881087E+03  0.26820823859E+03  0.12500000000E+03 0.  0.
</event>
<event>
 5    0  0.5576108E-005  0.4459488E+03  0.7546771E-02  0.1028937E+00
         21   -1    0    0  502  501  0.00000000000E+00  0.00000000000E+00  0.10533192488E+04  0.10533192488E+04  0.00000000000E+00 0.  1.
         21   -1    0    0  501  502 -0.00000000000E+00 -0.00000000000E+00 -0.18880343179E+03  0.18880343179E+03  0.00000000000E+00 0.  1.
         25    1    1    2    0    0 -0.93319772031E+02 -0.14815325619E+03  0.79932788935E+03  0.82777294101E+03  0.12500000000E+03 0.  0.
         25    1    1    2    0    0  0.13105999508E+03  0.18228812317E+03 -0.14933026339E+02  0.25739789711E+03  0.12500000000E+03 0.  0.
         25    1    1    2    0    0 -0.37740223052E+02 -0.34134866979E+02  0.80120953965E+02  0.15695184244E+03  0.12500000000E+03 0.  0.
</event>
<event>
 5    0  0.5576108E-005  0.3309738E+03  0.7546771E-02  0.1070707E+00
         21   -1    0    0  502  501  0.00000000000E+00  0.00000000000E+00  0.50496005912E+03  0.50496005912E+03  0.00000000000E+00 0. -1.
         21   -1    0    0  501  502 -0.00000000000E+00 -0.00000000000E+00 -0.21693528548E+03  0.21693528548E+03  0.00000000000E+00 0. -1.
         25    1    1    2    0    0 -0.68470736434E+02 -0.86242425586E+02  0.81409408314E+02  0.18541437237E+03  0.12500000000E+03 0.  0.
         25    1    1    2    0    0  0.98668338793E+02  0.11894580061E+03  0.31001357347E+03  0.36826208099E+03  0.12500000000E+03 0.  0.
         25    1    1    2    0    0 -0.30197602358E+02 -0.32703375024E+02 -0.10339820814E+03  0.16821889125E+03  0.12500000000E+03 0.  0.
</event>
<event>
 5    0  0.5576108E-005  0.4320020E+03  0.7546771E-02  0.1033229E+00
         21   -1    0    0  502  501  0.00000000000E+00  0.00000000000E+00  0.76186420589E+03  0.76186420589E+03  0.00000000000E+00 0. -1.
         21   -1    0    0  501  502 -0.00000000000E+00 -0.00000000000E+00 -0.24495934067E+03  0.24495934067E+03  0.00000000000E+00 0. -1.
         25    1    1    2    0    0  0.60851370051E+02 -0.10834136187E+03 -0.96656297935E+01  0.17651958625E+03  0.12500000000E+03 0.  0.
         25    1    1    2    0    0 -0.29932634628E+03  0.16900801879E+03  0.28966892218E+03  0.46657588501E+03  0.12500000000E+03 0.  0.
         25    1    1    2    0    0  0.23847497623E+03 -0.60666656920E+02  0.23690157284E+03  0.36372807530E+03  0.12500000000E+03 0.  0.
</event>
<event>
 5    0  0.5576108E-005  0.3293868E+03  0.7546771E-02  0.1071409E+00
         21   -1    0    0  502  501  0.00000000000E+00  0.00000000000E+00  0.56216709924E+02  0.56216709924E+02  0.00000000000E+00 0.  1.
         21   -1    0    0  501  502 -0.00000000000E+00 -0.00000000000E+00 -0.19299541887E+04  0.19299541887E+04  0.00000000000E+00 0.  1.
         25    1    1    2    0    0  0.13919689465E+03  0.88473643134E+02 -0.39750412664E+03  0.44814940779E+03  0.12500000000E+03 0.  0.
         25    1    1    2    0    0 -0.21380740561E+03 -0.85822909699E+02 -0.11691256408E+04  0.11981481304E+04  0.12500000000E+03 0.  0.
         25    1    1    2    0    0  0.74610510966E+02 -0.26507334346E+01 -0.30710771133E+03  0.33987336038E+03  0.12500000000E+03 0.  0.
</event>
<event>
 5    0  0.5576108E-005  0.3153095E+03  0.7546771E-02  0.1077828E+00
         21   -1    0    0  502  501  0.00000000000E+00  0.00000000000E+00  0.72899205392E+02  0.72899205392E+02  0.00000000000E+00 0.  1.
         21   -1    0    0  501  502 -0.00000000000E+00 -0.00000000000E+00 -0.13638021255E+04  0.13638021255E+04  0.00000000000E+00 0.  1.
         25    1    1    2    0    0 -0.70996297066E+01  0.60087014090E+02 -0.73044373497E+03  0.74352801155E+03  0.12500000000E+03 0.  0.
         25    1    1    2    0    0  0.11800594627E+03 -0.11429512370E+03 -0.17910667823E+03  0.27330016620E+03  0.12500000000E+03 0.  0.
         25    1    1    2    0    0 -0.11090631656E+03  0.54208109613E+02 -0.38135250686E+03  0.41987315310E+03  0.12500000000E+03 0.  0.
</event>
<event>
 5    0  0.6630472E-005  0.2810749E+03  0.7546771E-02  0.1095103E+00
         21   -1    0    0  502  501  0.00000000000E+00  0.00000000000E+00  0.12670547296E+03  0.12670547296E+03  0.00000000000E+00 0. -1.
         21   -1    0    0  501  502 -0.00000000000E+00 -0.00000000000E+00 -0.62351769822E+03  0.62351769822E+03  0.00000000000E+00 0. -1.
         25    1    1    2    0    0 -0.32416710690E+02 -0.17540646030E+03 -0.14676961905E+03  0.26264917765E+03  0.12500000000E+03 0.  0.
         25    1    1    2    0    0 -0.50419332630E+02  0.11494511036E+03 -0.16874045704E+03  0.24464837898E+03  0.12500000000E+03 0.  0.
         25    1    1    2    0    0  0.82836043320E+02  0.60461349940E+02 -0.18130214917E+03  0.24292561455E+03  0.12500000000E+03 0.  0.
</event>
<event>
 5    0  0.5576108E-005  0.3487741E+03  0.7546771E-02  0.1063119E+00
         21   -1    0    0  502  501  0.00000000000E+00  0.00000000000E+00  0.12240380792E+03  0.12240380792E+03  0.00000000000E+00 0. -1.
         21   -1    0    0  501  502 -0.00000000000E+00 -0.00000000000E+00 -0.99378770517E+03  0.99378770517E+03  0.00000000000E+00 0. -1.
         25    1    1    2    0    0  0.25676677560E+03  0.38835517217E+02 -0.40797650516E+03  0.49950696013E+03  0.12500000000E+03 0.  0.
         25    1    1    2    0    0 -0.12047141299E+03 -0.11333932135E+03 -0.24531158344E+03  0.32118831872E+03  0.12500000000E+03 0.  0.
         25    1    1    2    0    0 -0.13629536261E+03  0.74503804137E+02 -0.21809580865E+03  0.29549623424E+03  0.12500000000E+03 0.  0.
</event>
<event>
 5    0  0.6159073E-005  0.3268394E+03  0.7546771E-02  0.1072544E+00
         21   -1    0    0  502  501  0.00000000000E+00  0.00000000000E+00  0.36140398361E+03  0.36140398361E+03  0.00000000000E+00 0.  1.
         21   -1    0    0  501  502 -0.00000000000E+00 -0.00000000000E+00 -0.29558049902E+03  0.29558049902E+03  0.00000000000E+00 0.  1.
         25    1    1    2    0    0  0.20512555060E+03 -0.12915173196E+02 -0.45027836119E+02  0.24473618293E+03  0.12500000000E+03 0.  0.
         25    1    1    2    0    0 -0.46623950565E+02 -0.47479769338E+01  0.15530750521E+03  0.20479686821E+03  0.12500000000E+03 0.  0.
         25    1    1    2    0    0 -0.15850160004E+03  0.17663150130E+02 -0.44456184511E+02  0.20745143149E+03  0.12500000000E+03 0.  0.
</event>
<event>
 5    0  0.5576108E-005  0.2414809E+03  0.7546771E-02  0.1118810E+00
         21   -1    0    0  502  501  0.00000000000E+00  0.00000000000E+00  0.19961226307E+03  0.19961226307E+03  0.00000000000E+00 0. -1.
         21   -1    0    0  501  502 -0.00000000000E+00 -0.00000000000E+00 -0.29213153433E+03  0.29213153433E+03  0.00000000000E+00 0. -1.
         25    1    1    2    0    0  0.11152707132E+03  0.37247555319E+02 -0.61901301458E+02  0.18243475309E+03  0.12500000000E+03 0.  0.
         25    1    1    2    0    0 -0.12172936822E+03 -0.48835614399E+02 -0.27972143295E+02  0.18333138608E+03  0.12500000000E+03 0.  0.
         25    1    1    2    0    0  0.10202296905E+02  0.11588059080E+02 -0.26458265092E+01  0.12597765823E+03  0.12500000000E+03 0.  0.
</event>
<event>
 5    0  0.5576108E-005  0.2881725E+03  0.7546771E-02  0.1091307E+00
         21   -1    0    0  502  501  0.00000000000E+00  0.00000000000E+00  0.75188122744E+03  0.75188122744E+03  0.00000000000E+00 0. -1.
         21   -1    0    0  501  502 -0.00000000000E+00 -0.00000000000E+00 -0.11044745765E+03  0.11044745765E+03  0.00000000000E+00 0.  1.
         25    1    1    2    0    0 -0.16363330751E+02  0.17361066623E+03  0.21882759015E+03  0.30646196539E+03  0.12500000000E+03 0.  0.
         25    1    1    2    0    0  0.34198260210E+02 -0.10353160819E+03  0.80177039125E+02  0.18423265861E+03  0.12500000000E+03 0.  0.
         25    1    1    2    0    0 -0.17834929458E+02 -0.70079058036E+02  0.34242914051E+03  0.37163406108E+03  0.12500000000E+03 0.  0.
</event>
<event>
 5    0  0.5576108E-005  0.3074662E+03  0.7546771E-02  0.1081567E+00
         21   -1    0    0  502  501  0.00000000000E+00  0.00000000000E+00  0.73567892206E+02  0.73567892206E+02  0.00000000000E+00 0. -1.
         21   -1    0    0  501  502 -0.00000000000E+00 -0.00000000000E+00 -0.12850094076E+04  0.12850094076E+04  0.00000000000E+00 0. -1.
         25    1    1    2    0    0 -0.31304210688E+02  0.71627784821E+02 -0.18864055013E+03  0.23941752300E+03  0.12500000000E+03 0.  0.
         25    1    1    2    0    0 -0.17023009822E+03 -0.39433953016E+02 -0.49757274336E+03  0.54197505286E+03  0.12500000000E+03 0.  0.
         25    1    1    2    0    0  0.20153430891E+03 -0.32193831805E+02 -0.52522822193E+03  0.57718472397E+03  0.12500000000E+03 0.  0.
</event>
<event>
 5    0  0.5576108E-005  0.3339872E+03  0.7546771E-02  0.1069386E+00
         21   -1    0    0  502  501  0.00000000000E+00  0.00000000000E+00  0.92932696873E+03  0.92932696873E+03  0.00000000000E+00 0.  1.
         21   -1    0    0  501  502 -0.00000000000E+00 -0.00000000000E+00 -0.12003036802E+03  0.12003036802E+03  0.00000000000E+00 0.  1.
         25    1    1    2    0    0  0.13152803288E+03 -0.36565580470E+02  0.24663604827E+03  0.30836829509E+03  0.12500000000E+03 0.  0.
         25    1    1    2    0    0 -0.12919070314E+03 -0.16259257766E+03  0.23432837294E+03  0.33713702030E+03  0.12500000000E+03 0.  0.
         25    1    1    2    0    0 -0.23373297384E+01  0.19915815813E+03  0.32833217950E+03  0.40385202136E+03  0.12500000000E+03 0.  0.
</event>
<event>
 5    0  0.5576108E-005  0.3626222E+03  0.7546771E-02  0.1057550E+00
         21   -1    0    0  502  501  0.00000000000E+00  0.00000000000E+00  0.65960858693E+03  0.65960858693E+03  0.00000000000E+00 0.  1.
         21   -1    0    0  501  502 -0.00000000000E+00 -0.00000000000E+00 -0.19935282924E+03  0.19935282924E+03  0.00000000000E+00 0.  1.
         25    1    1    2    0    0  0.40344161160E+02  0.76681125183E+02 -0.80528793689E+02  0.17209745179E+03  0.12500000000E+03 0.  0.
         25    1    1    2    0    0  0.52900056636E+02 -0.60731134761E+02  0.28858748338E+02  0.15147446675E+03  0.12500000000E+03 0.  0.
         25    1    1    2    0    0 -0.93244217796E+02 -0.15949990422E+02  0.51192580305E+03  0.53538949763E+03  0.12500000000E+03 0.  0.
</event>
<event>
 5    0  0.5576108E-005  0.3982402E+03  0.7546771E-02  0.1044391E+00
         21   -1    0    0  502  501  0.00000000000E+00  0.00000000000E+00  0.89158623170E+03  0.89158623170E+03  0.00000000000E+00 0.  1.
         21   -1    0    0  501  502 -0.00000000000E+00 -0.00000000000E+00 -0.17787990084E+03  0.17787990084E+03  0.00000000000E+00 0.  1.
         25    1    1    2    0    0  0.28365429894E+01  0.16261602515E+03  0.58787161087E+02  0.21338450721E+03  0.12500000000E+03 0.  0.
         25    1    1    2    0    0 -0.58066685016E+02 -0.19445188156E+02 -0.30638198424E+02  0.14252562736E+03  0.12500000000E+03 0.  0.
         25    1    1    2    0    0  0.55230142026E+02 -0.14317083699E+03  0.68555736820E+03  0.71355599797E+03  0.12500000000E+03 0.  0.
</event>
<event>
 5    0  0.5576108E-005  0.2691362E+03  0.7546771E-02  0.1101775E+00
         21   -1    0    0  502  501  0.00000000000E+00  0.00000000000E+00  0.20930687979E+03  0.20930687979E+03  0.00000000000E+00 0. -1.
         21   -1    0    0  501  502 -0.00000000000E+00 -0.00000000000E+00 -0.34606731221E+03  0.34606731221E+03  0.00000000000E+00 0. -1.
         25    1    1    2    0    0  0.84765249670E+01  0.49931821318E+02 -0.34172684871E+02  0.13913234939E+03  0.12500000000E+03 0.  0.
         25    1    1    2    0    0 -0.64406162589E+02  0.10666151691E+03 -0.11020943107E+03  0.20807679271E+03  0.12500000000E+03 0.  0.
         25    1    1    2    0    0  0.55929637622E+02 -0.15659333823E+03  0.76216835168E+01  0.20816504990E+03  0.12500000000E+03 0.  0.
</event>
<event>
 5    0  0.5732863E-005  0.3022611E+03  0.7546771E-02  0.1084116E+00
         21   -1    0    0  502  501  0.00000000000E+00  0.00000000000E+00  0.43265403799E+03  0.43265403799E+03  0.00000000000E+00 0. -1.
         21   -1    0    0  501  502 -0.00000000000E+00 -0.00000000000E+00 -0.21116587012E+03  0.21116587012E+03  0.00000000000E+00 0. -1.
         25    1    1    2    0    0  0.69783608816E+02 -0.26552461589E+02  0.20438666965E+02  0.14702899164E+03  0.12500000000E+03 0.  0.
         25    1    1    2    0    0 -0.73464543936E+02 -0.18826118270E+02  0.29816429896E+03  0.33208193434E+03  0.12500000000E+03 0.  0.
         25    1    1    2    0    0  0.36809351206E+01  0.45378579860E+02 -0.97114798053E+02  0.16470898213E+03  0.12500000000E+03 0.  0.
</event>
<event>
 5    0  0.5576108E-005  0.2054555E+03  0.7546771E-02  0.1145216E+00
         21   -1    0    0  502  501  0.00000000000E+00  0.00000000000E+00  0.39002392807E+03  0.39002392807E+03  0.00000000000E+00 0.  1.
         21   -1    0    0  501  502 -0.00000000000E+00 -0.00000000000E+00 -0.10822920262E+03  0.10822920262E+03  0.00000000000E+00 0.  1.
         25    1    1    2    0    0 -0.61088553298E+02  0.28100977103E+02  0.12221668686E+03  0.18730561872E+03  0.12500000000E+03 0.  0.
         25    1    1    2    0    0  0.35938371266E+02 -0.29097219694E+02  0.48460430299E+02  0.14181547175E+03  0.12500000000E+03 0.  0.
         25    1    1    2    0    0  0.25150182032E+02  0.99624259084E+00  0.11111760829E+03  0.16913204022E+03  0.12500000000E+03 0.  0.
</event>
<event>
 5    0  0.5576108E-005  0.3528290E+03  0.7546771E-02  0.1061460E+00
         21   -1    0    0  502  501  0.00000000000E+00  0.00000000000E+00  0.85527702666E+02  0.85527702666E+02  0.00000000000E+00 0.  1.
         21   -1    0    0  501  502 -0.00000000000E+00 -0.00000000000E+00 -0.14555321206E+04  0.14555321206E+04  0.00000000000E+00 0.  1.
         25    1    1    2    0    0 -0.11538552720E+03 -0.15601459409E+03 -0.79863748874E+03  0.83132497369E+03  0.12500000000E+03 0.  0.
         25    1    1    2    0    0  0.11058845880E+03 -0.50346948526E+02 -0.29666472419E+03  0.34409240187E+03  0.12500000000E+03 0.  0.
         25    1    1    2    0    0  0.47970684040E+01  0.20636154261E+03 -0.27470220501E+03  0.36564244772E+03  0.12500000000E+03 0.  0.
</event>
<event>
 5    0  0.5576108E-005  0.2776774E+03  0.7546771E-02  0.1096964E+00
         21   -1    0    0  502  501  0.00000000000E+00  0.00000000000E+00  0.34065751503E+03  0.34065751503E+03  0.00000000000E+00 0. -1.
         21   -1    0    0  501  502 -0.00000000000E+00 -0.00000000000E+00 -0.22634087131E+03  0.22634087131E+03  0.00000000000E+00 0. -1.
         25    1    1    2    0    0 -0.14645629277E+02 -0.75109113270E+02  0.77613764833E+02  0.16584562052E+03  0.12500000000E+03 0.  0.
         25    1    1    2    0    0 -0.82979048129E+02  0.10076844679E+03  0.12315281388E+03  0.21870395027E+03  0.12500000000E+03 0.  0.
         25    1    1    2    0    0  0.97624677405E+02 -0.25659333519E+02 -0.86449935002E+02  0.18244881555E+03  0.12500000000E+03 0.  0.
</event>
<event>
 5    0  0.5576108E-005  0.3097441E+03  0.7546771E-02  0.1080469E+00
         21   -1    0    0  502  501  0.00000000000E+00  0.00000000000E+00  0.15674389498E+04  0.15674389498E+04  0.00000000000E+00 0. -1.
         21   -1    0    0  501  502 -0.00000000000E+00 -0.00000000000E+00 -0.61209006585E+02  0.61209006585E+02  0.00000000000E+00 0. -1.
         25    1    1    2    0    0 -0.45918942489E+02  0.23078912540E+01  0.41037267041E+03  0.43144478704E+03  0.12500000000E+03 0.  0.
         25    1    1    2    0    0 -0.17649442382E+03 -0.49859926031E+02  0.53492800127E+03  0.57914528437E+03  0.12500000000E+03 0.  0.
         25    1    1    2    0    0  0.22241336630E+03  0.47552034777E+02  0.56092927152E+03  0.61805788497E+03  0.12500000000E+03 0.  0.
</event>
<event>
 5    0  0.5576108E-005  0.2967848E+03  0.7546771E-02  0.1086859E+00
         21   -1    0    0  502  501  0.00000000000E+00  0.00000000000E+00  0.33193653647E+03  0.33193653647E+03  0.00000000000E+00 0. -1.
         21   -1    0    0  501  502 -0.00000000000E+00 -0.00000000000E+00 -0.26535561016E+03  0.26535561016E+03  0.00000000000E+00 0. -1.
         25    1    1    2    0    0  0.13517058656E+02 -0.92865747577E+02  0.20823857699E+03  0.26037485073E+03  0.12500000000E+03 0.  0.
         25    1    1    2    0    0 -0.20429692761E+02  0.62344867202E+02  0.55484643802E+01  0.14128000662E+03  0.12500000000E+03 0.  0.
         25    1    1    2    0    0  0.69126341046E+01  0.30520880375E+02 -0.14720611505E+03  0.19563728928E+03  0.12500000000E+03 0.  0.
</event>
<event>
 5    0  0.5652941E-005  0.9969597E+03  0.7546771E-02  0.9311886E-01
         21   -1    0    0  502  501  0.00000000000E+00  0.00000000000E+00  0.62979452012E+03  0.62979452012E+03  0.00000000000E+00 0.  1.
         21   -1    0    0  501  502 -0.00000000000E+00 -0.00000000000E+00 -0.15781791249E+04  0.15781791249E+04  0.00000000000E+00 0.  1.
         25    1    1    2    0    0  0.34409014475E+03 -0.63860445025E+03 -0.15782189675E+03  0.75282562568E+03  0.12500000000E+03 0.  0.
         25    1    1    2    0    0 -0.58319981147E+03  0.39260927975E+03 -0.82180681583E+03  0.10886944058E+04  0.12500000000E+03 0.  0.
         25    1    1    2    0    0  0.23910966672E+03  0.24599517049E+03  0.31244107797E+02  0.36645361357E+03  0.12500000000E+03 0.  0.
</event>
<event>
 5    0  0.5576108E-005  0.3054453E+03  0.7546771E-02  0.1082550E+00
         21   -1    0    0  502  501  0.00000000000E+00  0.00000000000E+00  0.53440271448E+03  0.53440271448E+03  0.00000000000E+00 0. -1.
         21   -1    0    0  501  502 -0.00000000000E+00 -0.00000000000E+00 -0.17458150517E+03  0.17458150517E+03  0.00000000000E+00 0. -1.
         25    1    1    2    0    0 -0.45075840172E+02  0.18910001721E+03  0.49556809407E+02  0.23637158297E+03  0.12500000000E+03 0.  0.
         25    1    1    2    0    0  0.20942414861E+02 -0.16066265244E+03  0.26439678224E+03  0.33433775002E+03  0.12500000000E+03 0.  0.
         25    1    1    2    0    0  0.24133425311E+02 -0.28437364775E+02  0.45867617655E+02  0.13827488666E+03  0.12500000000E+03 0.  0.
</event>
<event>
 5    0  0.5576108E-005  0.6786465E+03  0.7546771E-02  0.9754463E-01
         21   -1    0    0  502  501  0.00000000000E+00  0.00000000000E+00  0.42751667422E+03  0.42751667422E+03  0.00000000000E+00 0.  1.
         21   -1    0    0  501  502 -0.00000000000E+00 -0.00000000000E+00 -0.10772938735E+04  0.10772938735E+04  0.00000000000E+00 0.  1.
         25    1    1    2    0    0  0.15068686495E+03 -0.97923162545E+02  0.16321916990E+02  0.21951510656E+03  0.12500000000E+03 0.  0.
         25    1    1    2    0    0  0.28603337421E+03  0.14190746243E+03 -0.74686882776E+03  0.82182167466E+03  0.12500000000E+03 0.  0.
         25    1    1    2    0    0 -0.43672023917E+03 -0.43984299883E+02  0.80769711493E+02  0.46347376650E+03  0.12500000000E+03 0.  0.
</event>
<event>
 5    0  0.5576108E-005  0.3545409E+03  0.7546771E-02  0.1060767E+00
         21   -1    0    0  502  501  0.00000000000E+00  0.00000000000E+00  0.80238789669E+03  0.80238789669E+03  0.00000000000E+00 0.  1.
         21   -1    0    0  501  502 -0.00000000000E+00 -0.00000000000E+00 -0.15665644568E+03  0.15665644568E+03  0.00000000000E+00 0.  1.
         25    1    1    2    0    0  0.18347398659E+02  0.12203767644E+03  0.44151934226E+03  0.47517802043E+03  0.12500000000E+03 0.  0.
         25    1    1    2    0    0  0.75989426450E+01 -0.12739338039E+03  0.28233242441E+03  0.33410090567E+03  0.12500000000E+03 0.  0.
         25    1    1    2    0    0 -0.25946341304E+02  0.53557039428E+01 -0.78120315664E+02  0.14976541627E+03  0.12500000000E+03 0.  0.
</event>
<event>
 5    0  0.5576108E-005  0.4144051E+03  0.7546771E-02  0.1038903E+00
         21   -1    0    0  502  501  0.00000000000E+00  0.00000000000E+00  0.22715904143E+03  0.22715904143E+03  0.00000000000E+00 0.  1.
         21   -1    0    0  501  502 -0.00000000000E+00 -0.00000000000E+00 -0.75599715275E+03  0.75599715275E+03  0.00000000000E+00 0.  1.
         25    1    1    2    0    0 -0.16620544401E+03  0.10955625085E+03 -0.13134308160E+03  0.26926348955E+03  0.12500000000E+03 0.  0.
         25    1    1    2    0    0  0.18944216897E+03 -0.12278977298E+03 -0.49156484147E+03  0.55518164334E+03  0.12500000000E+03 0.  0.
         25    1    1    2    0    0 -0.23236724956E+02  0.13233522128E+02  0.94069811744E+02  0.15871106129E+03  0.12500000000E+03 0.  0.
</event>
<event>
 5    0  0.5576108E-005  0.3034589E+03  0.7546771E-02  0.1083524E+00
         21   -1    0    0  502  501  0.00000000000E+00  0.00000000000E+00  0.44018738291E+03  0.44018738291E+03  0.00000000000E+00 0.  1.
         21   -1    0    0  501  502 -0.00000000000E+00 -0.00000000000E+00 -0.20920029473E+03  0.20920029473E+03  0.00000000000E+00 0.  1.
         25    1    1    2    0    0  0.22137594279E+01  0.15224162400E+03  0.18643094294E+03  0.27122667512E+03  0.12500000000E+03 0.  0.
         25    1    1    2    0    0 -0.13400220583E+02  0.45988481881E+02 -0.18705626516E+02  0.13516436972E+03  0.12500000000E+03 0.  0.
         25    1    1    2    0    0  0.11186461155E+02 -0.19823010588E+03  0.63261771754E+02  0.24299663281E+03  0.12500000000E+03 0.  0.
</event>
<event>
 5    0  0.5576108E-005  0.2676949E+03  0.7546771E-02  0.1102606E+00
         21   -1    0    0  502  501  0.00000000000E+00  0.00000000000E+00  0.12278530396E+03  0.12278530396E+03  0.00000000000E+00 0.  1.
         21   -1    0    0  501  502 -0.00000000000E+00 -0.00000000000E+00 -0.58362495827E+03  0.58362495827E+03  0.00000000000E+00 0.  1.
         25    1    1    2    0    0  0.10123200681E+03  0.23868606991E+02 -0.12869563487E+03  0.20737694191E+03  0.12500000000E+03 0.  0.
         25    1    1    2    0    0 -0.31103149508E+02  0.69324262004E+02 -0.26266906889E+02  0.14862102681E+03  0.12500000000E+03 0.  0.
         25    1    1    2    0    0 -0.70128857298E+02 -0.93192868995E+02 -0.30587711255E+03  0.35041229351E+03  0.12500000000E+03 0.  0.
</event>
<event>
 5    0  0.5576108E-005  0.2690378E+03  0.7546771E-02  0.1101832E+00
         21   -1    0    0  502  501  0.00000000000E+00  0.00000000000E+00  0.59121131081E+03  0.59121131081E+03  0.00000000000E+00 0. -1.
         21   -1    0    0  501  502 -0.00000000000E+00 -0.00000000000E+00 -0.12242889728E+03  0.12242889728E+03  0.00000000000E+00 0. -1.
         25    1    1    2    0    0 -0.10111262550E+03  0.26581176523E+02  0.67286898871E+02  0.17630328624E+03  0.12500000000E+03 0.  0.
         25    1    1    2    0    0  0.10738015490E+03  0.42923041698E+02  0.34249836440E+03  0.38249577094E+03  0.12500000000E+03 0.  0.
         25    1    1    2    0    0 -0.62675294032E+01 -0.69504218221E+02  0.58997150262E+02  0.15484115091E+03  0.12500000000E+03 0.  0.
</event>
<event>
 5    0  0.5576108E-005  0.4398945E+03  0.7546771E-02  0.1030779E+00
         21   -1    0    0  502  501  0.00000000000E+00  0.00000000000E+00  0.12065824814E+03  0.12065824814E+03  0.00000000000E+00 0.  1.
         21   -1    0    0  501  502 -0.00000000000E+00 -0.00000000000E+00 -0.16037624463E+04  0.16037624463E+04  0.00000000000E+00 0.  1.
         25    1    1    2    0    0 -0.32467391366E+02  0.11644565967E+03 -0.12816031680E+03  0.21601803157E+03  0.12500000000E+03 0.  0.
         25    1    1    2    0    0  0.18973116308E+03 -0.87888355681E+02 -0.12618598684E+04  0.12851605365E+04  0.12500000000E+03 0.  0.
         25    1    1    2    0    0 -0.15726377171E+03 -0.28557303990E+02 -0.93084013021E+02  0.22324212637E+03  0.12500000000E+03 0.  0.
</event>
<event>
 5    0  0.5576392E-005  0.2698994E+03  0.7546771E-02  0.1101337E+00
         21   -1    0    0  502  501  0.00000000000E+00  0.00000000000E+00  0.48067358981E+03  0.48067358981E+03  0.00000000000E+00 0. -1.
         21   -1    0    0  501  502 -0.00000000000E+00 -0.00000000000E+00 -0.15154920483E+03  0.15154920483E+03  0.00000000000E+00 0. -1.
         25    1    1    2    0    0  0.13953285781E+03  0.10909631383E+03  0.14191001746E+03  0.25910398908E+03  0.12500000000E+03 0.  0.
         25    1    1    2    0    0 -0.92914011632E+02 -0.85005838857E+02  0.60268549310E+02  0.18739344768E+03  0.12500000000E+03 0.  0.
         25    1    1    2    0    0 -0.46618846176E+02 -0.24090474977E+02  0.12694581821E+03  0.18572535789E+03  0.12500000000E+03 0.  0.
</event>
<event>
 5    0  0.5576108E-005  0.2434747E+03  0.7546771E-02  0.1117500E+00
         21   -1    0    0  502  501  0.00000000000E+00  0.00000000000E+00  0.10906786099E+03  0.10906786099E+03  0.00000000000E+00 0. -1.
         21   -1    0    0  501  502 -0.00000000000E+00 -0.00000000000E+00 -0.54351404487E+03  0.54351404487E+03  0.00000000000E+00 0. -1.
         25    1    1    2    0    0 -0.19195502526E+02  0.81751036242E+02 -0.11431090933E+03  0.18905999904E+03  0.12500000000E+03 0.  0.
         25    1    1    2    0    0  0.81901939834E+02 -0.11718387921E+03 -0.19983960355E+03  0.27568252836E+03  0.12500000000E+03 0.  0.
         25    1    1    2    0    0 -0.62706437307E+02  0.35432842971E+02 -0.12029567099E+03  0.18783937846E+03  0.12500000000E+03 0.  0.
</event>
<event>
 5    0  0.5576108E-005  0.3621454E+03  0.7546771E-02  0.1057738E+00
         21   -1    0    0  502  501  0.00000000000E+00  0.00000000000E+00  0.17343904582E+03  0.17343904582E+03  0.00000000000E+00 0.  1.
         21   -1    0    0  501  502 -0.00000000000E+00 -0.00000000000E+00 -0.75616951453E+03  0.75616951453E+03  0.00000000000E+00 0.  1.
         25    1    1    2    0    0 -0.86913878139E+02  0.45067065528E+02 -0.73879635605E+02  0.17512356542E+03  0.12500000000E+03 0.  0.
         25    1    1    2    0    0  0.24250418088E+03  0.96942255466E+02 -0.37993332982E+03  0.47768233560E+03  0.12500000000E+03 0.  0.
         25    1    1    2    0    0 -0.15559030274E+03 -0.14200932099E+03 -0.12891750328E+03  0.27680265932E+03  0.12500000000E+03 0.  0.
</event>
<event>
 5    0  0.5812423E-005  0.3416033E+03  0.7546771E-02  0.1066115E+00
         21   -1    0    0  502  501  0.00000000000E+00  0.00000000000E+00  0.52020397097E+03  0.52020397097E+03  0.00000000000E+00 0. -1.
         21   -1    0    0  501  502 -0.00000000000E+00 -0.00000000000E+00 -0.22432126757E+03  0.22432126757E+03  0.00000000000E+00 0.  1.
         25    1    1    2    0    0 -0.22747246489E+03 -0.85359064109E+02 -0.60940575180E+01  0.27329842598E+03  0.12500000000E+03 0.  0.
         25    1    1    2    0    0  0.83445114807E+02  0.74502708906E+01  0.16773768399E+03  0.22534312581E+03  0.12500000000E+03 0.  0.
         25    1    1    2    0    0  0.14402735008E+03  0.77908793219E+02  0.13423907693E+03  0.24588368675E+03  0.12500000000E+03 0.  0.
</event>
<event>
 5    0  0.5576108E-005  0.2207589E+03  0.7546771E-02  0.1133319E+00
         21   -1    0    0  502  501  0.00000000000E+00  0.00000000000E+00  0.50809154152E+03  0.50809154152E+03  0.00000000000E+00 0.  1.
         21   -1    0    0  501  502 -0.00000000000E+00 -0.00000000000E+00 -0.95916778618E+02  0.95916778618E+02  0.00000000000E+00 0.  1.
         25    1    1    2    0    0 -0.86222406316E+02 -0.49767870509E+02  0.12471331318E+03  0.20270558643E+03  0.12500000000E+03 0.  0.
         25    1    1    2    0    0  0.33004884856E+02  0.18014304134E+02  0.86254609870E+02  0.15645668826E+03  0.12500000000E+03 0.  0.
         25    1    1    2    0    0  0.53217521459E+02  0.31753566375E+02  0.20120683986E+03  0.24484604545E+03  0.12500000000E+03 0.  0.
</event>
<event>
 5    0  0.5576108E-005  0.3860726E+03  0.7546771E-02  0.1048712E+00
         21   -1    0    0  502  501  0.00000000000E+00  0.00000000000E+00  0.73932405844E+02  0.73932405844E+02  0.00000000000E+00 0. -1.
         21   -1    0    0  501  502 -0.00000000000E+00 -0.00000000000E+00 -0.20160584365E+04  0.20160584365E+04  0.00000000000E+00 0. -1.
         25    1    1    2    0    0  0.19007065534E+03  0.80313677745E+02 -0.22150229714E+03  0.32751398213E+03  0.12500000000E+03 0.  0.
         25    1    1    2    0    0 -0.12054360229E+03  0.18487377498E+02 -0.50183897113E+03  0.53135665624E+03  0.12500000000E+03 0.  0.
         25    1    1    2    0    0 -0.69527053043E+02 -0.98801055243E+02 -0.12187847624E+04  0.12311202040E+04  0.12500000000E+03 0.  0.
</event>
<event>
 5    0  0.5576108E-005  0.2427925E+03  0.7546771E-02  0.1117946E+00
         21   -1    0    0  502  501  0.00000000000E+00  0.00000000000E+00  0.28240879772E+03  0.28240879772E+03  0.00000000000E+00 0. -1.
         21   -1    0    0  501  502 -0.00000000000E+00 -0.00000000000E+00 -0.20873353131E+03  0.20873353131E+03  0.00000000000E+00 0. -1.
         25    1    1    2    0    0 -0.44519828703E+02 -0.79342945993E+02  0.45131588553E+02  0.16105644511E+03  0.12500000000E+03 0.  0.
         25    1    1    2    0    0 -0.37308589774E+02  0.78483755784E+02  0.80114075401E+02  0.17203167113E+03  0.12500000000E+03 0.  0.
         25    1    1    2    0    0  0.81828418477E+02  0.85919020998E+00 -0.51570397539E+02  0.15805421279E+03  0.12500000000E+03 0.  0.
</event>
<event>
 5    0  0.5576108E-005  0.5869021E+03  0.7546771E-02  0.9932959E-01
         21   -1    0    0  502  501  0.00000000000E+00  0.00000000000E+00  0.12752849006E+03  0.12752849006E+03  0.00000000000E+00 0.  1.
         21   -1    0    0  501  502 -0.00000000000E+00 -0.00000000000E+00 -0.27009974962E+04  0.27009974962E+04  0.00000000000E+00 0.  1.
         25    1    1    2    0    0  0.24877772870E+03 -0.16194584637E+03 -0.48585549823E+03  0.58292141890E+03  0.12500000000E+03 0.  0.
         25    1    1    2    0    0  0.11281271875E+03 -0.21976835907E+03 -0.54946634186E+03  0.61527481827E+03  0.12500000000E+03 0.  0.
         25    1    1    2    0    0 -0.36159044745E+03  0.38171420544E+03 -0.15381471660E+04  0.16303297491E+04  0.12500000000E+03 0.  0.
</event>
<event>
 5    0  0.5576108E-005  0.2567081E+03  0.7546771E-02  0.1109137E+00
         21   -1    0    0  502  501  0.00000000000E+00  0.00000000000E+00  0.92932212119E+03  0.92932212119E+03  0.00000000000E+00 0.  1.
         21   -1    0    0  501  502 -0.00000000000E+00 -0.00000000000E+00 -0.70910858628E+02  0.70910858628E+02  0.00000000000E+00 0.  1.
         25    1    1    2    0    0 -0.66817248976E+02 -0.13324108319E+03  0.44991372811E+03  0.49016843406E+03  0.12500000000E+03 0.  0.
         25    1    1    2    0    0  0.16684505202E+02  0.77505358734E+02  0.27551342117E+03  0.31275885054E+03  0.12500000000E+03 0.  0.
         25    1    1    2    0    0  0.50132743774E+02  0.55735724453E+02  0.13298411327E+03  0.19730569521E+03  0.12500000000E+03 0.  0.
</event>
<event>
 5    0  0.5576108E-005  0.2178058E+03  0.7546771E-02  0.1135530E+00
         21   -1    0    0  502  501  0.00000000000E+00  0.00000000000E+00  0.57167311038E+03  0.57167311038E+03  0.00000000000E+00 0.  1.
         21   -1    0    0  501  502 -0.00000000000E+00 -0.00000000000E+00 -0.82983389835E+02  0.82983389835E+02  0.00000000000E+00 0.  1.
         25    1    1    2    0    0  0.66051932446E+02 -0.49165727341E+01  0.13704730517E+03  0.19696191084E+03  0.12500000000E+03 0.  0.
         25    1    1    2    0    0 -0.33187399724E+02  0.52805311885E+01  0.28334573500E+03  0.31151098384E+03  0.12500000000E+03 0.  0.
         25    1    1    2    0    0 -0.32864532722E+02 -0.36395845446E+00  0.68296680369E+02  0.14618360553E+03  0.12500000000E+03 0.  0.
</event>
<event>
 5    0  0.5576108E-005  0.3209408E+03  0.7546771E-02  0.1075217E+00
         21   -1    0    0  502  501  0.00000000000E+00  0.00000000000E+00  0.84267983551E+02  0.84267983551E+02  0.00000000000E+00 0.  1.
         21   -1    0    0  501  502 -0.00000000000E+00 -0.00000000000E+00 -0.12223265260E+04  0.12223265260E+04  0.00000000000E+00 0.  1.
         25    1    1    2    0    0  0.13345502805E+03  0.18463500906E+03 -0.61109652316E+03  0.66405142249E+03  0.12500000000E+03 0.  0.
         25    1    1    2    0    0 -0.17145955034E+02 -0.12795183960E+03 -0.19644326438E+03  0.26623413220E+03  0.12500000000E+03 0.  0.
         25    1    1    2    0    0 -0.11630907302E+03 -0.56683169459E+02 -0.33051875494E+03  0.37630895490E+03  0.12500000000E+03 0.  0.
</event>
<event>
 5    0  0.5576108E-005  0.3495606E+03  0.7546771E-02  0.1062796E+00
         21   -1    0    0  502  501  0.00000000000E+00  0.00000000000E+00  0.84088755488E+02  0.84088755488E+02  0.00000000000E+00 0.  1.
         21   -1    0    0  501  502 -0.00000000000E+00 -0.00000000000E+00 -0.14531387592E+04  0.14531387592E+04  0.00000000000E+00 0.  1.
         25    1    1    2    0    0  0.27795504935E+03 -0.29899871118E+01 -0.55318160534E+03  0.63158755369E+03  0.12500000000E+03 0.  0.
         25    1    1    2    0    0 -0.14390573214E+03  0.59432131720E+02 -0.37435521859E+03  0.42427334079E+03  0.12500000000E+03 0.  0.
         25    1    1    2    0    0 -0.13404931721E+03 -0.56442144608E+02 -0.44151317980E+03  0.48136662023E+03  0.12500000000E+03 0.  0.
</event>
<event>
 5    0  0.5576108E-005  0.2478907E+03  0.7546771E-02  0.1114645E+00
         21   -1    0    0  502  501  0.00000000000E+00  0.00000000000E+00  0.31063794914E+03  0.31063794914E+03  0.00000000000E+00 0.  1.
         21   -1    0    0  501  502 -0.00000000000E+00 -0.00000000000E+00 -0.19781809184E+03  0.19781809184E+03  0.00000000000E+00 0.  1.
         25    1    1    2    0    0  0.65464060632E+02  0.24284956576E+02  0.11134602729E+03  0.18137872020E+03  0.12500000000E+03 0.  0.
         25    1    1    2    0    0 -0.89680005673E+02 -0.43685927514E+02  0.77293123095E+02  0.17762373309E+03  0.12500000000E+03 0.  0.
         25    1    1    2    0    0  0.24215945041E+02  0.19400970937E+02 -0.75819293080E+02  0.14945358768E+03  0.12500000000E+03 0.  0.
</event>
<event>
 5    0  0.5576108E-005  0.3232271E+03  0.7546771E-02  0.1074174E+00
         21   -1    0    0  502  501  0.00000000000E+00  0.00000000000E+00  0.80264631864E+02  0.80264631864E+02  0.00000000000E+00 0. -1.
         21   -1    0    0  501  502 -0.00000000000E+00 -0.00000000000E+00 -0.13016414939E+04  0.13016414939E+04  0.00000000000E+00 0. -1.
         25    1    1    2    0    0 -0.30047975504E+02  0.11585808976E+03 -0.66815569802E+03  0.69020505257E+03  0.12500000000E+03 0.  0.
         25    1    1    2    0    0 -0.12224717162E+03 -0.64769815093E+02 -0.14733366634E+03  0.23763776879E+03  0.12500000000E+03 0.  0.
         25    1    1    2    0    0  0.15229514712E+03 -0.51088274667E+02 -0.40588749772E+03  0.45406330446E+03  0.12500000000E+03 0.  0.
</event>
<event>
 5    0  0.5576108E-005  0.3560310E+03  0.7546771E-02  0.1060167E+00
         21   -1    0    0  502  501  0.00000000000E+00  0.00000000000E+00  0.98981293786E+02  0.98981293786E+02  0.00000000000E+00 0.  1.
         21   -1    0    0  501  502 -0.00000000000E+00 -0.00000000000E+00 -0.12806265956E+04  0.12806265956E+04  0.00000000000E+00 0.  1.
         25    1    1    2    0    0 -0.14623837284E+03  0.24112667621E+03 -0.66216487350E+03  0.73048959976E+03  0.12500000000E+03 0.  0.
         25    1    1    2    0    0  0.89319967289E+02 -0.88087802058E+02 -0.18213204579E+03  0.25403661062E+03  0.12500000000E+03 0.  0.
         25    1    1    2    0    0  0.56918405554E+02 -0.15303887415E+03 -0.33734838249E+03  0.39508167898E+03  0.12500000000E+03 0.  0.
</event>
<event>
 5    0  0.5576108E-005  0.4716753E+03  0.7546771E-02  0.1021448E+00
         21   -1    0    0  502  501  0.00000000000E+00  0.00000000000E+00  0.78782447275E+03  0.78782447275E+03  0.00000000000E+00 0.  1.
         21   -1    0    0  501  502 -0.00000000000E+00 -0.00000000000E+00 -0.28239491151E+03  0.28239491151E+03  0.00000000000E+00 0.  1.
         25    1    1    2    0    0 -0.64154595109E+02  0.35963820960E+03  0.37271600923E+03  0.53665415065E+03  0.12500000000E+03 0.  0.
         25    1    1    2    0    0  0.16009397998E+03 -0.24142871789E+03  0.47988079870E+02  0.31913283137E+03  0.12500000000E+03 0.  0.
         25    1    1    2    0    0 -0.95939384870E+02 -0.11820949171E+03  0.84725472144E+02  0.21443240224E+03  0.12500000000E+03 0.  0.
</event>
<event>
 5    0  0.5576108E-005  0.2946020E+03  0.7546771E-02  0.1087971E+00
         21   -1    0    0  502  501  0.00000000000E+00  0.00000000000E+00  0.13324853068E+04  0.13324853068E+04  0.00000000000E+00 0.  1.
         21   -1    0    0  501  502 -0.00000000000E+00 -0.00000000000E+00 -0.65134202314E+02  0.65134202314E+02  0.00000000000E+00 0.  1.
         25    1    1    2    0    0  0.67355114001E+02 -0.88540656605E+02  0.24493505865E+03  0.29663840313E+03  0.12500000000E+03 0.  0.
         25    1    1    2    0    0  0.10582239237E+03  0.10371672665E+03  0.45954807006E+03  0.49876343772E+03  0.12500000000E+03 0.  0.
         25    1    1    2    0    0 -0.17317750637E+03 -0.15176070046E+02  0.56286797578E+03  0.60221766827E+03  0.12500000000E+03 0.  0.
</event>
<event>
 5    0  0.5576108E-005  0.2619403E+03  0.7546771E-02  0.1105983E+00
         21   -1    0    0  502  501  0.00000000000E+00  0.00000000000E+00  0.16158584613E+03  0.16158584613E+03  0.00000000000E+00 0.  1.
         21   -1    0    0  501  502 -0.00000000000E+00 -0.00000000000E+00 -0.42462071438E+03  0.42462071438E+03  0.00000000000E+00 0.  1.
         25    1    1    2    0    0 -0.52485684665E+02  0.43997537791E+02 -0.13489948535E+02  0.14316951190E+03  0.12500000000E+03 0.  0.
         25    1    1    2    0    0 -0.26824899796E+02  0.19001463312E+02  0.18347909865E+02  0.13054607100E+03  0.12500000000E+03 0.  0.
         25    1    1    2    0    0  0.79310584460E+02 -0.62999001103E+02 -0.26789282958E+03  0.31249097761E+03  0.12500000000E+03 0.  0.
</event>
<event>
 5    0  0.5576108E-005  0.2739315E+03  0.7546771E-02  0.1099050E+00
         21   -1    0    0  502  501  0.00000000000E+00  0.00000000000E+00  0.16151701296E+04  0.16151701296E+04  0.00000000000E+00 0.  1.
         21   -1    0    0  501  502 -0.00000000000E+00 -0.00000000000E+00 -0.46458537032E+02  0.46458537032E+02  0.00000000000E+00 0.  1.
         25    1    1    2    0    0 -0.49744710553E+02  0.10076597198E+03  0.45145596457E+03  0.48173208870E+03  0.12500000000E+03 0.  0.
         25    1    1    2    0    0  0.10292417644E+03 -0.36096842757E+01  0.25846519439E+03  0.30501749561E+03  0.12500000000E+03 0.  0.
         25    1    1    2    0    0 -0.53179465887E+02 -0.97156287701E+02  0.85879043359E+03  0.87487908231E+03  0.12500000000E+03 0.  0.
</event>
<event>
 5    0  0.5576108E-005  0.3755889E+03  0.7546771E-02  0.1052576E+00
         21   -1    0    0  502  501  0.00000000000E+00  0.00000000000E+00  0.79349886110E+02  0.79349886110E+02  0.00000000000E+00 0. -1.
         21   -1    0    0  501  502 -0.00000000000E+00 -0.00000000000E+00 -0.17777848525E+04  0.17777848525E+04  0.00000000000E+00 0. -1.
         25    1    1    2    0    0  0.19110450813E+02 -0.74561874794E+02 -0.13333835717E+03  0.19831490109E+03  0.12500000000E+03 0.  0.
         25    1    1    2    0    0 -0.43540406551E+02 -0.17006774662E+03 -0.33610688299E+03  0.39926387545E+03  0.12500000000E+03 0.  0.
         25    1    1    2    0    0  0.24429955737E+02  0.24462962141E+03 -0.12289897262E+04  0.12595559621E+04  0.12500000000E+03 0.  0.
</event>
<event>
 5    0  0.5576108E-005  0.3100299E+03  0.7546771E-02  0.1080332E+00
         21   -1    0    0  502  501  0.00000000000E+00  0.00000000000E+00  0.19617458185E+04  0.19617458185E+04  0.00000000000E+00 0. -1.
         21   -1    0    0  501  502 -0.00000000000E+00 -0.00000000000E+00 -0.48996422150E+02  0.48996422150E+02  0.00000000000E+00 0. -1.
         25    1    1    2    0    0 -0.12917312451E+03 -0.21578588827E+02  0.50188505029E+03  0.53354000347E+03  0.12500000000E+03 0.  0.
         25    1    1    2    0    0 -0.86500237354E+02  0.61628215257E+02  0.79220584150E+03  0.80900891422E+03  0.12500000000E+03 0.  0.
         25    1    1    2    0    0  0.21567336187E+03 -0.40049626430E+02  0.61865850460E+03  0.66819332301E+03  0.12500000000E+03 0.  0.
</event>
<event>
 5    0  0.5576108E-005  0.3213011E+03  0.7546771E-02  0.1075052E+00
         21   -1    0    0  502  501  0.00000000000E+00  0.00000000000E+00  0.20746927389E+04  0.20746927389E+04  0.00000000000E+00 0.  1.
         21   -1    0    0  501  502 -0.00000000000E+00 -0.00000000000E+00 -0.49758870783E+02  0.49758870783E+02  0.00000000000E+00 0.  1.
         25    1    1    2    0    0  0.15735491545E+03  0.83548064488E+02  0.57722932561E+03  0.61689508252E+03  0.12500000000E+03 0.  0.
         25    1    1    2    0    0 -0.22535556694E+03 -0.10179226915E+03  0.96199577926E+03  0.10011032299E+04  0.12500000000E+03 0.  0.
         25    1    1    2    0    0  0.68000651483E+02  0.18244204661E+02  0.48570876321E+03  0.50645329722E+03  0.12500000000E+03 0.  0.
</event>
<event>
 5    0  0.5576108E-005  0.3739907E+03  0.7546771E-02  0.1053177E+00
         21   -1    0    0  502  501  0.00000000000E+00  0.00000000000E+00  0.39816877453E+03  0.39816877453E+03  0.00000000000E+00 0. -1.
         21   -1    0    0  501  502 -0.00000000000E+00 -0.00000000000E+00 -0.35128070619E+03  0.35128070619E+03  0.00000000000E+00 0. -1.
         25    1    1    2    0    0 -0.22730659992E+03 -0.16385929318E+03  0.15320062807E+03  0.34294837916E+03  0.12500000000E+03 0.  0.
         25    1    1    2    0    0  0.16275273435E+03  0.56452632081E+02 -0.80864743643E+02  0.22768280342E+03  0.12500000000E+03 0.  0.
         25    1    1    2    0    0  0.64553865566E+02  0.10740666109E+03 -0.25447816098E+02  0.17881829814E+03  0.12500000000E+03 0.  0.
</event>
<event>
 5    0  0.5576108E-005  0.2727348E+03  0.7546771E-02  0.1099725E+00
         21   -1    0    0  502  501  0.00000000000E+00  0.00000000000E+00  0.53671627173E+02  0.53671627173E+02  0.00000000000E+00 0. -1.
         21   -1    0    0  501  502 -0.00000000000E+00 -0.00000000000E+00 -0.13859142260E+04  0.13859142260E+04  0.00000000000E+00 0. -1.
         25    1    1    2    0    0 -0.95338855206E+01  0.90677517937E+01 -0.27713094906E+03  0.30430195862E+03  0.12500000000E+03 0.  0.
         25    1    1    2    0    0  0.86914534952E+01  0.14976600960E+03 -0.69949930461E+03  0.72624353776E+03  0.12500000000E+03 0.  0.
         25    1    1    2    0    0  0.84243202546E+00 -0.15883376139E+03 -0.35561234516E+03  0.40904035679E+03  0.12500000000E+03 0.  0.
</event>
<event>
 5    0  0.5576108E-005  0.3613222E+03  0.7546771E-02  0.1058062E+00
         21   -1    0    0  502  501  0.00000000000E+00  0.00000000000E+00  0.17828083301E+03  0.17828083301E+03  0.00000000000E+00 0. -1.
         21   -1    0    0  501  502 -0.00000000000E+00 -0.00000000000E+00 -0.73229274466E+03  0.73229274466E+03  0.00000000000E+00 0. -1.
         25    1    1    2    0    0  0.92082089846E+02  0.35239231959E+02 -0.10160611958E+03  0.18886428534E+03  0.12500000000E+03 0.  0.
         25    1    1    2    0    0 -0.70571430650E+02 -0.18045746749E+03 -0.47457474997E+03  0.52762810550E+03  0.12500000000E+03 0.  0.
         25    1    1    2    0    0 -0.21510659196E+02  0.14521823553E+03  0.22168957910E+02  0.19408118684E+03  0.12500000000E+03 0.  0.
</event>
<event>
 5    0  0.5576108E-005  0.2162948E+03  0.7546771E-02  0.1136676E+00
         21   -1    0    0  502  501  0.00000000000E+00  0.00000000000E+00  0.60513425486E+02  0.60513425486E+02  0.00000000000E+00 0.  1.
         21   -1    0    0  501  502 -0.00000000000E+00 -0.00000000000E+00 -0.77310869090E+03  0.77310869090E+03  0.00000000000E+00 0.  1.
         25    1    1    2    0    0 -0.31097218758E+02 -0.72287892590E+02 -0.18087260059E+03  0.23352189207E+03  0.12500000000E+03 0.  0.
         25    1    1    2    0    0  0.10416744911E+02 -0.11277884135E+02 -0.25871335687E+03  0.28773824957E+03  0.12500000000E+03 0.  0.
         25    1    1    2    0    0  0.20680473846E+02  0.83565776725E+02 -0.27300930796E+03  0.31236197475E+03  0.12500000000E+03 0.  0.
</event>
<event>
 5    0  0.5576108E-005  0.3457719E+03  0.7546771E-02  0.1064364E+00
         21   -1    0    0  502  501  0.00000000000E+00  0.00000000000E+00  0.22911619375E+03  0.22911619375E+03  0.00000000000E+00 0.  1.
         21   -1    0    0  501  502 -0.00000000000E+00 -0.00000000000E+00 -0.52182353584E+03  0.52182353584E+03  0.00000000000E+00 0.  1.
         25    1    1    2    0    0  0.80455299598E+02 -0.37408365574E+02 -0.77483711735E+02  0.17175903654E+03  0.12500000000E+03 0.  0.
         25    1    1    2    0    0 -0.17768495142E+02 -0.19435075592E+03  0.25471884646E+01  0.23177451093E+03  0.12500000000E+03 0.  0.
         25    1    1    2    0    0 -0.62686804456E+02  0.23175912150E+03 -0.21777081882E+03  0.34740618212E+03  0.12500000000E+03 0.  0.
</event>
<event>
 5    0  0.5576108E-005  0.2332954E+03  0.7546771E-02  0.1124342E+00
         21   -1    0    0  502  501  0.00000000000E+00  0.00000000000E+00  0.31381241507E+03  0.31381241507E+03  0.00000000000E+00 0.  1.
         21   -1    0    0  501  502 -0.00000000000E+00 -0.00000000000E+00 -0.17343717544E+03  0.17343717544E+03  0.00000000000E+00 0.  1.
         25    1    1    2    0    0  0.20143116742E+02 -0.47311750860E+02 -0.10704076540E+02  0.13558659291E+03  0.12500000000E+03 0.  0.
         25    1    1    2    0    0 -0.68579951104E+02  0.72504004796E+01 -0.39717112571E+01  0.14281649936E+03  0.12500000000E+03 0.  0.
         25    1    1    2    0    0  0.48436834362E+02  0.40061350380E+02  0.15505102743E+03  0.20884649823E+03  0.12500000000E+03 0.  0.
</event>
<event>
 5    0  0.5576108E-005  0.2047302E+03  0.7546771E-02  0.1145808E+00
         21   -1    0    0  502  501  0.00000000000E+00  0.00000000000E+00  0.26435494250E+03  0.26435494250E+03  0.00000000000E+00 0.  1.
         21   -1    0    0  501  502 -0.00000000000E+00 -0.00000000000E+00 -0.15855364142E+03  0.15855364142E+03  0.00000000000E+00 0.  1.
         25    1    1    2    0    0 -0.39001220944E+02 -0.28348819052E+01 -0.23286037420E+02  0.13302770888E+03  0.12500000000E+03 0.  0.
         25    1    1    2    0    0  0.40950037155E+02  0.53070487368E+01  0.44684190049E+02  0.13902067166E+03  0.12500000000E+03 0.  0.
         25    1    1    2    0    0 -0.19488162112E+01 -0.24721668316E+01  0.84403148456E+02  0.15086020338E+03  0.12500000000E+03 0.  0.
</event>
<event>
 5    0  0.6139557E-005  0.2609684E+03  0.7546771E-02  0.1106563E+00
         21   -1    0    0  502  501  0.00000000000E+00  0.00000000000E+00  0.45286515271E+03  0.45286515271E+03  0.00000000000E+00 0. -1.
         21   -1    0    0  501  502 -0.00000000000E+00 -0.00000000000E+00 -0.15038581714E+03  0.15038581714E+03  0.00000000000E+00 0. -1.
         25    1    1    2    0    0  0.13685472000E+02 -0.11153872598E+03  0.54022859622E+02  0.17655494583E+03  0.12500000000E+03 0.  0.
         25    1    1    2    0    0  0.50659875066E+02 -0.88282562662E+01  0.26563651223E+02  0.13774973182E+03  0.12500000000E+03 0.  0.
         25    1    1    2    0    0 -0.64345347066E+02  0.12036698225E+03  0.22189282473E+03  0.28894629219E+03  0.12500000000E+03 0.  0.
</event>
<event>
 5    0  0.5576108E-005  0.3173939E+03  0.7546771E-02  0.1076855E+00
         21   -1    0    0  502  501  0.00000000000E+00  0.00000000000E+00  0.15765252355E+04  0.15765252355E+04  0.00000000000E+00 0. -1.
         21   -1    0    0  501  502 -0.00000000000E+00 -0.00000000000E+00 -0.63899334380E+02  0.63899334380E+02  0.00000000000E+00 0. -1.
         25    1    1    2    0    0  0.17038140631E+03  0.56351185012E+02  0.28029422816E+03  0.35552093329E+03  0.12500000000E+03 0.  0.
         25    1    1    2    0    0 -0.28696608142E+02 -0.21761902145E+02  0.81717151105E+03  0.82746078710E+03  0.12500000000E+03 0.  0.
         25    1    1    2    0    0 -0.14168479817E+03 -0.34589282867E+02  0.41516016194E+03  0.45744284953E+03  0.12500000000E+03 0.  0.
</event>
<event>
 5    0  0.5576108E-005  0.3984860E+03  0.7546771E-02  0.1044305E+00
         21   -1    0    0  502  501  0.00000000000E+00  0.00000000000E+00  0.77542158122E+03  0.77542158122E+03  0.00000000000E+00 0.  1.
         21   -1    0    0  501  502 -0.00000000000E+00 -0.00000000000E+00 -0.20478032299E+03  0.20478032299E+03  0.00000000000E+00 0.  1.
         25    1    1    2    0    0  0.44915077579E+02  0.17231755436E+03 -0.28592492001E+02  0.21943845227E+03  0.12500000000E+03 0.  0.
         25    1    1    2    0    0 -0.65940146394E+02 -0.16705885290E+03  0.59485268599E+03  0.63382291002E+03  0.12500000000E+03 0.  0.
         25    1    1    2    0    0  0.21025068815E+02 -0.52587014551E+01  0.43810642361E+01  0.12694054192E+03  0.12500000000E+03 0.  0.
</event>
<event>
 5    0  0.6600127E-005  0.2871618E+03  0.7546771E-02  0.1091840E+00
         21   -1    0    0  502  501  0.00000000000E+00  0.00000000000E+00  0.23339120638E+03  0.23339120638E+03  0.00000000000E+00 0. -1.
         21   -1    0    0  501  502 -0.00000000000E+00 -0.00000000000E+00 -0.35332052422E+03  0.35332052422E+03  0.00000000000E+00 0. -1.
         25    1    1    2    0    0  0.25769343318E+02  0.52005692297E+02 -0.16018785866E+03  0.21131446034E+03  0.12500000000E+03 0.  0.
         25    1    1    2    0    0 -0.97979349217E+02 -0.13005925220E+03  0.49027126399E+02  0.21105454527E+03  0.12500000000E+03 0.  0.
         25    1    1    2    0    0  0.72210005898E+02  0.78053559904E+02 -0.87685855767E+01  0.16434272499E+03  0.12500000000E+03 0.  0.
</event>
<event>
 5    0  0.5576108E-005  0.4180423E+03  0.7546771E-02  0.1037705E+00
         21   -1    0    0  502  501  0.00000000000E+00  0.00000000000E+00  0.36047127260E+03  0.36047127260E+03  0.00000000000E+00 0.  1.
         21   -1    0    0  501  502 -0.00000000000E+00 -0.00000000000E+00 -0.48480795796E+03  0.48480795796E+03  0.00000000000E+00 0.  1.
         25    1    1    2    0    0 -0.12241260852E+02 -0.35262414640E+03 -0.20157741361E+02  0.37486660511E+03  0.12500000000E+03 0.  0.
         25    1    1    2    0    0  0.41433335472E+02  0.13572078688E+03  0.18669179166E+02  0.19002734417E+03  0.12500000000E+03 0.  0.
         25    1    1    2    0    0 -0.29192074620E+02  0.21690335952E+03 -0.12284812317E+03  0.28038528128E+03  0.12500000000E+03 0.  0.
</event>
<event>
 5    0  0.5576108E-005  0.3267000E+03  0.7546771E-02  0.1072606E+00
         21   -1    0    0  502  501  0.00000000000E+00  0.00000000000E+00  0.11977162609E+03  0.11977162609E+03  0.00000000000E+00 0.  1.
         21   -1    0    0  501  502 -0.00000000000E+00 -0.00000000000E+00 -0.89113660920E+03  0.89113660920E+03  0.00000000000E+00 0.  1.
         25    1    1    2    0    0 -0.10517409917E+03 -0.13188732689E+03 -0.18108592778E+03  0.27725975433E+03  0.12500000000E+03 0.  0.
         25    1    1    2    0    0 -0.44342996054E+02  0.11782167886E+03 -0.47438137264E+03  0.50646908693E+03  0.12500000000E+03 0.  0.
         25    1    1    2    0    0  0.14951709522E+03  0.14065648033E+02 -0.11589768269E+03  0.22717939403E+03  0.12500000000E+03 0.  0.
</event>
<event>
 5    0  0.5576108E-005  0.3175488E+03  0.7546771E-02  0.1076783E+00
         21   -1    0    0  502  501  0.00000000000E+00  0.00000000000E+00  0.10216346916E+04  0.10216346916E+04  0.00000000000E+00 0. -1.
         21   -1    0    0  501  502 -0.00000000000E+00 -0.00000000000E+00 -0.98701854813E+02  0.98701854813E+02  0.00000000000E+00 0. -1.
         25    1    1    2    0    0  0.14602465252E+02 -0.79943249823E+02  0.42810956065E+02  0.15511909342E+03  0.12500000000E+03 0.  0.
         25    1    1    2    0    0  0.13241269574E+03  0.89756402567E+02  0.45736324368E+03  0.50039531419E+03  0.12500000000E+03 0.  0.
         25    1    1    2    0    0 -0.14701516099E+03 -0.98131527442E+01  0.42275863704E+03  0.46482213880E+03  0.12500000000E+03 0.  0.
</event>
<event>
 5    0  0.5576108E-005  0.2646616E+03  0.7546771E-02  0.1104374E+00
         21   -1    0    0  502  501  0.00000000000E+00  0.00000000000E+00  0.26350137903E+02  0.26350137903E+02  0.00000000000E+00 0. -1.
         21   -1    0    0  501  502 -0.00000000000E+00 -0.00000000000E+00 -0.26582702464E+04  0.26582702464E+04  0.00000000000E+00 0. -1.
         25    1    1    2    0    0  0.81675727195E+02 -0.39523354575E+02 -0.14081242717E+04  0.14165705011E+04  0.12500000000E+03 0.  0.
         25    1    1    2    0    0 -0.11531524569E+03 -0.22612829238E+02 -0.46170242842E+03  0.49254753917E+03  0.12500000000E+03 0.  0.
         25    1    1    2    0    0  0.33639518497E+02  0.62136183813E+02 -0.76209340835E+03  0.77550234403E+03  0.12500000000E+03 0.  0.
</event>
<event>
 5    0  0.5576108E-005  0.3745297E+03  0.7546771E-02  0.1052974E+00
         21   -1    0    0  502  501  0.00000000000E+00  0.00000000000E+00  0.25579362940E+03  0.25579362940E+03  0.00000000000E+00 0. -1.
         21   -1    0    0  501  502 -0.00000000000E+00 -0.00000000000E+00 -0.54838155019E+03  0.54838155019E+03  0.00000000000E+00 0. -1.
         25    1    1    2    0    0  0.54480434646E+02  0.13382643371E+01 -0.31154858134E+03  0.34008444134E+03  0.12500000000E+03 0.  0.
         25    1    1    2    0    0 -0.14222988479E+03 -0.10450243573E+03  0.12665172744E+03  0.25063072291E+03  0.12500000000E+03 0.  0.
         25    1    1    2    0    0  0.87749450146E+02  0.10316417139E+03 -0.10769106690E+03  0.21346001534E+03  0.12500000000E+03 0.  0.
</event>
<event>
 5    0  0.5576108E-005  0.2475578E+03  0.7546771E-02  0.1114858E+00
         21   -1    0    0  502  501  0.00000000000E+00  0.00000000000E+00  0.78540647531E+02  0.78540647531E+02  0.00000000000E+00 0. -1.
         21   -1    0    0  501  502 -0.00000000000E+00 -0.00000000000E+00 -0.78029469291E+03  0.78029469291E+03  0.00000000000E+00 0. -1.
         25    1    1    2    0    0  0.20059853542E+02 -0.72182412621E+02 -0.24277864382E+03  0.28315926315E+03  0.12500000000E+03 0.  0.
         25    1    1    2    0    0 -0.51230354562E+02 -0.64196115595E+02 -0.27428822352E+03  0.31241754119E+03  0.12500000000E+03 0.  0.
         25    1    1    2    0    0  0.31170501020E+02  0.13637852822E+03 -0.18468717804E+03  0.26325853609E+03  0.12500000000E+03 0.  0.
</event>
<event>
 5    0  0.5576108E-005  0.5503703E+03  0.7546771E-02  0.1001408E+00
         21   -1    0    0  502  501  0.00000000000E+00  0.00000000000E+00  0.80340929819E+03  0.80340929819E+03  0.00000000000E+00 0.  1.
         21   -1    0    0  501  502 -0.00000000000E+00 -0.00000000000E+00 -0.37702760915E+03  0.37702760915E+03  0.00000000000E+00 0. -1.
         25    1    1    2    0    0 -0.42401129394E+03  0.73791454372E+02  0.30906555167E+03  0.54440542921E+03  0.12500000000E+03 0.  0.
         25    1    1    2    0    0  0.99586488387E+02  0.74668552675E+02 -0.97155737247E+02  0.20138793089E+03  0.12500000000E+03 0.  0.
         25    1    1    2    0    0  0.32442480555E+03 -0.14846000705E+03  0.21447187462E+03  0.43464354723E+03  0.12500000000E+03 0.  0.
</event>
<event>
 5    0  0.5576108E-005  0.2048840E+03  0.7546771E-02  0.1145683E+00
         21   -1    0    0  502  501  0.00000000000E+00  0.00000000000E+00  0.20176283216E+03  0.20176283216E+03  0.00000000000E+00 0. -1.
         21   -1    0    0  501  502 -0.00000000000E+00 -0.00000000000E+00 -0.20805346981E+03  0.20805346981E+03  0.00000000000E+00 0. -1.
         25    1    1    2    0    0 -0.68414078898E+02 -0.30007455479E+01 -0.30059930290E+02  0.14566430611E+03  0.12500000000E+03 0.  0.
         25    1    1    2    0    0  0.56364272862E+02 -0.25972655872E+01  0.68665605923E+01  0.13731652012E+03  0.12500000000E+03 0.  0.
         25    1    1    2    0    0  0.12049806036E+02  0.55980111351E+01  0.16902732046E+02  0.12683547573E+03  0.12500000000E+03 0.  0.
</event>
<event>
 5    0  0.5576108E-005  0.3296960E+03  0.7546771E-02  0.1071271E+00
         21   -1    0    0  502  501  0.00000000000E+00  0.00000000000E+00  0.41026309994E+03  0.41026309994E+03  0.00000000000E+00 0.  1.
         21   -1    0    0  501  502 -0.00000000000E+00 -0.00000000000E+00 -0.26495062395E+03  0.26495062395E+03  0.00000000000E+00 0.  1.
         25    1    1    2    0    0  0.12489898307E+03  0.10488189711E+03  0.95323257920E+02  0.22652040044E+03  0.12500000000E+03 0.  0.
         25    1    1    2    0    0 -0.17465915644E+03 -0.18437169322E+03 -0.47904685153E+01  0.28310190882E+03  0.12500000000E+03 0.  0.
         25    1    1    2    0    0  0.49760173366E+02  0.79489796114E+02  0.54779686578E+02  0.16559141464E+03  0.12500000000E+03 0.  0.
</event>
<event>
 5    0  0.5576108E-005  0.3144736E+03  0.7546771E-02  0.1078221E+00
         21   -1    0    0  502  501  0.00000000000E+00  0.00000000000E+00  0.22132679464E+03  0.22132679464E+03  0.00000000000E+00 0. -1.
         21   -1    0    0  501  502 -0.00000000000E+00 -0.00000000000E+00 -0.44682185775E+03  0.44682185775E+03  0.00000000000E+00 0. -1.
         25    1    1    2    0    0 -0.10976408580E+03 -0.13206206241E+03 -0.35207047108E+02  0.21529765216E+03  0.12500000000E+03 0.  0.
         25    1    1    2    0    0 -0.68980557611E+02  0.82767334767E+02 -0.95097062244E+01  0.16530028296E+03  0.12500000000E+03 0.  0.
         25    1    1    2    0    0  0.17874464341E+03  0.49294727643E+02 -0.18077830978E+03  0.28755071728E+03  0.12500000000E+03 0.  0.
</event>
<event>
 5    0  0.5576108E-005  0.2597762E+03  0.7546771E-02  0.1107278E+00
         21   -1    0    0  502  501  0.00000000000E+00  0.00000000000E+00  0.45504460254E+03  0.45504460254E+03  0.00000000000E+00 0. -1.
         21   -1    0    0  501  502 -0.00000000000E+00 -0.00000000000E+00 -0.14830124552E+03  0.14830124552E+03  0.00000000000E+00 0. -1.
         25    1    1    2    0    0 -0.47072950107E+01 -0.43976967983E+02  0.74990025185E+02  0.15233068048E+03  0.12500000000E+03 0.  0.
         25    1    1    2    0    0  0.10128930661E+03 -0.81901292212E+02  0.14337608989E+03  0.23054077394E+03  0.12500000000E+03 0.  0.
         25    1    1    2    0    0 -0.96582011596E+02  0.12587826020E+03  0.88377241944E+02  0.22047439363E+03  0.12500000000E+03 0.  0.
</event>
<event>
 5    0  0.5576108E-005  0.3094121E+03  0.7546771E-02  0.1080628E+00
         21   -1    0    0  502  501  0.00000000000E+00  0.00000000000E+00  0.22862039655E+03  0.22862039655E+03  0.00000000000E+00 0. -1.
         21   -1    0    0  501  502 -0.00000000000E+00 -0.00000000000E+00 -0.41875471414E+03  0.41875471414E+03  0.00000000000E+00 0. -1.
         25    1    1    2    0    0 -0.20590637456E+02 -0.13663742297E+03 -0.24873596839E+03  0.31078664978E+03  0.12500000000E+03 0.  0.
         25    1    1    2    0    0  0.61703914413E+02  0.14197794619E+03  0.46527331035E+02  0.20434016441E+03  0.12500000000E+03 0.  0.
         25    1    1    2    0    0 -0.41113276956E+02 -0.53405232207E+01  0.12074319770E+02  0.13224829650E+03  0.12500000000E+03 0.  0.
</event>
<event>
 5    0  0.5576108E-005  0.2939358E+03  0.7546771E-02  0.1088312E+00
         21   -1    0    0  502  501  0.00000000000E+00  0.00000000000E+00  0.86919314976E+02  0.86919314976E+02  0.00000000000E+00 0.  1.
         21   -1    0    0  501  502 -0.00000000000E+00 -0.00000000000E+00 -0.99400543824E+03  0.99400543824E+03  0.00000000000E+00 0.  1.
         25    1    1    2    0    0 -0.17409409124E+02 -0.63582406974E+01 -0.23616484502E+03  0.26784762230E+03  0.12500000000E+03 0.  0.
         25    1    1    2    0    0  0.19803957299E+03 -0.31723710061E+02 -0.34029787330E+03  0.41431112563E+03  0.12500000000E+03 0.  0.
         25    1    1    2    0    0 -0.18063016386E+03  0.38081950758E+02 -0.33062340495E+03  0.39876600528E+03  0.12500000000E+03 0.  0.
</event>
<event>
 5    0  0.5576108E-005  0.4692960E+03  0.7546771E-02  0.1022119E+00
         21   -1    0    0  502  501  0.00000000000E+00  0.00000000000E+00  0.20060781358E+04  0.20060781358E+04  0.00000000000E+00 0.  1.
         21   -1    0    0  501  502 -0.00000000000E+00 -0.00000000000E+00 -0.10978573406E+03  0.10978573406E+03  0.00000000000E+00 0.  1.
         25    1    1    2    0    0 -0.13939465225E+03  0.37344768450E+03  0.83118441772E+03  0.93026156451E+03  0.12500000000E+03 0.  0.
         25    1    1    2    0    0  0.23808539168E+02 -0.27997270208E+03  0.48929406000E+03  0.57791455908E+03  0.12500000000E+03 0.  0.
         25    1    1    2    0    0  0.11558611309E+03 -0.93474982427E+02  0.57581392401E+03  0.60768774627E+03  0.12500000000E+03 0.  0.
</event>
<event>
 5    0  0.5576108E-005  0.3557018E+03  0.7546771E-02  0.1060299E+00
         21   -1    0    0  502  501  0.00000000000E+00  0.00000000000E+00  0.23622792497E+03  0.23622792497E+03  0.00000000000E+00 0.  1.
         21   -1    0    0  501  502 -0.00000000000E+00 -0.00000000000E+00 -0.53560054658E+03  0.53560054658E+03  0.00000000000E+00 0.  1.
         25    1    1    2    0    0 -0.69134264639E+02  0.10540862671E+03  0.76842637045E+02  0.19344331469E+03  0.12500000000E+03 0.  0.
         25    1    1    2    0    0 -0.16756544136E+01 -0.56745704050E+02  0.33651838855E+02  0.14135179166E+03  0.12500000000E+03 0.  0.
         25    1    1    2    0    0  0.70809919052E+02 -0.48662922656E+02 -0.40986709751E+03  0.43703336520E+03  0.12500000000E+03 0.  0.
</event>
<event>
 5    0  0.5576108E-005  0.3941160E+03  0.7546771E-02  0.1045836E+00
         21   -1    0    0  502  501  0.00000000000E+00  0.00000000000E+00  0.11831796969E+04  0.11831796969E+04  0.00000000000E+00 0.  1.
         21   -1    0    0  501  502 -0.00000000000E+00 -0.00000000000E+00 -0.13127964126E+03  0.13127964126E+03  0.00000000000E+00 0.  1.
         25    1    1    2    0    0  0.54989587093E+02 -0.15093602812E+03  0.10086154241E+03  0.22716423576E+03  0.12500000000E+03 0.  0.
         25    1    1    2    0    0 -0.24345921738E+02  0.28688122278E+03  0.74767519714E+03  0.81088640407E+03  0.12500000000E+03 0.  0.
         25    1    1    2    0    0 -0.30643665356E+02 -0.13594519466E+03  0.20336331604E+03  0.27640869829E+03  0.12500000000E+03 0.  0.
</event>
<event>
 5    0  0.5610808E-005  0.3268717E+03  0.7546771E-02  0.1072530E+00
         21   -1    0    0  502  501  0.00000000000E+00  0.00000000000E+00  0.13014186050E+03  0.13014186050E+03  0.00000000000E+00 0. -1.
         21   -1    0    0  501  502 -0.00000000000E+00 -0.00000000000E+00 -0.82098934755E+03  0.82098934755E+03  0.00000000000E+00 0. -1.
         25    1    1    2    0    0 -0.68012528259E+02 -0.33384625279E+02 -0.32689231832E+03  0.35808354469E+03  0.12500000000E+03 0.  0.
         25    1    1    2    0    0 -0.11743454493E+03  0.12372581216E+03 -0.24644918582E+03  0.32474782544E+03  0.12500000000E+03 0.  0.
         25    1    1    2    0    0  0.18544707319E+03 -0.90341186879E+02 -0.11750598291E+03  0.26829983790E+03  0.12500000000E+03 0.  0.
</event>
<event>
 5    0  0.5576108E-005  0.3175382E+03  0.7546771E-02  0.1076788E+00
         21   -1    0    0  502  501  0.00000000000E+00  0.00000000000E+00  0.11467363897E+04  0.11467363897E+04  0.00000000000E+00 0.  1.
         21   -1    0    0  501  502 -0.00000000000E+00 -0.00000000000E+00 -0.87928239826E+02  0.87928239826E+02  0.00000000000E+00 0.  1.
         25    1    1    2    0    0 -0.15032781867E+03  0.20258571068E+02  0.30168345206E+03  0.36006494972E+03  0.12500000000E+03 0.  0.
         25    1    1    2    0    0 -0.20874907003E+02  0.12241199255E+03  0.23937126760E+03  0.29722728915E+03  0.12500000000E+03 0.  0.
         25    1    1    2    0    0  0.17120272568E+03 -0.14267056362E+03  0.51775343024E+03  0.57737239069E+03  0.12500000000E+03 0.  0.
</event>
<event>
 5    0  0.5576108E-005  0.3738246E+03  0.7546771E-02  0.1053240E+00
         21   -1    0    0  502  501  0.00000000000E+00  0.00000000000E+00  0.22883505850E+03  0.22883505850E+03  0.00000000000E+00 0.  1.
         21   -1    0    0  501  502 -0.00000000000E+00 -0.00000000000E+00 -0.61067934346E+03  0.61067934346E+03  0.00000000000E+00 0.  1.
         25    1    1    2    0    0 -0.71429441138E+02  0.15530302943E+03 -0.25115147000E+03  0.32851675284E+03  0.12500000000E+03 0.  0.
         25    1    1    2    0    0  0.20778303324E+03 -0.13783775580E+03  0.81628440439E+01  0.27904241228E+03  0.12500000000E+03 0.  0.
         25    1    1    2    0    0 -0.13635359210E+03 -0.17465273630E+02 -0.13885565899E+03  0.23195523684E+03  0.12500000000E+03 0.  0.
</event>
<event>
 5    0  0.5576108E-005  0.2962244E+03  0.7546771E-02  0.1087143E+00
         21   -1    0    0  502  501  0.00000000000E+00  0.00000000000E+00  0.13377405032E+03  0.13377405032E+03  0.00000000000E+00 0.  1.
         21   -1    0    0  501  502 -0.00000000000E+00 -0.00000000000E+00 -0.65594872762E+03  0.65594872762E+03  0.00000000000E+00 0.  1.
         25    1    1    2    0    0  0.34007924122E+02  0.85645939595E+02 -0.20346434082E+03  0.25595801191E+03  0.12500000000E+03 0.  0.
         25    1    1    2    0    0  0.94435339934E+02 -0.11665192684E+03 -0.28996873369E+03  0.34961775124E+03  0.12500000000E+03 0.  0.
         25    1    1    2    0    0 -0.12844326406E+03  0.31005987241E+02 -0.28741602788E+02  0.18414701479E+03  0.12500000000E+03 0.  0.
</event>
<event>
 5    0  0.5576108E-005  0.1998152E+03  0.7546771E-02  0.1149895E+00
         21   -1    0    0  502  501  0.00000000000E+00  0.00000000000E+00  0.20846700148E+03  0.20846700148E+03  0.00000000000E+00 0.  1.
         21   -1    0    0  501  502 -0.00000000000E+00 -0.00000000000E+00 -0.19152256041E+03  0.19152256041E+03  0.00000000000E+00 0.  1.
         25    1    1    2    0    0  0.53341593004E+02 -0.16223569179E+02 -0.16639553329E+02  0.13787822336E+03  0.12500000000E+03 0.  0.
         25    1    1    2    0    0 -0.37421344778E+02  0.10769727992E+02  0.36610528317E+02  0.13594732388E+03  0.12500000000E+03 0.  0.
         25    1    1    2    0    0 -0.15920248226E+02  0.54538411879E+01 -0.30265339218E+01  0.12616401466E+03  0.12500000000E+03 0.  0.
</event>
<event>
 5    0  0.5576108E-005  0.2611821E+03  0.7546771E-02  0.1106435E+00
         21   -1    0    0  502  501  0.00000000000E+00  0.00000000000E+00  0.47276299247E+02  0.47276299247E+02  0.00000000000E+00 0. -1.
         21   -1    0    0  501  502 -0.00000000000E+00 -0.00000000000E+00 -0.14429232626E+04  0.14429232626E+04  0.00000000000E+00 0. -1.
         25    1    1    2    0    0  0.38140171861E+02 -0.84622869951E+02 -0.17280222768E+03  0.23259688889E+03  0.12500000000E+03 0.  0.
         25    1    1    2    0    0 -0.72897274450E+02  0.21714986537E+02 -0.70712176426E+03  0.72210230768E+03  0.12500000000E+03 0.  0.
         25    1    1    2    0    0  0.34757102590E+02  0.62907883415E+02 -0.51572297137E+03  0.53550036524E+03  0.12500000000E+03 0.  0.
</event>
<event>
 5    0  0.5576108E-005  0.2839154E+03  0.7546771E-02  0.1093569E+00
         21   -1    0    0  502  501  0.00000000000E+00  0.00000000000E+00  0.31708893664E+03  0.31708893664E+03  0.00000000000E+00 0.  1.
         21   -1    0    0  501  502 -0.00000000000E+00 -0.00000000000E+00 -0.25421252728E+03  0.25421252728E+03  0.00000000000E+00 0.  1.
         25    1    1    2    0    0  0.19342834201E+01 -0.29472831148E+02 -0.93108671604E+02  0.15863988766E+03  0.12500000000E+03 0.  0.
         25    1    1    2    0    0  0.11309446028E+03  0.66776342664E+02  0.34776081973E+01  0.18134643819E+03  0.12500000000E+03 0.  0.
         25    1    1    2    0    0 -0.11502874370E+03 -0.37303511516E+02  0.15250747277E+03  0.23131513807E+03  0.12500000000E+03 0.  0.
</event>
<event>
 5    0  0.5576108E-005  0.2408157E+03  0.7546771E-02  0.1119251E+00
         21   -1    0    0  502  501  0.00000000000E+00  0.00000000000E+00  0.66382010651E+03  0.66382010651E+03  0.00000000000E+00 0.  1.
         21   -1    0    0  501  502 -0.00000000000E+00 -0.00000000000E+00 -0.87361291781E+02  0.87361291781E+02  0.00000000000E+00 0.  1.
         25    1    1    2    0    0 -0.22300230373E+02 -0.45407872386E+02  0.16366273874E+03  0.21206052721E+03  0.12500000000E+03 0.  0.
         25    1    1    2    0    0  0.67467904651E+02 -0.42742445239E+02  0.32456582395E+03  0.35685684646E+03  0.12500000000E+03 0.  0.
         25    1    1    2    0    0 -0.45167674278E+02  0.88150317625E+02  0.88230252029E+02  0.18226402462E+03  0.12500000000E+03 0.  0.
</event>
<event>
 5    0  0.5576108E-005  0.2729879E+03  0.7546771E-02  0.1099582E+00
         21   -1    0    0  502  501  0.00000000000E+00  0.00000000000E+00  0.18490923944E+03  0.18490923944E+03  0.00000000000E+00 0. -1.
         21   -1    0    0  501  502 -0.00000000000E+00 -0.00000000000E+00 -0.40302134164E+03  0.40302134164E+03  0.00000000000E+00 0. -1.
         25    1    1    2    0    0 -0.10164439603E+02  0.61486677497E+02 -0.12693204220E+03  0.18873439188E+03  0.12500000000E+03 0.  0.
         25    1    1    2    0    0  0.82663215208E+01  0.82549245253E+02 -0.13686832931E+03  0.20307793955E+03  0.12500000000E+03 0.  0.
         25    1    1    2    0    0  0.18981180824E+01 -0.14403592275E+03  0.45688269315E+02  0.19611824965E+03  0.12500000000E+03 0.  0.
</event>
<event>
 5    0  0.5576108E-005  0.2524668E+03  0.7546771E-02  0.1111756E+00
         21   -1    0    0  502  501  0.00000000000E+00  0.00000000000E+00  0.22472714685E+03  0.22472714685E+03  0.00000000000E+00 0.  1.
         21   -1    0    0  501  502 -0.00000000000E+00 -0.00000000000E+00 -0.28363044585E+03  0.28363044585E+03  0.00000000000E+00 0.  1.
         25    1    1    2    0    0 -0.84954728360E+02  0.33265350211E+02 -0.69745182518E+02  0.16974474920E+03  0.12500000000E+03 0.  0.
         25    1    1    2    0    0  0.68896106532E+02  0.28836034140E+02  0.95917044529E+02  0.17436533426E+03  0.12500000000E+03 0.  0.
         25    1    1    2    0    0  0.16058621828E+02 -0.62101384351E+02 -0.85075161008E+02  0.16424750925E+03  0.12500000000E+03 0.  0.
</event>
<event>
 5    0  0.5576108E-005  0.5330166E+03  0.7546771E-02  0.1005503E+00
         21   -1    0    0  502  501  0.00000000000E+00  0.00000000000E+00  0.10584259748E+03  0.10584259748E+03  0.00000000000E+00 0. -1.
         21   -1    0    0  501  502 -0.00000000000E+00 -0.00000000000E+00 -0.26842378672E+04  0.26842378672E+04  0.00000000000E+00 0. -1.
         25    1    1    2    0    0  0.14741112542E+03 -0.24623590912E+03 -0.10733993708E+04  0.11181115204E+04  0.12500000000E+03 0.  0.
         25    1    1    2    0    0 -0.33632807288E+01  0.19598280851E+03 -0.14481747254E+04  0.14667159262E+04  0.12500000000E+03 0.  0.
         25    1    1    2    0    0 -0.14404784469E+03  0.50253100608E+02 -0.56821173556E+02  0.20525301811E+03  0.12500000000E+03 0.  0.
</event>
<event>
 5    0  0.5576108E-005  0.3615718E+03  0.7546771E-02  0.1057963E+00
         21   -1    0    0  502  501  0.00000000000E+00  0.00000000000E+00  0.12292280797E+04  0.12292280797E+04  0.00000000000E+00 0.  1.
         21   -1    0    0  501  502 -0.00000000000E+00 -0.00000000000E+00 -0.10635465974E+03  0.10635465974E+03  0.00000000000E+00 0.  1.
         25    1    1    2    0    0 -0.97495755324E+02  0.20415712358E+03  0.16947421973E+03  0.30908261770E+03  0.12500000000E+03 0.  0.
         25    1    1    2    0    0  0.59219538218E+02 -0.18548922453E+02  0.23751410107E+03  0.27547951727E+03  0.12500000000E+03 0.  0.
         25    1    1    2    0    0  0.38276217106E+02 -0.18560820113E+03  0.71588509916E+03  0.75102060446E+03  0.12500000000E+03 0.  0.
</event>
<event>
 5    0  0.5576108E-005  0.2288811E+03  0.7546771E-02  0.1127430E+00
         21   -1    0    0  502  501  0.00000000000E+00  0.00000000000E+00  0.84078424343E+02  0.84078424343E+02  0.00000000000E+00 0. -1.
         21   -1    0    0  501  502 -0.00000000000E+00 -0.00000000000E+00 -0.62306757416E+03  0.62306757416E+03  0.00000000000E+00 0. -1.
         25    1    1    2    0    0  0.68308743270E+02  0.49613784933E+02 -0.14483810377E+03  0.20911883790E+03  0.12500000000E+03 0.  0.
         25    1    1    2    0    0 -0.72150471579E+02 -0.49127727677E+02 -0.11130555136E+03  0.18876744936E+03  0.12500000000E+03 0.  0.
         25    1    1    2    0    0  0.38417283092E+01 -0.48605725605E+00 -0.28284549469E+03  0.30925971124E+03  0.12500000000E+03 0.  0.
</event>
<event>
 5    0  0.5576108E-005  0.2779239E+03  0.7546771E-02  0.1096828E+00
         21   -1    0    0  502  501  0.00000000000E+00  0.00000000000E+00  0.13216940341E+04  0.13216940341E+04  0.00000000000E+00 0.  1.
         21   -1    0    0  501  502 -0.00000000000E+00 -0.00000000000E+00 -0.58441429262E+02  0.58441429262E+02  0.00000000000E+00 0.  1.
         25    1    1    2    0    0 -0.11825250776E+03  0.86541247379E+02  0.50194630133E+03  0.53763196752E+03  0.12500000000E+03 0.  0.
         25    1    1    2    0    0  0.12237688642E+03 -0.64108355011E+02  0.22886420850E+03  0.29510982607E+03  0.12500000000E+03 0.  0.
         25    1    1    2    0    0 -0.41243786556E+01 -0.22432892368E+02  0.53244209499E+03  0.54739366975E+03  0.12500000000E+03 0.  0.
</event>
<event>
 5    0  0.5576108E-005  0.4123675E+03  0.7546771E-02  0.1039579E+00
         21   -1    0    0  502  501  0.00000000000E+00  0.00000000000E+00  0.16654607539E+04  0.16654607539E+04  0.00000000000E+00 0. -1.
         21   -1    0    0  501  502 -0.00000000000E+00 -0.00000000000E+00 -0.10210204117E+03  0.10210204117E+03  0.00000000000E+00 0. -1.
         25    1    1    2    0    0  0.11533980462E+03  0.98259163171E+02  0.92152741130E+03  0.94222922023E+03  0.12500000000E+03 0.  0.
         25    1    1    2    0    0 -0.13958408723E+03  0.12158128556E+03  0.14210019496E+03  0.26473230217E+03  0.12500000000E+03 0.  0.
         25    1    1    2    0    0  0.24244282608E+02 -0.21984044873E+03  0.49973110646E+03  0.56060127265E+03  0.12500000000E+03 0.  0.
</event>
<event>
 5    0  0.5576108E-005  0.2547150E+03  0.7546771E-02  0.1110361E+00
         21   -1    0    0  502  501  0.00000000000E+00  0.00000000000E+00  0.51168663291E+02  0.51168663291E+02  0.00000000000E+00 0. -1.
         21   -1    0    0  501  502 -0.00000000000E+00 -0.00000000000E+00 -0.12679585908E+04  0.12679585908E+04  0.00000000000E+00 0. -1.
         25    1    1    2    0    0 -0.41942167067E+01  0.72525022108E+02 -0.36098574526E+03  0.38886138734E+03  0.12500000000E+03 0.  0.
         25    1    1    2    0    0  0.88827721805E+01  0.43944652901E+01 -0.10015673672E+03  0.16048235690E+03  0.12500000000E+03 0.  0.
         25    1    1    2    0    0 -0.46885554738E+01 -0.76919487398E+02 -0.75564744553E+03  0.76978350985E+03  0.12500000000E+03 0.  0.
</event>
<event>
 5    0  0.5576108E-005  0.2424258E+03  0.7546771E-02  0.1118187E+00
         21   -1    0    0  502  501  0.00000000000E+00  0.00000000000E+00  0.28071542602E+03  0.28071542602E+03  0.00000000000E+00 0.  1.
         21   -1    0    0  501  502 -0.00000000000E+00 -0.00000000000E+00 -0.20935883062E+03  0.20935883062E+03  0.00000000000E+00 0.  1.
         25    1    1    2    0    0 -0.15219373597E+01 -0.45456925682E+02 -0.20857431848E+02  0.13464278981E+03  0.12500000000E+03 0.  0.
         25    1    1    2    0    0  0.36299446546E+02 -0.84745265621E+02  0.14942532405E+02  0.15603746069E+03  0.12500000000E+03 0.  0.
         25    1    1    2    0    0 -0.34777509186E+02  0.13020219130E+03  0.77271494849E+02  0.19939400613E+03  0.12500000000E+03 0.  0.
</event>
<event>
 5    0  0.5576108E-005  0.3402983E+03  0.7546771E-02  0.1066669E+00
         21   -1    0    0  502  501  0.00000000000E+00  0.00000000000E+00  0.18374467002E+04  0.18374467002E+04  0.00000000000E+00 0. -1.
         21   -1    0    0  501  502 -0.00000000000E+00 -0.00000000000E+00 -0.63023833796E+02  0.63023833796E+02  0.00000000000E+00 0. -1.
         25    1    1    2    0    0  0.15650957708E+03  0.62334049550E+02  0.87778892074E+03  0.90250715832E+03  0.12500000000E+03 0.  0.
         25    1    1    2    0    0 -0.96977812345E+02 -0.12537471859E+03  0.78157789670E+03  0.80722520077E+03  0.12500000000E+03 0.  0.
         25    1    1    2    0    0 -0.59531764731E+02  0.63040669038E+02  0.11505604898E+03  0.19073817492E+03  0.12500000000E+03 0.  0.
</event>
<event>
 5    0  0.5928267E-005  0.3232710E+03  0.7546771E-02  0.1074154E+00
         21   -1    0    0  502  501  0.00000000000E+00  0.00000000000E+00  0.15943559333E+03  0.15943559333E+03  0.00000000000E+00 0.  1.
         21   -1    0    0  501  502 -0.00000000000E+00 -0.00000000000E+00 -0.65546294339E+03  0.65546294339E+03  0.00000000000E+00 0.  1.
         25    1    1    2    0    0  0.14326744573E+01 -0.11711441252E+03 -0.25700131632E+03  0.30885678682E+03  0.12500000000E+03 0.  0.
         25    1    1    2    0    0 -0.86456668199E+02  0.12068056495E+03  0.31024866924E+02  0.19653522992E+03  0.12500000000E+03 0.  0.
         25    1    1    2    0    0  0.85023993742E+02 -0.35661524321E+01 -0.27005090066E+03  0.30950651997E+03  0.12500000000E+03 0.  0.
</event>
<event>
 5    0  0.5576108E-005  0.2657471E+03  0.7546771E-02  0.1103739E+00
         21   -1    0    0  502  501  0.00000000000E+00  0.00000000000E+00  0.16304404973E+04  0.16304404973E+04  0.00000000000E+00 0.  1.
         21   -1    0    0  501  502 -0.00000000000E+00 -0.00000000000E+00 -0.43314376726E+02  0.43314376726E+02  0.00000000000E+00 0.  1.
         25    1    1    2    0    0 -0.46797927711E+02 -0.31679085606E+01  0.57502757102E+03  0.59032346143E+03  0.12500000000E+03 0.  0.
         25    1    1    2    0    0 -0.70819731698E+02  0.41597320342E+02  0.18530154057E+03  0.23813322404E+03  0.12500000000E+03 0.  0.
         25    1    1    2    0    0  0.11761765941E+03 -0.38429411782E+02  0.82679700894E+03  0.84529818850E+03  0.12500000000E+03 0.  0.
</event>
<event>
 5    0  0.5576108E-005  0.3623008E+03  0.7546771E-02  0.1057677E+00
         21   -1    0    0  502  501  0.00000000000E+00  0.00000000000E+00  0.30299516004E+03  0.30299516004E+03  0.00000000000E+00 0. -1.
         21   -1    0    0  501  502 -0.00000000000E+00 -0.00000000000E+00 -0.43321431204E+03  0.43321431204E+03  0.00000000000E+00 0. -1.
         25    1    1    2    0    0  0.10472777736E+03 -0.10263566804E+03 -0.55890420963E+02  0.20062583797E+03  0.12500000000E+03 0.  0.
         25    1    1    2    0    0 -0.64017854936E+02 -0.55925578297E+02  0.16235070131E+03  0.22183035472E+03  0.12500000000E+03 0.  0.
         25    1    1    2    0    0 -0.40709922429E+02  0.15856124634E+03 -0.23667943236E+03  0.31375327939E+03  0.12500000000E+03 0.  0.
</event>
<event>
 5    0  0.5576108E-005  0.2846145E+03  0.7546771E-02  0.1093195E+00
         21   -1    0    0  502  501  0.00000000000E+00  0.00000000000E+00  0.37053250064E+02  0.37053250064E+02  0.00000000000E+00 0.  1.
         21   -1    0    0  501  502 -0.00000000000E+00 -0.00000000000E+00 -0.21861897251E+04  0.21861897251E+04  0.00000000000E+00 0.  1.
         25    1    1    2    0    0 -0.66647224840E+02 -0.89030927743E+02 -0.94963838574E+03  0.96426470554E+03  0.12500000000E+03 0.  0.
         25    1    1    2    0    0  0.39690381665E+02  0.73866610515E+02 -0.10539485986E+04  0.10646427810E+04  0.12500000000E+03 0.  0.
         25    1    1    2    0    0  0.26956843174E+02  0.15164317228E+02 -0.14554949064E+03  0.19433548862E+03  0.12500000000E+03 0.  0.
</event>
<event>
 5    0  0.5576108E-005  0.2561257E+03  0.7546771E-02  0.1109494E+00
         21   -1    0    0  502  501  0.00000000000E+00  0.00000000000E+00  0.49465052046E+02  0.49465052046E+02  0.00000000000E+00 0. -1.
         21   -1    0    0  501  502 -0.00000000000E+00 -0.00000000000E+00 -0.13261964456E+04  0.13261964456E+04  0.00000000000E+00 0. -1.
         25    1    1    2    0    0 -0.42555805986E+02  0.47384972128E+02 -0.30467097169E+03  0.33541874306E+03  0.12500000000E+03 0.  0.
         25    1    1    2    0    0  0.53571130070E+02 -0.14277218596E+03 -0.38719675494E+03  0.43451132332E+03  0.12500000000E+03 0.  0.
         25    1    1    2    0    0 -0.11015324084E+02  0.95387213835E+02 -0.58486366697E+03  0.60573143130E+03  0.12500000000E+03 0.  0.
</event>
<event>
 5    0  0.5576108E-005  0.1946264E+03  0.7546771E-02  0.1154354E+00
         21   -1    0    0  502  501  0.00000000000E+00  0.00000000000E+00  0.43678229126E+02  0.43678229126E+02  0.00000000000E+00 0.  1.
         21   -1    0    0  501  502 -0.00000000000E+00 -0.00000000000E+00 -0.86723852914E+03  0.86723852914E+03  0.00000000000E+00 0.  1.
         25    1    1    2    0    0  0.16447326179E+02 -0.74995661393E+01 -0.25947922733E+03  0.28858487044E+03  0.12500000000E+03 0.  0.
         25    1    1    2    0    0 -0.21652845749E+02 -0.14683275754E+02 -0.35944870263E+03  0.38146141894E+03  0.12500000000E+03 0.  0.
         25    1    1    2    0    0  0.52055195700E+01  0.22182841893E+02 -0.20463237006E+03  0.24087046889E+03  0.12500000000E+03 0.  0.
</event>
<event>
 5    0  0.5576108E-005  0.3931469E+03  0.7546771E-02  0.1046179E+00
         21   -1    0    0  502  501  0.00000000000E+00  0.00000000000E+00  0.59028733135E+03  0.59028733135E+03  0.00000000000E+00 0.  1.
         21   -1    0    0  501  502 -0.00000000000E+00 -0.00000000000E+00 -0.26184624157E+03  0.26184624157E+03  0.00000000000E+00 0.  1.
         25    1    1    2    0    0 -0.22171064697E+02  0.27393338797E+03  0.75323562803E+02  0.31117470377E+03  0.12500000000E+03 0.  0.
         25    1    1    2    0    0  0.14525153171E+03 -0.10058539088E+03  0.18598606309E+03  0.28536160216E+03  0.12500000000E+03 0.  0.
         25    1    1    2    0    0 -0.12308046702E+03 -0.17334799709E+03  0.67131463887E+02  0.25559726700E+03  0.12500000000E+03 0.  0.
</event>
<event>
 5    0  0.5576108E-005  0.2725334E+03  0.7546771E-02  0.1099838E+00
         21   -1    0    0  502  501  0.00000000000E+00  0.00000000000E+00  0.40910299129E+03  0.40910299129E+03  0.00000000000E+00 0.  1.
         21   -1    0    0  501  502 -0.00000000000E+00 -0.00000000000E+00 -0.18155439055E+03  0.18155439055E+03  0.00000000000E+00 0.  1.
         25    1    1    2    0    0  0.11018014527E+03 -0.77010058841E+02  0.21567362660E+03  0.28321427716E+03  0.12500000000E+03 0.  0.
         25    1    1    2    0    0 -0.17535267254E+02 -0.13165992183E+02  0.13309079822E+02  0.12760470428E+03  0.12500000000E+03 0.  0.
         25    1    1    2    0    0 -0.92644878020E+02  0.90176051024E+02 -0.14341056775E+01  0.17983840041E+03  0.12500000000E+03 0.  0.
</event>
<event>
 5    0  0.5576108E-005  0.3315694E+03  0.7546771E-02  0.1070445E+00
         21   -1    0    0  502  501  0.00000000000E+00  0.00000000000E+00  0.94871515602E+03  0.94871515602E+03  0.00000000000E+00 0.  1.
         21   -1    0    0  501  502 -0.00000000000E+00 -0.00000000000E+00 -0.11588118751E+03  0.11588118751E+03  0.00000000000E+00 0.  1.
         25    1    1    2    0    0 -0.11206577391E+03 -0.14075854945E+03  0.18086444796E+03  0.28409268815E+03  0.12500000000E+03 0.  0.
         25    1    1    2    0    0  0.16738743312E+03  0.18577697595E+03  0.48737195022E+03  0.56186124214E+03  0.12500000000E+03 0.  0.
         25    1    1    2    0    0 -0.55321659209E+02 -0.45018426501E+02  0.16459757033E+03  0.21864241322E+03  0.12500000000E+03 0.  0.
</event>
<event>
 5    0  0.5576108E-005  0.3226596E+03  0.7546771E-02  0.1074432E+00
         21   -1    0    0  502  501  0.00000000000E+00  0.00000000000E+00  0.10537599255E+04  0.10537599255E+04  0.00000000000E+00 0. -1.
         21   -1    0    0  501  502 -0.00000000000E+00 -0.00000000000E+00 -0.98797846729E+02  0.98797846729E+02  0.00000000000E+00 0. -1.
         25    1    1    2    0    0  0.10624321036E+03 -0.15577328019E+03  0.15759284994E+03  0.27570535163E+03  0.12500000000E+03 0.  0.
         25    1    1    2    0    0 -0.99165909624E+02  0.28253006336E+02  0.53803810985E+03  0.56190935003E+03  0.12500000000E+03 0.  0.
         25    1    1    2    0    0 -0.70773007318E+01  0.12752027385E+03  0.25933111903E+03  0.31494307061E+03  0.12500000000E+03 0.  0.
</event>
<event>
 5    0  0.6014195E-005  0.3584657E+03  0.7546771E-02  0.1059193E+00
         21   -1    0    0  502  501  0.00000000000E+00  0.00000000000E+00  0.13045536028E+03  0.13045536028E+03  0.00000000000E+00 0.  1.
         21   -1    0    0  501  502 -0.00000000000E+00 -0.00000000000E+00 -0.98499318247E+03  0.98499318247E+03  0.00000000000E+00 0.  1.
         25    1    1    2    0    0 -0.13720930330E+03  0.89202555877E+02 -0.24469994363E+03  0.31982268728E+03  0.12500000000E+03 0.  0.
         25    1    1    2    0    0 -0.49538785370E+02  0.89278277991E+02 -0.54202975516E+02  0.17025764221E+03  0.12500000000E+03 0.  0.
         25    1    1    2    0    0  0.18674808867E+03 -0.17848083387E+03 -0.55563490304E+03  0.62536821326E+03  0.12500000000E+03 0.  0.
</event>
<event>
 5    0  0.5576108E-005  0.3967853E+03  0.7546771E-02  0.1044899E+00
         21   -1    0    0  502  501  0.00000000000E+00  0.00000000000E+00  0.16781494229E+03  0.16781494229E+03  0.00000000000E+00 0. -1.
         21   -1    0    0  501  502 -0.00000000000E+00 -0.00000000000E+00 -0.93816782996E+03  0.93816782996E+03  0.00000000000E+00 0. -1.
         25    1    1    2    0    0  0.17136881991E+03  0.35352431693E+02 -0.39732635574E+02  0.21867955824E+03  0.12500000000E+03 0.  0.
         25    1    1    2    0    0  0.81991342759E+02  0.72690352240E+02 -0.11728237956E+03  0.20343702748E+03  0.12500000000E+03 0.  0.
         25    1    1    2    0    0 -0.25336016267E+03 -0.10804278393E+03 -0.61333787253E+03  0.68386618652E+03  0.12500000000E+03 0.  0.
</event>
<event>
 5    0  0.5576108E-005  0.6080983E+03  0.7546771E-02  0.9888746E-01
         21   -1    0    0  502  501  0.00000000000E+00  0.00000000000E+00  0.16523773642E+04  0.16523773642E+04  0.00000000000E+00 0.  1.
         21   -1    0    0  501  502 -0.00000000000E+00 -0.00000000000E+00 -0.22378881006E+03  0.22378881006E+03  0.00000000000E+00 0.  1.
         25    1    1    2    0    0  0.40743868582E+03  0.15754359310E+03  0.94430372971E+03  0.10479316773E+04  0.12500000000E+03 0.  0.
         25    1    1    2    0    0 -0.27728764317E+03  0.13011067541E+03  0.21133647973E+03  0.39256252059E+03  0.12500000000E+03 0.  0.
         25    1    1    2    0    0 -0.13015104265E+03 -0.28765426851E+03  0.27294834475E+03  0.43567197638E+03  0.12500000000E+03 0.  0.
</event>
<event>
 5    0  0.5576108E-005  0.2263750E+03  0.7546771E-02  0.1129218E+00
         21   -1    0    0  502  501  0.00000000000E+00  0.00000000000E+00  0.51935369832E+02  0.51935369832E+02  0.00000000000E+00 0.  1.
         21   -1    0    0  501  502 -0.00000000000E+00 -0.00000000000E+00 -0.98671959413E+03  0.98671959413E+03  0.00000000000E+00 0.  1.
         25    1    1    2    0    0 -0.55087479618E+02  0.39180812703E+02 -0.27794586322E+03  0.31216769432E+03  0.12500000000E+03 0.  0.
         25    1    1    2    0    0  0.11232468620E+03 -0.80461500367E+01 -0.32552018619E+03  0.36642866601E+03  0.12500000000E+03 0.  0.
         25    1    1    2    0    0 -0.57237206580E+02 -0.31134662667E+02 -0.33131817489E+03  0.36005860363E+03  0.12500000000E+03 0.  0.
</event>
<event>
 5    0  0.5576108E-005  0.3039306E+03  0.7546771E-02  0.1083292E+00
         21   -1    0    0  502  501  0.00000000000E+00  0.00000000000E+00  0.33072158915E+03  0.33072158915E+03  0.00000000000E+00 0. -1.
         21   -1    0    0  501  502 -0.00000000000E+00 -0.00000000000E+00 -0.27930979970E+03  0.27930979970E+03  0.00000000000E+00 0. -1.
         25    1    1    2    0    0  0.12192490042E+03 -0.44160711019E+02 -0.80632808872E+02  0.19733854060E+03  0.12500000000E+03 0.  0.
         25    1    1    2    0    0  0.61680540599E+02 -0.52211404551E+02  0.52668387179E+02  0.15789071810E+03  0.12500000000E+03 0.  0.
         25    1    1    2    0    0 -0.18360544102E+03  0.96372115570E+02  0.79376211136E+02  0.25480213015E+03  0.12500000000E+03 0.  0.
</event>
<event>
 5    0  0.5576108E-005  0.3296554E+03  0.7546771E-02  0.1071289E+00
         21   -1    0    0  502  501  0.00000000000E+00  0.00000000000E+00  0.24500564173E+03  0.24500564173E+03  0.00000000000E+00 0.  1.
         21   -1    0    0  501  502 -0.00000000000E+00 -0.00000000000E+00 -0.44355187615E+03  0.44355187615E+03  0.00000000000E+00 0.  1.
         25    1    1    2    0    0 -0.72923555102E+02  0.94343816440E+02 -0.39515737564E+00  0.17275345652E+03  0.12500000000E+03 0.  0.
         25    1    1    2    0    0 -0.13515467879E+03 -0.78968454606E+02  0.27489222581E+01  0.20033811568E+03  0.12500000000E+03 0.  0.
         25    1    1    2    0    0  0.20807823389E+03 -0.15375361834E+02 -0.20089999929E+03  0.31546594568E+03  0.12500000000E+03 0.  0.
</event>
<event>
 5    0  0.5576108E-005  0.2932663E+03  0.7546771E-02  0.1088656E+00
         21   -1    0    0  502  501  0.00000000000E+00  0.00000000000E+00  0.18806014348E+03  0.18806014348E+03  0.00000000000E+00 0. -1.
         21   -1    0    0  501  502 -0.00000000000E+00 -0.00000000000E+00 -0.45732772783E+03  0.45732772783E+03  0.00000000000E+00 0. -1.
         25    1    1    2    0    0  0.13768359731E+03  0.16478377866E+02 -0.58948967399E+02  0.19577612383E+03  0.12500000000E+03 0.  0.
         25    1    1    2    0    0 -0.39385382664E+02 -0.13707722240E+03 -0.57274118732E+02  0.19810779375E+03  0.12500000000E+03 0.  0.
         25    1    1    2    0    0 -0.98298214643E+02  0.12059884454E+03 -0.15304449822E+03  0.25150395373E+03  0.12500000000E+03 0.  0.
</event>
<event>
 5    0  0.5576108E-005  0.2355580E+03  0.7546771E-02  0.1122788E+00
         21   -1    0    0  502  501  0.00000000000E+00  0.00000000000E+00  0.23865333778E+03  0.23865333778E+03  0.00000000000E+00 0. -1.
         21   -1    0    0  501  502 -0.00000000000E+00 -0.00000000000E+00 -0.23250288786E+03  0.23250288786E+03  0.00000000000E+00 0. -1.
         25    1    1    2    0    0  0.38706382717E+02  0.89939213521E+02  0.29444436197E+02  0.16149062206E+03  0.12500000000E+03 0.  0.
         25    1    1    2    0    0  0.28500350460E+02 -0.10547464867E+03 -0.12729855819E+02  0.16650591797E+03  0.12500000000E+03 0.  0.
         25    1    1    2    0    0 -0.67206733176E+02  0.15535435150E+02 -0.10564130455E+02  0.14315968560E+03  0.12500000000E+03 0.  0.
</event>
<event>
 5    0  0.5576108E-005  0.3205289E+03  0.7546771E-02  0.1075406E+00
         21   -1    0    0  502  501  0.00000000000E+00  0.00000000000E+00  0.72375001409E+02  0.72375001409E+02  0.00000000000E+00 0.  1.
         21   -1    0    0  501  502 -0.00000000000E+00 -0.00000000000E+00 -0.14195337909E+04  0.14195337909E+04  0.00000000000E+00 0.  1.
         25    1    1    2    0    0  0.73823309379E+02 -0.50710803925E+02 -0.36289789258E+03  0.39413366651E+03  0.12500000000E+03 0.  0.
         25    1    1    2    0    0 -0.98938853961E+02  0.16418091579E+03 -0.85100722208E+03  0.88123921949E+03  0.12500000000E+03 0.  0.
         25    1    1    2    0    0  0.25115544582E+02 -0.11347011186E+03 -0.13325367485E+03  0.21653590633E+03  0.12500000000E+03 0.  0.
</event>
<event>
 5    0  0.5576108E-005  0.2686871E+03  0.7546771E-02  0.1102033E+00
         21   -1    0    0  502  501  0.00000000000E+00  0.00000000000E+00  0.24562881750E+03  0.24562881750E+03  0.00000000000E+00 0.  1.
         21   -1    0    0  501  502 -0.00000000000E+00 -0.00000000000E+00 -0.29390993947E+03  0.29390993947E+03  0.00000000000E+00 0.  1.
         25    1    1    2    0    0  0.10728676613E+03  0.98467109684E+02  0.64259718179E+02  0.20238708767E+03  0.12500000000E+03 0.  0.
         25    1    1    2    0    0  0.87038425391E+01 -0.10156663278E+02 -0.41191296265E+02  0.13228997533E+03  0.12500000000E+03 0.  0.
         25    1    1    2    0    0 -0.11599060867E+03 -0.88310446406E+02 -0.71349543884E+02  0.20486169397E+03  0.12500000000E+03 0.  0.
</event>
<event>
 5    0  0.5576108E-005  0.2069016E+03  0.7546771E-02  0.1144043E+00
         21   -1    0    0  502  501  0.00000000000E+00  0.00000000000E+00  0.25319050080E+03  0.25319050080E+03  0.00000000000E+00 0.  1.
         21   -1    0    0  501  502 -0.00000000000E+00 -0.00000000000E+00 -0.16907527705E+03  0.16907527705E+03  0.00000000000E+00 0.  1.
         25    1    1    2    0    0  0.35305227649E+01 -0.24044837388E+02  0.42190347961E+00  0.12734126118E+03  0.12500000000E+03 0.  0.
         25    1    1    2    0    0 -0.27489086200E+02 -0.44501738105E+02  0.60975081720E+02  0.14859009101E+03  0.12500000000E+03 0.  0.
         25    1    1    2    0    0  0.23958563435E+02  0.68546575493E+02  0.22718238548E+02  0.14633442567E+03  0.12500000000E+03 0.  0.
</event>
<event>
 5    0  0.5576108E-005  0.2422752E+03  0.7546771E-02  0.1118286E+00
         21   -1    0    0  502  501  0.00000000000E+00  0.00000000000E+00  0.23473586159E+03  0.23473586159E+03  0.00000000000E+00 0.  1.
         21   -1    0    0  501  502 -0.00000000000E+00 -0.00000000000E+00 -0.25005674479E+03  0.25005674479E+03  0.00000000000E+00 0.  1.
         25    1    1    2    0    0 -0.56003496082E+02  0.11632087398E+03 -0.23701473842E+02  0.18125588862E+03  0.12500000000E+03 0.  0.
         25    1    1    2    0    0  0.32419339215E+02 -0.11035159315E+03  0.35018227183E+02  0.17343518646E+03  0.12500000000E+03 0.  0.
         25    1    1    2    0    0  0.23584156867E+02 -0.59692808255E+01 -0.26637636545E+02  0.13010153131E+03  0.12500000000E+03 0.  0.
</event>
<event>
 5    0  0.5576108E-005  0.2337394E+03  0.7546771E-02  0.1124035E+00
         21   -1    0    0  502  501  0.00000000000E+00  0.00000000000E+00  0.54239608295E+02  0.54239608295E+02  0.00000000000E+00 0.  1.
         21   -1    0    0  501  502 -0.00000000000E+00 -0.00000000000E+00 -0.10072736081E+04  0.10072736081E+04  0.00000000000E+00 0.  1.
         25    1    1    2    0    0 -0.45658571977E+02  0.55570692181E+02 -0.48397558748E+03  0.50500512503E+03  0.12500000000E+03 0.  0.
         25    1    1    2    0    0  0.51949344792E+02 -0.60545842637E+02 -0.13808319350E+03  0.20262404056E+03  0.12500000000E+03 0.  0.
         25    1    1    2    0    0 -0.62907728145E+01  0.49751504555E+01 -0.33097521887E+03  0.35388405085E+03  0.12500000000E+03 0.  0.
</event>
<event>
 5    0  0.5576108E-005  0.2396195E+03  0.7546771E-02  0.1120047E+00
         21   -1    0    0  502  501  0.00000000000E+00  0.00000000000E+00  0.41710259651E+03  0.41710259651E+03  0.00000000000E+00 0.  1.
         21   -1    0    0  501  502 -0.00000000000E+00 -0.00000000000E+00 -0.13765799101E+03  0.13765799101E+03  0.00000000000E+00 0.  1.
         25    1    1    2    0    0  0.92795970283E+02 -0.45138952393E+02  0.14762346936E+03  0.21924029244E+03  0.12500000000E+03 0.  0.
         25    1    1    2    0    0 -0.78733420385E+01 -0.43880496087E+02  0.47945740495E+02  0.14110734029E+03  0.12500000000E+03 0.  0.
         25    1    1    2    0    0 -0.84922628244E+02  0.89019448479E+02  0.83875395638E+02  0.19441295479E+03  0.12500000000E+03 0.  0.
</event>
<event>
 5    0  0.5576108E-005  0.2252867E+03  0.7546771E-02  0.1130002E+00
         21   -1    0    0  502  501  0.00000000000E+00  0.00000000000E+00  0.16740065870E+03  0.16740065870E+03  0.00000000000E+00 0.  1.
         21   -1    0    0  501  502 -0.00000000000E+00 -0.00000000000E+00 -0.30318940093E+03  0.30318940093E+03  0.00000000000E+00 0.  1.
         25    1    1    2    0    0  0.79873323763E+01 -0.73783480662E+02 -0.82105162748E+02  0.16695525522E+03  0.12500000000E+03 0.  0.
         25    1    1    2    0    0 -0.47466582150E+02 -0.22848915852E+02 -0.17083559474E+02  0.13671867971E+03  0.12500000000E+03 0.  0.
         25    1    1    2    0    0  0.39479249774E+02  0.96632396514E+02 -0.36600020014E+02  0.16691612470E+03  0.12500000000E+03 0.  0.
</event>
<event>
 5    0  0.5576108E-005  0.3134445E+03  0.7546771E-02  0.1078706E+00
         21   -1    0    0  502  501  0.00000000000E+00  0.00000000000E+00  0.43801501865E+03  0.43801501865E+03  0.00000000000E+00 0. -1.
         21   -1    0    0  501  502 -0.00000000000E+00 -0.00000000000E+00 -0.22430161727E+03  0.22430161727E+03  0.00000000000E+00 0. -1.
         25    1    1    2    0    0 -0.27192042977E+02 -0.15241857820E+02 -0.15483598951E+03  0.20142220602E+03  0.12500000000E+03 0.  0.
         25    1    1    2    0    0  0.67766483395E+02 -0.11432524452E+02  0.19207860491E+03  0.23925339987E+03  0.12500000000E+03 0.  0.
         25    1    1    2    0    0 -0.40574440418E+02  0.26674382272E+02  0.17647078598E+03  0.22164103002E+03  0.12500000000E+03 0.  0.
</event>
<event>
 5    0  0.5576108E-005  0.2473555E+03  0.7546771E-02  0.1114988E+00
         21   -1    0    0  502  501  0.00000000000E+00  0.00000000000E+00  0.32626767973E+03  0.32626767973E+03  0.00000000000E+00 0. -1.
         21   -1    0    0  501  502 -0.00000000000E+00 -0.00000000000E+00 -0.18752929686E+03  0.18752929686E+03  0.00000000000E+00 0. -1.
         25    1    1    2    0    0  0.14429807380E+01 -0.73362395103E+02 -0.97946473419E+01  0.14527580089E+03  0.12500000000E+03 0.  0.
         25    1    1    2    0    0  0.27178550112E+02  0.16737824323E+01  0.17748133635E+03  0.21878322578E+03  0.12500000000E+03 0.  0.
         25    1    1    2    0    0 -0.28621530850E+02  0.71688612671E+02 -0.28948306137E+02  0.14973794991E+03  0.12500000000E+03 0.  0.
</event>
<event>
 5    0  0.5576108E-005  0.3897585E+03  0.7546771E-02  0.1047385E+00
         21   -1    0    0  502  501  0.00000000000E+00  0.00000000000E+00  0.52905774902E+03  0.52905774902E+03  0.00000000000E+00 0. -1.
         21   -1    0    0  501  502 -0.00000000000E+00 -0.00000000000E+00 -0.28713632403E+03  0.28713632403E+03  0.00000000000E+00 0. -1.
         25    1    1    2    0    0 -0.68975847846E+01 -0.28497000729E+01  0.43890136135E+02  0.13269152767E+03  0.12500000000E+03 0.  0.
         25    1    1    2    0    0  0.75783906798E+02 -0.28616135901E+03  0.37828759220E+02  0.32355453782E+03  0.12500000000E+03 0.  0.
         25    1    1    2    0    0 -0.68886322014E+02  0.28901105909E+03  0.16020252964E+03  0.35994800755E+03  0.12500000000E+03 0.  0.
</event>
<event>
 5    0  0.6061893E-005  0.2850339E+03  0.7546771E-02  0.1092971E+00
         21   -1    0    0  502  501  0.00000000000E+00  0.00000000000E+00  0.88304315943E+02  0.88304315943E+02  0.00000000000E+00 0.  1.
         21   -1    0    0  501  502 -0.00000000000E+00 -0.00000000000E+00 -0.92004930724E+03  0.92004930724E+03  0.00000000000E+00 0.  1.
         25    1    1    2    0    0  0.94569916644E+02  0.10689463755E+02 -0.86445767428E+02  0.17931983849E+03  0.12500000000E+03 0.  0.
         25    1    1    2    0    0 -0.14214651167E+03 -0.73931868739E+02 -0.32341384294E+03  0.38195950806E+03  0.12500000000E+03 0.  0.
         25    1    1    2    0    0  0.47576595025E+02  0.63242404984E+02 -0.42188538093E+03  0.44707427663E+03  0.12500000000E+03 0.  0.
</event>
<event>
 5    0  0.5576108E-005  0.2486593E+03  0.7546771E-02  0.1114155E+00
         21   -1    0    0  502  501  0.00000000000E+00  0.00000000000E+00  0.32660362113E+03  0.32660362113E+03  0.00000000000E+00 0. -1.
         21   -1    0    0  501  502 -0.00000000000E+00 -0.00000000000E+00 -0.18931651507E+03  0.18931651507E+03  0.00000000000E+00 0. -1.
         25    1    1    2    0    0 -0.52918635548E+01 -0.24685604610E+02 -0.20694094658E+02  0.12919221512E+03  0.12500000000E+03 0.  0.
         25    1    1    2    0    0 -0.11862079958E+03  0.34212451387E+02  0.93639340035E+02  0.19908468531E+03  0.12500000000E+03 0.  0.
         25    1    1    2    0    0  0.12391266313E+03 -0.95268467770E+01  0.64341860690E+02  0.18764323577E+03  0.12500000000E+03 0.  0.
</event>
<event>
 5    0  0.5576108E-005  0.4499036E+03  0.7546771E-02  0.1027751E+00
         21   -1    0    0  502  501  0.00000000000E+00  0.00000000000E+00  0.85023756774E+03  0.85023756774E+03  0.00000000000E+00 0.  1.
         21   -1    0    0  501  502 -0.00000000000E+00 -0.00000000000E+00 -0.23806671266E+03  0.23806671266E+03  0.00000000000E+00 0.  1.
         25    1    1    2    0    0 -0.24378698257E+03 -0.19217521537E+03  0.59976150500E+02  0.33997874184E+03  0.12500000000E+03 0.  0.
         25    1    1    2    0    0  0.22269386888E+03  0.16553681739E+03  0.53786998425E+03  0.61800009474E+03  0.12500000000E+03 0.  0.
         25    1    1    2    0    0  0.21093113693E+02  0.26638397983E+02  0.14324720331E+02  0.13032544381E+03  0.12500000000E+03 0.  0.
</event>
<event>
 5    0  0.5576108E-005  0.4203461E+03  0.7546771E-02  0.1036954E+00
         21   -1    0    0  502  501  0.00000000000E+00  0.00000000000E+00  0.31305632510E+03  0.31305632510E+03  0.00000000000E+00 0. -1.
         21   -1    0    0  501  502 -0.00000000000E+00 -0.00000000000E+00 -0.56440580364E+03  0.56440580364E+03  0.00000000000E+00 0. -1.
         25    1    1    2    0    0 -0.16730177381E+03  0.38166865002E+02 -0.21263648489E+03  0.30047606862E+03  0.12500000000E+03 0.  0.
         25    1    1    2    0    0  0.12060406692E+03  0.19208434991E+03  0.99113029050E+02  0.27729069758E+03  0.12500000000E+03 0.  0.
         25    1    1    2    0    0  0.46697706886E+02 -0.23025121491E+03 -0.13782602270E+03  0.29969536254E+03  0.12500000000E+03 0.  0.
</event>
<event>
 5    0  0.5576108E-005  0.2620767E+03  0.7546771E-02  0.1105902E+00
         21   -1    0    0  502  501  0.00000000000E+00  0.00000000000E+00  0.47918626152E+03  0.47918626152E+03  0.00000000000E+00 0. -1.
         21   -1    0    0  501  502 -0.00000000000E+00 -0.00000000000E+00 -0.14333503771E+03  0.14333503771E+03  0.00000000000E+00 0. -1.
         25    1    1    2    0    0  0.73488024845E+02  0.32085311012E+02  0.99492655262E+02  0.17875610599E+03  0.12500000000E+03 0.  0.
         25    1    1    2    0    0  0.13977809304E+02 -0.12160115659E+03  0.19525448722E+03  0.26216699872E+03  0.12500000000E+03 0.  0.
         25    1    1    2    0    0 -0.87465834149E+02  0.89515845573E+02  0.41104081331E+02  0.18159819452E+03  0.12500000000E+03 0.  0.
</event>
<event>
 5    0  0.5576108E-005  0.2941843E+03  0.7546771E-02  0.1088184E+00
         21   -1    0    0  502  501  0.00000000000E+00  0.00000000000E+00  0.22332227113E+04  0.22332227113E+04  0.00000000000E+00 0. -1.
         21   -1    0    0  501  502 -0.00000000000E+00 -0.00000000000E+00 -0.38753146495E+02  0.38753146495E+02  0.00000000000E+00 0. -1.
         25    1    1    2    0    0  0.34316118868E+01  0.86608128071E+02  0.36675629991E+03  0.39704902384E+03  0.12500000000E+03 0.  0.
         25    1    1    2    0    0 -0.13271618516E+03 -0.52007232077E+02  0.50168192391E+03  0.53630969670E+03  0.12500000000E+03 0.  0.
         25    1    1    2    0    0  0.12928457327E+03 -0.34600895994E+02  0.13260313410E+04  0.13386171372E+04  0.12500000000E+03 0.  0.
</event>
