<event>
 5    0  0.5720942E-005  0.4915753E+03  0.7546771E-02  0.1016002E+00
         21   -1    0    0  502  501  0.00000000000E+00  0.00000000000E+00  0.45892035469E+03  0.45892035469E+03  0.00000000000E+00 0. -1.
         21   -1    0    0  501  502 -0.00000000000E+00 -0.00000000000E+00 -0.52655394099E+03  0.52655394099E+03  0.00000000000E+00 0. -1.
         25    1    1    2    0    0  0.47320521782E+02 -0.27130814934E+03  0.33861486105E+02  0.30433360629E+03  0.12500000000E+03 0.  0.
         25    1    1    2    0    0  0.19072947563E+03  0.65844086636E+02  0.13049449473E+03  0.27086341535E+03  0.12500000000E+03 0.  0.
         25    1    1    2    0    0 -0.23804999741E+03  0.20546406270E+03 -0.23198956714E+03  0.41027727404E+03  0.12500000000E+03 0.  0.
</event>
<event>
 5    0  0.5720942E-005  0.2764912E+03  0.7546771E-02  0.1097621E+00
         21   -1    0    0  502  501  0.00000000000E+00  0.00000000000E+00  0.68797506284E+02  0.68797506284E+02  0.00000000000E+00 0. -1.
         21   -1    0    0  501  502 -0.00000000000E+00 -0.00000000000E+00 -0.11111945026E+04  0.11111945026E+04  0.00000000000E+00 0. -1.
         25    1    1    2    0    0  0.48414496904E+02 -0.10134758511E+03 -0.50659308440E+03  0.53373855930E+03  0.12500000000E+03 0.  0.
         25    1    1    2    0    0 -0.14249660558E+03  0.66893086225E+02 -0.30640128792E+03  0.36645152043E+03  0.12500000000E+03 0.  0.
         25    1    1    2    0    0  0.94082108676E+02  0.34454498880E+02 -0.22940262401E+03  0.27980192917E+03  0.12500000000E+03 0.  0.
</event>
<event>
 5    0  0.5720942E-005  0.2647763E+03  0.7546771E-02  0.1104307E+00
         21   -1    0    0  502  501  0.00000000000E+00  0.00000000000E+00  0.86195843074E+03  0.86195843074E+03  0.00000000000E+00 0. -1.
         21   -1    0    0  501  502 -0.00000000000E+00 -0.00000000000E+00 -0.81333972295E+02  0.81333972295E+02  0.00000000000E+00 0. -1.
         25    1    1    2    0    0  0.43518397268E+02 -0.86804988394E+02  0.93665142824E+02  0.18392149383E+03  0.12500000000E+03 0.  0.
         25    1    1    2    0    0 -0.20469223038E+01  0.62878331070E+02  0.55132830395E+03  0.56881084127E+03  0.12500000000E+03 0.  0.
         25    1    1    2    0    0 -0.41471474965E+02  0.23926657325E+02  0.13563101167E+03  0.19056006794E+03  0.12500000000E+03 0.  0.
</event>
<event>
 5    0  0.5720942E-005  0.3727123E+03  0.7546771E-02  0.1053661E+00
         21   -1    0    0  502  501  0.00000000000E+00  0.00000000000E+00  0.24823545274E+03  0.24823545274E+03  0.00000000000E+00 0. -1.
         21   -1    0    0  501  502 -0.00000000000E+00 -0.00000000000E+00 -0.55960756830E+03  0.55960756830E+03  0.00000000000E+00 0. -1.
         25    1    1    2    0    0  0.16769409208E+03  0.22168801139E+03 -0.46276402499E+02  0.30827485843E+03  0.12500000000E+03 0.  0.
         25    1    1    2    0    0 -0.49113059091E+02 -0.23871983839E+02 -0.15181469765E+02  0.13724955814E+03  0.12500000000E+03 0.  0.
         25    1    1    2    0    0 -0.11858103299E+03 -0.19781602755E+03 -0.24991424330E+03  0.36231860447E+03  0.12500000000E+03 0.  0.
</event>
<event>
 5    0  0.5720942E-005  0.3250446E+03  0.7546771E-02  0.1073351E+00
         21   -1    0    0  502  501  0.00000000000E+00  0.00000000000E+00  0.46768345218E+03  0.46768345218E+03  0.00000000000E+00 0.  1.
         21   -1    0    0  501  502 -0.00000000000E+00 -0.00000000000E+00 -0.22590918245E+03  0.22590918245E+03  0.00000000000E+00 0.  1.
         25    1    1    2    0    0  0.50511015407E+01  0.11116231040E+03  0.22686527425E+03  0.28191386192E+03  0.12500000000E+03 0.  0.
         25    1    1    2    0    0 -0.74104688579E+02 -0.16650916256E+03  0.92989370106E+02  0.23976828197E+03  0.12500000000E+03 0.  0.
         25    1    1    2    0    0  0.69053587038E+02  0.55346852163E+02 -0.78080374624E+02  0.17191049075E+03  0.12500000000E+03 0.  0.
</event>
<event>
 5    0  0.5720942E-005  0.2566467E+03  0.7546771E-02  0.1109175E+00
         21   -1    0    0  502  501  0.00000000000E+00  0.00000000000E+00  0.62502561002E+03  0.62502561002E+03  0.00000000000E+00 0. -1.
         21   -1    0    0  501  502 -0.00000000000E+00 -0.00000000000E+00 -0.10538373713E+03  0.10538373713E+03  0.00000000000E+00 0. -1.
         25    1    1    2    0    0  0.99913154544E+02  0.65394393197E+02  0.31505266401E+03  0.35936366847E+03  0.12500000000E+03 0.  0.
         25    1    1    2    0    0 -0.58323018103E+02 -0.50268827919E+02  0.18628921614E+03  0.23718600623E+03  0.12500000000E+03 0.  0.
         25    1    1    2    0    0 -0.41590136441E+02 -0.15125565278E+02  0.18299992739E+02  0.13385967245E+03  0.12500000000E+03 0.  0.
</event>
<event>
 5    0  0.5720942E-005  0.3062080E+03  0.7546771E-02  0.1082178E+00
         21   -1    0    0  502  501  0.00000000000E+00  0.00000000000E+00  0.69960469146E+03  0.69960469146E+03  0.00000000000E+00 0. -1.
         21   -1    0    0  501  502 -0.00000000000E+00 -0.00000000000E+00 -0.13402330792E+03  0.13402330792E+03  0.00000000000E+00 0. -1.
         25    1    1    2    0    0 -0.45927616173E+01 -0.50792410254E+02  0.42421802081E+02  0.14151173694E+03  0.12500000000E+03 0.  0.
         25    1    1    2    0    0 -0.61085671875E+02  0.20035242257E+03  0.24055330231E+03  0.34258348441E+03  0.12500000000E+03 0.  0.
         25    1    1    2    0    0  0.65678433493E+02 -0.14956001232E+03  0.28260627915E+03  0.34953277804E+03  0.12500000000E+03 0.  0.
</event>
<event>
 5    0  0.5720942E-005  0.3005559E+03  0.7546771E-02  0.1084963E+00
         21   -1    0    0  502  501  0.00000000000E+00  0.00000000000E+00  0.20853121821E+03  0.20853121821E+03  0.00000000000E+00 0.  1.
         21   -1    0    0  501  502 -0.00000000000E+00 -0.00000000000E+00 -0.43319103268E+03  0.43319103268E+03  0.00000000000E+00 0.  1.
         25    1    1    2    0    0  0.36788904685E+02 -0.15117683909E+03 -0.80404365298E+02  0.21516905480E+03  0.12500000000E+03 0.  0.
         25    1    1    2    0    0 -0.11618030746E+03  0.17539154087E+03 -0.51263498471E+02  0.25002600410E+03  0.12500000000E+03 0.  0.
         25    1    1    2    0    0  0.79391402779E+02 -0.24214701774E+02 -0.92991950702E+02  0.17652719199E+03  0.12500000000E+03 0.  0.
</event>
<event>
 5    0  0.5720942E-005  0.2612974E+03  0.7546771E-02  0.1106366E+00
         21   -1    0    0  502  501  0.00000000000E+00  0.00000000000E+00  0.53222948242E+02  0.53222948242E+02  0.00000000000E+00 0. -1.
         21   -1    0    0  501  502 -0.00000000000E+00 -0.00000000000E+00 -0.12828362868E+04  0.12828362868E+04  0.00000000000E+00 0. -1.
         25    1    1    2    0    0  0.15846808140E+02 -0.11756286050E+03 -0.31517517675E+03  0.35921099584E+03  0.12500000000E+03 0.  0.
         25    1    1    2    0    0  0.86784045896E+02  0.71520190088E+02 -0.35731345419E+03  0.39489810427E+03  0.12500000000E+03 0.  0.
         25    1    1    2    0    0 -0.10263085404E+03  0.46042670415E+02 -0.55712470764E+03  0.58195013494E+03  0.12500000000E+03 0.  0.
</event>
<event>
 5    0  0.5720942E-005  0.3529992E+03  0.7546771E-02  0.1061391E+00
         21   -1    0    0  502  501  0.00000000000E+00  0.00000000000E+00  0.14373717277E+03  0.14373717277E+03  0.00000000000E+00 0. -1.
         21   -1    0    0  501  502 -0.00000000000E+00 -0.00000000000E+00 -0.86691885705E+03  0.86691885705E+03  0.00000000000E+00 0. -1.
         25    1    1    2    0    0 -0.13476527819E+03 -0.22488438516E+02 -0.10462312373E+03  0.21269322531E+03  0.12500000000E+03 0.  0.
         25    1    1    2    0    0 -0.79436078244E+02  0.25186997047E+01 -0.50163865670E+03  0.52305140882E+03  0.12500000000E+03 0.  0.
         25    1    1    2    0    0  0.21420135643E+03  0.19969738811E+02 -0.11691990384E+03  0.27491139569E+03  0.12500000000E+03 0.  0.
</event>
<event>
 5    0  0.5720942E-005  0.2350854E+03  0.7546771E-02  0.1123111E+00
         21   -1    0    0  502  501  0.00000000000E+00  0.00000000000E+00  0.12227064737E+03  0.12227064737E+03  0.00000000000E+00 0. -1.
         21   -1    0    0  501  502 -0.00000000000E+00 -0.00000000000E+00 -0.45199019942E+03  0.45199019942E+03  0.00000000000E+00 0. -1.
         25    1    1    2    0    0 -0.66443241820E+01  0.48660846063E+02 -0.17192211959E+03  0.21816104187E+03  0.12500000000E+03 0.  0.
         25    1    1    2    0    0  0.41912634139E+02  0.20380635102E+02 -0.16085587138E+03  0.20897763169E+03  0.12500000000E+03 0.  0.
         25    1    1    2    0    0 -0.35268309957E+02 -0.69041481165E+02  0.30584389176E+01  0.14712217323E+03  0.12500000000E+03 0.  0.
</event>
<event>
 5    0  0.5720942E-005  0.4459445E+03  0.7546771E-02  0.1028938E+00
         21   -1    0    0  502  501  0.00000000000E+00  0.00000000000E+00  0.10593857360E+03  0.10593857360E+03  0.00000000000E+00 0.  1.
         21   -1    0    0  501  502 -0.00000000000E+00 -0.00000000000E+00 -0.18771864866E+04  0.18771864866E+04  0.00000000000E+00 0.  1.
         25    1    1    2    0    0 -0.25873462139E+03 -0.18818694457E+03 -0.66697471365E+03  0.75022543216E+03  0.12500000000E+03 0.  0.
         25    1    1    2    0    0  0.31860606987E+03  0.43209011516E+02 -0.63728460676E+03  0.72466096656E+03  0.12500000000E+03 0.  0.
         25    1    1    2    0    0 -0.59871448485E+02  0.14497793305E+03 -0.46698859260E+03  0.50823866149E+03  0.12500000000E+03 0.  0.
</event>
<event>
 5    0  0.5720942E-005  0.6274885E+03  0.7546771E-02  0.9849962E-01
         21   -1    0    0  502  501  0.00000000000E+00  0.00000000000E+00  0.35931554515E+03  0.35931554515E+03  0.00000000000E+00 0. -1.
         21   -1    0    0  501  502 -0.00000000000E+00 -0.00000000000E+00 -0.10958108243E+04  0.10958108243E+04  0.00000000000E+00 0. -1.
         25    1    1    2    0    0 -0.44442794033E+03  0.13793639627E+03 -0.22770569138E+02  0.48237552009E+03  0.12500000000E+03 0.  0.
         25    1    1    2    0    0  0.35484649394E+03  0.84802959641E+02 -0.36204235370E+03  0.52896809176E+03  0.12500000000E+03 0.  0.
         25    1    1    2    0    0  0.89581446394E+02 -0.22273935591E+03 -0.35168235633E+03  0.44378275762E+03  0.12500000000E+03 0.  0.
</event>
<event>
 5    0  0.5720942E-005  0.2132184E+03  0.7546771E-02  0.1139042E+00
         21   -1    0    0  502  501  0.00000000000E+00  0.00000000000E+00  0.31269024739E+03  0.31269024739E+03  0.00000000000E+00 0. -1.
         21   -1    0    0  501  502 -0.00000000000E+00 -0.00000000000E+00 -0.14539015446E+03  0.14539015446E+03  0.00000000000E+00 0. -1.
         25    1    1    2    0    0  0.44155165390E+02 -0.29631644236E+02  0.61651269536E+02  0.14917637885E+03  0.12500000000E+03 0.  0.
         25    1    1    2    0    0 -0.64257931797E+01 -0.45620120138E+02  0.17633271821E+02  0.13438161502E+03  0.12500000000E+03 0.  0.
         25    1    1    2    0    0 -0.37729372210E+02  0.75251764374E+02  0.88015551570E+02  0.17452240798E+03  0.12500000000E+03 0.  0.
</event>
<event>
 5    0  0.5720942E-005  0.4934520E+03  0.7546771E-02  0.1015502E+00
         21   -1    0    0  502  501  0.00000000000E+00  0.00000000000E+00  0.62522096585E+03  0.62522096585E+03  0.00000000000E+00 0. -1.
         21   -1    0    0  501  502 -0.00000000000E+00 -0.00000000000E+00 -0.38945412028E+03  0.38945412028E+03  0.00000000000E+00 0. -1.
         25    1    1    2    0    0  0.24596881422E+02  0.13245812516E+03  0.51893514688E+03  0.55051689180E+03  0.12500000000E+03 0.  0.
         25    1    1    2    0    0  0.68870167109E+02 -0.13325700687E+03 -0.22420367677E+03  0.29730929766E+03  0.12500000000E+03 0.  0.
         25    1    1    2    0    0 -0.93467048532E+02  0.79888170652E+00 -0.58964624539E+02  0.16684889667E+03  0.12500000000E+03 0.  0.
</event>
<event>
 5    0  0.5720942E-005  0.2610213E+03  0.7546771E-02  0.1106531E+00
         21   -1    0    0  502  501  0.00000000000E+00  0.00000000000E+00  0.15875078109E+03  0.15875078109E+03  0.00000000000E+00 0.  1.
         21   -1    0    0  501  502 -0.00000000000E+00 -0.00000000000E+00 -0.42917665863E+03  0.42917665863E+03  0.00000000000E+00 0.  1.
         25    1    1    2    0    0 -0.10170492334E+03  0.16543852494E+02 -0.14141427958E+02  0.16261171690E+03  0.12500000000E+03 0.  0.
         25    1    1    2    0    0  0.14407826600E+03  0.95978063039E+01 -0.20795383523E+03  0.28234812237E+03  0.12500000000E+03 0.  0.
         25    1    1    2    0    0 -0.42373342663E+02 -0.26141658797E+02 -0.48330614355E+02  0.14296760045E+03  0.12500000000E+03 0.  0.
</event>
<event>
 5    0  0.5720942E-005  0.2469459E+03  0.7546771E-02  0.1115250E+00
         21   -1    0    0  502  501  0.00000000000E+00  0.00000000000E+00  0.21005649560E+04  0.21005649560E+04  0.00000000000E+00 0. -1.
         21   -1    0    0  501  502 -0.00000000000E+00 -0.00000000000E+00 -0.29031374606E+02  0.29031374606E+02  0.00000000000E+00 0. -1.
         25    1    1    2    0    0 -0.46349089948E+02 -0.63552725722E+02  0.43105667669E+03  0.45565562172E+03  0.12500000000E+03 0.  0.
         25    1    1    2    0    0 -0.32159078635E+02  0.96430159650E+02  0.55276763751E+03  0.57576908836E+03  0.12500000000E+03 0.  0.
         25    1    1    2    0    0  0.78508168584E+02 -0.32877433928E+02  0.10877092672E+04  0.10981716206E+04  0.12500000000E+03 0.  0.
</event>
<event>
 5    0  0.5720942E-005  0.5377877E+03  0.7546771E-02  0.1004361E+00
         21   -1    0    0  502  501  0.00000000000E+00  0.00000000000E+00  0.37529612380E+03  0.37529612380E+03  0.00000000000E+00 0. -1.
         21   -1    0    0  501  502 -0.00000000000E+00 -0.00000000000E+00 -0.77063295636E+03  0.77063295636E+03  0.00000000000E+00 0. -1.
         25    1    1    2    0    0  0.16044366506E+03  0.35384354611E+03 -0.48786811900E+03  0.63607210780E+03  0.12500000000E+03 0.  0.
         25    1    1    2    0    0 -0.12839020607E+03 -0.18846207145E+03 -0.37965545894E+02  0.26280863773E+03  0.12500000000E+03 0.  0.
         25    1    1    2    0    0 -0.32053458988E+02 -0.16538147466E+03  0.13049683234E+03  0.24704833463E+03  0.12500000000E+03 0.  0.
</event>
<event>
 5    0  0.5720942E-005  0.2667344E+03  0.7546771E-02  0.1103163E+00
         21   -1    0    0  502  501  0.00000000000E+00  0.00000000000E+00  0.48331166944E+03  0.48331166944E+03  0.00000000000E+00 0. -1.
         21   -1    0    0  501  502 -0.00000000000E+00 -0.00000000000E+00 -0.14720778611E+03  0.14720778611E+03  0.00000000000E+00 0. -1.
         25    1    1    2    0    0  0.12176313645E+02 -0.69295409472E+02  0.55520673084E+02  0.15381047275E+03  0.12500000000E+03 0.  0.
         25    1    1    2    0    0  0.12947176872E+03  0.73686849687E+02  0.11831311919E+03  0.22763058864E+03  0.12500000000E+03 0.  0.
         25    1    1    2    0    0 -0.14164808236E+03 -0.43914402149E+01  0.16227009107E+03  0.24907839416E+03  0.12500000000E+03 0.  0.
</event>
<event>
 5    0  0.5720942E-005  0.2507514E+03  0.7546771E-02  0.1112831E+00
         21   -1    0    0  502  501  0.00000000000E+00  0.00000000000E+00  0.18095152973E+03  0.18095152973E+03  0.00000000000E+00 0. -1.
         21   -1    0    0  501  502 -0.00000000000E+00 -0.00000000000E+00 -0.34747563842E+03  0.34747563842E+03  0.00000000000E+00 0. -1.
         25    1    1    2    0    0  0.95031360765E+02 -0.29676625978E+02 -0.81447674733E+01  0.16000937127E+03  0.12500000000E+03 0.  0.
         25    1    1    2    0    0  0.45686297962E+01  0.56330383702E+02  0.63802255904E+01  0.13733059304E+03  0.12500000000E+03 0.  0.
         25    1    1    2    0    0 -0.99599990561E+02 -0.26653757724E+02 -0.16475956680E+03  0.23108720383E+03  0.12500000000E+03 0.  0.
</event>
<event>
 5    0  0.5720942E-005  0.6753943E+03  0.7546771E-02  0.9760262E-01
         21   -1    0    0  502  501  0.00000000000E+00  0.00000000000E+00  0.62433121259E+03  0.62433121259E+03  0.00000000000E+00 0. -1.
         21   -1    0    0  501  502 -0.00000000000E+00 -0.00000000000E+00 -0.73063375482E+03  0.73063375482E+03  0.00000000000E+00 0. -1.
         25    1    1    2    0    0 -0.16883477479E+03 -0.39218477573E+03 -0.46524703119E+03  0.64373432371E+03  0.12500000000E+03 0.  0.
         25    1    1    2    0    0  0.21462490552E+03  0.29633098318E+03  0.38440717117E+03  0.54522451789E+03  0.12500000000E+03 0.  0.
         25    1    1    2    0    0 -0.45790130733E+02  0.95853792555E+02 -0.25462682208E+02  0.16600612581E+03  0.12500000000E+03 0.  0.
</event>
<event>
 5    0  0.5720942E-005  0.2629738E+03  0.7546771E-02  0.1105370E+00
         21   -1    0    0  502  501  0.00000000000E+00  0.00000000000E+00  0.32935277103E+03  0.32935277103E+03  0.00000000000E+00 0.  1.
         21   -1    0    0  501  502 -0.00000000000E+00 -0.00000000000E+00 -0.20997315230E+03  0.20997315230E+03  0.00000000000E+00 0.  1.
         25    1    1    2    0    0  0.99215626013E+02  0.38215990515E+02  0.19531914501E+01  0.16411281892E+03  0.12500000000E+03 0.  0.
         25    1    1    2    0    0  0.62293925445E+02  0.13590443086E+02  0.79021066063E+02  0.16104211304E+03  0.12500000000E+03 0.  0.
         25    1    1    2    0    0 -0.16150955146E+03 -0.51806433602E+02  0.38405361226E+02  0.21417099137E+03  0.12500000000E+03 0.  0.
</event>
<event>
 5    0  0.5720942E-005  0.2291117E+03  0.7546771E-02  0.1127267E+00
         21   -1    0    0  502  501  0.00000000000E+00  0.00000000000E+00  0.49442067563E+03  0.49442067563E+03  0.00000000000E+00 0.  1.
         21   -1    0    0  501  502 -0.00000000000E+00 -0.00000000000E+00 -0.10616905423E+03  0.10616905423E+03  0.00000000000E+00 0.  1.
         25    1    1    2    0    0  0.31636573391E+02  0.80637659121E+01  0.16752232006E+03  0.21155288893E+03  0.12500000000E+03 0.  0.
         25    1    1    2    0    0  0.56542298551E+02  0.63771657913E+02  0.10031508702E+03  0.18152678194E+03  0.12500000000E+03 0.  0.
         25    1    1    2    0    0 -0.88178871942E+02 -0.71835423826E+02  0.12041421431E+03  0.20751005899E+03  0.12500000000E+03 0.  0.
</event>
<event>
 5    0  0.5720942E-005  0.2951687E+03  0.7546771E-02  0.1087681E+00
         21   -1    0    0  502  501  0.00000000000E+00  0.00000000000E+00  0.32390811812E+03  0.32390811812E+03  0.00000000000E+00 0.  1.
         21   -1    0    0  501  502 -0.00000000000E+00 -0.00000000000E+00 -0.26897917105E+03  0.26897917105E+03  0.00000000000E+00 0.  1.
         25    1    1    2    0    0  0.14235081961E+03 -0.98963745696E+02 -0.46741788066E+02  0.21878613657E+03  0.12500000000E+03 0.  0.
         25    1    1    2    0    0 -0.17291290350E+03  0.86029683365E+02  0.54364251191E+02  0.23639046179E+03  0.12500000000E+03 0.  0.
         25    1    1    2    0    0  0.30562083891E+02  0.12934062331E+02  0.47306483942E+02  0.13771069081E+03  0.12500000000E+03 0.  0.
</event>
<event>
 5    0  0.5720942E-005  0.3977929E+03  0.7546771E-02  0.1044547E+00
         21   -1    0    0  502  501  0.00000000000E+00  0.00000000000E+00  0.38617952614E+03  0.38617952614E+03  0.00000000000E+00 0.  1.
         21   -1    0    0  501  502 -0.00000000000E+00 -0.00000000000E+00 -0.40975548560E+03  0.40975548560E+03  0.00000000000E+00 0.  1.
         25    1    1    2    0    0 -0.10545103490E+03 -0.89086731032E+01 -0.15467886852E+03  0.22527724604E+03  0.12500000000E+03 0.  0.
         25    1    1    2    0    0  0.20455680521E+03  0.12976677593E+03 -0.75660122243E+02  0.28289990596E+03  0.12500000000E+03 0.  0.
         25    1    1    2    0    0 -0.99105770317E+02 -0.12085810282E+03  0.20676303130E+03  0.28775785974E+03  0.12500000000E+03 0.  0.
</event>
<event>
 5    0  0.5720942E-005  0.2826864E+03  0.7546771E-02  0.1094231E+00
         21   -1    0    0  502  501  0.00000000000E+00  0.00000000000E+00  0.12273734728E+03  0.12273734728E+03  0.00000000000E+00 0. -1.
         21   -1    0    0  501  502 -0.00000000000E+00 -0.00000000000E+00 -0.65107814569E+03  0.65107814569E+03  0.00000000000E+00 0. -1.
         25    1    1    2    0    0  0.99288171970E+02 -0.12022568000E+03 -0.34132492072E+03  0.39552503932E+03  0.12500000000E+03 0.  0.
         25    1    1    2    0    0 -0.64364946077E+01  0.83455483410E+00 -0.34686268757E+02  0.12988557343E+03  0.12500000000E+03 0.  0.
         25    1    1    2    0    0 -0.92851677362E+02  0.11939112517E+03 -0.15232960894E+03  0.24840488022E+03  0.12500000000E+03 0.  0.
</event>
<event>
 5    0  0.5720942E-005  0.2960964E+03  0.7546771E-02  0.1087208E+00
         21   -1    0    0  502  501  0.00000000000E+00  0.00000000000E+00  0.78740399657E+03  0.78740399657E+03  0.00000000000E+00 0.  1.
         21   -1    0    0  501  502 -0.00000000000E+00 -0.00000000000E+00 -0.11134449016E+03  0.11134449016E+03  0.00000000000E+00 0.  1.
         25    1    1    2    0    0 -0.14226020825E+03  0.13320492220E+03  0.15641848034E+03  0.27941592500E+03  0.12500000000E+03 0.  0.
         25    1    1    2    0    0  0.10591038251E+03 -0.12582597760E+03  0.31950946518E+03  0.38047402553E+03  0.12500000000E+03 0.  0.
         25    1    1    2    0    0  0.36349825744E+02 -0.73789445938E+01  0.20013156089E+03  0.23885853621E+03  0.12500000000E+03 0.  0.
</event>
<event>
 5    0  0.5720942E-005  0.2988219E+03  0.7546771E-02  0.1085831E+00
         21   -1    0    0  502  501  0.00000000000E+00  0.00000000000E+00  0.29858966736E+03  0.29858966736E+03  0.00000000000E+00 0.  1.
         21   -1    0    0  501  502 -0.00000000000E+00 -0.00000000000E+00 -0.29905440893E+03  0.29905440893E+03  0.00000000000E+00 0.  1.
         25    1    1    2    0    0  0.17473350727E+03  0.12211571447E+03  0.25536282851E+02  0.24843741269E+03  0.12500000000E+03 0.  0.
         25    1    1    2    0    0 -0.12901843440E+03 -0.32511403066E+02 -0.43898840906E+02  0.18776276515E+03  0.12500000000E+03 0.  0.
         25    1    1    2    0    0 -0.45715072875E+02 -0.89604311405E+02  0.17897816492E+02  0.16144389845E+03  0.12500000000E+03 0.  0.
</event>
<event>
 5    0  0.5720942E-005  0.2977105E+03  0.7546771E-02  0.1086391E+00
         21   -1    0    0  502  501  0.00000000000E+00  0.00000000000E+00  0.49560999910E+03  0.49560999910E+03  0.00000000000E+00 0. -1.
         21   -1    0    0  501  502 -0.00000000000E+00 -0.00000000000E+00 -0.17883318956E+03  0.17883318956E+03  0.00000000000E+00 0. -1.
         25    1    1    2    0    0 -0.16317374600E+02 -0.49612188413E+02  0.14338221803E+03  0.19725893237E+03  0.12500000000E+03 0.  0.
         25    1    1    2    0    0 -0.29628839411E+02  0.20011188724E+03  0.13208737828E+03  0.27201968870E+03  0.12500000000E+03 0.  0.
         25    1    1    2    0    0  0.45946214012E+02 -0.15049969883E+03  0.41307213227E+02  0.20516456759E+03  0.12500000000E+03 0.  0.
</event>
<event>
 5    0  0.5720942E-005  0.2943048E+03  0.7546771E-02  0.1088123E+00
         21   -1    0    0  502  501  0.00000000000E+00  0.00000000000E+00  0.12750711284E+04  0.12750711284E+04  0.00000000000E+00 0.  1.
         21   -1    0    0  501  502 -0.00000000000E+00 -0.00000000000E+00 -0.67929768762E+02  0.67929768762E+02  0.00000000000E+00 0.  1.
         25    1    1    2    0    0  0.15315425170E+03  0.23257487419E+02  0.44724118731E+03  0.48953734808E+03  0.12500000000E+03 0.  0.
         25    1    1    2    0    0 -0.48615851729E+02  0.71532921119E+02  0.14409384555E+03  0.20944807511E+03  0.12500000000E+03 0.  0.
         25    1    1    2    0    0 -0.10453839997E+03 -0.94790408538E+02  0.61580632677E+03  0.64401547397E+03  0.12500000000E+03 0.  0.
</event>
<event>
 5    0  0.5720942E-005  0.3177084E+03  0.7546771E-02  0.1076709E+00
         21   -1    0    0  502  501  0.00000000000E+00  0.00000000000E+00  0.10239890640E+04  0.10239890640E+04  0.00000000000E+00 0.  1.
         21   -1    0    0  501  502 -0.00000000000E+00 -0.00000000000E+00 -0.98573908641E+02  0.98573908641E+02  0.00000000000E+00 0.  1.
         25    1    1    2    0    0 -0.13607087401E+02 -0.11223806611E+03  0.33826139929E+03  0.37792632954E+03  0.12500000000E+03 0.  0.
         25    1    1    2    0    0  0.18946664889E+02  0.18594366392E+03  0.11883950357E+03  0.25432626658E+03  0.12500000000E+03 0.  0.
         25    1    1    2    0    0 -0.53395774876E+01 -0.73705597802E+02  0.46831425254E+03  0.49031037656E+03  0.12500000000E+03 0.  0.
</event>
<event>
 5    0  0.5720942E-005  0.3390609E+03  0.7546771E-02  0.1067197E+00
         21   -1    0    0  502  501  0.00000000000E+00  0.00000000000E+00  0.57831736508E+03  0.57831736508E+03  0.00000000000E+00 0.  1.
         21   -1    0    0  501  502 -0.00000000000E+00 -0.00000000000E+00 -0.19878753286E+03  0.19878753286E+03  0.00000000000E+00 0. -1.
         25    1    1    2    0    0  0.29469836765E+02  0.15882713775E+03  0.80772721262E+02  0.21964462995E+03  0.12500000000E+03 0.  0.
         25    1    1    2    0    0  0.45140701613E+02  0.81399876093E+02  0.12408164986E+02  0.15634124641E+03  0.12500000000E+03 0.  0.
         25    1    1    2    0    0 -0.74610538377E+02 -0.24022701384E+03  0.28634894598E+03  0.40111902159E+03  0.12500000000E+03 0.  0.
</event>
<event>
 5    0  0.5720942E-005  0.3594581E+03  0.7546771E-02  0.1058799E+00
         21   -1    0    0  502  501  0.00000000000E+00  0.00000000000E+00  0.16104100689E+04  0.16104100689E+04  0.00000000000E+00 0.  1.
         21   -1    0    0  501  502 -0.00000000000E+00 -0.00000000000E+00 -0.80234281547E+02  0.80234281547E+02  0.00000000000E+00 0.  1.
         25    1    1    2    0    0  0.25407096372E+02 -0.11139009005E+03  0.10133356449E+03  0.19734934507E+03  0.12500000000E+03 0.  0.
         25    1    1    2    0    0 -0.10929967788E+03 -0.83423637725E+02  0.68557152696E+03  0.71030925764E+03  0.12500000000E+03 0.  0.
         25    1    1    2    0    0  0.83892581505E+02  0.19481372778E+03  0.74327069586E+03  0.78298574769E+03  0.12500000000E+03 0.  0.
</event>
<event>
 5    0  0.5720942E-005  0.2713943E+03  0.7546771E-02  0.1100484E+00
         21   -1    0    0  502  501  0.00000000000E+00  0.00000000000E+00  0.63820518519E+03  0.63820518519E+03  0.00000000000E+00 0. -1.
         21   -1    0    0  501  502 -0.00000000000E+00 -0.00000000000E+00 -0.11540936746E+03  0.11540936746E+03  0.00000000000E+00 0. -1.
         25    1    1    2    0    0  0.15493398777E+02  0.14224541789E+02  0.10679579408E+03  0.16574898077E+03  0.12500000000E+03 0.  0.
         25    1    1    2    0    0 -0.49247096016E+02 -0.14959687450E+03  0.11029982793E+03  0.22933720450E+03  0.12500000000E+03 0.  0.
         25    1    1    2    0    0  0.33753697239E+02  0.13537233271E+03  0.30570019572E+03  0.35852836737E+03  0.12500000000E+03 0.  0.
</event>
<event>
 5    0  0.5720942E-005  0.3599904E+03  0.7546771E-02  0.1058588E+00
         21   -1    0    0  502  501  0.00000000000E+00  0.00000000000E+00  0.65735308471E+03  0.65735308471E+03  0.00000000000E+00 0. -1.
         21   -1    0    0  501  502 -0.00000000000E+00 -0.00000000000E+00 -0.19714375190E+03  0.19714375190E+03  0.00000000000E+00 0. -1.
         25    1    1    2    0    0  0.11409884949E+03  0.15506710754E+03  0.14471140994E+03  0.27134986174E+03  0.12500000000E+03 0.  0.
         25    1    1    2    0    0  0.11122837783E+03 -0.12487940339E+03  0.55916689883E+02  0.21614415012E+03  0.12500000000E+03 0.  0.
         25    1    1    2    0    0 -0.22532722732E+03 -0.30187704157E+02  0.25958123298E+03  0.36700282474E+03  0.12500000000E+03 0.  0.
</event>
<event>
 5    0  0.5720942E-005  0.2149617E+03  0.7546771E-02  0.1137696E+00
         21   -1    0    0  502  501  0.00000000000E+00  0.00000000000E+00  0.51978132732E+03  0.51978132732E+03  0.00000000000E+00 0. -1.
         21   -1    0    0  501  502 -0.00000000000E+00 -0.00000000000E+00 -0.88899939110E+02  0.88899939110E+02  0.00000000000E+00 0. -1.
         25    1    1    2    0    0  0.16565015790E+01  0.10613079116E+02  0.81274825488E+02  0.14948571405E+03  0.12500000000E+03 0.  0.
         25    1    1    2    0    0 -0.44588703033E+02 -0.39079200080E+02  0.26711904861E+03  0.30082041561E+03  0.12500000000E+03 0.  0.
         25    1    1    2    0    0  0.42932201454E+02  0.28466120964E+02  0.82487514114E+02  0.15837513678E+03  0.12500000000E+03 0.  0.
</event>
<event>
 5    0  0.5720942E-005  0.2733980E+03  0.7546771E-02  0.1099350E+00
         21   -1    0    0  502  501  0.00000000000E+00  0.00000000000E+00  0.63405630686E+02  0.63405630686E+02  0.00000000000E+00 0.  1.
         21   -1    0    0  501  502 -0.00000000000E+00 -0.00000000000E+00 -0.11788620527E+04  0.11788620527E+04  0.00000000000E+00 0.  1.
         25    1    1    2    0    0  0.57854485171E+02 -0.94615972109E+02 -0.54183159040E+03  0.56701481109E+03  0.12500000000E+03 0.  0.
         25    1    1    2    0    0 -0.13287370326E+03  0.82731735020E+02 -0.25187424095E+03  0.32181608762E+03  0.12500000000E+03 0.  0.
         25    1    1    2    0    0  0.75019218091E+02  0.11884237090E+02 -0.32175059068E+03  0.35343678470E+03  0.12500000000E+03 0.  0.
</event>
<event>
 5    0  0.5720942E-005  0.3025299E+03  0.7546771E-02  0.1083983E+00
         21   -1    0    0  502  501  0.00000000000E+00  0.00000000000E+00  0.29462506035E+03  0.29462506035E+03  0.00000000000E+00 0. -1.
         21   -1    0    0  501  502 -0.00000000000E+00 -0.00000000000E+00 -0.31064687201E+03  0.31064687201E+03  0.00000000000E+00 0. -1.
         25    1    1    2    0    0  0.50592665864E+02  0.56586449820E+02  0.16460257690E+03  0.22018322476E+03  0.12500000000E+03 0.  0.
         25    1    1    2    0    0 -0.11657572082E+03 -0.90687374728E+02 -0.86994590031E+02  0.21214890364E+03  0.12500000000E+03 0.  0.
         25    1    1    2    0    0  0.65983054956E+02  0.34100924908E+02 -0.93629798540E+02  0.17293980397E+03  0.12500000000E+03 0.  0.
</event>
<event>
 5    0  0.5720942E-005  0.4189253E+03  0.7546771E-02  0.1037417E+00
         21   -1    0    0  502  501  0.00000000000E+00  0.00000000000E+00  0.96847847846E+02  0.96847847846E+02  0.00000000000E+00 0. -1.
         21   -1    0    0  501  502 -0.00000000000E+00 -0.00000000000E+00 -0.18121041544E+04  0.18121041544E+04  0.00000000000E+00 0. -1.
         25    1    1    2    0    0  0.34830690222E+02  0.13589667370E+02 -0.73362550451E+03  0.74513705914E+03  0.12500000000E+03 0.  0.
         25    1    1    2    0    0 -0.21495408861E+03 -0.18753840854E+03 -0.32556564717E+03  0.45054844968E+03  0.12500000000E+03 0.  0.
         25    1    1    2    0    0  0.18012339839E+03  0.17394874117E+03 -0.65606515488E+03  0.71326649343E+03  0.12500000000E+03 0.  0.
</event>
<event>
 5    0  0.5720942E-005  0.5860063E+03  0.7546771E-02  0.9934871E-01
         21   -1    0    0  502  501  0.00000000000E+00  0.00000000000E+00  0.44372226177E+03  0.44372226177E+03  0.00000000000E+00 0. -1.
         21   -1    0    0  501  502 -0.00000000000E+00 -0.00000000000E+00 -0.77391525367E+03  0.77391525367E+03  0.00000000000E+00 0. -1.
         25    1    1    2    0    0  0.23705598034E+03  0.54089389969E+02 -0.52003171257E+03  0.58751951628E+03  0.12500000000E+03 0.  0.
         25    1    1    2    0    0 -0.12857314743E+03 -0.25101927695E+03 -0.31856437063E+01  0.30850750390E+03  0.12500000000E+03 0.  0.
         25    1    1    2    0    0 -0.10848283291E+03  0.19692988698E+03  0.19302436438E+03  0.32161049527E+03  0.12500000000E+03 0.  0.
</event>
<event>
 5    0  0.5720942E-005  0.3124037E+03  0.7546771E-02  0.1079199E+00
         21   -1    0    0  502  501  0.00000000000E+00  0.00000000000E+00  0.13764384722E+03  0.13764384722E+03  0.00000000000E+00 0. -1.
         21   -1    0    0  501  502 -0.00000000000E+00 -0.00000000000E+00 -0.70904781372E+03  0.70904781372E+03  0.00000000000E+00 0. -1.
         25    1    1    2    0    0 -0.36175683848E+02  0.47159809674E+02 -0.73741310368E+02  0.15682955272E+03  0.12500000000E+03 0.  0.
         25    1    1    2    0    0  0.21472218971E+03  0.77978743463E+01 -0.21451088973E+03  0.32833876928E+03  0.12500000000E+03 0.  0.
         25    1    1    2    0    0 -0.17854650586E+03 -0.54957684020E+02 -0.28315176640E+03  0.36152333895E+03  0.12500000000E+03 0.  0.
</event>
<event>
 5    0  0.5720942E-005  0.2651297E+03  0.7546771E-02  0.1104100E+00
         21   -1    0    0  502  501  0.00000000000E+00  0.00000000000E+00  0.11423412589E+04  0.11423412589E+04  0.00000000000E+00 0. -1.
         21   -1    0    0  501  502 -0.00000000000E+00 -0.00000000000E+00 -0.61534803240E+02  0.61534803240E+02  0.00000000000E+00 0. -1.
         25    1    1    2    0    0 -0.97618705153E+02  0.58266757420E+02  0.26172924924E+03  0.31153110042E+03  0.12500000000E+03 0.  0.
         25    1    1    2    0    0 -0.31283159972E+02 -0.14286396225E+02  0.15030566291E+03  0.19849314728E+03  0.12500000000E+03 0.  0.
         25    1    1    2    0    0  0.12890186512E+03 -0.43980361195E+02  0.66877154350E+03  0.69385181444E+03  0.12500000000E+03 0.  0.
</event>
<event>
 5    0  0.5720942E-005  0.2237806E+03  0.7546771E-02  0.1131095E+00
         21   -1    0    0  502  501  0.00000000000E+00  0.00000000000E+00  0.21368508956E+02  0.21368508956E+02  0.00000000000E+00 0.  1.
         21   -1    0    0  501  502 -0.00000000000E+00 -0.00000000000E+00 -0.23435306786E+04  0.23435306786E+04  0.00000000000E+00 0.  1.
         25    1    1    2    0    0  0.16590897582E+02 -0.47435162952E+02 -0.36603879448E+03  0.39004455083E+03  0.12500000000E+03 0.  0.
         25    1    1    2    0    0  0.32342003180E+02  0.18151429031E+01 -0.87596683731E+03  0.88543334023E+03  0.12500000000E+03 0.  0.
         25    1    1    2    0    0 -0.48932900762E+02  0.45620020049E+02 -0.10801565379E+04  0.10894212965E+04  0.12500000000E+03 0.  0.
</event>
<event>
 5    0  0.6187387E-005  0.3541244E+03  0.7546771E-02  0.1060935E+00
         21   -1    0    0  502  501  0.00000000000E+00  0.00000000000E+00  0.26180709354E+03  0.26180709354E+03  0.00000000000E+00 0. -1.
         21   -1    0    0  501  502 -0.00000000000E+00 -0.00000000000E+00 -0.47899413483E+03  0.47899413483E+03  0.00000000000E+00 0. -1.
         25    1    1    2    0    0 -0.16265472756E+03  0.50985790044E+02 -0.13192674701E+03  0.24917017831E+03  0.12500000000E+03 0.  0.
         25    1    1    2    0    0 -0.31118882940E+01 -0.11422048809E+03  0.10813679682E+03  0.20093424441E+03  0.12500000000E+03 0.  0.
         25    1    1    2    0    0  0.16576661585E+03  0.63234698046E+02 -0.19339709111E+03  0.29069680565E+03  0.12500000000E+03 0.  0.
</event>
<event>
 5    0  0.5720942E-005  0.2841872E+03  0.7546771E-02  0.1093424E+00
         21   -1    0    0  502  501  0.00000000000E+00  0.00000000000E+00  0.20999503113E+04  0.20999503113E+04  0.00000000000E+00 0.  1.
         21   -1    0    0  501  502 -0.00000000000E+00 -0.00000000000E+00 -0.38459168746E+02  0.38459168746E+02  0.00000000000E+00 0.  1.
         25    1    1    2    0    0  0.89166772812E+02 -0.12411570900E+03  0.10074466871E+04  0.10266105639E+04  0.12500000000E+03 0.  0.
         25    1    1    2    0    0 -0.75330119661E+02 -0.35732156276E+02  0.44053418816E+03  0.46545331115E+03  0.12500000000E+03 0.  0.
         25    1    1    2    0    0 -0.13836653151E+02  0.15984786528E+03  0.61351026727E+03  0.64634560496E+03  0.12500000000E+03 0.  0.
</event>
<event>
 5    0  0.5990764E-005  0.2469899E+03  0.7546771E-02  0.1115222E+00
         21   -1    0    0  502  501  0.00000000000E+00  0.00000000000E+00  0.67178471702E+02  0.67178471702E+02  0.00000000000E+00 0. -1.
         21   -1    0    0  501  502 -0.00000000000E+00 -0.00000000000E+00 -0.90808871769E+03  0.90808871769E+03  0.00000000000E+00 0. -1.
         25    1    1    2    0    0 -0.91733440478E+02 -0.50508696984E+02 -0.36618955329E+03  0.40085650988E+03  0.12500000000E+03 0.  0.
         25    1    1    2    0    0  0.21137992061E+02 -0.42289964678E+02 -0.30747775838E+03  0.33526530945E+03  0.12500000000E+03 0.  0.
         25    1    1    2    0    0  0.70595448418E+02  0.92798661662E+02 -0.16724293431E+03  0.23914537006E+03  0.12500000000E+03 0.  0.
</event>
<event>
 5    0  0.5720942E-005  0.2686580E+03  0.7546771E-02  0.1102050E+00
         21   -1    0    0  502  501  0.00000000000E+00  0.00000000000E+00  0.46405970854E+03  0.46405970854E+03  0.00000000000E+00 0. -1.
         21   -1    0    0  501  502 -0.00000000000E+00 -0.00000000000E+00 -0.15553414223E+03  0.15553414223E+03  0.00000000000E+00 0. -1.
         25    1    1    2    0    0 -0.65273451916E+02  0.12172606687E+03  0.12363683397E+03  0.22358203326E+03  0.12500000000E+03 0.  0.
         25    1    1    2    0    0 -0.59894404927E+02 -0.23370218271E+02  0.37042371108E+02  0.14536383354E+03  0.12500000000E+03 0.  0.
         25    1    1    2    0    0  0.12516785684E+03 -0.98355848603E+02  0.14784636124E+03  0.25064798398E+03  0.12500000000E+03 0.  0.
</event>
<event>
 5    0  0.5720942E-005  0.2851862E+03  0.7546771E-02  0.1092890E+00
         21   -1    0    0  502  501  0.00000000000E+00  0.00000000000E+00  0.75632949538E+03  0.75632949538E+03  0.00000000000E+00 0. -1.
         21   -1    0    0  501  502 -0.00000000000E+00 -0.00000000000E+00 -0.10753402350E+03  0.10753402350E+03  0.00000000000E+00 0. -1.
         25    1    1    2    0    0 -0.34222099593E+02 -0.89439207466E+02  0.27656051245E+03  0.31824713821E+03  0.12500000000E+03 0.  0.
         25    1    1    2    0    0 -0.16344575214E+02 -0.53672041233E+02  0.14987287253E+02  0.13783124438E+03  0.12500000000E+03 0.  0.
         25    1    1    2    0    0  0.50566674807E+02  0.14311124870E+03  0.35724767217E+03  0.40778513628E+03  0.12500000000E+03 0.  0.
</event>
<event>
 5    0  0.5720942E-005  0.5652745E+03  0.7546771E-02  0.9980190E-01
         21   -1    0    0  502  501  0.00000000000E+00  0.00000000000E+00  0.23306609420E+03  0.23306609420E+03  0.00000000000E+00 0. -1.
         21   -1    0    0  501  502 -0.00000000000E+00 -0.00000000000E+00 -0.13710069432E+04  0.13710069432E+04  0.00000000000E+00 0. -1.
         25    1    1    2    0    0 -0.62714536099E+02 -0.33832809676E+03 -0.25294312874E+03  0.44497667408E+03  0.12500000000E+03 0.  0.
         25    1    1    2    0    0  0.38514260286E+02 -0.14348216580E+03 -0.75130568987E+02  0.20818281039E+03  0.12500000000E+03 0.  0.
         25    1    1    2    0    0  0.24200275813E+02  0.48181026255E+03 -0.80986715130E+03  0.95091355296E+03  0.12500000000E+03 0.  0.
</event>
<event>
 5    0  0.5720942E-005  0.3532748E+03  0.7546771E-02  0.1061279E+00
         21   -1    0    0  502  501  0.00000000000E+00  0.00000000000E+00  0.19695688189E+03  0.19695688189E+03  0.00000000000E+00 0. -1.
         21   -1    0    0  501  502 -0.00000000000E+00 -0.00000000000E+00 -0.63365688012E+03  0.63365688012E+03  0.00000000000E+00 0. -1.
         25    1    1    2    0    0  0.10356577221E+03  0.17338548010E+03 -0.42162527885E+03  0.48392279306E+03  0.12500000000E+03 0.  0.
         25    1    1    2    0    0 -0.35409389107E+02 -0.14239776180E+03 -0.45002103745E+02  0.19794225609E+03  0.12500000000E+03 0.  0.
         25    1    1    2    0    0 -0.68156383099E+02 -0.30987718295E+02  0.29927384369E+02  0.14874871286E+03  0.12500000000E+03 0.  0.
</event>
<event>
 5    0  0.5720942E-005  0.3440699E+03  0.7546771E-02  0.1065076E+00
         21   -1    0    0  502  501  0.00000000000E+00  0.00000000000E+00  0.18596939576E+03  0.18596939576E+03  0.00000000000E+00 0. -1.
         21   -1    0    0  501  502 -0.00000000000E+00 -0.00000000000E+00 -0.63657849063E+03  0.63657849063E+03  0.00000000000E+00 0. -1.
         25    1    1    2    0    0 -0.83007282901E+02  0.12263694623E+03 -0.94686900412E+02  0.21568643607E+03  0.12500000000E+03 0.  0.
         25    1    1    2    0    0  0.59722018455E+02 -0.26395513732E+03 -0.18241214753E+03  0.34948279725E+03  0.12500000000E+03 0.  0.
         25    1    1    2    0    0  0.23285264446E+02  0.14131819109E+03 -0.17351004693E+03  0.25737865308E+03  0.12500000000E+03 0.  0.
</event>
<event>
 5    0  0.5720942E-005  0.2907553E+03  0.7546771E-02  0.1089955E+00
         21   -1    0    0  502  501  0.00000000000E+00  0.00000000000E+00  0.68331436061E+03  0.68331436061E+03  0.00000000000E+00 0. -1.
         21   -1    0    0  501  502 -0.00000000000E+00 -0.00000000000E+00 -0.12371852706E+03  0.12371852706E+03  0.00000000000E+00 0. -1.
         25    1    1    2    0    0 -0.10997319786E+03  0.11639377639E+03  0.28370843018E+03  0.34893708428E+03  0.12500000000E+03 0.  0.
         25    1    1    2    0    0  0.16477402792E+03 -0.87724514036E+02  0.19062878723E+03  0.29463605543E+03  0.12500000000E+03 0.  0.
         25    1    1    2    0    0 -0.54800830056E+02 -0.28669262354E+02  0.85258616140E+02  0.16345974797E+03  0.12500000000E+03 0.  0.
</event>
<event>
 5    0  0.5720942E-005  0.6018743E+03  0.7546771E-02  0.9901525E-01
         21   -1    0    0  502  501  0.00000000000E+00  0.00000000000E+00  0.13956263034E+03  0.13956263034E+03  0.00000000000E+00 0. -1.
         21   -1    0    0  501  502 -0.00000000000E+00 -0.00000000000E+00 -0.25956283634E+04  0.25956283634E+04  0.00000000000E+00 0. -1.
         25    1    1    2    0    0  0.14867247159E+03 -0.28615738337E+03 -0.56181534082E+03  0.65973557510E+03  0.12500000000E+03 0.  0.
         25    1    1    2    0    0 -0.68149894996E+02  0.40104677970E+03 -0.18269506224E+04  0.18758615366E+04  0.12500000000E+03 0.  0.
         25    1    1    2    0    0 -0.80522576590E+02 -0.11488939633E+03 -0.67299769798E+02  0.19959388203E+03  0.12500000000E+03 0.  0.
</event>
<event>
 5    0  0.5720942E-005  0.2449638E+03  0.7546771E-02  0.1116530E+00
         21   -1    0    0  502  501  0.00000000000E+00  0.00000000000E+00  0.21273709414E+03  0.21273709414E+03  0.00000000000E+00 0. -1.
         21   -1    0    0  501  502 -0.00000000000E+00 -0.00000000000E+00 -0.28207248129E+03  0.28207248129E+03  0.00000000000E+00 0. -1.
         25    1    1    2    0    0  0.68330523667E+02  0.26807118341E+02 -0.22095469111E+01  0.14497435689E+03  0.12500000000E+03 0.  0.
         25    1    1    2    0    0 -0.12309477393E+03  0.37181290605E+02  0.11752871226E+02  0.17971616990E+03  0.12500000000E+03 0.  0.
         25    1    1    2    0    0  0.54764250267E+02 -0.63988408945E+02 -0.78878711466E+02  0.17011904864E+03  0.12500000000E+03 0.  0.
</event>
<event>
 5    0  0.5720942E-005  0.3483525E+03  0.7546771E-02  0.1063293E+00
         21   -1    0    0  502  501  0.00000000000E+00  0.00000000000E+00  0.62723641851E+03  0.62723641851E+03  0.00000000000E+00 0.  1.
         21   -1    0    0  501  502 -0.00000000000E+00 -0.00000000000E+00 -0.19346684708E+03  0.19346684708E+03  0.00000000000E+00 0.  1.
         25    1    1    2    0    0  0.81545514742E+02 -0.14763891009E+03  0.39816864547E+03  0.45012241555E+03  0.12500000000E+03 0.  0.
         25    1    1    2    0    0  0.66617870673E+02  0.52123300673E+02  0.32834031438E+02  0.15445987436E+03  0.12500000000E+03 0.  0.
         25    1    1    2    0    0 -0.14816338542E+03  0.95515609417E+02  0.27668945230E+01  0.21612097567E+03  0.12500000000E+03 0.  0.
</event>
<event>
 5    0  0.5720942E-005  0.6207021E+03  0.7546771E-02  0.9863363E-01
         21   -1    0    0  502  501  0.00000000000E+00  0.00000000000E+00  0.30149065355E+03  0.30149065355E+03  0.00000000000E+00 0. -1.
         21   -1    0    0  501  502 -0.00000000000E+00 -0.00000000000E+00 -0.12778874175E+04  0.12778874175E+04  0.00000000000E+00 0. -1.
         25    1    1    2    0    0 -0.11005622771E+03  0.25635955108E+03 -0.45205391528E+03  0.54572001522E+03  0.12500000000E+03 0.  0.
         25    1    1    2    0    0 -0.14261177097E+03 -0.46719236687E+03 -0.16475637632E+03  0.53044932691E+03  0.12500000000E+03 0.  0.
         25    1    1    2    0    0  0.25266799868E+03  0.21083281578E+03 -0.35958647231E+03  0.50320872889E+03  0.12500000000E+03 0.  0.
</event>
<event>
 5    0  0.5720942E-005  0.2703372E+03  0.7546771E-02  0.1101087E+00
         21   -1    0    0  502  501  0.00000000000E+00  0.00000000000E+00  0.21731140817E+03  0.21731140817E+03  0.00000000000E+00 0.  1.
         21   -1    0    0  501  502 -0.00000000000E+00 -0.00000000000E+00 -0.33630184770E+03  0.33630184770E+03  0.00000000000E+00 0.  1.
         25    1    1    2    0    0  0.80789568460E+02  0.10200239176E+03  0.71450260010E+02  0.19406592167E+03  0.12500000000E+03 0.  0.
         25    1    1    2    0    0 -0.97660332977E+02 -0.39485206686E+02 -0.89926429710E+02  0.18657005372E+03  0.12500000000E+03 0.  0.
         25    1    1    2    0    0  0.16870764517E+02 -0.62517185075E+02 -0.10051426983E+03  0.17297728049E+03  0.12500000000E+03 0.  0.
</event>
<event>
 5    0  0.5720942E-005  0.2783639E+03  0.7546771E-02  0.1096586E+00
         21   -1    0    0  502  501  0.00000000000E+00  0.00000000000E+00  0.15158424327E+03  0.15158424327E+03  0.00000000000E+00 0. -1.
         21   -1    0    0  501  502 -0.00000000000E+00 -0.00000000000E+00 -0.51117767103E+03  0.51117767103E+03  0.00000000000E+00 0. -1.
         25    1    1    2    0    0 -0.10059646153E+03  0.82972569695E+02 -0.11354408426E+03  0.21335733984E+03  0.12500000000E+03 0.  0.
         25    1    1    2    0    0  0.89785364395E+02 -0.16042334793E+03 -0.10694564783E+03  0.24669704865E+03  0.12500000000E+03 0.  0.
         25    1    1    2    0    0  0.10811097135E+02  0.77450778233E+02 -0.13910369567E+03  0.20270752581E+03  0.12500000000E+03 0.  0.
</event>
<event>
 5    0  0.5720942E-005  0.6490354E+03  0.7546771E-02  0.9808591E-01
         21   -1    0    0  502  501  0.00000000000E+00  0.00000000000E+00  0.37423430168E+03  0.37423430168E+03  0.00000000000E+00 0.  1.
         21   -1    0    0  501  502 -0.00000000000E+00 -0.00000000000E+00 -0.11256235645E+04  0.11256235645E+04  0.00000000000E+00 0.  1.
         25    1    1    2    0    0 -0.12630802881E+03 -0.32008516103E+02 -0.35789800774E+02  0.18407654137E+03  0.12500000000E+03 0.  0.
         25    1    1    2    0    0 -0.39567684428E+03 -0.26168876578E+03 -0.35539983320E+03  0.60578479402E+03  0.12500000000E+03 0.  0.
         25    1    1    2    0    0  0.52198487308E+03  0.29369728188E+03 -0.36019962885E+03  0.70999653079E+03  0.12500000000E+03 0.  0.
</event>
<event>
 5    0  0.5720942E-005  0.3804760E+03  0.7546771E-02  0.1050758E+00
         21   -1    0    0  502  501  0.00000000000E+00  0.00000000000E+00  0.42531096122E+03  0.42531096122E+03  0.00000000000E+00 0.  1.
         21   -1    0    0  501  502 -0.00000000000E+00 -0.00000000000E+00 -0.34036743597E+03  0.34036743597E+03  0.00000000000E+00 0.  1.
         25    1    1    2    0    0 -0.17865582831E+02  0.52876834016E+02 -0.96644609128E+01  0.13723534687E+03  0.12500000000E+03 0.  0.
         25    1    1    2    0    0 -0.77181861232E+01  0.12303006692E+02  0.32983001870E+03  0.35302092800E+03  0.12500000000E+03 0.  0.
         25    1    1    2    0    0  0.25583768954E+02 -0.65179840708E+02 -0.23522203254E+03  0.27542212232E+03  0.12500000000E+03 0.  0.
</event>
<event>
 5    0  0.5720942E-005  0.3522105E+03  0.7546771E-02  0.1061711E+00
         21   -1    0    0  502  501  0.00000000000E+00  0.00000000000E+00  0.45185437726E+03  0.45185437726E+03  0.00000000000E+00 0. -1.
         21   -1    0    0  501  502 -0.00000000000E+00 -0.00000000000E+00 -0.27454028658E+03  0.27454028658E+03  0.00000000000E+00 0. -1.
         25    1    1    2    0    0 -0.22038072568E+03  0.30914068510E+02 -0.93145781874E+02  0.27170660751E+03  0.12500000000E+03 0.  0.
         25    1    1    2    0    0  0.89752849982E+02  0.14215090884E+02  0.20596397809E+03  0.25749524881E+03  0.12500000000E+03 0.  0.
         25    1    1    2    0    0  0.13062787570E+03 -0.45129159394E+02  0.64495894463E+02  0.19719280753E+03  0.12500000000E+03 0.  0.
</event>
<event>
 5    0  0.5720942E-005  0.2570351E+03  0.7546771E-02  0.1108938E+00
         21   -1    0    0  502  501  0.00000000000E+00  0.00000000000E+00  0.13472759347E+03  0.13472759347E+03  0.00000000000E+00 0.  1.
         21   -1    0    0  501  502 -0.00000000000E+00 -0.00000000000E+00 -0.49037501858E+03  0.49037501858E+03  0.00000000000E+00 0.  1.
         25    1    1    2    0    0  0.20759587552E+02 -0.12100846501E+03 -0.13361508521E+03  0.22034518392E+03  0.12500000000E+03 0.  0.
         25    1    1    2    0    0 -0.30027680889E+02  0.56090150548E+02  0.16386935379E+01  0.14026921232E+03  0.12500000000E+03 0.  0.
         25    1    1    2    0    0  0.92680933368E+01  0.64918314457E+02 -0.22367103343E+03  0.26448821581E+03  0.12500000000E+03 0.  0.
</event>
<event>
 5    0  0.6531656E-005  0.5098761E+03  0.7546771E-02  0.1011233E+00
         21   -1    0    0  502  501  0.00000000000E+00  0.00000000000E+00  0.38245478701E+03  0.38245478701E+03  0.00000000000E+00 0.  1.
         21   -1    0    0  501  502 -0.00000000000E+00 -0.00000000000E+00 -0.67974986559E+03  0.67974986559E+03  0.00000000000E+00 0.  1.
         25    1    1    2    0    0 -0.18583787421E+03  0.19621900241E+03 -0.23447020609E+03  0.37899721627E+03  0.12500000000E+03 0.  0.
         25    1    1    2    0    0  0.31503854852E+02 -0.30771104122E+03 -0.22605630876E+03  0.40299507750E+03  0.12500000000E+03 0.  0.
         25    1    1    2    0    0  0.15433401936E+03  0.11149203881E+03  0.16323143627E+03  0.28021235882E+03  0.12500000000E+03 0.  0.
</event>
<event>
 5    0  0.5720942E-005  0.3509989E+03  0.7546771E-02  0.1062206E+00
         21   -1    0    0  502  501  0.00000000000E+00  0.00000000000E+00  0.84178938929E+03  0.84178938929E+03  0.00000000000E+00 0.  1.
         21   -1    0    0  501  502 -0.00000000000E+00 -0.00000000000E+00 -0.14635515709E+03  0.14635515709E+03  0.00000000000E+00 0.  1.
         25    1    1    2    0    0  0.15271607665E+01 -0.17464164246E+03  0.57649142036E+03  0.61519866161E+03  0.12500000000E+03 0.  0.
         25    1    1    2    0    0  0.76348858627E+02  0.13593884550E+03  0.51237875327E+02  0.20629793454E+03  0.12500000000E+03 0.  0.
         25    1    1    2    0    0 -0.77876019393E+02  0.38702796958E+02  0.67704936512E+02  0.16664795023E+03  0.12500000000E+03 0.  0.
</event>
<event>
 5    0  0.6161637E-005  0.3424521E+03  0.7546771E-02  0.1065756E+00
         21   -1    0    0  502  501  0.00000000000E+00  0.00000000000E+00  0.61766313009E+03  0.61766313009E+03  0.00000000000E+00 0. -1.
         21   -1    0    0  501  502 -0.00000000000E+00 -0.00000000000E+00 -0.18986635117E+03  0.18986635117E+03  0.00000000000E+00 0. -1.
         25    1    1    2    0    0  0.30017685033E+02 -0.74854838545E+02  0.44139575575E+03  0.46578913842E+03  0.12500000000E+03 0.  0.
         25    1    1    2    0    0 -0.11727736968E+03  0.67744388406E+02  0.20273218287E+02  0.18541652294E+03  0.12500000000E+03 0.  0.
         25    1    1    2    0    0  0.87259684648E+02  0.71104501399E+01 -0.33872195121E+02  0.15632381990E+03  0.12500000000E+03 0.  0.
</event>
<event>
 5    0  0.5720942E-005  0.3539786E+03  0.7546771E-02  0.1060994E+00
         21   -1    0    0  502  501  0.00000000000E+00  0.00000000000E+00  0.26120545915E+03  0.26120545915E+03  0.00000000000E+00 0.  1.
         21   -1    0    0  501  502 -0.00000000000E+00 -0.00000000000E+00 -0.47970229085E+03  0.47970229085E+03  0.00000000000E+00 0.  1.
         25    1    1    2    0    0 -0.63888528043E+02  0.41761211793E+02 -0.10217520849E+03  0.17857915907E+03  0.12500000000E+03 0.  0.
         25    1    1    2    0    0  0.83621010406E+02 -0.25576186263E+03 -0.26100444105E+02  0.29784700257E+03  0.12500000000E+03 0.  0.
         25    1    1    2    0    0 -0.19732482363E+02  0.21400065084E+03 -0.90221179106E+02  0.26448158836E+03  0.12500000000E+03 0.  0.
</event>
<event>
 5    0  0.5720942E-005  0.4036391E+03  0.7546771E-02  0.1042527E+00
         21   -1    0    0  502  501  0.00000000000E+00  0.00000000000E+00  0.22247290743E+03  0.22247290743E+03  0.00000000000E+00 0.  1.
         21   -1    0    0  501  502 -0.00000000000E+00 -0.00000000000E+00 -0.73233428565E+03  0.73233428565E+03  0.00000000000E+00 0.  1.
         25    1    1    2    0    0 -0.40991115481E+01 -0.44005562027E+02 -0.58599222005E+03  0.60080377343E+03  0.12500000000E+03 0.  0.
         25    1    1    2    0    0 -0.31574812945E+01 -0.40455180463E+02  0.13820120267E+03  0.19071225376E+03  0.12500000000E+03 0.  0.
         25    1    1    2    0    0  0.72565928427E+01  0.84460742490E+02 -0.62070360848E+02  0.16329116589E+03  0.12500000000E+03 0.  0.
</event>
<event>
 5    0  0.5720942E-005  0.3092119E+03  0.7546771E-02  0.1080724E+00
         21   -1    0    0  502  501  0.00000000000E+00  0.00000000000E+00  0.40693629939E+02  0.40693629939E+02  0.00000000000E+00 0.  1.
         21   -1    0    0  501  502 -0.00000000000E+00 -0.00000000000E+00 -0.23495567789E+04  0.23495567789E+04  0.00000000000E+00 0.  1.
         25    1    1    2    0    0 -0.11648906259E+03 -0.63331982050E+02 -0.62168427492E+03  0.64784024214E+03  0.12500000000E+03 0.  0.
         25    1    1    2    0    0 -0.69088431786E+02  0.83513649349E+02 -0.35803037382E+03  0.39440903845E+03  0.12500000000E+03 0.  0.
         25    1    1    2    0    0  0.18557749438E+03 -0.20181667299E+02 -0.13291485002E+04  0.13480011282E+04  0.12500000000E+03 0.  0.
</event>
<event>
 5    0  0.5720942E-005  0.2804490E+03  0.7546771E-02  0.1095444E+00
         21   -1    0    0  502  501  0.00000000000E+00  0.00000000000E+00  0.28382683096E+03  0.28382683096E+03  0.00000000000E+00 0. -1.
         21   -1    0    0  501  502 -0.00000000000E+00 -0.00000000000E+00 -0.27711142416E+03  0.27711142416E+03  0.00000000000E+00 0. -1.
         25    1    1    2    0    0 -0.52383341572E+02  0.10721325447E+03 -0.77145072828E+02  0.18924866887E+03  0.12500000000E+03 0.  0.
         25    1    1    2    0    0  0.88925925688E+02 -0.90786568627E+02  0.14221867996E+03  0.22803765968E+03  0.12500000000E+03 0.  0.
         25    1    1    2    0    0 -0.36542584116E+02 -0.16426685847E+02 -0.58358200328E+02  0.14365192657E+03  0.12500000000E+03 0.  0.
</event>
<event>
 5    0  0.5720942E-005  0.2873998E+03  0.7546771E-02  0.1091715E+00
         21   -1    0    0  502  501  0.00000000000E+00  0.00000000000E+00  0.23114316415E+03  0.23114316415E+03  0.00000000000E+00 0. -1.
         21   -1    0    0  501  502 -0.00000000000E+00 -0.00000000000E+00 -0.35734831341E+03  0.35734831341E+03  0.00000000000E+00 0. -1.
         25    1    1    2    0    0  0.13105630700E+03  0.11101474390E+02 -0.16789881481E+03  0.24721248017E+03  0.12500000000E+03 0.  0.
         25    1    1    2    0    0 -0.84528912254E+02 -0.97603455316E+02  0.24647076946E+02  0.18139473504E+03  0.12500000000E+03 0.  0.
         25    1    1    2    0    0 -0.46527394747E+02  0.86501980927E+02  0.17046588604E+02  0.15988426236E+03  0.12500000000E+03 0.  0.
</event>
<event>
 5    0  0.5720942E-005  0.2146817E+03  0.7546771E-02  0.1137911E+00
         21   -1    0    0  502  501  0.00000000000E+00  0.00000000000E+00  0.63568135571E+02  0.63568135571E+02  0.00000000000E+00 0. -1.
         21   -1    0    0  501  502 -0.00000000000E+00 -0.00000000000E+00 -0.72502105750E+03  0.72502105750E+03  0.00000000000E+00 0. -1.
         25    1    1    2    0    0 -0.23073361851E+02 -0.52659984811E+01 -0.25109311684E+03  0.28148332827E+03  0.12500000000E+03 0.  0.
         25    1    1    2    0    0  0.49477031093E+02  0.72625328017E+02 -0.19354728286E+03  0.24659271193E+03  0.12500000000E+03 0.  0.
         25    1    1    2    0    0 -0.26403669241E+02 -0.67359329536E+02 -0.21681252223E+03  0.26051315288E+03  0.12500000000E+03 0.  0.
</event>
<event>
 5    0  0.5720942E-005  0.5201388E+03  0.7546771E-02  0.1008652E+00
         21   -1    0    0  502  501  0.00000000000E+00  0.00000000000E+00  0.14025172503E+04  0.14025172503E+04  0.00000000000E+00 0. -1.
         21   -1    0    0  501  502 -0.00000000000E+00 -0.00000000000E+00 -0.19289916625E+03  0.19289916625E+03  0.00000000000E+00 0. -1.
         25    1    1    2    0    0  0.23725222333E+03 -0.15583867864E+03  0.86298871939E+03  0.91703262811E+03  0.12500000000E+03 0.  0.
         25    1    1    2    0    0 -0.12702570574E+03 -0.13778067821E+03  0.54119062384E+02  0.23167416369E+03  0.12500000000E+03 0.  0.
         25    1    1    2    0    0 -0.11022651759E+03  0.29361935685E+03  0.29251030223E+03  0.44670962470E+03  0.12500000000E+03 0.  0.
</event>
<event>
 5    0  0.5720942E-005  0.5350194E+03  0.7546771E-02  0.1005022E+00
         21   -1    0    0  502  501  0.00000000000E+00  0.00000000000E+00  0.45604648109E+03  0.45604648109E+03  0.00000000000E+00 0.  1.
         21   -1    0    0  501  502 -0.00000000000E+00 -0.00000000000E+00 -0.62766785895E+03  0.62766785895E+03  0.00000000000E+00 0. -1.
         25    1    1    2    0    0 -0.20259197794E+03 -0.35145082114E+03  0.10091168279E+03  0.43631337010E+03  0.12500000000E+03 0.  0.
         25    1    1    2    0    0  0.75014817538E+02  0.33309554491E+03 -0.29263057192E+03  0.46673066806E+03  0.12500000000E+03 0.  0.
         25    1    1    2    0    0  0.12757716040E+03  0.18355276232E+02  0.20097511267E+02  0.18067030188E+03  0.12500000000E+03 0.  0.
</event>
<event>
 5    0  0.5720942E-005  0.2672941E+03  0.7546771E-02  0.1102838E+00
         21   -1    0    0  502  501  0.00000000000E+00  0.00000000000E+00  0.30688957889E+03  0.30688957889E+03  0.00000000000E+00 0.  1.
         21   -1    0    0  501  502 -0.00000000000E+00 -0.00000000000E+00 -0.23280737633E+03  0.23280737633E+03  0.00000000000E+00 0.  1.
         25    1    1    2    0    0  0.57962056633E+02  0.28713780289E+00  0.14430996044E+03  0.19952455272E+03  0.12500000000E+03 0.  0.
         25    1    1    2    0    0  0.59253205055E+02 -0.48803206777E+01 -0.93699800263E+02  0.16715086721E+03  0.12500000000E+03 0.  0.
         25    1    1    2    0    0 -0.11721526169E+03  0.45931828748E+01  0.23472042380E+02  0.17302153529E+03  0.12500000000E+03 0.  0.
</event>
<event>
 5    0  0.5720942E-005  0.3784018E+03  0.7546771E-02  0.1051526E+00
         21   -1    0    0  502  501  0.00000000000E+00  0.00000000000E+00  0.73894427373E+02  0.73894427373E+02  0.00000000000E+00 0.  1.
         21   -1    0    0  501  502 -0.00000000000E+00 -0.00000000000E+00 -0.19377360821E+04  0.19377360821E+04  0.00000000000E+00 0.  1.
         25    1    1    2    0    0 -0.20134343665E+03 -0.15609564159E+03 -0.44627344758E+03  0.52885727642E+03  0.12500000000E+03 0.  0.
         25    1    1    2    0    0 -0.49407988431E+01 -0.16760677853E+02 -0.59701665866E+03  0.61021244049E+03  0.12500000000E+03 0.  0.
         25    1    1    2    0    0  0.20628423550E+03  0.17285631944E+03 -0.82055154846E+03  0.87256079254E+03  0.12500000000E+03 0.  0.
</event>
<event>
 5    0  0.5720942E-005  0.2460211E+03  0.7546771E-02  0.1115846E+00
         21   -1    0    0  502  501  0.00000000000E+00  0.00000000000E+00  0.88457727160E+03  0.88457727160E+03  0.00000000000E+00 0.  1.
         21   -1    0    0  501  502 -0.00000000000E+00 -0.00000000000E+00 -0.68424081531E+02  0.68424081531E+02  0.00000000000E+00 0.  1.
         25    1    1    2    0    0  0.34067493859E+02 -0.42938203153E+02  0.27493803381E+03  0.30695310043E+03  0.12500000000E+03 0.  0.
         25    1    1    2    0    0 -0.81822135745E+02 -0.33850490674E+02  0.42828009079E+03  0.45485113365E+03  0.12500000000E+03 0.  0.
         25    1    1    2    0    0  0.47754641886E+02  0.76788693827E+02  0.11293506547E+03  0.19119711905E+03  0.12500000000E+03 0.  0.
</event>
<event>
 5    0  0.5720942E-005  0.2761940E+03  0.7546771E-02  0.1097786E+00
         21   -1    0    0  502  501  0.00000000000E+00  0.00000000000E+00  0.58611882975E+03  0.58611882975E+03  0.00000000000E+00 0.  1.
         21   -1    0    0  501  502 -0.00000000000E+00 -0.00000000000E+00 -0.13014960367E+03  0.13014960367E+03  0.00000000000E+00 0.  1.
         25    1    1    2    0    0  0.26881057199E+02  0.13480052705E+02 -0.23657613932E+02  0.13072484750E+03  0.12500000000E+03 0.  0.
         25    1    1    2    0    0  0.95286500370E+02 -0.30797058829E+02  0.22240727047E+03  0.27407657679E+03  0.12500000000E+03 0.  0.
         25    1    1    2    0    0 -0.12216755757E+03  0.17317006124E+02  0.25721956954E+03  0.31146700913E+03  0.12500000000E+03 0.  0.
</event>
<event>
 5    0  0.5720942E-005  0.2506919E+03  0.7546771E-02  0.1112868E+00
         21   -1    0    0  502  501  0.00000000000E+00  0.00000000000E+00  0.14293234960E+03  0.14293234960E+03  0.00000000000E+00 0.  1.
         21   -1    0    0  501  502 -0.00000000000E+00 -0.00000000000E+00 -0.43969363116E+03  0.43969363116E+03  0.00000000000E+00 0.  1.
         25    1    1    2    0    0 -0.85775144485E+02 -0.16906903742E+02 -0.21381708315E+03  0.26265179203E+03  0.12500000000E+03 0.  0.
         25    1    1    2    0    0  0.96649275004E+02 -0.36435946478E+02 -0.35298825919E+01  0.16219161700E+03  0.12500000000E+03 0.  0.
         25    1    1    2    0    0 -0.10874130519E+02  0.53342850220E+02 -0.79414315816E+02  0.15778257173E+03  0.12500000000E+03 0.  0.
</event>
<event>
 5    0  0.5720942E-005  0.4463390E+03  0.7546771E-02  0.1028819E+00
         21   -1    0    0  502  501  0.00000000000E+00  0.00000000000E+00  0.18417941247E+03  0.18417941247E+03  0.00000000000E+00 0. -1.
         21   -1    0    0  501  502 -0.00000000000E+00 -0.00000000000E+00 -0.10816547568E+04  0.10816547568E+04  0.00000000000E+00 0. -1.
         25    1    1    2    0    0 -0.10152247463E+03  0.32460708497E+02 -0.21357363886E+02  0.16565520651E+03  0.12500000000E+03 0.  0.
         25    1    1    2    0    0  0.35213562818E+02  0.24142827203E+03 -0.68410906536E+03  0.73699241438E+03  0.12500000000E+03 0.  0.
         25    1    1    2    0    0  0.66308911811E+02 -0.27388898053E+03 -0.19200891506E+03  0.36318654835E+03  0.12500000000E+03 0.  0.
</event>
<event>
 5    0  0.5720942E-005  0.3809019E+03  0.7546771E-02  0.1050601E+00
         21   -1    0    0  502  501  0.00000000000E+00  0.00000000000E+00  0.30803566439E+03  0.30803566439E+03  0.00000000000E+00 0. -1.
         21   -1    0    0  501  502 -0.00000000000E+00 -0.00000000000E+00 -0.47100479803E+03  0.47100479803E+03  0.00000000000E+00 0. -1.
         25    1    1    2    0    0  0.17264334242E+03  0.13202440617E+03  0.16577495846E+03  0.30057029853E+03  0.12500000000E+03 0.  0.
         25    1    1    2    0    0 -0.95153151705E+02 -0.12423211525E+03 -0.18397907463E+03  0.27195779202E+03  0.12500000000E+03 0.  0.
         25    1    1    2    0    0 -0.77490190712E+02 -0.77922909151E+01 -0.14476501748E+03  0.20651237188E+03  0.12500000000E+03 0.  0.
</event>
<event>
 5    0  0.5720942E-005  0.2783998E+03  0.7546771E-02  0.1096566E+00
         21   -1    0    0  502  501  0.00000000000E+00  0.00000000000E+00  0.25808342179E+03  0.25808342179E+03  0.00000000000E+00 0.  1.
         21   -1    0    0  501  502 -0.00000000000E+00 -0.00000000000E+00 -0.30031554511E+03  0.30031554511E+03  0.00000000000E+00 0.  1.
         25    1    1    2    0    0  0.60307003894E+01  0.57892318685E+02  0.23011810308E+02  0.13979425354E+03  0.12500000000E+03 0.  0.
         25    1    1    2    0    0 -0.13182716929E+02  0.21117063816E+02 -0.18742062862E+03  0.22665217061E+03  0.12500000000E+03 0.  0.
         25    1    1    2    0    0  0.71520165392E+01 -0.79009382501E+02  0.12217669500E+03  0.19195254274E+03  0.12500000000E+03 0.  0.
</event>
<event>
 5    0  0.5720942E-005  0.3014529E+03  0.7546771E-02  0.1084517E+00
         21   -1    0    0  502  501  0.00000000000E+00  0.00000000000E+00  0.21302837769E+04  0.21302837769E+04  0.00000000000E+00 0. -1.
         21   -1    0    0  501  502 -0.00000000000E+00 -0.00000000000E+00 -0.42658101860E+02  0.42658101860E+02  0.00000000000E+00 0. -1.
         25    1    1    2    0    0 -0.49276840305E+00 -0.44948231165E+02  0.55588760137E+03  0.57153881029E+03  0.12500000000E+03 0.  0.
         25    1    1    2    0    0 -0.13101022456E+03 -0.52609270932E+02  0.31325748406E+03  0.36563187176E+03  0.12500000000E+03 0.  0.
         25    1    1    2    0    0  0.13150299296E+03  0.97557502097E+02  0.12184805896E+04  0.12357711967E+04  0.12500000000E+03 0.  0.
</event>
<event>
 5    0  0.5720942E-005  0.4429645E+03  0.7546771E-02  0.1029841E+00
         21   -1    0    0  502  501  0.00000000000E+00  0.00000000000E+00  0.98081979219E+03  0.98081979219E+03  0.00000000000E+00 0. -1.
         21   -1    0    0  501  502 -0.00000000000E+00 -0.00000000000E+00 -0.20005466564E+03  0.20005466564E+03  0.00000000000E+00 0. -1.
         25    1    1    2    0    0 -0.27876811212E+03  0.14288924864E+03  0.18207609538E+03  0.38328279666E+03  0.12500000000E+03 0.  0.
         25    1    1    2    0    0 -0.45922329545E+02 -0.87411481714E+02  0.28191427050E+03  0.32380593478E+03  0.12500000000E+03 0.  0.
         25    1    1    2    0    0  0.32469044166E+03 -0.55477766923E+02  0.31677476067E+03  0.47378572639E+03  0.12500000000E+03 0.  0.
</event>
<event>
 5    0  0.5884361E-005  0.3570679E+03  0.7546771E-02  0.1059751E+00
         21   -1    0    0  502  501  0.00000000000E+00  0.00000000000E+00  0.19695863030E+03  0.19695863030E+03  0.00000000000E+00 0. -1.
         21   -1    0    0  501  502 -0.00000000000E+00 -0.00000000000E+00 -0.64733139590E+03  0.64733139590E+03  0.00000000000E+00 0. -1.
         25    1    1    2    0    0 -0.30310789998E+02 -0.71392338807E+02 -0.31179248990E+03  0.34475377704E+03  0.12500000000E+03 0.  0.
         25    1    1    2    0    0  0.21567259990E+03  0.45228253255E+02 -0.53762201185E+02  0.25898965137E+03  0.12500000000E+03 0.  0.
         25    1    1    2    0    0 -0.18536180990E+03  0.26164085551E+02 -0.84818074522E+02  0.24054659779E+03  0.12500000000E+03 0.  0.
</event>
<event>
 5    0  0.5808077E-005  0.2783858E+03  0.7546771E-02  0.1096574E+00
         21   -1    0    0  502  501  0.00000000000E+00  0.00000000000E+00  0.12583375068E+03  0.12583375068E+03  0.00000000000E+00 0.  1.
         21   -1    0    0  501  502 -0.00000000000E+00 -0.00000000000E+00 -0.61588149916E+03  0.61588149916E+03  0.00000000000E+00 0.  1.
         25    1    1    2    0    0  0.57554392451E+02 -0.25697177142E+02 -0.21750817484E+02  0.14167198405E+03  0.12500000000E+03 0.  0.
         25    1    1    2    0    0 -0.46712687865E+02  0.62996639977E+02 -0.44272825874E+03  0.46667329358E+03  0.12500000000E+03 0.  0.
         25    1    1    2    0    0 -0.10841704585E+02 -0.37299462835E+02 -0.25568672252E+02  0.13336997221E+03  0.12500000000E+03 0.  0.
</event>
<event>
 5    0  0.5720942E-005  0.2291014E+03  0.7546771E-02  0.1127274E+00
         21   -1    0    0  502  501  0.00000000000E+00  0.00000000000E+00  0.22210096599E+03  0.22210096599E+03  0.00000000000E+00 0.  1.
         21   -1    0    0  501  502 -0.00000000000E+00 -0.00000000000E+00 -0.23632242229E+03  0.23632242229E+03  0.00000000000E+00 0.  1.
         25    1    1    2    0    0 -0.10177517939E+02  0.60160885661E+02 -0.24786458946E+02  0.14128794210E+03  0.12500000000E+03 0.  0.
         25    1    1    2    0    0 -0.41685870540E+02 -0.74009982134E+01 -0.71710324803E+02  0.15019939168E+03  0.12500000000E+03 0.  0.
         25    1    1    2    0    0  0.51863388479E+02 -0.52759887448E+02  0.82275327453E+02  0.16693605451E+03  0.12500000000E+03 0.  0.
</event>
<event>
 5    0  0.6090263E-005  0.3272297E+03  0.7546771E-02  0.1072369E+00
         21   -1    0    0  502  501  0.00000000000E+00  0.00000000000E+00  0.42701098760E+03  0.42701098760E+03  0.00000000000E+00 0. -1.
         21   -1    0    0  501  502 -0.00000000000E+00 -0.00000000000E+00 -0.25076461958E+03  0.25076461958E+03  0.00000000000E+00 0. -1.
         25    1    1    2    0    0  0.11960058153E+03 -0.19125160042E+02  0.16321712401E+03  0.23861035270E+03  0.12500000000E+03 0.  0.
         25    1    1    2    0    0 -0.21966726238E+02  0.15075473009E+03 -0.80435488164E+02  0.21284828743E+03  0.12500000000E+03 0.  0.
         25    1    1    2    0    0 -0.97633855292E+02 -0.13162957005E+03  0.93464732171E+02  0.22631696704E+03  0.12500000000E+03 0.  0.
</event>
<event>
 5    0  0.5720942E-005  0.2677788E+03  0.7546771E-02  0.1102558E+00
         21   -1    0    0  502  501  0.00000000000E+00  0.00000000000E+00  0.51139533010E+03  0.51139533010E+03  0.00000000000E+00 0.  1.
         21   -1    0    0  501  502 -0.00000000000E+00 -0.00000000000E+00 -0.14021538703E+03  0.14021538703E+03  0.00000000000E+00 0.  1.
         25    1    1    2    0    0  0.89967384500E+02  0.71460663563E+02 -0.97113153272E+01  0.17005900845E+03  0.12500000000E+03 0.  0.
         25    1    1    2    0    0 -0.75240924510E+02 -0.50872602982E+02  0.27648051420E+03  0.31672652745E+03  0.12500000000E+03 0.  0.
         25    1    1    2    0    0 -0.14726459990E+02 -0.20588060581E+02  0.10441074420E+03  0.16482518123E+03  0.12500000000E+03 0.  0.
</event>
<event>
 5    0  0.5720942E-005  0.3080322E+03  0.7546771E-02  0.1081293E+00
         21   -1    0    0  502  501  0.00000000000E+00  0.00000000000E+00  0.23476667463E+03  0.23476667463E+03  0.00000000000E+00 0. -1.
         21   -1    0    0  501  502 -0.00000000000E+00 -0.00000000000E+00 -0.40416241023E+03  0.40416241023E+03  0.00000000000E+00 0. -1.
         25    1    1    2    0    0  0.19419755161E+03 -0.60830332280E+02 -0.16203400207E+03  0.28860532948E+03  0.12500000000E+03 0.  0.
         25    1    1    2    0    0 -0.16567292792E+03  0.78980747909E+01  0.20984885321E+02  0.20874688990E+03  0.12500000000E+03 0.  0.
         25    1    1    2    0    0 -0.28524623698E+02  0.52932257489E+02 -0.28346618849E+02  0.14157686548E+03  0.12500000000E+03 0.  0.
</event>
<event>
 5    0  0.5720942E-005  0.4780892E+03  0.7546771E-02  0.1019662E+00
         21   -1    0    0  502  501  0.00000000000E+00  0.00000000000E+00  0.57080131098E+03  0.57080131098E+03  0.00000000000E+00 0.  1.
         21   -1    0    0  501  502 -0.00000000000E+00 -0.00000000000E+00 -0.40043578928E+03  0.40043578928E+03  0.00000000000E+00 0. -1.
         25    1    1    2    0    0  0.97491272508E+02 -0.20358830893E+03 -0.14370274846E+03  0.29534425280E+03  0.12500000000E+03 0.  0.
         25    1    1    2    0    0  0.18147578123E+03 -0.37055716418E+01  0.17429293571E+03  0.28098081407E+03  0.12500000000E+03 0.  0.
         25    1    1    2    0    0 -0.27896705374E+03  0.20729388057E+03  0.13977533446E+03  0.39491203339E+03  0.12500000000E+03 0.  0.
</event>
<event>
 5    0  0.5720942E-005  0.3630204E+03  0.7546771E-02  0.1057394E+00
         21   -1    0    0  502  501  0.00000000000E+00  0.00000000000E+00  0.11632055054E+03  0.11632055054E+03  0.00000000000E+00 0.  1.
         21   -1    0    0  501  502 -0.00000000000E+00 -0.00000000000E+00 -0.11329365711E+04  0.11329365711E+04  0.00000000000E+00 0.  1.
         25    1    1    2    0    0 -0.18133866863E+03  0.17056519056E+03 -0.61296194561E+03  0.67329305933E+03  0.12500000000E+03 0.  0.
         25    1    1    2    0    0  0.19940160978E+03 -0.98204949488E+02 -0.31595797792E+03  0.40602913430E+03  0.12500000000E+03 0.  0.
         25    1    1    2    0    0 -0.18062941150E+02 -0.72360241071E+02 -0.87696097058E+02  0.16993492805E+03  0.12500000000E+03 0.  0.
</event>
<event>
 5    0  0.5720942E-005  0.3055553E+03  0.7546771E-02  0.1082496E+00
         21   -1    0    0  502  501  0.00000000000E+00  0.00000000000E+00  0.77416514369E+03  0.77416514369E+03  0.00000000000E+00 0. -1.
         21   -1    0    0  501  502 -0.00000000000E+00 -0.00000000000E+00 -0.12059965519E+03  0.12059965519E+03  0.00000000000E+00 0. -1.
         25    1    1    2    0    0  0.25787700085E+02  0.10784795046E+03  0.13755190044E+03  0.21642946012E+03  0.12500000000E+03 0.  0.
         25    1    1    2    0    0 -0.47589298322E+02  0.22257332500E+02  0.46868994230E+01  0.13567275773E+03  0.12500000000E+03 0.  0.
         25    1    1    2    0    0  0.21801598236E+02 -0.13010528296E+03  0.51132668863E+03  0.54266258102E+03  0.12500000000E+03 0.  0.
</event>
<event>
 5    0  0.5720942E-005  0.3572133E+03  0.7546771E-02  0.1059693E+00
         21   -1    0    0  502  501  0.00000000000E+00  0.00000000000E+00  0.21018642802E+03  0.21018642802E+03  0.00000000000E+00 0.  1.
         21   -1    0    0  501  502 -0.00000000000E+00 -0.00000000000E+00 -0.60708644033E+03  0.60708644033E+03  0.00000000000E+00 0.  1.
         25    1    1    2    0    0 -0.12311548058E+03  0.11066266321E+02 -0.92202793369E+02  0.19851004739E+03  0.12500000000E+03 0.  0.
         25    1    1    2    0    0 -0.65803208299E+02 -0.10727322519E+03  0.52503836787E+02  0.18498448568E+03  0.12500000000E+03 0.  0.
         25    1    1    2    0    0  0.18891868888E+03  0.96206958871E+02 -0.35720105573E+03  0.43377833527E+03  0.12500000000E+03 0.  0.
</event>
<event>
 5    0  0.5720942E-005  0.2523530E+03  0.7546771E-02  0.1111827E+00
         21   -1    0    0  502  501  0.00000000000E+00  0.00000000000E+00  0.25503123565E+04  0.25503123565E+04  0.00000000000E+00 0. -1.
         21   -1    0    0  501  502 -0.00000000000E+00 -0.00000000000E+00 -0.24970293386E+02  0.24970293386E+02  0.00000000000E+00 0. -1.
         25    1    1    2    0    0 -0.71037360939E+02  0.15820424519E+02  0.60130978188E+03  0.61846183897E+03  0.12500000000E+03 0.  0.
         25    1    1    2    0    0  0.76891842334E+02  0.12694319215E+02  0.16216721291E+04  0.16283485485E+04  0.12500000000E+03 0.  0.
         25    1    1    2    0    0 -0.58544813949E+01 -0.28514743734E+02  0.30236015209E+03  0.32847226235E+03  0.12500000000E+03 0.  0.
</event>
<event>
 5    0  0.5720942E-005  0.2708793E+03  0.7546771E-02  0.1100777E+00
         21   -1    0    0  502  501  0.00000000000E+00  0.00000000000E+00  0.23226403086E+03  0.23226403086E+03  0.00000000000E+00 0. -1.
         21   -1    0    0  501  502 -0.00000000000E+00 -0.00000000000E+00 -0.31591460010E+03  0.31591460010E+03  0.00000000000E+00 0. -1.
         25    1    1    2    0    0  0.53326988853E+02 -0.10864027735E+03  0.82721190526E+02  0.19265065005E+03  0.12500000000E+03 0.  0.
         25    1    1    2    0    0 -0.31135013158E+02  0.46328283559E+02 -0.16460811898E+03  0.21409467937E+03  0.12500000000E+03 0.  0.
         25    1    1    2    0    0 -0.22191975695E+02  0.62311993789E+02 -0.17636407922E+01  0.14143330154E+03  0.12500000000E+03 0.  0.
</event>
<event>
 5    0  0.5720942E-005  0.3574092E+03  0.7546771E-02  0.1059614E+00
         21   -1    0    0  502  501  0.00000000000E+00  0.00000000000E+00  0.19290317734E+03  0.19290317734E+03  0.00000000000E+00 0. -1.
         21   -1    0    0  501  502 -0.00000000000E+00 -0.00000000000E+00 -0.66220428655E+03  0.66220428655E+03  0.00000000000E+00 0. -1.
         25    1    1    2    0    0 -0.18743415566E+03 -0.18391472065E+02 -0.34455242921E+02  0.22865251522E+03  0.12500000000E+03 0.  0.
         25    1    1    2    0    0  0.55556945567E+02 -0.11039288029E+03 -0.34324880712E+03  0.38563960612E+03  0.12500000000E+03 0.  0.
         25    1    1    2    0    0  0.13187721010E+03  0.12878435236E+03 -0.91597059175E+02  0.24081534254E+03  0.12500000000E+03 0.  0.
</event>
<event>
 5    0  0.5720942E-005  0.3827919E+03  0.7546771E-02  0.1049907E+00
         21   -1    0    0  502  501  0.00000000000E+00  0.00000000000E+00  0.56925570276E+03  0.56925570276E+03  0.00000000000E+00 0.  1.
         21   -1    0    0  501  502 -0.00000000000E+00 -0.00000000000E+00 -0.25740563400E+03  0.25740563400E+03  0.00000000000E+00 0.  1.
         25    1    1    2    0    0  0.15499792776E+03  0.21386445569E+03  0.13789853659E+03  0.32311510242E+03  0.12500000000E+03 0.  0.
         25    1    1    2    0    0 -0.21462435308E+03 -0.21549085460E+03  0.15577715565E+03  0.36385635019E+03  0.12500000000E+03 0.  0.
         25    1    1    2    0    0  0.59626425321E+02  0.16263989062E+01  0.18174376519E+02  0.13968988414E+03  0.12500000000E+03 0.  0.
</event>
<event>
 5    0  0.5720942E-005  0.3196546E+03  0.7546771E-02  0.1075808E+00
         21   -1    0    0  502  501  0.00000000000E+00  0.00000000000E+00  0.18274928307E+04  0.18274928307E+04  0.00000000000E+00 0.  1.
         21   -1    0    0  501  502 -0.00000000000E+00 -0.00000000000E+00 -0.55912167397E+02  0.55912167397E+02  0.00000000000E+00 0.  1.
         25    1    1    2    0    0 -0.12208343427E+02  0.15772851315E+03  0.77803239897E+03  0.80373300377E+03  0.12500000000E+03 0.  0.
         25    1    1    2    0    0  0.59346244130E+02  0.65697566265E+02  0.48106574144E+03  0.50486373854E+03  0.12500000000E+03 0.  0.
         25    1    1    2    0    0 -0.47137900703E+02 -0.22342607942E+03  0.51248252291E+03  0.57480825580E+03  0.12500000000E+03 0.  0.
</event>
<event>
 5    0  0.5720942E-005  0.4025183E+03  0.7546771E-02  0.1042911E+00
         21   -1    0    0  502  501  0.00000000000E+00  0.00000000000E+00  0.94209441863E+02  0.94209441863E+02  0.00000000000E+00 0.  1.
         21   -1    0    0  501  502 -0.00000000000E+00 -0.00000000000E+00 -0.17197959734E+04  0.17197959734E+04  0.00000000000E+00 0.  1.
         25    1    1    2    0    0 -0.14437546166E+02 -0.11225733944E+03 -0.80826871692E+03  0.82567152776E+03  0.12500000000E+03 0.  0.
         25    1    1    2    0    0  0.20525837818E+03  0.16885898476E+03 -0.29856525390E+03  0.41882045006E+03  0.12500000000E+03 0.  0.
         25    1    1    2    0    0 -0.19082083202E+03 -0.56601645317E+02 -0.51875256070E+03  0.56951343743E+03  0.12500000000E+03 0.  0.
</event>
<event>
 5    0  0.5720942E-005  0.2707260E+03  0.7546771E-02  0.1100865E+00
         21   -1    0    0  502  501  0.00000000000E+00  0.00000000000E+00  0.75384969427E+03  0.75384969427E+03  0.00000000000E+00 0. -1.
         21   -1    0    0  501  502 -0.00000000000E+00 -0.00000000000E+00 -0.97224385968E+02  0.97224385968E+02  0.00000000000E+00 0. -1.
         25    1    1    2    0    0  0.94888558121E+02  0.50436525709E+02  0.46756250873E+03  0.49576948389E+03  0.12500000000E+03 0.  0.
         25    1    1    2    0    0 -0.68734079809E+02 -0.82788566052E+01  0.16570473495E+03  0.21880578689E+03  0.12500000000E+03 0.  0.
         25    1    1    2    0    0 -0.26154478312E+02 -0.42157669104E+02  0.23358064628E+02  0.13649880946E+03  0.12500000000E+03 0.  0.
</event>
<event>
 5    0  0.5720942E-005  0.2432276E+03  0.7546771E-02  0.1117661E+00
         21   -1    0    0  502  501  0.00000000000E+00  0.00000000000E+00  0.11691243539E+03  0.11691243539E+03  0.00000000000E+00 0.  1.
         21   -1    0    0  501  502 -0.00000000000E+00 -0.00000000000E+00 -0.50601673556E+03  0.50601673556E+03  0.00000000000E+00 0.  1.
         25    1    1    2    0    0  0.90174632221E+02  0.99808624647E+02 -0.20506369746E+03  0.27526232192E+03  0.12500000000E+03 0.  0.
         25    1    1    2    0    0 -0.81754307321E+02 -0.44563060718E+02 -0.11888702342E+03  0.19603254190E+03  0.12500000000E+03 0.  0.
         25    1    1    2    0    0 -0.84203249006E+01 -0.55245563929E+02 -0.65153579293E+02  0.15163430713E+03  0.12500000000E+03 0.  0.
</event>
<event>
 5    0  0.5720942E-005  0.2999533E+03  0.7546771E-02  0.1085264E+00
         21   -1    0    0  502  501  0.00000000000E+00  0.00000000000E+00  0.10530349966E+03  0.10530349966E+03  0.00000000000E+00 0. -1.
         21   -1    0    0  501  502 -0.00000000000E+00 -0.00000000000E+00 -0.85440657657E+03  0.85440657657E+03  0.00000000000E+00 0. -1.
         25    1    1    2    0    0 -0.42912281352E+02  0.52247805340E+02 -0.17431822749E+03  0.22490696185E+03  0.12500000000E+03 0.  0.
         25    1    1    2    0    0  0.11067892587E+02 -0.41333230874E+02  0.13160677794E+02  0.13277476289E+03  0.12500000000E+03 0.  0.
         25    1    1    2    0    0  0.31844388765E+02 -0.10914574465E+02 -0.58794552721E+03  0.60202835149E+03  0.12500000000E+03 0.  0.
</event>
<event>
 5    0  0.5720942E-005  0.2452161E+03  0.7546771E-02  0.1116366E+00
         21   -1    0    0  502  501  0.00000000000E+00  0.00000000000E+00  0.16370677969E+03  0.16370677969E+03  0.00000000000E+00 0. -1.
         21   -1    0    0  501  502 -0.00000000000E+00 -0.00000000000E+00 -0.36730883858E+03  0.36730883858E+03  0.00000000000E+00 0. -1.
         25    1    1    2    0    0 -0.75012800791E+02 -0.85406863826E+01 -0.10793130817E+03  0.18158752955E+03  0.12500000000E+03 0.  0.
         25    1    1    2    0    0  0.10443718656E+03 -0.58578516021E+02  0.46955967742E+01  0.17316355594E+03  0.12500000000E+03 0.  0.
         25    1    1    2    0    0 -0.29424385766E+02  0.67119202403E+02 -0.10036634749E+03  0.17626453279E+03  0.12500000000E+03 0.  0.
</event>
<event>
 5    0  0.5720942E-005  0.3124806E+03  0.7546771E-02  0.1079163E+00
         21   -1    0    0  502  501  0.00000000000E+00  0.00000000000E+00  0.29979769185E+03  0.29979769185E+03  0.00000000000E+00 0.  1.
         21   -1    0    0  501  502 -0.00000000000E+00 -0.00000000000E+00 -0.32570011871E+03  0.32570011871E+03  0.00000000000E+00 0.  1.
         25    1    1    2    0    0  0.15652743484E+03 -0.18872074906E+02 -0.90207976851E+02  0.22049823617E+03  0.12500000000E+03 0.  0.
         25    1    1    2    0    0 -0.11299594736E+03  0.13307470562E+03  0.80775325229E+02  0.22940491399E+03  0.12500000000E+03 0.  0.
         25    1    1    2    0    0 -0.43531487480E+02 -0.11420263072E+03 -0.16469775235E+02  0.17559466040E+03  0.12500000000E+03 0.  0.
</event>
<event>
 5    0  0.5720942E-005  0.2854149E+03  0.7546771E-02  0.1092768E+00
         21   -1    0    0  502  501  0.00000000000E+00  0.00000000000E+00  0.13222154244E+04  0.13222154244E+04  0.00000000000E+00 0.  1.
         21   -1    0    0  501  502 -0.00000000000E+00 -0.00000000000E+00 -0.61609968924E+02  0.61609968924E+02  0.00000000000E+00 0.  1.
         25    1    1    2    0    0  0.15846720097E+02  0.29547145598E+02  0.93525110718E+02  0.15967497827E+03  0.12500000000E+03 0.  0.
         25    1    1    2    0    0  0.11448685172E+03 -0.10163916633E+02  0.75431958418E+03  0.77319698621E+03  0.12500000000E+03 0.  0.
         25    1    1    2    0    0 -0.13033357182E+03 -0.19383228965E+02  0.41276076060E+03  0.45095342886E+03  0.12500000000E+03 0.  0.
</event>
<event>
 5    0  0.5852478E-005  0.3568519E+03  0.7546771E-02  0.1059837E+00
         21   -1    0    0  502  501  0.00000000000E+00  0.00000000000E+00  0.57921908343E+03  0.57921908343E+03  0.00000000000E+00 0. -1.
         21   -1    0    0  501  502 -0.00000000000E+00 -0.00000000000E+00 -0.21985338190E+03  0.21985338190E+03  0.00000000000E+00 0.  1.
         25    1    1    2    0    0 -0.23280408394E+02 -0.13033819478E+03  0.17457519957E+03  0.25225289441E+03  0.12500000000E+03 0.  0.
         25    1    1    2    0    0 -0.19171454068E+03 -0.95372916836E+01  0.90864318593E+02  0.24642798022E+03  0.12500000000E+03 0.  0.
         25    1    1    2    0    0  0.21499494908E+03  0.13987548646E+03  0.93926183373E+02  0.30039159070E+03  0.12500000000E+03 0.  0.
</event>
<event>
 5    0  0.5720942E-005  0.4400017E+03  0.7546771E-02  0.1030746E+00
         21   -1    0    0  502  501  0.00000000000E+00  0.00000000000E+00  0.13050756237E+04  0.13050756237E+04  0.00000000000E+00 0.  1.
         21   -1    0    0  501  502 -0.00000000000E+00 -0.00000000000E+00 -0.14834502898E+03  0.14834502898E+03  0.00000000000E+00 0.  1.
         25    1    1    2    0    0 -0.22794117848E+03 -0.11241293439E+03  0.17170823089E+03  0.33121377571E+03  0.12500000000E+03 0.  0.
         25    1    1    2    0    0  0.22511064127E+03 -0.70297527121E+02  0.76436882133E+03  0.80963030956E+03  0.12500000000E+03 0.  0.
         25    1    1    2    0    0  0.28305372050E+01  0.18271046152E+03  0.22065354254E+03  0.31257656746E+03  0.12500000000E+03 0.  0.
</event>
<event>
 5    0  0.5720942E-005  0.5475951E+03  0.7546771E-02  0.1002052E+00
         21   -1    0    0  502  501  0.00000000000E+00  0.00000000000E+00  0.12674453949E+04  0.12674453949E+04  0.00000000000E+00 0.  1.
         21   -1    0    0  501  502 -0.00000000000E+00 -0.00000000000E+00 -0.23658643646E+03  0.23658643646E+03  0.00000000000E+00 0.  1.
         25    1    1    2    0    0 -0.16192420374E+03  0.22083716288E+03  0.25784931294E+03  0.39635813155E+03  0.12500000000E+03 0.  0.
         25    1    1    2    0    0 -0.21548937640E+03  0.47766391238E+02  0.48697297608E+03  0.54907647819E+03  0.12500000000E+03 0.  0.
         25    1    1    2    0    0  0.37741358014E+03 -0.26860355412E+03  0.28603666947E+03  0.55859722166E+03  0.12500000000E+03 0.  0.
</event>
<event>
 5    0  0.5720942E-005  0.4229940E+03  0.7546771E-02  0.1036096E+00
         21   -1    0    0  502  501  0.00000000000E+00  0.00000000000E+00  0.18410162690E+03  0.18410162690E+03  0.00000000000E+00 0.  1.
         21   -1    0    0  501  502 -0.00000000000E+00 -0.00000000000E+00 -0.97187580106E+03  0.97187580106E+03  0.00000000000E+00 0.  1.
         25    1    1    2    0    0  0.95269892678E+02  0.19997658615E+03 -0.17230249339E+03  0.30721350343E+03  0.12500000000E+03 0.  0.
         25    1    1    2    0    0  0.12657796768E+02  0.62568225859E+02 -0.49749982610E+03  0.51691980004E+03  0.12500000000E+03 0.  0.
         25    1    1    2    0    0 -0.10792768945E+03 -0.26254481201E+03 -0.11797185466E+03  0.33184412448E+03  0.12500000000E+03 0.  0.
</event>
<event>
 5    0  0.5720942E-005  0.2691487E+03  0.7546771E-02  0.1101768E+00
         21   -1    0    0  502  501  0.00000000000E+00  0.00000000000E+00  0.25594102685E+03  0.25594102685E+03  0.00000000000E+00 0. -1.
         21   -1    0    0  501  502 -0.00000000000E+00 -0.00000000000E+00 -0.28303804780E+03  0.28303804780E+03  0.00000000000E+00 0. -1.
         25    1    1    2    0    0 -0.55966850261E+02  0.43918442583E+02 -0.32951112983E+01  0.14386443510E+03  0.12500000000E+03 0.  0.
         25    1    1    2    0    0 -0.63104174782E+02 -0.78848605820E+02  0.91187288742E+02  0.18476839866E+03  0.12500000000E+03 0.  0.
         25    1    1    2    0    0  0.11907102504E+03  0.34930163237E+02 -0.11498919840E+03  0.21034624089E+03  0.12500000000E+03 0.  0.
</event>
<event>
 5    0  0.5720942E-005  0.4001544E+03  0.7546771E-02  0.1043726E+00
         21   -1    0    0  502  501  0.00000000000E+00  0.00000000000E+00  0.20501198620E+04  0.20501198620E+04  0.00000000000E+00 0. -1.
         21   -1    0    0  501  502 -0.00000000000E+00 -0.00000000000E+00 -0.78104490570E+02  0.78104490570E+02  0.00000000000E+00 0.  1.
         25    1    1    2    0    0  0.74419944275E+02  0.30167139017E+03  0.84720030736E+03  0.91099797835E+03  0.12500000000E+03 0.  0.
         25    1    1    2    0    0 -0.57937539341E+02 -0.29675409366E+03  0.92237763742E+03  0.97868547378E+03  0.12500000000E+03 0.  0.
         25    1    1    2    0    0 -0.16482404934E+02 -0.49172965160E+01  0.20243742662E+03  0.23854090042E+03  0.12500000000E+03 0.  0.
</event>
<event>
 5    0  0.5720942E-005  0.5313502E+03  0.7546771E-02  0.1005905E+00
         21   -1    0    0  502  501  0.00000000000E+00  0.00000000000E+00  0.69046769470E+03  0.69046769470E+03  0.00000000000E+00 0.  1.
         21   -1    0    0  501  502 -0.00000000000E+00 -0.00000000000E+00 -0.40890110297E+03  0.40890110297E+03  0.00000000000E+00 0. -1.
         25    1    1    2    0    0 -0.42912009955E+03 -0.14198902629E+03  0.51983368200E+02  0.47183918235E+03  0.12500000000E+03 0.  0.
         25    1    1    2    0    0  0.15342927954E+03  0.17438953189E+03  0.34667747121E+02  0.26604342756E+03  0.12500000000E+03 0.  0.
         25    1    1    2    0    0  0.27569082001E+03 -0.32400505599E+02  0.19491547642E+03  0.36148618777E+03  0.12500000000E+03 0.  0.
</event>
<event>
 5    0  0.5720942E-005  0.2655676E+03  0.7546771E-02  0.1103844E+00
         21   -1    0    0  502  501  0.00000000000E+00  0.00000000000E+00  0.31001043279E+03  0.31001043279E+03  0.00000000000E+00 0. -1.
         21   -1    0    0  501  502 -0.00000000000E+00 -0.00000000000E+00 -0.22749605810E+03  0.22749605810E+03  0.00000000000E+00 0. -1.
         25    1    1    2    0    0  0.64482901133E+02 -0.11062779341E+03  0.61793855746E+02  0.18931464238E+03  0.12500000000E+03 0.  0.
         25    1    1    2    0    0 -0.33217521155E+02  0.14700771882E+03 -0.42129120152E+02  0.20028613499E+03  0.12500000000E+03 0.  0.
         25    1    1    2    0    0 -0.31265379978E+02 -0.36379925409E+02  0.62849639093E+02  0.14790571352E+03  0.12500000000E+03 0.  0.
</event>
<event>
 5    0  0.5871929E-005  0.3704607E+03  0.7546771E-02  0.1054517E+00
         21   -1    0    0  502  501  0.00000000000E+00  0.00000000000E+00  0.17718092293E+03  0.17718092293E+03  0.00000000000E+00 0.  1.
         21   -1    0    0  501  502 -0.00000000000E+00 -0.00000000000E+00 -0.77458188752E+03  0.77458188752E+03  0.00000000000E+00 0.  1.
         25    1    1    2    0    0 -0.84566669781E+02 -0.36670451767E+01  0.50118609177E+02  0.15906553317E+03  0.12500000000E+03 0.  0.
         25    1    1    2    0    0  0.76185108012E+02  0.15205769477E+03 -0.15092203466E+03  0.25947673069E+03  0.12500000000E+03 0.  0.
         25    1    1    2    0    0  0.83815617686E+01 -0.14839064959E+03 -0.49659753910E+03  0.53322054659E+03  0.12500000000E+03 0.  0.
</event>
<event>
 5    0  0.5720942E-005  0.2814551E+03  0.7546771E-02  0.1094897E+00
         21   -1    0    0  502  501  0.00000000000E+00  0.00000000000E+00  0.36771027927E+03  0.36771027927E+03  0.00000000000E+00 0. -1.
         21   -1    0    0  501  502 -0.00000000000E+00 -0.00000000000E+00 -0.21543314794E+03  0.21543314794E+03  0.00000000000E+00 0. -1.
         25    1    1    2    0    0 -0.15474951046E+03 -0.25190517402E+02  0.16477109485E+03  0.25953128299E+03  0.12500000000E+03 0.  0.
         25    1    1    2    0    0  0.98474774127E+02  0.20600502401E+02 -0.69774361773E+02  0.17497177887E+03  0.12500000000E+03 0.  0.
         25    1    1    2    0    0  0.56274736333E+02  0.45900150013E+01  0.57280398250E+02  0.14864036535E+03  0.12500000000E+03 0.  0.
</event>
<event>
 5    0  0.5720942E-005  0.2406499E+03  0.7546771E-02  0.1119361E+00
         21   -1    0    0  502  501  0.00000000000E+00  0.00000000000E+00  0.47215804500E+03  0.47215804500E+03  0.00000000000E+00 0.  1.
         21   -1    0    0  501  502 -0.00000000000E+00 -0.00000000000E+00 -0.12265467538E+03  0.12265467538E+03  0.00000000000E+00 0.  1.
         25    1    1    2    0    0 -0.19165826320E+02  0.69838251941E+02  0.44375346303E+02  0.15112538401E+03  0.12500000000E+03 0.  0.
         25    1    1    2    0    0  0.10249654497E+03 -0.34725301597E+02  0.18530225259E+03  0.24834112249E+03  0.12500000000E+03 0.  0.
         25    1    1    2    0    0 -0.83330718649E+02 -0.35112950344E+02  0.11982577072E+03  0.19534621389E+03  0.12500000000E+03 0.  0.
</event>
<event>
 5    0  0.5720942E-005  0.3188091E+03  0.7546771E-02  0.1076199E+00
         21   -1    0    0  502  501  0.00000000000E+00  0.00000000000E+00  0.40795414152E+03  0.40795414152E+03  0.00000000000E+00 0. -1.
         21   -1    0    0  501  502 -0.00000000000E+00 -0.00000000000E+00 -0.24914373571E+03  0.24914373571E+03  0.00000000000E+00 0. -1.
         25    1    1    2    0    0  0.45719635193E+02 -0.66327010255E+02  0.93606605726E+02  0.17571782484E+03  0.12500000000E+03 0.  0.
         25    1    1    2    0    0 -0.11513358029E+03 -0.13305385959E+03  0.91898168637E+02  0.23458334182E+03  0.12500000000E+03 0.  0.
         25    1    1    2    0    0  0.69413945099E+02  0.19938086984E+03 -0.26694368556E+02  0.24679671057E+03  0.12500000000E+03 0.  0.
</event>
<event>
 5    0  0.5720942E-005  0.3557671E+03  0.7546771E-02  0.1060273E+00
         21   -1    0    0  502  501  0.00000000000E+00  0.00000000000E+00  0.47741415678E+03  0.47741415678E+03  0.00000000000E+00 0. -1.
         21   -1    0    0  501  502 -0.00000000000E+00 -0.00000000000E+00 -0.26511614694E+03  0.26511614694E+03  0.00000000000E+00 0. -1.
         25    1    1    2    0    0  0.37923246849E+02 -0.88904018586E+02  0.12740765777E+03  0.20297735941E+03  0.12500000000E+03 0.  0.
         25    1    1    2    0    0  0.17072319785E+03  0.10431981616E+03 -0.75616800545E+02  0.24773359654E+03  0.12500000000E+03 0.  0.
         25    1    1    2    0    0 -0.20864644470E+03 -0.15415797571E+02  0.16050715261E+03  0.29181934778E+03  0.12500000000E+03 0.  0.
</event>
<event>
 5    0  0.5720942E-005  0.2821586E+03  0.7546771E-02  0.1094516E+00
         21   -1    0    0  502  501  0.00000000000E+00  0.00000000000E+00  0.19916446717E+04  0.19916446717E+04  0.00000000000E+00 0.  1.
         21   -1    0    0  501  502 -0.00000000000E+00 -0.00000000000E+00 -0.39973730984E+02  0.39973730984E+02  0.00000000000E+00 0.  1.
         25    1    1    2    0    0  0.29422137640E+02  0.81633110531E+02  0.59323198503E+03  0.61243678448E+03  0.12500000000E+03 0.  0.
         25    1    1    2    0    0 -0.21159280645E+02 -0.19905666525E+03  0.69946312745E+03  0.73820385924E+03  0.12500000000E+03 0.  0.
         25    1    1    2    0    0 -0.82628569949E+01  0.11742355472E+03  0.65897582828E+03  0.68097775901E+03  0.12500000000E+03 0.  0.
</event>
<event>
 5    0  0.5720942E-005  0.3382907E+03  0.7546771E-02  0.1067526E+00
         21   -1    0    0  502  501  0.00000000000E+00  0.00000000000E+00  0.27474331926E+03  0.27474331926E+03  0.00000000000E+00 0. -1.
         21   -1    0    0  501  502 -0.00000000000E+00 -0.00000000000E+00 -0.41653632487E+03  0.41653632487E+03  0.00000000000E+00 0. -1.
         25    1    1    2    0    0  0.24687857675E+02  0.19767694117E+03  0.49890072200E+02  0.24041564568E+03  0.12500000000E+03 0.  0.
         25    1    1    2    0    0  0.39210124065E+02 -0.12129491522E+02  0.23843206602E+02  0.13370885122E+03  0.12500000000E+03 0.  0.
         25    1    1    2    0    0 -0.63897981740E+02 -0.18554744964E+03 -0.21552628441E+03  0.31715514723E+03  0.12500000000E+03 0.  0.
</event>
<event>
 5    0  0.5720942E-005  0.3134059E+03  0.7546771E-02  0.1078725E+00
         21   -1    0    0  502  501  0.00000000000E+00  0.00000000000E+00  0.13530947381E+04  0.13530947381E+04  0.00000000000E+00 0. -1.
         21   -1    0    0  501  502 -0.00000000000E+00 -0.00000000000E+00 -0.72591538452E+02  0.72591538452E+02  0.00000000000E+00 0. -1.
         25    1    1    2    0    0  0.10813267909E+03 -0.11085748782E+03  0.74958093472E+03  0.77555053774E+03  0.12500000000E+03 0.  0.
         25    1    1    2    0    0 -0.68181631464E+02  0.25051665976E+02  0.64951228761E+02  0.15849284828E+03  0.12500000000E+03 0.  0.
         25    1    1    2    0    0 -0.39951047629E+02  0.85805821845E+02  0.46597103620E+03  0.49164289057E+03  0.12500000000E+03 0.  0.
</event>
<event>
 5    0  0.5720942E-005  0.2479309E+03  0.7546771E-02  0.1114619E+00
         21   -1    0    0  502  501  0.00000000000E+00  0.00000000000E+00  0.17662720842E+03  0.17662720842E+03  0.00000000000E+00 0. -1.
         21   -1    0    0  501  502 -0.00000000000E+00 -0.00000000000E+00 -0.34801960851E+03  0.34801960851E+03  0.00000000000E+00 0. -1.
         25    1    1    2    0    0 -0.38235959821E+02  0.54205978135E+02 -0.16774347988E+03  0.21946104833E+03  0.12500000000E+03 0.  0.
         25    1    1    2    0    0  0.28028770782E+02 -0.10059435132E+03  0.33738421447E+02  0.16633735777E+03  0.12500000000E+03 0.  0.
         25    1    1    2    0    0  0.10207189039E+02  0.46388373183E+02 -0.37387341659E+02  0.13884841083E+03  0.12500000000E+03 0.  0.
</event>
<event>
 5    0  0.5720942E-005  0.2892702E+03  0.7546771E-02  0.1090731E+00
         21   -1    0    0  502  501  0.00000000000E+00  0.00000000000E+00  0.16221096876E+04  0.16221096876E+04  0.00000000000E+00 0.  1.
         21   -1    0    0  501  502 -0.00000000000E+00 -0.00000000000E+00 -0.51585431504E+02  0.51585431504E+02  0.00000000000E+00 0.  1.
         25    1    1    2    0    0  0.14570325167E+03  0.14897964663E+03  0.75264889677E+03  0.79090437757E+03  0.12500000000E+03 0.  0.
         25    1    1    2    0    0 -0.37526208507E+02 -0.73123396556E+02  0.33920140162E+03  0.37072609607E+03  0.12500000000E+03 0.  0.
         25    1    1    2    0    0 -0.10817704316E+03 -0.75856250069E+02  0.47867395770E+03  0.51206464545E+03  0.12500000000E+03 0.  0.
</event>
<event>
 5    0  0.5720942E-005  0.4021760E+03  0.7546771E-02  0.1043029E+00
         21   -1    0    0  502  501  0.00000000000E+00  0.00000000000E+00  0.10681688871E+04  0.10681688871E+04  0.00000000000E+00 0. -1.
         21   -1    0    0  501  502 -0.00000000000E+00 -0.00000000000E+00 -0.15142319517E+03  0.15142319517E+03  0.00000000000E+00 0. -1.
         25    1    1    2    0    0 -0.13504585002E+03  0.56864819973E+02  0.59069231642E+03  0.62129976826E+03  0.12500000000E+03 0.  0.
         25    1    1    2    0    0  0.22633851917E+03  0.10198569367E+03  0.20703740256E+03  0.34658288047E+03  0.12500000000E+03 0.  0.
         25    1    1    2    0    0 -0.91292669145E+02 -0.15885051364E+03  0.11901597295E+03  0.25170943356E+03  0.12500000000E+03 0.  0.
</event>
<event>
 5    0  0.5720942E-005  0.4562967E+03  0.7546771E-02  0.1025861E+00
         21   -1    0    0  502  501  0.00000000000E+00  0.00000000000E+00  0.56690162740E+03  0.56690162740E+03  0.00000000000E+00 0. -1.
         21   -1    0    0  501  502 -0.00000000000E+00 -0.00000000000E+00 -0.36727127984E+03  0.36727127984E+03  0.00000000000E+00 0. -1.
         25    1    1    2    0    0  0.10082825310E+03 -0.81943067610E+02  0.75303428770E+02  0.19538835517E+03  0.12500000000E+03 0.  0.
         25    1    1    2    0    0 -0.27813998331E+03 -0.43989488966E+02 -0.17014615794E+03  0.35195403182E+03  0.12500000000E+03 0.  0.
         25    1    1    2    0    0  0.17731173021E+03  0.12593255658E+03  0.29447307673E+03  0.38683052025E+03  0.12500000000E+03 0.  0.
</event>
<event>
 5    0  0.5720942E-005  0.3142939E+03  0.7546771E-02  0.1078306E+00
         21   -1    0    0  502  501  0.00000000000E+00  0.00000000000E+00  0.19734406775E+04  0.19734406775E+04  0.00000000000E+00 0. -1.
         21   -1    0    0  501  502 -0.00000000000E+00 -0.00000000000E+00 -0.50055043682E+02  0.50055043682E+02  0.00000000000E+00 0. -1.
         25    1    1    2    0    0 -0.38061125679E+02 -0.33427814751E+02  0.87969305370E+03  0.88997243599E+03  0.12500000000E+03 0.  0.
         25    1    1    2    0    0 -0.48674085175E+02  0.16473015614E+03  0.73574276859E+03  0.76579867619E+03  0.12500000000E+03 0.  0.
         25    1    1    2    0    0  0.86735210855E+02 -0.13130234139E+03  0.30794981153E+03  0.36772460902E+03  0.12500000000E+03 0.  0.
</event>
<event>
 5    0  0.5720942E-005  0.2131803E+03  0.7546771E-02  0.1139072E+00
         21   -1    0    0  502  501  0.00000000000E+00  0.00000000000E+00  0.20303490784E+03  0.20303490784E+03  0.00000000000E+00 0. -1.
         21   -1    0    0  501  502 -0.00000000000E+00 -0.00000000000E+00 -0.22383259318E+03  0.22383259318E+03  0.00000000000E+00 0. -1.
         25    1    1    2    0    0 -0.52772863789E-01 -0.18007655689E+02 -0.35903200393E+02  0.13129477616E+03  0.12500000000E+03 0.  0.
         25    1    1    2    0    0  0.19611824600E+02 -0.61510117231E+02  0.34578032689E+02  0.14487497552E+03  0.12500000000E+03 0.  0.
         25    1    1    2    0    0 -0.19559051736E+02  0.79517772920E+02 -0.19472517644E+02  0.15069774935E+03  0.12500000000E+03 0.  0.
</event>
<event>
 5    0  0.5720942E-005  0.2680700E+03  0.7546771E-02  0.1102389E+00
         21   -1    0    0  502  501  0.00000000000E+00  0.00000000000E+00  0.15651576966E+03  0.15651576966E+03  0.00000000000E+00 0. -1.
         21   -1    0    0  501  502 -0.00000000000E+00 -0.00000000000E+00 -0.45913267818E+03  0.45913267818E+03  0.00000000000E+00 0. -1.
         25    1    1    2    0    0  0.12998137309E+03  0.32617317779E+02 -0.15493561012E+03  0.23997726987E+03  0.12500000000E+03 0.  0.
         25    1    1    2    0    0 -0.16988780564E+03 -0.88596005371E+01 -0.76696753933E+02  0.22460576816E+03  0.12500000000E+03 0.  0.
         25    1    1    2    0    0  0.39906432545E+02 -0.23757717242E+02 -0.70984544470E+02  0.15106540981E+03  0.12500000000E+03 0.  0.
</event>
<event>
 5    0  0.5720942E-005  0.3502427E+03  0.7546771E-02  0.1062515E+00
         21   -1    0    0  502  501  0.00000000000E+00  0.00000000000E+00  0.54377548486E+03  0.54377548486E+03  0.00000000000E+00 0. -1.
         21   -1    0    0  501  502 -0.00000000000E+00 -0.00000000000E+00 -0.22558934390E+03  0.22558934390E+03  0.00000000000E+00 0. -1.
         25    1    1    2    0    0  0.69134220870E+01  0.81935348848E+02  0.27833807462E+03  0.31600360849E+03  0.12500000000E+03 0.  0.
         25    1    1    2    0    0 -0.16889163740E+03 -0.87436369175E+02  0.86444225383E+02  0.24344836812E+03  0.12500000000E+03 0.  0.
         25    1    1    2    0    0  0.16197821531E+03  0.55010203271E+01 -0.46596159050E+02  0.20991285215E+03  0.12500000000E+03 0.  0.
</event>
<event>
 5    0  0.5720942E-005  0.2967208E+03  0.7546771E-02  0.1086891E+00
         21   -1    0    0  502  501  0.00000000000E+00  0.00000000000E+00  0.19317664032E+03  0.19317664032E+03  0.00000000000E+00 0. -1.
         21   -1    0    0  501  502 -0.00000000000E+00 -0.00000000000E+00 -0.45576543893E+03  0.45576543893E+03  0.00000000000E+00 0. -1.
         25    1    1    2    0    0 -0.86848731851E+02 -0.97968383908E+02  0.55422293673E+02  0.18930699170E+03  0.12500000000E+03 0.  0.
         25    1    1    2    0    0  0.90690687581E+02  0.28101902149E+02 -0.67099256911E+02  0.17070977710E+03  0.12500000000E+03 0.  0.
         25    1    1    2    0    0 -0.38419557306E+01  0.69866481759E+02 -0.25091183537E+03  0.28892531046E+03  0.12500000000E+03 0.  0.
</event>
<event>
 5    0  0.5720942E-005  0.2790488E+03  0.7546771E-02  0.1096210E+00
         21   -1    0    0  502  501  0.00000000000E+00  0.00000000000E+00  0.21584190132E+03  0.21584190132E+03  0.00000000000E+00 0. -1.
         21   -1    0    0  501  502 -0.00000000000E+00 -0.00000000000E+00 -0.36076501088E+03  0.36076501088E+03  0.00000000000E+00 0. -1.
         25    1    1    2    0    0 -0.16253333808E+02 -0.25003970186E+02 -0.18253276003E+02  0.12979811813E+03  0.12500000000E+03 0.  0.
         25    1    1    2    0    0  0.12591093343E+03  0.86516818154E+02  0.42319855926E+02  0.20187791654E+03  0.12500000000E+03 0.  0.
         25    1    1    2    0    0 -0.10965759963E+03 -0.61512847968E+02 -0.16898968948E+03  0.24493087754E+03  0.12500000000E+03 0.  0.
</event>
<event>
 5    0  0.5720942E-005  0.2093967E+03  0.7546771E-02  0.1142045E+00
         21   -1    0    0  502  501  0.00000000000E+00  0.00000000000E+00  0.87903757153E+02  0.87903757153E+02  0.00000000000E+00 0.  1.
         21   -1    0    0  501  502 -0.00000000000E+00 -0.00000000000E+00 -0.49880674517E+03  0.49880674517E+03  0.00000000000E+00 0.  1.
         25    1    1    2    0    0 -0.28297070440E+02  0.51069264793E+02 -0.73990037485E+02  0.15655133231E+03  0.12500000000E+03 0.  0.
         25    1    1    2    0    0  0.50730445317E+02 -0.34758344524E+02 -0.16978554000E+03  0.21962206216E+03  0.12500000000E+03 0.  0.
         25    1    1    2    0    0 -0.22433374876E+02 -0.16310920269E+02 -0.16712741053E+03  0.21053710784E+03  0.12500000000E+03 0.  0.
</event>
<event>
 5    0  0.5720942E-005  0.4337463E+03  0.7546771E-02  0.1032683E+00
         21   -1    0    0  502  501  0.00000000000E+00  0.00000000000E+00  0.40027215714E+03  0.40027215714E+03  0.00000000000E+00 0. -1.
         21   -1    0    0  501  502 -0.00000000000E+00 -0.00000000000E+00 -0.47001986281E+03  0.47001986281E+03  0.00000000000E+00 0. -1.
         25    1    1    2    0    0 -0.16772114437E+03  0.88152825244E+02  0.28210405772E+02  0.22874031097E+03  0.12500000000E+03 0.  0.
         25    1    1    2    0    0  0.14809507746E+03 -0.29055272336E+03  0.61315876547E+02  0.35459508419E+03  0.12500000000E+03 0.  0.
         25    1    1    2    0    0  0.19626066907E+02  0.20239989811E+03 -0.15927398799E+03  0.28695662478E+03  0.12500000000E+03 0.  0.
</event>
<event>
 5    0  0.5720942E-005  0.2794931E+03  0.7546771E-02  0.1095966E+00
         21   -1    0    0  502  501  0.00000000000E+00  0.00000000000E+00  0.14284735244E+03  0.14284735244E+03  0.00000000000E+00 0. -1.
         21   -1    0    0  501  502 -0.00000000000E+00 -0.00000000000E+00 -0.54685212431E+03  0.54685212431E+03  0.00000000000E+00 0. -1.
         25    1    1    2    0    0 -0.56661689997E+02  0.14186129045E+03 -0.10121789801E+03  0.22182253203E+03  0.12500000000E+03 0.  0.
         25    1    1    2    0    0  0.31493490969E+02  0.27035285924E+02 -0.56937804771E+02  0.14349097627E+03  0.12500000000E+03 0.  0.
         25    1    1    2    0    0  0.25168199028E+02 -0.16889657637E+03 -0.24584906910E+03  0.32438596845E+03  0.12500000000E+03 0.  0.
</event>
<event>
 5    0  0.5720942E-005  0.2888228E+03  0.7546771E-02  0.1090965E+00
         21   -1    0    0  502  501  0.00000000000E+00  0.00000000000E+00  0.19865237705E+03  0.19865237705E+03  0.00000000000E+00 0. -1.
         21   -1    0    0  501  502 -0.00000000000E+00 -0.00000000000E+00 -0.41992264215E+03  0.41992264215E+03  0.00000000000E+00 0. -1.
         25    1    1    2    0    0  0.15468813314E+03 -0.40983223830E+02 -0.24536841384E+03  0.31849442959E+03  0.12500000000E+03 0.  0.
         25    1    1    2    0    0 -0.81254420031E+02  0.25661257584E+02  0.29799642801E+02  0.15418754692E+03  0.12500000000E+03 0.  0.
         25    1    1    2    0    0 -0.73433713107E+02  0.15321966246E+02 -0.57014940711E+01  0.14589304269E+03  0.12500000000E+03 0.  0.
</event>
<event>
 5    0  0.5720942E-005  0.2079286E+03  0.7546771E-02  0.1143217E+00
         21   -1    0    0  502  501  0.00000000000E+00  0.00000000000E+00  0.15515612242E+03  0.15515612242E+03  0.00000000000E+00 0.  1.
         21   -1    0    0  501  502 -0.00000000000E+00 -0.00000000000E+00 -0.27865026835E+03  0.27865026835E+03  0.00000000000E+00 0.  1.
         25    1    1    2    0    0  0.40634813543E+02  0.15413914240E+02 -0.17108769590E+02  0.13344094882E+03  0.12500000000E+03 0.  0.
         25    1    1    2    0    0 -0.65913859958E+02 -0.45484010438E+02 -0.71492380400E+02  0.16477133426E+03  0.12500000000E+03 0.  0.
         25    1    1    2    0    0  0.25279046415E+02  0.30070096198E+02 -0.34892995937E+02  0.13559410768E+03  0.12500000000E+03 0.  0.
</event>
<event>
 5    0  0.6939188E-005  0.2823073E+03  0.7546771E-02  0.1094435E+00
         21   -1    0    0  502  501  0.00000000000E+00  0.00000000000E+00  0.55421339305E+03  0.55421339305E+03  0.00000000000E+00 0.  1.
         21   -1    0    0  501  502 -0.00000000000E+00 -0.00000000000E+00 -0.14380272744E+03  0.14380272744E+03  0.00000000000E+00 0.  1.
         25    1    1    2    0    0  0.11891932206E+03  0.76778589807E+02  0.13474990849E+03  0.23198985937E+03  0.12500000000E+03 0.  0.
         25    1    1    2    0    0 -0.34773989168E+02  0.71659465840E+02  0.18194818728E+03  0.23467946698E+03  0.12500000000E+03 0.  0.
         25    1    1    2    0    0 -0.84145332895E+02 -0.14843805565E+03  0.93712569845E+02  0.23134679414E+03  0.12500000000E+03 0.  0.
</event>
<event>
 5    0  0.6210145E-005  0.2963831E+03  0.7546771E-02  0.1087063E+00
         21   -1    0    0  502  501  0.00000000000E+00  0.00000000000E+00  0.47779896917E+03  0.47779896917E+03  0.00000000000E+00 0.  1.
         21   -1    0    0  501  502 -0.00000000000E+00 -0.00000000000E+00 -0.18384915075E+03  0.18384915075E+03  0.00000000000E+00 0.  1.
         25    1    1    2    0    0 -0.12316508746E+03  0.36180305888E+02 -0.12523073144E+02  0.17961202817E+03  0.12500000000E+03 0.  0.
         25    1    1    2    0    0  0.11349155292E+03 -0.39022437774E+02  0.26553248718E+02  0.17530875121E+03  0.12500000000E+03 0.  0.
         25    1    1    2    0    0  0.96735345471E+01  0.28421318858E+01  0.27991964284E+03  0.30672734054E+03  0.12500000000E+03 0.  0.
</event>
<event>
 5    0  0.5720942E-005  0.2718058E+03  0.7546771E-02  0.1100251E+00
         21   -1    0    0  502  501  0.00000000000E+00  0.00000000000E+00  0.21034306260E+04  0.21034306260E+04  0.00000000000E+00 0. -1.
         21   -1    0    0  501  502 -0.00000000000E+00 -0.00000000000E+00 -0.35122821768E+02  0.35122821768E+02  0.00000000000E+00 0. -1.
         25    1    1    2    0    0 -0.62958508139E+02  0.31822294685E+02  0.32446579820E+03  0.35479499205E+03  0.12500000000E+03 0.  0.
         25    1    1    2    0    0  0.45713927571E+02 -0.35701791931E+01  0.24075002816E+03  0.27511467684E+03  0.12500000000E+03 0.  0.
         25    1    1    2    0    0  0.17244580568E+02 -0.28252115492E+02  0.15030919779E+04  0.15086437789E+04  0.12500000000E+03 0.  0.
</event>
<event>
 5    0  0.5720942E-005  0.3181099E+03  0.7546771E-02  0.1076523E+00
         21   -1    0    0  502  501  0.00000000000E+00  0.00000000000E+00  0.61135404239E+02  0.61135404239E+02  0.00000000000E+00 0. -1.
         21   -1    0    0  501  502 -0.00000000000E+00 -0.00000000000E+00 -0.16552419286E+04  0.16552419286E+04  0.00000000000E+00 0. -1.
         25    1    1    2    0    0 -0.10454747462E+03  0.10080150327E+03 -0.26207331667E+03  0.32465141432E+03  0.12500000000E+03 0.  0.
         25    1    1    2    0    0  0.10289609456E+03  0.54589340035E+02 -0.89740760869E+03  0.91352778746E+03  0.12500000000E+03 0.  0.
         25    1    1    2    0    0  0.16513800542E+01 -0.15539084331E+03 -0.43462559896E+03  0.47819813102E+03  0.12500000000E+03 0.  0.
</event>
<event>
 5    0  0.5720942E-005  0.2267977E+03  0.7546771E-02  0.1128914E+00
         21   -1    0    0  502  501  0.00000000000E+00  0.00000000000E+00  0.10896336921E+04  0.10896336921E+04  0.00000000000E+00 0. -1.
         21   -1    0    0  501  502 -0.00000000000E+00 -0.00000000000E+00 -0.47205936698E+02  0.47205936698E+02  0.00000000000E+00 0. -1.
         25    1    1    2    0    0  0.42688245914E+02 -0.19976163046E+02  0.14268081382E+03  0.19545881424E+03  0.12500000000E+03 0.  0.
         25    1    1    2    0    0 -0.29193116115E+02  0.15368707972E+02  0.63801404341E+03  0.65098030293E+03  0.12500000000E+03 0.  0.
         25    1    1    2    0    0 -0.13495129799E+02  0.46074550735E+01  0.26173289814E+03  0.29040051160E+03  0.12500000000E+03 0.  0.
</event>
<event>
 5    0  0.5720942E-005  0.2505621E+03  0.7546771E-02  0.1112950E+00
         21   -1    0    0  502  501  0.00000000000E+00  0.00000000000E+00  0.49471554119E+03  0.49471554119E+03  0.00000000000E+00 0.  1.
         21   -1    0    0  501  502 -0.00000000000E+00 -0.00000000000E+00 -0.12690393240E+03  0.12690393240E+03  0.00000000000E+00 0.  1.
         25    1    1    2    0    0  0.40172414188E+02 -0.80916535432E+02  0.12049035342E+03  0.19571467456E+03  0.12500000000E+03 0.  0.
         25    1    1    2    0    0  0.57122216740E+02  0.83972009039E+02  0.41774951008E+02  0.16638627491E+03  0.12500000000E+03 0.  0.
         25    1    1    2    0    0 -0.97294630928E+02 -0.30554736067E+01  0.20554630436E+03  0.25951852412E+03  0.12500000000E+03 0.  0.
</event>
<event>
 5    0  0.5720942E-005  0.4351933E+03  0.7546771E-02  0.1032232E+00
         21   -1    0    0  502  501  0.00000000000E+00  0.00000000000E+00  0.87744608213E+02  0.87744608213E+02  0.00000000000E+00 0. -1.
         21   -1    0    0  501  502 -0.00000000000E+00 -0.00000000000E+00 -0.21584602142E+04  0.21584602142E+04  0.00000000000E+00 0. -1.
         25    1    1    2    0    0 -0.14119268538E+03  0.22164515117E+02 -0.24711138734E+03  0.31163388438E+03  0.12500000000E+03 0.  0.
         25    1    1    2    0    0  0.20023444228E+03 -0.20917204347E+03 -0.15186865179E+04  0.15510901054E+04  0.12500000000E+03 0.  0.
         25    1    1    2    0    0 -0.59041756894E+02  0.18700752835E+03 -0.30491770073E+03  0.38348083256E+03  0.12500000000E+03 0.  0.
</event>
<event>
 5    0  0.5720942E-005  0.2606546E+03  0.7546771E-02  0.1106751E+00
         21   -1    0    0  502  501  0.00000000000E+00  0.00000000000E+00  0.58504211112E+03  0.58504211112E+03  0.00000000000E+00 0.  1.
         21   -1    0    0  501  502 -0.00000000000E+00 -0.00000000000E+00 -0.11612983537E+03  0.11612983537E+03  0.00000000000E+00 0.  1.
         25    1    1    2    0    0  0.76283814608E+02  0.13069212305E+03  0.24837288907E+03  0.31656554365E+03  0.12500000000E+03 0.  0.
         25    1    1    2    0    0 -0.49476287730E+01 -0.80743491330E+02  0.16551416021E+03  0.22262957497E+03  0.12500000000E+03 0.  0.
         25    1    1    2    0    0 -0.71336185835E+02 -0.49948631716E+02  0.55025226476E+02  0.16197682788E+03  0.12500000000E+03 0.  0.
</event>
<event>
 5    0  0.5788586E-005  0.3456968E+03  0.7546771E-02  0.1064395E+00
         21   -1    0    0  502  501  0.00000000000E+00  0.00000000000E+00  0.36770324618E+03  0.36770324618E+03  0.00000000000E+00 0. -1.
         21   -1    0    0  501  502 -0.00000000000E+00 -0.00000000000E+00 -0.32500745420E+03  0.32500745420E+03  0.00000000000E+00 0. -1.
         25    1    1    2    0    0 -0.95672891095E+02  0.51003626292E+02  0.87594490811E+02  0.18722304026E+03  0.12500000000E+03 0.  0.
         25    1    1    2    0    0  0.11262398966E+03 -0.11150841512E+03 -0.20851664032E+03  0.29021109383E+03  0.12500000000E+03 0.  0.
         25    1    1    2    0    0 -0.16951098569E+02  0.60504788830E+02  0.16361794149E+03  0.21527656629E+03  0.12500000000E+03 0.  0.
</event>
<event>
 5    0  0.5720942E-005  0.2927509E+03  0.7546771E-02  0.1088922E+00
         21   -1    0    0  502  501  0.00000000000E+00  0.00000000000E+00  0.74929753852E+03  0.74929753852E+03  0.00000000000E+00 0. -1.
         21   -1    0    0  501  502 -0.00000000000E+00 -0.00000000000E+00 -0.11437788996E+03  0.11437788996E+03  0.00000000000E+00 0. -1.
         25    1    1    2    0    0  0.85865775250E+01 -0.14800971472E+03  0.44836624927E+02  0.19903750375E+03  0.12500000000E+03 0.  0.
         25    1    1    2    0    0  0.40503927704E+02  0.84438110211E+02  0.33026775939E+03  0.36533841231E+03  0.12500000000E+03 0.  0.
         25    1    1    2    0    0 -0.49090505229E+02  0.63571604506E+02  0.25981526424E+03  0.29929951242E+03  0.12500000000E+03 0.  0.
</event>
<event>
 5    0  0.5720942E-005  0.2844192E+03  0.7546771E-02  0.1093299E+00
         21   -1    0    0  502  501  0.00000000000E+00  0.00000000000E+00  0.14932061115E+03  0.14932061115E+03  0.00000000000E+00 0. -1.
         21   -1    0    0  501  502 -0.00000000000E+00 -0.00000000000E+00 -0.54174909665E+03  0.54174909665E+03  0.00000000000E+00 0. -1.
         25    1    1    2    0    0 -0.42272210845E+02  0.56535698482E+02  0.10366884107E+02  0.14392948725E+03  0.12500000000E+03 0.  0.
         25    1    1    2    0    0  0.15386053792E+03 -0.25511053491E+02 -0.21970543000E+03  0.29701743207E+03  0.12500000000E+03 0.  0.
         25    1    1    2    0    0 -0.11158832708E+03 -0.31024644991E+02 -0.18308993960E+03  0.25012278848E+03  0.12500000000E+03 0.  0.
</event>
<event>
 5    0  0.5720942E-005  0.3318627E+03  0.7546771E-02  0.1070316E+00
         21   -1    0    0  502  501  0.00000000000E+00  0.00000000000E+00  0.51733894539E+03  0.51733894539E+03  0.00000000000E+00 0. -1.
         21   -1    0    0  501  502 -0.00000000000E+00 -0.00000000000E+00 -0.21288331800E+03  0.21288331800E+03  0.00000000000E+00 0. -1.
         25    1    1    2    0    0 -0.55363986591E+02 -0.98816712648E+02  0.35723476555E+03  0.39505897209E+03  0.12500000000E+03 0.  0.
         25    1    1    2    0    0  0.93372603357E+01  0.41586110886E+01  0.57552150384E+02  0.13799176965E+03  0.12500000000E+03 0.  0.
         25    1    1    2    0    0  0.46026726255E+02  0.94658101560E+02 -0.11033128854E+03  0.19717152166E+03  0.12500000000E+03 0.  0.
</event>
<event>
 5    0  0.5720942E-005  0.3329867E+03  0.7546771E-02  0.1069823E+00
         21   -1    0    0  502  501  0.00000000000E+00  0.00000000000E+00  0.65507502644E+03  0.65507502644E+03  0.00000000000E+00 0. -1.
         21   -1    0    0  501  502 -0.00000000000E+00 -0.00000000000E+00 -0.16926330146E+03  0.16926330146E+03  0.00000000000E+00 0. -1.
         25    1    1    2    0    0  0.14278536893E+03  0.10841629498E+03  0.10573158500E+03  0.24278781408E+03  0.12500000000E+03 0.  0.
         25    1    1    2    0    0  0.18564556513E+02 -0.17509626267E+02  0.32826807693E+03  0.35218767739E+03  0.12500000000E+03 0.  0.
         25    1    1    2    0    0 -0.16134992545E+03 -0.90906668708E+02  0.51812063046E+02  0.22936283643E+03  0.12500000000E+03 0.  0.
</event>
<event>
 5    0  0.6432347E-005  0.3557714E+03  0.7546771E-02  0.1060271E+00
         21   -1    0    0  502  501  0.00000000000E+00  0.00000000000E+00  0.73375652879E+03  0.73375652879E+03  0.00000000000E+00 0. -1.
         21   -1    0    0  501  502 -0.00000000000E+00 -0.00000000000E+00 -0.17250035332E+03  0.17250035332E+03  0.00000000000E+00 0. -1.
         25    1    1    2    0    0  0.16420281979E+03  0.24772197462E+02  0.43557410202E+03  0.48262410440E+03  0.12500000000E+03 0.  0.
         25    1    1    2    0    0  0.47045526102E+02  0.12051565861E+02 -0.20373301111E+02  0.13564141390E+03  0.12500000000E+03 0.  0.
         25    1    1    2    0    0 -0.21124834590E+03 -0.36823763323E+02  0.14605537456E+03  0.28799136381E+03  0.12500000000E+03 0.  0.
</event>
<event>
 5    0  0.5720942E-005  0.2851526E+03  0.7546771E-02  0.1092908E+00
         21   -1    0    0  502  501  0.00000000000E+00  0.00000000000E+00  0.54367926059E+03  0.54367926059E+03  0.00000000000E+00 0. -1.
         21   -1    0    0  501  502 -0.00000000000E+00 -0.00000000000E+00 -0.14955874425E+03  0.14955874425E+03  0.00000000000E+00 0. -1.
         25    1    1    2    0    0 -0.40298554350E+02 -0.70589641301E+01 -0.37257614138E+02  0.13670015460E+03  0.12500000000E+03 0.  0.
         25    1    1    2    0    0 -0.10098935075E+03  0.53303963754E+01  0.22964791297E+03  0.28033984023E+03  0.12500000000E+03 0.  0.
         25    1    1    2    0    0  0.14128790510E+03  0.17285677546E+01  0.20173021751E+03  0.27619801001E+03  0.12500000000E+03 0.  0.
</event>
<event>
 5    0  0.5720942E-005  0.2219343E+03  0.7546771E-02  0.1132449E+00
         21   -1    0    0  502  501  0.00000000000E+00  0.00000000000E+00  0.10535502303E+03  0.10535502303E+03  0.00000000000E+00 0.  1.
         21   -1    0    0  501  502 -0.00000000000E+00 -0.00000000000E+00 -0.46751293302E+03  0.46751293302E+03  0.00000000000E+00 0.  1.
         25    1    1    2    0    0 -0.56699068101E+02  0.27494899026E+02 -0.37542009684E+02  0.14493155725E+03  0.12500000000E+03 0.  0.
         25    1    1    2    0    0  0.40313059782E+02  0.32258696742E+02 -0.19635605495E+03  0.23842497063E+03  0.12500000000E+03 0.  0.
         25    1    1    2    0    0  0.16386008319E+02 -0.59753595767E+02 -0.12825984535E+03  0.18951142817E+03  0.12500000000E+03 0.  0.
</event>
<event>
 5    0  0.5720942E-005  0.2587178E+03  0.7546771E-02  0.1107916E+00
         21   -1    0    0  502  501  0.00000000000E+00  0.00000000000E+00  0.14712574680E+03  0.14712574680E+03  0.00000000000E+00 0. -1.
         21   -1    0    0  501  502 -0.00000000000E+00 -0.00000000000E+00 -0.45495042802E+03  0.45495042802E+03  0.00000000000E+00 0. -1.
         25    1    1    2    0    0  0.45312706751E+02  0.87723531371E+02 -0.99347150844E+02  0.18773256438E+03  0.12500000000E+03 0.  0.
         25    1    1    2    0    0  0.37665533775E+02  0.20128268913E+01 -0.20059257389E+03  0.23934311063E+03  0.12500000000E+03 0.  0.
         25    1    1    2    0    0 -0.82978240525E+02 -0.89736358262E+02 -0.78849564887E+01  0.17500049981E+03  0.12500000000E+03 0.  0.
</event>
<event>
 5    0  0.5720942E-005  0.2580988E+03  0.7546771E-02  0.1108291E+00
         21   -1    0    0  502  501  0.00000000000E+00  0.00000000000E+00  0.34092511603E+02  0.34092511603E+02  0.00000000000E+00 0. -1.
         21   -1    0    0  501  502 -0.00000000000E+00 -0.00000000000E+00 -0.19539477317E+04  0.19539477317E+04  0.00000000000E+00 0. -1.
         25    1    1    2    0    0  0.13053650431E+02 -0.15415505233E+01 -0.56901597937E+03  0.58273232187E+03  0.12500000000E+03 0.  0.
         25    1    1    2    0    0 -0.12830089681E+03  0.76798156322E+02 -0.56136718532E+03  0.59423664788E+03  0.12500000000E+03 0.  0.
         25    1    1    2    0    0  0.11524724638E+03 -0.75256605799E+02 -0.78947205543E+03  0.81107127358E+03  0.12500000000E+03 0.  0.
</event>
<event>
 5    0  0.5720942E-005  0.4778886E+03  0.7546771E-02  0.1019717E+00
         21   -1    0    0  502  501  0.00000000000E+00  0.00000000000E+00  0.12982460976E+03  0.12982460976E+03  0.00000000000E+00 0. -1.
         21   -1    0    0  501  502 -0.00000000000E+00 -0.00000000000E+00 -0.17591235732E+04  0.17591235732E+04  0.00000000000E+00 0. -1.
         25    1    1    2    0    0  0.11070970748E+03 -0.19744042968E+03 -0.45615723723E+03  0.52435082500E+03  0.12500000000E+03 0.  0.
         25    1    1    2    0    0 -0.11185939877E+03  0.26390535883E+03 -0.17877006867E+03  0.36019758601E+03  0.12500000000E+03 0.  0.
         25    1    1    2    0    0  0.11496912962E+01 -0.66464929145E+02 -0.99437165752E+03  0.10043997719E+04  0.12500000000E+03 0.  0.
</event>
<event>
 5    0  0.5720942E-005  0.2758054E+03  0.7546771E-02  0.1098002E+00
         21   -1    0    0  502  501  0.00000000000E+00  0.00000000000E+00  0.53590635334E+03  0.53590635334E+03  0.00000000000E+00 0.  1.
         21   -1    0    0  501  502 -0.00000000000E+00 -0.00000000000E+00 -0.14194382279E+03  0.14194382279E+03  0.00000000000E+00 0.  1.
         25    1    1    2    0    0 -0.56074036277E+01  0.96171544248E+02  0.14990663067E+03  0.21766351742E+03  0.12500000000E+03 0.  0.
         25    1    1    2    0    0  0.69117418078E+02  0.72881398937E+02  0.15551673007E+03  0.22338166694E+03  0.12500000000E+03 0.  0.
         25    1    1    2    0    0 -0.63510014450E+02 -0.16905294318E+03  0.88539169810E+02  0.23680499177E+03  0.12500000000E+03 0.  0.
</event>
<event>
 5    0  0.5720942E-005  0.6706717E+03  0.7546771E-02  0.9768745E-01
         21   -1    0    0  502  501  0.00000000000E+00  0.00000000000E+00  0.13320818866E+04  0.13320818866E+04  0.00000000000E+00 0.  1.
         21   -1    0    0  501  502 -0.00000000000E+00 -0.00000000000E+00 -0.33766735326E+03  0.33766735326E+03  0.00000000000E+00 0.  1.
         25    1    1    2    0    0 -0.29958853515E+02 -0.73002415368E+02 -0.21031937053E+02  0.14931251766E+03  0.12500000000E+03 0.  0.
         25    1    1    2    0    0 -0.16226369044E+03 -0.48588219495E+03  0.48926841700E+03  0.71931884202E+03  0.12500000000E+03 0.  0.
         25    1    1    2    0    0  0.19222254395E+03  0.55888461032E+03  0.52617805334E+03  0.80111788014E+03  0.12500000000E+03 0.  0.
</event>
<event>
 5    0  0.5720942E-005  0.3678917E+03  0.7546771E-02  0.1055502E+00
         21   -1    0    0  502  501  0.00000000000E+00  0.00000000000E+00  0.12473357661E+04  0.12473357661E+04  0.00000000000E+00 0. -1.
         21   -1    0    0  501  502 -0.00000000000E+00 -0.00000000000E+00 -0.10850670336E+03  0.10850670336E+03  0.00000000000E+00 0. -1.
         25    1    1    2    0    0 -0.25752315675E+03 -0.36921010318E+02  0.77137398197E+03  0.82360436942E+03  0.12500000000E+03 0.  0.
         25    1    1    2    0    0  0.15283036621E+03  0.43478456289E+02  0.28495035450E+03  0.34938403158E+03  0.12500000000E+03 0.  0.
         25    1    1    2    0    0  0.10469279053E+03 -0.65574459702E+01  0.82504726231E+02  0.18285406842E+03  0.12500000000E+03 0.  0.
</event>
<event>
 5    0  0.5720942E-005  0.3008630E+03  0.7546771E-02  0.1084810E+00
         21   -1    0    0  502  501  0.00000000000E+00  0.00000000000E+00  0.21422141427E+03  0.21422141427E+03  0.00000000000E+00 0.  1.
         21   -1    0    0  501  502 -0.00000000000E+00 -0.00000000000E+00 -0.42254680705E+03  0.42254680705E+03  0.00000000000E+00 0.  1.
         25    1    1    2    0    0  0.49252889799E+02  0.43831190607E+02 -0.18062798299E+03  0.22934360393E+03  0.12500000000E+03 0.  0.
         25    1    1    2    0    0  0.11201498017E+03 -0.85333570744E+02  0.31603673445E+02  0.19092659912E+03  0.12500000000E+03 0.  0.
         25    1    1    2    0    0 -0.16126786997E+03  0.41502380137E+02 -0.59301083237E+02  0.21649801827E+03  0.12500000000E+03 0.  0.
</event>
<event>
 5    0  0.5720942E-005  0.3053563E+03  0.7546771E-02  0.1082593E+00
         21   -1    0    0  502  501  0.00000000000E+00  0.00000000000E+00  0.31505739000E+04  0.31505739000E+04  0.00000000000E+00 0. -1.
         21   -1    0    0  501  502 -0.00000000000E+00 -0.00000000000E+00 -0.29595387069E+02  0.29595387069E+02  0.00000000000E+00 0. -1.
         25    1    1    2    0    0 -0.14827000532E+03 -0.32084684699E+02  0.13904821124E+04  0.14043072763E+04  0.12500000000E+03 0.  0.
         25    1    1    2    0    0  0.11616086900E+03 -0.13321670666E+02  0.14848813502E+04  0.14947134971E+04  0.12500000000E+03 0.  0.
         25    1    1    2    0    0  0.32109136316E+02  0.45406355366E+02  0.24561505038E+03  0.28114851363E+03  0.12500000000E+03 0.  0.
</event>
<event>
 5    0  0.5720942E-005  0.3854168E+03  0.7546771E-02  0.1048950E+00
         21   -1    0    0  502  501  0.00000000000E+00  0.00000000000E+00  0.20162136868E+04  0.20162136868E+04  0.00000000000E+00 0.  1.
         21   -1    0    0  501  502 -0.00000000000E+00 -0.00000000000E+00 -0.73675784871E+02  0.73675784871E+02  0.00000000000E+00 0.  1.
         25    1    1    2    0    0  0.61513204838E+01 -0.94054651851E+02  0.10009735668E+03  0.18581872105E+03  0.12500000000E+03 0.  0.
         25    1    1    2    0    0 -0.17164059506E+03  0.13145111346E+03  0.72160012621E+03  0.76359127238E+03  0.12500000000E+03 0.  0.
         25    1    1    2    0    0  0.16548927458E+03 -0.37396461608E+02  0.11208404191E+04  0.11404794783E+04  0.12500000000E+03 0.  0.
</event>
<event>
 5    0  0.5720942E-005  0.2780224E+03  0.7546771E-02  0.1096774E+00
         21   -1    0    0  502  501  0.00000000000E+00  0.00000000000E+00  0.62881898295E+03  0.62881898295E+03  0.00000000000E+00 0. -1.
         21   -1    0    0  501  502 -0.00000000000E+00 -0.00000000000E+00 -0.12292321611E+03  0.12292321611E+03  0.00000000000E+00 0. -1.
         25    1    1    2    0    0  0.10116607675E+03 -0.11274859309E+03  0.29794009357E+03  0.35684747398E+03  0.12500000000E+03 0.  0.
         25    1    1    2    0    0 -0.12957394339E+03  0.10232928687E+03  0.12735681272E+03  0.24311611938E+03  0.12500000000E+03 0.  0.
         25    1    1    2    0    0  0.28407866635E+02  0.10419306218E+02  0.80598860548E+02  0.15177860571E+03  0.12500000000E+03 0.  0.
</event>
<event>
 5    0  0.5720942E-005  0.2669068E+03  0.7546771E-02  0.1103063E+00
         21   -1    0    0  502  501  0.00000000000E+00  0.00000000000E+00  0.93141198638E+02  0.93141198638E+02  0.00000000000E+00 0. -1.
         21   -1    0    0  501  502 -0.00000000000E+00 -0.00000000000E+00 -0.76485220346E+03  0.76485220346E+03  0.00000000000E+00 0. -1.
         25    1    1    2    0    0 -0.14163076926E+03 -0.12597022013E+02 -0.34592106988E+03  0.39434039401E+03  0.12500000000E+03 0.  0.
         25    1    1    2    0    0  0.57220866826E+02  0.19263043297E+02 -0.26832760785E+03  0.30210924774E+03  0.12500000000E+03 0.  0.
         25    1    1    2    0    0  0.84409902436E+02 -0.66660212833E+01 -0.57462327088E+02  0.16154376034E+03  0.12500000000E+03 0.  0.
</event>
<event>
 5    0  0.5720942E-005  0.2951223E+03  0.7546771E-02  0.1087705E+00
         21   -1    0    0  502  501  0.00000000000E+00  0.00000000000E+00  0.33823940295E+03  0.33823940295E+03  0.00000000000E+00 0.  1.
         21   -1    0    0  501  502 -0.00000000000E+00 -0.00000000000E+00 -0.25750156140E+03  0.25750156140E+03  0.00000000000E+00 0.  1.
         25    1    1    2    0    0  0.10100101711E+03 -0.55980808327E+02  0.13765591601E+03  0.21888172050E+03  0.12500000000E+03 0.  0.
         25    1    1    2    0    0 -0.12155049981E+03 -0.69416779290E+02  0.61995726559E+01  0.18776753700E+03  0.12500000000E+03 0.  0.
         25    1    1    2    0    0  0.20549482704E+02  0.12539758762E+03 -0.63117647112E+02  0.18909170684E+03  0.12500000000E+03 0.  0.
</event>
<event>
 5    0  0.5720942E-005  0.3663394E+03  0.7546771E-02  0.1056102E+00
         21   -1    0    0  502  501  0.00000000000E+00  0.00000000000E+00  0.42805350289E+03  0.42805350289E+03  0.00000000000E+00 0. -1.
         21   -1    0    0  501  502 -0.00000000000E+00 -0.00000000000E+00 -0.31352277661E+03  0.31352277661E+03  0.00000000000E+00 0. -1.
         25    1    1    2    0    0 -0.56101714896E+02 -0.75659336083E+02  0.14430032842E+02  0.15717812634E+03  0.12500000000E+03 0.  0.
         25    1    1    2    0    0 -0.17968089635E+03 -0.93014095142E+02 -0.36128428285E+02  0.24055583497E+03  0.12500000000E+03 0.  0.
         25    1    1    2    0    0  0.23578261125E+03  0.16867343122E+03  0.13622912172E+03  0.34384231818E+03  0.12500000000E+03 0.  0.
</event>
<event>
 5    0  0.5720942E-005  0.3422690E+03  0.7546771E-02  0.1065834E+00
         21   -1    0    0  502  501  0.00000000000E+00  0.00000000000E+00  0.12422388273E+03  0.12422388273E+03  0.00000000000E+00 0. -1.
         21   -1    0    0  501  502 -0.00000000000E+00 -0.00000000000E+00 -0.94303997698E+03  0.94303997698E+03  0.00000000000E+00 0. -1.
         25    1    1    2    0    0  0.11370285641E+03  0.15639730643E+03 -0.25311997960E+03  0.34217419699E+03  0.12500000000E+03 0.  0.
         25    1    1    2    0    0 -0.21362124670E+03 -0.15765417135E+03 -0.35856358270E+03  0.46333758495E+03  0.12500000000E+03 0.  0.
         25    1    1    2    0    0  0.99918390285E+02  0.12568649189E+01 -0.20713253195E+03  0.26175207777E+03  0.12500000000E+03 0.  0.
</event>
<event>
 5    0  0.5720942E-005  0.6379133E+03  0.7546771E-02  0.9829727E-01
         21   -1    0    0  502  501  0.00000000000E+00  0.00000000000E+00  0.98959860419E+03  0.98959860419E+03  0.00000000000E+00 0.  1.
         21   -1    0    0  501  502 -0.00000000000E+00 -0.00000000000E+00 -0.41121053114E+03  0.41121053114E+03  0.00000000000E+00 0.  1.
         25    1    1    2    0    0 -0.27993957886E+03  0.11354253811E+03 -0.19621347623E+03  0.38129097029E+03  0.12500000000E+03 0.  0.
         25    1    1    2    0    0  0.33077337120E+03 -0.26415670519E+03  0.63679679077E+03  0.77480638919E+03  0.12500000000E+03 0.  0.
         25    1    1    2    0    0 -0.50833792339E+02  0.15061416708E+03  0.13780475851E+03  0.24471177584E+03  0.12500000000E+03 0.  0.
</event>
<event>
 5    0  0.5720942E-005  0.3106256E+03  0.7546771E-02  0.1080046E+00
         21   -1    0    0  502  501  0.00000000000E+00  0.00000000000E+00  0.49530133055E+02  0.49530133055E+02  0.00000000000E+00 0. -1.
         21   -1    0    0  501  502 -0.00000000000E+00 -0.00000000000E+00 -0.19480717896E+04  0.19480717896E+04  0.00000000000E+00 0. -1.
         25    1    1    2    0    0 -0.90905858381E+02  0.78715832643E+02 -0.71789447717E+03  0.73855097166E+03  0.12500000000E+03 0.  0.
         25    1    1    2    0    0 -0.67925036640E+02 -0.37046962548E+01 -0.86609247428E+03  0.87770650526E+03  0.12500000000E+03 0.  0.
         25    1    1    2    0    0  0.15883089502E+03 -0.75011136388E+02 -0.31455470515E+03  0.38134444578E+03  0.12500000000E+03 0.  0.
</event>
<event>
 5    0  0.5720942E-005  0.4373977E+03  0.7546771E-02  0.1031548E+00
         21   -1    0    0  502  501  0.00000000000E+00  0.00000000000E+00  0.10952707607E+04  0.10952707607E+04  0.00000000000E+00 0.  1.
         21   -1    0    0  501  502 -0.00000000000E+00 -0.00000000000E+00 -0.17467529926E+03  0.17467529926E+03  0.00000000000E+00 0.  1.
         25    1    1    2    0    0 -0.13591551883E+03  0.13175230475E+03  0.24609541479E+03  0.33469336900E+03  0.12500000000E+03 0.  0.
         25    1    1    2    0    0  0.20017100355E+03  0.16228945941E+03  0.16530501610E+03  0.33069177136E+03  0.12500000000E+03 0.  0.
         25    1    1    2    0    0 -0.64255484714E+02 -0.29404176417E+03  0.50919503058E+03  0.60456091964E+03  0.12500000000E+03 0.  0.
</event>
<event>
 5    0  0.5720942E-005  0.3764955E+03  0.7546771E-02  0.1052237E+00
         21   -1    0    0  502  501  0.00000000000E+00  0.00000000000E+00  0.17222845328E+03  0.17222845328E+03  0.00000000000E+00 0. -1.
         21   -1    0    0  501  502 -0.00000000000E+00 -0.00000000000E+00 -0.82302796645E+03  0.82302796645E+03  0.00000000000E+00 0. -1.
         25    1    1    2    0    0 -0.19064732708E+03  0.23611509990E+02  0.24743877685E+02  0.23052367819E+03  0.12500000000E+03 0.  0.
         25    1    1    2    0    0  0.19088890511E+03  0.92023223563E+01 -0.40622538800E+03  0.46601214865E+03  0.12500000000E+03 0.  0.
         25    1    1    2    0    0 -0.24157803849E+00 -0.32813832347E+02 -0.26931800285E+03  0.29872059289E+03  0.12500000000E+03 0.  0.
</event>
<event>
 5    0  0.5720942E-005  0.2539724E+03  0.7546771E-02  0.1110820E+00
         21   -1    0    0  502  501  0.00000000000E+00  0.00000000000E+00  0.12302671231E+03  0.12302671231E+03  0.00000000000E+00 0.  1.
         21   -1    0    0  501  502 -0.00000000000E+00 -0.00000000000E+00 -0.52429238654E+03  0.52429238654E+03  0.00000000000E+00 0.  1.
         25    1    1    2    0    0  0.95042326620E+02  0.12115947887E+03 -0.11322765934E+03  0.22838162362E+03  0.12500000000E+03 0.  0.
         25    1    1    2    0    0 -0.58525411003E+02 -0.20330811441E+02 -0.13221158306E+03  0.19220683735E+03  0.12500000000E+03 0.  0.
         25    1    1    2    0    0 -0.36516915617E+02 -0.10082866743E+03 -0.15582643182E+03  0.22673063788E+03  0.12500000000E+03 0.  0.
</event>
<event>
 5    0  0.9438255E-005  0.4881190E+03  0.7546771E-02  0.1016927E+00
         21   -1    0    0  502  501  0.00000000000E+00  0.00000000000E+00  0.69531241433E+03  0.69531241433E+03  0.00000000000E+00 0. -1.
         21   -1    0    0  501  502 -0.00000000000E+00 -0.00000000000E+00 -0.34266629647E+03  0.34266629647E+03  0.00000000000E+00 0. -1.
         25    1    1    2    0    0 -0.19972482801E+03 -0.15749122415E+03 -0.76560979719E+01  0.28350856855E+03  0.12500000000E+03 0.  0.
         25    1    1    2    0    0  0.74529944555E+02 -0.14067667185E+03  0.35391606780E+03  0.40770850087E+03  0.12500000000E+03 0.  0.
         25    1    1    2    0    0  0.12519488345E+03  0.29816789600E+03  0.63861480292E+01  0.34676164138E+03  0.12500000000E+03 0.  0.
</event>
<event>
 5    0  0.5720942E-005  0.2606613E+03  0.7546771E-02  0.1106747E+00
         21   -1    0    0  502  501  0.00000000000E+00  0.00000000000E+00  0.23439250269E+04  0.23439250269E+04  0.00000000000E+00 0. -1.
         21   -1    0    0  501  502 -0.00000000000E+00 -0.00000000000E+00 -0.28987417637E+02  0.28987417637E+02  0.00000000000E+00 0. -1.
         25    1    1    2    0    0 -0.13115968339E+03 -0.40706449166E+02  0.86385167427E+03  0.88358621124E+03  0.12500000000E+03 0.  0.
         25    1    1    2    0    0  0.63030878866E+02  0.68391816649E+02  0.41768393782E+03  0.44579726803E+03  0.12500000000E+03 0.  0.
         25    1    1    2    0    0  0.68128804526E+02 -0.27685367484E+02  0.10334019971E+04  0.10435289652E+04  0.12500000000E+03 0.  0.
</event>
<event>
 5    0  0.5720942E-005  0.2370416E+03  0.7546771E-02  0.1121779E+00
         21   -1    0    0  502  501  0.00000000000E+00  0.00000000000E+00  0.19578887757E+03  0.19578887757E+03  0.00000000000E+00 0. -1.
         21   -1    0    0  501  502 -0.00000000000E+00 -0.00000000000E+00 -0.28698615422E+03  0.28698615422E+03  0.00000000000E+00 0. -1.
         25    1    1    2    0    0 -0.57763985513E+02 -0.54022913567E+02 -0.63808822245E+02  0.16109537240E+03  0.12500000000E+03 0.  0.
         25    1    1    2    0    0 -0.56926582510E+02  0.23407821559E+02  0.24900022501E+02  0.14154000504E+03  0.12500000000E+03 0.  0.
         25    1    1    2    0    0  0.11469056802E+03  0.30615092009E+02 -0.52288476912E+02  0.18013965435E+03  0.12500000000E+03 0.  0.
</event>
<event>
 5    0  0.5720942E-005  0.4740045E+03  0.7546771E-02  0.1020796E+00
         21   -1    0    0  502  501  0.00000000000E+00  0.00000000000E+00  0.43672468764E+03  0.43672468764E+03  0.00000000000E+00 0. -1.
         21   -1    0    0  501  502 -0.00000000000E+00 -0.00000000000E+00 -0.51446669623E+03  0.51446669623E+03  0.00000000000E+00 0. -1.
         25    1    1    2    0    0 -0.13814429707E+03  0.31246631178E+03  0.38971783494E+02  0.36587271382E+03  0.12500000000E+03 0.  0.
         25    1    1    2    0    0 -0.94847425340E+01 -0.31585342245E+03 -0.17636440312E+03  0.38286126404E+03  0.12500000000E+03 0.  0.
         25    1    1    2    0    0  0.14762903960E+03  0.33871106652E+01  0.59650611042E+02  0.20245740601E+03  0.12500000000E+03 0.  0.
</event>
<event>
 5    0  0.5720942E-005  0.2803580E+03  0.7546771E-02  0.1095494E+00
         21   -1    0    0  502  501  0.00000000000E+00  0.00000000000E+00  0.50181785623E+03  0.50181785623E+03  0.00000000000E+00 0.  1.
         21   -1    0    0  501  502 -0.00000000000E+00 -0.00000000000E+00 -0.15663175434E+03  0.15663175434E+03  0.00000000000E+00 0.  1.
         25    1    1    2    0    0  0.29527967865E+02  0.36499856254E+02  0.14421467078E+03  0.19653755789E+03  0.12500000000E+03 0.  0.
         25    1    1    2    0    0 -0.19474809902E+02 -0.18300752280E+03  0.11974330121E+03  0.25265486301E+03  0.12500000000E+03 0.  0.
         25    1    1    2    0    0 -0.10053157963E+02  0.14650766654E+03  0.81228129894E+02  0.20925718967E+03  0.12500000000E+03 0.  0.
</event>
<event>
 5    0  0.5720942E-005  0.3168485E+03  0.7546771E-02  0.1077109E+00
         21   -1    0    0  502  501  0.00000000000E+00  0.00000000000E+00  0.16537620698E+04  0.16537620698E+04  0.00000000000E+00 0. -1.
         21   -1    0    0  501  502 -0.00000000000E+00 -0.00000000000E+00 -0.60705799023E+02  0.60705799023E+02  0.00000000000E+00 0. -1.
         25    1    1    2    0    0 -0.34330387233E+02 -0.97690051175E+02  0.21373314241E+03  0.26838177611E+03  0.12500000000E+03 0.  0.
         25    1    1    2    0    0 -0.84815654592E+02  0.17966371214E+03  0.89859232944E+03  0.92874427010E+03  0.12500000000E+03 0.  0.
         25    1    1    2    0    0  0.11914604182E+03 -0.81973660965E+02  0.48073079890E+03  0.51734182258E+03  0.12500000000E+03 0.  0.
</event>
<event>
 5    0  0.5720942E-005  0.2728208E+03  0.7546771E-02  0.1099676E+00
         21   -1    0    0  502  501  0.00000000000E+00  0.00000000000E+00  0.17059013402E+04  0.17059013402E+04  0.00000000000E+00 0. -1.
         21   -1    0    0  501  502 -0.00000000000E+00 -0.00000000000E+00 -0.43631600925E+02  0.43631600925E+02  0.00000000000E+00 0. -1.
         25    1    1    2    0    0  0.55078428674E+02 -0.97714447099E+02  0.76737985788E+03  0.78554350151E+03  0.12500000000E+03 0.  0.
         25    1    1    2    0    0 -0.10293450806E+03  0.12598434056E+02  0.66594839097E+03  0.68546808308E+03  0.12500000000E+03 0.  0.
         25    1    1    2    0    0  0.47856079388E+02  0.85116013042E+02  0.22894149045E+03  0.27852135656E+03  0.12500000000E+03 0.  0.
</event>
<event>
 5    0  0.5720942E-005  0.2884178E+03  0.7546771E-02  0.1091178E+00
         21   -1    0    0  502  501  0.00000000000E+00  0.00000000000E+00  0.83213131247E+02  0.83213131247E+02  0.00000000000E+00 0. -1.
         21   -1    0    0  501  502 -0.00000000000E+00 -0.00000000000E+00 -0.99966018516E+03  0.99966018516E+03  0.00000000000E+00 0. -1.
         25    1    1    2    0    0  0.32610861634E+02  0.15971712371E+03 -0.25074505022E+03  0.32414673855E+03  0.12500000000E+03 0.  0.
         25    1    1    2    0    0  0.67576647083E+02 -0.10676622502E+03 -0.22433737139E+03  0.28621300850E+03  0.12500000000E+03 0.  0.
         25    1    1    2    0    0 -0.10018750872E+03 -0.52950898686E+02 -0.44136463230E+03  0.47251356935E+03  0.12500000000E+03 0.  0.
</event>
<event>
 5    0  0.5720942E-005  0.2751096E+03  0.7546771E-02  0.1098390E+00
         21   -1    0    0  502  501  0.00000000000E+00  0.00000000000E+00  0.33548762106E+03  0.33548762106E+03  0.00000000000E+00 0.  1.
         21   -1    0    0  501  502 -0.00000000000E+00 -0.00000000000E+00 -0.22559791166E+03  0.22559791166E+03  0.00000000000E+00 0.  1.
         25    1    1    2    0    0  0.89205181407E+02 -0.10048422766E+03  0.15335735756E+03  0.23916129184E+03  0.12500000000E+03 0.  0.
         25    1    1    2    0    0 -0.11385292939E+03  0.26797526428E+02 -0.33258743782E+02  0.17438962410E+03  0.12500000000E+03 0.  0.
         25    1    1    2    0    0  0.24647747987E+02  0.73686701233E+02 -0.10208904379E+02  0.14753461678E+03  0.12500000000E+03 0.  0.
</event>
<event>
 5    0  0.5720942E-005  0.2327351E+03  0.7546771E-02  0.1124729E+00
         21   -1    0    0  502  501  0.00000000000E+00  0.00000000000E+00  0.40597415537E+02  0.40597415537E+02  0.00000000000E+00 0.  1.
         21   -1    0    0  501  502 -0.00000000000E+00 -0.00000000000E+00 -0.13342140831E+04  0.13342140831E+04  0.00000000000E+00 0.  1.
         25    1    1    2    0    0  0.11340395994E+01  0.64984173016E+02 -0.36505887295E+03  0.39130194161E+03  0.12500000000E+03 0.  0.
         25    1    1    2    0    0 -0.81704823768E+02 -0.62766972701E+02 -0.34253706537E+03  0.37890897619E+03  0.12500000000E+03 0.  0.
         25    1    1    2    0    0  0.80570784169E+02 -0.22172003151E+01 -0.58602072921E+03  0.60460058080E+03  0.12500000000E+03 0.  0.
</event>
<event>
 5    0  0.5720942E-005  0.2336640E+03  0.7546771E-02  0.1124087E+00
         21   -1    0    0  502  501  0.00000000000E+00  0.00000000000E+00  0.28996745107E+03  0.28996745107E+03  0.00000000000E+00 0. -1.
         21   -1    0    0  501  502 -0.00000000000E+00 -0.00000000000E+00 -0.18829309985E+03  0.18829309985E+03  0.00000000000E+00 0. -1.
         25    1    1    2    0    0  0.62783525279E+02  0.13704145210E+02  0.51908053544E+02  0.14982997252E+03  0.12500000000E+03 0.  0.
         25    1    1    2    0    0 -0.13041267910E+02  0.45967194776E+02  0.10616725392E+03  0.17082020803E+03  0.12500000000E+03 0.  0.
         25    1    1    2    0    0 -0.49742257369E+02 -0.59671339985E+02 -0.56400956248E+02  0.15761037037E+03  0.12500000000E+03 0.  0.
</event>
<event>
 5    0  0.5720942E-005  0.2160305E+03  0.7546771E-02  0.1136878E+00
         21   -1    0    0  502  501  0.00000000000E+00  0.00000000000E+00  0.13720052226E+03  0.13720052226E+03  0.00000000000E+00 0. -1.
         21   -1    0    0  501  502 -0.00000000000E+00 -0.00000000000E+00 -0.34015300113E+03  0.34015300113E+03  0.00000000000E+00 0. -1.
         25    1    1    2    0    0 -0.50769138267E+02  0.12345660802E+02  0.29156624328E+01  0.13551170366E+03  0.12500000000E+03 0.  0.
         25    1    1    2    0    0  0.14294709208E+02 -0.83438807625E+01 -0.42869242598E+02  0.13317931903E+03  0.12500000000E+03 0.  0.
         25    1    1    2    0    0  0.36474429059E+02 -0.40017800399E+01 -0.16299889870E+03  0.20866250069E+03  0.12500000000E+03 0.  0.
</event>
<event>
 5    0  0.5720942E-005  0.4832605E+03  0.7546771E-02  0.1018243E+00
         21   -1    0    0  502  501  0.00000000000E+00  0.00000000000E+00  0.82950007041E+03  0.82950007041E+03  0.00000000000E+00 0.  1.
         21   -1    0    0  501  502 -0.00000000000E+00 -0.00000000000E+00 -0.28154390620E+03  0.28154390620E+03  0.00000000000E+00 0.  1.
         25    1    1    2    0    0 -0.92025488872E+02  0.10905900013E+03  0.41581609241E+03  0.45704548879E+03  0.12500000000E+03 0.  0.
         25    1    1    2    0    0  0.17090269537E+03  0.78410468795E+02 -0.15999246631E+03  0.27672824608E+03  0.12500000000E+03 0.  0.
         25    1    1    2    0    0 -0.78877206497E+02 -0.18746946893E+03  0.29213253811E+03  0.37727024175E+03  0.12500000000E+03 0.  0.
</event>
<event>
 5    0  0.5720942E-005  0.2629180E+03  0.7546771E-02  0.1105403E+00
         21   -1    0    0  502  501  0.00000000000E+00  0.00000000000E+00  0.16430700743E+03  0.16430700743E+03  0.00000000000E+00 0. -1.
         21   -1    0    0  501  502 -0.00000000000E+00 -0.00000000000E+00 -0.42071178006E+03  0.42071178006E+03  0.00000000000E+00 0. -1.
         25    1    1    2    0    0 -0.83660871243E+02  0.69183738779E+02  0.13769348783E+02  0.16613285664E+03  0.12500000000E+03 0.  0.
         25    1    1    2    0    0  0.11473260214E+03 -0.33348043813E+02 -0.91217774405E+02  0.19550279893E+03  0.12500000000E+03 0.  0.
         25    1    1    2    0    0 -0.31071730898E+02 -0.35835694967E+02 -0.17895634701E+03  0.22338313193E+03  0.12500000000E+03 0.  0.
</event>
<event>
 5    0  0.5720942E-005  0.3148650E+03  0.7546771E-02  0.1078037E+00
         21   -1    0    0  502  501  0.00000000000E+00  0.00000000000E+00  0.21000409968E+03  0.21000409968E+03  0.00000000000E+00 0. -1.
         21   -1    0    0  501  502 -0.00000000000E+00 -0.00000000000E+00 -0.47208597063E+03  0.47208597063E+03  0.00000000000E+00 0. -1.
         25    1    1    2    0    0  0.12858667363E+03  0.16199571002E+01 -0.19438059730E+03  0.26447301092E+03  0.12500000000E+03 0.  0.
         25    1    1    2    0    0 -0.14957473006E+03 -0.51324036508E+02 -0.15639387938E+03  0.25512899111E+03  0.12500000000E+03 0.  0.
         25    1    1    2    0    0  0.20988056432E+02  0.49704079408E+02  0.88692605740E+02  0.16248806829E+03  0.12500000000E+03 0.  0.
</event>
<event>
 5    0  0.5720942E-005  0.2391586E+03  0.7546771E-02  0.1120355E+00
         21   -1    0    0  502  501  0.00000000000E+00  0.00000000000E+00  0.74958077014E+03  0.74958077014E+03  0.00000000000E+00 0. -1.
         21   -1    0    0  501  502 -0.00000000000E+00 -0.00000000000E+00 -0.76305112454E+02  0.76305112454E+02  0.00000000000E+00 0. -1.
         25    1    1    2    0    0 -0.18646487262E+02  0.43097542870E+02  0.19593010955E+03  0.23710482390E+03  0.12500000000E+03 0.  0.
         25    1    1    2    0    0 -0.83749786306E+02  0.15200281600E+01  0.11448924114E+03  0.18907438623E+03  0.12500000000E+03 0.  0.
         25    1    1    2    0    0  0.10239627357E+03 -0.44617571030E+02  0.36285630700E+03  0.39970667246E+03  0.12500000000E+03 0.  0.
</event>
<event>
 5    0  0.5720942E-005  0.5207673E+03  0.7546771E-02  0.1008496E+00
         21   -1    0    0  502  501  0.00000000000E+00  0.00000000000E+00  0.63925015423E+03  0.63925015423E+03  0.00000000000E+00 0. -1.
         21   -1    0    0  501  502 -0.00000000000E+00 -0.00000000000E+00 -0.42424487441E+03  0.42424487441E+03  0.00000000000E+00 0. -1.
         25    1    1    2    0    0  0.15130606019E+03  0.40072604121E+03  0.76884955436E+02  0.45278160334E+03  0.12500000000E+03 0.  0.
         25    1    1    2    0    0 -0.62694742498E+02 -0.21179554614E+03  0.23783222943E+03  0.34781770148E+03  0.12500000000E+03 0.  0.
         25    1    1    2    0    0 -0.88611317688E+02 -0.18893049507E+03 -0.99711905051E+02  0.26289572381E+03  0.12500000000E+03 0.  0.
</event>
<event>
 5    0  0.5720942E-005  0.3345203E+03  0.7546771E-02  0.1069154E+00
         21   -1    0    0  502  501  0.00000000000E+00  0.00000000000E+00  0.18431201939E+03  0.18431201939E+03  0.00000000000E+00 0. -1.
         21   -1    0    0  501  502 -0.00000000000E+00 -0.00000000000E+00 -0.60714327610E+03  0.60714327610E+03  0.00000000000E+00 0. -1.
         25    1    1    2    0    0  0.15893346365E+03 -0.42183149292E+02 -0.13390558726E+03  0.24616045631E+03  0.12500000000E+03 0.  0.
         25    1    1    2    0    0 -0.24469171942E+03  0.10606701857E+03 -0.21656912056E+03  0.36558368941E+03  0.12500000000E+03 0.  0.
         25    1    1    2    0    0  0.85758255766E+02 -0.63883869275E+02 -0.72356548895E+02  0.17971114978E+03  0.12500000000E+03 0.  0.
</event>
<event>
 5    0  0.5720942E-005  0.2698505E+03  0.7546771E-02  0.1101365E+00
         21   -1    0    0  502  501  0.00000000000E+00  0.00000000000E+00  0.19969370020E+03  0.19969370020E+03  0.00000000000E+00 0. -1.
         21   -1    0    0  501  502 -0.00000000000E+00 -0.00000000000E+00 -0.36465481777E+03  0.36465481777E+03  0.00000000000E+00 0. -1.
         25    1    1    2    0    0 -0.99819313552E+02  0.96568238238E+02  0.51583027189E+02  0.19384305169E+03  0.12500000000E+03 0.  0.
         25    1    1    2    0    0  0.31746261820E+02 -0.87864066118E+02 -0.13430944855E+03  0.20589304802E+03  0.12500000000E+03 0.  0.
         25    1    1    2    0    0  0.68073051733E+02 -0.87041721198E+01 -0.82234696206E+02  0.16461241826E+03  0.12500000000E+03 0.  0.
</event>
<event>
 5    0  0.5720942E-005  0.3477596E+03  0.7546771E-02  0.1063538E+00
         21   -1    0    0  502  501  0.00000000000E+00  0.00000000000E+00  0.28267277894E+03  0.28267277894E+03  0.00000000000E+00 0. -1.
         21   -1    0    0  501  502 -0.00000000000E+00 -0.00000000000E+00 -0.42783290901E+03  0.42783290901E+03  0.00000000000E+00 0. -1.
         25    1    1    2    0    0  0.16890344653E+03  0.17171179013E+03  0.68385507634E+01  0.27144995652E+03  0.12500000000E+03 0.  0.
         25    1    1    2    0    0 -0.14623593012E+03 -0.11401656831E+03 -0.19109580232E+03  0.29415528344E+03  0.12500000000E+03 0.  0.
         25    1    1    2    0    0 -0.22667516403E+02 -0.57695221818E+02  0.39097121493E+02  0.14490044800E+03  0.12500000000E+03 0.  0.
</event>
<event>
 5    0  0.5720942E-005  0.2312535E+03  0.7546771E-02  0.1125761E+00
         21   -1    0    0  502  501  0.00000000000E+00  0.00000000000E+00  0.17755784135E+03  0.17755784135E+03  0.00000000000E+00 0.  1.
         21   -1    0    0  501  502 -0.00000000000E+00 -0.00000000000E+00 -0.30118748740E+03  0.30118748740E+03  0.00000000000E+00 0.  1.
         25    1    1    2    0    0 -0.89929329474E+02  0.24285611550E+02 -0.28570957641E+02  0.15848777508E+03  0.12500000000E+03 0.  0.
         25    1    1    2    0    0 -0.62147035121E+01 -0.54152736860E+02 -0.55411213064E+01  0.13648020177E+03  0.12500000000E+03 0.  0.
         25    1    1    2    0    0  0.96144032986E+02  0.29867125310E+02 -0.89517567107E+02  0.18377735191E+03  0.12500000000E+03 0.  0.
</event>
<event>
 5    0  0.5720942E-005  0.3543265E+03  0.7546771E-02  0.1060853E+00
         21   -1    0    0  502  501  0.00000000000E+00  0.00000000000E+00  0.11594627079E+04  0.11594627079E+04  0.00000000000E+00 0. -1.
         21   -1    0    0  501  502 -0.00000000000E+00 -0.00000000000E+00 -0.10828057220E+03  0.10828057220E+03  0.00000000000E+00 0. -1.
         25    1    1    2    0    0  0.18779736955E+03  0.42868471121E+02  0.40634655354E+03  0.46674198375E+03  0.12500000000E+03 0.  0.
         25    1    1    2    0    0 -0.22054163556E+03  0.86542015458E+02  0.25240458765E+03  0.36805055267E+03  0.12500000000E+03 0.  0.
         25    1    1    2    0    0  0.32744266012E+02 -0.12941048658E+03  0.39243099450E+03  0.43295074366E+03  0.12500000000E+03 0.  0.
</event>
<event>
 5    0  0.5720942E-005  0.4355926E+03  0.7546771E-02  0.1032108E+00
         21   -1    0    0  502  501  0.00000000000E+00  0.00000000000E+00  0.15823032851E+04  0.15823032851E+04  0.00000000000E+00 0. -1.
         21   -1    0    0  501  502 -0.00000000000E+00 -0.00000000000E+00 -0.11991438808E+03  0.11991438808E+03  0.00000000000E+00 0. -1.
         25    1    1    2    0    0  0.59119039618E+02 -0.16327134254E+03  0.21593667854E+03  0.30398394905E+03  0.12500000000E+03 0.  0.
         25    1    1    2    0    0  0.68234512308E+02  0.34609409653E+03  0.66377973313E+03  0.76201417732E+03  0.12500000000E+03 0.  0.
         25    1    1    2    0    0 -0.12735355193E+03 -0.18282275399E+03  0.58267248535E+03  0.63621954682E+03  0.12500000000E+03 0.  0.
</event>
<event>
 5    0  0.5720942E-005  0.3150706E+03  0.7546771E-02  0.1077941E+00
         21   -1    0    0  502  501  0.00000000000E+00  0.00000000000E+00  0.13211545015E+03  0.13211545015E+03  0.00000000000E+00 0. -1.
         21   -1    0    0  501  502 -0.00000000000E+00 -0.00000000000E+00 -0.75138432661E+03  0.75138432661E+03  0.00000000000E+00 0. -1.
         25    1    1    2    0    0  0.92921001062E+02  0.80579674363E+02 -0.45060209413E+03  0.48352315725E+03  0.12500000000E+03 0.  0.
         25    1    1    2    0    0  0.36877969432E+02 -0.11712179955E+03 -0.54306430793E+02  0.18344396688E+03  0.12500000000E+03 0.  0.
         25    1    1    2    0    0 -0.12979897049E+03  0.36542125187E+02 -0.11436035153E+03  0.21653265263E+03  0.12500000000E+03 0.  0.
</event>
<event>
 5    0  0.5720942E-005  0.2753747E+03  0.7546771E-02  0.1098242E+00
         21   -1    0    0  502  501  0.00000000000E+00  0.00000000000E+00  0.32942695122E+03  0.32942695122E+03  0.00000000000E+00 0.  1.
         21   -1    0    0  501  502 -0.00000000000E+00 -0.00000000000E+00 -0.23019133782E+03  0.23019133782E+03  0.00000000000E+00 0.  1.
         25    1    1    2    0    0  0.57739731537E+02 -0.36574585932E+02  0.90516320527E+02  0.16878916202E+03  0.12500000000E+03 0.  0.
         25    1    1    2    0    0  0.36159028120E+02  0.13501220388E+03  0.63760540117E+02  0.19805599458E+03  0.12500000000E+03 0.  0.
         25    1    1    2    0    0 -0.93898759656E+02 -0.98437617951E+02 -0.55041247246E+02  0.19277313244E+03  0.12500000000E+03 0.  0.
</event>
<event>
 5    0  0.5720942E-005  0.2094681E+03  0.7546771E-02  0.1141988E+00
         21   -1    0    0  502  501  0.00000000000E+00  0.00000000000E+00  0.41738214481E+03  0.41738214481E+03  0.00000000000E+00 0.  1.
         21   -1    0    0  501  502 -0.00000000000E+00 -0.00000000000E+00 -0.10512396045E+03  0.10512396045E+03  0.00000000000E+00 0.  1.
         25    1    1    2    0    0 -0.46191979926E+02 -0.36914257979E+01  0.10597886713E+03  0.17030515527E+03  0.12500000000E+03 0.  0.
         25    1    1    2    0    0 -0.25203072609E+02  0.21885615450E+02  0.14600824749E+03  0.19508352920E+03  0.12500000000E+03 0.  0.
         25    1    1    2    0    0  0.71395052535E+02 -0.18194189652E+02  0.60271069738E+02  0.15711742078E+03  0.12500000000E+03 0.  0.
</event>
<event>
 5    0  0.5720942E-005  0.5331442E+03  0.7546771E-02  0.1005472E+00
         21   -1    0    0  502  501  0.00000000000E+00  0.00000000000E+00  0.68496986431E+03  0.68496986431E+03  0.00000000000E+00 0.  1.
         21   -1    0    0  501  502 -0.00000000000E+00 -0.00000000000E+00 -0.41497121103E+03  0.41497121103E+03  0.00000000000E+00 0.  1.
         25    1    1    2    0    0 -0.28561443618E+02  0.34178722043E+03  0.29717214627E+02  0.36625451937E+03  0.12500000000E+03 0.  0.
         25    1    1    2    0    0 -0.24728619243E+03 -0.25742669561E+03  0.11555897289E+03  0.39547166876E+03  0.12500000000E+03 0.  0.
         25    1    1    2    0    0  0.27584763605E+03 -0.84360524823E+02  0.12472246576E+03  0.33821488721E+03  0.12500000000E+03 0.  0.
</event>
<event>
 5    0  0.5720942E-005  0.2777309E+03  0.7546771E-02  0.1096935E+00
         21   -1    0    0  502  501  0.00000000000E+00  0.00000000000E+00  0.36592299611E+02  0.36592299611E+02  0.00000000000E+00 0.  1.
         21   -1    0    0  501  502 -0.00000000000E+00 -0.00000000000E+00 -0.21079414858E+04  0.21079414858E+04  0.00000000000E+00 0.  1.
         25    1    1    2    0    0 -0.80777909371E+02  0.16222529689E+02 -0.26236725401E+03  0.30207584658E+03  0.12500000000E+03 0.  0.
         25    1    1    2    0    0  0.41004284611E+02  0.88338554500E+02 -0.12133883617E+04  0.12236916964E+04  0.12500000000E+03 0.  0.
         25    1    1    2    0    0  0.39773624759E+02 -0.10456108419E+03 -0.59559357045E+03  0.61876624238E+03  0.12500000000E+03 0.  0.
</event>
<event>
 5    0  0.5720942E-005  0.5945228E+03  0.7546771E-02  0.9916835E-01
         21   -1    0    0  502  501  0.00000000000E+00  0.00000000000E+00  0.40486226502E+03  0.40486226502E+03  0.00000000000E+00 0. -1.
         21   -1    0    0  501  502 -0.00000000000E+00 -0.00000000000E+00 -0.87303120466E+03  0.87303120466E+03  0.00000000000E+00 0. -1.
         25    1    1    2    0    0  0.28409224675E+03 -0.17599778819E+03  0.20698689485E+03  0.41249509179E+03  0.12500000000E+03 0.  0.
         25    1    1    2    0    0 -0.15736081213E+03 -0.58266842725E+02 -0.44538728742E+03  0.49208971332E+03  0.12500000000E+03 0.  0.
         25    1    1    2    0    0 -0.12673143462E+03  0.23426463092E+03 -0.22976854708E+03  0.37330866457E+03  0.12500000000E+03 0.  0.
</event>
<event>
 5    0  0.5720942E-005  0.2566421E+03  0.7546771E-02  0.1109178E+00
         21   -1    0    0  502  501  0.00000000000E+00  0.00000000000E+00  0.97355687099E+03  0.97355687099E+03  0.00000000000E+00 0. -1.
         21   -1    0    0  501  502 -0.00000000000E+00 -0.00000000000E+00 -0.67654172325E+02  0.67654172325E+02  0.00000000000E+00 0. -1.
         25    1    1    2    0    0 -0.13784601000E+02  0.17111411504E+02  0.24003946833E+03  0.27152672425E+03  0.12500000000E+03 0.  0.
         25    1    1    2    0    0 -0.15424929663E+02 -0.54903030745E+02  0.60897032412E+03  0.62427728366E+03  0.12500000000E+03 0.  0.
         25    1    1    2    0    0  0.29209530663E+02  0.37791619241E+02  0.56892906222E+02  0.14540703540E+03  0.12500000000E+03 0.  0.
</event>
<event>
 5    0  0.5720942E-005  0.4060459E+03  0.7546771E-02  0.1041706E+00
         21   -1    0    0  502  501  0.00000000000E+00  0.00000000000E+00  0.34326488843E+03  0.34326488843E+03  0.00000000000E+00 0.  1.
         21   -1    0    0  501  502 -0.00000000000E+00 -0.00000000000E+00 -0.48030908752E+03  0.48030908752E+03  0.00000000000E+00 0.  1.
         25    1    1    2    0    0 -0.20146473844E+03  0.11528786818E+03 -0.67630515325E+02  0.27217314340E+03  0.12500000000E+03 0.  0.
         25    1    1    2    0    0 -0.89097337298E+02  0.46135435339E+02  0.63245943562E+02  0.17231327077E+03  0.12500000000E+03 0.  0.
         25    1    1    2    0    0  0.29056207574E+03 -0.16142330352E+03 -0.13265962733E+03  0.37908756178E+03  0.12500000000E+03 0.  0.
</event>
<event>
 5    0  0.5720942E-005  0.2687441E+03  0.7546771E-02  0.1102001E+00
         21   -1    0    0  502  501  0.00000000000E+00  0.00000000000E+00  0.23532243710E+04  0.23532243710E+04  0.00000000000E+00 0. -1.
         21   -1    0    0  501  502 -0.00000000000E+00 -0.00000000000E+00 -0.30691238416E+02  0.30691238416E+02  0.00000000000E+00 0. -1.
         25    1    1    2    0    0  0.77482763071E+02  0.78065889734E+02  0.13829768184E+04  0.13929636542E+04  0.12500000000E+03 0.  0.
         25    1    1    2    0    0 -0.24636502615E+02 -0.50625495174E+02  0.70805215868E+03  0.72120229994E+03  0.12500000000E+03 0.  0.
         25    1    1    2    0    0 -0.52846260456E+02 -0.27440394560E+02  0.23150415544E+03  0.26974965520E+03  0.12500000000E+03 0.  0.
</event>
<event>
 5    0  0.5720942E-005  0.2303628E+03  0.7546771E-02  0.1126385E+00
         21   -1    0    0  502  501  0.00000000000E+00  0.00000000000E+00  0.78459181518E+02  0.78459181518E+02  0.00000000000E+00 0.  1.
         21   -1    0    0  501  502 -0.00000000000E+00 -0.00000000000E+00 -0.67636473837E+03  0.67636473837E+03  0.00000000000E+00 0.  1.
         25    1    1    2    0    0 -0.36476946293E+02  0.41153167931E+02 -0.25012494717E+03  0.28497656051E+03  0.12500000000E+03 0.  0.
         25    1    1    2    0    0  0.71132956823E+02  0.53553256443E+02 -0.19530104962E+03  0.24838548429E+03  0.12500000000E+03 0.  0.
         25    1    1    2    0    0 -0.34656010530E+02 -0.94706424374E+02 -0.15247956007E+03  0.22146187510E+03  0.12500000000E+03 0.  0.
</event>
<event>
 5    0  0.5720942E-005  0.2955672E+03  0.7546771E-02  0.1087478E+00
         21   -1    0    0  502  501  0.00000000000E+00  0.00000000000E+00  0.27970682059E+03  0.27970682059E+03  0.00000000000E+00 0.  1.
         21   -1    0    0  501  502 -0.00000000000E+00 -0.00000000000E+00 -0.31232698256E+03  0.31232698256E+03  0.00000000000E+00 0.  1.
         25    1    1    2    0    0  0.21356972605E+02  0.43719175215E+02  0.35064496253E+02  0.13864344722E+03  0.12500000000E+03 0.  0.
         25    1    1    2    0    0  0.73879505595E+02  0.30639686214E+02 -0.18980712313E+03  0.24093301083E+03  0.12500000000E+03 0.  0.
         25    1    1    2    0    0 -0.95236478200E+02 -0.74358861429E+02  0.12212246490E+03  0.21245734510E+03  0.12500000000E+03 0.  0.
</event>
<event>
 5    0  0.5720942E-005  0.2445440E+03  0.7546771E-02  0.1116802E+00
         21   -1    0    0  502  501  0.00000000000E+00  0.00000000000E+00  0.59846112047E+03  0.59846112047E+03  0.00000000000E+00 0.  1.
         21   -1    0    0  501  502 -0.00000000000E+00 -0.00000000000E+00 -0.99925913567E+02  0.99925913567E+02  0.00000000000E+00 0.  1.
         25    1    1    2    0    0 -0.75530463235E+02  0.30268480081E+02  0.32489661249E+03  0.35749663015E+03  0.12500000000E+03 0.  0.
         25    1    1    2    0    0  0.98936361105E+02 -0.37585629543E+02  0.11810932081E+03  0.20193042059E+03  0.12500000000E+03 0.  0.
         25    1    1    2    0    0 -0.23405897870E+02  0.73171494617E+01  0.55529273608E+02  0.13895998330E+03  0.12500000000E+03 0.  0.
</event>
<event>
 5    0  0.5720942E-005  0.3235005E+03  0.7546771E-02  0.1074049E+00
         21   -1    0    0  502  501  0.00000000000E+00  0.00000000000E+00  0.11235669083E+04  0.11235669083E+04  0.00000000000E+00 0. -1.
         21   -1    0    0  501  502 -0.00000000000E+00 -0.00000000000E+00 -0.93143174329E+02  0.93143174329E+02  0.00000000000E+00 0. -1.
         25    1    1    2    0    0  0.65688401540E+01  0.39169438490E+02  0.28954213234E+02  0.13431582571E+03  0.12500000000E+03 0.  0.
         25    1    1    2    0    0 -0.11014973796E+03 -0.12230060559E+03  0.70166363496E+03  0.73146924715E+03  0.12500000000E+03 0.  0.
         25    1    1    2    0    0  0.10358089781E+03  0.83131167100E+02  0.29980588579E+03  0.35092500978E+03  0.12500000000E+03 0.  0.
</event>
<event>
 5    0  0.5720942E-005  0.2772577E+03  0.7546771E-02  0.1097196E+00
         21   -1    0    0  502  501  0.00000000000E+00  0.00000000000E+00  0.36793541827E+03  0.36793541827E+03  0.00000000000E+00 0.  1.
         21   -1    0    0  501  502 -0.00000000000E+00 -0.00000000000E+00 -0.20892753089E+03  0.20892753089E+03  0.00000000000E+00 0.  1.
         25    1    1    2    0    0 -0.17002149683E+03  0.21909114239E+02  0.29599017705E+02  0.21421582696E+03  0.12500000000E+03 0.  0.
         25    1    1    2    0    0  0.16273101734E+02 -0.55462199261E+02  0.56592795740E+02  0.14889128220E+03  0.12500000000E+03 0.  0.
         25    1    1    2    0    0  0.15374839509E+03  0.33553085022E+02  0.72816073941E+02  0.21375584000E+03  0.12500000000E+03 0.  0.
</event>
<event>
 5    0  0.5720942E-005  0.2397117E+03  0.7546771E-02  0.1119985E+00
         21   -1    0    0  502  501  0.00000000000E+00  0.00000000000E+00  0.55963118066E+02  0.55963118066E+02  0.00000000000E+00 0.  1.
         21   -1    0    0  501  502 -0.00000000000E+00 -0.00000000000E+00 -0.10267783302E+04  0.10267783302E+04  0.00000000000E+00 0.  1.
         25    1    1    2    0    0 -0.70825646765E+02  0.37060792550E+02 -0.12468925063E+03  0.19380965871E+03  0.12500000000E+03 0.  0.
         25    1    1    2    0    0  0.43866691462E+01 -0.13650635651E+02 -0.32794345073E+03  0.35125131971E+03  0.12500000000E+03 0.  0.
         25    1    1    2    0    0  0.66438977619E+02 -0.23410156899E+02 -0.51818251082E+03  0.53768046990E+03  0.12500000000E+03 0.  0.
</event>
<event>
 5    0  0.5720942E-005  0.2406305E+03  0.7546771E-02  0.1119374E+00
         21   -1    0    0  502  501  0.00000000000E+00  0.00000000000E+00  0.63111782194E+03  0.63111782194E+03  0.00000000000E+00 0. -1.
         21   -1    0    0  501  502 -0.00000000000E+00 -0.00000000000E+00 -0.91746778583E+02  0.91746778583E+02  0.00000000000E+00 0. -1.
         25    1    1    2    0    0 -0.25510316753E+02 -0.66383402371E+02  0.21465545609E+03  0.25837859277E+03  0.12500000000E+03 0.  0.
         25    1    1    2    0    0 -0.79185337660E+02  0.80336146968E+02  0.15884965147E+03  0.23147878085E+03  0.12500000000E+03 0.  0.
         25    1    1    2    0    0  0.10469565441E+03 -0.13952744597E+02  0.16586593580E+03  0.23300722691E+03  0.12500000000E+03 0.  0.
</event>
<event>
 5    0  0.5720942E-005  0.3644699E+03  0.7546771E-02  0.1056828E+00
         21   -1    0    0  502  501  0.00000000000E+00  0.00000000000E+00  0.35822908599E+03  0.35822908599E+03  0.00000000000E+00 0. -1.
         21   -1    0    0  501  502 -0.00000000000E+00 -0.00000000000E+00 -0.37081945852E+03  0.37081945852E+03  0.00000000000E+00 0. -1.
         25    1    1    2    0    0  0.91143699971E+02 -0.21271619112E+03 -0.15910915107E+03  0.30740213721E+03  0.12500000000E+03 0.  0.
         25    1    1    2    0    0  0.22701338074E+02  0.59355254882E+02 -0.16431926370E+02  0.14118571187E+03  0.12500000000E+03 0.  0.
         25    1    1    2    0    0 -0.11384503804E+03  0.15336093624E+03  0.16295070491E+03  0.28046069543E+03  0.12500000000E+03 0.  0.
</event>
<event>
 5    0  0.5720942E-005  0.4447596E+03  0.7546771E-02  0.1029296E+00
         21   -1    0    0  502  501  0.00000000000E+00  0.00000000000E+00  0.61986136916E+03  0.61986136916E+03  0.00000000000E+00 0.  1.
         21   -1    0    0  501  502 -0.00000000000E+00 -0.00000000000E+00 -0.31912156500E+03  0.31912156500E+03  0.00000000000E+00 0.  1.
         25    1    1    2    0    0 -0.17209681445E+03  0.16545740255E+03  0.94666913638E+02  0.28562263590E+03  0.12500000000E+03 0.  0.
         25    1    1    2    0    0  0.97130400746E+02  0.65243823748E+02  0.31580674604E+03  0.35923526014E+03  0.12500000000E+03 0.  0.
         25    1    1    2    0    0  0.74966413706E+02 -0.23070122630E+03 -0.10973385552E+03  0.29412503812E+03  0.12500000000E+03 0.  0.
</event>
<event>
 5    0  0.5720942E-005  0.4363676E+03  0.7546771E-02  0.1031867E+00
         21   -1    0    0  502  501  0.00000000000E+00  0.00000000000E+00  0.13916893734E+04  0.13916893734E+04  0.00000000000E+00 0. -1.
         21   -1    0    0  501  502 -0.00000000000E+00 -0.00000000000E+00 -0.13682411860E+03  0.13682411860E+03  0.00000000000E+00 0. -1.
         25    1    1    2    0    0  0.42365239382E+02 -0.13342456365E+02 -0.44642491507E+01  0.13273192596E+03  0.12500000000E+03 0.  0.
         25    1    1    2    0    0  0.51141290391E+02  0.13786386654E+03  0.96211036829E+02  0.21564656475E+03  0.12500000000E+03 0.  0.
         25    1    1    2    0    0 -0.93506529773E+02 -0.12452141017E+03  0.11631184671E+04  0.11801350013E+04  0.12500000000E+03 0.  0.
</event>
<event>
 5    0  0.5720942E-005  0.3097098E+03  0.7546771E-02  0.1080485E+00
         21   -1    0    0  502  501  0.00000000000E+00  0.00000000000E+00  0.11507760339E+04  0.11507760339E+04  0.00000000000E+00 0. -1.
         21   -1    0    0  501  502 -0.00000000000E+00 -0.00000000000E+00 -0.83352604009E+02  0.83352604009E+02  0.00000000000E+00 0. -1.
         25    1    1    2    0    0 -0.52812993693E+01  0.37224753696E+02  0.10946002932E+03  0.17035278815E+03  0.12500000000E+03 0.  0.
         25    1    1    2    0    0  0.18570712665E+03 -0.24334424180E+02  0.33947140741E+03  0.40736364287E+03  0.12500000000E+03 0.  0.
         25    1    1    2    0    0 -0.18042582728E+03 -0.12890329515E+02  0.61849199318E+03  0.65641220690E+03  0.12500000000E+03 0.  0.
</event>
<event>
 5    0  0.5720942E-005  0.4002504E+03  0.7546771E-02  0.1043693E+00
         21   -1    0    0  502  501  0.00000000000E+00  0.00000000000E+00  0.14900994018E+04  0.14900994018E+04  0.00000000000E+00 0. -1.
         21   -1    0    0  501  502 -0.00000000000E+00 -0.00000000000E+00 -0.10750986666E+03  0.10750986666E+03  0.00000000000E+00 0. -1.
         25    1    1    2    0    0  0.25239569480E+03 -0.10967568190E+03  0.43883742340E+03  0.53285610265E+03  0.12500000000E+03 0.  0.
         25    1    1    2    0    0 -0.86309260959E+02 -0.16805940374E+02  0.90789319773E+02  0.17776228156E+03  0.12500000000E+03 0.  0.
         25    1    1    2    0    0 -0.16608643384E+03  0.12648162228E+03  0.85296279194E+03  0.88699088424E+03  0.12500000000E+03 0.  0.
</event>
<event>
 5    0  0.5720942E-005  0.4131404E+03  0.7546771E-02  0.1039322E+00
         21   -1    0    0  502  501  0.00000000000E+00  0.00000000000E+00  0.12513543252E+03  0.12513543252E+03  0.00000000000E+00 0.  1.
         21   -1    0    0  501  502 -0.00000000000E+00 -0.00000000000E+00 -0.13640021775E+04  0.13640021775E+04  0.00000000000E+00 0.  1.
         25    1    1    2    0    0  0.22576364180E+03 -0.24318972669E+02 -0.23129474408E+03  0.34739443437E+03  0.12500000000E+03 0.  0.
         25    1    1    2    0    0 -0.85883898850E+02  0.48841965007E+02 -0.91924375690E+03  0.93294998056E+03  0.12500000000E+03 0.  0.
         25    1    1    2    0    0 -0.13987974295E+03 -0.24522992337E+02 -0.88328244044E+02  0.20879319514E+03  0.12500000000E+03 0.  0.
</event>
<event>
 5    0  0.5720942E-005  0.3816959E+03  0.7546771E-02  0.1050309E+00
         21   -1    0    0  502  501  0.00000000000E+00  0.00000000000E+00  0.87417007205E+03  0.87417007205E+03  0.00000000000E+00 0. -1.
         21   -1    0    0  501  502 -0.00000000000E+00 -0.00000000000E+00 -0.16666294880E+03  0.16666294880E+03  0.00000000000E+00 0. -1.
         25    1    1    2    0    0  0.29798705700E+03 -0.83207347659E+02  0.23438790389E+03  0.40777743726E+03  0.12500000000E+03 0.  0.
         25    1    1    2    0    0 -0.68989829980E+02  0.33022006759E+02  0.11054209369E+03  0.18356090011E+03  0.12500000000E+03 0.  0.
         25    1    1    2    0    0 -0.22899722702E+03  0.50185340900E+02  0.36257712566E+03  0.44949468348E+03  0.12500000000E+03 0.  0.
</event>
<event>
 5    0  0.5720942E-005  0.3884959E+03  0.7546771E-02  0.1047838E+00
         21   -1    0    0  502  501  0.00000000000E+00  0.00000000000E+00  0.30226819491E+03  0.30226819491E+03  0.00000000000E+00 0. -1.
         21   -1    0    0  501  502 -0.00000000000E+00 -0.00000000000E+00 -0.49932176714E+03  0.49932176714E+03  0.00000000000E+00 0. -1.
         25    1    1    2    0    0 -0.18577029580E+03  0.11493029284E+03 -0.22990036629E+02  0.25273131345E+03  0.12500000000E+03 0.  0.
         25    1    1    2    0    0  0.18630538439E+03  0.10927608360E+03 -0.22042855586E+02  0.25052314501E+03  0.12500000000E+03 0.  0.
         25    1    1    2    0    0 -0.53508859306E+00 -0.22420637644E+03 -0.15202068001E+03  0.29833550360E+03  0.12500000000E+03 0.  0.
</event>
<event>
 5    0  0.6581938E-005  0.2968825E+03  0.7546771E-02  0.1086809E+00
         21   -1    0    0  502  501  0.00000000000E+00  0.00000000000E+00  0.51143988357E+03  0.51143988357E+03  0.00000000000E+00 0. -1.
         21   -1    0    0  501  502 -0.00000000000E+00 -0.00000000000E+00 -0.17233541134E+03  0.17233541134E+03  0.00000000000E+00 0. -1.
         25    1    1    2    0    0 -0.75817973497E+02  0.30369240138E+02  0.19319193954E+03  0.24416957500E+03  0.12500000000E+03 0.  0.
         25    1    1    2    0    0  0.22515131540E+02  0.43924590337E+02  0.22774571230E+03  0.26444169538E+03  0.12500000000E+03 0.  0.
         25    1    1    2    0    0  0.53302841956E+02 -0.74293830476E+02 -0.81833179607E+02  0.17516402454E+03  0.12500000000E+03 0.  0.
</event>
<event>
 5    0  0.5720942E-005  0.4584165E+03  0.7546771E-02  0.1025241E+00
         21   -1    0    0  502  501  0.00000000000E+00  0.00000000000E+00  0.65303513692E+03  0.65303513692E+03  0.00000000000E+00 0.  1.
         21   -1    0    0  501  502 -0.00000000000E+00 -0.00000000000E+00 -0.32179838589E+03  0.32179838589E+03  0.00000000000E+00 0.  1.
         25    1    1    2    0    0  0.44626863906E+02 -0.19647259267E+03  0.15230049910E+03  0.28180397208E+03  0.12500000000E+03 0.  0.
         25    1    1    2    0    0  0.66871942380E+02 -0.20118563257E+02  0.34449294964E+03  0.37306434514E+03  0.12500000000E+03 0.  0.
         25    1    1    2    0    0 -0.11149880629E+03  0.21659115593E+03 -0.16555669771E+03  0.31996520559E+03  0.12500000000E+03 0.  0.
</event>
<event>
 5    0  0.5720942E-005  0.3000809E+03  0.7546771E-02  0.1085200E+00
         21   -1    0    0  502  501  0.00000000000E+00  0.00000000000E+00  0.70723463025E+02  0.70723463025E+02  0.00000000000E+00 0.  1.
         21   -1    0    0  501  502 -0.00000000000E+00 -0.00000000000E+00 -0.12732488995E+04  0.12732488995E+04  0.00000000000E+00 0.  1.
         25    1    1    2    0    0 -0.15544442446E+03  0.65373317129E+02 -0.50184841702E+03  0.54397929497E+03  0.12500000000E+03 0.  0.
         25    1    1    2    0    0  0.20566010982E+02 -0.10105501006E+02 -0.52355474033E+03  0.53875750397E+03  0.12500000000E+03 0.  0.
         25    1    1    2    0    0  0.13487841348E+03 -0.55267816123E+02 -0.17712227913E+03  0.26123556359E+03  0.12500000000E+03 0.  0.
</event>
<event>
 5    0  0.5720942E-005  0.2394252E+03  0.7546771E-02  0.1120176E+00
         21   -1    0    0  502  501  0.00000000000E+00  0.00000000000E+00  0.44369295565E+03  0.44369295565E+03  0.00000000000E+00 0. -1.
         21   -1    0    0  501  502 -0.00000000000E+00 -0.00000000000E+00 -0.12919842874E+03  0.12919842874E+03  0.00000000000E+00 0. -1.
         25    1    1    2    0    0  0.10363713172E+03 -0.15496974877E+02  0.18583262322E+03  0.24726418090E+03  0.12500000000E+03 0.  0.
         25    1    1    2    0    0 -0.40218904131E+02  0.69921340232E+02  0.63482406476E+02  0.16174538634E+03  0.12500000000E+03 0.  0.
         25    1    1    2    0    0 -0.63418227591E+02 -0.54424365356E+02  0.65179497220E+02  0.16388181715E+03  0.12500000000E+03 0.  0.
</event>
<event>
 5    0  0.6164309E-005  0.3771617E+03  0.7546771E-02  0.1051988E+00
         21   -1    0    0  502  501  0.00000000000E+00  0.00000000000E+00  0.28520694860E+03  0.28520694860E+03  0.00000000000E+00 0. -1.
         21   -1    0    0  501  502 -0.00000000000E+00 -0.00000000000E+00 -0.49876401640E+03  0.49876401640E+03  0.00000000000E+00 0. -1.
         25    1    1    2    0    0  0.13322608603E+03 -0.50961300630E+02  0.38634945584E+02  0.19355594329E+03  0.12500000000E+03 0.  0.
         25    1    1    2    0    0 -0.10228580235E+03 -0.14005570776E+03 -0.28653679062E+03  0.35750009653E+03  0.12500000000E+03 0.  0.
         25    1    1    2    0    0 -0.30940283680E+02  0.19101700839E+03  0.34344777234E+02  0.23291492518E+03  0.12500000000E+03 0.  0.
</event>
<event>
 5    0  0.5720942E-005  0.2643600E+03  0.7546771E-02  0.1104552E+00
         21   -1    0    0  502  501  0.00000000000E+00  0.00000000000E+00  0.95874975970E+02  0.95874975970E+02  0.00000000000E+00 0. -1.
         21   -1    0    0  501  502 -0.00000000000E+00 -0.00000000000E+00 -0.72893079811E+03  0.72893079811E+03  0.00000000000E+00 0. -1.
         25    1    1    2    0    0 -0.81410016526E+02  0.94416072026E+02 -0.19125458300E+03  0.26027927495E+03  0.12500000000E+03 0.  0.
         25    1    1    2    0    0  0.12627889058E+03 -0.12015998277E+03 -0.24385838644E+03  0.32477175417E+03  0.12500000000E+03 0.  0.
         25    1    1    2    0    0 -0.44868874057E+02  0.25743910748E+02 -0.19794285270E+03  0.23975474497E+03  0.12500000000E+03 0.  0.
</event>
<event>
 5    0  0.5720942E-005  0.2952080E+03  0.7546771E-02  0.1087661E+00
         21   -1    0    0  502  501  0.00000000000E+00  0.00000000000E+00  0.26740377891E+03  0.26740377891E+03  0.00000000000E+00 0.  1.
         21   -1    0    0  501  502 -0.00000000000E+00 -0.00000000000E+00 -0.32590323985E+03  0.32590323985E+03  0.00000000000E+00 0.  1.
         25    1    1    2    0    0 -0.94922587084E+01  0.52046674707E+01 -0.99424966006E+02  0.16008596255E+03  0.12500000000E+03 0.  0.
         25    1    1    2    0    0 -0.68536326478E+02  0.11066254857E+03  0.13318749138E+03  0.22429296816E+03  0.12500000000E+03 0.  0.
         25    1    1    2    0    0  0.78028585187E+02 -0.11586721605E+03 -0.92261986312E+02  0.20892808806E+03  0.12500000000E+03 0.  0.
</event>
<event>
 5    0  0.5720942E-005  0.5094522E+03  0.7546771E-02  0.1011341E+00
         21   -1    0    0  502  501  0.00000000000E+00  0.00000000000E+00  0.27062835346E+03  0.27062835346E+03  0.00000000000E+00 0. -1.
         21   -1    0    0  501  502 -0.00000000000E+00 -0.00000000000E+00 -0.95903317331E+03  0.95903317331E+03  0.00000000000E+00 0. -1.
         25    1    1    2    0    0 -0.87291661368E+02 -0.99508798764E+02 -0.33447111691E+02  0.18510954718E+03  0.12500000000E+03 0.  0.
         25    1    1    2    0    0  0.38492378783E+03  0.22860444246E+03 -0.34623475062E+03  0.57959452731E+03  0.12500000000E+03 0.  0.
         25    1    1    2    0    0 -0.29763212646E+03 -0.12909564369E+03 -0.30872295754E+03  0.46495745228E+03  0.12500000000E+03 0.  0.
</event>
<event>
 5    0  0.5720942E-005  0.3463931E+03  0.7546771E-02  0.1064105E+00
         21   -1    0    0  502  501  0.00000000000E+00  0.00000000000E+00  0.33017548758E+03  0.33017548758E+03  0.00000000000E+00 0.  1.
         21   -1    0    0  501  502 -0.00000000000E+00 -0.00000000000E+00 -0.36340738354E+03  0.36340738354E+03  0.00000000000E+00 0.  1.
         25    1    1    2    0    0  0.53019524045E+02 -0.15252813279E+03  0.22971051221E+02  0.20549591338E+03  0.12500000000E+03 0.  0.
         25    1    1    2    0    0  0.72634224105E+02 -0.94035091810E+02  0.23726429866E+02  0.17408696814E+03  0.12500000000E+03 0.  0.
         25    1    1    2    0    0 -0.12565374815E+03  0.24656322460E+03 -0.79929377037E+02  0.31399998959E+03  0.12500000000E+03 0.  0.
</event>
<event>
 5    0  0.5720942E-005  0.2913455E+03  0.7546771E-02  0.1089649E+00
         21   -1    0    0  502  501  0.00000000000E+00  0.00000000000E+00  0.18347338470E+03  0.18347338470E+03  0.00000000000E+00 0.  1.
         21   -1    0    0  501  502 -0.00000000000E+00 -0.00000000000E+00 -0.46264039202E+03  0.46264039202E+03  0.00000000000E+00 0.  1.
         25    1    1    2    0    0 -0.12210697097E+03  0.74136857075E+02  0.35836350218E+02  0.19317253928E+03  0.12500000000E+03 0.  0.
         25    1    1    2    0    0  0.10833842465E+03 -0.96689379106E+02 -0.14501103945E+03  0.24028993290E+03  0.12500000000E+03 0.  0.
         25    1    1    2    0    0  0.13768546313E+02  0.22552522031E+02 -0.16999231808E+03  0.21265130454E+03  0.12500000000E+03 0.  0.
</event>
<event>
 5    0  0.5720942E-005  0.3854788E+03  0.7546771E-02  0.1048927E+00
         21   -1    0    0  502  501  0.00000000000E+00  0.00000000000E+00  0.12781564533E+04  0.12781564533E+04  0.00000000000E+00 0.  1.
         21   -1    0    0  501  502 -0.00000000000E+00 -0.00000000000E+00 -0.11625643761E+03  0.11625643761E+03  0.00000000000E+00 0.  1.
         25    1    1    2    0    0 -0.17244635704E+02  0.25884262808E+03  0.58885882802E+03  0.65549721808E+03  0.12500000000E+03 0.  0.
         25    1    1    2    0    0 -0.42954515817E+02  0.37999209218E+02  0.14484881216E+03  0.19973784998E+03  0.12500000000E+03 0.  0.
         25    1    1    2    0    0  0.60199151521E+02 -0.29684183730E+03  0.42819237549E+03  0.53917782284E+03  0.12500000000E+03 0.  0.
</event>
<event>
 5    0  0.5720942E-005  0.3132025E+03  0.7546771E-02  0.1078821E+00
         21   -1    0    0  502  501  0.00000000000E+00  0.00000000000E+00  0.17856102260E+03  0.17856102260E+03  0.00000000000E+00 0. -1.
         21   -1    0    0  501  502 -0.00000000000E+00 -0.00000000000E+00 -0.54936854815E+03  0.54936854815E+03  0.00000000000E+00 0. -1.
         25    1    1    2    0    0  0.17134088312E+03 -0.10354295054E+03 -0.76488469934E+02  0.24810144471E+03  0.12500000000E+03 0.  0.
         25    1    1    2    0    0 -0.47735570618E+02  0.10081423367E+02 -0.23750075426E+03  0.27278549828E+03  0.12500000000E+03 0.  0.
         25    1    1    2    0    0 -0.12360531251E+03  0.93461527170E+02 -0.56818301355E+02  0.20704262776E+03  0.12500000000E+03 0.  0.
</event>
<event>
 5    0  0.5720942E-005  0.2140536E+03  0.7546771E-02  0.1138396E+00
         21   -1    0    0  502  501  0.00000000000E+00  0.00000000000E+00  0.70447014833E+02  0.70447014833E+02  0.00000000000E+00 0.  1.
         21   -1    0    0  501  502 -0.00000000000E+00 -0.00000000000E+00 -0.65040291772E+03  0.65040291772E+03  0.00000000000E+00 0.  1.
         25    1    1    2    0    0 -0.81044100689E+01  0.71186778741E+02 -0.24046763601E+03  0.28032645772E+03  0.12500000000E+03 0.  0.
         25    1    1    2    0    0 -0.11287765209E+02 -0.74072125017E+02 -0.23456160445E+03  0.27614894464E+03  0.12500000000E+03 0.  0.
         25    1    1    2    0    0  0.19392175278E+02  0.28853462764E+01 -0.10492666243E+03  0.16437453019E+03  0.12500000000E+03 0.  0.
</event>
<event>
 5    0  0.5720942E-005  0.2411950E+03  0.7546771E-02  0.1118999E+00
         21   -1    0    0  502  501  0.00000000000E+00  0.00000000000E+00  0.81147569229E+03  0.81147569229E+03  0.00000000000E+00 0.  1.
         21   -1    0    0  501  502 -0.00000000000E+00 -0.00000000000E+00 -0.71690439840E+02  0.71690439840E+02  0.00000000000E+00 0.  1.
         25    1    1    2    0    0  0.18827023640E+02 -0.55202201028E+02  0.27739605204E+03  0.30979882102E+03  0.12500000000E+03 0.  0.
         25    1    1    2    0    0 -0.60586116060E+02 -0.70756513223E+02  0.23336808235E+03  0.28064715121E+03  0.12500000000E+03 0.  0.
         25    1    1    2    0    0  0.41759092421E+02  0.12595871425E+03  0.22902111806E+03  0.29272015990E+03  0.12500000000E+03 0.  0.
</event>
<event>
 5    0  0.5720942E-005  0.2922547E+03  0.7546771E-02  0.1089178E+00
         21   -1    0    0  502  501  0.00000000000E+00  0.00000000000E+00  0.64164002727E+02  0.64164002727E+02  0.00000000000E+00 0. -1.
         21   -1    0    0  501  502 -0.00000000000E+00 -0.00000000000E+00 -0.13311636165E+04  0.13311636165E+04  0.00000000000E+00 0. -1.
         25    1    1    2    0    0 -0.14591094469E+03  0.60254383467E+02 -0.81005679309E+03  0.83470809421E+03  0.12500000000E+03 0.  0.
         25    1    1    2    0    0  0.13122139459E+02  0.71404476830E+01 -0.13551874977E+03  0.18496893814E+03  0.12500000000E+03 0.  0.
         25    1    1    2    0    0  0.13278880523E+03 -0.67394831150E+02 -0.32142407091E+03  0.37565058688E+03  0.12500000000E+03 0.  0.
</event>
<event>
 5    0  0.5720942E-005  0.3118143E+03  0.7546771E-02  0.1079479E+00
         21   -1    0    0  502  501  0.00000000000E+00  0.00000000000E+00  0.62311940794E+02  0.62311940794E+02  0.00000000000E+00 0.  1.
         21   -1    0    0  501  502 -0.00000000000E+00 -0.00000000000E+00 -0.15603458718E+04  0.15603458718E+04  0.00000000000E+00 0.  1.
         25    1    1    2    0    0 -0.60200553284E+02 -0.14635296938E+02 -0.16523564855E+03  0.21625475274E+03  0.12500000000E+03 0.  0.
         25    1    1    2    0    0 -0.10234258582E+03  0.12811139872E+03 -0.48961706473E+03  0.53125926385E+03  0.12500000000E+03 0.  0.
         25    1    1    2    0    0  0.16254313911E+03 -0.11347610179E+03 -0.84318121778E+03  0.87514379605E+03  0.12500000000E+03 0.  0.
</event>
<event>
 5    0  0.5720942E-005  0.2273674E+03  0.7546771E-02  0.1128507E+00
         21   -1    0    0  502  501  0.00000000000E+00  0.00000000000E+00  0.10937915438E+04  0.10937915438E+04  0.00000000000E+00 0.  1.
         21   -1    0    0  501  502 -0.00000000000E+00 -0.00000000000E+00 -0.47263043470E+02  0.47263043470E+02  0.00000000000E+00 0.  1.
         25    1    1    2    0    0  0.14636892690E+02 -0.30380767935E+02  0.19016096287E+03  0.23005091065E+03  0.12500000000E+03 0.  0.
         25    1    1    2    0    0  0.26757796830E+02  0.10255770149E+02  0.66858871282E+03  0.68077678238E+03  0.12500000000E+03 0.  0.
         25    1    1    2    0    0 -0.41394689521E+02  0.20124997786E+02  0.18777882467E+03  0.23022689429E+03  0.12500000000E+03 0.  0.
</event>
<event>
 5    0  0.5720942E-005  0.3253069E+03  0.7546771E-02  0.1073232E+00
         21   -1    0    0  502  501  0.00000000000E+00  0.00000000000E+00  0.21758842833E+04  0.21758842833E+04  0.00000000000E+00 0. -1.
         21   -1    0    0  501  502 -0.00000000000E+00 -0.00000000000E+00 -0.48635208893E+02  0.48635208893E+02  0.00000000000E+00 0. -1.
         25    1    1    2    0    0 -0.51752852881E+01 -0.16326273133E+03  0.12501762202E+04  0.12669834586E+04  0.12500000000E+03 0.  0.
         25    1    1    2    0    0 -0.10340368561E+02 -0.58128527015E+00  0.12306732691E+03  0.17572088114E+03  0.12500000000E+03 0.  0.
         25    1    1    2    0    0  0.15515653850E+02  0.16384401660E+03  0.75400552729E+03  0.78181515237E+03  0.12500000000E+03 0.  0.
</event>
<event>
 5    0  0.5720942E-005  0.2962827E+03  0.7546771E-02  0.1087114E+00
         21   -1    0    0  502  501  0.00000000000E+00  0.00000000000E+00  0.41746689332E+03  0.41746689332E+03  0.00000000000E+00 0. -1.
         21   -1    0    0  501  502 -0.00000000000E+00 -0.00000000000E+00 -0.21027636091E+03  0.21027636091E+03  0.00000000000E+00 0. -1.
         25    1    1    2    0    0  0.12443739991E+03  0.13322353710E+02  0.29530660075E+02  0.17932989569E+03  0.12500000000E+03 0.  0.
         25    1    1    2    0    0 -0.53769538421E+02  0.81387439357E+02 -0.47080997528E+02  0.16539860603E+03  0.12500000000E+03 0.  0.
         25    1    1    2    0    0 -0.70667861489E+02 -0.94709793067E+02  0.22474086987E+03  0.28301475251E+03  0.12500000000E+03 0.  0.
</event>
<event>
 5    0  0.5720942E-005  0.3852561E+03  0.7546771E-02  0.1049008E+00
         21   -1    0    0  502  501  0.00000000000E+00  0.00000000000E+00  0.10195577106E+03  0.10195577106E+03  0.00000000000E+00 0.  1.
         21   -1    0    0  501  502 -0.00000000000E+00 -0.00000000000E+00 -0.14557514333E+04  0.14557514333E+04  0.00000000000E+00 0.  1.
         25    1    1    2    0    0 -0.78135606548E+02  0.76997978142E+02 -0.65954943667E+03  0.68019432595E+03  0.12500000000E+03 0.  0.
         25    1    1    2    0    0  0.16153240153E+03  0.15707886885E+03 -0.30879146864E+03  0.40217366757E+03  0.12500000000E+03 0.  0.
         25    1    1    2    0    0 -0.83396794978E+02 -0.23407684700E+03 -0.38545475695E+03  0.47533921085E+03  0.12500000000E+03 0.  0.
</event>
<event>
 5    0  0.5720942E-005  0.2472087E+03  0.7546771E-02  0.1115082E+00
         21   -1    0    0  502  501  0.00000000000E+00  0.00000000000E+00  0.38073210155E+02  0.38073210155E+02  0.00000000000E+00 0.  1.
         21   -1    0    0  501  502 -0.00000000000E+00 -0.00000000000E+00 -0.16051223534E+04  0.16051223534E+04  0.00000000000E+00 0.  1.
         25    1    1    2    0    0 -0.46306782050E+02 -0.42059026356E+02 -0.30302238460E+03  0.33370772441E+03  0.12500000000E+03 0.  0.
         25    1    1    2    0    0 -0.59594536248E+02 -0.51242215583E+02 -0.67753130521E+03  0.69343416627E+03  0.12500000000E+03 0.  0.
         25    1    1    2    0    0  0.10590131830E+03  0.93301241939E+02 -0.58649545342E+03  0.61605367286E+03  0.12500000000E+03 0.  0.
</event>
<event>
 5    0  0.5720942E-005  0.5845184E+03  0.7546771E-02  0.9938056E-01
         21   -1    0    0  502  501  0.00000000000E+00  0.00000000000E+00  0.53677198853E+03  0.53677198853E+03  0.00000000000E+00 0.  1.
         21   -1    0    0  501  502 -0.00000000000E+00 -0.00000000000E+00 -0.63651200532E+03  0.63651200532E+03  0.00000000000E+00 0. -1.
         25    1    1    2    0    0 -0.55282196262E+01  0.15109986634E+03  0.25127485050E+03  0.31878798803E+03  0.12500000000E+03 0.  0.
         25    1    1    2    0    0  0.19520650837E+03 -0.38158622681E+03 -0.26674781030E+03  0.52008943817E+03  0.12500000000E+03 0.  0.
         25    1    1    2    0    0 -0.18967828874E+03  0.23048636047E+03 -0.84267056993E+02  0.33440656764E+03  0.12500000000E+03 0.  0.
</event>
<event>
 5    0  0.5720942E-005  0.2067080E+03  0.7546771E-02  0.1144200E+00
         21   -1    0    0  502  501  0.00000000000E+00  0.00000000000E+00  0.48428049266E+03  0.48428049266E+03  0.00000000000E+00 0. -1.
         21   -1    0    0  501  502 -0.00000000000E+00 -0.00000000000E+00 -0.88230245087E+02  0.88230245087E+02  0.00000000000E+00 0. -1.
         25    1    1    2    0    0 -0.48539549869E+02 -0.40355021905E+02  0.11186676419E+03  0.17923110395E+03  0.12500000000E+03 0.  0.
         25    1    1    2    0    0 -0.15980176271E+02  0.35595764696E+02  0.13015483319E+03  0.18462855982E+03  0.12500000000E+03 0.  0.
         25    1    1    2    0    0  0.64519726140E+02  0.47592572085E+01  0.15402865019E+03  0.20865107397E+03  0.12500000000E+03 0.  0.
</event>
<event>
 5    0  0.5720942E-005  0.3146746E+03  0.7546771E-02  0.1078127E+00
         21   -1    0    0  502  501  0.00000000000E+00  0.00000000000E+00  0.13683439295E+03  0.13683439295E+03  0.00000000000E+00 0.  1.
         21   -1    0    0  501  502 -0.00000000000E+00 -0.00000000000E+00 -0.72364921963E+03  0.72364921963E+03  0.00000000000E+00 0.  1.
         25    1    1    2    0    0  0.12335424957E+03 -0.16556797343E+02 -0.24217683177E+03  0.29960810448E+03  0.12500000000E+03 0.  0.
         25    1    1    2    0    0 -0.20852508848E+03 -0.71791753054E+02 -0.27033582723E+03  0.37059847249E+03  0.12500000000E+03 0.  0.
         25    1    1    2    0    0  0.85170838908E+02  0.88348550397E+02 -0.74302167691E+02  0.19027703561E+03  0.12500000000E+03 0.  0.
</event>
<event>
 5    0  0.5720942E-005  0.3673634E+03  0.7546771E-02  0.1055706E+00
         21   -1    0    0  502  501  0.00000000000E+00  0.00000000000E+00  0.11448956863E+03  0.11448956863E+03  0.00000000000E+00 0. -1.
         21   -1    0    0  501  502 -0.00000000000E+00 -0.00000000000E+00 -0.11787610383E+04  0.11787610383E+04  0.00000000000E+00 0. -1.
         25    1    1    2    0    0  0.12002538340E+03  0.14730864429E+03 -0.74570523624E+03  0.77961992580E+03  0.12500000000E+03 0.  0.
         25    1    1    2    0    0 -0.18322161683E+03 -0.13802917934E+03 -0.18733444337E+03  0.32146758607E+03  0.12500000000E+03 0.  0.
         25    1    1    2    0    0  0.63196233422E+02 -0.92794649526E+01 -0.13123179010E+03  0.19216309511E+03  0.12500000000E+03 0.  0.
</event>
<event>
 5    0  0.5720942E-005  0.2205475E+03  0.7546771E-02  0.1133476E+00
         21   -1    0    0  502  501  0.00000000000E+00  0.00000000000E+00  0.18784786332E+03  0.18784786332E+03  0.00000000000E+00 0.  1.
         21   -1    0    0  501  502 -0.00000000000E+00 -0.00000000000E+00 -0.25893935683E+03  0.25893935683E+03  0.00000000000E+00 0.  1.
         25    1    1    2    0    0 -0.13889936530E+02  0.62401389614E+02 -0.13798026416E+02  0.14107533199E+03  0.12500000000E+03 0.  0.
         25    1    1    2    0    0 -0.33998108412E+02 -0.53120608034E+02 -0.91478432450E+02  0.16724525098E+03  0.12500000000E+03 0.  0.
         25    1    1    2    0    0  0.47888044941E+02 -0.92807815806E+01  0.34184965359E+02  0.13846663718E+03  0.12500000000E+03 0.  0.
</event>
<event>
 5    0  0.5720942E-005  0.4605902E+03  0.7546771E-02  0.1024610E+00
         21   -1    0    0  502  501  0.00000000000E+00  0.00000000000E+00  0.20500480869E+03  0.20500480869E+03  0.00000000000E+00 0. -1.
         21   -1    0    0  501  502 -0.00000000000E+00 -0.00000000000E+00 -0.10348212477E+04  0.10348212477E+04  0.00000000000E+00 0. -1.
         25    1    1    2    0    0  0.98237801082E+02  0.36315109143E+03 -0.19065050874E+03  0.43988861914E+03  0.12500000000E+03 0.  0.
         25    1    1    2    0    0 -0.25638427751E+01 -0.82841612134E+02 -0.28195444982E+03  0.31936283090E+03  0.12500000000E+03 0.  0.
         25    1    1    2    0    0 -0.95673958307E+02 -0.28030947930E+03 -0.35721148041E+03  0.48057460630E+03  0.12500000000E+03 0.  0.
</event>
<event>
 5    0  0.5720942E-005  0.3068710E+03  0.7546771E-02  0.1081855E+00
         21   -1    0    0  502  501  0.00000000000E+00  0.00000000000E+00  0.13840060685E+03  0.13840060685E+03  0.00000000000E+00 0.  1.
         21   -1    0    0  501  502 -0.00000000000E+00 -0.00000000000E+00 -0.68041466994E+03  0.68041466994E+03  0.00000000000E+00 0.  1.
         25    1    1    2    0    0  0.17300936458E+03 -0.68481267679E+01 -0.32492634959E+03  0.38882035663E+03  0.12500000000E+03 0.  0.
         25    1    1    2    0    0 -0.88690295592E+02  0.97863974583E+02 -0.16698694693E+03  0.24688654580E+03  0.12500000000E+03 0.  0.
         25    1    1    2    0    0 -0.84319068993E+02 -0.91015847815E+02 -0.50100766567E+02  0.18310837436E+03  0.12500000000E+03 0.  0.
</event>
<event>
 5    0  0.5720942E-005  0.2080240E+03  0.7546771E-02  0.1143140E+00
         21   -1    0    0  502  501  0.00000000000E+00  0.00000000000E+00  0.25230794104E+04  0.25230794104E+04  0.00000000000E+00 0. -1.
         21   -1    0    0  501  502 -0.00000000000E+00 -0.00000000000E+00 -0.17151259390E+02  0.17151259390E+02  0.00000000000E+00 0. -1.
         25    1    1    2    0    0 -0.28000402601E+02 -0.20886491129E+02  0.91353168667E+03  0.92270548422E+03  0.12500000000E+03 0.  0.
         25    1    1    2    0    0  0.57330896732E+02 -0.71710150187E+01  0.55462540100E+03  0.57146530132E+03  0.12500000000E+03 0.  0.
         25    1    1    2    0    0 -0.29330494130E+02  0.28057506148E+02  0.10377710633E+04  0.10460598842E+04  0.12500000000E+03 0.  0.
</event>
<event>
 5    0  0.5720942E-005  0.2097753E+03  0.7546771E-02  0.1141744E+00
         21   -1    0    0  502  501  0.00000000000E+00  0.00000000000E+00  0.15786881229E+03  0.15786881229E+03  0.00000000000E+00 0. -1.
         21   -1    0    0  501  502 -0.00000000000E+00 -0.00000000000E+00 -0.27874828709E+03  0.27874828709E+03  0.00000000000E+00 0. -1.
         25    1    1    2    0    0 -0.21072056166E+02 -0.29888186734E+02 -0.81200196235E+02  0.15347901200E+03  0.12500000000E+03 0.  0.
         25    1    1    2    0    0 -0.16433400936E+02 -0.37048335170E+02 -0.82613539784E+00  0.13140897346E+03  0.12500000000E+03 0.  0.
         25    1    1    2    0    0  0.37505457102E+02  0.66936521904E+02 -0.38853143174E+02  0.15172911392E+03  0.12500000000E+03 0.  0.
</event>
<event>
 5    0  0.5720942E-005  0.3200519E+03  0.7546771E-02  0.1075625E+00
         21   -1    0    0  502  501  0.00000000000E+00  0.00000000000E+00  0.77877978069E+03  0.77877978069E+03  0.00000000000E+00 0.  1.
         21   -1    0    0  501  502 -0.00000000000E+00 -0.00000000000E+00 -0.13153037673E+03  0.13153037673E+03  0.00000000000E+00 0.  1.
         25    1    1    2    0    0  0.48750466776E+02 -0.22516764587E+02 -0.83831475962E+01  0.13630440148E+03  0.12500000000E+03 0.  0.
         25    1    1    2    0    0 -0.66423886938E+02 -0.14422743730E+03  0.33255582360E+03  0.38914272733E+03  0.12500000000E+03 0.  0.
         25    1    1    2    0    0  0.17673420162E+02  0.16674420188E+03  0.32307672795E+03  0.38486302861E+03  0.12500000000E+03 0.  0.
</event>
<event>
 5    0  0.5720942E-005  0.3856667E+03  0.7546771E-02  0.1048859E+00
         21   -1    0    0  502  501  0.00000000000E+00  0.00000000000E+00  0.25233957157E+03  0.25233957157E+03  0.00000000000E+00 0. -1.
         21   -1    0    0  501  502 -0.00000000000E+00 -0.00000000000E+00 -0.58943898551E+03  0.58943898551E+03  0.00000000000E+00 0. -1.
         25    1    1    2    0    0  0.10328820822E+03  0.34901233453E+02 -0.20818705675E+03  0.26618302097E+03  0.12500000000E+03 0.  0.
         25    1    1    2    0    0  0.22412715449E+02  0.19441909960E+03  0.46456950097E+02  0.23682137639E+03  0.12500000000E+03 0.  0.
         25    1    1    2    0    0 -0.12570092367E+03 -0.22932033305E+03 -0.17536930728E+03  0.33877415972E+03  0.12500000000E+03 0.  0.
</event>
<event>
 5    0  0.5720942E-005  0.2255701E+03  0.7546771E-02  0.1129797E+00
         21   -1    0    0  502  501  0.00000000000E+00  0.00000000000E+00  0.34581377828E+03  0.34581377828E+03  0.00000000000E+00 0. -1.
         21   -1    0    0  501  502 -0.00000000000E+00 -0.00000000000E+00 -0.14713656216E+03  0.14713656216E+03  0.00000000000E+00 0. -1.
         25    1    1    2    0    0 -0.15458088834E+02 -0.66274423662E+02  0.50255523766E+02  0.15093664039E+03  0.12500000000E+03 0.  0.
         25    1    1    2    0    0  0.66959968277E+02  0.75314663759E+02  0.12724837379E+03  0.20487333785E+03  0.12500000000E+03 0.  0.
         25    1    1    2    0    0 -0.51501879443E+02 -0.90402400971E+01  0.21173318571E+02  0.13714036221E+03  0.12500000000E+03 0.  0.
</event>
<event>
 5    0  0.5720942E-005  0.2602433E+03  0.7546771E-02  0.1106997E+00
         21   -1    0    0  502  501  0.00000000000E+00  0.00000000000E+00  0.60480056289E+02  0.60480056289E+02  0.00000000000E+00 0. -1.
         21   -1    0    0  501  502 -0.00000000000E+00 -0.00000000000E+00 -0.11198167220E+04  0.11198167220E+04  0.00000000000E+00 0. -1.
         25    1    1    2    0    0  0.83761901484E+02 -0.64299157891E+02 -0.21480577524E+03  0.27003140359E+03  0.12500000000E+03 0.  0.
         25    1    1    2    0    0 -0.42500444134E+02 -0.46500846067E+02 -0.56452735550E+03  0.58162251636E+03  0.12500000000E+03 0.  0.
         25    1    1    2    0    0 -0.41261457349E+02  0.11080000396E+03 -0.28000353496E+03  0.32864285833E+03  0.12500000000E+03 0.  0.
</event>
<event>
 5    0  0.5720942E-005  0.3161354E+03  0.7546771E-02  0.1077442E+00
         21   -1    0    0  502  501  0.00000000000E+00  0.00000000000E+00  0.52648911052E+03  0.52648911052E+03  0.00000000000E+00 0. -1.
         21   -1    0    0  501  502 -0.00000000000E+00 -0.00000000000E+00 -0.18982651935E+03  0.18982651935E+03  0.00000000000E+00 0. -1.
         25    1    1    2    0    0  0.47774884579E+02  0.10963189250E+02 -0.11826636283E+03  0.17892614033E+03  0.12500000000E+03 0.  0.
         25    1    1    2    0    0  0.99870580568E+01  0.43257850211E+02  0.16354497886E+03  0.21057764137E+03  0.12500000000E+03 0.  0.
         25    1    1    2    0    0 -0.57761942636E+02 -0.54221039460E+02  0.29138397514E+03  0.32681184817E+03  0.12500000000E+03 0.  0.
</event>
<event>
 5    0  0.5824949E-005  0.3396899E+03  0.7546771E-02  0.1066928E+00
         21   -1    0    0  502  501  0.00000000000E+00  0.00000000000E+00  0.77297224879E+03  0.77297224879E+03  0.00000000000E+00 0.  1.
         21   -1    0    0  501  502 -0.00000000000E+00 -0.00000000000E+00 -0.14927992400E+03  0.14927992400E+03  0.00000000000E+00 0.  1.
         25    1    1    2    0    0  0.88164710596E+01  0.24056288137E+02  0.24541134576E+02  0.12993730199E+03  0.12500000000E+03 0.  0.
         25    1    1    2    0    0  0.18416869533E+03  0.85405849564E+02  0.16827691086E+03  0.29181224479E+03  0.12500000000E+03 0.  0.
         25    1    1    2    0    0 -0.19298516639E+03 -0.10946213770E+03  0.43087427936E+03  0.50050262602E+03  0.12500000000E+03 0.  0.
</event>
<event>
 5    0  0.5720942E-005  0.2845138E+03  0.7546771E-02  0.1093249E+00
         21   -1    0    0  502  501  0.00000000000E+00  0.00000000000E+00  0.91874459893E+03  0.91874459893E+03  0.00000000000E+00 0.  1.
         21   -1    0    0  501  502 -0.00000000000E+00 -0.00000000000E+00 -0.88107324321E+02  0.88107324321E+02  0.00000000000E+00 0.  1.
         25    1    1    2    0    0 -0.99304462060E+02  0.39150930996E+02  0.33868197874E+03  0.37646335054E+03  0.12500000000E+03 0.  0.
         25    1    1    2    0    0 -0.73913514692E+02  0.56308087659E+02  0.15144168600E+03  0.21724040289E+03  0.12500000000E+03 0.  0.
         25    1    1    2    0    0  0.17321797675E+03 -0.95459018656E+02  0.34051360988E+03  0.41314816982E+03  0.12500000000E+03 0.  0.
</event>
<event>
 5    0  0.5720942E-005  0.5815015E+03  0.7546771E-02  0.9944546E-01
         21   -1    0    0  502  501  0.00000000000E+00  0.00000000000E+00  0.58341187251E+03  0.58341187251E+03  0.00000000000E+00 0. -1.
         21   -1    0    0  501  502 -0.00000000000E+00 -0.00000000000E+00 -0.57959745264E+03  0.57959745264E+03  0.00000000000E+00 0. -1.
         25    1    1    2    0    0 -0.16964655360E+02  0.21887646121E+03 -0.16348446249E+03  0.30091007673E+03  0.12500000000E+03 0.  0.
         25    1    1    2    0    0  0.28472729744E+03 -0.39411693259E+03  0.10689333542E+03  0.51327280818E+03  0.12500000000E+03 0.  0.
         25    1    1    2    0    0 -0.26776264208E+03  0.17524047138E+03  0.60405546934E+02  0.34882644023E+03  0.12500000000E+03 0.  0.
</event>
<event>
 5    0  0.5720942E-005  0.2862593E+03  0.7546771E-02  0.1092319E+00
         21   -1    0    0  502  501  0.00000000000E+00  0.00000000000E+00  0.91050246863E+02  0.91050246863E+02  0.00000000000E+00 0. -1.
         21   -1    0    0  501  502 -0.00000000000E+00 -0.00000000000E+00 -0.89999079648E+03  0.89999079648E+03  0.00000000000E+00 0. -1.
         25    1    1    2    0    0  0.57529657919E+02 -0.19787119025E+02 -0.21355909025E+03  0.25482087169E+03  0.12500000000E+03 0.  0.
         25    1    1    2    0    0 -0.14894630483E+03 -0.10760806663E+03 -0.23257395311E+03  0.32168329362E+03  0.12500000000E+03 0.  0.
         25    1    1    2    0    0  0.91416646912E+02  0.12739518565E+03 -0.36280750625E+03  0.41453687803E+03  0.12500000000E+03 0.  0.
</event>
<event>
 5    0  0.5720942E-005  0.2591482E+03  0.7546771E-02  0.1107656E+00
         21   -1    0    0  502  501  0.00000000000E+00  0.00000000000E+00  0.48616980201E+03  0.48616980201E+03  0.00000000000E+00 0.  1.
         21   -1    0    0  501  502 -0.00000000000E+00 -0.00000000000E+00 -0.13813652289E+03  0.13813652289E+03  0.00000000000E+00 0.  1.
         25    1    1    2    0    0  0.93093468195E+02 -0.89252283475E+01  0.19892741457E+03  0.25286986730E+03  0.12500000000E+03 0.  0.
         25    1    1    2    0    0 -0.66927790238E+02  0.84131658368E+02  0.53426207821E+01  0.16495759650E+03  0.12500000000E+03 0.  0.
         25    1    1    2    0    0 -0.26165677957E+02 -0.75206430020E+02  0.14376324377E+03  0.20647886110E+03  0.12500000000E+03 0.  0.
</event>
<event>
 5    0  0.5720942E-005  0.5956588E+03  0.7546771E-02  0.9914454E-01
         21   -1    0    0  502  501  0.00000000000E+00  0.00000000000E+00  0.11193337396E+04  0.11193337396E+04  0.00000000000E+00 0. -1.
         21   -1    0    0  501  502 -0.00000000000E+00 -0.00000000000E+00 -0.31698271224E+03  0.31698271224E+03  0.00000000000E+00 0. -1.
         25    1    1    2    0    0  0.15023254635E+03  0.17326463666E+03  0.63203534094E+03  0.68387434847E+03  0.12500000000E+03 0.  0.
         25    1    1    2    0    0 -0.51107550965E+02  0.14150953976E+03  0.31520201188E+03  0.37096393343E+03  0.12500000000E+03 0.  0.
         25    1    1    2    0    0 -0.99124995385E+02 -0.31477417643E+03 -0.14488632545E+03  0.38147816996E+03  0.12500000000E+03 0.  0.
</event>
<event>
 5    0  0.5720942E-005  0.3720788E+03  0.7546771E-02  0.1053901E+00
         21   -1    0    0  502  501  0.00000000000E+00  0.00000000000E+00  0.42061573302E+03  0.42061573302E+03  0.00000000000E+00 0.  1.
         21   -1    0    0  501  502 -0.00000000000E+00 -0.00000000000E+00 -0.32914279671E+03  0.32914279671E+03  0.00000000000E+00 0.  1.
         25    1    1    2    0    0  0.36344191001E+02 -0.15699695316E+02  0.17075306679E+01  0.13113083662E+03  0.12500000000E+03 0.  0.
         25    1    1    2    0    0 -0.93045551884E+02  0.10054035810E+03  0.30055641558E+03  0.35316426388E+03  0.12500000000E+03 0.  0.
         25    1    1    2    0    0  0.56701360882E+02 -0.84840662789E+02 -0.21079100994E+03  0.26546342923E+03  0.12500000000E+03 0.  0.
</event>
<event>
 5    0  0.5720942E-005  0.2259756E+03  0.7546771E-02  0.1129505E+00
         21   -1    0    0  502  501  0.00000000000E+00  0.00000000000E+00  0.21241536509E+03  0.21241536509E+03  0.00000000000E+00 0.  1.
         21   -1    0    0  501  502 -0.00000000000E+00 -0.00000000000E+00 -0.24040159009E+03  0.24040159009E+03  0.00000000000E+00 0.  1.
         25    1    1    2    0    0 -0.40363556559E+02 -0.64845735888E+02 -0.55723757650E+02  0.15673009707E+03  0.12500000000E+03 0.  0.
         25    1    1    2    0    0  0.66678706281E+02 -0.17561007916E+02  0.14867845776E+02  0.14352871388E+03  0.12500000000E+03 0.  0.
         25    1    1    2    0    0 -0.26315149722E+02  0.82406743803E+02  0.12869686873E+02  0.15255814422E+03  0.12500000000E+03 0.  0.
</event>
<event>
 5    0  0.5720942E-005  0.3654778E+03  0.7546771E-02  0.1056436E+00
         21   -1    0    0  502  501  0.00000000000E+00  0.00000000000E+00  0.28855686474E+03  0.28855686474E+03  0.00000000000E+00 0. -1.
         21   -1    0    0  501  502 -0.00000000000E+00 -0.00000000000E+00 -0.46290361841E+03  0.46290361841E+03  0.00000000000E+00 0. -1.
         25    1    1    2    0    0 -0.27568524793E+02  0.10143436108E+03  0.11682493418E+03  0.20080343228E+03  0.12500000000E+03 0.  0.
         25    1    1    2    0    0  0.12893773858E+03 -0.92537175110E+02 -0.32809029078E+03  0.38530028305E+03  0.12500000000E+03 0.  0.
         25    1    1    2    0    0 -0.10136921379E+03 -0.88971859747E+01  0.36918602925E+02  0.16535676782E+03  0.12500000000E+03 0.  0.
</event>
<event>
 5    0  0.5720942E-005  0.3647561E+03  0.7546771E-02  0.1056716E+00
         21   -1    0    0  502  501  0.00000000000E+00  0.00000000000E+00  0.25277491807E+03  0.25277491807E+03  0.00000000000E+00 0.  1.
         21   -1    0    0  501  502 -0.00000000000E+00 -0.00000000000E+00 -0.52634590392E+03  0.52634590392E+03  0.00000000000E+00 0.  1.
         25    1    1    2    0    0  0.11153904126E+03 -0.11275619980E+03  0.14097855595E+03  0.24628209752E+03  0.12500000000E+03 0.  0.
         25    1    1    2    0    0 -0.10963929513E+03  0.11052929657E+03 -0.31531667626E+03  0.37321187919E+03  0.12500000000E+03 0.  0.
         25    1    1    2    0    0 -0.18997461250E+01  0.22269032295E+01 -0.99232865548E+02  0.15962684529E+03  0.12500000000E+03 0.  0.
</event>
<event>
 5    0  0.5720942E-005  0.2490197E+03  0.7546771E-02  0.1113926E+00
         21   -1    0    0  502  501  0.00000000000E+00  0.00000000000E+00  0.14337189619E+03  0.14337189619E+03  0.00000000000E+00 0. -1.
         21   -1    0    0  501  502 -0.00000000000E+00 -0.00000000000E+00 -0.43251717892E+03  0.43251717892E+03  0.00000000000E+00 0. -1.
         25    1    1    2    0    0  0.25248109668E+02 -0.80293555651E+01 -0.25040062001E+03  0.28111813904E+03  0.12500000000E+03 0.  0.
         25    1    1    2    0    0  0.21452268421E+02  0.54196706162E+01 -0.85839062411E+02  0.15324136937E+03  0.12500000000E+03 0.  0.
         25    1    1    2    0    0 -0.46700378089E+02  0.26096849490E+01  0.47094399698E+02  0.14152956671E+03  0.12500000000E+03 0.  0.
</event>
<event>
 5    0  0.5720942E-005  0.3483169E+03  0.7546771E-02  0.1063308E+00
         21   -1    0    0  502  501  0.00000000000E+00  0.00000000000E+00  0.15152227956E+03  0.15152227956E+03  0.00000000000E+00 0. -1.
         21   -1    0    0  501  502 -0.00000000000E+00 -0.00000000000E+00 -0.80070499340E+03  0.80070499340E+03  0.00000000000E+00 0. -1.
         25    1    1    2    0    0 -0.16850725035E+03  0.28060337703E+02 -0.30269303580E+03  0.36936452170E+03  0.12500000000E+03 0.  0.
         25    1    1    2    0    0 -0.66146472052E+01  0.10531955267E+03 -0.12898395720E+02  0.16409549154E+03  0.12500000000E+03 0.  0.
         25    1    1    2    0    0  0.17512189755E+03 -0.13337989038E+03 -0.33359128232E+03  0.41876725971E+03  0.12500000000E+03 0.  0.
</event>
<event>
 5    0  0.8016264E-005  0.6485904E+03  0.7546771E-02  0.9809428E-01
         21   -1    0    0  502  501  0.00000000000E+00  0.00000000000E+00  0.12952649334E+04  0.12952649334E+04  0.00000000000E+00 0. -1.
         21   -1    0    0  501  502 -0.00000000000E+00 -0.00000000000E+00 -0.32477486229E+03  0.32477486229E+03  0.00000000000E+00 0. -1.
         25    1    1    2    0    0 -0.25790189149E+03  0.13829123987E+03  0.37198529813E+03  0.48952621450E+03  0.12500000000E+03 0.  0.
         25    1    1    2    0    0  0.16914247654E+03  0.17963361329E+03 -0.14147023844E+03  0.31067063067E+03  0.12500000000E+03 0.  0.
         25    1    1    2    0    0  0.88759414950E+02 -0.31792485316E+03  0.73997501138E+03  0.81984295049E+03  0.12500000000E+03 0.  0.
</event>
<event>
 5    0  0.5720942E-005  0.3531672E+03  0.7546771E-02  0.1061323E+00
         21   -1    0    0  502  501  0.00000000000E+00  0.00000000000E+00  0.24132448141E+04  0.24132448141E+04  0.00000000000E+00 0.  1.
         21   -1    0    0  501  502 -0.00000000000E+00 -0.00000000000E+00 -0.51684369192E+02  0.51684369192E+02  0.00000000000E+00 0.  1.
         25    1    1    2    0    0 -0.11145590346E+03  0.84424104771E+02  0.42081933867E+03  0.46072091735E+03  0.12500000000E+03 0.  0.
         25    1    1    2    0    0 -0.72100800003E+02 -0.79863765282E+02  0.15155093077E+04  0.15244573487E+04  0.12500000000E+03 0.  0.
         25    1    1    2    0    0  0.18355670346E+03 -0.45603394891E+01  0.42523179853E+03  0.47975091721E+03  0.12500000000E+03 0.  0.
</event>
<event>
 5    0  0.5720942E-005  0.2472362E+03  0.7546771E-02  0.1115064E+00
         21   -1    0    0  502  501  0.00000000000E+00  0.00000000000E+00  0.13214907739E+03  0.13214907739E+03  0.00000000000E+00 0.  1.
         21   -1    0    0  501  502 -0.00000000000E+00 -0.00000000000E+00 -0.46255148553E+03  0.46255148553E+03  0.00000000000E+00 0.  1.
         25    1    1    2    0    0  0.56016890097E+02  0.10343203443E+03 -0.17535596519E+03  0.24537887491E+03  0.12500000000E+03 0.  0.
         25    1    1    2    0    0  0.11384596157E+02 -0.82651757279E+02 -0.18856532461E+02  0.15146448702E+03  0.12500000000E+03 0.  0.
         25    1    1    2    0    0 -0.67401486254E+02 -0.20780277155E+02 -0.13618991049E+03  0.19785720100E+03  0.12500000000E+03 0.  0.
</event>
<event>
 5    0  0.5720942E-005  0.2801464E+03  0.7546771E-02  0.1095609E+00
         21   -1    0    0  502  501  0.00000000000E+00  0.00000000000E+00  0.10254276329E+04  0.10254276329E+04  0.00000000000E+00 0.  1.
         21   -1    0    0  501  502 -0.00000000000E+00 -0.00000000000E+00 -0.76535894541E+02  0.76535894541E+02  0.00000000000E+00 0.  1.
         25    1    1    2    0    0  0.39197188259E+02  0.16124667509E+02  0.21170541784E+03  0.24948067743E+03  0.12500000000E+03 0.  0.
         25    1    1    2    0    0 -0.47188616727E+02 -0.51069892810E+02  0.47611521695E+02  0.15075396014E+03  0.12500000000E+03 0.  0.
         25    1    1    2    0    0  0.79914284679E+01  0.34945225301E+02  0.68957479879E+03  0.70172888984E+03  0.12500000000E+03 0.  0.
</event>
<event>
 5    0  0.5720942E-005  0.3503278E+03  0.7546771E-02  0.1062481E+00
         21   -1    0    0  502  501  0.00000000000E+00  0.00000000000E+00  0.13257025405E+04  0.13257025405E+04  0.00000000000E+00 0.  1.
         21   -1    0    0  501  502 -0.00000000000E+00 -0.00000000000E+00 -0.92576997601E+02  0.92576997601E+02  0.00000000000E+00 0.  1.
         25    1    1    2    0    0  0.17827992025E+02  0.10744606982E+02  0.52420981332E+03  0.53930901370E+03  0.12500000000E+03 0.  0.
         25    1    1    2    0    0 -0.27354275803E+02 -0.22464583630E+03  0.45983665655E+03  0.52753081320E+03  0.12500000000E+03 0.  0.
         25    1    1    2    0    0  0.95262837781E+01  0.21390122932E+03  0.24907907303E+03  0.35143971120E+03  0.12500000000E+03 0.  0.
</event>
<event>
 5    0  0.5720942E-005  0.5012160E+03  0.7546771E-02  0.1013462E+00
         21   -1    0    0  502  501  0.00000000000E+00  0.00000000000E+00  0.84877344511E+03  0.84877344511E+03  0.00000000000E+00 0. -1.
         21   -1    0    0  501  502 -0.00000000000E+00 -0.00000000000E+00 -0.29597712719E+03  0.29597712719E+03  0.00000000000E+00 0. -1.
         25    1    1    2    0    0 -0.19390215296E+03  0.28222763475E+03 -0.35815000364E+02  0.36627612124E+03  0.12500000000E+03 0.  0.
         25    1    1    2    0    0  0.10257780832E+03 -0.27942475062E+03  0.51308761295E+03  0.60620483054E+03  0.12500000000E+03 0.  0.
         25    1    1    2    0    0  0.91324344644E+02 -0.28028841301E+01  0.75523705342E+02  0.17226962052E+03  0.12500000000E+03 0.  0.
</event>
<event>
 5    0  0.5720942E-005  0.2177354E+03  0.7546771E-02  0.1135583E+00
         21   -1    0    0  502  501  0.00000000000E+00  0.00000000000E+00  0.21905423214E+04  0.21905423214E+04  0.00000000000E+00 0. -1.
         21   -1    0    0  501  502 -0.00000000000E+00 -0.00000000000E+00 -0.21642445359E+02  0.21642445359E+02  0.00000000000E+00 0. -1.
         25    1    1    2    0    0 -0.20724366062E+02 -0.40384155560E+02  0.74538873781E+03  0.75715899904E+03  0.12500000000E+03 0.  0.
         25    1    1    2    0    0  0.75769814747E+02 -0.13820707809E+02  0.87197828169E+03  0.88425290530E+03  0.12500000000E+03 0.  0.
         25    1    1    2    0    0 -0.55045448685E+02  0.54204863369E+02  0.55153285655E+03  0.57077286243E+03  0.12500000000E+03 0.  0.
</event>
<event>
 5    0  0.5720942E-005  0.3858137E+03  0.7546771E-02  0.1048806E+00
         21   -1    0    0  502  501  0.00000000000E+00  0.00000000000E+00  0.43614042868E+03  0.43614042868E+03  0.00000000000E+00 0. -1.
         21   -1    0    0  501  502 -0.00000000000E+00 -0.00000000000E+00 -0.34129422003E+03  0.34129422003E+03  0.00000000000E+00 0. -1.
         25    1    1    2    0    0 -0.21348474712E+03 -0.15631548960E+03  0.92497022540E+02  0.30690547196E+03  0.12500000000E+03 0.  0.
         25    1    1    2    0    0 -0.68205730829E+01 -0.37111088059E+02  0.64794183260E+02  0.14576364176E+03  0.12500000000E+03 0.  0.
         25    1    1    2    0    0  0.22030532020E+03  0.19342657766E+03 -0.62444997157E+02  0.32476553500E+03  0.12500000000E+03 0.  0.
</event>
<event>
 5    0  0.5720942E-005  0.2293805E+03  0.7546771E-02  0.1127077E+00
         21   -1    0    0  502  501  0.00000000000E+00  0.00000000000E+00  0.21314420347E+02  0.21314420347E+02  0.00000000000E+00 0.  1.
         21   -1    0    0  501  502 -0.00000000000E+00 -0.00000000000E+00 -0.24685356664E+04  0.24685356664E+04  0.00000000000E+00 0.  1.
         25    1    1    2    0    0 -0.44208675301E+02  0.53201641061E+02 -0.45371453283E+03  0.47567499292E+03  0.12500000000E+03 0.  0.
         25    1    1    2    0    0  0.49880185482E+02  0.14549673480E+02 -0.12385556548E+04  0.12459313127E+04  0.12500000000E+03 0.  0.
         25    1    1    2    0    0 -0.56715101812E+01 -0.67751314542E+02 -0.75495105842E+03  0.76824378114E+03  0.12500000000E+03 0.  0.
</event>
<event>
 5    0  0.5720942E-005  0.2906599E+03  0.7546771E-02  0.1090005E+00
         21   -1    0    0  502  501  0.00000000000E+00  0.00000000000E+00  0.33415757806E+03  0.33415757806E+03  0.00000000000E+00 0. -1.
         21   -1    0    0  501  502 -0.00000000000E+00 -0.00000000000E+00 -0.25282434347E+03  0.25282434347E+03  0.00000000000E+00 0. -1.
         25    1    1    2    0    0  0.24063434231E+02  0.43886760218E+02 -0.66314341011E+02  0.15009226633E+03  0.12500000000E+03 0.  0.
         25    1    1    2    0    0 -0.76653828380E+02 -0.89763722436E+02  0.21778621415E+03  0.27746922414E+03  0.12500000000E+03 0.  0.
         25    1    1    2    0    0  0.52590394148E+02  0.45876962218E+02 -0.70138638548E+02  0.15942043105E+03  0.12500000000E+03 0.  0.
</event>
<event>
 5    0  0.5720942E-005  0.2419604E+03  0.7546771E-02  0.1118494E+00
         21   -1    0    0  502  501  0.00000000000E+00  0.00000000000E+00  0.80053949926E+03  0.80053949926E+03  0.00000000000E+00 0.  1.
         21   -1    0    0  501  502 -0.00000000000E+00 -0.00000000000E+00 -0.73131754564E+02  0.73131754564E+02  0.00000000000E+00 0.  1.
         25    1    1    2    0    0 -0.27605750800E+02 -0.29892787020E+02  0.39926973945E+03  0.42035340017E+03  0.12500000000E+03 0.  0.
         25    1    1    2    0    0  0.46411525207E+02  0.39836279720E+02  0.50403766378E+02  0.14800844070E+03  0.12500000000E+03 0.  0.
         25    1    1    2    0    0 -0.18805774406E+02 -0.99434926993E+01  0.27773423887E+03  0.30530941295E+03  0.12500000000E+03 0.  0.
</event>
<event>
 5    0  0.5796853E-005  0.2787461E+03  0.7546771E-02  0.1096376E+00
         21   -1    0    0  502  501  0.00000000000E+00  0.00000000000E+00  0.64224741433E+03  0.64224741433E+03  0.00000000000E+00 0. -1.
         21   -1    0    0  501  502 -0.00000000000E+00 -0.00000000000E+00 -0.12098043451E+03  0.12098043451E+03  0.00000000000E+00 0. -1.
         25    1    1    2    0    0  0.63117257785E+02 -0.87080992728E+02  0.13737030343E+03  0.21462173187E+03  0.12500000000E+03 0.  0.
         25    1    1    2    0    0 -0.34622829163E+02 -0.34711406439E+02  0.95686779391E+01  0.13461122403E+03  0.12500000000E+03 0.  0.
         25    1    1    2    0    0 -0.28494428623E+02  0.12179239917E+03  0.37432799845E+03  0.41399489294E+03  0.12500000000E+03 0.  0.
</event>
<event>
 5    0  0.5720942E-005  0.5144110E+03  0.7546771E-02  0.1010084E+00
         21   -1    0    0  502  501  0.00000000000E+00  0.00000000000E+00  0.17931330228E+03  0.17931330228E+03  0.00000000000E+00 0. -1.
         21   -1    0    0  501  502 -0.00000000000E+00 -0.00000000000E+00 -0.14757337128E+04  0.14757337128E+04  0.00000000000E+00 0. -1.
         25    1    1    2    0    0  0.12515353595E+03 -0.13706122755E+03 -0.77324052762E+03  0.80496900637E+03  0.12500000000E+03 0.  0.
         25    1    1    2    0    0  0.13096593171E+02  0.35885230496E+03 -0.29040910197E+03  0.47844429564E+03  0.12500000000E+03 0.  0.
         25    1    1    2    0    0 -0.13825012912E+03 -0.22179107740E+03 -0.23277078089E+03  0.37163371302E+03  0.12500000000E+03 0.  0.
</event>
<event>
 5    0  0.5720942E-005  0.2334428E+03  0.7546771E-02  0.1124240E+00
         21   -1    0    0  502  501  0.00000000000E+00  0.00000000000E+00  0.32311792056E+03  0.32311792056E+03  0.00000000000E+00 0. -1.
         21   -1    0    0  501  502 -0.00000000000E+00 -0.00000000000E+00 -0.16865531050E+03  0.16865531050E+03  0.00000000000E+00 0. -1.
         25    1    1    2    0    0  0.62418959101E+02  0.80482512897E+02  0.74039952430E+02  0.17742738203E+03  0.12500000000E+03 0.  0.
         25    1    1    2    0    0  0.36515809378E+02 -0.18388757153E+02  0.49323144145E+02  0.14046110947E+03  0.12500000000E+03 0.  0.
         25    1    1    2    0    0 -0.98934768479E+02 -0.62093755744E+02  0.31099513489E+02  0.17388473957E+03  0.12500000000E+03 0.  0.
</event>
<event>
 5    0  0.5720942E-005  0.2432266E+03  0.7546771E-02  0.1117662E+00
         21   -1    0    0  502  501  0.00000000000E+00  0.00000000000E+00  0.30410445399E+02  0.30410445399E+02  0.00000000000E+00 0. -1.
         21   -1    0    0  501  502 -0.00000000000E+00 -0.00000000000E+00 -0.19453578719E+04  0.19453578719E+04  0.00000000000E+00 0. -1.
         25    1    1    2    0    0  0.71474280623E+02 -0.88291646104E-01 -0.71987872908E+03  0.73413824663E+03  0.12500000000E+03 0.  0.
         25    1    1    2    0    0  0.51105861975E+02 -0.59636958344E+02 -0.62951974775E+03  0.64659762507E+03  0.12500000000E+03 0.  0.
         25    1    1    2    0    0 -0.12258014260E+03  0.59725249990E+02 -0.56554894963E+03  0.59503244556E+03  0.12500000000E+03 0.  0.
</event>
<event>
 5    0  0.5806298E-005  0.2770293E+03  0.7546771E-02  0.1097323E+00
         21   -1    0    0  502  501  0.00000000000E+00  0.00000000000E+00  0.39349190557E+03  0.39349190557E+03  0.00000000000E+00 0.  1.
         21   -1    0    0  501  502 -0.00000000000E+00 -0.00000000000E+00 -0.19503640360E+03  0.19503640360E+03  0.00000000000E+00 0.  1.
         25    1    1    2    0    0 -0.11196107638E+03  0.81774916245E+00  0.10690333717E+03  0.19897053761E+03  0.12500000000E+03 0.  0.
         25    1    1    2    0    0 -0.67969223748E+02 -0.50894955565E+02  0.60112226198E+02  0.16263022972E+03  0.12500000000E+03 0.  0.
         25    1    1    2    0    0  0.17993030013E+03  0.50077206402E+02  0.31439938600E+02  0.22692754184E+03  0.12500000000E+03 0.  0.
</event>
<event>
 5    0  0.5720942E-005  0.3532155E+03  0.7546771E-02  0.1061303E+00
         21   -1    0    0  502  501  0.00000000000E+00  0.00000000000E+00  0.95587022596E+03  0.95587022596E+03  0.00000000000E+00 0.  1.
         21   -1    0    0  501  502 -0.00000000000E+00 -0.00000000000E+00 -0.13052101753E+03  0.13052101753E+03  0.00000000000E+00 0.  1.
         25    1    1    2    0    0  0.15967465086E+03  0.17806498600E+03  0.32799471928E+03  0.42474541698E+03  0.12500000000E+03 0.  0.
         25    1    1    2    0    0 -0.20048364240E+03 -0.18521110977E+03  0.30013982532E+03  0.42450649087E+03  0.12500000000E+03 0.  0.
         25    1    1    2    0    0  0.40808991542E+02  0.71461237661E+01  0.19721466384E+03  0.23713933564E+03  0.12500000000E+03 0.  0.
</event>
<event>
 5    0  0.5720942E-005  0.2327324E+03  0.7546771E-02  0.1124731E+00
         21   -1    0    0  502  501  0.00000000000E+00  0.00000000000E+00  0.65073356778E+02  0.65073356778E+02  0.00000000000E+00 0.  1.
         21   -1    0    0  501  502 -0.00000000000E+00 -0.00000000000E+00 -0.83235885939E+03  0.83235885939E+03  0.00000000000E+00 0.  1.
         25    1    1    2    0    0 -0.26794561112E+02 -0.14092025567E+02 -0.61038971857E+02  0.14236323182E+03  0.12500000000E+03 0.  0.
         25    1    1    2    0    0  0.50452198897E+02  0.31089406379E+02 -0.34518472234E+03  0.37187291929E+03  0.12500000000E+03 0.  0.
         25    1    1    2    0    0 -0.23657637785E+02 -0.16997380812E+02 -0.36106180841E+03  0.38319606505E+03  0.12500000000E+03 0.  0.
</event>
<event>
 5    0  0.5720942E-005  0.2426029E+03  0.7546771E-02  0.1118071E+00
         21   -1    0    0  502  501  0.00000000000E+00  0.00000000000E+00  0.14162225148E+03  0.14162225148E+03  0.00000000000E+00 0. -1.
         21   -1    0    0  501  502 -0.00000000000E+00 -0.00000000000E+00 -0.41558566402E+03  0.41558566402E+03  0.00000000000E+00 0. -1.
         25    1    1    2    0    0  0.62689943631E+02 -0.70904458862E+02 -0.74704911716E+02  0.17367583353E+03  0.12500000000E+03 0.  0.
         25    1    1    2    0    0  0.83226450345E+01  0.70136649234E+02 -0.73706936197E+01  0.14376280155E+03  0.12500000000E+03 0.  0.
         25    1    1    2    0    0 -0.71012588665E+02  0.76780962727E+00 -0.19188780720E+03  0.23976928042E+03  0.12500000000E+03 0.  0.
</event>
<event>
 5    0  0.5720942E-005  0.3544575E+03  0.7546771E-02  0.1060800E+00
         21   -1    0    0  502  501  0.00000000000E+00  0.00000000000E+00  0.30413824705E+03  0.30413824705E+03  0.00000000000E+00 0.  1.
         21   -1    0    0  501  502 -0.00000000000E+00 -0.00000000000E+00 -0.41310195866E+03  0.41310195866E+03  0.00000000000E+00 0.  1.
         25    1    1    2    0    0  0.87990972475E+01  0.13462058394E+02  0.45831773800E+02  0.13410519236E+03  0.12500000000E+03 0.  0.
         25    1    1    2    0    0  0.73614995248E+02  0.12023611563E+03 -0.28660916705E+03  0.34299519773E+03  0.12500000000E+03 0.  0.
         25    1    1    2    0    0 -0.82414092496E+02 -0.13369817402E+03  0.13181368164E+03  0.24013981562E+03  0.12500000000E+03 0.  0.
</event>
<event>
 5    0  0.5720942E-005  0.3204413E+03  0.7546771E-02  0.1075446E+00
         21   -1    0    0  502  501  0.00000000000E+00  0.00000000000E+00  0.76200062356E+02  0.76200062356E+02  0.00000000000E+00 0.  1.
         21   -1    0    0  501  502 -0.00000000000E+00 -0.00000000000E+00 -0.13475402128E+04  0.13475402128E+04  0.00000000000E+00 0.  1.
         25    1    1    2    0    0  0.81607250947E+02 -0.96651859751E+02 -0.20254820725E+03  0.26954053807E+03  0.12500000000E+03 0.  0.
         25    1    1    2    0    0 -0.10931548200E+03  0.90458178211E+02 -0.98045893426E+03  0.99852755514E+03  0.12500000000E+03 0.  0.
         25    1    1    2    0    0  0.27708231053E+02  0.61936815400E+01 -0.88333008889E+02  0.15567218190E+03  0.12500000000E+03 0.  0.
</event>
<event>
 5    0  0.5720942E-005  0.2571305E+03  0.7546771E-02  0.1108880E+00
         21   -1    0    0  502  501  0.00000000000E+00  0.00000000000E+00  0.23868156822E+03  0.23868156822E+03  0.00000000000E+00 0.  1.
         21   -1    0    0  501  502 -0.00000000000E+00 -0.00000000000E+00 -0.27700535344E+03  0.27700535344E+03  0.00000000000E+00 0.  1.
         25    1    1    2    0    0  0.14531058317E+03 -0.62367194995E+00 -0.50682566179E+02  0.19826567293E+03  0.12500000000E+03 0.  0.
         25    1    1    2    0    0 -0.91591214238E+02 -0.57315046688E+02 -0.18821565485E+02  0.16629256276E+03  0.12500000000E+03 0.  0.
         25    1    1    2    0    0 -0.53719368936E+02  0.57938718638E+02  0.31180346452E+02  0.15112868596E+03  0.12500000000E+03 0.  0.
</event>
<event>
 5    0  0.5720942E-005  0.3175307E+03  0.7546771E-02  0.1076791E+00
         21   -1    0    0  502  501  0.00000000000E+00  0.00000000000E+00  0.18913965661E+03  0.18913965661E+03  0.00000000000E+00 0.  1.
         21   -1    0    0  501  502 -0.00000000000E+00 -0.00000000000E+00 -0.53307565119E+03  0.53307565119E+03  0.00000000000E+00 0.  1.
         25    1    1    2    0    0 -0.10859119989E+03 -0.90380464665E+01 -0.90189922203E+02  0.18876693843E+03  0.12500000000E+03 0.  0.
         25    1    1    2    0    0  0.19833077702E+01  0.79642189446E+02 -0.31196822478E+03  0.34539250878E+03  0.12500000000E+03 0.  0.
         25    1    1    2    0    0  0.10660789212E+03 -0.70604142979E+02  0.58222152399E+02  0.18805586058E+03  0.12500000000E+03 0.  0.
</event>
<event>
 5    0  0.5720942E-005  0.3234419E+03  0.7546771E-02  0.1074076E+00
         21   -1    0    0  502  501  0.00000000000E+00  0.00000000000E+00  0.33702551327E+03  0.33702551327E+03  0.00000000000E+00 0.  1.
         21   -1    0    0  501  502 -0.00000000000E+00 -0.00000000000E+00 -0.31040575655E+03  0.31040575655E+03  0.00000000000E+00 0.  1.
         25    1    1    2    0    0 -0.16926499369E+02 -0.66346580359E+02  0.37325498334E+02  0.14733148995E+03  0.12500000000E+03 0.  0.
         25    1    1    2    0    0  0.21908103272E+03  0.40697332925E+02 -0.42261544730E+02  0.25896681248E+03  0.12500000000E+03 0.  0.
         25    1    1    2    0    0 -0.20215453335E+03  0.25649247434E+02  0.31555803111E+02  0.24113296738E+03  0.12500000000E+03 0.  0.
</event>
<event>
 5    0  0.5720942E-005  0.2149458E+03  0.7546771E-02  0.1137708E+00
         21   -1    0    0  502  501  0.00000000000E+00  0.00000000000E+00  0.76405404578E+03  0.76405404578E+03  0.00000000000E+00 0.  1.
         21   -1    0    0  501  502 -0.00000000000E+00 -0.00000000000E+00 -0.60469147623E+02  0.60469147623E+02  0.00000000000E+00 0.  1.
         25    1    1    2    0    0  0.58394353895E+02  0.17373571027E+02  0.39484146297E+03  0.41861261617E+03  0.12500000000E+03 0.  0.
         25    1    1    2    0    0 -0.43020494554E+02 -0.32342773397E+02  0.17338922188E+03  0.22042150577E+03  0.12500000000E+03 0.  0.
         25    1    1    2    0    0 -0.15373859341E+02  0.14969202370E+02  0.13535421330E+03  0.18548907146E+03  0.12500000000E+03 0.  0.
</event>
<event>
 5    0  0.5720942E-005  0.3799263E+03  0.7546771E-02  0.1050961E+00
         21   -1    0    0  502  501  0.00000000000E+00  0.00000000000E+00  0.91440181201E+02  0.91440181201E+02  0.00000000000E+00 0. -1.
         21   -1    0    0  501  502 -0.00000000000E+00 -0.00000000000E+00 -0.15785621873E+04  0.15785621873E+04  0.00000000000E+00 0. -1.
         25    1    1    2    0    0 -0.13587944193E+03  0.10809449499E+02 -0.89663266647E+03  0.91550816791E+03  0.12500000000E+03 0.  0.
         25    1    1    2    0    0  0.66450722231E+02  0.17219842667E+03 -0.19656596935E+03  0.29720561391E+03  0.12500000000E+03 0.  0.
         25    1    1    2    0    0  0.69428719698E+02 -0.18300787616E+03 -0.39392337028E+03  0.45728858668E+03  0.12500000000E+03 0.  0.
</event>
<event>
 5    0  0.5720942E-005  0.3097112E+03  0.7546771E-02  0.1080484E+00
         21   -1    0    0  502  501  0.00000000000E+00  0.00000000000E+00  0.64784888831E+02  0.64784888831E+02  0.00000000000E+00 0.  1.
         21   -1    0    0  501  502 -0.00000000000E+00 -0.00000000000E+00 -0.14806077975E+04  0.14806077975E+04  0.00000000000E+00 0.  1.
         25    1    1    2    0    0 -0.66486148234E+02 -0.36168111007E+02 -0.25966594795E+03  0.29795963600E+03  0.12500000000E+03 0.  0.
         25    1    1    2    0    0 -0.78443412043E+02  0.52393817484E+02 -0.96075987054E+03  0.97343875505E+03  0.12500000000E+03 0.  0.
         25    1    1    2    0    0  0.14492956028E+03 -0.16225706477E+02 -0.19539709018E+03  0.27399429528E+03  0.12500000000E+03 0.  0.
</event>
<event>
 5    0  0.5720942E-005  0.2870663E+03  0.7546771E-02  0.1091891E+00
         21   -1    0    0  502  501  0.00000000000E+00  0.00000000000E+00  0.14772645312E+03  0.14772645312E+03  0.00000000000E+00 0.  1.
         21   -1    0    0  501  502 -0.00000000000E+00 -0.00000000000E+00 -0.55783565000E+03  0.55783565000E+03  0.00000000000E+00 0.  1.
         25    1    1    2    0    0  0.42822442530E+02 -0.73048596369E+02 -0.68066918113E+01  0.15113302111E+03  0.12500000000E+03 0.  0.
         25    1    1    2    0    0  0.93984567981E+02  0.30636453424E+01 -0.28106798888E+03  0.32166239960E+03  0.12500000000E+03 0.  0.
         25    1    1    2    0    0 -0.13680701051E+03  0.69984951026E+02 -0.12223451619E+03  0.23276668242E+03  0.12500000000E+03 0.  0.
</event>
<event>
 5    0  0.5720942E-005  0.3055941E+03  0.7546771E-02  0.1082477E+00
         21   -1    0    0  502  501  0.00000000000E+00  0.00000000000E+00  0.24054168439E+03  0.24054168439E+03  0.00000000000E+00 0.  1.
         21   -1    0    0  501  502 -0.00000000000E+00 -0.00000000000E+00 -0.38823928194E+03  0.38823928194E+03  0.00000000000E+00 0.  1.
         25    1    1    2    0    0  0.95270840782E+02 -0.15484621453E+03  0.23673735877E+01  0.22064561567E+03  0.12500000000E+03 0.  0.
         25    1    1    2    0    0  0.12045082633E+02  0.14936179242E+02  0.26301272405E+02  0.12917016063E+03  0.12500000000E+03 0.  0.
         25    1    1    2    0    0 -0.10731592342E+03  0.13991003528E+03 -0.17636624354E+03  0.27896519004E+03  0.12500000000E+03 0.  0.
</event>
<event>
 5    0  0.5720942E-005  0.6554574E+03  0.7546771E-02  0.9796592E-01
         21   -1    0    0  502  501  0.00000000000E+00  0.00000000000E+00  0.80456456427E+03  0.80456456427E+03  0.00000000000E+00 0. -1.
         21   -1    0    0  501  502 -0.00000000000E+00 -0.00000000000E+00 -0.53398374345E+03  0.53398374345E+03  0.00000000000E+00 0. -1.
         25    1    1    2    0    0  0.23392722477E+03  0.35890882557E+03  0.46262765480E+03  0.64279610962E+03  0.12500000000E+03 0.  0.
         25    1    1    2    0    0 -0.55547991403E+02  0.35293469631E+02 -0.20053296033E+03  0.24529508052E+03  0.12500000000E+03 0.  0.
         25    1    1    2    0    0 -0.17837923337E+03 -0.39420229520E+03  0.84861263447E+01  0.45045711758E+03  0.12500000000E+03 0.  0.
</event>
<event>
 5    0  0.5720942E-005  0.3067303E+03  0.7546771E-02  0.1081924E+00
         21   -1    0    0  502  501  0.00000000000E+00  0.00000000000E+00  0.26259706528E+03  0.26259706528E+03  0.00000000000E+00 0.  1.
         21   -1    0    0  501  502 -0.00000000000E+00 -0.00000000000E+00 -0.35828074226E+03  0.35828074226E+03  0.00000000000E+00 0.  1.
         25    1    1    2    0    0  0.80670958528E+02  0.49103876063E+02 -0.10825257480E+03  0.19042745113E+03  0.12500000000E+03 0.  0.
         25    1    1    2    0    0 -0.65082634270E+02  0.14070716843E+03 -0.20729036344E+02  0.20022225021E+03  0.12500000000E+03 0.  0.
         25    1    1    2    0    0 -0.15588324258E+02 -0.18981104449E+03  0.33297934166E+02  0.23022810620E+03  0.12500000000E+03 0.  0.
</event>
<event>
 5    0  0.5720942E-005  0.2512720E+03  0.7546771E-02  0.1112504E+00
         21   -1    0    0  502  501  0.00000000000E+00  0.00000000000E+00  0.17024186194E+03  0.17024186194E+03  0.00000000000E+00 0.  1.
         21   -1    0    0  501  502 -0.00000000000E+00 -0.00000000000E+00 -0.37087024413E+03  0.37087024413E+03  0.00000000000E+00 0.  1.
         25    1    1    2    0    0 -0.27594748364E+02 -0.12971408192E+02 -0.21530133574E+03  0.25081744903E+03  0.12500000000E+03 0.  0.
         25    1    1    2    0    0  0.60070799907E+02  0.61440149756E+02  0.11662036232E+01  0.15168966028E+03  0.12500000000E+03 0.  0.
         25    1    1    2    0    0 -0.32476051543E+02 -0.48468741564E+02  0.13506749928E+02  0.13860499676E+03  0.12500000000E+03 0.  0.
</event>
<event>
 5    0  0.5720942E-005  0.3544116E+03  0.7546771E-02  0.1060819E+00
         21   -1    0    0  502  501  0.00000000000E+00  0.00000000000E+00  0.58878964664E+02  0.58878964664E+02  0.00000000000E+00 0.  1.
         21   -1    0    0  501  502 -0.00000000000E+00 -0.00000000000E+00 -0.21333184179E+04  0.21333184179E+04  0.00000000000E+00 0. -1.
         25    1    1    2    0    0 -0.15959412462E+03 -0.16753161866E+03 -0.46743578217E+03  0.53633789565E+03  0.12500000000E+03 0.  0.
         25    1    1    2    0    0  0.46868135277E+02  0.52207625958E+02 -0.11006060451E+04  0.11099013131E+04  0.12500000000E+03 0.  0.
         25    1    1    2    0    0  0.11272598934E+03  0.11532399270E+03 -0.50639762595E+03  0.54595817380E+03  0.12500000000E+03 0.  0.
</event>
<event>
 5    0  0.5720942E-005  0.2991488E+03  0.7546771E-02  0.1085667E+00
         21   -1    0    0  502  501  0.00000000000E+00  0.00000000000E+00  0.47424911154E+02  0.47424911154E+02  0.00000000000E+00 0. -1.
         21   -1    0    0  501  502 -0.00000000000E+00 -0.00000000000E+00 -0.18869825374E+04  0.18869825374E+04  0.00000000000E+00 0. -1.
         25    1    1    2    0    0  0.15779519155E+03  0.46441175912E+02 -0.64310059027E+03  0.67546981761E+03  0.12500000000E+03 0.  0.
         25    1    1    2    0    0  0.17154412328E+00  0.82053066546E+02 -0.54125395319E+03  0.56152789512E+03  0.12500000000E+03 0.  0.
         25    1    1    2    0    0 -0.15796673567E+03 -0.12849424246E+03 -0.65520308276E+03  0.69740973580E+03  0.12500000000E+03 0.  0.
</event>
<event>
 5    0  0.5720942E-005  0.2295820E+03  0.7546771E-02  0.1126934E+00
         21   -1    0    0  502  501  0.00000000000E+00  0.00000000000E+00  0.19239788897E+03  0.19239788897E+03  0.00000000000E+00 0. -1.
         21   -1    0    0  501  502 -0.00000000000E+00 -0.00000000000E+00 -0.27395247325E+03  0.27395247325E+03  0.00000000000E+00 0. -1.
         25    1    1    2    0    0 -0.14569756674E+02  0.86689595038E+02 -0.38745218745E+02  0.15765010521E+03  0.12500000000E+03 0.  0.
         25    1    1    2    0    0 -0.20039115287E+02 -0.96898370370E+02  0.25986138679E+02  0.16152752002E+03  0.12500000000E+03 0.  0.
         25    1    1    2    0    0  0.34608871961E+02  0.10208775332E+02 -0.68795504207E+02  0.14717273698E+03  0.12500000000E+03 0.  0.
</event>
<event>
 5    0  0.5720942E-005  0.2992865E+03  0.7546771E-02  0.1085598E+00
         21   -1    0    0  502  501  0.00000000000E+00  0.00000000000E+00  0.75696967653E+02  0.75696967653E+02  0.00000000000E+00 0.  1.
         21   -1    0    0  501  502 -0.00000000000E+00 -0.00000000000E+00 -0.11833024104E+04  0.11833024104E+04  0.00000000000E+00 0.  1.
         25    1    1    2    0    0  0.13565207995E+03 -0.71038004385E+02 -0.23898757462E+03  0.31014181544E+03  0.12500000000E+03 0.  0.
         25    1    1    2    0    0 -0.50267966813E+01 -0.27490304930E+02 -0.13169798102E+03  0.18371266629E+03  0.12500000000E+03 0.  0.
         25    1    1    2    0    0 -0.13062528327E+03  0.98528309315E+02 -0.73691988712E+03  0.76514489634E+03  0.12500000000E+03 0.  0.
</event>
<event>
 5    0  0.5720942E-005  0.2599806E+03  0.7546771E-02  0.1107155E+00
         21   -1    0    0  502  501  0.00000000000E+00  0.00000000000E+00  0.25662974730E+03  0.25662974730E+03  0.00000000000E+00 0.  1.
         21   -1    0    0  501  502 -0.00000000000E+00 -0.00000000000E+00 -0.26337530581E+03  0.26337530581E+03  0.00000000000E+00 0.  1.
         25    1    1    2    0    0 -0.15256253506E+02  0.10256525897E+03 -0.46456160914E+01  0.16247759036E+03  0.12500000000E+03 0.  0.
         25    1    1    2    0    0 -0.88500626066E+02 -0.53942454219E+01 -0.51879991146E+02  0.16179614389E+03  0.12500000000E+03 0.  0.
         25    1    1    2    0    0  0.10375687957E+03 -0.97171013551E+02  0.49780048721E+02  0.19573131886E+03  0.12500000000E+03 0.  0.
</event>
<event>
 5    0  0.5720942E-005  0.2436464E+03  0.7546771E-02  0.1117387E+00
         21   -1    0    0  502  501  0.00000000000E+00  0.00000000000E+00  0.46066966531E+03  0.46066966531E+03  0.00000000000E+00 0. -1.
         21   -1    0    0  501  502 -0.00000000000E+00 -0.00000000000E+00 -0.12886359912E+03  0.12886359912E+03  0.00000000000E+00 0. -1.
         25    1    1    2    0    0 -0.54273731964E+02 -0.12309147941E+02  0.44156673914E+02  0.14377748417E+03  0.12500000000E+03 0.  0.
         25    1    1    2    0    0  0.10780999712E+03 -0.35750500989E+02  0.66042057872E+02  0.18134951670E+03  0.12500000000E+03 0.  0.
         25    1    1    2    0    0 -0.53536265151E+02  0.48059648929E+02  0.22160733441E+03  0.26440626355E+03  0.12500000000E+03 0.  0.
</event>
<event>
 5    0  0.5720942E-005  0.2668327E+03  0.7546771E-02  0.1103106E+00
         21   -1    0    0  502  501  0.00000000000E+00  0.00000000000E+00  0.70672486203E+02  0.70672486203E+02  0.00000000000E+00 0.  1.
         21   -1    0    0  501  502 -0.00000000000E+00 -0.00000000000E+00 -0.10074598543E+04  0.10074598543E+04  0.00000000000E+00 0.  1.
         25    1    1    2    0    0 -0.10294090469E+03 -0.71394359449E+02 -0.38876969878E+03  0.42715437854E+03  0.12500000000E+03 0.  0.
         25    1    1    2    0    0 -0.46590646156E+02 -0.19038973924E+02 -0.18030046840E+03  0.22509204727E+03  0.12500000000E+03 0.  0.
         25    1    1    2    0    0  0.14953155085E+03  0.90433333373E+02 -0.36771720093E+03  0.42588591470E+03  0.12500000000E+03 0.  0.
</event>
<event>
 5    0  0.5720942E-005  0.2701305E+03  0.7546771E-02  0.1101205E+00
         21   -1    0    0  502  501  0.00000000000E+00  0.00000000000E+00  0.16858188057E+03  0.16858188057E+03  0.00000000000E+00 0. -1.
         21   -1    0    0  501  502 -0.00000000000E+00 -0.00000000000E+00 -0.43284904484E+03  0.43284904484E+03  0.00000000000E+00 0. -1.
         25    1    1    2    0    0  0.11699528911E+03  0.72511881917E+02 -0.59790499712E+02  0.19530943282E+03  0.12500000000E+03 0.  0.
         25    1    1    2    0    0  0.11780759335E+02  0.35921072552E+02 -0.31591420928E+02  0.13435820637E+03  0.12500000000E+03 0.  0.
         25    1    1    2    0    0 -0.12877604845E+03 -0.10843295447E+03 -0.17288524362E+03  0.27176328621E+03  0.12500000000E+03 0.  0.
</event>
<event>
 5    0  0.5720942E-005  0.2653021E+03  0.7546771E-02  0.1103999E+00
         21   -1    0    0  502  501  0.00000000000E+00  0.00000000000E+00  0.37963307781E+03  0.37963307781E+03  0.00000000000E+00 0. -1.
         21   -1    0    0  501  502 -0.00000000000E+00 -0.00000000000E+00 -0.18540320674E+03  0.18540320674E+03  0.00000000000E+00 0. -1.
         25    1    1    2    0    0  0.10804018221E+02  0.18192835111E+02  0.42241454782E+02  0.13363026065E+03  0.12500000000E+03 0.  0.
         25    1    1    2    0    0 -0.12809113697E+03 -0.65470691741E+02 -0.10047972219E+02  0.19083949432E+03  0.12500000000E+03 0.  0.
         25    1    1    2    0    0  0.11728711875E+03  0.47277856631E+02  0.16203638850E+03  0.24056652957E+03  0.12500000000E+03 0.  0.
</event>
<event>
 5    0  0.5720942E-005  0.2903997E+03  0.7546771E-02  0.1090141E+00
         21   -1    0    0  502  501  0.00000000000E+00  0.00000000000E+00  0.43706054388E+02  0.43706054388E+02  0.00000000000E+00 0. -1.
         21   -1    0    0  501  502 -0.00000000000E+00 -0.00000000000E+00 -0.19295270239E+04  0.19295270239E+04  0.00000000000E+00 0. -1.
         25    1    1    2    0    0  0.31300160147E+02  0.39464269780E+02 -0.93779184782E+03  0.94742581686E+03  0.12500000000E+03 0.  0.
         25    1    1    2    0    0  0.11081255256E+03 -0.33396079934E+02 -0.65599476278E+03  0.67775279324E+03  0.12500000000E+03 0.  0.
         25    1    1    2    0    0 -0.14211271270E+03 -0.60681898458E+01 -0.29203435894E+03  0.34805446821E+03  0.12500000000E+03 0.  0.
</event>
<event>
 5    0  0.5720942E-005  0.3029661E+03  0.7546771E-02  0.1083767E+00
         21   -1    0    0  502  501  0.00000000000E+00  0.00000000000E+00  0.12398557140E+03  0.12398557140E+03  0.00000000000E+00 0.  1.
         21   -1    0    0  501  502 -0.00000000000E+00 -0.00000000000E+00 -0.74031577399E+03  0.74031577399E+03  0.00000000000E+00 0.  1.
         25    1    1    2    0    0  0.12122744054E+03 -0.12931873685E+03 -0.46304701823E+03  0.51132863125E+03  0.12500000000E+03 0.  0.
         25    1    1    2    0    0 -0.10468194773E+03  0.78710644669E+02 -0.10159250278E+03  0.20760470222E+03  0.12500000000E+03 0.  0.
         25    1    1    2    0    0 -0.16545492814E+02  0.50608092181E+02 -0.51690681579E+02  0.14536801192E+03  0.12500000000E+03 0.  0.
</event>
<event>
 5    0  0.5720942E-005  0.4391981E+03  0.7546771E-02  0.1030993E+00
         21   -1    0    0  502  501  0.00000000000E+00  0.00000000000E+00  0.20937050534E+03  0.20937050534E+03  0.00000000000E+00 0. -1.
         21   -1    0    0  501  502 -0.00000000000E+00 -0.00000000000E+00 -0.92130923780E+03  0.92130923780E+03  0.00000000000E+00 0. -1.
         25    1    1    2    0    0  0.26685953574E+03 -0.16756439900E+03 -0.58886969917E+03  0.67947359200E+03  0.12500000000E+03 0.  0.
         25    1    1    2    0    0 -0.67638272850E+02  0.13594015533E+03 -0.50487953405E+02  0.20304850461E+03  0.12500000000E+03 0.  0.
         25    1    1    2    0    0 -0.19922126289E+03  0.31624243668E+02 -0.72581079885E+02  0.24815764653E+03  0.12500000000E+03 0.  0.
</event>
<event>
 5    0  0.5720942E-005  0.2504190E+03  0.7546771E-02  0.1113040E+00
         21   -1    0    0  502  501  0.00000000000E+00  0.00000000000E+00  0.11777268034E+03  0.11777268034E+03  0.00000000000E+00 0. -1.
         21   -1    0    0  501  502 -0.00000000000E+00 -0.00000000000E+00 -0.53246385349E+03  0.53246385349E+03  0.00000000000E+00 0. -1.
         25    1    1    2    0    0  0.79730977340E+02  0.86511005579E+02 -0.13413220972E+03  0.21784772783E+03  0.12500000000E+03 0.  0.
         25    1    1    2    0    0 -0.80933236657E+02 -0.38212682634E+02 -0.43001873805E+02  0.15963883945E+03  0.12500000000E+03 0.  0.
         25    1    1    2    0    0  0.12022593170E+01 -0.48298322945E+02 -0.23755708962E+03  0.27274996656E+03  0.12500000000E+03 0.  0.
</event>
<event>
 5    0  0.5720942E-005  0.2398912E+03  0.7546771E-02  0.1119865E+00
         21   -1    0    0  502  501  0.00000000000E+00  0.00000000000E+00  0.12004449383E+03  0.12004449383E+03  0.00000000000E+00 0. -1.
         21   -1    0    0  501  502 -0.00000000000E+00 -0.00000000000E+00 -0.47938699916E+03  0.47938699916E+03  0.00000000000E+00 0. -1.
         25    1    1    2    0    0  0.72450704091E+02 -0.21477812343E+02 -0.25133056618E+02  0.14821292616E+03  0.12500000000E+03 0.  0.
         25    1    1    2    0    0 -0.49355106523E+02 -0.55349532461E+02 -0.11000449797E+03  0.18227859682E+03  0.12500000000E+03 0.  0.
         25    1    1    2    0    0 -0.23095597568E+02  0.76827344804E+02 -0.22420495074E+03  0.26893997002E+03  0.12500000000E+03 0.  0.
</event>
<event>
 5    0  0.5720942E-005  0.3356337E+03  0.7546771E-02  0.1068671E+00
         21   -1    0    0  502  501  0.00000000000E+00  0.00000000000E+00  0.22976906855E+04  0.22976906855E+04  0.00000000000E+00 0. -1.
         21   -1    0    0  501  502 -0.00000000000E+00 -0.00000000000E+00 -0.49027464876E+02  0.49027464876E+02  0.00000000000E+00 0. -1.
         25    1    1    2    0    0  0.83391059000E+02 -0.91736836918E+02  0.99015755557E+03  0.10056871784E+04  0.12500000000E+03 0.  0.
         25    1    1    2    0    0  0.13996320745E+02  0.72481141765E+02  0.11209583675E+04  0.11303194569E+04  0.12500000000E+03 0.  0.
         25    1    1    2    0    0 -0.97387379745E+02  0.19255695154E+02  0.13754729755E+03  0.21071151509E+03  0.12500000000E+03 0.  0.
</event>
<event>
 5    0  0.6492359E-005  0.3034075E+03  0.7546771E-02  0.1083550E+00
         21   -1    0    0  502  501  0.00000000000E+00  0.00000000000E+00  0.56790413870E+03  0.56790413870E+03  0.00000000000E+00 0. -1.
         21   -1    0    0  501  502 -0.00000000000E+00 -0.00000000000E+00 -0.16209799774E+03  0.16209799774E+03  0.00000000000E+00 0. -1.
         25    1    1    2    0    0 -0.47364854473E+02  0.59315218250E+02  0.25633371498E+03  0.29511641430E+03  0.12500000000E+03 0.  0.
         25    1    1    2    0    0  0.35789903041E+02  0.12662789800E+03  0.42842502270E+02  0.18648330143E+03  0.12500000000E+03 0.  0.
         25    1    1    2    0    0  0.11574951432E+02 -0.18594311625E+03  0.10662992371E+03  0.24840242071E+03  0.12500000000E+03 0.  0.
</event>
<event>
 5    0  0.5720942E-005  0.3104270E+03  0.7546771E-02  0.1080141E+00
         21   -1    0    0  502  501  0.00000000000E+00  0.00000000000E+00  0.36828882718E+03  0.36828882718E+03  0.00000000000E+00 0. -1.
         21   -1    0    0  501  502 -0.00000000000E+00 -0.00000000000E+00 -0.26165575719E+03  0.26165575719E+03  0.00000000000E+00 0. -1.
         25    1    1    2    0    0 -0.57714172167E+02  0.23608209121E+01 -0.63716811015E+02  0.15172781930E+03  0.12500000000E+03 0.  0.
         25    1    1    2    0    0 -0.11638319497E+03 -0.30872189898E+02 -0.38311374264E+02  0.17773829519E+03  0.12500000000E+03 0.  0.
         25    1    1    2    0    0  0.17409736714E+03  0.28511368986E+02  0.20866125528E+03  0.30047846987E+03  0.12500000000E+03 0.  0.
</event>
<event>
 5    0  0.5720942E-005  0.3767006E+03  0.7546771E-02  0.1052160E+00
         21   -1    0    0  502  501  0.00000000000E+00  0.00000000000E+00  0.32567857319E+03  0.32567857319E+03  0.00000000000E+00 0.  1.
         21   -1    0    0  501  502 -0.00000000000E+00 -0.00000000000E+00 -0.43571603244E+03  0.43571603244E+03  0.00000000000E+00 0.  1.
         25    1    1    2    0    0  0.11529637844E+03 -0.14491449442E+03 -0.11219738066E+03  0.25001343524E+03  0.12500000000E+03 0.  0.
         25    1    1    2    0    0 -0.21122125025E+03 -0.57650409901E+02  0.26964635081E+02  0.25355488137E+03  0.12500000000E+03 0.  0.
         25    1    1    2    0    0  0.95924871807E+02  0.20256490432E+03 -0.24804713672E+02  0.25782628902E+03  0.12500000000E+03 0.  0.
</event>
<event>
 5    0  0.5720942E-005  0.2566036E+03  0.7546771E-02  0.1109201E+00
         21   -1    0    0  502  501  0.00000000000E+00  0.00000000000E+00  0.46141798854E+03  0.46141798854E+03  0.00000000000E+00 0. -1.
         21   -1    0    0  501  502 -0.00000000000E+00 -0.00000000000E+00 -0.14270228445E+03  0.14270228445E+03  0.00000000000E+00 0. -1.
         25    1    1    2    0    0 -0.74136987292E+02  0.13775302113E+02  0.17052823343E+02  0.14697568036E+03  0.12500000000E+03 0.  0.
         25    1    1    2    0    0  0.92147068323E+02 -0.39881783655E+02  0.28514465922E+03  0.32713012021E+03  0.12500000000E+03 0.  0.
         25    1    1    2    0    0 -0.18010081031E+02  0.26106481542E+02  0.16518221526E+02  0.13001447242E+03  0.12500000000E+03 0.  0.
</event>
<event>
 5    0  0.6625377E-005  0.3242689E+03  0.7546771E-02  0.1073701E+00
         21   -1    0    0  502  501  0.00000000000E+00  0.00000000000E+00  0.57458666136E+03  0.57458666136E+03  0.00000000000E+00 0. -1.
         21   -1    0    0  501  502 -0.00000000000E+00 -0.00000000000E+00 -0.18300171359E+03  0.18300171359E+03  0.00000000000E+00 0. -1.
         25    1    1    2    0    0  0.11188737111E+03 -0.10589799179E+02 -0.22673261997E+02  0.16961722929E+03  0.12500000000E+03 0.  0.
         25    1    1    2    0    0 -0.17481846934E+03 -0.93218522914E+02  0.17702357373E+03  0.29362141593E+03  0.12500000000E+03 0.  0.
         25    1    1    2    0    0  0.62931098226E+02  0.10380832209E+03  0.23723463603E+03  0.29434972973E+03  0.12500000000E+03 0.  0.
</event>
<event>
 5    0  0.5720942E-005  0.5211966E+03  0.7546771E-02  0.1008390E+00
         21   -1    0    0  502  501  0.00000000000E+00  0.00000000000E+00  0.33733087817E+03  0.33733087817E+03  0.00000000000E+00 0.  1.
         21   -1    0    0  501  502 -0.00000000000E+00 -0.00000000000E+00 -0.80528024292E+03  0.80528024292E+03  0.00000000000E+00 0.  1.
         25    1    1    2    0    0  0.30468465920E+03  0.17915828219E+03 -0.52209114477E+03  0.64275547067E+03  0.12500000000E+03 0.  0.
         25    1    1    2    0    0 -0.23179277065E+03 -0.25548692447E+02  0.10182756587E+03  0.28350392833E+03  0.12500000000E+03 0.  0.
         25    1    1    2    0    0 -0.72891888555E+02 -0.15360958975E+03 -0.47685785845E+02  0.21635172209E+03  0.12500000000E+03 0.  0.
</event>
<event>
 5    0  0.6108307E-005  0.4362893E+03  0.7546771E-02  0.1031891E+00
         21   -1    0    0  502  501  0.00000000000E+00  0.00000000000E+00  0.80754892342E+03  0.80754892342E+03  0.00000000000E+00 0. -1.
         21   -1    0    0  501  502 -0.00000000000E+00 -0.00000000000E+00 -0.23571118078E+03  0.23571118078E+03  0.00000000000E+00 0. -1.
         25    1    1    2    0    0  0.18766717226E+03  0.52455014423E+02  0.97129301568E+02  0.25105696028E+03  0.12500000000E+03 0.  0.
         25    1    1    2    0    0 -0.44745202472E+02 -0.13468388036E+03 -0.76065455144E+02  0.20384512317E+03  0.12500000000E+03 0.  0.
         25    1    1    2    0    0 -0.14292196979E+03  0.82228865933E+02  0.55077389621E+03  0.58835802075E+03  0.12500000000E+03 0.  0.
</event>
<event>
 5    0  0.7960599E-005  0.2940641E+03  0.7546771E-02  0.1088246E+00
         21   -1    0    0  502  501  0.00000000000E+00  0.00000000000E+00  0.14316161928E+03  0.14316161928E+03  0.00000000000E+00 0. -1.
         21   -1    0    0  501  502 -0.00000000000E+00 -0.00000000000E+00 -0.60402852622E+03  0.60402852622E+03  0.00000000000E+00 0. -1.
         25    1    1    2    0    0 -0.97758895913E+02  0.15527955927E+03 -0.25435153863E+03  0.33762145735E+03  0.12500000000E+03 0.  0.
         25    1    1    2    0    0  0.77739651744E+02 -0.11951475265E+03 -0.20327583850E+03  0.27798074766E+03  0.12500000000E+03 0.  0.
         25    1    1    2    0    0  0.20019244169E+02 -0.35764806613E+02 -0.32395298044E+01  0.13158794049E+03  0.12500000000E+03 0.  0.
</event>
<event>
 5    0  0.5720942E-005  0.4561362E+03  0.7546771E-02  0.1025908E+00
         21   -1    0    0  502  501  0.00000000000E+00  0.00000000000E+00  0.69364516022E+03  0.69364516022E+03  0.00000000000E+00 0. -1.
         21   -1    0    0  501  502 -0.00000000000E+00 -0.00000000000E+00 -0.29995203090E+03  0.29995203090E+03  0.00000000000E+00 0. -1.
         25    1    1    2    0    0 -0.84698792332E+01 -0.11418124804E+03  0.23331837794E+03  0.28839480187E+03  0.12500000000E+03 0.  0.
         25    1    1    2    0    0 -0.48956689207E+02  0.37114529020E+03  0.10654058279E+03  0.40880494082E+03  0.12500000000E+03 0.  0.
         25    1    1    2    0    0  0.57426568440E+02 -0.25696404216E+03  0.53834168589E+02  0.29639744843E+03  0.12500000000E+03 0.  0.
</event>
<event>
 5    0  0.5720942E-005  0.2475957E+03  0.7546771E-02  0.1114834E+00
         21   -1    0    0  502  501  0.00000000000E+00  0.00000000000E+00  0.10294335551E+04  0.10294335551E+04  0.00000000000E+00 0. -1.
         21   -1    0    0  501  502 -0.00000000000E+00 -0.00000000000E+00 -0.59550827436E+02  0.59550827436E+02  0.00000000000E+00 0. -1.
         25    1    1    2    0    0  0.15441188607E+02  0.10828269488E+02  0.46385784034E+03  0.48077518423E+03  0.12500000000E+03 0.  0.
         25    1    1    2    0    0 -0.10493056449E+03  0.52017350091E+02  0.25150481937E+03  0.30429574799E+03  0.12500000000E+03 0.  0.
         25    1    1    2    0    0  0.89489375881E+02 -0.62845619579E+02  0.25452006795E+03  0.30391345032E+03  0.12500000000E+03 0.  0.
</event>
<event>
 5    0  0.5720942E-005  0.2699102E+03  0.7546771E-02  0.1101331E+00
         21   -1    0    0  502  501  0.00000000000E+00  0.00000000000E+00  0.35902641667E+03  0.35902641667E+03  0.00000000000E+00 0.  1.
         21   -1    0    0  501  502 -0.00000000000E+00 -0.00000000000E+00 -0.20291411028E+03  0.20291411028E+03  0.00000000000E+00 0.  1.
         25    1    1    2    0    0 -0.41666083102E+02  0.45473839934E+02  0.92858965113E+02  0.16748647707E+03  0.12500000000E+03 0.  0.
         25    1    1    2    0    0  0.11120559942E+03 -0.83314029180E+02  0.13446554496E+03  0.23024746596E+03  0.12500000000E+03 0.  0.
         25    1    1    2    0    0 -0.69539516318E+02  0.37840189246E+02 -0.71212203672E+02  0.16420658392E+03  0.12500000000E+03 0.  0.
</event>
<event>
 5    0  0.5720942E-005  0.2366704E+03  0.7546771E-02  0.1122031E+00
         21   -1    0    0  502  501  0.00000000000E+00  0.00000000000E+00  0.11697024630E+04  0.11697024630E+04  0.00000000000E+00 0.  1.
         21   -1    0    0  501  502 -0.00000000000E+00 -0.00000000000E+00 -0.47886432598E+02  0.47886432598E+02  0.00000000000E+00 0.  1.
         25    1    1    2    0    0  0.42236784069E+02  0.15631111458E+02  0.38923631312E+03  0.41128844504E+03  0.12500000000E+03 0.  0.
         25    1    1    2    0    0 -0.69618325813E+02 -0.61064999365E+02  0.18296644028E+03  0.24016112030E+03  0.12500000000E+03 0.  0.
         25    1    1    2    0    0  0.27381541744E+02  0.45433887907E+02  0.54961327696E+03  0.56613933021E+03  0.12500000000E+03 0.  0.
</event>
<event>
 5    0  0.5720942E-005  0.5671136E+03  0.7546771E-02  0.9976086E-01
         21   -1    0    0  502  501  0.00000000000E+00  0.00000000000E+00  0.14130639099E+04  0.14130639099E+04  0.00000000000E+00 0.  1.
         21   -1    0    0  501  502 -0.00000000000E+00 -0.00000000000E+00 -0.22760318304E+03  0.22760318304E+03  0.00000000000E+00 0.  1.
         25    1    1    2    0    0  0.61571990106E+02 -0.43810239686E+03  0.67012975006E+03  0.81266456919E+03  0.12500000000E+03 0.  0.
         25    1    1    2    0    0 -0.88412211980E+02  0.48467624513E+03  0.36844367742E+03  0.62777665236E+03  0.12500000000E+03 0.  0.
         25    1    1    2    0    0  0.26840221874E+02 -0.46573848269E+02  0.14688729940E+03  0.20022587140E+03  0.12500000000E+03 0.  0.
</event>
<event>
 5    0  0.5720942E-005  0.3702311E+03  0.7546771E-02  0.1054605E+00
         21   -1    0    0  502  501  0.00000000000E+00  0.00000000000E+00  0.76041825257E+02  0.76041825257E+02  0.00000000000E+00 0. -1.
         21   -1    0    0  501  502 -0.00000000000E+00 -0.00000000000E+00 -0.18025750152E+04  0.18025750152E+04  0.00000000000E+00 0.  1.
         25    1    1    2    0    0 -0.18562816521E+02  0.16661579768E+03 -0.11890220662E+04  0.12072712521E+04  0.12500000000E+03 0.  0.
         25    1    1    2    0    0  0.98392321691E+01 -0.25854188625E+02 -0.32164186475E+02  0.13200297137E+03  0.12500000000E+03 0.  0.
         25    1    1    2    0    0  0.87235843520E+01 -0.14076160906E+03 -0.50534693726E+03  0.53934261699E+03  0.12500000000E+03 0.  0.
</event>
<event>
 5    0  0.5720942E-005  0.3495650E+03  0.7546771E-02  0.1062794E+00
         21   -1    0    0  502  501  0.00000000000E+00  0.00000000000E+00  0.34623368514E+03  0.34623368514E+03  0.00000000000E+00 0.  1.
         21   -1    0    0  501  502 -0.00000000000E+00 -0.00000000000E+00 -0.35292838733E+03  0.35292838733E+03  0.00000000000E+00 0.  1.
         25    1    1    2    0    0 -0.62386100639E+01 -0.16321675883E+03  0.12173899046E+03  0.23900630204E+03  0.12500000000E+03 0.  0.
         25    1    1    2    0    0 -0.25666793413E+00  0.76768633057E+02  0.10579682404E+03  0.18086308876E+03  0.12500000000E+03 0.  0.
         25    1    1    2    0    0  0.64952779980E+01  0.86448125773E+02 -0.23423051668E+03  0.27929268167E+03  0.12500000000E+03 0.  0.
</event>
<event>
 5    0  0.5720942E-005  0.3726299E+03  0.7546771E-02  0.1053692E+00
         21   -1    0    0  502  501  0.00000000000E+00  0.00000000000E+00  0.20640719584E+03  0.20640719584E+03  0.00000000000E+00 0.  1.
         21   -1    0    0  501  502 -0.00000000000E+00 -0.00000000000E+00 -0.67271427161E+03  0.67271427161E+03  0.00000000000E+00 0.  1.
         25    1    1    2    0    0  0.13287414624E+01  0.48419850597E+02 -0.16977462155E+03  0.21632075631E+03  0.12500000000E+03 0.  0.
         25    1    1    2    0    0  0.34249951431E+02 -0.11236690046E+03 -0.43179462170E+03  0.46461917182E+03  0.12500000000E+03 0.  0.
         25    1    1    2    0    0 -0.35578692894E+02  0.63947049863E+02  0.13526216749E+03  0.19818153932E+03  0.12500000000E+03 0.  0.
</event>
<event>
 5    0  0.5720942E-005  0.3297402E+03  0.7546771E-02  0.1071252E+00
         21   -1    0    0  502  501  0.00000000000E+00  0.00000000000E+00  0.69988167326E+03  0.69988167326E+03  0.00000000000E+00 0. -1.
         21   -1    0    0  501  502 -0.00000000000E+00 -0.00000000000E+00 -0.15535286460E+03  0.15535286460E+03  0.00000000000E+00 0. -1.
         25    1    1    2    0    0  0.11536890638E+03  0.33518298367E+02  0.13170701898E+03  0.21772735183E+03  0.12500000000E+03 0.  0.
         25    1    1    2    0    0  0.86334290388E+01 -0.17133346085E+03  0.61363559389E+02  0.22095288485E+03  0.12500000000E+03 0.  0.
         25    1    1    2    0    0 -0.12400233542E+03  0.13781516248E+03  0.35145823029E+03  0.41655430119E+03  0.12500000000E+03 0.  0.
</event>
<event>
 5    0  0.5720942E-005  0.2634641E+03  0.7546771E-02  0.1105080E+00
         21   -1    0    0  502  501  0.00000000000E+00  0.00000000000E+00  0.13412190453E+04  0.13412190453E+04  0.00000000000E+00 0. -1.
         21   -1    0    0  501  502 -0.00000000000E+00 -0.00000000000E+00 -0.51753907563E+02  0.51753907563E+02  0.00000000000E+00 0. -1.
         25    1    1    2    0    0 -0.11525839088E+03 -0.36313209030E+02  0.49889574939E+03  0.52832292642E+03  0.12500000000E+03 0.  0.
         25    1    1    2    0    0  0.82604978826E+02  0.71738957967E+02  0.64826368475E+03  0.66920913442E+03  0.12500000000E+03 0.  0.
         25    1    1    2    0    0  0.32653412052E+02 -0.35425748937E+02  0.14230570363E+03  0.19544089207E+03  0.12500000000E+03 0.  0.
</event>
<event>
 5    0  0.5720942E-005  0.5022282E+03  0.7546771E-02  0.1013199E+00
         21   -1    0    0  502  501  0.00000000000E+00  0.00000000000E+00  0.25257291540E+03  0.25257291540E+03  0.00000000000E+00 0. -1.
         21   -1    0    0  501  502 -0.00000000000E+00 -0.00000000000E+00 -0.99865490095E+03  0.99865490095E+03  0.00000000000E+00 0. -1.
         25    1    1    2    0    0  0.11334872467E+03 -0.12672489192E+03 -0.36575224955E+02  0.21417254422E+03  0.12500000000E+03 0.  0.
         25    1    1    2    0    0  0.12319660713E+03  0.36037126342E+03 -0.36103306947E+03  0.53945780999E+03  0.12500000000E+03 0.  0.
         25    1    1    2    0    0 -0.23654533181E+03 -0.23364637150E+03 -0.34847369113E+03  0.49759746214E+03  0.12500000000E+03 0.  0.
</event>
<event>
 5    0  0.5720942E-005  0.3154271E+03  0.7546771E-02  0.1077773E+00
         21   -1    0    0  502  501  0.00000000000E+00  0.00000000000E+00  0.94853030218E+02  0.94853030218E+02  0.00000000000E+00 0.  1.
         21   -1    0    0  501  502 -0.00000000000E+00 -0.00000000000E+00 -0.10489307365E+04  0.10489307365E+04  0.00000000000E+00 0.  1.
         25    1    1    2    0    0  0.64183842293E+02 -0.81916006591E+01 -0.57895762041E+03  0.59582178054E+03  0.12500000000E+03 0.  0.
         25    1    1    2    0    0 -0.15544513997E+03 -0.72532414883E+02 -0.27274454565E+03  0.34559908844E+03  0.12500000000E+03 0.  0.
         25    1    1    2    0    0  0.91261297678E+02  0.80724015542E+02 -0.10237554019E+03  0.20236289770E+03  0.12500000000E+03 0.  0.
</event>
<event>
 5    0  0.5720942E-005  0.2922049E+03  0.7546771E-02  0.1089204E+00
         21   -1    0    0  502  501  0.00000000000E+00  0.00000000000E+00  0.15639740762E+04  0.15639740762E+04  0.00000000000E+00 0. -1.
         21   -1    0    0  501  502 -0.00000000000E+00 -0.00000000000E+00 -0.54594068755E+02  0.54594068755E+02  0.00000000000E+00 0. -1.
         25    1    1    2    0    0  0.67090880662E+02  0.15827470433E+03  0.45728741670E+03  0.50427061165E+03  0.12500000000E+03 0.  0.
         25    1    1    2    0    0 -0.58601515337E+02 -0.13973732508E+03  0.87375080134E+03  0.89555911053E+03  0.12500000000E+03 0.  0.
         25    1    1    2    0    0 -0.84893653245E+01 -0.18537379252E+02  0.17834178945E+03  0.21873842282E+03  0.12500000000E+03 0.  0.
</event>
<event>
 5    0  0.5720942E-005  0.3855178E+03  0.7546771E-02  0.1048913E+00
         21   -1    0    0  502  501  0.00000000000E+00  0.00000000000E+00  0.20297539178E+03  0.20297539178E+03  0.00000000000E+00 0.  1.
         21   -1    0    0  501  502 -0.00000000000E+00 -0.00000000000E+00 -0.73222666686E+03  0.73222666686E+03  0.00000000000E+00 0.  1.
         25    1    1    2    0    0 -0.50038994585E+02  0.17847317087E+03 -0.86921984440E+02  0.23986872467E+03  0.12500000000E+03 0.  0.
         25    1    1    2    0    0 -0.39794116444E+02 -0.31722382891E+02  0.61606100005E+02  0.14835832581E+03  0.12500000000E+03 0.  0.
         25    1    1    2    0    0  0.89833111029E+02 -0.14675078797E+03 -0.50393539065E+03  0.54697500816E+03  0.12500000000E+03 0.  0.
</event>
<event>
 5    0  0.5720942E-005  0.2656598E+03  0.7546771E-02  0.1103790E+00
         21   -1    0    0  502  501  0.00000000000E+00  0.00000000000E+00  0.68732134348E+03  0.68732134348E+03  0.00000000000E+00 0.  1.
         21   -1    0    0  501  502 -0.00000000000E+00 -0.00000000000E+00 -0.10268144569E+03  0.10268144569E+03  0.00000000000E+00 0.  1.
         25    1    1    2    0    0  0.11454266415E+03  0.48492770459E+02  0.18631845096E+03  0.25653681191E+03  0.12500000000E+03 0.  0.
         25    1    1    2    0    0 -0.20963309231E+02  0.61232319281E+02  0.26691201529E+03  0.30175467049E+03  0.12500000000E+03 0.  0.
         25    1    1    2    0    0 -0.93579354914E+02 -0.10972508974E+03  0.13140943154E+03  0.23171130676E+03  0.12500000000E+03 0.  0.
</event>
<event>
 5    0  0.5720942E-005  0.4108968E+03  0.7546771E-02  0.1040070E+00
         21   -1    0    0  502  501  0.00000000000E+00  0.00000000000E+00  0.25208544770E+03  0.25208544770E+03  0.00000000000E+00 0.  1.
         21   -1    0    0  501  502 -0.00000000000E+00 -0.00000000000E+00 -0.66975767341E+03  0.66975767341E+03  0.00000000000E+00 0.  1.
         25    1    1    2    0    0 -0.58704857977E+02 -0.97037191682E+02 -0.23141897279E+02  0.17036145200E+03  0.12500000000E+03 0.  0.
         25    1    1    2    0    0  0.26393144976E+03  0.21009191382E+03 -0.30372803869E+03  0.47082283707E+03  0.12500000000E+03 0.  0.
         25    1    1    2    0    0 -0.20522659178E+03 -0.11305472214E+03 -0.90802289741E+02  0.28065883203E+03  0.12500000000E+03 0.  0.
</event>
<event>
 5    0  0.5720942E-005  0.5334200E+03  0.7546771E-02  0.1005406E+00
         21   -1    0    0  502  501  0.00000000000E+00  0.00000000000E+00  0.11714003179E+04  0.11714003179E+04  0.00000000000E+00 0.  1.
         21   -1    0    0  501  502 -0.00000000000E+00 -0.00000000000E+00 -0.24290322014E+03  0.24290322014E+03  0.00000000000E+00 0.  1.
         25    1    1    2    0    0 -0.61775891644E+02 -0.71777767207E+02  0.25228166172E+03  0.29705108230E+03  0.12500000000E+03 0.  0.
         25    1    1    2    0    0 -0.25778663841E+02 -0.26286818294E+03 -0.56295175516E+02  0.29758758022E+03  0.12500000000E+03 0.  0.
         25    1    1    2    0    0  0.87554555485E+02  0.33464595015E+03  0.73251061154E+03  0.81966487552E+03  0.12500000000E+03 0.  0.
</event>
<event>
 5    0  0.5720942E-005  0.3703382E+03  0.7546771E-02  0.1054564E+00
         21   -1    0    0  502  501  0.00000000000E+00  0.00000000000E+00  0.77625801966E+03  0.77625801966E+03  0.00000000000E+00 0.  1.
         21   -1    0    0  501  502 -0.00000000000E+00 -0.00000000000E+00 -0.17668144991E+03  0.17668144991E+03  0.00000000000E+00 0.  1.
         25    1    1    2    0    0  0.22019354416E+03 -0.13178002810E+03  0.37774663595E+03  0.47346456432E+03  0.12500000000E+03 0.  0.
         25    1    1    2    0    0 -0.12122649359E+03  0.12174686619E+03  0.80778424458E+01  0.21262270272E+03  0.12500000000E+03 0.  0.
         25    1    1    2    0    0 -0.98967050572E+02  0.10033161913E+02  0.21375209136E+03  0.26685220253E+03  0.12500000000E+03 0.  0.
</event>
<event>
 5    0  0.5720942E-005  0.2387231E+03  0.7546771E-02  0.1120646E+00
         21   -1    0    0  502  501  0.00000000000E+00  0.00000000000E+00  0.28367742438E+03  0.28367742438E+03  0.00000000000E+00 0. -1.
         21   -1    0    0  501  502 -0.00000000000E+00 -0.00000000000E+00 -0.20089276400E+03  0.20089276400E+03  0.00000000000E+00 0. -1.
         25    1    1    2    0    0 -0.38585012448E+02 -0.28950456297E+02  0.66449987772E+02  0.14955779144E+03  0.12500000000E+03 0.  0.
         25    1    1    2    0    0  0.28399091037E+02  0.11396974679E+03 -0.34957046842E+02  0.17505029757E+03  0.12500000000E+03 0.  0.
         25    1    1    2    0    0  0.10185921411E+02 -0.85019290491E+02  0.51291719455E+02  0.15996209937E+03  0.12500000000E+03 0.  0.
</event>
<event>
 5    0  0.5814342E-005  0.4211805E+03  0.7546771E-02  0.1036683E+00
         21   -1    0    0  502  501  0.00000000000E+00  0.00000000000E+00  0.76284768873E+03  0.76284768873E+03  0.00000000000E+00 0.  1.
         21   -1    0    0  501  502 -0.00000000000E+00 -0.00000000000E+00 -0.23254055883E+03  0.23254055883E+03  0.00000000000E+00 0.  1.
         25    1    1    2    0    0 -0.18347318360E+03  0.10634860350E+03  0.34972538628E+03  0.42767426901E+03  0.12500000000E+03 0.  0.
         25    1    1    2    0    0  0.12828724793E+02 -0.17363209142E+03 -0.76947113836E+02  0.22772469712E+03  0.12500000000E+03 0.  0.
         25    1    1    2    0    0  0.17064445880E+03  0.67283487924E+02  0.25752885745E+03  0.33998928143E+03  0.12500000000E+03 0.  0.
</event>
<event>
 5    0  0.5720942E-005  0.4281275E+03  0.7546771E-02  0.1034453E+00
         21   -1    0    0  502  501  0.00000000000E+00  0.00000000000E+00  0.78056284580E+03  0.78056284580E+03  0.00000000000E+00 0. -1.
         21   -1    0    0  501  502 -0.00000000000E+00 -0.00000000000E+00 -0.23482179856E+03  0.23482179856E+03  0.00000000000E+00 0. -1.
         25    1    1    2    0    0  0.88471490201E+02 -0.27035466684E+03  0.19129523203E+03  0.36488041364E+03  0.12500000000E+03 0.  0.
         25    1    1    2    0    0  0.24364984747E+02  0.17715072922E+03 -0.30331102935E+02  0.22027484911E+03  0.12500000000E+03 0.  0.
         25    1    1    2    0    0 -0.11283647495E+03  0.93203937613E+02  0.38477691814E+03  0.43022938161E+03  0.12500000000E+03 0.  0.
</event>
<event>
 5    0  0.5720942E-005  0.3129598E+03  0.7546771E-02  0.1078936E+00
         21   -1    0    0  502  501  0.00000000000E+00  0.00000000000E+00  0.16534797191E+03  0.16534797191E+03  0.00000000000E+00 0.  1.
         21   -1    0    0  501  502 -0.00000000000E+00 -0.00000000000E+00 -0.59234975422E+03  0.59234975422E+03  0.00000000000E+00 0.  1.
         25    1    1    2    0    0 -0.48247092028E+02  0.13576401058E+03 -0.19970584993E+03  0.27616494158E+03  0.12500000000E+03 0.  0.
         25    1    1    2    0    0  0.10925611344E+03 -0.33709749307E+02 -0.25566699728E+03  0.30669831924E+03  0.12500000000E+03 0.  0.
         25    1    1    2    0    0 -0.61009021417E+02 -0.10205426127E+03  0.28371064912E+02  0.17483446532E+03  0.12500000000E+03 0.  0.
</event>
<event>
 5    0  0.5864011E-005  0.5857184E+03  0.7546771E-02  0.9935487E-01
         21   -1    0    0  502  501  0.00000000000E+00  0.00000000000E+00  0.85801916666E+03  0.85801916666E+03  0.00000000000E+00 0. -1.
         21   -1    0    0  501  502 -0.00000000000E+00 -0.00000000000E+00 -0.39983491323E+03  0.39983491323E+03  0.00000000000E+00 0. -1.
         25    1    1    2    0    0  0.37114676673E+02  0.31462769797E+03  0.37812004659E+03  0.50888884561E+03  0.12500000000E+03 0.  0.
         25    1    1    2    0    0  0.14333997000E+03 -0.17469917640E+03  0.30871180378E+03  0.40248494012E+03  0.12500000000E+03 0.  0.
         25    1    1    2    0    0 -0.18045464667E+03 -0.13992852157E+03 -0.22864759694E+03  0.34648029416E+03  0.12500000000E+03 0.  0.
</event>
<event>
 5    0  0.5720942E-005  0.3231285E+03  0.7546771E-02  0.1074218E+00
         21   -1    0    0  502  501  0.00000000000E+00  0.00000000000E+00  0.86246651342E+02  0.86246651342E+02  0.00000000000E+00 0.  1.
         21   -1    0    0  501  502 -0.00000000000E+00 -0.00000000000E+00 -0.12106208929E+04  0.12106208929E+04  0.00000000000E+00 0.  1.
         25    1    1    2    0    0  0.12321792526E+03 -0.86204987672E+02 -0.44763695754E+03  0.48848521243E+03  0.12500000000E+03 0.  0.
         25    1    1    2    0    0  0.47166296514E+02  0.16577022003E+03 -0.27817143205E+03  0.35029811730E+03  0.12500000000E+03 0.  0.
         25    1    1    2    0    0 -0.17038422177E+03 -0.79565232358E+02 -0.39856585195E+03  0.45808421449E+03  0.12500000000E+03 0.  0.
</event>
<event>
 5    0  0.5720942E-005  0.2577438E+03  0.7546771E-02  0.1108506E+00
         21   -1    0    0  502  501  0.00000000000E+00  0.00000000000E+00  0.50262663099E+02  0.50262663099E+02  0.00000000000E+00 0.  1.
         21   -1    0    0  501  502 -0.00000000000E+00 -0.00000000000E+00 -0.13216945296E+04  0.13216945296E+04  0.00000000000E+00 0.  1.
         25    1    1    2    0    0 -0.10563783566E+03  0.31293337044E+02 -0.17887961170E+03  0.24446173678E+03  0.12500000000E+03 0.  0.
         25    1    1    2    0    0  0.28910942255E+02 -0.21284506101E+02 -0.57072544550E+03  0.58535579516E+03  0.12500000000E+03 0.  0.
         25    1    1    2    0    0  0.76726893405E+02 -0.10008830944E+02 -0.52182680925E+03  0.54213966072E+03  0.12500000000E+03 0.  0.
</event>
<event>
 5    0  0.5720942E-005  0.3320556E+03  0.7546771E-02  0.1070231E+00
         21   -1    0    0  502  501  0.00000000000E+00  0.00000000000E+00  0.90519408151E+02  0.90519408151E+02  0.00000000000E+00 0.  1.
         21   -1    0    0  501  502 -0.00000000000E+00 -0.00000000000E+00 -0.12180916332E+04  0.12180916332E+04  0.00000000000E+00 0.  1.
         25    1    1    2    0    0  0.77100992221E+02  0.29625607287E+02 -0.66434648340E+02  0.16389265422E+03  0.12500000000E+03 0.  0.
         25    1    1    2    0    0 -0.84009142053E+01 -0.13017860481E+03 -0.85843441543E+03  0.87724095327E+03  0.12500000000E+03 0.  0.
         25    1    1    2    0    0 -0.68700078015E+02  0.10055299752E+03 -0.20270316130E+03  0.26747743387E+03  0.12500000000E+03 0.  0.
</event>
<event>
 5    0  0.5720942E-005  0.3078040E+03  0.7546771E-02  0.1081403E+00
         21   -1    0    0  502  501  0.00000000000E+00  0.00000000000E+00  0.12754741620E+04  0.12754741620E+04  0.00000000000E+00 0. -1.
         21   -1    0    0  501  502 -0.00000000000E+00 -0.00000000000E+00 -0.74280856844E+02  0.74280856844E+02  0.00000000000E+00 0. -1.
         25    1    1    2    0    0 -0.11006645495E+03 -0.25049815723E+02  0.87432636098E+03  0.89040086662E+03  0.12500000000E+03 0.  0.
         25    1    1    2    0    0  0.81749251108E+00  0.77850923126E+02  0.17015981955E+03  0.22503510551E+03  0.12500000000E+03 0.  0.
         25    1    1    2    0    0  0.10924896244E+03 -0.52801107403E+02  0.15670712461E+03  0.23431904669E+03  0.12500000000E+03 0.  0.
</event>
<event>
 5    0  0.5720942E-005  0.2446848E+03  0.7546771E-02  0.1116711E+00
         21   -1    0    0  502  501  0.00000000000E+00  0.00000000000E+00  0.61544703308E+03  0.61544703308E+03  0.00000000000E+00 0. -1.
         21   -1    0    0  501  502 -0.00000000000E+00 -0.00000000000E+00 -0.97279964107E+02  0.97279964107E+02  0.00000000000E+00 0. -1.
         25    1    1    2    0    0  0.32078516976E+02 -0.42040246349E+02  0.14194997500E+03  0.19639554212E+03  0.12500000000E+03 0.  0.
         25    1    1    2    0    0  0.17802468055E+02  0.75531409554E+02  0.34372010659E+03  0.37388558861E+03  0.12500000000E+03 0.  0.
         25    1    1    2    0    0 -0.49880985031E+02 -0.33491163205E+02  0.32496987389E+02  0.14244586645E+03  0.12500000000E+03 0.  0.
</event>
<event>
 5    0  0.5720942E-005  0.3744692E+03  0.7546771E-02  0.1052997E+00
         21   -1    0    0  502  501  0.00000000000E+00  0.00000000000E+00  0.71429952216E+03  0.71429952216E+03  0.00000000000E+00 0.  1.
         21   -1    0    0  501  502 -0.00000000000E+00 -0.00000000000E+00 -0.19631421645E+03  0.19631421645E+03  0.00000000000E+00 0.  1.
         25    1    1    2    0    0 -0.15986079572E+03 -0.13182735184E+03  0.44249966762E+00  0.24198991820E+03  0.12500000000E+03 0.  0.
         25    1    1    2    0    0  0.16156346298E+03  0.14601410788E+03  0.18156242184E+03  0.30985929919E+03  0.12500000000E+03 0.  0.
         25    1    1    2    0    0 -0.17026672564E+01 -0.14186756045E+02  0.33598038420E+03  0.35876452123E+03  0.12500000000E+03 0.  0.
</event>
<event>
 5    0  0.5720942E-005  0.3994577E+03  0.7546771E-02  0.1043968E+00
         21   -1    0    0  502  501  0.00000000000E+00  0.00000000000E+00  0.81397810973E+03  0.81397810973E+03  0.00000000000E+00 0.  1.
         21   -1    0    0  501  502 -0.00000000000E+00 -0.00000000000E+00 -0.19603289478E+03  0.19603289478E+03  0.00000000000E+00 0.  1.
         25    1    1    2    0    0  0.15136430934E+03  0.25034856840E+03  0.15905188168E+03  0.35567971675E+03  0.12500000000E+03 0.  0.
         25    1    1    2    0    0 -0.20126849025E+03 -0.21630342131E+03  0.26643289989E+03  0.41702237995E+03  0.12500000000E+03 0.  0.
         25    1    1    2    0    0  0.49904180914E+02 -0.34045147089E+02  0.19246043337E+03  0.23730890781E+03  0.12500000000E+03 0.  0.
</event>
<event>
 5    0  0.5720942E-005  0.3389449E+03  0.7546771E-02  0.1067246E+00
         21   -1    0    0  502  501  0.00000000000E+00  0.00000000000E+00  0.23590862680E+04  0.23590862680E+04  0.00000000000E+00 0.  1.
         21   -1    0    0  501  502 -0.00000000000E+00 -0.00000000000E+00 -0.48698368793E+02  0.48698368793E+02  0.00000000000E+00 0.  1.
         25    1    1    2    0    0 -0.89607870926E+02  0.60201343859E+02  0.76938295833E+03  0.78691099173E+03  0.12500000000E+03 0.  0.
         25    1    1    2    0    0 -0.40257158048E+02  0.93309244622E+02  0.11681045233E+04  0.11791609014E+04  0.12500000000E+03 0.  0.
         25    1    1    2    0    0  0.12986502897E+03 -0.15351058848E+03  0.37290041750E+03  0.44171274365E+03  0.12500000000E+03 0.  0.
</event>
<event>
 5    0  0.5720942E-005  0.2705807E+03  0.7546771E-02  0.1100948E+00
         21   -1    0    0  502  501  0.00000000000E+00  0.00000000000E+00  0.56373282375E+02  0.56373282375E+02  0.00000000000E+00 0.  1.
         21   -1    0    0  501  502 -0.00000000000E+00 -0.00000000000E+00 -0.12987343825E+04  0.12987343825E+04  0.00000000000E+00 0.  1.
         25    1    1    2    0    0 -0.14374851935E+02 -0.56052625886E+02 -0.48610998665E+03  0.50524890140E+03  0.12500000000E+03 0.  0.
         25    1    1    2    0    0  0.76570033026E+02  0.81756784913E+02 -0.14334429274E+03  0.22072545866E+03  0.12500000000E+03 0.  0.
         25    1    1    2    0    0 -0.62195181091E+02 -0.25704159027E+02 -0.61290682074E+03  0.62913330483E+03  0.12500000000E+03 0.  0.
</event>
<event>
 5    0  0.5720942E-005  0.3057743E+03  0.7546771E-02  0.1082389E+00
         21   -1    0    0  502  501  0.00000000000E+00  0.00000000000E+00  0.71756672772E+03  0.71756672772E+03  0.00000000000E+00 0. -1.
         21   -1    0    0  501  502 -0.00000000000E+00 -0.00000000000E+00 -0.13029860487E+03  0.13029860487E+03  0.00000000000E+00 0. -1.
         25    1    1    2    0    0  0.16791832612E+03  0.29167694221E+02  0.17733124611E+03  0.27589615706E+03  0.12500000000E+03 0.  0.
         25    1    1    2    0    0 -0.15732711495E+01 -0.97952193698E+02  0.26591445616E+03  0.30972989108E+03  0.12500000000E+03 0.  0.
         25    1    1    2    0    0 -0.16634505497E+03  0.68784499477E+02  0.14402242058E+03  0.26223928445E+03  0.12500000000E+03 0.  0.
</event>
<event>
 5    0  0.5720942E-005  0.2046181E+03  0.7546771E-02  0.1145900E+00
         21   -1    0    0  502  501  0.00000000000E+00  0.00000000000E+00  0.15301788458E+03  0.15301788458E+03  0.00000000000E+00 0.  1.
         21   -1    0    0  501  502 -0.00000000000E+00 -0.00000000000E+00 -0.27361868165E+03  0.27361868165E+03  0.00000000000E+00 0.  1.
         25    1    1    2    0    0  0.15812443889E+02 -0.35030292300E+02 -0.65676278073E+02  0.14634045327E+03  0.12500000000E+03 0.  0.
         25    1    1    2    0    0 -0.83983444223E+01 -0.34754801190E+02 -0.11549239494E+02  0.13052514443E+03  0.12500000000E+03 0.  0.
         25    1    1    2    0    0 -0.74140994670E+01  0.69785093490E+02 -0.43375279510E+02  0.14977096854E+03  0.12500000000E+03 0.  0.
</event>
<event>
 5    0  0.5720942E-005  0.5456628E+03  0.7546771E-02  0.1002503E+00
         21   -1    0    0  502  501  0.00000000000E+00  0.00000000000E+00  0.89316790012E+03  0.89316790012E+03  0.00000000000E+00 0. -1.
         21   -1    0    0  501  502 -0.00000000000E+00 -0.00000000000E+00 -0.33336163156E+03  0.33336163156E+03  0.00000000000E+00 0. -1.
         25    1    1    2    0    0  0.23499350950E+03 -0.18588373899E+03  0.41668249740E+03  0.52822724047E+03  0.12500000000E+03 0.  0.
         25    1    1    2    0    0 -0.37097021644E+03  0.43134734201E+02  0.22176302176E+03  0.45197715053E+03  0.12500000000E+03 0.  0.
         25    1    1    2    0    0  0.13597670694E+03  0.14274900479E+03 -0.78639250598E+02  0.24632514069E+03  0.12500000000E+03 0.  0.
</event>
<event>
 5    0  0.5720942E-005  0.2297568E+03  0.7546771E-02  0.1126811E+00
         21   -1    0    0  502  501  0.00000000000E+00  0.00000000000E+00  0.13090088114E+03  0.13090088114E+03  0.00000000000E+00 0. -1.
         21   -1    0    0  501  502 -0.00000000000E+00 -0.00000000000E+00 -0.40326821149E+03  0.40326821149E+03  0.00000000000E+00 0. -1.
         25    1    1    2    0    0  0.71698240774E+01 -0.10829350232E+03 -0.12123566637E+03  0.20518766001E+03  0.12500000000E+03 0.  0.
         25    1    1    2    0    0 -0.77316326527E+01  0.32971964706E+02 -0.16731694717E+02  0.13058284040E+03  0.12500000000E+03 0.  0.
         25    1    1    2    0    0  0.56180857534E+00  0.75321537610E+02 -0.13439996926E+03  0.19839859222E+03  0.12500000000E+03 0.  0.
</event>
<event>
 5    0  0.5720942E-005  0.3439444E+03  0.7546771E-02  0.1065128E+00
         21   -1    0    0  502  501  0.00000000000E+00  0.00000000000E+00  0.11437739284E+03  0.11437739284E+03  0.00000000000E+00 0.  1.
         21   -1    0    0  501  502 -0.00000000000E+00 -0.00000000000E+00 -0.10342758884E+04  0.10342758884E+04  0.00000000000E+00 0.  1.
         25    1    1    2    0    0  0.11355906242E+03  0.16267325032E+03 -0.13939640614E+03  0.27279040502E+03  0.12500000000E+03 0.  0.
         25    1    1    2    0    0  0.10400712693E+02 -0.22417377836E+02 -0.10913121380E+03  0.16776571604E+03  0.12500000000E+03 0.  0.
         25    1    1    2    0    0 -0.12395977511E+03 -0.14025587248E+03 -0.67137087558E+03  0.70809716014E+03  0.12500000000E+03 0.  0.
</event>
<event>
 5    0  0.5720942E-005  0.3315603E+03  0.7546771E-02  0.1070449E+00
         21   -1    0    0  502  501  0.00000000000E+00  0.00000000000E+00  0.32807708699E+04  0.32807708699E+04  0.00000000000E+00 0.  1.
         21   -1    0    0  501  502 -0.00000000000E+00 -0.00000000000E+00 -0.33508050741E+02  0.33508050741E+02  0.00000000000E+00 0.  1.
         25    1    1    2    0    0 -0.15434541971E+03  0.10032956890E+03  0.12503513641E+04  0.12699968758E+04  0.12500000000E+03 0.  0.
         25    1    1    2    0    0  0.22842987958E+03 -0.11507223266E+03  0.14800888313E+04  0.15072192200E+04  0.12500000000E+03 0.  0.
         25    1    1    2    0    0 -0.74084459862E+02  0.14742663761E+02  0.51682262369E+03  0.53706282471E+03  0.12500000000E+03 0.  0.
</event>
<event>
 5    0  0.5720942E-005  0.3644246E+03  0.7546771E-02  0.1056846E+00
         21   -1    0    0  502  501  0.00000000000E+00  0.00000000000E+00  0.65085311283E+02  0.65085311283E+02  0.00000000000E+00 0. -1.
         21   -1    0    0  501  502 -0.00000000000E+00 -0.00000000000E+00 -0.20404798106E+04  0.20404798106E+04  0.00000000000E+00 0. -1.
         25    1    1    2    0    0 -0.25559237712E+03  0.90109625390E+02 -0.73929909977E+03  0.79726743741E+03  0.12500000000E+03 0.  0.
         25    1    1    2    0    0  0.24113617268E+03 -0.16160521356E+02 -0.93344196060E+03  0.97228941681E+03  0.12500000000E+03 0.  0.
         25    1    1    2    0    0  0.14456204438E+02 -0.73949104034E+02 -0.30265343892E+03  0.33600826765E+03  0.12500000000E+03 0.  0.
</event>
<event>
 5    0  0.5720942E-005  0.2615717E+03  0.7546771E-02  0.1106203E+00
         21   -1    0    0  502  501  0.00000000000E+00  0.00000000000E+00  0.13417336246E+04  0.13417336246E+04  0.00000000000E+00 0. -1.
         21   -1    0    0  501  502 -0.00000000000E+00 -0.00000000000E+00 -0.50993557143E+02  0.50993557143E+02  0.00000000000E+00 0. -1.
         25    1    1    2    0    0 -0.12221619392E+03 -0.42919927312E+02  0.29387718601E+03  0.34462692680E+03  0.12500000000E+03 0.  0.
         25    1    1    2    0    0  0.13064855533E+03 -0.14252027855E+01  0.44228173886E+03  0.47781713316E+03  0.12500000000E+03 0.  0.
         25    1    1    2    0    0 -0.84323614104E+01  0.44345130098E+02  0.55458114263E+03  0.57028312183E+03  0.12500000000E+03 0.  0.
</event>
<event>
 5    0  0.5720942E-005  0.5061357E+03  0.7546771E-02  0.1012190E+00
         21   -1    0    0  502  501  0.00000000000E+00  0.00000000000E+00  0.33113292037E+03  0.33113292037E+03  0.00000000000E+00 0. -1.
         21   -1    0    0  501  502 -0.00000000000E+00 -0.00000000000E+00 -0.77362702476E+03  0.77362702476E+03  0.00000000000E+00 0. -1.
         25    1    1    2    0    0  0.26702542935E+03  0.41536312793E+02 -0.27462268245E+03  0.40505612317E+03  0.12500000000E+03 0.  0.
         25    1    1    2    0    0 -0.18047314882E+03 -0.24093049863E+03 -0.27554895876E+03  0.42681411796E+03  0.12500000000E+03 0.  0.
         25    1    1    2    0    0 -0.86552280536E+02  0.19939418583E+03  0.10767753682E+03  0.27288970399E+03  0.12500000000E+03 0.  0.
</event>
<event>
 5    0  0.6334353E-005  0.4668645E+03  0.7546771E-02  0.1022809E+00
         21   -1    0    0  502  501  0.00000000000E+00  0.00000000000E+00  0.10640137810E+04  0.10640137810E+04  0.00000000000E+00 0.  1.
         21   -1    0    0  501  502 -0.00000000000E+00 -0.00000000000E+00 -0.20484932118E+03  0.20484932118E+03  0.00000000000E+00 0.  1.
         25    1    1    2    0    0 -0.10890379585E+03 -0.21498327940E+01 -0.58496831819E+02  0.17581677356E+03  0.12500000000E+03 0.  0.
         25    1    1    2    0    0 -0.18850045942E+03 -0.53273178301E+02  0.56996451555E+03  0.61551198502E+03  0.12500000000E+03 0.  0.
         25    1    1    2    0    0  0.29740425527E+03  0.55423011095E+02  0.34769677611E+03  0.47753434361E+03  0.12500000000E+03 0.  0.
</event>
<event>
 5    0  0.5720942E-005  0.2683386E+03  0.7546771E-02  0.1102234E+00
         21   -1    0    0  502  501  0.00000000000E+00  0.00000000000E+00  0.21337449778E+03  0.21337449778E+03  0.00000000000E+00 0.  1.
         21   -1    0    0  501  502 -0.00000000000E+00 -0.00000000000E+00 -0.33746103751E+03  0.33746103751E+03  0.00000000000E+00 0.  1.
         25    1    1    2    0    0 -0.42589180627E+02  0.15822345054E+01  0.66470194589E+01  0.13223284252E+03  0.12500000000E+03 0.  0.
         25    1    1    2    0    0  0.14127439387E+03 -0.12028651042E+02 -0.17002245682E+03  0.25423567537E+03  0.12500000000E+03 0.  0.
         25    1    1    2    0    0 -0.98685213242E+02  0.10446416537E+02  0.39288897634E+02  0.16436701740E+03  0.12500000000E+03 0.  0.
</event>
<event>
 5    0  0.5720942E-005  0.3533092E+03  0.7546771E-02  0.1061265E+00
         21   -1    0    0  502  501  0.00000000000E+00  0.00000000000E+00  0.14403813381E+03  0.14403813381E+03  0.00000000000E+00 0. -1.
         21   -1    0    0  501  502 -0.00000000000E+00 -0.00000000000E+00 -0.86662749852E+03  0.86662749852E+03  0.00000000000E+00 0. -1.
         25    1    1    2    0    0 -0.21969134041E+03  0.53298236485E+02 -0.56525561827E+03  0.62148523800E+03  0.12500000000E+03 0.  0.
         25    1    1    2    0    0  0.13754114531E+03  0.17803421111E+01 -0.13155801751E+03  0.22771308316E+03  0.12500000000E+03 0.  0.
         25    1    1    2    0    0  0.82150195093E+02 -0.55078578596E+02 -0.25775728922E+02  0.16146731117E+03  0.12500000000E+03 0.  0.
</event>
<event>
 5    0  0.5911844E-005  0.3484915E+03  0.7546771E-02  0.1063236E+00
         21   -1    0    0  502  501  0.00000000000E+00  0.00000000000E+00  0.54018566787E+03  0.54018566787E+03  0.00000000000E+00 0. -1.
         21   -1    0    0  501  502 -0.00000000000E+00 -0.00000000000E+00 -0.22482330666E+03  0.22482330666E+03  0.00000000000E+00 0. -1.
         25    1    1    2    0    0 -0.16476496180E+03 -0.10298041905E+03  0.95094865993E+02  0.24984093516E+03  0.12500000000E+03 0.  0.
         25    1    1    2    0    0 -0.87909397232E+02  0.11034686503E+02  0.14103900559E+03  0.20824703485E+03  0.12500000000E+03 0.  0.
         25    1    1    2    0    0  0.25267435903E+03  0.91945732547E+02  0.79228489629E+02  0.30692100452E+03  0.12500000000E+03 0.  0.
</event>
<event>
 5    0  0.5720942E-005  0.3084301E+03  0.7546771E-02  0.1081101E+00
         21   -1    0    0  502  501  0.00000000000E+00  0.00000000000E+00  0.64452689823E+03  0.64452689823E+03  0.00000000000E+00 0.  1.
         21   -1    0    0  501  502 -0.00000000000E+00 -0.00000000000E+00 -0.14759524520E+03  0.14759524520E+03  0.00000000000E+00 0.  1.
         25    1    1    2    0    0  0.13466658702E+03  0.12946864686E+03  0.60083265378E+02  0.23266331674E+03  0.12500000000E+03 0.  0.
         25    1    1    2    0    0 -0.12787397092E+03 -0.48008341841E+02  0.32048611735E+03  0.37012552566E+03  0.12500000000E+03 0.  0.
         25    1    1    2    0    0 -0.67926160952E+01 -0.81460305023E+02  0.11636227030E+03  0.18933330102E+03  0.12500000000E+03 0.  0.
</event>
<event>
 5    0  0.5720942E-005  0.4776418E+03  0.7546771E-02  0.1019785E+00
         21   -1    0    0  502  501  0.00000000000E+00  0.00000000000E+00  0.10212833002E+03  0.10212833002E+03  0.00000000000E+00 0.  1.
         21   -1    0    0  501  502 -0.00000000000E+00 -0.00000000000E+00 -0.22338724267E+04  0.22338724267E+04  0.00000000000E+00 0.  1.
         25    1    1    2    0    0 -0.17911695945E+03  0.14399774002E+03 -0.25953215386E+03  0.36851075043E+03  0.12500000000E+03 0.  0.
         25    1    1    2    0    0  0.21136909017E+03  0.14103829554E+03 -0.10573407617E+04  0.10946064039E+04  0.12500000000E+03 0.  0.
         25    1    1    2    0    0 -0.32252130715E+02 -0.28503603556E+03 -0.81487118110E+03  0.87288360237E+03  0.12500000000E+03 0.  0.
</event>
<event>
 5    0  0.5720942E-005  0.2508016E+03  0.7546771E-02  0.1112799E+00
         21   -1    0    0  502  501  0.00000000000E+00  0.00000000000E+00  0.77241906755E+02  0.77241906755E+02  0.00000000000E+00 0.  1.
         21   -1    0    0  501  502 -0.00000000000E+00 -0.00000000000E+00 -0.81434334946E+03  0.81434334946E+03  0.00000000000E+00 0.  1.
         25    1    1    2    0    0  0.33943226526E+02  0.49839665996E+01 -0.32720212360E+03  0.35194205807E+03  0.12500000000E+03 0.  0.
         25    1    1    2    0    0 -0.10583451018E+03 -0.86280621431E+02 -0.20460042457E+03  0.27591959501E+03  0.12500000000E+03 0.  0.
         25    1    1    2    0    0  0.71891283650E+02  0.81296654832E+02 -0.20529889455E+03  0.26372360314E+03  0.12500000000E+03 0.  0.
</event>
<event>
 5    0  0.5720942E-005  0.4069778E+03  0.7546771E-02  0.1041390E+00
         21   -1    0    0  502  501  0.00000000000E+00  0.00000000000E+00  0.70304300066E+03  0.70304300066E+03  0.00000000000E+00 0.  1.
         21   -1    0    0  501  502 -0.00000000000E+00 -0.00000000000E+00 -0.23559148623E+03  0.23559148623E+03  0.00000000000E+00 0.  1.
         25    1    1    2    0    0 -0.19250972675E+03  0.12467688045E+03 -0.30946419404E+02  0.26303421885E+03  0.12500000000E+03 0.  0.
         25    1    1    2    0    0  0.12462096614E+03  0.43820261631E+02  0.72081537048E+02  0.19563064309E+03  0.12500000000E+03 0.  0.
         25    1    1    2    0    0  0.67888760607E+02 -0.16849714208E+03  0.42631639679E+03  0.47996962495E+03  0.12500000000E+03 0.  0.
</event>
<event>
 5    0  0.5720942E-005  0.3886392E+03  0.7546771E-02  0.1047786E+00
         21   -1    0    0  502  501  0.00000000000E+00  0.00000000000E+00  0.77716979280E+02  0.77716979280E+02  0.00000000000E+00 0. -1.
         21   -1    0    0  501  502 -0.00000000000E+00 -0.00000000000E+00 -0.19434678960E+04  0.19434678960E+04  0.00000000000E+00 0. -1.
         25    1    1    2    0    0 -0.20321163667E+03 -0.13483811239E+02 -0.40473537114E+03  0.47001330098E+03  0.12500000000E+03 0.  0.
         25    1    1    2    0    0  0.40171163530E+02 -0.10537162344E+03 -0.17271365602E+03  0.24118853286E+03  0.12500000000E+03 0.  0.
         25    1    1    2    0    0  0.16304047314E+03  0.11885543468E+03 -0.12883018895E+04  0.13099830414E+04  0.12500000000E+03 0.  0.
</event>
<event>
 5    0  0.5720942E-005  0.2521024E+03  0.7546771E-02  0.1111983E+00
         21   -1    0    0  502  501  0.00000000000E+00  0.00000000000E+00  0.13858920211E+03  0.13858920211E+03  0.00000000000E+00 0.  1.
         21   -1    0    0  501  502 -0.00000000000E+00 -0.00000000000E+00 -0.45858980404E+03  0.45858980404E+03  0.00000000000E+00 0.  1.
         25    1    1    2    0    0  0.22708222593E+01 -0.36786698627E+02  0.18326502709E+02  0.13160272995E+03  0.12500000000E+03 0.  0.
         25    1    1    2    0    0 -0.74885855080E+02  0.46993585847E+01 -0.76172973857E+02  0.16449102470E+03  0.12500000000E+03 0.  0.
         25    1    1    2    0    0  0.72615032820E+02  0.32087340042E+02 -0.26215413078E+03  0.30108525150E+03  0.12500000000E+03 0.  0.
</event>
<event>
 5    0  0.5720942E-005  0.4348568E+03  0.7546771E-02  0.1032337E+00
         21   -1    0    0  502  501  0.00000000000E+00  0.00000000000E+00  0.72488361381E+02  0.72488361381E+02  0.00000000000E+00 0. -1.
         21   -1    0    0  501  502 -0.00000000000E+00 -0.00000000000E+00 -0.26087005041E+04  0.26087005041E+04  0.00000000000E+00 0. -1.
         25    1    1    2    0    0 -0.12116882786E+03  0.11374260358E+03 -0.20683610779E+03  0.29330093795E+03  0.12500000000E+03 0.  0.
         25    1    1    2    0    0 -0.34868057565E+02 -0.10347354232E+03 -0.25745623979E+03  0.30631890377E+03  0.12500000000E+03 0.  0.
         25    1    1    2    0    0  0.15603688542E+03 -0.10269061259E+02 -0.20719197952E+04  0.20815690238E+04  0.12500000000E+03 0.  0.
</event>
<event>
 5    0  0.5720942E-005  0.2823659E+03  0.7546771E-02  0.1094404E+00
         21   -1    0    0  502  501  0.00000000000E+00  0.00000000000E+00  0.16339004084E+03  0.16339004084E+03  0.00000000000E+00 0.  1.
         21   -1    0    0  501  502 -0.00000000000E+00 -0.00000000000E+00 -0.48797656127E+03  0.48797656127E+03  0.00000000000E+00 0.  1.
         25    1    1    2    0    0  0.96968815080E+02  0.59166274493E+02 -0.92217453091E+02  0.19243871178E+03  0.12500000000E+03 0.  0.
         25    1    1    2    0    0 -0.15682825122E+03 -0.73141778993E+02 -0.33434790533E+02  0.21607337974E+03  0.12500000000E+03 0.  0.
         25    1    1    2    0    0  0.59859436144E+02  0.13975504500E+02 -0.19893427681E+03  0.24285451059E+03  0.12500000000E+03 0.  0.
</event>
<event>
 5    0  0.5720942E-005  0.2817273E+03  0.7546771E-02  0.1094749E+00
         21   -1    0    0  502  501  0.00000000000E+00  0.00000000000E+00  0.52440476651E+03  0.52440476651E+03  0.00000000000E+00 0.  1.
         21   -1    0    0  501  502 -0.00000000000E+00 -0.00000000000E+00 -0.15135311631E+03  0.15135311631E+03  0.00000000000E+00 0.  1.
         25    1    1    2    0    0 -0.94287045471E+02  0.85511128338E+02  0.12162606599E+03  0.21591688202E+03  0.12500000000E+03 0.  0.
         25    1    1    2    0    0  0.14848862113E+03 -0.73868547806E+02  0.24743682586E+03  0.32304088867E+03  0.12500000000E+03 0.  0.
         25    1    1    2    0    0 -0.54201575654E+02 -0.11642580532E+02  0.39887583451E+01  0.13680011213E+03  0.12500000000E+03 0.  0.
</event>
<event>
 5    0  0.5720942E-005  0.4852241E+03  0.7546771E-02  0.1017709E+00
         21   -1    0    0  502  501  0.00000000000E+00  0.00000000000E+00  0.11177316450E+04  0.11177316450E+04  0.00000000000E+00 0. -1.
         21   -1    0    0  501  502 -0.00000000000E+00 -0.00000000000E+00 -0.21064309337E+03  0.21064309337E+03  0.00000000000E+00 0. -1.
         25    1    1    2    0    0 -0.19866010750E+03 -0.80379995877E+02  0.50509663877E+02  0.25318571878E+03  0.12500000000E+03 0.  0.
         25    1    1    2    0    0 -0.44104443187E+02 -0.13870546445E+03  0.53585894555E+02  0.19920054185E+03  0.12500000000E+03 0.  0.
         25    1    1    2    0    0  0.24276455069E+03  0.21908546033E+03  0.80299299325E+03  0.87598847778E+03  0.12500000000E+03 0.  0.
</event>
<event>
 5    0  0.5720942E-005  0.2794886E+03  0.7546771E-02  0.1095969E+00
         21   -1    0    0  502  501  0.00000000000E+00  0.00000000000E+00  0.47171172111E+02  0.47171172111E+02  0.00000000000E+00 0. -1.
         21   -1    0    0  501  502 -0.00000000000E+00 -0.00000000000E+00 -0.16559667602E+04  0.16559667602E+04  0.00000000000E+00 0. -1.
         25    1    1    2    0    0 -0.58738936738E+02 -0.61114647317E+02 -0.94998471348E+03  0.96191539059E+03  0.12500000000E+03 0.  0.
         25    1    1    2    0    0 -0.19644115900E+02 -0.59529220981E+02 -0.36646128513E+03  0.39223525203E+03  0.12500000000E+03 0.  0.
         25    1    1    2    0    0  0.78383052638E+02  0.12064386830E+03 -0.29234958952E+03  0.34898728973E+03  0.12500000000E+03 0.  0.
</event>
<event>
 5    0  0.5720942E-005  0.2353535E+03  0.7546771E-02  0.1122927E+00
         21   -1    0    0  502  501  0.00000000000E+00  0.00000000000E+00  0.11315699865E+04  0.11315699865E+04  0.00000000000E+00 0. -1.
         21   -1    0    0  501  502 -0.00000000000E+00 -0.00000000000E+00 -0.48950810922E+02  0.48950810922E+02  0.00000000000E+00 0. -1.
         25    1    1    2    0    0  0.53418541434E+02  0.33099084689E+02  0.29700912040E+03  0.32831160135E+03  0.12500000000E+03 0.  0.
         25    1    1    2    0    0 -0.72724758289E+02  0.70378667061E+02  0.47075890952E+03  0.49747462060E+03  0.12500000000E+03 0.  0.
         25    1    1    2    0    0  0.19306216855E+02 -0.10347775175E+03  0.31485114560E+03  0.35473457543E+03  0.12500000000E+03 0.  0.
</event>
<event>
 5    0  0.5720942E-005  0.3634742E+03  0.7546771E-02  0.1057217E+00
         21   -1    0    0  502  501  0.00000000000E+00  0.00000000000E+00  0.17121147954E+04  0.17121147954E+04  0.00000000000E+00 0.  1.
         21   -1    0    0  501  502 -0.00000000000E+00 -0.00000000000E+00 -0.77163903453E+02  0.77163903453E+02  0.00000000000E+00 0.  1.
         25    1    1    2    0    0 -0.47884182642E+02 -0.73342309093E+02  0.80180117250E+02  0.17241183385E+03  0.12500000000E+03 0.  0.
         25    1    1    2    0    0  0.13663986954E+03  0.93573147037E+02  0.13169404903E+04  0.13331855245E+04  0.12500000000E+03 0.  0.
         25    1    1    2    0    0 -0.88755686898E+02 -0.20230837943E+02  0.23783028440E+03  0.28368134048E+03  0.12500000000E+03 0.  0.
</event>
<event>
 5    0  0.5720942E-005  0.3124169E+03  0.7546771E-02  0.1079193E+00
         21   -1    0    0  502  501  0.00000000000E+00  0.00000000000E+00  0.15812724314E+04  0.15812724314E+04  0.00000000000E+00 0.  1.
         21   -1    0    0  501  502 -0.00000000000E+00 -0.00000000000E+00 -0.61725174607E+02  0.61725174607E+02  0.00000000000E+00 0.  1.
         25    1    1    2    0    0  0.38287172184E+02  0.54236159356E+02  0.15028705228E+03  0.20644288948E+03  0.12500000000E+03 0.  0.
         25    1    1    2    0    0  0.12196000246E+03 -0.48613238804E+02  0.32001845657E+03  0.36779654938E+03  0.12500000000E+03 0.  0.
         25    1    1    2    0    0 -0.16024717465E+03 -0.56229205526E+01  0.10492417479E+04  0.10687581671E+04  0.12500000000E+03 0.  0.
</event>
<event>
 5    0  0.5720942E-005  0.2717549E+03  0.7546771E-02  0.1100279E+00
         21   -1    0    0  502  501  0.00000000000E+00  0.00000000000E+00  0.82432536911E+03  0.82432536911E+03  0.00000000000E+00 0. -1.
         21   -1    0    0  501  502 -0.00000000000E+00 -0.00000000000E+00 -0.89589261177E+02  0.89589261177E+02  0.00000000000E+00 0. -1.
         25    1    1    2    0    0 -0.34115379125E+02 -0.86352181045E+01  0.77367036701E+02  0.15115913619E+03  0.12500000000E+03 0.  0.
         25    1    1    2    0    0 -0.11426179558E+03 -0.55698677511E+02  0.36253259206E+03  0.40399626349E+03  0.12500000000E+03 0.  0.
         25    1    1    2    0    0  0.14837717471E+03  0.64333895616E+02  0.29483647917E+03  0.35875923061E+03  0.12500000000E+03 0.  0.
</event>
<event>
 5    0  0.5720942E-005  0.4394566E+03  0.7546771E-02  0.1030914E+00
         21   -1    0    0  502  501  0.00000000000E+00  0.00000000000E+00  0.44237019310E+03  0.44237019310E+03  0.00000000000E+00 0. -1.
         21   -1    0    0  501  502 -0.00000000000E+00 -0.00000000000E+00 -0.43656229019E+03  0.43656229019E+03  0.00000000000E+00 0. -1.
         25    1    1    2    0    0  0.15687315516E+03 -0.10638111918E+03 -0.20346876205E+03  0.30487811738E+03  0.12500000000E+03 0.  0.
         25    1    1    2    0    0  0.13568688076E+03  0.43431678499E+02  0.15582831764E+03  0.24536647059E+03  0.12500000000E+03 0.  0.
         25    1    1    2    0    0 -0.29256003593E+03  0.62949440680E+02  0.53448347317E+02  0.32868789533E+03  0.12500000000E+03 0.  0.
</event>
<event>
 5    0  0.5720942E-005  0.4401081E+03  0.7546771E-02  0.1030714E+00
         21   -1    0    0  502  501  0.00000000000E+00  0.00000000000E+00  0.35063213683E+04  0.35063213683E+04  0.00000000000E+00 0.  1.
         21   -1    0    0  501  502 -0.00000000000E+00 -0.00000000000E+00 -0.55241708055E+02  0.55241708055E+02  0.00000000000E+00 0.  1.
         25    1    1    2    0    0 -0.76589235380E+02  0.28279883543E+02  0.12038900268E+03  0.19179200910E+03  0.12500000000E+03 0.  0.
         25    1    1    2    0    0 -0.17833163264E+01 -0.99999307266E+02  0.29609262195E+04  0.29652507683E+04  0.12500000000E+03 0.  0.
         25    1    1    2    0    0  0.78372551706E+02  0.71719423723E+02  0.36976443814E+03  0.40452029901E+03  0.12500000000E+03 0.  0.
</event>
<event>
 5    0  0.5720942E-005  0.3764716E+03  0.7546771E-02  0.1052246E+00
         21   -1    0    0  502  501  0.00000000000E+00  0.00000000000E+00  0.23799354724E+03  0.23799354724E+03  0.00000000000E+00 0. -1.
         21   -1    0    0  501  502 -0.00000000000E+00 -0.00000000000E+00 -0.59552399934E+03  0.59552399934E+03  0.00000000000E+00 0. -1.
         25    1    1    2    0    0  0.88878342193E+02 -0.53063794340E+02 -0.18429214491E+03  0.24556815888E+03  0.12500000000E+03 0.  0.
         25    1    1    2    0    0  0.12563386066E+03 -0.39207526964E+02  0.10014246861E+03  0.20730318650E+03  0.12500000000E+03 0.  0.
         25    1    1    2    0    0 -0.21451220286E+03  0.92271321304E+02 -0.27338077579E+03  0.38064620119E+03  0.12500000000E+03 0.  0.
</event>
<event>
 5    0  0.5720942E-005  0.3105858E+03  0.7546771E-02  0.1080065E+00
         21   -1    0    0  502  501  0.00000000000E+00  0.00000000000E+00  0.11380153327E+03  0.11380153327E+03  0.00000000000E+00 0. -1.
         21   -1    0    0  501  502 -0.00000000000E+00 -0.00000000000E+00 -0.84764701582E+03  0.84764701582E+03  0.00000000000E+00 0. -1.
         25    1    1    2    0    0  0.88528559722E+02 -0.58911046414E+02 -0.95700917228E+02  0.18997758508E+03  0.12500000000E+03 0.  0.
         25    1    1    2    0    0 -0.20463425967E+03  0.90431117429E+02 -0.42917971008E+03  0.49987317469E+03  0.12500000000E+03 0.  0.
         25    1    1    2    0    0  0.11610569995E+03 -0.31520071015E+02 -0.20896485524E+03  0.27159778932E+03  0.12500000000E+03 0.  0.
</event>
<event>
 5    0  0.5720942E-005  0.2816366E+03  0.7546771E-02  0.1094798E+00
         21   -1    0    0  502  501  0.00000000000E+00  0.00000000000E+00  0.80315192519E+02  0.80315192519E+02  0.00000000000E+00 0.  1.
         21   -1    0    0  501  502 -0.00000000000E+00 -0.00000000000E+00 -0.98759838967E+03  0.98759838967E+03  0.00000000000E+00 0.  1.
         25    1    1    2    0    0 -0.64769684890E+02 -0.66984426757E+02 -0.20011350254E+03  0.25367782601E+03  0.12500000000E+03 0.  0.
         25    1    1    2    0    0 -0.82421214649E+02  0.81483756440E+02 -0.51059078206E+03  0.53829434876E+03  0.12500000000E+03 0.  0.
         25    1    1    2    0    0  0.14719089954E+03 -0.14499329683E+02 -0.19657891255E+03  0.27594140742E+03  0.12500000000E+03 0.  0.
</event>
<event>
 5    0  0.5720942E-005  0.3356071E+03  0.7546771E-02  0.1068682E+00
         21   -1    0    0  502  501  0.00000000000E+00  0.00000000000E+00  0.18978032422E+04  0.18978032422E+04  0.00000000000E+00 0. -1.
         21   -1    0    0  501  502 -0.00000000000E+00 -0.00000000000E+00 -0.59348701803E+02  0.59348701803E+02  0.00000000000E+00 0. -1.
         25    1    1    2    0    0 -0.12342947240E+03  0.14437794698E+02  0.25292010346E+03  0.30828049453E+03  0.12500000000E+03 0.  0.
         25    1    1    2    0    0  0.19845662515E+03 -0.10689955058E+03  0.11851325300E+04  0.12128382661E+04  0.12500000000E+03 0.  0.
         25    1    1    2    0    0 -0.75027152748E+02  0.92461755883E+02  0.40040190694E+03  0.43603318341E+03  0.12500000000E+03 0.  0.
</event>
<event>
 5    0  0.5720942E-005  0.4654500E+03  0.7546771E-02  0.1023212E+00
         21   -1    0    0  502  501  0.00000000000E+00  0.00000000000E+00  0.38928903313E+03  0.38928903313E+03  0.00000000000E+00 0. -1.
         21   -1    0    0  501  502 -0.00000000000E+00 -0.00000000000E+00 -0.55651116471E+03  0.55651116471E+03  0.00000000000E+00 0. -1.
         25    1    1    2    0    0  0.18517229381E+03 -0.30577550682E+03 -0.95576038821E+02  0.39057293578E+03  0.12500000000E+03 0.  0.
         25    1    1    2    0    0 -0.22199248282E+03  0.11214723405E+03 -0.14061328043E+03  0.31185695305E+03  0.12500000000E+03 0.  0.
         25    1    1    2    0    0  0.36820189006E+02  0.19362827277E+03  0.68967187668E+02  0.24337030901E+03  0.12500000000E+03 0.  0.
</event>
<event>
 5    0  0.5720942E-005  0.2451057E+03  0.7546771E-02  0.1116438E+00
         21   -1    0    0  502  501  0.00000000000E+00  0.00000000000E+00  0.29526857541E+02  0.29526857541E+02  0.00000000000E+00 0.  1.
         21   -1    0    0  501  502 -0.00000000000E+00 -0.00000000000E+00 -0.20346498455E+04  0.20346498455E+04  0.00000000000E+00 0.  1.
         25    1    1    2    0    0  0.82385125787E+01  0.35273245409E+01 -0.36568177519E+03  0.38655979591E+03  0.12500000000E+03 0.  0.
         25    1    1    2    0    0  0.11685499537E+03  0.23532886072E+02 -0.67678696697E+03  0.69848012523E+03  0.12500000000E+03 0.  0.
         25    1    1    2    0    0 -0.12509350795E+03 -0.27060210613E+02 -0.96265424575E+03  0.97913678186E+03  0.12500000000E+03 0.  0.
</event>
<event>
 5    0  0.5720942E-005  0.7084572E+03  0.7546771E-02  0.9702878E-01
         21   -1    0    0  502  501  0.00000000000E+00  0.00000000000E+00  0.16893541457E+04  0.16893541457E+04  0.00000000000E+00 0. -1.
         21   -1    0    0  501  502 -0.00000000000E+00 -0.00000000000E+00 -0.29710267634E+03  0.29710267634E+03  0.00000000000E+00 0. -1.
         25    1    1    2    0    0  0.18949175840E+03  0.32518902599E+03  0.92890317600E+02  0.40731884345E+03  0.12500000000E+03 0.  0.
         25    1    1    2    0    0 -0.26886184782E+03  0.15935941365E+03  0.26882088107E+03  0.43078043367E+03  0.12500000000E+03 0.  0.
         25    1    1    2    0    0  0.79370089420E+02 -0.48454843964E+03  0.10305402707E+04  0.11483575449E+04  0.12500000000E+03 0.  0.
</event>
<event>
 5    0  0.5720942E-005  0.2975143E+03  0.7546771E-02  0.1086490E+00
         21   -1    0    0  502  501  0.00000000000E+00  0.00000000000E+00  0.14911274759E+03  0.14911274759E+03  0.00000000000E+00 0. -1.
         21   -1    0    0  501  502 -0.00000000000E+00 -0.00000000000E+00 -0.59360961245E+03  0.59360961245E+03  0.00000000000E+00 0.  1.
         25    1    1    2    0    0 -0.22646170550E+01  0.14451860447E+03 -0.12270581101E+03  0.22709573221E+03  0.12500000000E+03 0.  0.
         25    1    1    2    0    0  0.46926861541E+02  0.69605108790E+02 -0.10949408012E+03  0.18617452856E+03  0.12500000000E+03 0.  0.
         25    1    1    2    0    0 -0.44662244486E+02 -0.21412371326E+03 -0.21229697373E+03  0.32945209928E+03  0.12500000000E+03 0.  0.
</event>
<event>
 5    0  0.5720942E-005  0.3149565E+03  0.7546771E-02  0.1077994E+00
         21   -1    0    0  502  501  0.00000000000E+00  0.00000000000E+00  0.99232161847E+02  0.99232161847E+02  0.00000000000E+00 0. -1.
         21   -1    0    0  501  502 -0.00000000000E+00 -0.00000000000E+00 -0.99965197563E+03  0.99965197563E+03  0.00000000000E+00 0. -1.
         25    1    1    2    0    0 -0.82123886116E+00  0.43041452557E+02 -0.85410475986E+02  0.15739501415E+03  0.12500000000E+03 0.  0.
         25    1    1    2    0    0 -0.13373007136E+03 -0.77685091174E+02 -0.14555001700E+03  0.24643155810E+03  0.12500000000E+03 0.  0.
         25    1    1    2    0    0  0.13455131023E+03  0.34643638618E+02 -0.66945932079E+03  0.69505756522E+03  0.12500000000E+03 0.  0.
</event>
<event>
 5    0  0.5720942E-005  0.2877552E+03  0.7546771E-02  0.1091527E+00
         21   -1    0    0  502  501  0.00000000000E+00  0.00000000000E+00  0.34200216611E+02  0.34200216611E+02  0.00000000000E+00 0.  1.
         21   -1    0    0  501  502 -0.00000000000E+00 -0.00000000000E+00 -0.24211271053E+04  0.24211271053E+04  0.00000000000E+00 0.  1.
         25    1    1    2    0    0 -0.17984766608E+03  0.62737187914E+02 -0.11403177344E+04  0.11628545365E+04  0.12500000000E+03 0.  0.
         25    1    1    2    0    0  0.13999184103E+03  0.97603901300E+01 -0.60136631339E+03  0.63004715986E+03  0.12500000000E+03 0.  0.
         25    1    1    2    0    0  0.39855825047E+02 -0.72497578044E+02 -0.64524284089E+03  0.66242562551E+03  0.12500000000E+03 0.  0.
</event>
<event>
 5    0  0.5720942E-005  0.3044167E+03  0.7546771E-02  0.1083053E+00
         21   -1    0    0  502  501  0.00000000000E+00  0.00000000000E+00  0.63309942268E+03  0.63309942268E+03  0.00000000000E+00 0. -1.
         21   -1    0    0  501  502 -0.00000000000E+00 -0.00000000000E+00 -0.14637435443E+03  0.14637435443E+03  0.00000000000E+00 0. -1.
         25    1    1    2    0    0  0.50962428490E+01 -0.53464675306E+02 -0.54830209181E+02  0.14668263372E+03  0.12500000000E+03 0.  0.
         25    1    1    2    0    0  0.21389519666E+02  0.11585107568E+03  0.20511647411E+03  0.26753831733E+03  0.12500000000E+03 0.  0.
         25    1    1    2    0    0 -0.26485762515E+02 -0.62386400370E+02  0.33643880332E+03  0.36525282606E+03  0.12500000000E+03 0.  0.
</event>
<event>
 5    0  0.5720942E-005  0.2846292E+03  0.7546771E-02  0.1093187E+00
         21   -1    0    0  502  501  0.00000000000E+00  0.00000000000E+00  0.10570918149E+03  0.10570918149E+03  0.00000000000E+00 0.  1.
         21   -1    0    0  501  502 -0.00000000000E+00 -0.00000000000E+00 -0.76638349627E+03  0.76638349627E+03  0.00000000000E+00 0.  1.
         25    1    1    2    0    0  0.82962186152E+02 -0.10391717777E+03 -0.71610044670E+02  0.19604719499E+03  0.12500000000E+03 0.  0.
         25    1    1    2    0    0 -0.12892559077E+03  0.77930719031E+02 -0.36134191696E+03  0.41095983487E+03  0.12500000000E+03 0.  0.
         25    1    1    2    0    0  0.45963404618E+02  0.25986458735E+02 -0.22772235315E+03  0.26508564791E+03  0.12500000000E+03 0.  0.
</event>
<event>
 5    0  0.5720942E-005  0.2596545E+03  0.7546771E-02  0.1107351E+00
         21   -1    0    0  502  501  0.00000000000E+00  0.00000000000E+00  0.10486905127E+04  0.10486905127E+04  0.00000000000E+00 0. -1.
         21   -1    0    0  501  502 -0.00000000000E+00 -0.00000000000E+00 -0.64290160537E+02  0.64290160537E+02  0.00000000000E+00 0. -1.
         25    1    1    2    0    0  0.54684860212E+02 -0.51493508239E+02  0.70826354192E+03  0.72312119325E+03  0.12500000000E+03 0.  0.
         25    1    1    2    0    0 -0.56570286355E+02  0.52893351974E+02  0.11973540369E+03  0.18962982592E+03  0.12500000000E+03 0.  0.
         25    1    1    2    0    0  0.18854261435E+01 -0.13998437350E+01  0.15640140656E+03  0.20022965407E+03  0.12500000000E+03 0.  0.
</event>
<event>
 5    0  0.5720942E-005  0.6823003E+03  0.7546771E-02  0.9747989E-01
         21   -1    0    0  502  501  0.00000000000E+00  0.00000000000E+00  0.59448332171E+03  0.59448332171E+03  0.00000000000E+00 0. -1.
         21   -1    0    0  501  502 -0.00000000000E+00 -0.00000000000E+00 -0.78308968925E+03  0.78308968925E+03  0.00000000000E+00 0. -1.
         25    1    1    2    0    0  0.12447668932E+03  0.61806017432E+02 -0.25777347936E+03  0.31841262010E+03  0.12500000000E+03 0.  0.
         25    1    1    2    0    0 -0.41060140520E+03 -0.40695020358E+03  0.41658520454E+02  0.59292698915E+03  0.12500000000E+03 0.  0.
         25    1    1    2    0    0  0.28612471588E+03  0.34514418615E+03  0.27508591373E+02  0.46623340171E+03  0.12500000000E+03 0.  0.
</event>
<event>
 5    0  0.5720942E-005  0.2783961E+03  0.7546771E-02  0.1096568E+00
         21   -1    0    0  502  501  0.00000000000E+00  0.00000000000E+00  0.54337118471E+03  0.54337118471E+03  0.00000000000E+00 0.  1.
         21   -1    0    0  501  502 -0.00000000000E+00 -0.00000000000E+00 -0.14263613074E+03  0.14263613074E+03  0.00000000000E+00 0.  1.
         25    1    1    2    0    0  0.86670089772E+02 -0.78952215333E+01 -0.10197862694E+02  0.15265331764E+03  0.12500000000E+03 0.  0.
         25    1    1    2    0    0  0.21967431933E+02  0.22025255977E+01  0.50422162705E+02  0.13658262582E+03  0.12500000000E+03 0.  0.
         25    1    1    2    0    0 -0.10863752170E+03  0.56926959356E+01  0.36051075396E+03  0.39677137199E+03  0.12500000000E+03 0.  0.
</event>
<event>
 5    0  0.5720942E-005  0.2528319E+03  0.7546771E-02  0.1111528E+00
         21   -1    0    0  502  501  0.00000000000E+00  0.00000000000E+00  0.18377947110E+03  0.18377947110E+03  0.00000000000E+00 0. -1.
         21   -1    0    0  501  502 -0.00000000000E+00 -0.00000000000E+00 -0.34782989266E+03  0.34782989266E+03  0.00000000000E+00 0. -1.
         25    1    1    2    0    0 -0.24222288334E+00  0.12614385708E+03 -0.39048595513E+02  0.18182993197E+03  0.12500000000E+03 0.  0.
         25    1    1    2    0    0  0.33086057173E+02 -0.85732856403E+02 -0.14565140081E+03  0.21280070583E+03  0.12500000000E+03 0.  0.
         25    1    1    2    0    0 -0.32843834290E+02 -0.40411000673E+02  0.20649574765E+02  0.13697872595E+03  0.12500000000E+03 0.  0.
</event>
<event>
 5    0  0.5720942E-005  0.3281657E+03  0.7546771E-02  0.1071951E+00
         21   -1    0    0  502  501  0.00000000000E+00  0.00000000000E+00  0.12268080549E+03  0.12268080549E+03  0.00000000000E+00 0.  1.
         21   -1    0    0  501  502 -0.00000000000E+00 -0.00000000000E+00 -0.87782854156E+03  0.87782854156E+03  0.00000000000E+00 0.  1.
         25    1    1    2    0    0 -0.89516074099E+02  0.86182806082E+01 -0.31407933027E+03  0.34979740992E+03  0.12500000000E+03 0.  0.
         25    1    1    2    0    0  0.21507542119E+03  0.28749981903E+02 -0.38841363266E+03  0.46214083167E+03  0.12500000000E+03 0.  0.
         25    1    1    2    0    0 -0.12555934709E+03 -0.37368262512E+02 -0.52654773142E+02  0.18857110547E+03  0.12500000000E+03 0.  0.
</event>
<event>
 5    0  0.5720942E-005  0.2127582E+03  0.7546771E-02  0.1139400E+00
         21   -1    0    0  502  501  0.00000000000E+00  0.00000000000E+00  0.16344335921E+04  0.16344335921E+04  0.00000000000E+00 0.  1.
         21   -1    0    0  501  502 -0.00000000000E+00 -0.00000000000E+00 -0.27695257551E+02  0.27695257551E+02  0.00000000000E+00 0.  1.
         25    1    1    2    0    0 -0.12437838378E+02 -0.30882675002E+01  0.47355651217E+03  0.48994388193E+03  0.12500000000E+03 0.  0.
         25    1    1    2    0    0 -0.60385458779E+02  0.46569920369E+02  0.63154580694E+03  0.64829797731E+03  0.12500000000E+03 0.  0.
         25    1    1    2    0    0  0.72823297157E+02 -0.43481652868E+02  0.50163601545E+03  0.52388699043E+03  0.12500000000E+03 0.  0.
</event>
<event>
 5    0  0.5720942E-005  0.2881690E+03  0.7546771E-02  0.1091309E+00
         21   -1    0    0  502  501  0.00000000000E+00  0.00000000000E+00  0.89554635859E+03  0.89554635859E+03  0.00000000000E+00 0.  1.
         21   -1    0    0  501  502 -0.00000000000E+00 -0.00000000000E+00 -0.92727077155E+02  0.92727077155E+02  0.00000000000E+00 0.  1.
         25    1    1    2    0    0  0.55494044004E+02  0.31276260765E+02  0.57313691416E+03  0.59005823084E+03  0.12500000000E+03 0.  0.
         25    1    1    2    0    0 -0.28711537896E+02 -0.75232940315E+02  0.21615185707E+03  0.26235657612E+03  0.12500000000E+03 0.  0.
         25    1    1    2    0    0 -0.26782506108E+02  0.43956679550E+02  0.13530510206E+02  0.13585862879E+03  0.12500000000E+03 0.  0.
</event>
<event>
 5    0  0.5720942E-005  0.4232432E+03  0.7546771E-02  0.1036016E+00
         21   -1    0    0  502  501  0.00000000000E+00  0.00000000000E+00  0.26492626527E+03  0.26492626527E+03  0.00000000000E+00 0.  1.
         21   -1    0    0  501  502 -0.00000000000E+00 -0.00000000000E+00 -0.67616853010E+03  0.67616853010E+03  0.00000000000E+00 0.  1.
         25    1    1    2    0    0  0.80223394221E+02  0.78897860701E+02 -0.11875726665E+03  0.20588577849E+03  0.12500000000E+03 0.  0.
         25    1    1    2    0    0 -0.31775927720E+03  0.72974725221E+02 -0.73121501325E+02  0.35674644038E+03  0.12500000000E+03 0.  0.
         25    1    1    2    0    0  0.23753588297E+03 -0.15187258592E+03 -0.21936349687E+03  0.37846257650E+03  0.12500000000E+03 0.  0.
</event>
<event>
 5    0  0.5720942E-005  0.2826423E+03  0.7546771E-02  0.1094254E+00
         21   -1    0    0  502  501  0.00000000000E+00  0.00000000000E+00  0.42413293158E+02  0.42413293158E+02  0.00000000000E+00 0.  1.
         21   -1    0    0  501  502 -0.00000000000E+00 -0.00000000000E+00 -0.18835297001E+04  0.18835297001E+04  0.00000000000E+00 0.  1.
         25    1    1    2    0    0 -0.20360806880E+02 -0.53496906181E+02 -0.10238074012E+04  0.10329971327E+04  0.12500000000E+03 0.  0.
         25    1    1    2    0    0  0.28980885959E+02  0.13948066766E+03 -0.58855097218E+03  0.61831383234E+03  0.12500000000E+03 0.  0.
         25    1    1    2    0    0 -0.86200790789E+01 -0.85983761478E+02 -0.22875803353E+03  0.27463202819E+03  0.12500000000E+03 0.  0.
</event>
<event>
 5    0  0.5720942E-005  0.2392400E+03  0.7546771E-02  0.1120300E+00
         21   -1    0    0  502  501  0.00000000000E+00  0.00000000000E+00  0.14032297085E+03  0.14032297085E+03  0.00000000000E+00 0.  1.
         21   -1    0    0  501  502 -0.00000000000E+00 -0.00000000000E+00 -0.40788603214E+03  0.40788603214E+03  0.00000000000E+00 0.  1.
         25    1    1    2    0    0 -0.74810646156E+01 -0.62048208364E+02 -0.13184829241E+03  0.19213255502E+03  0.12500000000E+03 0.  0.
         25    1    1    2    0    0  0.80222209764E+02 -0.19005991323E+02 -0.13973467504E+02  0.15038978835E+03  0.12500000000E+03 0.  0.
         25    1    1    2    0    0 -0.72741145148E+02  0.81054199687E+02 -0.12174130138E+03  0.20568665962E+03  0.12500000000E+03 0.  0.
</event>
<event>
 5    0  0.5720942E-005  0.2866339E+03  0.7546771E-02  0.1092120E+00
         21   -1    0    0  502  501  0.00000000000E+00  0.00000000000E+00  0.44700215815E+02  0.44700215815E+02  0.00000000000E+00 0. -1.
         21   -1    0    0  501  502 -0.00000000000E+00 -0.00000000000E+00 -0.18380002623E+04  0.18380002623E+04  0.00000000000E+00 0. -1.
         25    1    1    2    0    0  0.43195322774E+02  0.52691149875E+02 -0.31875266048E+03  0.34909948689E+03  0.12500000000E+03 0.  0.
         25    1    1    2    0    0 -0.64587283612E+02  0.63036282158E+02 -0.22768174683E+03  0.27497103104E+03  0.12500000000E+03 0.  0.
         25    1    1    2    0    0  0.21391960838E+02 -0.11572743203E+03 -0.12468656392E+04  0.12586299602E+04  0.12500000000E+03 0.  0.
</event>
<event>
 5    0  0.5720942E-005  0.2604893E+03  0.7546771E-02  0.1106850E+00
         21   -1    0    0  502  501  0.00000000000E+00  0.00000000000E+00  0.36751333123E+02  0.36751333123E+02  0.00000000000E+00 0. -1.
         21   -1    0    0  501  502 -0.00000000000E+00 -0.00000000000E+00 -0.18463188844E+04  0.18463188844E+04  0.00000000000E+00 0. -1.
         25    1    1    2    0    0  0.10003540418E+03 -0.15713341685E+02 -0.12576232594E+04  0.12678703616E+04  0.12500000000E+03 0.  0.
         25    1    1    2    0    0 -0.41491080227E+02  0.38366413792E+01 -0.23782403126E+03  0.27188508492E+03  0.12500000000E+03 0.  0.
         25    1    1    2    0    0 -0.58544323949E+02  0.11876700306E+02 -0.31412026068E+03  0.34331477109E+03  0.12500000000E+03 0.  0.
</event>
<event>
 5    0  0.5720942E-005  0.2474177E+03  0.7546771E-02  0.1114948E+00
         21   -1    0    0  502  501  0.00000000000E+00  0.00000000000E+00  0.76816390487E+02  0.76816390487E+02  0.00000000000E+00 0.  1.
         21   -1    0    0  501  502 -0.00000000000E+00 -0.00000000000E+00 -0.79690700404E+03  0.79690700404E+03  0.00000000000E+00 0.  1.
         25    1    1    2    0    0  0.46220068072E+02 -0.83698337971E+02 -0.17230368317E+03  0.23335652060E+03  0.12500000000E+03 0.  0.
         25    1    1    2    0    0  0.69146641862E+02  0.11514717958E+02 -0.28646005392E+03  0.32030955231E+03  0.12500000000E+03 0.  0.
         25    1    1    2    0    0 -0.11536670993E+03  0.72183620013E+02 -0.26132687647E+03  0.32005732162E+03  0.12500000000E+03 0.  0.
</event>
<event>
 5    0  0.5720942E-005  0.2599189E+03  0.7546771E-02  0.1107192E+00
         21   -1    0    0  502  501  0.00000000000E+00  0.00000000000E+00  0.13225546827E+03  0.13225546827E+03  0.00000000000E+00 0.  1.
         21   -1    0    0  501  502 -0.00000000000E+00 -0.00000000000E+00 -0.51081300075E+03  0.51081300075E+03  0.00000000000E+00 0.  1.
         25    1    1    2    0    0 -0.10308956719E+02 -0.72273775241E+01 -0.41993691115E+02  0.13246501300E+03  0.12500000000E+03 0.  0.
         25    1    1    2    0    0  0.67928795298E+02 -0.43876576530E+01  0.47358089337E+01  0.14241137826E+03  0.12500000000E+03 0.  0.
         25    1    1    2    0    0 -0.57619838578E+02  0.11615035177E+02 -0.34129965030E+03  0.36819207777E+03  0.12500000000E+03 0.  0.
</event>
<event>
 5    0  0.6248996E-005  0.2916205E+03  0.7546771E-02  0.1089506E+00
         21   -1    0    0  502  501  0.00000000000E+00  0.00000000000E+00  0.45144384099E+03  0.45144384099E+03  0.00000000000E+00 0. -1.
         21   -1    0    0  501  502 -0.00000000000E+00 -0.00000000000E+00 -0.18837895206E+03  0.18837895206E+03  0.00000000000E+00 0. -1.
         25    1    1    2    0    0  0.67438833894E+02 -0.39554387162E+02 -0.54383922968E+02  0.15714692787E+03  0.12500000000E+03 0.  0.
         25    1    1    2    0    0 -0.69006605204E+02 -0.31938005989E+02  0.30481810580E+03  0.33811392372E+03  0.12500000000E+03 0.  0.
         25    1    1    2    0    0  0.15677713100E+01  0.71492393151E+02  0.12630706098E+02  0.14456194147E+03  0.12500000000E+03 0.  0.
</event>
<event>
 5    0  0.5720942E-005  0.3533816E+03  0.7546771E-02  0.1061236E+00
         21   -1    0    0  502  501  0.00000000000E+00  0.00000000000E+00  0.19835340500E+03  0.19835340500E+03  0.00000000000E+00 0. -1.
         21   -1    0    0  501  502 -0.00000000000E+00 -0.00000000000E+00 -0.62957612580E+03  0.62957612580E+03  0.00000000000E+00 0. -1.
         25    1    1    2    0    0 -0.25714370200E+03  0.10888804739E+03 -0.13287393050E+03  0.33355654955E+03  0.12500000000E+03 0.  0.
         25    1    1    2    0    0  0.10020484225E+03 -0.10157973327E+03 -0.17895227788E+03  0.26078414518E+03  0.12500000000E+03 0.  0.
         25    1    1    2    0    0  0.15693885975E+03 -0.73083141226E+01 -0.11939651242E+03  0.23358883606E+03  0.12500000000E+03 0.  0.
</event>
<event>
 5    0  0.5720942E-005  0.4382675E+03  0.7546771E-02  0.1031280E+00
         21   -1    0    0  502  501  0.00000000000E+00  0.00000000000E+00  0.32341653983E+03  0.32341653983E+03  0.00000000000E+00 0. -1.
         21   -1    0    0  501  502 -0.00000000000E+00 -0.00000000000E+00 -0.59390411093E+03  0.59390411093E+03  0.00000000000E+00 0. -1.
         25    1    1    2    0    0 -0.59503420907E+02 -0.11423274130E+03 -0.12438858636E+03  0.21837421254E+03  0.12500000000E+03 0.  0.
         25    1    1    2    0    0 -0.23902523777E+03 -0.33229325089E+02 -0.20240181494E+03  0.33886390635E+03  0.12500000000E+03 0.  0.
         25    1    1    2    0    0  0.29852865868E+03  0.14746206639E+03  0.56302830197E+02  0.36008253188E+03  0.12500000000E+03 0.  0.
</event>
<event>
 5    0  0.5757190E-005  0.3490419E+03  0.7546771E-02  0.1063009E+00
         21   -1    0    0  502  501  0.00000000000E+00  0.00000000000E+00  0.42360209402E+03  0.42360209402E+03  0.00000000000E+00 0.  1.
         21   -1    0    0  501  502 -0.00000000000E+00 -0.00000000000E+00 -0.28760546919E+03  0.28760546919E+03  0.00000000000E+00 0.  1.
         25    1    1    2    0    0 -0.12108619041E+03  0.71540109064E+02  0.92572909416E+01  0.18838935784E+03  0.12500000000E+03 0.  0.
         25    1    1    2    0    0 -0.30836899123E+02 -0.75331766746E+02 -0.13101817495E+03  0.19853602090E+03  0.12500000000E+03 0.  0.
         25    1    1    2    0    0  0.15192308953E+03  0.37916576812E+01  0.25775750883E+03  0.32428218446E+03  0.12500000000E+03 0.  0.
</event>
<event>
 5    0  0.5720942E-005  0.3570755E+03  0.7546771E-02  0.1059748E+00
         21   -1    0    0  502  501  0.00000000000E+00  0.00000000000E+00  0.36690798702E+03  0.36690798702E+03  0.00000000000E+00 0.  1.
         21   -1    0    0  501  502 -0.00000000000E+00 -0.00000000000E+00 -0.34750656078E+03  0.34750656078E+03  0.00000000000E+00 0.  1.
         25    1    1    2    0    0  0.63374221648E+02  0.11818150295E+03  0.19717750400E+01  0.18333588712E+03  0.12500000000E+03 0.  0.
         25    1    1    2    0    0 -0.22547595330E+03 -0.14020641082E+03  0.98872493644E+02  0.30967404339E+03  0.12500000000E+03 0.  0.
         25    1    1    2    0    0  0.16210173165E+03  0.22024907877E+02 -0.81442842450E+02  0.22140461729E+03  0.12500000000E+03 0.  0.
</event>
<event>
 5    0  0.5720942E-005  0.4305056E+03  0.7546771E-02  0.1033700E+00
         21   -1    0    0  502  501  0.00000000000E+00  0.00000000000E+00  0.11411382016E+03  0.11411382016E+03  0.00000000000E+00 0. -1.
         21   -1    0    0  501  502 -0.00000000000E+00 -0.00000000000E+00 -0.16241249915E+04  0.16241249915E+04  0.00000000000E+00 0. -1.
         25    1    1    2    0    0  0.76741075946E+02 -0.15189579778E+03 -0.25264587065E+03  0.32926655171E+03  0.12500000000E+03 0.  0.
         25    1    1    2    0    0  0.50914168236E+02  0.29521241478E+03 -0.36854100619E+03  0.49111108276E+03  0.12500000000E+03 0.  0.
         25    1    1    2    0    0 -0.12765524418E+03 -0.14331661700E+03 -0.88882429448E+03  0.91786117716E+03  0.12500000000E+03 0.  0.
</event>
<event>
 5    0  0.5720942E-005  0.3512651E+03  0.7546771E-02  0.1062097E+00
         21   -1    0    0  502  501  0.00000000000E+00  0.00000000000E+00  0.12345535604E+04  0.12345535604E+04  0.00000000000E+00 0.  1.
         21   -1    0    0  501  502 -0.00000000000E+00 -0.00000000000E+00 -0.99944769582E+02  0.99944769582E+02  0.00000000000E+00 0.  1.
         25    1    1    2    0    0  0.20315325623E+02 -0.44250150663E+02  0.25256135828E+02  0.13650516725E+03  0.12500000000E+03 0.  0.
         25    1    1    2    0    0 -0.15010819585E+03 -0.82375404076E+02  0.72117714337E+03  0.75169119310E+03  0.12500000000E+03 0.  0.
         25    1    1    2    0    0  0.12979287023E+03  0.12662555474E+03  0.38817551157E+03  0.44630196959E+03  0.12500000000E+03 0.  0.
</event>
<event>
 5    0  0.5720942E-005  0.2276729E+03  0.7546771E-02  0.1128288E+00
         21   -1    0    0  502  501  0.00000000000E+00  0.00000000000E+00  0.85092950342E+02  0.85092950342E+02  0.00000000000E+00 0.  1.
         21   -1    0    0  501  502 -0.00000000000E+00 -0.00000000000E+00 -0.60915700953E+03  0.60915700953E+03  0.00000000000E+00 0.  1.
         25    1    1    2    0    0  0.43944262778E+02 -0.31831007997E+02 -0.82537295799E+02  0.15931640374E+03  0.12500000000E+03 0.  0.
         25    1    1    2    0    0 -0.21356865067E+02 -0.62158041615E+01 -0.35392695090E+03  0.37601068931E+03  0.12500000000E+03 0.  0.
         25    1    1    2    0    0 -0.22587397711E+02  0.38046812158E+02 -0.87599812490E+02  0.15892286682E+03  0.12500000000E+03 0.  0.
</event>
<event>
 5    0  0.5720942E-005  0.3320366E+03  0.7546771E-02  0.1070239E+00
         21   -1    0    0  502  501  0.00000000000E+00  0.00000000000E+00  0.11601970259E+04  0.11601970259E+04  0.00000000000E+00 0.  1.
         21   -1    0    0  501  502 -0.00000000000E+00 -0.00000000000E+00 -0.95025509808E+02  0.95025509808E+02  0.00000000000E+00 0.  1.
         25    1    1    2    0    0 -0.10045274732E+03 -0.17730857768E+03  0.20746070946E+03  0.31653440908E+03  0.12500000000E+03 0.  0.
         25    1    1    2    0    0 -0.67695429890E+01  0.10083423739E+03  0.20117985072E+03  0.25751058712E+03  0.12500000000E+03 0.  0.
         25    1    1    2    0    0  0.10722229031E+03  0.76474340296E+02  0.65653095591E+03  0.68117753951E+03  0.12500000000E+03 0.  0.
</event>
<event>
 5    0  0.5720942E-005  0.2390089E+03  0.7546771E-02  0.1120455E+00
         21   -1    0    0  502  501  0.00000000000E+00  0.00000000000E+00  0.37030446146E+03  0.37030446146E+03  0.00000000000E+00 0. -1.
         21   -1    0    0  501  502 -0.00000000000E+00 -0.00000000000E+00 -0.15426565134E+03  0.15426565134E+03  0.00000000000E+00 0. -1.
         25    1    1    2    0    0  0.26781536307E+02  0.33627853204E+02  0.28844509014E+02  0.13529630039E+03  0.12500000000E+03 0.  0.
         25    1    1    2    0    0 -0.49715338665E+02  0.36063153023E+02 -0.15452403260E+02  0.14012830789E+03  0.12500000000E+03 0.  0.
         25    1    1    2    0    0  0.22933802359E+02 -0.69691006227E+02  0.20264670436E+03  0.24914550453E+03  0.12500000000E+03 0.  0.
</event>
<event>
 5    0  0.5720942E-005  0.3195026E+03  0.7546771E-02  0.1075878E+00
         21   -1    0    0  502  501  0.00000000000E+00  0.00000000000E+00  0.44686100823E+03  0.44686100823E+03  0.00000000000E+00 0.  1.
         21   -1    0    0  501  502 -0.00000000000E+00 -0.00000000000E+00 -0.22844224233E+03  0.22844224233E+03  0.00000000000E+00 0.  1.
         25    1    1    2    0    0  0.65986215701E+02  0.29071713507E+02  0.16106560496E+03  0.21625557632E+03  0.12500000000E+03 0.  0.
         25    1    1    2    0    0 -0.10518719957E+03  0.28692196288E+02 -0.13874399580E+03  0.21624635362E+03  0.12500000000E+03 0.  0.
         25    1    1    2    0    0  0.39200983869E+02 -0.57763909795E+02  0.19609715674E+03  0.24280132062E+03  0.12500000000E+03 0.  0.
</event>
<event>
 5    0  0.5720942E-005  0.2146845E+03  0.7546771E-02  0.1137909E+00
         21   -1    0    0  502  501  0.00000000000E+00  0.00000000000E+00  0.92878095829E+02  0.92878095829E+02  0.00000000000E+00 0.  1.
         21   -1    0    0  501  502 -0.00000000000E+00 -0.00000000000E+00 -0.49623576461E+03  0.49623576461E+03  0.00000000000E+00 0.  1.
         25    1    1    2    0    0 -0.14115983423E+02 -0.14643206630E+02 -0.12520771056E+03  0.17808889711E+03  0.12500000000E+03 0.  0.
         25    1    1    2    0    0 -0.69910250984E+02  0.42255077029E+02 -0.13063847400E+03  0.19840449999E+03  0.12500000000E+03 0.  0.
         25    1    1    2    0    0  0.84026234408E+02 -0.27611870399E+02 -0.14751148422E+03  0.21262046334E+03  0.12500000000E+03 0.  0.
</event>
<event>
 5    0  0.5720942E-005  0.4589895E+03  0.7546771E-02  0.1025075E+00
         21   -1    0    0  502  501  0.00000000000E+00  0.00000000000E+00  0.48984034732E+03  0.48984034732E+03  0.00000000000E+00 0.  1.
         21   -1    0    0  501  502 -0.00000000000E+00 -0.00000000000E+00 -0.43008160093E+03  0.43008160093E+03  0.00000000000E+00 0.  1.
         25    1    1    2    0    0  0.24641917635E+02  0.42867331574E+02  0.26214198897E+03  0.29459846334E+03  0.12500000000E+03 0.  0.
         25    1    1    2    0    0  0.35086345124E+02 -0.32833199848E+02  0.17663122165E+03  0.22165888001E+03  0.12500000000E+03 0.  0.
         25    1    1    2    0    0 -0.59728262759E+02 -0.10034131725E+02 -0.37901446422E+03  0.40366460491E+03  0.12500000000E+03 0.  0.
</event>
<event>
 5    0  0.5720942E-005  0.2605176E+03  0.7546771E-02  0.1106833E+00
         21   -1    0    0  502  501  0.00000000000E+00  0.00000000000E+00  0.10553141947E+03  0.10553141947E+03  0.00000000000E+00 0. -1.
         21   -1    0    0  501  502 -0.00000000000E+00 -0.00000000000E+00 -0.64312043514E+03  0.64312043514E+03  0.00000000000E+00 0. -1.
         25    1    1    2    0    0  0.10932366893E+03  0.52802479264E+02 -0.67229982958E+02  0.18677429430E+03  0.12500000000E+03 0.  0.
         25    1    1    2    0    0 -0.80963226301E+02  0.23373715305E+02 -0.17472473889E+03  0.23077068479E+03  0.12500000000E+03 0.  0.
         25    1    1    2    0    0 -0.28360442625E+02 -0.76176194569E+02 -0.29563429383E+03  0.33110687551E+03  0.12500000000E+03 0.  0.
</event>
<event>
 5    0  0.5720942E-005  0.3086941E+03  0.7546771E-02  0.1080974E+00
         21   -1    0    0  502  501  0.00000000000E+00  0.00000000000E+00  0.24855702719E+03  0.24855702719E+03  0.00000000000E+00 0. -1.
         21   -1    0    0  501  502 -0.00000000000E+00 -0.00000000000E+00 -0.38338095505E+03  0.38338095505E+03  0.00000000000E+00 0. -1.
         25    1    1    2    0    0 -0.93841900858E+02  0.26170462070E+02  0.49275542500E+02  0.16596467856E+03  0.12500000000E+03 0.  0.
         25    1    1    2    0    0  0.17077361257E+03 -0.99919425628E+02 -0.19023005727E+03  0.30159574442E+03  0.12500000000E+03 0.  0.
         25    1    1    2    0    0 -0.76931711707E+02  0.73748963558E+02  0.61305869009E+01  0.16437755926E+03  0.12500000000E+03 0.  0.
</event>
<event>
 5    0  0.5720942E-005  0.3549500E+03  0.7546771E-02  0.1060601E+00
         21   -1    0    0  502  501  0.00000000000E+00  0.00000000000E+00  0.38745746077E+03  0.38745746077E+03  0.00000000000E+00 0. -1.
         21   -1    0    0  501  502 -0.00000000000E+00 -0.00000000000E+00 -0.32516995035E+03  0.32516995035E+03  0.00000000000E+00 0. -1.
         25    1    1    2    0    0 -0.31410254626E+02 -0.58074014741E+01  0.15267754377E+03  0.19988937535E+03  0.12500000000E+03 0.  0.
         25    1    1    2    0    0  0.16280426672E+03  0.16487311707E+03 -0.39873803499E+02  0.26627672486E+03  0.12500000000E+03 0.  0.
         25    1    1    2    0    0 -0.13139401209E+03 -0.15906571560E+03 -0.50516229849E+02  0.24646131090E+03  0.12500000000E+03 0.  0.
</event>
<event>
 5    0  0.5720942E-005  0.4483361E+03  0.7546771E-02  0.1028219E+00
         21   -1    0    0  502  501  0.00000000000E+00  0.00000000000E+00  0.21364304339E+03  0.21364304339E+03  0.00000000000E+00 0.  1.
         21   -1    0    0  501  502 -0.00000000000E+00 -0.00000000000E+00 -0.94084644623E+03  0.94084644623E+03  0.00000000000E+00 0.  1.
         25    1    1    2    0    0  0.19265883486E+02  0.13166141810E+03  0.96494895065E+02  0.20649980159E+03  0.12500000000E+03 0.  0.
         25    1    1    2    0    0 -0.93669777122E+01 -0.20962277072E+03 -0.73778473945E+03  0.77716199601E+03  0.12500000000E+03 0.  0.
         25    1    1    2    0    0 -0.98989057736E+01  0.77961352620E+02 -0.85913558446E+02  0.17082769203E+03  0.12500000000E+03 0.  0.
</event>
<event>
 5    0  0.5720942E-005  0.2949023E+03  0.7546771E-02  0.1087817E+00
         21   -1    0    0  502  501  0.00000000000E+00  0.00000000000E+00  0.28754907270E+03  0.28754907270E+03  0.00000000000E+00 0.  1.
         21   -1    0    0  501  502 -0.00000000000E+00 -0.00000000000E+00 -0.30244351954E+03  0.30244351954E+03  0.00000000000E+00 0.  1.
         25    1    1    2    0    0  0.10855563764E+03 -0.11701175864E+03 -0.14675477908E+03  0.25027593433E+03  0.12500000000E+03 0.  0.
         25    1    1    2    0    0 -0.10091654978E+03  0.73251547619E+02  0.10138616550E+03  0.20360278437E+03  0.12500000000E+03 0.  0.
         25    1    1    2    0    0 -0.76390878550E+01  0.43760211018E+02  0.30474166730E+02  0.13611387354E+03  0.12500000000E+03 0.  0.
</event>
<event>
 5    0  0.5720942E-005  0.2945375E+03  0.7546771E-02  0.1088004E+00
         21   -1    0    0  502  501  0.00000000000E+00  0.00000000000E+00  0.35263195714E+02  0.35263195714E+02  0.00000000000E+00 0.  1.
         21   -1    0    0  501  502 -0.00000000000E+00 -0.00000000000E+00 -0.24601391032E+04  0.24601391032E+04  0.00000000000E+00 0.  1.
         25    1    1    2    0    0  0.21538749459E+02 -0.17488322165E+03 -0.10324673390E+04  0.10548278840E+04  0.12500000000E+03 0.  0.
         25    1    1    2    0    0  0.63663450982E+02  0.75905930988E+01 -0.63174423984E+03  0.64717573862E+03  0.12500000000E+03 0.  0.
         25    1    1    2    0    0 -0.85202200441E+02  0.16729262855E+03 -0.76066432870E+03  0.79339867625E+03  0.12500000000E+03 0.  0.
</event>
<event>
 5    0  0.5720942E-005  0.3981459E+03  0.7546771E-02  0.1044424E+00
         21   -1    0    0  502  501  0.00000000000E+00  0.00000000000E+00  0.77878309276E+03  0.77878309276E+03  0.00000000000E+00 0.  1.
         21   -1    0    0  501  502 -0.00000000000E+00 -0.00000000000E+00 -0.20354849107E+03  0.20354849107E+03  0.00000000000E+00 0.  1.
         25    1    1    2    0    0  0.15061833449E+03 -0.43718937143E+02  0.23895625825E+03  0.31196525689E+03  0.12500000000E+03 0.  0.
         25    1    1    2    0    0 -0.15911111219E+03  0.11262966357E+03  0.43761486434E+03  0.49510964102E+03  0.12500000000E+03 0.  0.
         25    1    1    2    0    0  0.84927776989E+01 -0.68910726426E+02 -0.10133652091E+03  0.17525668592E+03  0.12500000000E+03 0.  0.
</event>
<event>
 5    0  0.5720942E-005  0.4429475E+03  0.7546771E-02  0.1029846E+00
         21   -1    0    0  502  501  0.00000000000E+00  0.00000000000E+00  0.38298801341E+03  0.38298801341E+03  0.00000000000E+00 0.  1.
         21   -1    0    0  501  502 -0.00000000000E+00 -0.00000000000E+00 -0.51229398578E+03  0.51229398578E+03  0.00000000000E+00 0.  1.
         25    1    1    2    0    0  0.13014940393E+03 -0.16875338018E+03  0.21156603890E+03  0.32527182399E+03  0.12500000000E+03 0.  0.
         25    1    1    2    0    0 -0.10058059584E+03  0.19010294900E+03 -0.53403064375E+02  0.25442577457E+03  0.12500000000E+03 0.  0.
         25    1    1    2    0    0 -0.29568808088E+02 -0.21349568822E+02 -0.28746894689E+03  0.31558440064E+03  0.12500000000E+03 0.  0.
</event>
<event>
 5    0  0.5720942E-005  0.4241266E+03  0.7546771E-02  0.1035732E+00
         21   -1    0    0  502  501  0.00000000000E+00  0.00000000000E+00  0.40729896802E+03  0.40729896802E+03  0.00000000000E+00 0. -1.
         21   -1    0    0  501  502 -0.00000000000E+00 -0.00000000000E+00 -0.44164937712E+03  0.44164937712E+03  0.00000000000E+00 0. -1.
         25    1    1    2    0    0  0.89572655365E+02 -0.67168364312E+02 -0.21765877273E+03  0.27483666258E+03  0.12500000000E+03 0.  0.
         25    1    1    2    0    0 -0.67386409162E+02  0.25764871582E+03  0.18056509785E+03  0.34518479611E+03  0.12500000000E+03 0.  0.
         25    1    1    2    0    0 -0.22186246203E+02 -0.19048035151E+03  0.27432657792E+01  0.22892688645E+03  0.12500000000E+03 0.  0.
</event>
<event>
 5    0  0.5720942E-005  0.2818406E+03  0.7546771E-02  0.1094688E+00
         21   -1    0    0  502  501  0.00000000000E+00  0.00000000000E+00  0.33759704996E+03  0.33759704996E+03  0.00000000000E+00 0.  1.
         21   -1    0    0  501  502 -0.00000000000E+00 -0.00000000000E+00 -0.23529278255E+03  0.23529278255E+03  0.00000000000E+00 0.  1.
         25    1    1    2    0    0 -0.31881228629E+02  0.29948054635E+02 -0.29856153653E+02  0.13575598928E+03  0.12500000000E+03 0.  0.
         25    1    1    2    0    0 -0.13297415563E+03  0.58179110776E+02  0.68354286905E+02  0.20338201380E+03  0.12500000000E+03 0.  0.
         25    1    1    2    0    0  0.16485538426E+03 -0.88127165412E+02  0.63806134157E+02  0.23375182943E+03  0.12500000000E+03 0.  0.
</event>
<event>
 5    0  0.5720942E-005  0.3113598E+03  0.7546771E-02  0.1079696E+00
         21   -1    0    0  502  501  0.00000000000E+00  0.00000000000E+00  0.34919709127E+03  0.34919709127E+03  0.00000000000E+00 0.  1.
         21   -1    0    0  501  502 -0.00000000000E+00 -0.00000000000E+00 -0.27762236959E+03  0.27762236959E+03  0.00000000000E+00 0.  1.
         25    1    1    2    0    0  0.26856323619E+02  0.17896655189E+03  0.69672176838E+02  0.23071519464E+03  0.12500000000E+03 0.  0.
         25    1    1    2    0    0 -0.10995668771E+03 -0.17926827876E+03 -0.14683760051E+02  0.24508815098E+03  0.12500000000E+03 0.  0.
         25    1    1    2    0    0  0.83100364093E+02  0.30172686819E+00  0.16586304896E+02  0.15101611524E+03  0.12500000000E+03 0.  0.
</event>
<event>
 5    0  0.5720942E-005  0.3828604E+03  0.7546771E-02  0.1049882E+00
         21   -1    0    0  502  501  0.00000000000E+00  0.00000000000E+00  0.19214161348E+04  0.19214161348E+04  0.00000000000E+00 0. -1.
         21   -1    0    0  501  502 -0.00000000000E+00 -0.00000000000E+00 -0.76288567529E+02  0.76288567529E+02  0.00000000000E+00 0. -1.
         25    1    1    2    0    0 -0.61369480072E+02 -0.87944659976E+02  0.16308500550E+03  0.23178048952E+03  0.12500000000E+03 0.  0.
         25    1    1    2    0    0 -0.46314947185E+02  0.93418277160E+02  0.15387308609E+04  0.15473169395E+04  0.12500000000E+03 0.  0.
         25    1    1    2    0    0  0.10768442726E+03 -0.54736171845E+01  0.14331170089E+03  0.21860727337E+03  0.12500000000E+03 0.  0.
</event>
<event>
 5    0  0.5720942E-005  0.3193962E+03  0.7546771E-02  0.1075928E+00
         21   -1    0    0  502  501  0.00000000000E+00  0.00000000000E+00  0.36712365802E+03  0.36712365802E+03  0.00000000000E+00 0. -1.
         21   -1    0    0  501  502 -0.00000000000E+00 -0.00000000000E+00 -0.27787349932E+03  0.27787349932E+03  0.00000000000E+00 0. -1.
         25    1    1    2    0    0 -0.97959733498E+02  0.14262572772E+03  0.10951239188E+03  0.23990867340E+03  0.12500000000E+03 0.  0.
         25    1    1    2    0    0 -0.27518109960E+02  0.12489227958E+01 -0.10098953706E+03  0.16304199698E+03  0.12500000000E+03 0.  0.
         25    1    1    2    0    0  0.12547784346E+03 -0.14387465052E+03  0.80727303873E+02  0.24204648696E+03  0.12500000000E+03 0.  0.
</event>
<event>
 5    0  0.5720942E-005  0.3505041E+03  0.7546771E-02  0.1062408E+00
         21   -1    0    0  502  501  0.00000000000E+00  0.00000000000E+00  0.20190259249E+03  0.20190259249E+03  0.00000000000E+00 0.  1.
         21   -1    0    0  501  502 -0.00000000000E+00 -0.00000000000E+00 -0.60847730556E+03  0.60847730556E+03  0.00000000000E+00 0.  1.
         25    1    1    2    0    0  0.89952359413E+02 -0.59686682486E+02 -0.30664162790E+03  0.34829300164E+03  0.12500000000E+03 0.  0.
         25    1    1    2    0    0  0.13157202820E+03 -0.13947433585E+02 -0.72281430185E+02  0.19584518033E+03  0.12500000000E+03 0.  0.
         25    1    1    2    0    0 -0.22152438762E+03  0.73634116071E+02 -0.27651654982E+02  0.26624171608E+03  0.12500000000E+03 0.  0.
</event>
<event>
 5    0  0.6404623E-005  0.2866816E+03  0.7546771E-02  0.1092095E+00
         21   -1    0    0  502  501  0.00000000000E+00  0.00000000000E+00  0.22846207100E+03  0.22846207100E+03  0.00000000000E+00 0. -1.
         21   -1    0    0  501  502 -0.00000000000E+00 -0.00000000000E+00 -0.35973723437E+03  0.35973723437E+03  0.00000000000E+00 0. -1.
         25    1    1    2    0    0 -0.91492456082E+02  0.27045415360E+02  0.11083717485E+02  0.15763937581E+03  0.12500000000E+03 0.  0.
         25    1    1    2    0    0  0.26397099811E+02 -0.81018981143E+02 -0.21514559564E+03  0.26300857307E+03  0.12500000000E+03 0.  0.
         25    1    1    2    0    0  0.65095356271E+02  0.53973565783E+02  0.72786714796E+02  0.16755135649E+03  0.12500000000E+03 0.  0.
</event>
<event>
 5    0  0.5720942E-005  0.2715490E+03  0.7546771E-02  0.1100396E+00
         21   -1    0    0  502  501  0.00000000000E+00  0.00000000000E+00  0.19251838351E+03  0.19251838351E+03  0.00000000000E+00 0.  1.
         21   -1    0    0  501  502 -0.00000000000E+00 -0.00000000000E+00 -0.38302234900E+03  0.38302234900E+03  0.00000000000E+00 0.  1.
         25    1    1    2    0    0 -0.13186436966E+02  0.33110390788E+02 -0.42970724192E+02  0.13690019443E+03  0.12500000000E+03 0.  0.
         25    1    1    2    0    0 -0.61137685033E+02 -0.10389766901E+03  0.52478825203E+02  0.18141546034E+03  0.12500000000E+03 0.  0.
         25    1    1    2    0    0  0.74324121998E+02  0.70787278225E+02 -0.20001206650E+03  0.25722507773E+03  0.12500000000E+03 0.  0.
</event>
<event>
 5    0  0.5720942E-005  0.3217875E+03  0.7546771E-02  0.1074830E+00
         21   -1    0    0  502  501  0.00000000000E+00  0.00000000000E+00  0.90357128524E+02  0.90357128524E+02  0.00000000000E+00 0. -1.
         21   -1    0    0  501  502 -0.00000000000E+00 -0.00000000000E+00 -0.11459767872E+04  0.11459767872E+04  0.00000000000E+00 0. -1.
         25    1    1    2    0    0 -0.13524824071E+03  0.10941843893E+03 -0.18346339162E+03  0.28204307731E+03  0.12500000000E+03 0.  0.
         25    1    1    2    0    0  0.18289278704E+03 -0.12117162891E+03 -0.54529215139E+03  0.60091668772E+03  0.12500000000E+03 0.  0.
         25    1    1    2    0    0 -0.47644546331E+02  0.11753189977E+02 -0.32686411564E+03  0.35337415068E+03  0.12500000000E+03 0.  0.
</event>
<event>
 5    0  0.5999729E-005  0.2937994E+03  0.7546771E-02  0.1088382E+00
         21   -1    0    0  502  501  0.00000000000E+00  0.00000000000E+00  0.11124837379E+03  0.11124837379E+03  0.00000000000E+00 0. -1.
         21   -1    0    0  501  502 -0.00000000000E+00 -0.00000000000E+00 -0.77590408669E+03  0.77590408669E+03  0.00000000000E+00 0. -1.
         25    1    1    2    0    0 -0.12315965876E+03 -0.12368057447E+02 -0.94732762282E+02  0.19980131792E+03  0.12500000000E+03 0.  0.
         25    1    1    2    0    0 -0.24277053289E+02  0.75616549679E+02 -0.11003426276E+03  0.18449871784E+03  0.12500000000E+03 0.  0.
         25    1    1    2    0    0  0.14743671205E+03 -0.63248492233E+02 -0.45988868786E+03  0.50285242472E+03  0.12500000000E+03 0.  0.
</event>
<event>
 5    0  0.5720942E-005  0.2543912E+03  0.7546771E-02  0.1110561E+00
         21   -1    0    0  502  501  0.00000000000E+00  0.00000000000E+00  0.85489498892E+02  0.85489498892E+02  0.00000000000E+00 0. -1.
         21   -1    0    0  501  502 -0.00000000000E+00 -0.00000000000E+00 -0.75699238825E+03  0.75699238825E+03  0.00000000000E+00 0. -1.
         25    1    1    2    0    0  0.12035692480E+03  0.80845746121E+01 -0.18489964400E+03  0.25370066623E+03  0.12500000000E+03 0.  0.
         25    1    1    2    0    0 -0.15732596320E+03 -0.85970789508E+01 -0.29345553766E+03  0.35576188813E+03  0.12500000000E+03 0.  0.
         25    1    1    2    0    0  0.36969038394E+02  0.51250433874E+00 -0.19314770769E+03  0.23301933278E+03  0.12500000000E+03 0.  0.
</event>
<event>
 5    0  0.5720942E-005  0.5416355E+03  0.7546771E-02  0.1003449E+00
         21   -1    0    0  502  501  0.00000000000E+00  0.00000000000E+00  0.22949776502E+03  0.22949776502E+03  0.00000000000E+00 0.  1.
         21   -1    0    0  501  502 -0.00000000000E+00 -0.00000000000E+00 -0.12783090438E+04  0.12783090438E+04  0.00000000000E+00 0.  1.
         25    1    1    2    0    0  0.13855048044E+03  0.37637489381E+03 -0.12577801831E+03  0.43851956195E+03  0.12500000000E+03 0.  0.
         25    1    1    2    0    0 -0.10890257180E+03 -0.34086873748E+02 -0.36243711173E+03  0.40000918123E+03  0.12500000000E+03 0.  0.
         25    1    1    2    0    0 -0.29647908642E+02 -0.34228802006E+03 -0.56059614871E+03  0.66927806561E+03  0.12500000000E+03 0.  0.
</event>
<event>
 5    0  0.5720942E-005  0.3682545E+03  0.7546771E-02  0.1055362E+00
         21   -1    0    0  502  501  0.00000000000E+00  0.00000000000E+00  0.83691357500E+03  0.83691357500E+03  0.00000000000E+00 0.  1.
         21   -1    0    0  501  502 -0.00000000000E+00 -0.00000000000E+00 -0.16203751789E+03  0.16203751789E+03  0.00000000000E+00 0.  1.
         25    1    1    2    0    0 -0.23769386268E+03 -0.45946312874E+02  0.54962030039E+03  0.61344674636E+03  0.12500000000E+03 0.  0.
         25    1    1    2    0    0  0.16870048921E+03 -0.33637425235E+01  0.46189349368E+02  0.21501075745E+03  0.12500000000E+03 0.  0.
         25    1    1    2    0    0  0.68993373475E+02  0.49310055398E+02  0.79066407350E+02  0.17049358908E+03  0.12500000000E+03 0.  0.
</event>
<event>
 5    0  0.5720942E-005  0.2142039E+03  0.7546771E-02  0.1138280E+00
         21   -1    0    0  502  501  0.00000000000E+00  0.00000000000E+00  0.42472609363E+02  0.42472609363E+02  0.00000000000E+00 0. -1.
         21   -1    0    0  501  502 -0.00000000000E+00 -0.00000000000E+00 -0.10803034536E+04  0.10803034536E+04  0.00000000000E+00 0. -1.
         25    1    1    2    0    0  0.31275392543E+02 -0.35074846672E+02 -0.38044029742E+03  0.40319748877E+03  0.12500000000E+03 0.  0.
         25    1    1    2    0    0 -0.67198619957E+02  0.37218906551E+02 -0.22981877894E+03  0.27265834424E+03  0.12500000000E+03 0.  0.
         25    1    1    2    0    0  0.35923227415E+02 -0.21440598788E+01 -0.42757176791E+03  0.44692022999E+03  0.12500000000E+03 0.  0.
</event>
<event>
 5    0  0.5720942E-005  0.3332382E+03  0.7546771E-02  0.1069713E+00
         21   -1    0    0  502  501  0.00000000000E+00  0.00000000000E+00  0.63529695897E+03  0.63529695897E+03  0.00000000000E+00 0.  1.
         21   -1    0    0  501  502 -0.00000000000E+00 -0.00000000000E+00 -0.17479654540E+03  0.17479654540E+03  0.00000000000E+00 0.  1.
         25    1    1    2    0    0  0.40829212516E+02  0.22487286079E+03  0.10138534236E+03  0.27953321048E+03  0.12500000000E+03 0.  0.
         25    1    1    2    0    0 -0.11772062826E+03 -0.13301396006E+03  0.19100605841E+03  0.28923895698E+03  0.12500000000E+03 0.  0.
         25    1    1    2    0    0  0.76891415742E+02 -0.91858900728E+02  0.16810901280E+03  0.24132133690E+03  0.12500000000E+03 0.  0.
</event>
<event>
 5    0  0.5720942E-005  0.2418391E+03  0.7546771E-02  0.1118574E+00
         21   -1    0    0  502  501  0.00000000000E+00  0.00000000000E+00  0.56765661830E+02  0.56765661830E+02  0.00000000000E+00 0.  1.
         21   -1    0    0  501  502 -0.00000000000E+00 -0.00000000000E+00 -0.10303089219E+04  0.10303089219E+04  0.00000000000E+00 0.  1.
         25    1    1    2    0    0  0.84549456823E+01  0.26407588129E+02 -0.23613803462E+03  0.26861686137E+03  0.12500000000E+03 0.  0.
         25    1    1    2    0    0  0.11969320827E+03 -0.29472099719E+02 -0.34304534875E+03  0.38535721099E+03  0.12500000000E+03 0.  0.
         25    1    1    2    0    0 -0.12814815396E+03  0.30645115898E+01 -0.39435987670E+03  0.43310051136E+03  0.12500000000E+03 0.  0.
</event>
<event>
 5    0  0.6561709E-005  0.2699179E+03  0.7546771E-02  0.1101327E+00
         21   -1    0    0  502  501  0.00000000000E+00  0.00000000000E+00  0.85587465827E+03  0.85587465827E+03  0.00000000000E+00 0.  1.
         21   -1    0    0  501  502 -0.00000000000E+00 -0.00000000000E+00 -0.85124259268E+02  0.85124259268E+02  0.00000000000E+00 0.  1.
         25    1    1    2    0    0 -0.74616184070E+02 -0.49901278998E+02  0.30884733480E+03  0.34506432557E+03  0.12500000000E+03 0.  0.
         25    1    1    2    0    0 -0.74650091908E+02 -0.54692463128E+02  0.19216565383E+03  0.24721759698E+03  0.12500000000E+03 0.  0.
         25    1    1    2    0    0  0.14926627598E+03  0.10459374213E+03  0.26973741037E+03  0.34871699498E+03  0.12500000000E+03 0.  0.
</event>
<event>
 5    0  0.5720942E-005  0.2346969E+03  0.7546771E-02  0.1123377E+00
         21   -1    0    0  502  501  0.00000000000E+00  0.00000000000E+00  0.22398834843E+04  0.22398834843E+04  0.00000000000E+00 0.  1.
         21   -1    0    0  501  502 -0.00000000000E+00 -0.00000000000E+00 -0.24591745570E+02  0.24591745570E+02  0.00000000000E+00 0.  1.
         25    1    1    2    0    0 -0.53123386027E+02  0.18586845318E+01  0.94465112051E+03  0.95436695685E+03  0.12500000000E+03 0.  0.
         25    1    1    2    0    0  0.95109976308E+02  0.22372986086E+02  0.42000434386E+03  0.44897116496E+03  0.12500000000E+03 0.  0.
         25    1    1    2    0    0 -0.41986590281E+02 -0.24231670618E+02  0.85063627432E+03  0.86113710802E+03  0.12500000000E+03 0.  0.
</event>
<event>
 5    0  0.5720942E-005  0.2970368E+03  0.7546771E-02  0.1086731E+00
         21   -1    0    0  502  501  0.00000000000E+00  0.00000000000E+00  0.85985161659E+03  0.85985161659E+03  0.00000000000E+00 0.  1.
         21   -1    0    0  501  502 -0.00000000000E+00 -0.00000000000E+00 -0.10261174553E+03  0.10261174553E+03  0.00000000000E+00 0.  1.
         25    1    1    2    0    0 -0.43077233889E+02 -0.69408041116E+02  0.64551748260E+03  0.66256391736E+03  0.12500000000E+03 0.  0.
         25    1    1    2    0    0  0.23855268185E+02  0.69174393948E+02  0.92804596408E+02  0.17202285811E+03  0.12500000000E+03 0.  0.
         25    1    1    2    0    0  0.19221965704E+02  0.23364716858E+00  0.18917792051E+02  0.12787658665E+03  0.12500000000E+03 0.  0.
</event>
<event>
 5    0  0.5720942E-005  0.2955551E+03  0.7546771E-02  0.1087484E+00
         21   -1    0    0  502  501  0.00000000000E+00  0.00000000000E+00  0.11345803157E+03  0.11345803157E+03  0.00000000000E+00 0.  1.
         21   -1    0    0  501  502 -0.00000000000E+00 -0.00000000000E+00 -0.76991322192E+03  0.76991322192E+03  0.00000000000E+00 0.  1.
         25    1    1    2    0    0  0.17232395975E+03 -0.16099525384E+02 -0.32290309741E+03  0.38709966693E+03  0.12500000000E+03 0.  0.
         25    1    1    2    0    0 -0.12336932554E+03  0.82268868953E+02 -0.27287275813E+03  0.33477260851E+03  0.12500000000E+03 0.  0.
         25    1    1    2    0    0 -0.48954634211E+02 -0.66169343569E+02 -0.60679334809E+02  0.16149897805E+03  0.12500000000E+03 0.  0.
</event>
<event>
 5    0  0.5720942E-005  0.2904731E+03  0.7546771E-02  0.1090102E+00
         21   -1    0    0  502  501  0.00000000000E+00  0.00000000000E+00  0.89490139489E+02  0.89490139489E+02  0.00000000000E+00 0.  1.
         21   -1    0    0  501  502 -0.00000000000E+00 -0.00000000000E+00 -0.94283701153E+03  0.94283701153E+03  0.00000000000E+00 0.  1.
         25    1    1    2    0    0  0.10279376631E+03  0.46173332455E+02 -0.49112011690E+03  0.51915556844E+03  0.12500000000E+03 0.  0.
         25    1    1    2    0    0  0.32560226204E+02 -0.25608456548E+02 -0.33670994590E+02  0.13592165852E+03  0.12500000000E+03 0.  0.
         25    1    1    2    0    0 -0.13535399251E+03 -0.20564875907E+02 -0.32855576055E+03  0.37724992406E+03  0.12500000000E+03 0.  0.
</event>
<event>
 5    0  0.5720942E-005  0.3139022E+03  0.7546771E-02  0.1078490E+00
         21   -1    0    0  502  501  0.00000000000E+00  0.00000000000E+00  0.44193271565E+03  0.44193271565E+03  0.00000000000E+00 0.  1.
         21   -1    0    0  501  502 -0.00000000000E+00 -0.00000000000E+00 -0.22296284981E+03  0.22296284981E+03  0.00000000000E+00 0.  1.
         25    1    1    2    0    0 -0.20048626137E+03 -0.54832727158E+01 -0.15693344182E+02  0.23684612796E+03  0.12500000000E+03 0.  0.
         25    1    1    2    0    0  0.17386331453E+03 -0.47993619383E+02  0.14507730236E+03  0.26306703195E+03  0.12500000000E+03 0.  0.
         25    1    1    2    0    0  0.26622946846E+02  0.53476892099E+02  0.89585907669E+02  0.16498240555E+03  0.12500000000E+03 0.  0.
</event>
<event>
 5    0  0.5720942E-005  0.3071302E+03  0.7546771E-02  0.1081730E+00
         21   -1    0    0  502  501  0.00000000000E+00  0.00000000000E+00  0.30274531520E+03  0.30274531520E+03  0.00000000000E+00 0. -1.
         21   -1    0    0  501  502 -0.00000000000E+00 -0.00000000000E+00 -0.31157850994E+03  0.31157850994E+03  0.00000000000E+00 0. -1.
         25    1    1    2    0    0  0.65482686906E+02  0.34476736565E+02  0.70309470551E+02  0.16138478645E+03  0.12500000000E+03 0.  0.
         25    1    1    2    0    0 -0.20706786001E+03 -0.34123670290E+02 -0.97868569569E+02  0.26314402982E+03  0.12500000000E+03 0.  0.
         25    1    1    2    0    0  0.14158517310E+03 -0.35306627521E+00  0.18725904284E+02  0.18979500886E+03  0.12500000000E+03 0.  0.
</event>
<event>
 5    0  0.5720942E-005  0.3290831E+03  0.7546771E-02  0.1071543E+00
         21   -1    0    0  502  501  0.00000000000E+00  0.00000000000E+00  0.41551479403E+03  0.41551479403E+03  0.00000000000E+00 0.  1.
         21   -1    0    0  501  502 -0.00000000000E+00 -0.00000000000E+00 -0.26063021695E+03  0.26063021695E+03  0.00000000000E+00 0.  1.
         25    1    1    2    0    0 -0.11710748367E+03  0.42769362483E+02  0.90302697910E+02  0.19830017234E+03  0.12500000000E+03 0.  0.
         25    1    1    2    0    0  0.49453830172E+02  0.16338638425E+03 -0.22404355196E+02  0.21276218416E+03  0.12500000000E+03 0.  0.
         25    1    1    2    0    0  0.67653653499E+02 -0.20615574673E+03  0.86986234365E+02  0.26508265449E+03  0.12500000000E+03 0.  0.
</event>
<event>
 5    0  0.5720942E-005  0.3055571E+03  0.7546771E-02  0.1082495E+00
         21   -1    0    0  502  501  0.00000000000E+00  0.00000000000E+00  0.18511143949E+03  0.18511143949E+03  0.00000000000E+00 0. -1.
         21   -1    0    0  501  502 -0.00000000000E+00 -0.00000000000E+00 -0.50437274464E+03  0.50437274464E+03  0.00000000000E+00 0. -1.
         25    1    1    2    0    0  0.15051684132E+02  0.10364738737E+03  0.93908156877E+01  0.16334785436E+03  0.12500000000E+03 0.  0.
         25    1    1    2    0    0 -0.68410791523E+02 -0.16739599250E+03 -0.76657400061E+02  0.23281497307E+03  0.12500000000E+03 0.  0.
         25    1    1    2    0    0  0.53359107391E+02  0.63748605126E+02 -0.25199472077E+03  0.29332135670E+03  0.12500000000E+03 0.  0.
</event>
<event>
 5    0  0.5720942E-005  0.4166468E+03  0.7546771E-02  0.1038163E+00
         21   -1    0    0  502  501  0.00000000000E+00  0.00000000000E+00  0.58956145675E+03  0.58956145675E+03  0.00000000000E+00 0. -1.
         21   -1    0    0  501  502 -0.00000000000E+00 -0.00000000000E+00 -0.29444686244E+03  0.29444686244E+03  0.00000000000E+00 0. -1.
         25    1    1    2    0    0 -0.21462000602E+03  0.13616561616E+03  0.20605194090E+03  0.35026450627E+03  0.12500000000E+03 0.  0.
         25    1    1    2    0    0  0.11428553799E+03  0.81066587948E+02  0.16854513343E+03  0.25232010994E+03  0.12500000000E+03 0.  0.
         25    1    1    2    0    0  0.10033446802E+03 -0.21723220410E+03 -0.79482480020E+02  0.28142370299E+03  0.12500000000E+03 0.  0.
</event>
<event>
 5    0  0.5720942E-005  0.3034929E+03  0.7546771E-02  0.1083507E+00
         21   -1    0    0  502  501  0.00000000000E+00  0.00000000000E+00  0.28114120081E+04  0.28114120081E+04  0.00000000000E+00 0. -1.
         21   -1    0    0  501  502 -0.00000000000E+00 -0.00000000000E+00 -0.32762165887E+02  0.32762165887E+02  0.00000000000E+00 0. -1.
         25    1    1    2    0    0  0.11485160695E+03  0.12098264995E+03  0.70551343143E+03  0.73566425435E+03  0.12500000000E+03 0.  0.
         25    1    1    2    0    0 -0.11917393790E+03  0.24659639885E+02  0.13114428501E+04  0.13229957953E+04  0.12500000000E+03 0.  0.
         25    1    1    2    0    0  0.43223309526E+01 -0.14564228984E+03  0.76169356071E+03  0.78551412435E+03  0.12500000000E+03 0.  0.
</event>
<event>
 5    0  0.5751412E-005  0.2809393E+03  0.7546771E-02  0.1095177E+00
         21   -1    0    0  502  501  0.00000000000E+00  0.00000000000E+00  0.57225277314E+03  0.57225277314E+03  0.00000000000E+00 0.  1.
         21   -1    0    0  501  502 -0.00000000000E+00 -0.00000000000E+00 -0.13792317219E+03  0.13792317219E+03  0.00000000000E+00 0.  1.
         25    1    1    2    0    0 -0.47401954158E+02  0.69126366704E+02 -0.23437258022E+01  0.15051874595E+03  0.12500000000E+03 0.  0.
         25    1    1    2    0    0 -0.77456379099E+01 -0.55519579507E+02  0.39203671101E+03  0.41528327850E+03  0.12500000000E+03 0.  0.
         25    1    1    2    0    0  0.55147592068E+02 -0.13606787196E+02  0.44636615734E+02  0.14437392089E+03  0.12500000000E+03 0.  0.
</event>
<event>
 5    0  0.5720942E-005  0.2550310E+03  0.7546771E-02  0.1110166E+00
         21   -1    0    0  502  501  0.00000000000E+00  0.00000000000E+00  0.10064920908E+04  0.10064920908E+04  0.00000000000E+00 0.  1.
         21   -1    0    0  501  502 -0.00000000000E+00 -0.00000000000E+00 -0.64621291514E+02  0.64621291514E+02  0.00000000000E+00 0.  1.
         25    1    1    2    0    0 -0.15988378123E+03  0.13192259993E+01  0.44044440618E+03  0.48495447085E+03  0.12500000000E+03 0.  0.
         25    1    1    2    0    0  0.10799759517E+03 -0.19057721167E+02  0.29617563666E+03  0.33966407677E+03  0.12500000000E+03 0.  0.
         25    1    1    2    0    0  0.51886186059E+02  0.17738495168E+02  0.20525075649E+03  0.24649483474E+03  0.12500000000E+03 0.  0.
</event>
<event>
 5    0  0.5720942E-005  0.2231533E+03  0.7546771E-02  0.1131554E+00
         21   -1    0    0  502  501  0.00000000000E+00  0.00000000000E+00  0.12080832057E+03  0.12080832057E+03  0.00000000000E+00 0.  1.
         21   -1    0    0  501  502 -0.00000000000E+00 -0.00000000000E+00 -0.41220175909E+03  0.41220175909E+03  0.00000000000E+00 0.  1.
         25    1    1    2    0    0  0.39780544659E+02  0.27406229172E+01 -0.94817211571E+01  0.13154811205E+03  0.12500000000E+03 0.  0.
         25    1    1    2    0    0  0.12256458785E+02 -0.37525607687E+02 -0.20091643189E+03  0.23989748773E+03  0.12500000000E+03 0.  0.
         25    1    1    2    0    0 -0.52037003443E+02  0.34784984770E+02 -0.80995285464E+02  0.16156447988E+03  0.12500000000E+03 0.  0.
</event>
<event>
 5    0  0.5720942E-005  0.3728167E+03  0.7546771E-02  0.1053621E+00
         21   -1    0    0  502  501  0.00000000000E+00  0.00000000000E+00  0.25683698432E+03  0.25683698432E+03  0.00000000000E+00 0.  1.
         21   -1    0    0  501  502 -0.00000000000E+00 -0.00000000000E+00 -0.54116939789E+03  0.54116939789E+03  0.00000000000E+00 0.  1.
         25    1    1    2    0    0 -0.13722361256E+03 -0.15065908138E+03 -0.80976041052E+02  0.25240958355E+03  0.12500000000E+03 0.  0.
         25    1    1    2    0    0  0.70197388081E+02 -0.75601016456E+02  0.57808311085E+02  0.17207552938E+03  0.12500000000E+03 0.  0.
         25    1    1    2    0    0  0.67026224477E+02  0.22626009783E+03 -0.26116468360E+03  0.37352126927E+03  0.12500000000E+03 0.  0.
</event>
<event>
 5    0  0.5720942E-005  0.3325977E+03  0.7546771E-02  0.1069993E+00
         21   -1    0    0  502  501  0.00000000000E+00  0.00000000000E+00  0.73235783188E+03  0.73235783188E+03  0.00000000000E+00 0.  1.
         21   -1    0    0  501  502 -0.00000000000E+00 -0.00000000000E+00 -0.15104807458E+03  0.15104807458E+03  0.00000000000E+00 0.  1.
         25    1    1    2    0    0  0.48238739630E+02  0.16233694971E+03  0.48487063790E+03  0.52858754880E+03  0.12500000000E+03 0.  0.
         25    1    1    2    0    0  0.19403062281E+02 -0.23345445567E+02  0.87983254308E+02  0.15584460752E+03  0.12500000000E+03 0.  0.
         25    1    1    2    0    0 -0.67641801911E+02 -0.13899150414E+03  0.84558650931E+01  0.19897375014E+03  0.12500000000E+03 0.  0.
</event>
<event>
 5    0  0.5720942E-005  0.2736399E+03  0.7546771E-02  0.1099214E+00
         21   -1    0    0  502  501  0.00000000000E+00  0.00000000000E+00  0.70211438973E+02  0.70211438973E+02  0.00000000000E+00 0.  1.
         21   -1    0    0  501  502 -0.00000000000E+00 -0.00000000000E+00 -0.10664757898E+04  0.10664757898E+04  0.00000000000E+00 0.  1.
         25    1    1    2    0    0 -0.11378895249E+02  0.41084446165E+02 -0.18291669566E+03  0.22561234125E+03  0.12500000000E+03 0.  0.
         25    1    1    2    0    0  0.12458254462E+03 -0.88520773589E+02 -0.61755558243E+03  0.64834916147E+03  0.12500000000E+03 0.  0.
         25    1    1    2    0    0 -0.11320364938E+03  0.47436327425E+02 -0.19579207278E+03  0.26272572610E+03  0.12500000000E+03 0.  0.
</event>
<event>
 5    0  0.5720942E-005  0.4236689E+03  0.7546771E-02  0.1035879E+00
         21   -1    0    0  502  501  0.00000000000E+00  0.00000000000E+00  0.89644587986E+03  0.89644587986E+03  0.00000000000E+00 0. -1.
         21   -1    0    0  501  502 -0.00000000000E+00 -0.00000000000E+00 -0.20022993636E+03  0.20022993636E+03  0.00000000000E+00 0. -1.
         25    1    1    2    0    0 -0.16864773376E+03 -0.29559316741E+03  0.27253086571E+03  0.45355865275E+03  0.12500000000E+03 0.  0.
         25    1    1    2    0    0  0.19120384919E+03  0.25826263589E+03  0.35127892873E+03  0.49221985617E+03  0.12500000000E+03 0.  0.
         25    1    1    2    0    0 -0.22556115433E+02  0.37330531524E+02  0.72406149062E+02  0.15089730730E+03  0.12500000000E+03 0.  0.
</event>
<event>
 5    0  0.5720942E-005  0.5634690E+03  0.7546771E-02  0.9984236E-01
         21   -1    0    0  502  501  0.00000000000E+00  0.00000000000E+00  0.51482878291E+03  0.51482878291E+03  0.00000000000E+00 0. -1.
         21   -1    0    0  501  502 -0.00000000000E+00 -0.00000000000E+00 -0.61670469663E+03  0.61670469663E+03  0.00000000000E+00 0. -1.
         25    1    1    2    0    0  0.95177392254E+02 -0.41932883726E+03  0.66681553244E+02  0.45273263555E+03  0.12500000000E+03 0.  0.
         25    1    1    2    0    0 -0.14080450523E+03  0.36691597287E+03 -0.27916102115E+03  0.49800513609E+03  0.12500000000E+03 0.  0.
         25    1    1    2    0    0  0.45627112979E+02  0.52412864386E+02  0.11060355419E+03  0.18079570789E+03  0.12500000000E+03 0.  0.
</event>
<event>
 5    0  0.5720942E-005  0.3252328E+03  0.7546771E-02  0.1073266E+00
         21   -1    0    0  502  501  0.00000000000E+00  0.00000000000E+00  0.81047756207E+03  0.81047756207E+03  0.00000000000E+00 0. -1.
         21   -1    0    0  501  502 -0.00000000000E+00 -0.00000000000E+00 -0.13051119777E+03  0.13051119777E+03  0.00000000000E+00 0. -1.
         25    1    1    2    0    0 -0.62105771549E+02  0.65768441876E+02  0.25376254749E+03  0.29698997511E+03  0.12500000000E+03 0.  0.
         25    1    1    2    0    0  0.27519798625E+02 -0.32871273077E+02  0.48143665781E+03  0.49924354316E+03  0.12500000000E+03 0.  0.
         25    1    1    2    0    0  0.34585972924E+02 -0.32897168799E+02 -0.55232840990E+02  0.14475524157E+03  0.12500000000E+03 0.  0.
</event>
<event>
 5    0  0.5720942E-005  0.3303004E+03  0.7546771E-02  0.1071004E+00
         21   -1    0    0  502  501  0.00000000000E+00  0.00000000000E+00  0.71931374637E+03  0.71931374637E+03  0.00000000000E+00 0.  1.
         21   -1    0    0  501  502 -0.00000000000E+00 -0.00000000000E+00 -0.15167006865E+03  0.15167006865E+03  0.00000000000E+00 0.  1.
         25    1    1    2    0    0  0.14927398729E+03 -0.53342419271E+02  0.17677422891E+03  0.26833237781E+03  0.12500000000E+03 0.  0.
         25    1    1    2    0    0 -0.23780960389E+03  0.11347391724E+03  0.27950109198E+03  0.40394999445E+03  0.12500000000E+03 0.  0.
         25    1    1    2    0    0  0.88535616593E+02 -0.60131497971E+02  0.11136835683E+03  0.19870144276E+03  0.12500000000E+03 0.  0.
</event>
<event>
 5    0  0.5720942E-005  0.2880402E+03  0.7546771E-02  0.1091377E+00
         21   -1    0    0  502  501  0.00000000000E+00  0.00000000000E+00  0.22895972108E+03  0.22895972108E+03  0.00000000000E+00 0.  1.
         21   -1    0    0  501  502 -0.00000000000E+00 -0.00000000000E+00 -0.36236579530E+03  0.36236579530E+03  0.00000000000E+00 0.  1.
         25    1    1    2    0    0 -0.16099924564E+02 -0.34265199382E+01 -0.11963944367E+03  0.17380893271E+03  0.12500000000E+03 0.  0.
         25    1    1    2    0    0 -0.19217402926E+01 -0.15145338740E+03 -0.72310500157E+02  0.20927405495E+03  0.12500000000E+03 0.  0.
         25    1    1    2    0    0  0.18021664857E+02  0.15487990734E+03  0.58543869605E+02  0.20824252872E+03  0.12500000000E+03 0.  0.
</event>
<event>
 5    0  0.5720942E-005  0.3601429E+03  0.7546771E-02  0.1058527E+00
         21   -1    0    0  502  501  0.00000000000E+00  0.00000000000E+00  0.15910288960E+04  0.15910288960E+04  0.00000000000E+00 0.  1.
         21   -1    0    0  501  502 -0.00000000000E+00 -0.00000000000E+00 -0.81521395951E+02  0.81521395951E+02  0.00000000000E+00 0.  1.
         25    1    1    2    0    0  0.73351194473E+01  0.40696425890E+02  0.21731124121E+03  0.25408498305E+03  0.12500000000E+03 0.  0.
         25    1    1    2    0    0 -0.17406706218E+02  0.24271303880E+03  0.55438578303E+03  0.61820806292E+03  0.12500000000E+03 0.  0.
         25    1    1    2    0    0  0.10071586770E+02 -0.28340946469E+03  0.73781047579E+03  0.80025724597E+03  0.12500000000E+03 0.  0.
</event>
<event>
 5    0  0.5720942E-005  0.1982498E+03  0.7546771E-02  0.1151224E+00
         21   -1    0    0  502  501  0.00000000000E+00  0.00000000000E+00  0.10211902405E+04  0.10211902405E+04  0.00000000000E+00 0. -1.
         21   -1    0    0  501  502 -0.00000000000E+00 -0.00000000000E+00 -0.38487436977E+02  0.38487436977E+02  0.00000000000E+00 0. -1.
         25    1    1    2    0    0 -0.50451592735E+02  0.30003970124E+01  0.39686323341E+03  0.41914173214E+03  0.12500000000E+03 0.  0.
         25    1    1    2    0    0  0.57774950009E+01  0.10312584602E+02  0.27934020540E+03  0.30626080259E+03  0.12500000000E+03 0.  0.
         25    1    1    2    0    0  0.44674097734E+02 -0.13312981615E+02  0.30649936473E+03  0.33427514276E+03  0.12500000000E+03 0.  0.
</event>
<event>
 5    0  0.5720942E-005  0.2114880E+03  0.7546771E-02  0.1140393E+00
         21   -1    0    0  502  501  0.00000000000E+00  0.00000000000E+00  0.27712909198E+03  0.27712909198E+03  0.00000000000E+00 0.  1.
         21   -1    0    0  501  502 -0.00000000000E+00 -0.00000000000E+00 -0.16139470442E+03  0.16139470442E+03  0.00000000000E+00 0.  1.
         25    1    1    2    0    0  0.81519480774E+01 -0.39112188671E+02  0.46039260617E+01  0.13131037162E+03  0.12500000000E+03 0.  0.
         25    1    1    2    0    0 -0.12038496700E+01  0.85901373580E+02  0.72366091814E+02  0.16805459375E+03  0.12500000000E+03 0.  0.
         25    1    1    2    0    0 -0.69480984074E+01 -0.46789184909E+02  0.38764369679E+02  0.13915883103E+03  0.12500000000E+03 0.  0.
</event>
<event>
 5    0  0.5720942E-005  0.2320517E+03  0.7546771E-02  0.1125204E+00
         21   -1    0    0  502  501  0.00000000000E+00  0.00000000000E+00  0.16951224471E+03  0.16951224471E+03  0.00000000000E+00 0. -1.
         21   -1    0    0  501  502 -0.00000000000E+00 -0.00000000000E+00 -0.31766440934E+03  0.31766440934E+03  0.00000000000E+00 0. -1.
         25    1    1    2    0    0 -0.79381772724E+02 -0.24084351464E+01 -0.26693779538E+02  0.15048197323E+03  0.12500000000E+03 0.  0.
         25    1    1    2    0    0  0.48777403049E+02 -0.77387945812E+02 -0.98441958135E+02  0.18353187278E+03  0.12500000000E+03 0.  0.
         25    1    1    2    0    0  0.30604369675E+02  0.79796380958E+02 -0.23016426948E+02  0.15316280804E+03  0.12500000000E+03 0.  0.
</event>
<event>
 5    0  0.5720942E-005  0.2569898E+03  0.7546771E-02  0.1108965E+00
         21   -1    0    0  502  501  0.00000000000E+00  0.00000000000E+00  0.60078694011E+02  0.60078694011E+02  0.00000000000E+00 0.  1.
         21   -1    0    0  501  502 -0.00000000000E+00 -0.00000000000E+00 -0.10992875987E+04  0.10992875987E+04  0.00000000000E+00 0.  1.
         25    1    1    2    0    0 -0.49618774710E+02  0.61849020325E+01 -0.46413034229E+03  0.48326209292E+03  0.12500000000E+03 0.  0.
         25    1    1    2    0    0 -0.32718002689E+02 -0.11041152074E+02 -0.48344179505E+03  0.50053305978E+03  0.12500000000E+03 0.  0.
         25    1    1    2    0    0  0.82336777400E+02  0.48562500418E+01 -0.91636767373E+02  0.17557114003E+03  0.12500000000E+03 0.  0.
</event>
<event>
 5    0  0.5720942E-005  0.3480754E+03  0.7546771E-02  0.1063408E+00
         21   -1    0    0  502  501  0.00000000000E+00  0.00000000000E+00  0.29398298553E+03  0.29398298553E+03  0.00000000000E+00 0. -1.
         21   -1    0    0  501  502 -0.00000000000E+00 -0.00000000000E+00 -0.41212069403E+03  0.41212069403E+03  0.00000000000E+00 0. -1.
         25    1    1    2    0    0 -0.83763661544E+00  0.11507187430E+03 -0.76807946806E+02  0.18645830253E+03  0.12500000000E+03 0.  0.
         25    1    1    2    0    0 -0.45777320567E+02 -0.13127449598E+03  0.18076458339E+03  0.26005651497E+03  0.12500000000E+03 0.  0.
         25    1    1    2    0    0  0.46614957183E+02  0.16202621684E+02 -0.22209434509E+03  0.25958886206E+03  0.12500000000E+03 0.  0.
</event>
<event>
 5    0  0.8239758E-005  0.3379272E+03  0.7546771E-02  0.1067682E+00
         21   -1    0    0  502  501  0.00000000000E+00  0.00000000000E+00  0.17213758304E+03  0.17213758304E+03  0.00000000000E+00 0. -1.
         21   -1    0    0  501  502 -0.00000000000E+00 -0.00000000000E+00 -0.66339255080E+03  0.66339255080E+03  0.00000000000E+00 0. -1.
         25    1    1    2    0    0  0.10014169826E+03 -0.80852871557E+02  0.92218899058E+01  0.17965408379E+03  0.12500000000E+03 0.  0.
         25    1    1    2    0    0 -0.17160905206E+03  0.10769829996E+03 -0.16452178268E+03  0.28938038554E+03  0.12500000000E+03 0.  0.
         25    1    1    2    0    0  0.71467353792E+02 -0.26845428406E+02 -0.33595507499E+03  0.36649566450E+03  0.12500000000E+03 0.  0.
</event>
<event>
 5    0  0.5720942E-005  0.5550779E+03  0.7546771E-02  0.1000325E+00
         21   -1    0    0  502  501  0.00000000000E+00  0.00000000000E+00  0.14227737307E+04  0.14227737307E+04  0.00000000000E+00 0.  1.
         21   -1    0    0  501  502 -0.00000000000E+00 -0.00000000000E+00 -0.21655693338E+03  0.21655693338E+03  0.00000000000E+00 0.  1.
         25    1    1    2    0    0 -0.41719797029E+03 -0.13899404733E+03  0.39250805788E+03  0.60254548966E+03  0.12500000000E+03 0.  0.
         25    1    1    2    0    0  0.16913552197E+03  0.19893819293E+02  0.52364797563E+02  0.21764572328E+03  0.12500000000E+03 0.  0.
         25    1    1    2    0    0  0.24806244832E+03  0.11910022804E+03  0.76134394188E+03  0.81913945114E+03  0.12500000000E+03 0.  0.
</event>
<event>
 5    0  0.5757830E-005  0.3355143E+03  0.7546771E-02  0.1068723E+00
         21   -1    0    0  502  501  0.00000000000E+00  0.00000000000E+00  0.33248049111E+03  0.33248049111E+03  0.00000000000E+00 0. -1.
         21   -1    0    0  501  502 -0.00000000000E+00 -0.00000000000E+00 -0.33857571885E+03  0.33857571885E+03  0.00000000000E+00 0. -1.
         25    1    1    2    0    0 -0.92093570022E+02 -0.15425395117E+02 -0.95520937479E+02  0.18294375625E+03  0.12500000000E+03 0.  0.
         25    1    1    2    0    0  0.24258115400E+03  0.28932377394E+02  0.99123824820E+02  0.29177599521E+03  0.12500000000E+03 0.  0.
         25    1    1    2    0    0 -0.15048758398E+03 -0.13506982277E+02 -0.96981150775E+01  0.19633645850E+03  0.12500000000E+03 0.  0.
</event>
<event>
 5    0  0.5720942E-005  0.2711650E+03  0.7546771E-02  0.1100615E+00
         21   -1    0    0  502  501  0.00000000000E+00  0.00000000000E+00  0.17351240958E+04  0.17351240958E+04  0.00000000000E+00 0. -1.
         21   -1    0    0  501  502 -0.00000000000E+00 -0.00000000000E+00 -0.42377630962E+02  0.42377630962E+02  0.00000000000E+00 0. -1.
         25    1    1    2    0    0 -0.31364786109E+01 -0.12385107615E+03  0.59883258388E+03  0.62415894616E+03  0.12500000000E+03 0.  0.
         25    1    1    2    0    0  0.91383952893E+02 -0.18394829030E+02  0.43511600521E+03  0.46221243446E+03  0.12500000000E+03 0.  0.
         25    1    1    2    0    0 -0.88247474282E+02  0.14224590518E+03  0.65879787571E+03  0.69113034610E+03  0.12500000000E+03 0.  0.
</event>
<event>
 5    0  0.6010450E-005  0.4283459E+03  0.7546771E-02  0.1034384E+00
         21   -1    0    0  502  501  0.00000000000E+00  0.00000000000E+00  0.43244720589E+03  0.43244720589E+03  0.00000000000E+00 0.  1.
         21   -1    0    0  501  502 -0.00000000000E+00 -0.00000000000E+00 -0.42428354201E+03  0.42428354201E+03  0.00000000000E+00 0.  1.
         25    1    1    2    0    0 -0.12329853258E+03  0.25770951917E+02  0.19383471346E+03  0.26279947915E+03  0.12500000000E+03 0.  0.
         25    1    1    2    0    0  0.98680638961E+02  0.20222920090E+03 -0.20919231119E+03  0.33169404767E+03  0.12500000000E+03 0.  0.
         25    1    1    2    0    0  0.24617893616E+02 -0.22800015282E+03  0.23521261606E+02  0.26223722108E+03  0.12500000000E+03 0.  0.
</event>
<event>
 5    0  0.5720942E-005  0.5580971E+03  0.7546771E-02  0.9996370E-01
         21   -1    0    0  502  501  0.00000000000E+00  0.00000000000E+00  0.80179559034E+03  0.80179559034E+03  0.00000000000E+00 0.  1.
         21   -1    0    0  501  502 -0.00000000000E+00 -0.00000000000E+00 -0.38846856405E+03  0.38846856405E+03  0.00000000000E+00 0.  1.
         25    1    1    2    0    0  0.53249185831E+02  0.18523558346E+03 -0.23152957546E+03  0.32615738760E+03  0.12500000000E+03 0.  0.
         25    1    1    2    0    0  0.20101327190E+03 -0.16601652104E+03  0.36205187425E+03  0.46332966707E+03  0.12500000000E+03 0.  0.
         25    1    1    2    0    0 -0.25426245773E+03 -0.19219062428E+02  0.28280472749E+03  0.40077709972E+03  0.12500000000E+03 0.  0.
</event>
<event>
 5    0  0.5720942E-005  0.4093574E+03  0.7546771E-02  0.1040587E+00
         21   -1    0    0  502  501  0.00000000000E+00  0.00000000000E+00  0.42700331780E+03  0.42700331780E+03  0.00000000000E+00 0.  1.
         21   -1    0    0  501  502 -0.00000000000E+00 -0.00000000000E+00 -0.39244063939E+03  0.39244063939E+03  0.00000000000E+00 0.  1.
         25    1    1    2    0    0  0.24955529299E+03  0.15964510900E+03 -0.12603093776E+03  0.34535952623E+03  0.12500000000E+03 0.  0.
         25    1    1    2    0    0 -0.81781919361E+02 -0.44771750565E+02  0.17570447837E+03  0.23492521300E+03  0.12500000000E+03 0.  0.
         25    1    1    2    0    0 -0.16777337363E+03 -0.11487335844E+03 -0.15110862198E+02  0.23915921796E+03  0.12500000000E+03 0.  0.
</event>
<event>
 5    0  0.5720942E-005  0.2941743E+03  0.7546771E-02  0.1088190E+00
         21   -1    0    0  502  501  0.00000000000E+00  0.00000000000E+00  0.70611165993E+02  0.70611165993E+02  0.00000000000E+00 0. -1.
         21   -1    0    0  501  502 -0.00000000000E+00 -0.00000000000E+00 -0.12255643662E+04  0.12255643662E+04  0.00000000000E+00 0. -1.
         25    1    1    2    0    0 -0.15681560275E+03  0.59705705760E+02 -0.48191958366E+03  0.52538308850E+03  0.12500000000E+03 0.  0.
         25    1    1    2    0    0  0.16428862921E+02 -0.11037742928E+03 -0.41502117805E+03  0.44757196366E+03  0.12500000000E+03 0.  0.
         25    1    1    2    0    0  0.14038673983E+03  0.50671723516E+02 -0.25801243847E+03  0.32322048000E+03  0.12500000000E+03 0.  0.
</event>
<event>
 5    0  0.5720942E-005  0.4855701E+03  0.7546771E-02  0.1017615E+00
         21   -1    0    0  502  501  0.00000000000E+00  0.00000000000E+00  0.22846261247E+04  0.22846261247E+04  0.00000000000E+00 0.  1.
         21   -1    0    0  501  502 -0.00000000000E+00 -0.00000000000E+00 -0.10320213049E+03  0.10320213049E+03  0.00000000000E+00 0.  1.
         25    1    1    2    0    0  0.19067304557E+02  0.17762593675E+03  0.24091754036E+03  0.32493198791E+03  0.12500000000E+03 0.  0.
         25    1    1    2    0    0 -0.17574778530E+02 -0.35565404930E+03  0.62944591746E+03  0.73391132886E+03  0.12500000000E+03 0.  0.
         25    1    1    2    0    0 -0.14925260272E+01  0.17802811255E+03  0.13110605364E+04  0.13289849384E+04  0.12500000000E+03 0.  0.
</event>
<event>
 5    0  0.5720942E-005  0.2396254E+03  0.7546771E-02  0.1120043E+00
         21   -1    0    0  502  501  0.00000000000E+00  0.00000000000E+00  0.23468326949E+03  0.23468326949E+03  0.00000000000E+00 0. -1.
         21   -1    0    0  501  502 -0.00000000000E+00 -0.00000000000E+00 -0.24467160109E+03  0.24467160109E+03  0.00000000000E+00 0. -1.
         25    1    1    2    0    0  0.11461582717E+03  0.19925017242E+02 -0.11562510387E+02  0.17115047706E+03  0.12500000000E+03 0.  0.
         25    1    1    2    0    0 -0.10358312712E+03  0.35904253986E+02  0.27244887164E+02  0.16848104806E+03  0.12500000000E+03 0.  0.
         25    1    1    2    0    0 -0.11032700051E+02 -0.55829271229E+02 -0.25670708379E+02  0.13972334545E+03  0.12500000000E+03 0.  0.
</event>
<event>
 5    0  0.5720942E-005  0.3987844E+03  0.7546771E-02  0.1044201E+00
         21   -1    0    0  502  501  0.00000000000E+00  0.00000000000E+00  0.10577560579E+04  0.10577560579E+04  0.00000000000E+00 0.  1.
         21   -1    0    0  501  502 -0.00000000000E+00 -0.00000000000E+00 -0.15034560946E+03  0.15034560946E+03  0.00000000000E+00 0.  1.
         25    1    1    2    0    0  0.12086335209E+02 -0.32606556860E+02  0.10452810186E+03  0.16661449855E+03  0.12500000000E+03 0.  0.
         25    1    1    2    0    0  0.11495553369E+03 -0.25834578113E+03  0.48496899153E+03  0.57513236746E+03  0.12500000000E+03 0.  0.
         25    1    1    2    0    0 -0.12704186890E+03  0.29095233799E+03  0.31791335508E+03  0.46635480139E+03  0.12500000000E+03 0.  0.
</event>
<event>
 5    0  0.5720942E-005  0.5396024E+03  0.7546771E-02  0.1003930E+00
         21   -1    0    0  502  501  0.00000000000E+00  0.00000000000E+00  0.14092367072E+03  0.14092367072E+03  0.00000000000E+00 0. -1.
         21   -1    0    0  501  502 -0.00000000000E+00 -0.00000000000E+00 -0.20661594600E+04  0.20661594600E+04  0.00000000000E+00 0. -1.
         25    1    1    2    0    0  0.31961921579E+02  0.31386770931E+03 -0.13120094075E+03  0.36383126615E+03  0.12500000000E+03 0.  0.
         25    1    1    2    0    0 -0.43005621320E+02 -0.18592213604E+03 -0.74929155732E+03  0.78324923365E+03  0.12500000000E+03 0.  0.
         25    1    1    2    0    0  0.11043699741E+02 -0.12794557327E+03 -0.10447432912E+04  0.10600026309E+04  0.12500000000E+03 0.  0.
</event>
<event>
 5    0  0.5720942E-005  0.2527713E+03  0.7546771E-02  0.1111566E+00
         21   -1    0    0  502  501  0.00000000000E+00  0.00000000000E+00  0.50716279396E+02  0.50716279396E+02  0.00000000000E+00 0.  1.
         21   -1    0    0  501  502 -0.00000000000E+00 -0.00000000000E+00 -0.12598192215E+04  0.12598192215E+04  0.00000000000E+00 0.  1.
         25    1    1    2    0    0  0.54572316334E+02  0.10794982411E+03 -0.22118472666E+03  0.28138760730E+03  0.12500000000E+03 0.  0.
         25    1    1    2    0    0  0.71253116976E+01 -0.52149208593E+02 -0.40045896221E+03  0.42280337089E+03  0.12500000000E+03 0.  0.
         25    1    1    2    0    0 -0.61697628031E+02 -0.55800615521E+02 -0.58745925327E+03  0.60634452274E+03  0.12500000000E+03 0.  0.
</event>
<event>
 5    0  0.5720942E-005  0.2029887E+03  0.7546771E-02  0.1147242E+00
         21   -1    0    0  502  501  0.00000000000E+00  0.00000000000E+00  0.19096137045E+03  0.19096137045E+03  0.00000000000E+00 0. -1.
         21   -1    0    0  501  502 -0.00000000000E+00 -0.00000000000E+00 -0.21577364452E+03  0.21577364452E+03  0.00000000000E+00 0. -1.
         25    1    1    2    0    0  0.92234005781E+01  0.16520655256E+02  0.46819076543E+02  0.13481479554E+03  0.12500000000E+03 0.  0.
         25    1    1    2    0    0 -0.39613546473E+02  0.70198143676E+01 -0.30273219475E+02  0.13475896510E+03  0.12500000000E+03 0.  0.
         25    1    1    2    0    0  0.30390145895E+02 -0.23540469624E+02 -0.41358131132E+02  0.13716125433E+03  0.12500000000E+03 0.  0.
</event>
<event>
 5    0  0.5720942E-005  0.3547577E+03  0.7546771E-02  0.1060679E+00
         21   -1    0    0  502  501  0.00000000000E+00  0.00000000000E+00  0.13074761254E+04  0.13074761254E+04  0.00000000000E+00 0.  1.
         21   -1    0    0  501  502 -0.00000000000E+00 -0.00000000000E+00 -0.96256487238E+02  0.96256487238E+02  0.00000000000E+00 0.  1.
         25    1    1    2    0    0  0.10045307097E+03 -0.22388555447E+02  0.26184180102E+03  0.30786067571E+03  0.12500000000E+03 0.  0.
         25    1    1    2    0    0 -0.11925737526E+03 -0.49288508830E+02  0.52319761311E+02  0.18712037858E+03  0.12500000000E+03 0.  0.
         25    1    1    2    0    0  0.18804304286E+02  0.71677064277E+02  0.89705807586E+03  0.90875155838E+03  0.12500000000E+03 0.  0.
</event>
<event>
 5    0  0.5720942E-005  0.2530931E+03  0.7546771E-02  0.1111366E+00
         21   -1    0    0  502  501  0.00000000000E+00  0.00000000000E+00  0.19728641722E+03  0.19728641722E+03  0.00000000000E+00 0. -1.
         21   -1    0    0  501  502 -0.00000000000E+00 -0.00000000000E+00 -0.32468585493E+03  0.32468585493E+03  0.00000000000E+00 0. -1.
         25    1    1    2    0    0 -0.10131578751E+03 -0.15654723816E+02 -0.12330438299E+03  0.20331977287E+03  0.12500000000E+03 0.  0.
         25    1    1    2    0    0  0.32032457386E+02 -0.52544681892E+02  0.54776679372E+02  0.14970807101E+03  0.12500000000E+03 0.  0.
         25    1    1    2    0    0  0.69283330120E+02  0.68199405708E+02 -0.58871734089E+02  0.16894442828E+03  0.12500000000E+03 0.  0.
</event>
<event>
 5    0  0.5720942E-005  0.3078411E+03  0.7546771E-02  0.1081385E+00
         21   -1    0    0  502  501  0.00000000000E+00  0.00000000000E+00  0.13426456368E+04  0.13426456368E+04  0.00000000000E+00 0.  1.
         21   -1    0    0  501  502 -0.00000000000E+00 -0.00000000000E+00 -0.70581644379E+02  0.70581644379E+02  0.00000000000E+00 0.  1.
         25    1    1    2    0    0 -0.28078557632E+02 -0.52427984044E+02  0.60121933213E+03  0.61694957998E+03  0.12500000000E+03 0.  0.
         25    1    1    2    0    0  0.58896465349E+02  0.19112425126E+03  0.31828908855E+03  0.39614418706E+03  0.12500000000E+03 0.  0.
         25    1    1    2    0    0 -0.30817907717E+02 -0.13869626722E+03  0.35255557176E+03  0.40013351416E+03  0.12500000000E+03 0.  0.
</event>
<event>
 5    0  0.5720942E-005  0.3494822E+03  0.7546771E-02  0.1062828E+00
         21   -1    0    0  502  501  0.00000000000E+00  0.00000000000E+00  0.12557770007E+03  0.12557770007E+03  0.00000000000E+00 0. -1.
         21   -1    0    0  501  502 -0.00000000000E+00 -0.00000000000E+00 -0.97260765819E+03  0.97260765819E+03  0.00000000000E+00 0. -1.
         25    1    1    2    0    0  0.10578263946E+03 -0.52909501736E+02 -0.40079170486E+03  0.43617470453E+03  0.12500000000E+03 0.  0.
         25    1    1    2    0    0  0.22154242523E+01  0.22006034890E+03 -0.25151105596E+03  0.35681126178E+03  0.12500000000E+03 0.  0.
         25    1    1    2    0    0 -0.10799806371E+03 -0.16715084717E+03 -0.19472719731E+03  0.30519939195E+03  0.12500000000E+03 0.  0.
</event>
<event>
 5    0  0.5720942E-005  0.2561214E+03  0.7546771E-02  0.1109496E+00
         21   -1    0    0  502  501  0.00000000000E+00  0.00000000000E+00  0.10246522286E+04  0.10246522286E+04  0.00000000000E+00 0. -1.
         21   -1    0    0  501  502 -0.00000000000E+00 -0.00000000000E+00 -0.64019912795E+02  0.64019912795E+02  0.00000000000E+00 0. -1.
         25    1    1    2    0    0  0.12908415545E+03 -0.96211630498E+01  0.30827282742E+03  0.35694876676E+03  0.12500000000E+03 0.  0.
         25    1    1    2    0    0 -0.14882856907E+03  0.41864125207E+02  0.43240416957E+03  0.47592112142E+03  0.12500000000E+03 0.  0.
         25    1    1    2    0    0  0.19744413618E+02 -0.32242962158E+02  0.21995531884E+03  0.25580225324E+03  0.12500000000E+03 0.  0.
</event>
<event>
 5    0  0.5720942E-005  0.2682253E+03  0.7546771E-02  0.1102300E+00
         21   -1    0    0  502  501  0.00000000000E+00  0.00000000000E+00  0.88564258336E+02  0.88564258336E+02  0.00000000000E+00 0.  1.
         21   -1    0    0  501  502 -0.00000000000E+00 -0.00000000000E+00 -0.81234603660E+03  0.81234603660E+03  0.00000000000E+00 0.  1.
         25    1    1    2    0    0 -0.99493822747E+01  0.60877218614E+02 -0.12626895919E+03  0.18807944068E+03  0.12500000000E+03 0.  0.
         25    1    1    2    0    0  0.42921787286E+02  0.11101532040E+03 -0.29211646146E+03  0.33929884799E+03  0.12500000000E+03 0.  0.
         25    1    1    2    0    0 -0.32972405011E+02 -0.17189253901E+03 -0.30539635761E+03  0.37353200626E+03  0.12500000000E+03 0.  0.
</event>
<event>
 5    0  0.5720942E-005  0.2552360E+03  0.7546771E-02  0.1110040E+00
         21   -1    0    0  502  501  0.00000000000E+00  0.00000000000E+00  0.10644952330E+04  0.10644952330E+04  0.00000000000E+00 0.  1.
         21   -1    0    0  501  502 -0.00000000000E+00 -0.00000000000E+00 -0.61198414559E+02  0.61198414559E+02  0.00000000000E+00 0.  1.
         25    1    1    2    0    0 -0.36014842849E+02 -0.94960155575E+01  0.83347179754E+02  0.15478693611E+03  0.12500000000E+03 0.  0.
         25    1    1    2    0    0 -0.59401843292E+02  0.48146942508E+02  0.38318495536E+03  0.41024677582E+03  0.12500000000E+03 0.  0.
         25    1    1    2    0    0  0.95416686141E+02 -0.38650926951E+02  0.53676468330E+03  0.56065993560E+03  0.12500000000E+03 0.  0.
</event>
<event>
 5    0  0.5720942E-005  0.4269947E+03  0.7546771E-02  0.1034814E+00
         21   -1    0    0  502  501  0.00000000000E+00  0.00000000000E+00  0.54340769779E+03  0.54340769779E+03  0.00000000000E+00 0.  1.
         21   -1    0    0  501  502 -0.00000000000E+00 -0.00000000000E+00 -0.33552055687E+03  0.33552055687E+03  0.00000000000E+00 0.  1.
         25    1    1    2    0    0  0.43383864649E+01 -0.42366588693E+02  0.18440315070E+03  0.22681109193E+03  0.12500000000E+03 0.  0.
         25    1    1    2    0    0 -0.27516063409E+01 -0.20780308182E+03 -0.18355946788E+03  0.30415254462E+03  0.12500000000E+03 0.  0.
         25    1    1    2    0    0 -0.15867801240E+01  0.25016967051E+03  0.20704345810E+03  0.34796461811E+03  0.12500000000E+03 0.  0.
</event>
<event>
 5    0  0.5880848E-005  0.4698617E+03  0.7546771E-02  0.1021959E+00
         21   -1    0    0  502  501  0.00000000000E+00  0.00000000000E+00  0.10760146128E+04  0.10760146128E+04  0.00000000000E+00 0. -1.
         21   -1    0    0  501  502 -0.00000000000E+00 -0.00000000000E+00 -0.20517377784E+03  0.20517377784E+03  0.00000000000E+00 0. -1.
         25    1    1    2    0    0 -0.32502044201E+03  0.16964260399E+02  0.17483497847E+03  0.39002351666E+03  0.12500000000E+03 0.  0.
         25    1    1    2    0    0  0.13123131801E+03  0.21517349568E+02  0.29544322400E+02  0.18488515934E+03  0.12500000000E+03 0.  0.
         25    1    1    2    0    0  0.19378912400E+03 -0.38481609967E+02  0.66646153406E+03  0.70627971461E+03  0.12500000000E+03 0.  0.
</event>
<event>
 5    0  0.5720942E-005  0.4244301E+03  0.7546771E-02  0.1035634E+00
         21   -1    0    0  502  501  0.00000000000E+00  0.00000000000E+00  0.23810221492E+03  0.23810221492E+03  0.00000000000E+00 0. -1.
         21   -1    0    0  501  502 -0.00000000000E+00 -0.00000000000E+00 -0.75656956461E+03  0.75656956461E+03  0.00000000000E+00 0. -1.
         25    1    1    2    0    0 -0.25753862584E+03 -0.15213528887E+03 -0.46658962628E+03  0.56815681750E+03  0.12500000000E+03 0.  0.
         25    1    1    2    0    0  0.20372679111E+03  0.11276427738E+03 -0.91050727283E+02  0.27952749884E+03  0.12500000000E+03 0.  0.
         25    1    1    2    0    0  0.53811834734E+02  0.39371011485E+02  0.39173003875E+02  0.14698746319E+03  0.12500000000E+03 0.  0.
</event>
<event>
 5    0  0.5720942E-005  0.2590622E+03  0.7546771E-02  0.1107708E+00
         21   -1    0    0  502  501  0.00000000000E+00  0.00000000000E+00  0.18095934039E+03  0.18095934039E+03  0.00000000000E+00 0. -1.
         21   -1    0    0  501  502 -0.00000000000E+00 -0.00000000000E+00 -0.37087460522E+03  0.37087460522E+03  0.00000000000E+00 0. -1.
         25    1    1    2    0    0 -0.44302990361E+02 -0.11423385639E+03 -0.49112183156E+02  0.18179421177E+03  0.12500000000E+03 0.  0.
         25    1    1    2    0    0  0.58740816682E+01  0.13542529487E+03 -0.11233384823E+02  0.18473143820E+03  0.12500000000E+03 0.  0.
         25    1    1    2    0    0  0.38428908693E+02 -0.21191438480E+02 -0.12956969685E+03  0.18530829563E+03  0.12500000000E+03 0.  0.
</event>
<event>
 5    0  0.5720942E-005  0.2992648E+03  0.7546771E-02  0.1085609E+00
         21   -1    0    0  502  501  0.00000000000E+00  0.00000000000E+00  0.16844806409E+03  0.16844806409E+03  0.00000000000E+00 0.  1.
         21   -1    0    0  501  502 -0.00000000000E+00 -0.00000000000E+00 -0.53167384378E+03  0.53167384378E+03  0.00000000000E+00 0.  1.
         25    1    1    2    0    0 -0.73705490254E+02 -0.13260391878E+03 -0.17726549525E+01  0.19658189356E+03  0.12500000000E+03 0.  0.
         25    1    1    2    0    0 -0.40550527845E+02  0.26537397133E+02 -0.73050694052E+02  0.15267607100E+03  0.12500000000E+03 0.  0.
         25    1    1    2    0    0  0.11425601810E+03  0.10606652164E+03 -0.28840243069E+03  0.35086394330E+03  0.12500000000E+03 0.  0.
</event>
<event>
 5    0  0.5720942E-005  0.2798477E+03  0.7546771E-02  0.1095772E+00
         21   -1    0    0  502  501  0.00000000000E+00  0.00000000000E+00  0.44585346716E+03  0.44585346716E+03  0.00000000000E+00 0. -1.
         21   -1    0    0  501  502 -0.00000000000E+00 -0.00000000000E+00 -0.17565134706E+03  0.17565134706E+03  0.00000000000E+00 0. -1.
         25    1    1    2    0    0 -0.12331327878E+03 -0.40106390496E+02  0.45656507158E+02  0.18580689957E+03  0.12500000000E+03 0.  0.
         25    1    1    2    0    0  0.11207057695E+03  0.35887074658E+01 -0.88922175518E+01  0.16815696409E+03  0.12500000000E+03 0.  0.
         25    1    1    2    0    0  0.11242701831E+02  0.36517683030E+02  0.23343783050E+03  0.26754095056E+03  0.12500000000E+03 0.  0.
</event>
<event>
 5    0  0.5720942E-005  0.2744050E+03  0.7546771E-02  0.1098785E+00
         21   -1    0    0  502  501  0.00000000000E+00  0.00000000000E+00  0.15150952780E+04  0.15150952780E+04  0.00000000000E+00 0.  1.
         21   -1    0    0  501  502 -0.00000000000E+00 -0.00000000000E+00 -0.49698593190E+02  0.49698593190E+02  0.00000000000E+00 0.  1.
         25    1    1    2    0    0  0.11242074829E+02 -0.88277894986E+02  0.19568749485E+03  0.24867240826E+03  0.12500000000E+03 0.  0.
         25    1    1    2    0    0  0.33326469839E+02  0.99183177436E+02  0.34151503590E+03  0.37842499392E+03  0.12500000000E+03 0.  0.
         25    1    1    2    0    0 -0.44568544668E+02 -0.10905282450E+02  0.92819415408E+03  0.93769646903E+03  0.12500000000E+03 0.  0.
</event>
<event>
 5    0  0.5720942E-005  0.4618470E+03  0.7546771E-02  0.1024247E+00
         21   -1    0    0  502  501  0.00000000000E+00  0.00000000000E+00  0.84058981776E+02  0.84058981776E+02  0.00000000000E+00 0. -1.
         21   -1    0    0  501  502 -0.00000000000E+00 -0.00000000000E+00 -0.25375350041E+04  0.25375350041E+04  0.00000000000E+00 0. -1.
         25    1    1    2    0    0 -0.22310621154E+03  0.18324906322E+03 -0.16273513052E+04  0.16574841994E+04  0.12500000000E+03 0.  0.
         25    1    1    2    0    0  0.42470699242E+01 -0.20813496507E+03 -0.43382803767E+03  0.49716191282E+03  0.12500000000E+03 0.  0.
         25    1    1    2    0    0  0.21885914162E+03  0.24885901850E+02 -0.39229667945E+03  0.46694787363E+03  0.12500000000E+03 0.  0.
</event>
<event>
 5    0  0.5720942E-005  0.2132136E+03  0.7546771E-02  0.1139046E+00
         21   -1    0    0  502  501  0.00000000000E+00  0.00000000000E+00  0.69433944730E+02  0.69433944730E+02  0.00000000000E+00 0. -1.
         21   -1    0    0  501  502 -0.00000000000E+00 -0.00000000000E+00 -0.65472360863E+03  0.65472360863E+03  0.00000000000E+00 0. -1.
         25    1    1    2    0    0 -0.18339744108E+02 -0.19060398929E+02 -0.26901890969E+03  0.29781843259E+03  0.12500000000E+03 0.  0.
         25    1    1    2    0    0 -0.21883952984E+02  0.43306211236E+02 -0.23342209597E+03  0.26919362960E+03  0.12500000000E+03 0.  0.
         25    1    1    2    0    0  0.40223697092E+02 -0.24245812307E+02 -0.82848658237E+02  0.15714549117E+03  0.12500000000E+03 0.  0.
</event>
<event>
 5    0  0.5720942E-005  0.2208619E+03  0.7546771E-02  0.1133242E+00
         21   -1    0    0  502  501  0.00000000000E+00  0.00000000000E+00  0.30544248228E+03  0.30544248228E+03  0.00000000000E+00 0. -1.
         21   -1    0    0  501  502 -0.00000000000E+00 -0.00000000000E+00 -0.15970262153E+03  0.15970262153E+03  0.00000000000E+00 0. -1.
         25    1    1    2    0    0  0.35267129046E+02  0.30050088030E+02 -0.43569289307E+02  0.14024999520E+03  0.12500000000E+03 0.  0.
         25    1    1    2    0    0 -0.52996636964E+02 -0.17629791724E+02  0.90881962816E+02  0.16432889049E+03  0.12500000000E+03 0.  0.
         25    1    1    2    0    0  0.17729507918E+02 -0.12420296306E+02  0.98427187238E+02  0.16056621811E+03  0.12500000000E+03 0.  0.
</event>
<event>
 5    0  0.5720942E-005  0.5048110E+03  0.7546771E-02  0.1012531E+00
         21   -1    0    0  502  501  0.00000000000E+00  0.00000000000E+00  0.14216610785E+03  0.14216610785E+03  0.00000000000E+00 0.  1.
         21   -1    0    0  501  502 -0.00000000000E+00 -0.00000000000E+00 -0.17925097993E+04  0.17925097993E+04  0.00000000000E+00 0.  1.
         25    1    1    2    0    0  0.14011520895E+03  0.18750962051E+03 -0.10878823334E+04  0.11197790411E+04  0.12500000000E+03 0.  0.
         25    1    1    2    0    0 -0.22081932182E+03 -0.30415917189E+03 -0.33225025406E+03  0.51700019928E+03  0.12500000000E+03 0.  0.
         25    1    1    2    0    0  0.80704112871E+02  0.11664955138E+03 -0.23021110398E+03  0.29789666676E+03  0.12500000000E+03 0.  0.
</event>
<event>
 5    0  0.5720942E-005  0.2425599E+03  0.7546771E-02  0.1118099E+00
         21   -1    0    0  502  501  0.00000000000E+00  0.00000000000E+00  0.18879372367E+03  0.18879372367E+03  0.00000000000E+00 0.  1.
         21   -1    0    0  501  502 -0.00000000000E+00 -0.00000000000E+00 -0.31163799672E+03  0.31163799672E+03  0.00000000000E+00 0.  1.
         25    1    1    2    0    0  0.91419875305E+02  0.33372448463E+02  0.47064906704E+02  0.16526166936E+03  0.12500000000E+03 0.  0.
         25    1    1    2    0    0 -0.25727953373E+02 -0.62867193992E+02 -0.62867469945E+02  0.15553626729E+03  0.12500000000E+03 0.  0.
         25    1    1    2    0    0 -0.65691921932E+02  0.29494745529E+02 -0.10704170982E+03  0.17963378374E+03  0.12500000000E+03 0.  0.
</event>
<event>
 5    0  0.5720942E-005  0.2906188E+03  0.7546771E-02  0.1090026E+00
         21   -1    0    0  502  501  0.00000000000E+00  0.00000000000E+00  0.44927472645E+03  0.44927472645E+03  0.00000000000E+00 0.  1.
         21   -1    0    0  501  502 -0.00000000000E+00 -0.00000000000E+00 -0.18799035252E+03  0.18799035252E+03  0.00000000000E+00 0.  1.
         25    1    1    2    0    0 -0.69206004645E+02 -0.17496809521E+03  0.95646292442E+02  0.24530902690E+03  0.12500000000E+03 0.  0.
         25    1    1    2    0    0 -0.11592028900E+02  0.16004422339E+03  0.11703704427E+03  0.23467253420E+03  0.12500000000E+03 0.  0.
         25    1    1    2    0    0  0.80798033545E+02  0.14923871817E+02  0.48601037221E+02  0.15728351787E+03  0.12500000000E+03 0.  0.
</event>
<event>
 5    0  0.5720942E-005  0.4043980E+03  0.7546771E-02  0.1042267E+00
         21   -1    0    0  502  501  0.00000000000E+00  0.00000000000E+00  0.59508108984E+03  0.59508108984E+03  0.00000000000E+00 0.  1.
         21   -1    0    0  501  502 -0.00000000000E+00 -0.00000000000E+00 -0.27481583260E+03  0.27481583260E+03  0.00000000000E+00 0.  1.
         25    1    1    2    0    0 -0.82262927180E+02 -0.12662939764E+03  0.46627978650E+03  0.50581027356E+03  0.12500000000E+03 0.  0.
         25    1    1    2    0    0  0.29345824364E+02  0.62666772282E+02 -0.15864851388E+03  0.21350094312E+03  0.12500000000E+03 0.  0.
         25    1    1    2    0    0  0.52917102816E+02  0.63962625353E+02  0.12633984620E+02  0.15058570576E+03  0.12500000000E+03 0.  0.
</event>
<event>
 5    0  0.5720942E-005  0.2665418E+03  0.7546771E-02  0.1103275E+00
         21   -1    0    0  502  501  0.00000000000E+00  0.00000000000E+00  0.54178460787E+03  0.54178460787E+03  0.00000000000E+00 0. -1.
         21   -1    0    0  501  502 -0.00000000000E+00 -0.00000000000E+00 -0.13113061556E+03  0.13113061556E+03  0.00000000000E+00 0. -1.
         25    1    1    2    0    0  0.78023601268E+02  0.75120841189E+02  0.27176365988E+03  0.31813725021E+03  0.12500000000E+03 0.  0.
         25    1    1    2    0    0 -0.11882016392E+03 -0.30679269525E+02  0.28581979197E+02  0.17748627684E+03  0.12500000000E+03 0.  0.
         25    1    1    2    0    0  0.40796562652E+02 -0.44441571664E+02  0.11030835323E+03  0.17729169639E+03  0.12500000000E+03 0.  0.
</event>
<event>
 5    0  0.5720942E-005  0.2788980E+03  0.7546771E-02  0.1096292E+00
         21   -1    0    0  502  501  0.00000000000E+00  0.00000000000E+00  0.12695435440E+03  0.12695435440E+03  0.00000000000E+00 0.  1.
         21   -1    0    0  501  502 -0.00000000000E+00 -0.00000000000E+00 -0.61269327506E+03  0.61269327506E+03  0.00000000000E+00 0.  1.
         25    1    1    2    0    0 -0.49172147994E+02  0.87588539244E+02 -0.10646452477E+03  0.19248207028E+03  0.12500000000E+03 0.  0.
         25    1    1    2    0    0 -0.61302941102E+02  0.69871006895E+02 -0.21283012902E+03  0.26374546823E+03  0.12500000000E+03 0.  0.
         25    1    1    2    0    0  0.11047508910E+03 -0.15745954614E+03 -0.16644426688E+03  0.28342009096E+03  0.12500000000E+03 0.  0.
</event>
<event>
 5    0  0.5720942E-005  0.3118446E+03  0.7546771E-02  0.1079465E+00
         21   -1    0    0  502  501  0.00000000000E+00  0.00000000000E+00  0.12375099820E+03  0.12375099820E+03  0.00000000000E+00 0. -1.
         21   -1    0    0  501  502 -0.00000000000E+00 -0.00000000000E+00 -0.78582829210E+03  0.78582829210E+03  0.00000000000E+00 0. -1.
         25    1    1    2    0    0  0.33759188620E+02  0.12608954444E+03 -0.37307823814E+03  0.41454870378E+03  0.12500000000E+03 0.  0.
         25    1    1    2    0    0  0.11706654760E+03 -0.84190921921E+02 -0.84312076997E+02  0.20862937048E+03  0.12500000000E+03 0.  0.
         25    1    1    2    0    0 -0.15082573622E+03 -0.41898622516E+02 -0.20468697876E+03  0.28640121603E+03  0.12500000000E+03 0.  0.
</event>
<event>
 5    0  0.5720942E-005  0.3313123E+03  0.7546771E-02  0.1070558E+00
         21   -1    0    0  502  501  0.00000000000E+00  0.00000000000E+00  0.10634877426E+03  0.10634877426E+03  0.00000000000E+00 0. -1.
         21   -1    0    0  501  502 -0.00000000000E+00 -0.00000000000E+00 -0.10321494864E+04  0.10321494864E+04  0.00000000000E+00 0. -1.
         25    1    1    2    0    0 -0.13244154298E+03 -0.45776405426E+02 -0.38366742123E+03  0.42715562938E+03  0.12500000000E+03 0.  0.
         25    1    1    2    0    0  0.55688541849E+02 -0.77358667150E+02 -0.24089013539E+02  0.15903099588E+03  0.12500000000E+03 0.  0.
         25    1    1    2    0    0  0.76753001129E+02  0.12313507258E+03 -0.51804427740E+03  0.55231163543E+03  0.12500000000E+03 0.  0.
</event>
<event>
 5    0  0.5720942E-005  0.3077359E+03  0.7546771E-02  0.1081436E+00
         21   -1    0    0  502  501  0.00000000000E+00  0.00000000000E+00  0.78090387513E+03  0.78090387513E+03  0.00000000000E+00 0.  1.
         21   -1    0    0  501  502 -0.00000000000E+00 -0.00000000000E+00 -0.12127152196E+03  0.12127152196E+03  0.00000000000E+00 0.  1.
         25    1    1    2    0    0 -0.94850608889E+02 -0.10519005512E+03  0.94760423074E+02  0.21134361472E+03  0.12500000000E+03 0.  0.
         25    1    1    2    0    0 -0.50729759127E+02  0.12359041288E+03  0.16263732903E+03  0.24479378957E+03  0.12500000000E+03 0.  0.
         25    1    1    2    0    0  0.14558036802E+03 -0.18400357762E+02  0.40223460106E+03  0.44603799279E+03  0.12500000000E+03 0.  0.
</event>
<event>
 5    0  0.5720942E-005  0.2346202E+03  0.7546771E-02  0.1123429E+00
         21   -1    0    0  502  501  0.00000000000E+00  0.00000000000E+00  0.11474058316E+03  0.11474058316E+03  0.00000000000E+00 0.  1.
         21   -1    0    0  501  502 -0.00000000000E+00 -0.00000000000E+00 -0.47974880978E+03  0.47974880978E+03  0.00000000000E+00 0.  1.
         25    1    1    2    0    0 -0.10508451041E+03 -0.30648656997E+02 -0.71424571632E+02  0.18085509099E+03  0.12500000000E+03 0.  0.
         25    1    1    2    0    0  0.44607388162E+02  0.52610157748E+02 -0.19606076218E+03  0.24253344150E+03  0.12500000000E+03 0.  0.
         25    1    1    2    0    0  0.60477122246E+02 -0.21961500751E+02 -0.97522892805E+02  0.17110086046E+03  0.12500000000E+03 0.  0.
</event>
<event>
 5    0  0.5720942E-005  0.2711004E+03  0.7546771E-02  0.1100651E+00
         21   -1    0    0  502  501  0.00000000000E+00  0.00000000000E+00  0.34148160478E+02  0.34148160478E+02  0.00000000000E+00 0.  1.
         21   -1    0    0  501  502 -0.00000000000E+00 -0.00000000000E+00 -0.21522518379E+04  0.21522518379E+04  0.00000000000E+00 0.  1.
         25    1    1    2    0    0 -0.17121163079E+02  0.91812027598E+02 -0.69916418233E+03  0.71636452766E+03  0.12500000000E+03 0.  0.
         25    1    1    2    0    0 -0.40230399056E+02 -0.17847359093E+03 -0.83270699768E+03  0.86168280223E+03  0.12500000000E+03 0.  0.
         25    1    1    2    0    0  0.57351562135E+02  0.86661563333E+02 -0.58623249742E+03  0.60835266850E+03  0.12500000000E+03 0.  0.
</event>
<event>
 5    0  0.5720942E-005  0.2541916E+03  0.7546771E-02  0.1110684E+00
         21   -1    0    0  502  501  0.00000000000E+00  0.00000000000E+00  0.65233875054E+03  0.65233875054E+03  0.00000000000E+00 0. -1.
         21   -1    0    0  501  502 -0.00000000000E+00 -0.00000000000E+00 -0.99048791086E+02  0.99048791086E+02  0.00000000000E+00 0. -1.
         25    1    1    2    0    0  0.47027563124E+02  0.91396191244E+02  0.11819049806E+03  0.20039672976E+03  0.12500000000E+03 0.  0.
         25    1    1    2    0    0 -0.11336483983E+03 -0.46471993242E+02  0.15420297669E+03  0.23326978177E+03  0.12500000000E+03 0.  0.
         25    1    1    2    0    0  0.66337276705E+02 -0.44924198003E+02  0.28089648470E+03  0.31772103009E+03  0.12500000000E+03 0.  0.
</event>
<event>
 5    0  0.5720942E-005  0.2634618E+03  0.7546771E-02  0.1105081E+00
         21   -1    0    0  502  501  0.00000000000E+00  0.00000000000E+00  0.19460953494E+03  0.19460953494E+03  0.00000000000E+00 0.  1.
         21   -1    0    0  501  502 -0.00000000000E+00 -0.00000000000E+00 -0.35667371412E+03  0.35667371412E+03  0.00000000000E+00 0.  1.
         25    1    1    2    0    0 -0.73757215020E+02 -0.16441254043E+02 -0.45781405756E+02  0.15307311559E+03  0.12500000000E+03 0.  0.
         25    1    1    2    0    0 -0.73212471282E+02  0.93263163660E+02 -0.39159609821E+02  0.17668208367E+03  0.12500000000E+03 0.  0.
         25    1    1    2    0    0  0.14696968630E+03 -0.76821909617E+02 -0.77123163602E+02  0.22152804981E+03  0.12500000000E+03 0.  0.
</event>
<event>
 5    0  0.5720942E-005  0.2602514E+03  0.7546771E-02  0.1106992E+00
         21   -1    0    0  502  501  0.00000000000E+00  0.00000000000E+00  0.35354131058E+02  0.35354131058E+02  0.00000000000E+00 0. -1.
         21   -1    0    0  501  502 -0.00000000000E+00 -0.00000000000E+00 -0.19157821647E+04  0.19157821647E+04  0.00000000000E+00 0. -1.
         25    1    1    2    0    0  0.34572651879E+02 -0.48172497850E+02 -0.64349809124E+03  0.65820259134E+03  0.12500000000E+03 0.  0.
         25    1    1    2    0    0 -0.67996257960E+02 -0.49302407357E+02 -0.96286323835E+03  0.97456905052E+03  0.12500000000E+03 0.  0.
         25    1    1    2    0    0  0.33423606081E+02  0.97474905207E+02 -0.27406670408E+03  0.31836465394E+03  0.12500000000E+03 0.  0.
</event>
<event>
 5    0  0.5720942E-005  0.2232470E+03  0.7546771E-02  0.1131485E+00
         21   -1    0    0  502  501  0.00000000000E+00  0.00000000000E+00  0.58915948487E+02  0.58915948487E+02  0.00000000000E+00 0.  1.
         21   -1    0    0  501  502 -0.00000000000E+00 -0.00000000000E+00 -0.84593798853E+03  0.84593798853E+03  0.00000000000E+00 0.  1.
         25    1    1    2    0    0 -0.54863420485E+02  0.54654291920E+02 -0.31880302084E+03  0.35108040764E+03  0.12500000000E+03 0.  0.
         25    1    1    2    0    0  0.53542532756E+02  0.35995291040E+02 -0.20545231831E+03  0.24899421457E+03  0.12500000000E+03 0.  0.
         25    1    1    2    0    0  0.13208877295E+01 -0.90649582961E+02 -0.26276670089E+03  0.30477931480E+03  0.12500000000E+03 0.  0.
</event>
<event>
 5    0  0.5720942E-005  0.4659094E+03  0.7546771E-02  0.1023081E+00
         21   -1    0    0  502  501  0.00000000000E+00  0.00000000000E+00  0.15163597830E+03  0.15163597830E+03  0.00000000000E+00 0.  1.
         21   -1    0    0  501  502 -0.00000000000E+00 -0.00000000000E+00 -0.14315308900E+04  0.14315308900E+04  0.00000000000E+00 0.  1.
         25    1    1    2    0    0  0.15152539521E+02 -0.14391893584E+03  0.15356435086E+02  0.19184128765E+03  0.12500000000E+03 0.  0.
         25    1    1    2    0    0 -0.13416452160E+03 -0.20480232917E+02 -0.20709157207E+03  0.27736524299E+03  0.12500000000E+03 0.  0.
         25    1    1    2    0    0  0.11901198208E+03  0.16439916876E+03 -0.10881597747E+04  0.11139603376E+04  0.12500000000E+03 0.  0.
</event>
<event>
 5    0  0.5720942E-005  0.2647682E+03  0.7546771E-02  0.1104312E+00
         21   -1    0    0  502  501  0.00000000000E+00  0.00000000000E+00  0.10331212112E+03  0.10331212112E+03  0.00000000000E+00 0. -1.
         21   -1    0    0  501  502 -0.00000000000E+00 -0.00000000000E+00 -0.67854769686E+03  0.67854769686E+03  0.00000000000E+00 0. -1.
         25    1    1    2    0    0 -0.16574682017E+03  0.37072881543E+02 -0.20926747860E+03  0.29709305705E+03  0.12500000000E+03 0.  0.
         25    1    1    2    0    0  0.38903914195E+02 -0.27665567560E+01 -0.10972983728E+03  0.17084146325E+03  0.12500000000E+03 0.  0.
         25    1    1    2    0    0  0.12684290598E+03 -0.34306324787E+02 -0.25623825984E+03  0.31392529768E+03  0.12500000000E+03 0.  0.
</event>
<event>
 5    0  0.5720942E-005  0.3079219E+03  0.7546771E-02  0.1081346E+00
         21   -1    0    0  502  501  0.00000000000E+00  0.00000000000E+00  0.59991784882E+02  0.59991784882E+02  0.00000000000E+00 0. -1.
         21   -1    0    0  501  502 -0.00000000000E+00 -0.00000000000E+00 -0.15804815618E+04  0.15804815618E+04  0.00000000000E+00 0. -1.
         25    1    1    2    0    0 -0.87509170245E+02  0.42141701292E+02 -0.90727799830E+03  0.92098433432E+03  0.12500000000E+03 0.  0.
         25    1    1    2    0    0 -0.44820634680E+02  0.58994535262E+02 -0.13687461131E+03  0.19962190187E+03  0.12500000000E+03 0.  0.
         25    1    1    2    0    0  0.13232980492E+03 -0.10113623655E+03 -0.47633716730E+03  0.51986711049E+03  0.12500000000E+03 0.  0.
</event>
<event>
 5    0  0.5720942E-005  0.3606024E+03  0.7546771E-02  0.1058346E+00
         21   -1    0    0  502  501  0.00000000000E+00  0.00000000000E+00  0.11452837923E+03  0.11452837923E+03  0.00000000000E+00 0.  1.
         21   -1    0    0  501  502 -0.00000000000E+00 -0.00000000000E+00 -0.11353876524E+04  0.11353876524E+04  0.00000000000E+00 0.  1.
         25    1    1    2    0    0 -0.14502477590E+03  0.11955864145E+03 -0.10842563563E+03  0.25041480154E+03  0.12500000000E+03 0.  0.
         25    1    1    2    0    0  0.88791896243E+02  0.56374930777E+02 -0.23424962645E+03  0.28558715158E+03  0.12500000000E+03 0.  0.
         25    1    1    2    0    0  0.56232879654E+02 -0.17593357223E+03 -0.67818401111E+03  0.71391407853E+03  0.12500000000E+03 0.  0.
</event>
<event>
 5    0  0.5720942E-005  0.3069100E+03  0.7546771E-02  0.1081836E+00
         21   -1    0    0  502  501  0.00000000000E+00  0.00000000000E+00  0.19597574304E+03  0.19597574304E+03  0.00000000000E+00 0.  1.
         21   -1    0    0  501  502 -0.00000000000E+00 -0.00000000000E+00 -0.48063996010E+03  0.48063996010E+03  0.00000000000E+00 0.  1.
         25    1    1    2    0    0  0.56005503605E+02 -0.21611807358E+02 -0.16155393794E+03  0.21290458313E+03  0.12500000000E+03 0.  0.
         25    1    1    2    0    0  0.29247139556E+02  0.38108648351E+02  0.11806397438E+03  0.17852665430E+03  0.12500000000E+03 0.  0.
         25    1    1    2    0    0 -0.85252643161E+02 -0.16496840993E+02 -0.24117425349E+03  0.28518446570E+03  0.12500000000E+03 0.  0.
</event>
<event>
 5    0  0.5720942E-005  0.2711061E+03  0.7546771E-02  0.1100648E+00
         21   -1    0    0  502  501  0.00000000000E+00  0.00000000000E+00  0.58008385634E+02  0.58008385634E+02  0.00000000000E+00 0. -1.
         21   -1    0    0  501  502 -0.00000000000E+00 -0.00000000000E+00 -0.12670324588E+04  0.12670324588E+04  0.00000000000E+00 0. -1.
         25    1    1    2    0    0  0.11856152078E+02 -0.40168471282E+02 -0.90326943866E+03  0.91283884297E+03  0.12500000000E+03 0.  0.
         25    1    1    2    0    0  0.16306069877E+02  0.41419226680E+02 -0.22354252396E+03  0.25995711237E+03  0.12500000000E+03 0.  0.
         25    1    1    2    0    0 -0.28162221955E+02 -0.12507553981E+01 -0.82212110557E+02  0.15224488910E+03  0.12500000000E+03 0.  0.
</event>
<event>
 5    0  0.5720942E-005  0.2565845E+03  0.7546771E-02  0.1109213E+00
         21   -1    0    0  502  501  0.00000000000E+00  0.00000000000E+00  0.48238775510E+03  0.48238775510E+03  0.00000000000E+00 0.  1.
         21   -1    0    0  501  502 -0.00000000000E+00 -0.00000000000E+00 -0.13647864527E+03  0.13647864527E+03  0.00000000000E+00 0.  1.
         25    1    1    2    0    0  0.41913208659E+02 -0.11020788168E+03  0.19583791127E+03  0.26053787006E+03  0.12500000000E+03 0.  0.
         25    1    1    2    0    0 -0.37491662213E+02  0.11621512807E+03  0.15417698411E+03  0.23303888765E+03  0.12500000000E+03 0.  0.
         25    1    1    2    0    0 -0.44215464458E+01 -0.60072463957E+01 -0.41057855467E+01  0.12528964266E+03  0.12500000000E+03 0.  0.
</event>
<event>
 5    0  0.5720942E-005  0.2561865E+03  0.7546771E-02  0.1109456E+00
         21   -1    0    0  502  501  0.00000000000E+00  0.00000000000E+00  0.54999909895E+02  0.54999909895E+02  0.00000000000E+00 0.  1.
         21   -1    0    0  501  502 -0.00000000000E+00 -0.00000000000E+00 -0.11933022221E+04  0.11933022221E+04  0.00000000000E+00 0.  1.
         25    1    1    2    0    0 -0.35997484340E+02 -0.10532930627E+01 -0.12991993607E+03  0.18385080389E+03  0.12500000000E+03 0.  0.
         25    1    1    2    0    0 -0.79814302620E+02  0.17337763870E+02 -0.29275856875E+03  0.32863886035E+03  0.12500000000E+03 0.  0.
         25    1    1    2    0    0  0.11581178696E+03 -0.16284470808E+02 -0.71562380734E+03  0.73581246770E+03  0.12500000000E+03 0.  0.
</event>
<event>
 5    0  0.5720942E-005  0.6820976E+03  0.7546771E-02  0.9748347E-01
         21   -1    0    0  502  501  0.00000000000E+00  0.00000000000E+00  0.66840954520E+03  0.66840954520E+03  0.00000000000E+00 0.  1.
         21   -1    0    0  501  502 -0.00000000000E+00 -0.00000000000E+00 -0.69606596678E+03  0.69606596678E+03  0.00000000000E+00 0.  1.
         25    1    1    2    0    0 -0.29661517926E+03  0.16094475958E+03  0.37818636395E+03  0.52204760902E+03  0.12500000000E+03 0.  0.
         25    1    1    2    0    0  0.46625288911E+03 -0.40329748225E+02 -0.33688414026E+03  0.59002895620E+03  0.12500000000E+03 0.  0.
         25    1    1    2    0    0 -0.16963770985E+03 -0.12061501136E+03 -0.68958645280E+02  0.25239894676E+03  0.12500000000E+03 0.  0.
</event>
<event>
 5    0  0.5720942E-005  0.2604564E+03  0.7546771E-02  0.1106869E+00
         21   -1    0    0  502  501  0.00000000000E+00  0.00000000000E+00  0.74745490096E+03  0.74745490096E+03  0.00000000000E+00 0. -1.
         21   -1    0    0  501  502 -0.00000000000E+00 -0.00000000000E+00 -0.90758025703E+02  0.90758025703E+02  0.00000000000E+00 0.  1.
         25    1    1    2    0    0 -0.19367435923E+02 -0.35893748771E+02  0.19572089220E+03  0.23578618793E+03  0.12500000000E+03 0.  0.
         25    1    1    2    0    0  0.54963633615E+02 -0.11177834398E+03  0.30080361260E+03  0.34874519718E+03  0.12500000000E+03 0.  0.
         25    1    1    2    0    0 -0.35596197692E+02  0.14767209275E+03  0.16017237046E+03  0.25368154156E+03  0.12500000000E+03 0.  0.
</event>
<event>
 5    0  0.5720942E-005  0.3746202E+03  0.7546771E-02  0.1052940E+00
         21   -1    0    0  502  501  0.00000000000E+00  0.00000000000E+00  0.48097215686E+03  0.48097215686E+03  0.00000000000E+00 0.  1.
         21   -1    0    0  501  502 -0.00000000000E+00 -0.00000000000E+00 -0.29178461794E+03  0.29178461794E+03  0.00000000000E+00 0.  1.
         25    1    1    2    0    0 -0.10417897127E+03 -0.28501264414E+02  0.83959976622E+02  0.18531016648E+03  0.12500000000E+03 0.  0.
         25    1    1    2    0    0  0.14397101135E+03  0.23872066911E+03 -0.26776592392E+02  0.30668745633E+03  0.12500000000E+03 0.  0.
         25    1    1    2    0    0 -0.39792040081E+02 -0.21021940470E+03  0.13200415469E+03  0.28075915198E+03  0.12500000000E+03 0.  0.
</event>
<event>
 5    0  0.6150201E-005  0.5107737E+03  0.7546771E-02  0.1011004E+00
         21   -1    0    0  502  501  0.00000000000E+00  0.00000000000E+00  0.12461309595E+04  0.12461309595E+04  0.00000000000E+00 0. -1.
         21   -1    0    0  501  502 -0.00000000000E+00 -0.00000000000E+00 -0.20935986973E+03  0.20935986973E+03  0.00000000000E+00 0. -1.
         25    1    1    2    0    0  0.68020834280E+01 -0.28478190964E+03  0.56382323726E+02  0.31615023459E+03  0.12500000000E+03 0.  0.
         25    1    1    2    0    0  0.36072764229E+01 -0.49214415856E+02  0.61171665569E+03  0.62630450902E+03  0.12500000000E+03 0.  0.
         25    1    1    2    0    0 -0.10409359851E+02  0.33399632550E+03  0.36867211039E+03  0.51303608567E+03  0.12500000000E+03 0.  0.
</event>
<event>
 5    0  0.5720942E-005  0.3747772E+03  0.7546771E-02  0.1052881E+00
         21   -1    0    0  502  501  0.00000000000E+00  0.00000000000E+00  0.45997518082E+03  0.45997518082E+03  0.00000000000E+00 0.  1.
         21   -1    0    0  501  502 -0.00000000000E+00 -0.00000000000E+00 -0.30535984564E+03  0.30535984564E+03  0.00000000000E+00 0.  1.
         25    1    1    2    0    0  0.12317084763E+03 -0.15726116918E+03 -0.14063133321E+03  0.27441629856E+03  0.12500000000E+03 0.  0.
         25    1    1    2    0    0 -0.12946591479E+03 -0.73070198579E+01  0.17803361528E+03  0.25325043692E+03  0.12500000000E+03 0.  0.
         25    1    1    2    0    0  0.62950671561E+01  0.16456818904E+03  0.11721305311E+03  0.23766829097E+03  0.12500000000E+03 0.  0.
</event>
<event>
 5    0  0.5720942E-005  0.3691698E+03  0.7546771E-02  0.1055011E+00
         21   -1    0    0  502  501  0.00000000000E+00  0.00000000000E+00  0.94004709551E+02  0.94004709551E+02  0.00000000000E+00 0. -1.
         21   -1    0    0  501  502 -0.00000000000E+00 -0.00000000000E+00 -0.14497821522E+04  0.14497821522E+04  0.00000000000E+00 0. -1.
         25    1    1    2    0    0  0.37592255242E+02 -0.48646236161E+02 -0.40931927512E+03  0.43237356873E+03  0.12500000000E+03 0.  0.
         25    1    1    2    0    0 -0.92304157407E+02 -0.11547814521E+03 -0.85934684731E+03  0.88088436442E+03  0.12500000000E+03 0.  0.
         25    1    1    2    0    0  0.54711902165E+02  0.16412438137E+03 -0.87111320169E+02  0.23052892856E+03  0.12500000000E+03 0.  0.
</event>
<event>
 5    0  0.5720942E-005  0.3921965E+03  0.7546771E-02  0.1046516E+00
         21   -1    0    0  502  501  0.00000000000E+00  0.00000000000E+00  0.92291864689E+03  0.92291864689E+03  0.00000000000E+00 0. -1.
         21   -1    0    0  501  502 -0.00000000000E+00 -0.00000000000E+00 -0.16666484140E+03  0.16666484140E+03  0.00000000000E+00 0. -1.
         25    1    1    2    0    0 -0.14446538193E+03  0.62213297573E+02  0.43827359669E+03  0.48213015517E+03  0.12500000000E+03 0.  0.
         25    1    1    2    0    0  0.29190836527E+03 -0.32480487611E+02  0.16610228227E+03  0.35983391164E+03  0.12500000000E+03 0.  0.
         25    1    1    2    0    0 -0.14744298334E+03 -0.29732809962E+02  0.15187792654E+03  0.24761942148E+03  0.12500000000E+03 0.  0.
</event>
<event>
 5    0  0.5720942E-005  0.3593566E+03  0.7546771E-02  0.1058839E+00
         21   -1    0    0  502  501  0.00000000000E+00  0.00000000000E+00  0.11095794268E+03  0.11095794268E+03  0.00000000000E+00 0.  1.
         21   -1    0    0  501  502 -0.00000000000E+00 -0.00000000000E+00 -0.11638389844E+04  0.11638389844E+04  0.00000000000E+00 0.  1.
         25    1    1    2    0    0  0.13615061300E+03 -0.19877170979E+03 -0.21734783314E+03  0.34772440611E+03  0.12500000000E+03 0.  0.
         25    1    1    2    0    0 -0.94621129862E+02  0.99675862118E+02 -0.66266806492E+03  0.68821682628E+03  0.12500000000E+03 0.  0.
         25    1    1    2    0    0 -0.41529483135E+02  0.99095847674E+02 -0.17286514362E+03  0.23885569466E+03  0.12500000000E+03 0.  0.
</event>
<event>
 5    0  0.5720942E-005  0.6591920E+03  0.7546771E-02  0.9789682E-01
         21   -1    0    0  502  501  0.00000000000E+00  0.00000000000E+00  0.14295049473E+03  0.14295049473E+03  0.00000000000E+00 0. -1.
         21   -1    0    0  501  502 -0.00000000000E+00 -0.00000000000E+00 -0.30397522649E+04  0.30397522649E+04  0.00000000000E+00 0. -1.
         25    1    1    2    0    0 -0.49019737492E+03 -0.87913815338E+02 -0.49257244535E+03  0.71152998477E+03  0.12500000000E+03 0.  0.
         25    1    1    2    0    0  0.25277363527E+03  0.29494227059E+02 -0.14840893406E+04  0.15109303727E+04  0.12500000000E+03 0.  0.
         25    1    1    2    0    0  0.23742373965E+03  0.58419588279E+02 -0.92013998416E+03  0.96024240215E+03  0.12500000000E+03 0.  0.
</event>
<event>
 5    0  0.5720942E-005  0.2564781E+03  0.7546771E-02  0.1109278E+00
         21   -1    0    0  502  501  0.00000000000E+00  0.00000000000E+00  0.16751169015E+03  0.16751169015E+03  0.00000000000E+00 0.  1.
         21   -1    0    0  501  502 -0.00000000000E+00 -0.00000000000E+00 -0.39269500148E+03  0.39269500148E+03  0.00000000000E+00 0.  1.
         25    1    1    2    0    0 -0.72971144283E+02  0.21233876279E+02 -0.73870498787E+02  0.16388262870E+03  0.12500000000E+03 0.  0.
         25    1    1    2    0    0  0.11823656214E+03  0.85898243622E+02 -0.10638161189E+03  0.21977361132E+03  0.12500000000E+03 0.  0.
         25    1    1    2    0    0 -0.45265417856E+02 -0.10713211990E+03 -0.44931200652E+02  0.17655045160E+03  0.12500000000E+03 0.  0.
</event>
<event>
 5    0  0.5720942E-005  0.2660412E+03  0.7546771E-02  0.1103567E+00
         21   -1    0    0  502  501  0.00000000000E+00  0.00000000000E+00  0.30597137436E+03  0.30597137436E+03  0.00000000000E+00 0.  1.
         21   -1    0    0  501  502 -0.00000000000E+00 -0.00000000000E+00 -0.23132199497E+03  0.23132199497E+03  0.00000000000E+00 0.  1.
         25    1    1    2    0    0 -0.35979092246E+02  0.11408342621E+03  0.11118582647E+03  0.20566188569E+03  0.12500000000E+03 0.  0.
         25    1    1    2    0    0 -0.19789601927E+02 -0.10479398666E+03  0.47134008780E+02  0.17093865206E+03  0.12500000000E+03 0.  0.
         25    1    1    2    0    0  0.55768694173E+02 -0.92894395540E+01 -0.83670455864E+02  0.16069283158E+03  0.12500000000E+03 0.  0.
</event>
<event>
 5    0  0.5720942E-005  0.3145145E+03  0.7546771E-02  0.1078202E+00
         21   -1    0    0  502  501  0.00000000000E+00  0.00000000000E+00  0.97981553607E+03  0.97981553607E+03  0.00000000000E+00 0. -1.
         21   -1    0    0  501  502 -0.00000000000E+00 -0.00000000000E+00 -0.10095713583E+03  0.10095713583E+03  0.00000000000E+00 0. -1.
         25    1    1    2    0    0  0.18266166276E+02  0.16879599900E+03  0.47985009472E+03  0.52412484726E+03  0.12500000000E+03 0.  0.
         25    1    1    2    0    0 -0.16510515440E+02 -0.10755602219E+02  0.31288954614E+03  0.33751021938E+03  0.12500000000E+03 0.  0.
         25    1    1    2    0    0 -0.17556508361E+01 -0.15804039678E+03  0.86118759380E+02  0.21913760527E+03  0.12500000000E+03 0.  0.
</event>
<event>
 5    0  0.5720942E-005  0.3088956E+03  0.7546771E-02  0.1080876E+00
         21   -1    0    0  502  501  0.00000000000E+00  0.00000000000E+00  0.25480589937E+03  0.25480589937E+03  0.00000000000E+00 0. -1.
         21   -1    0    0  501  502 -0.00000000000E+00 -0.00000000000E+00 -0.37446738617E+03  0.37446738617E+03  0.00000000000E+00 0. -1.
         25    1    1    2    0    0  0.12665081277E+03  0.26320318028E+02 -0.11641338236E+03  0.21426680356E+03  0.12500000000E+03 0.  0.
         25    1    1    2    0    0 -0.22257900671E+03 -0.30373095732E+02 -0.96386671200E+01  0.25725831974E+03  0.12500000000E+03 0.  0.
         25    1    1    2    0    0  0.95928193937E+02  0.40527777032E+01  0.63905626770E+01  0.15774816224E+03  0.12500000000E+03 0.  0.
</event>
<event>
 5    0  0.5720942E-005  0.3443325E+03  0.7546771E-02  0.1064966E+00
         21   -1    0    0  502  501  0.00000000000E+00  0.00000000000E+00  0.17333299977E+03  0.17333299977E+03  0.00000000000E+00 0.  1.
         21   -1    0    0  501  502 -0.00000000000E+00 -0.00000000000E+00 -0.68402929546E+03  0.68402929546E+03  0.00000000000E+00 0.  1.
         25    1    1    2    0    0 -0.17834321086E+03  0.18349475395E+03 -0.31777563251E+03  0.42671182103E+03  0.12500000000E+03 0.  0.
         25    1    1    2    0    0  0.85413758976E+02 -0.15010201104E+02 -0.49159530345E+02  0.15988269382E+03  0.12500000000E+03 0.  0.
         25    1    1    2    0    0  0.92929451887E+02 -0.16848455285E+03 -0.14376113283E+03  0.27076778038E+03  0.12500000000E+03 0.  0.
</event>
<event>
 5    0  0.5720942E-005  0.3709117E+03  0.7546771E-02  0.1054345E+00
         21   -1    0    0  502  501  0.00000000000E+00  0.00000000000E+00  0.81690221253E+03  0.81690221253E+03  0.00000000000E+00 0.  1.
         21   -1    0    0  501  502 -0.00000000000E+00 -0.00000000000E+00 -0.16841125279E+03  0.16841125279E+03  0.00000000000E+00 0.  1.
         25    1    1    2    0    0  0.25700872658E+02  0.51022855520E+02 -0.65863043105E+02  0.15240343529E+03  0.12500000000E+03 0.  0.
         25    1    1    2    0    0  0.14335874000E+03  0.40659209916E+01  0.20801512730E+03  0.28189280451E+03  0.12500000000E+03 0.  0.
         25    1    1    2    0    0 -0.16905961266E+03 -0.55088776511E+02  0.50633887554E+03  0.55101722552E+03  0.12500000000E+03 0.  0.
</event>
<event>
 5    0  0.6452942E-005  0.5715230E+03  0.7546771E-02  0.9966314E-01
         21   -1    0    0  502  501  0.00000000000E+00  0.00000000000E+00  0.11388394098E+04  0.11388394098E+04  0.00000000000E+00 0. -1.
         21   -1    0    0  501  502 -0.00000000000E+00 -0.00000000000E+00 -0.28681706865E+03  0.28681706865E+03  0.00000000000E+00 0. -1.
         25    1    1    2    0    0  0.32422771013E+03  0.41999038311E+02  0.37444622645E+03  0.51256463371E+03  0.12500000000E+03 0.  0.
         25    1    1    2    0    0 -0.13249037492E+03 -0.29679234075E+03  0.45067184893E+03  0.56953446638E+03  0.12500000000E+03 0.  0.
         25    1    1    2    0    0 -0.19173733520E+03  0.25479330244E+03  0.26904265735E+02  0.34355737832E+03  0.12500000000E+03 0.  0.
</event>
<event>
 5    0  0.5720942E-005  0.4559862E+03  0.7546771E-02  0.1025952E+00
         21   -1    0    0  502  501  0.00000000000E+00  0.00000000000E+00  0.16069862451E+03  0.16069862451E+03  0.00000000000E+00 0. -1.
         21   -1    0    0  501  502 -0.00000000000E+00 -0.00000000000E+00 -0.12938718119E+04  0.12938718119E+04  0.00000000000E+00 0. -1.
         25    1    1    2    0    0 -0.74394305700E+02  0.13099009463E+03 -0.13080049427E+03  0.23542873001E+03  0.12500000000E+03 0.  0.
         25    1    1    2    0    0 -0.53579494189E+01  0.25112347373E+03 -0.46837266925E+03  0.54597588223E+03  0.12500000000E+03 0.  0.
         25    1    1    2    0    0  0.79752255118E+02 -0.38211356837E+03 -0.53400002385E+03  0.67316582414E+03  0.12500000000E+03 0.  0.
</event>
<event>
 5    0  0.5720942E-005  0.3069430E+03  0.7546771E-02  0.1081820E+00
         21   -1    0    0  502  501  0.00000000000E+00  0.00000000000E+00  0.50385564639E+03  0.50385564639E+03  0.00000000000E+00 0. -1.
         21   -1    0    0  501  502 -0.00000000000E+00 -0.00000000000E+00 -0.18698611283E+03  0.18698611283E+03  0.00000000000E+00 0. -1.
         25    1    1    2    0    0 -0.12452231089E+03  0.85869047176E+01  0.14036510224E+02  0.17720486579E+03  0.12500000000E+03 0.  0.
         25    1    1    2    0    0  0.23703058897E+02 -0.61310340453E+01 -0.41272303398E+02  0.13389483787E+03  0.12500000000E+03 0.  0.
         25    1    1    2    0    0  0.10081925199E+03 -0.24558706723E+01  0.34410532673E+03  0.37974205556E+03  0.12500000000E+03 0.  0.
</event>
<event>
 5    0  0.5720942E-005  0.2327212E+03  0.7546771E-02  0.1124739E+00
         21   -1    0    0  502  501  0.00000000000E+00  0.00000000000E+00  0.34494988274E+03  0.34494988274E+03  0.00000000000E+00 0. -1.
         21   -1    0    0  501  502 -0.00000000000E+00 -0.00000000000E+00 -0.15700591443E+03  0.15700591443E+03  0.00000000000E+00 0. -1.
         25    1    1    2    0    0  0.28833590587E+02  0.41941323616E+02  0.12769758698E+03  0.18580130326E+03  0.12500000000E+03 0.  0.
         25    1    1    2    0    0  0.79754194889E+01  0.63153674063E+02  0.48162822715E+02  0.14831268103E+03  0.12500000000E+03 0.  0.
         25    1    1    2    0    0 -0.36809010076E+02 -0.10509499768E+03  0.12083558611E+02  0.16784181287E+03  0.12500000000E+03 0.  0.
</event>
<event>
 5    0  0.5720942E-005  0.2646612E+03  0.7546771E-02  0.1104375E+00
         21   -1    0    0  502  501  0.00000000000E+00  0.00000000000E+00  0.32841912400E+04  0.32841912400E+04  0.00000000000E+00 0. -1.
         21   -1    0    0  501  502 -0.00000000000E+00 -0.00000000000E+00 -0.21328089796E+02  0.21328089796E+02  0.00000000000E+00 0. -1.
         25    1    1    2    0    0 -0.80318156947E+01  0.61265008694E+02  0.64396237884E+03  0.65888576910E+03  0.12500000000E+03 0.  0.
         25    1    1    2    0    0  0.54488314653E+02 -0.14899495479E+03  0.18721273441E+04  0.18829907768E+04  0.12500000000E+03 0.  0.
         25    1    1    2    0    0 -0.46456498958E+02  0.87729946101E+02  0.74677342726E+03  0.76364278389E+03  0.12500000000E+03 0.  0.
</event>
<event>
 5    0  0.5720942E-005  0.4046171E+03  0.7546771E-02  0.1042193E+00
         21   -1    0    0  502  501  0.00000000000E+00  0.00000000000E+00  0.19330143257E+03  0.19330143257E+03  0.00000000000E+00 0. -1.
         21   -1    0    0  501  502 -0.00000000000E+00 -0.00000000000E+00 -0.84694136203E+03  0.84694136203E+03  0.00000000000E+00 0. -1.
         25    1    1    2    0    0  0.13287467813E+03  0.29653785013E+01  0.11304977242E+03  0.21463859066E+03  0.12500000000E+03 0.  0.
         25    1    1    2    0    0 -0.11631614643E+03 -0.19749325311E+02 -0.52594461370E+03  0.55331927352E+03  0.12500000000E+03 0.  0.
         25    1    1    2    0    0 -0.16558531694E+02  0.16783946810E+02 -0.24074508819E+03  0.27228493042E+03  0.12500000000E+03 0.  0.
</event>
<event>
 5    0  0.6378902E-005  0.5969904E+03  0.7546771E-02  0.9911670E-01
         21   -1    0    0  502  501  0.00000000000E+00  0.00000000000E+00  0.52006990961E+03  0.52006990961E+03  0.00000000000E+00 0. -1.
         21   -1    0    0  501  502 -0.00000000000E+00 -0.00000000000E+00 -0.68528765363E+03  0.68528765363E+03  0.00000000000E+00 0. -1.
         25    1    1    2    0    0 -0.25212440402E+02 -0.12432204947E+03 -0.42945068199E+03  0.46491346227E+03  0.12500000000E+03 0.  0.
         25    1    1    2    0    0  0.13668374768E+03 -0.22842951464E+03  0.61454207732E+02  0.30043986035E+03  0.12500000000E+03 0.  0.
         25    1    1    2    0    0 -0.11147130728E+03  0.35275156411E+03  0.20277873025E+03  0.44000424063E+03  0.12500000000E+03 0.  0.
</event>
<event>
 5    0  0.5764427E-005  0.3093366E+03  0.7546771E-02  0.1080664E+00
         21   -1    0    0  502  501  0.00000000000E+00  0.00000000000E+00  0.41500710701E+03  0.41500710701E+03  0.00000000000E+00 0. -1.
         21   -1    0    0  501  502 -0.00000000000E+00 -0.00000000000E+00 -0.23057232481E+03  0.23057232481E+03  0.00000000000E+00 0. -1.
         25    1    1    2    0    0  0.88313069140E+01 -0.10653023940E+03  0.12103701028E+03  0.20420979836E+03  0.12500000000E+03 0.  0.
         25    1    1    2    0    0 -0.72745622344E+02 -0.34202461999E+02 -0.10408070040E+03  0.18143738912E+03  0.12500000000E+03 0.  0.
         25    1    1    2    0    0  0.63914315430E+02  0.14073270140E+03  0.16747847231E+03  0.25993224434E+03  0.12500000000E+03 0.  0.
</event>
<event>
 5    0  0.5720942E-005  0.4487456E+03  0.7546771E-02  0.1028097E+00
         21   -1    0    0  502  501  0.00000000000E+00  0.00000000000E+00  0.74124069762E+02  0.74124069762E+02  0.00000000000E+00 0. -1.
         21   -1    0    0  501  502 -0.00000000000E+00 -0.00000000000E+00 -0.27166961039E+04  0.27166961039E+04  0.00000000000E+00 0. -1.
         25    1    1    2    0    0  0.45785975380E+02  0.12544925976E+03 -0.95433565133E+02  0.20631635337E+03  0.12500000000E+03 0.  0.
         25    1    1    2    0    0 -0.97501363584E+02 -0.18061566137E+03 -0.92175223811E+03  0.95256533712E+03  0.12500000000E+03 0.  0.
         25    1    1    2    0    0  0.51715388204E+02  0.55166401609E+02 -0.16253862309E+04  0.16319384832E+04  0.12500000000E+03 0.  0.
</event>
<event>
 5    0  0.5720942E-005  0.2567439E+03  0.7546771E-02  0.1109115E+00
         21   -1    0    0  502  501  0.00000000000E+00  0.00000000000E+00  0.17042577167E+04  0.17042577167E+04  0.00000000000E+00 0.  1.
         21   -1    0    0  501  502 -0.00000000000E+00 -0.00000000000E+00 -0.38678099359E+02  0.38678099359E+02  0.00000000000E+00 0.  1.
         25    1    1    2    0    0 -0.11101559105E+02  0.17795109020E+02  0.95561598570E+03  0.96398486640E+03  0.12500000000E+03 0.  0.
         25    1    1    2    0    0 -0.19375079642E+02 -0.99963735533E+02  0.44292552767E+03  0.47135566741E+03  0.12500000000E+03 0.  0.
         25    1    1    2    0    0  0.30476638747E+02  0.82168626513E+02  0.26703810396E+03  0.30759528224E+03  0.12500000000E+03 0.  0.
</event>
<event>
 5    0  0.5720942E-005  0.3866500E+03  0.7546771E-02  0.1048503E+00
         21   -1    0    0  502  501  0.00000000000E+00  0.00000000000E+00  0.49454421960E+03  0.49454421960E+03  0.00000000000E+00 0. -1.
         21   -1    0    0  501  502 -0.00000000000E+00 -0.00000000000E+00 -0.30229488990E+03  0.30229488990E+03  0.00000000000E+00 0. -1.
         25    1    1    2    0    0 -0.22559089958E+03  0.16528391692E+03  0.16768167497E+03  0.34921651062E+03  0.12500000000E+03 0.  0.
         25    1    1    2    0    0  0.14213117961E+02 -0.14730092963E+03  0.50061651342E+02  0.20007684906E+03  0.12500000000E+03 0.  0.
         25    1    1    2    0    0  0.21137778161E+03 -0.17982987291E+02 -0.25493996623E+02  0.24754574982E+03  0.12500000000E+03 0.  0.
</event>
<event>
 5    0  0.5720942E-005  0.3322586E+03  0.7546771E-02  0.1070142E+00
         21   -1    0    0  502  501  0.00000000000E+00  0.00000000000E+00  0.23701857707E+04  0.23701857707E+04  0.00000000000E+00 0.  1.
         21   -1    0    0  501  502 -0.00000000000E+00 -0.00000000000E+00 -0.46576841242E+02  0.46576841242E+02  0.00000000000E+00 0.  1.
         25    1    1    2    0    0  0.79179788712E+02 -0.16566575316E+03  0.86499490881E+03  0.89305978130E+03  0.12500000000E+03 0.  0.
         25    1    1    2    0    0  0.92917478578E+02 -0.17869292157E+02  0.44179628823E+03  0.46878772352E+03  0.12500000000E+03 0.  0.
         25    1    1    2    0    0 -0.17209726729E+03  0.18353504532E+03  0.10168177324E+04  0.10549151071E+04  0.12500000000E+03 0.  0.
</event>
<event>
 5    0  0.6647860E-005  0.3167623E+03  0.7546771E-02  0.1077149E+00
         21   -1    0    0  502  501  0.00000000000E+00  0.00000000000E+00  0.22838479968E+03  0.22838479968E+03  0.00000000000E+00 0.  1.
         21   -1    0    0  501  502 -0.00000000000E+00 -0.00000000000E+00 -0.43933891537E+03  0.43933891537E+03  0.00000000000E+00 0.  1.
         25    1    1    2    0    0 -0.27979653913E+01  0.33778263893E+02  0.69707906645E+02  0.14708158270E+03  0.12500000000E+03 0.  0.
         25    1    1    2    0    0  0.15940896043E+03  0.57642263774E+01 -0.23691388256E+03  0.31176534561E+03  0.12500000000E+03 0.  0.
         25    1    1    2    0    0 -0.15661099504E+03 -0.39542490270E+02 -0.43748139775E+02  0.20887678673E+03  0.12500000000E+03 0.  0.
</event>
<event>
 5    0  0.5791052E-005  0.3421901E+03  0.7546771E-02  0.1065867E+00
         21   -1    0    0  502  501  0.00000000000E+00  0.00000000000E+00  0.52889204833E+03  0.52889204833E+03  0.00000000000E+00 0. -1.
         21   -1    0    0  501  502 -0.00000000000E+00 -0.00000000000E+00 -0.22139499114E+03  0.22139499114E+03  0.00000000000E+00 0. -1.
         25    1    1    2    0    0 -0.12051003026E+02  0.13225379433E+03 -0.70355281771E+01  0.18251244189E+03  0.12500000000E+03 0.  0.
         25    1    1    2    0    0  0.13698516925E+03 -0.22942238180E+02 -0.46386591392E+01  0.18691655904E+03  0.12500000000E+03 0.  0.
         25    1    1    2    0    0 -0.12493416622E+03 -0.10931155615E+03  0.31917124451E+03  0.38085803854E+03  0.12500000000E+03 0.  0.
</event>
<event>
 5    0  0.5720942E-005  0.3295215E+03  0.7546771E-02  0.1071349E+00
         21   -1    0    0  502  501  0.00000000000E+00  0.00000000000E+00  0.18210080835E+03  0.18210080835E+03  0.00000000000E+00 0. -1.
         21   -1    0    0  501  502 -0.00000000000E+00 -0.00000000000E+00 -0.59628738208E+03  0.59628738208E+03  0.00000000000E+00 0. -1.
         25    1    1    2    0    0 -0.95659298391E+02 -0.10172190057E+02 -0.77831788563E+02  0.17588906200E+03  0.12500000000E+03 0.  0.
         25    1    1    2    0    0  0.28796574030E+02 -0.15569658782E+03 -0.19053756872E+00  0.20173176855E+03  0.12500000000E+03 0.  0.
         25    1    1    2    0    0  0.66862724361E+02  0.16586877788E+03 -0.33616424760E+03  0.40076735988E+03  0.12500000000E+03 0.  0.
</event>
<event>
 5    0  0.5720942E-005  0.2146035E+03  0.7546771E-02  0.1137971E+00
         21   -1    0    0  502  501  0.00000000000E+00  0.00000000000E+00  0.96057974058E+03  0.96057974058E+03  0.00000000000E+00 0.  1.
         21   -1    0    0  501  502 -0.00000000000E+00 -0.00000000000E+00 -0.47944672288E+02  0.47944672288E+02  0.00000000000E+00 0.  1.
         25    1    1    2    0    0 -0.49365900504E+02  0.56029654883E+00  0.24962551218E+03  0.28350520700E+03  0.12500000000E+03 0.  0.
         25    1    1    2    0    0  0.40623358510E+02  0.48404197278E+02  0.46495413191E+03  0.48559300690E+03  0.12500000000E+03 0.  0.
         25    1    1    2    0    0  0.87425419942E+01 -0.48964493827E+02  0.19805542420E+03  0.23942619896E+03  0.12500000000E+03 0.  0.
</event>
<event>
 5    0  0.5720942E-005  0.4226262E+03  0.7546771E-02  0.1036215E+00
         21   -1    0    0  502  501  0.00000000000E+00  0.00000000000E+00  0.65528506328E+03  0.65528506328E+03  0.00000000000E+00 0.  1.
         21   -1    0    0  501  502 -0.00000000000E+00 -0.00000000000E+00 -0.27257288570E+03  0.27257288570E+03  0.00000000000E+00 0.  1.
         25    1    1    2    0    0  0.20343947201E+03  0.39355868312E+02  0.55737955535E+00  0.24199548304E+03  0.12500000000E+03 0.  0.
         25    1    1    2    0    0  0.11154616799E+02 -0.11206544692E+03 -0.55723043551E+02  0.17723754527E+03  0.12500000000E+03 0.  0.
         25    1    1    2    0    0 -0.21459408881E+03  0.72709578612E+02  0.43787784158E+03  0.50862492066E+03  0.12500000000E+03 0.  0.
</event>
<event>
 5    0  0.6661270E-005  0.3415794E+03  0.7546771E-02  0.1066125E+00
         21   -1    0    0  502  501  0.00000000000E+00  0.00000000000E+00  0.54551991337E+03  0.54551991337E+03  0.00000000000E+00 0.  1.
         21   -1    0    0  501  502 -0.00000000000E+00 -0.00000000000E+00 -0.21388129852E+03  0.21388129852E+03  0.00000000000E+00 0.  1.
         25    1    1    2    0    0  0.11652294650E+03  0.13376547212E+03  0.11752189827E+03  0.24679383130E+03  0.12500000000E+03 0.  0.
         25    1    1    2    0    0  0.55254563559E+02 -0.10806254512E+03 -0.41638425206E+02  0.17913497399E+03  0.12500000000E+03 0.  0.
         25    1    1    2    0    0 -0.17177751006E+03 -0.25702927007E+02  0.25575514179E+03  0.33347240661E+03  0.12500000000E+03 0.  0.
</event>
<event>
 5    0  0.5720942E-005  0.4876285E+03  0.7546771E-02  0.1017059E+00
         21   -1    0    0  502  501  0.00000000000E+00  0.00000000000E+00  0.66045292302E+03  0.66045292302E+03  0.00000000000E+00 0. -1.
         21   -1    0    0  501  502 -0.00000000000E+00 -0.00000000000E+00 -0.36002807884E+03  0.36002807884E+03  0.00000000000E+00 0. -1.
         25    1    1    2    0    0 -0.21883260139E+03  0.12760463718E+02  0.55896425313E+02  0.25845685757E+03  0.12500000000E+03 0.  0.
         25    1    1    2    0    0 -0.73971216285E+02 -0.15290251082E+03  0.34108980705E+03  0.40102141480E+03  0.12500000000E+03 0.  0.
         25    1    1    2    0    0  0.29280381767E+03  0.14014204710E+03 -0.96561388191E+02  0.36100272949E+03  0.12500000000E+03 0.  0.
</event>
<event>
 5    0  0.5720942E-005  0.2876036E+03  0.7546771E-02  0.1091607E+00
         21   -1    0    0  502  501  0.00000000000E+00  0.00000000000E+00  0.78827461940E+03  0.78827461940E+03  0.00000000000E+00 0. -1.
         21   -1    0    0  501  502 -0.00000000000E+00 -0.00000000000E+00 -0.10493272425E+03  0.10493272425E+03  0.00000000000E+00 0. -1.
         25    1    1    2    0    0 -0.11374044768E+03  0.51934730741E+02  0.15017197432E+03  0.23197139386E+03  0.12500000000E+03 0.  0.
         25    1    1    2    0    0 -0.83390892277E+02 -0.36322103525E+02  0.24990709827E+03  0.29385692757E+03  0.12500000000E+03 0.  0.
         25    1    1    2    0    0  0.19713133996E+03 -0.15612627216E+02  0.28326282256E+03  0.36737902222E+03  0.12500000000E+03 0.  0.
</event>
<event>
 5    0  0.5720942E-005  0.2629630E+03  0.7546771E-02  0.1105376E+00
         21   -1    0    0  502  501  0.00000000000E+00  0.00000000000E+00  0.90512797647E+03  0.90512797647E+03  0.00000000000E+00 0. -1.
         21   -1    0    0  501  502 -0.00000000000E+00 -0.00000000000E+00 -0.76397547873E+02  0.76397547873E+02  0.00000000000E+00 0. -1.
         25    1    1    2    0    0 -0.27460281478E+02  0.64730648192E+02  0.29573818797E+03  0.32867947867E+03  0.12500000000E+03 0.  0.
         25    1    1    2    0    0 -0.10329400118E+03 -0.97974768968E+02  0.31549690918E+03  0.36801087720E+03  0.12500000000E+03 0.  0.
         25    1    1    2    0    0  0.13075428266E+03  0.33244120776E+02  0.21749533145E+03  0.28483516848E+03  0.12500000000E+03 0.  0.
</event>
<event>
 5    0  0.5720942E-005  0.2763899E+03  0.7546771E-02  0.1097677E+00
         21   -1    0    0  502  501  0.00000000000E+00  0.00000000000E+00  0.10188679904E+03  0.10188679904E+03  0.00000000000E+00 0. -1.
         21   -1    0    0  501  502 -0.00000000000E+00 -0.00000000000E+00 -0.74976698297E+03  0.74976698297E+03  0.00000000000E+00 0. -1.
         25    1    1    2    0    0  0.37906864173E+02 -0.17555247291E+03 -0.23004088818E+03  0.31748923025E+03  0.12500000000E+03 0.  0.
         25    1    1    2    0    0 -0.77696937397E+02  0.80055078998E+02 -0.17656456971E+03  0.24340434883E+03  0.12500000000E+03 0.  0.
         25    1    1    2    0    0  0.39790073225E+02  0.95497393907E+02 -0.24127472605E+03  0.29076020292E+03  0.12500000000E+03 0.  0.
</event>
<event>
 5    0  0.5720942E-005  0.2973320E+03  0.7546771E-02  0.1086582E+00
         21   -1    0    0  502  501  0.00000000000E+00  0.00000000000E+00  0.14166903607E+03  0.14166903607E+03  0.00000000000E+00 0. -1.
         21   -1    0    0  501  502 -0.00000000000E+00 -0.00000000000E+00 -0.62403425802E+03  0.62403425802E+03  0.00000000000E+00 0. -1.
         25    1    1    2    0    0  0.53279880561E+02  0.22541279683E+00 -0.10136782124E+03  0.16952649252E+03  0.12500000000E+03 0.  0.
         25    1    1    2    0    0  0.74835190970E+02 -0.15884540671E+03 -0.21925087228E+03  0.30745424706E+03  0.12500000000E+03 0.  0.
         25    1    1    2    0    0 -0.12811507153E+03  0.15861999392E+03 -0.16174652843E+03  0.28872255451E+03  0.12500000000E+03 0.  0.
</event>
<event>
 5    0  0.5720942E-005  0.3185954E+03  0.7546771E-02  0.1076298E+00
         21   -1    0    0  502  501  0.00000000000E+00  0.00000000000E+00  0.53926876397E+03  0.53926876397E+03  0.00000000000E+00 0.  1.
         21   -1    0    0  501  502 -0.00000000000E+00 -0.00000000000E+00 -0.18822347551E+03  0.18822347551E+03  0.00000000000E+00 0.  1.
         25    1    1    2    0    0 -0.11208663355E+03  0.16279367329E+03  0.66228065741E+02  0.24305626956E+03  0.12500000000E+03 0.  0.
         25    1    1    2    0    0  0.21884328220E+02 -0.30343094551E+02  0.24465008017E+03  0.27726934366E+03  0.12500000000E+03 0.  0.
         25    1    1    2    0    0  0.90202305326E+02 -0.13245057874E+03  0.40167142554E+02  0.20716662626E+03  0.12500000000E+03 0.  0.
</event>
<event>
 5    0  0.5720942E-005  0.2494275E+03  0.7546771E-02  0.1113667E+00
         21   -1    0    0  502  501  0.00000000000E+00  0.00000000000E+00  0.54847157781E+03  0.54847157781E+03  0.00000000000E+00 0. -1.
         21   -1    0    0  501  502 -0.00000000000E+00 -0.00000000000E+00 -0.11343175483E+03  0.11343175483E+03  0.00000000000E+00 0. -1.
         25    1    1    2    0    0 -0.45960073981E+02  0.11273777200E+02 -0.23095998477E+02  0.13563868032E+03  0.12500000000E+03 0.  0.
         25    1    1    2    0    0  0.36939743342E+02  0.80757801666E+01  0.20349237300E+03  0.24179311143E+03  0.12500000000E+03 0.  0.
         25    1    1    2    0    0  0.90203306396E+01 -0.19349557367E+02  0.25464344846E+03  0.28447154089E+03  0.12500000000E+03 0.  0.
</event>
<event>
 5    0  0.5720942E-005  0.3518044E+03  0.7546771E-02  0.1061877E+00
         21   -1    0    0  502  501  0.00000000000E+00  0.00000000000E+00  0.10412092040E+03  0.10412092040E+03  0.00000000000E+00 0.  1.
         21   -1    0    0  501  502 -0.00000000000E+00 -0.00000000000E+00 -0.11886785170E+04  0.11886785170E+04  0.00000000000E+00 0.  1.
         25    1    1    2    0    0 -0.14927502938E+03 -0.13071934461E+03 -0.33423917704E+03  0.40830308463E+03  0.12500000000E+03 0.  0.
         25    1    1    2    0    0  0.13386819532E+03 -0.97329148341E+02 -0.35147112019E+03  0.40810611998E+03  0.12500000000E+03 0.  0.
         25    1    1    2    0    0  0.15406834063E+02  0.22804849296E+03 -0.39884729935E+03  0.47639023276E+03  0.12500000000E+03 0.  0.
</event>
<event>
 5    0  0.5720942E-005  0.2569271E+03  0.7546771E-02  0.1109004E+00
         21   -1    0    0  502  501  0.00000000000E+00  0.00000000000E+00  0.55558900451E+02  0.55558900451E+02  0.00000000000E+00 0.  1.
         21   -1    0    0  501  502 -0.00000000000E+00 -0.00000000000E+00 -0.11881363094E+04  0.11881363094E+04  0.00000000000E+00 0.  1.
         25    1    1    2    0    0 -0.39230592451E+02  0.97084794345E+01 -0.24071360384E+03  0.27422861453E+03  0.12500000000E+03 0.  0.
         25    1    1    2    0    0 -0.20784294783E+02 -0.17734790112E+02 -0.78193694465E+03  0.79233635225E+03  0.12500000000E+03 0.  0.
         25    1    1    2    0    0  0.60014887234E+02  0.80263106778E+01 -0.10992686043E+03  0.17713024303E+03  0.12500000000E+03 0.  0.
</event>
<event>
 5    0  0.5720942E-005  0.4720054E+03  0.7546771E-02  0.1021356E+00
         21   -1    0    0  502  501  0.00000000000E+00  0.00000000000E+00  0.19287020439E+03  0.19287020439E+03  0.00000000000E+00 0.  1.
         21   -1    0    0  501  502 -0.00000000000E+00 -0.00000000000E+00 -0.11551243815E+04  0.11551243815E+04  0.00000000000E+00 0.  1.
         25    1    1    2    0    0 -0.24072260729E+03 -0.36719068642E+02 -0.61318670446E+03  0.67150472685E+03  0.12500000000E+03 0.  0.
         25    1    1    2    0    0  0.15095047345E+03 -0.15649556047E+03 -0.34863628928E+03  0.42947545691E+03  0.12500000000E+03 0.  0.
         25    1    1    2    0    0  0.89772133837E+02  0.19321462911E+03 -0.43118333286E+00  0.24701440208E+03  0.12500000000E+03 0.  0.
</event>
<event>
 5    0  0.6804191E-005  0.3517916E+03  0.7546771E-02  0.1061882E+00
         21   -1    0    0  502  501  0.00000000000E+00  0.00000000000E+00  0.48147220342E+03  0.48147220342E+03  0.00000000000E+00 0. -1.
         21   -1    0    0  501  502 -0.00000000000E+00 -0.00000000000E+00 -0.25703939054E+03  0.25703939054E+03  0.00000000000E+00 0. -1.
         25    1    1    2    0    0 -0.10023831105E+03 -0.48219666599E+02  0.23885440047E+03  0.29163209678E+03  0.12500000000E+03 0.  0.
         25    1    1    2    0    0 -0.48845191862E+02 -0.11765271762E+03 -0.57716789407E+02  0.18757463184E+03  0.12500000000E+03 0.  0.
         25    1    1    2    0    0  0.14908350291E+03  0.16587238422E+03  0.43295201814E+02  0.25930486534E+03  0.12500000000E+03 0.  0.
</event>
<event>
 5    0  0.5748694E-005  0.3314249E+03  0.7546771E-02  0.1070508E+00
         21   -1    0    0  502  501  0.00000000000E+00  0.00000000000E+00  0.12224196209E+03  0.12224196209E+03  0.00000000000E+00 0. -1.
         21   -1    0    0  501  502 -0.00000000000E+00 -0.00000000000E+00 -0.89856591603E+03  0.89856591603E+03  0.00000000000E+00 0. -1.
         25    1    1    2    0    0 -0.10212258890E+03  0.50730415180E+01 -0.27265667221E+03  0.31689338872E+03  0.12500000000E+03 0.  0.
         25    1    1    2    0    0 -0.10298099857E+03  0.28831154469E+02 -0.23793705436E+02  0.16621510747E+03  0.12500000000E+03 0.  0.
         25    1    1    2    0    0  0.20510358747E+03 -0.33904195987E+02 -0.47987357630E+03  0.53769938193E+03  0.12500000000E+03 0.  0.
</event>
<event>
 5    0  0.5720942E-005  0.2368924E+03  0.7546771E-02  0.1121881E+00
         21   -1    0    0  502  501  0.00000000000E+00  0.00000000000E+00  0.21945620196E+03  0.21945620196E+03  0.00000000000E+00 0.  1.
         21   -1    0    0  501  502 -0.00000000000E+00 -0.00000000000E+00 -0.25571389275E+03  0.25571389275E+03  0.00000000000E+00 0.  1.
         25    1    1    2    0    0  0.27396893502E+02  0.32644691462E+02 -0.59075262609E+01  0.13219744521E+03  0.12500000000E+03 0.  0.
         25    1    1    2    0    0 -0.36606029919E+02 -0.10869960629E+02 -0.12773964245E+03  0.18275823845E+03  0.12500000000E+03 0.  0.
         25    1    1    2    0    0  0.92091364170E+01 -0.21774730833E+02  0.97389477915E+02  0.16021441104E+03  0.12500000000E+03 0.  0.
</event>
<event>
 5    0  0.5720942E-005  0.4299639E+03  0.7546771E-02  0.1033871E+00
         21   -1    0    0  502  501  0.00000000000E+00  0.00000000000E+00  0.71361370721E+02  0.71361370721E+02  0.00000000000E+00 0.  1.
         21   -1    0    0  501  502 -0.00000000000E+00 -0.00000000000E+00 -0.25906028027E+04  0.25906028027E+04  0.00000000000E+00 0.  1.
         25    1    1    2    0    0  0.86931594617E+02  0.22435343205E+03 -0.16069452916E+04  0.16296593923E+04  0.12500000000E+03 0.  0.
         25    1    1    2    0    0 -0.14619842149E+03 -0.15297803545E+02 -0.20328436064E+03  0.28028116690E+03  0.12500000000E+03 0.  0.
         25    1    1    2    0    0  0.59266826871E+02 -0.20905562851E+03 -0.70901177970E+03  0.75202361421E+03  0.12500000000E+03 0.  0.
</event>
<event>
 5    0  0.6083552E-005  0.2921202E+03  0.7546771E-02  0.1089247E+00
         21   -1    0    0  502  501  0.00000000000E+00  0.00000000000E+00  0.47623249611E+03  0.47623249611E+03  0.00000000000E+00 0. -1.
         21   -1    0    0  501  502 -0.00000000000E+00 -0.00000000000E+00 -0.17918605232E+03  0.17918605232E+03  0.00000000000E+00 0. -1.
         25    1    1    2    0    0 -0.84622127939E+02  0.12429124488E+01  0.30441517013E+03  0.33978823578E+03  0.12500000000E+03 0.  0.
         25    1    1    2    0    0  0.78402314063E+02  0.52381505244E+02  0.54883186299E+02  0.16591536722E+03  0.12500000000E+03 0.  0.
         25    1    1    2    0    0  0.62198138756E+01 -0.53624417693E+02 -0.62251912633E+02  0.14971494543E+03  0.12500000000E+03 0.  0.
</event>
<event>
 5    0  0.6557755E-005  0.2944953E+03  0.7546771E-02  0.1088025E+00
         21   -1    0    0  502  501  0.00000000000E+00  0.00000000000E+00  0.43732510217E+03  0.43732510217E+03  0.00000000000E+00 0.  1.
         21   -1    0    0  501  502 -0.00000000000E+00 -0.00000000000E+00 -0.19831350773E+03  0.19831350773E+03  0.00000000000E+00 0.  1.
         25    1    1    2    0    0 -0.11459967550E+03  0.14205094974E+03  0.17695497976E+03  0.28328364373E+03  0.12500000000E+03 0.  0.
         25    1    1    2    0    0  0.11985294627E+03 -0.35968709360E+02 -0.30017529635E+00  0.17687161131E+03  0.12500000000E+03 0.  0.
         25    1    1    2    0    0 -0.52532707674E+01 -0.10608224038E+03  0.62356789980E+02  0.17548335486E+03  0.12500000000E+03 0.  0.
</event>
<event>
 5    0  0.5720942E-005  0.3391375E+03  0.7546771E-02  0.1067164E+00
         21   -1    0    0  502  501  0.00000000000E+00  0.00000000000E+00  0.47057414467E+03  0.47057414467E+03  0.00000000000E+00 0.  1.
         21   -1    0    0  501  502 -0.00000000000E+00 -0.00000000000E+00 -0.24441259278E+03  0.24441259278E+03  0.00000000000E+00 0.  1.
         25    1    1    2    0    0 -0.18327395230E+02  0.20782351570E+03  0.26278256889E+03  0.35805891360E+03  0.12500000000E+03 0.  0.
         25    1    1    2    0    0 -0.20691177808E+02 -0.15333513105E+03  0.28355956756E+02  0.20092000283E+03  0.12500000000E+03 0.  0.
         25    1    1    2    0    0  0.39018573038E+02 -0.54488384655E+02 -0.64976973755E+02  0.15600782103E+03  0.12500000000E+03 0.  0.
</event>
<event>
 5    0  0.5720942E-005  0.3588639E+03  0.7546771E-02  0.1059035E+00
         21   -1    0    0  502  501  0.00000000000E+00  0.00000000000E+00  0.23714825498E+03  0.23714825498E+03  0.00000000000E+00 0. -1.
         21   -1    0    0  501  502 -0.00000000000E+00 -0.00000000000E+00 -0.54304963307E+03  0.54304963307E+03  0.00000000000E+00 0. -1.
         25    1    1    2    0    0  0.21393819361E+03 -0.95918901562E+02 -0.13906476643E+03  0.29988997253E+03  0.12500000000E+03 0.  0.
         25    1    1    2    0    0 -0.18332870183E+03 -0.76215465295E+02 -0.72198614956E+02  0.24547067048E+03  0.12500000000E+03 0.  0.
         25    1    1    2    0    0 -0.30609491784E+02  0.17213436686E+03 -0.94637996702E+02  0.23483724505E+03  0.12500000000E+03 0.  0.
</event>
<event>
 5    0  0.5720942E-005  0.2593217E+03  0.7546771E-02  0.1107551E+00
         21   -1    0    0  502  501  0.00000000000E+00  0.00000000000E+00  0.14056915041E+03  0.14056915041E+03  0.00000000000E+00 0.  1.
         21   -1    0    0  501  502 -0.00000000000E+00 -0.00000000000E+00 -0.47839610364E+03  0.47839610364E+03  0.00000000000E+00 0.  1.
         25    1    1    2    0    0  0.51408688750E+02 -0.31988771088E+02  0.39979675535E+01  0.13895005757E+03  0.12500000000E+03 0.  0.
         25    1    1    2    0    0 -0.87776435947E+02  0.47934100268E+02 -0.30390043331E+03  0.34348632294E+03  0.12500000000E+03 0.  0.
         25    1    1    2    0    0  0.36367747197E+02 -0.15945329180E+02 -0.37924487472E+02  0.13652887354E+03  0.12500000000E+03 0.  0.
</event>
<event>
 5    0  0.5720942E-005  0.3387723E+03  0.7546771E-02  0.1067320E+00
         21   -1    0    0  502  501  0.00000000000E+00  0.00000000000E+00  0.96687688529E+03  0.96687688529E+03  0.00000000000E+00 0.  1.
         21   -1    0    0  501  502 -0.00000000000E+00 -0.00000000000E+00 -0.11869831912E+03  0.11869831912E+03  0.00000000000E+00 0.  1.
         25    1    1    2    0    0  0.82679474461E+02 -0.11702977639E+03  0.91055945064E+02  0.21082705991E+03  0.12500000000E+03 0.  0.
         25    1    1    2    0    0  0.12107597514E+03  0.69897664236E+02  0.25395266846E+03  0.31569294107E+03  0.12500000000E+03 0.  0.
         25    1    1    2    0    0 -0.20375544960E+03  0.47132112156E+02  0.50316995264E+03  0.55905520343E+03  0.12500000000E+03 0.  0.
</event>
<event>
 5    0  0.5720942E-005  0.3618393E+03  0.7546771E-02  0.1057858E+00
         21   -1    0    0  502  501  0.00000000000E+00  0.00000000000E+00  0.21138086775E+03  0.21138086775E+03  0.00000000000E+00 0.  1.
         21   -1    0    0  501  502 -0.00000000000E+00 -0.00000000000E+00 -0.61939226693E+03  0.61939226693E+03  0.00000000000E+00 0.  1.
         25    1    1    2    0    0  0.11736698144E+03  0.21142451088E+03 -0.46808981788E+02  0.27620900223E+03  0.12500000000E+03 0.  0.
         25    1    1    2    0    0 -0.98694703668E+02 -0.90765792615E+02 -0.32938028283E+03  0.37695549387E+03  0.12500000000E+03 0.  0.
         25    1    1    2    0    0 -0.18672277775E+02 -0.12065871827E+03 -0.31822134563E+02  0.17760863858E+03  0.12500000000E+03 0.  0.
</event>
<event>
 5    0  0.6058592E-005  0.3924458E+03  0.7546771E-02  0.1046427E+00
         21   -1    0    0  502  501  0.00000000000E+00  0.00000000000E+00  0.76014899924E+03  0.76014899924E+03  0.00000000000E+00 0. -1.
         21   -1    0    0  501  502 -0.00000000000E+00 -0.00000000000E+00 -0.20260986202E+03  0.20260986202E+03  0.00000000000E+00 0. -1.
         25    1    1    2    0    0  0.27948777894E+02 -0.15706749641E+03  0.28587752135E+03  0.35043157653E+03  0.12500000000E+03 0.  0.
         25    1    1    2    0    0  0.43484814896E+01  0.25247734863E+03  0.33676956285E+03  0.43909276847E+03  0.12500000000E+03 0.  0.
         25    1    1    2    0    0 -0.32297259384E+02 -0.95409852216E+02 -0.65107946987E+02  0.17323451626E+03  0.12500000000E+03 0.  0.
</event>
<event>
 5    0  0.5720942E-005  0.2995970E+03  0.7546771E-02  0.1085442E+00
         21   -1    0    0  502  501  0.00000000000E+00  0.00000000000E+00  0.54564420715E+03  0.54564420715E+03  0.00000000000E+00 0.  1.
         21   -1    0    0  501  502 -0.00000000000E+00 -0.00000000000E+00 -0.16449976128E+03  0.16449976128E+03  0.00000000000E+00 0.  1.
         25    1    1    2    0    0  0.41693142289E+02  0.15320378267E+03  0.29481570474E+03  0.35742274256E+03  0.12500000000E+03 0.  0.
         25    1    1    2    0    0 -0.35326697212E+02  0.59653001901E+01  0.74563761586E+02  0.14989434574E+03  0.12500000000E+03 0.  0.
         25    1    1    2    0    0 -0.63664450764E+01 -0.15916908286E+03  0.11764979540E+02  0.20282688013E+03  0.12500000000E+03 0.  0.
</event>
<event>
 5    0  0.5720942E-005  0.4189020E+03  0.7546771E-02  0.1037424E+00
         21   -1    0    0  502  501  0.00000000000E+00  0.00000000000E+00  0.44729231056E+03  0.44729231056E+03  0.00000000000E+00 0. -1.
         21   -1    0    0  501  502 -0.00000000000E+00 -0.00000000000E+00 -0.39231371611E+03  0.39231371611E+03  0.00000000000E+00 0. -1.
         25    1    1    2    0    0 -0.23145926504E+03 -0.81294563920E+02 -0.33966159392E+01  0.27535201923E+03  0.12500000000E+03 0.  0.
         25    1    1    2    0    0 -0.96089273392E+02 -0.17456575173E+01  0.12075682603E+03  0.19860364250E+03  0.12500000000E+03 0.  0.
         25    1    1    2    0    0  0.32754853843E+03  0.83040221437E+02 -0.62381615641E+02  0.36565036493E+03  0.12500000000E+03 0.  0.
</event>
<event>
 5    0  0.5720942E-005  0.3199915E+03  0.7546771E-02  0.1075653E+00
         21   -1    0    0  502  501  0.00000000000E+00  0.00000000000E+00  0.16039369969E+03  0.16039369969E+03  0.00000000000E+00 0. -1.
         21   -1    0    0  501  502 -0.00000000000E+00 -0.00000000000E+00 -0.63839523516E+03  0.63839523516E+03  0.00000000000E+00 0. -1.
         25    1    1    2    0    0 -0.52956145490E+02  0.33050351845E+02 -0.37234869777E+03  0.39769992687E+03  0.12500000000E+03 0.  0.
         25    1    1    2    0    0  0.91202211409E+02  0.74971618007E+02  0.41149162045E+02  0.17679604184E+03  0.12500000000E+03 0.  0.
         25    1    1    2    0    0 -0.38246065920E+02 -0.10802196985E+03 -0.14680199975E+03  0.22429296614E+03  0.12500000000E+03 0.  0.
</event>
<event>
 5    0  0.5720942E-005  0.2105122E+03  0.7546771E-02  0.1141161E+00
         21   -1    0    0  502  501  0.00000000000E+00  0.00000000000E+00  0.53204383514E+02  0.53204383514E+02  0.00000000000E+00 0.  1.
         21   -1    0    0  501  502 -0.00000000000E+00 -0.00000000000E+00 -0.83292750692E+03  0.83292750692E+03  0.00000000000E+00 0.  1.
         25    1    1    2    0    0 -0.26595630124E+02  0.53377043758E+02 -0.30683372037E+03  0.33664279036E+03  0.12500000000E+03 0.  0.
         25    1    1    2    0    0  0.38199741891E+02 -0.60478833949E+02 -0.32428014365E+03  0.35482322529E+03  0.12500000000E+03 0.  0.
         25    1    1    2    0    0 -0.11604111767E+02  0.71017901907E+01 -0.14860925939E+03  0.19466587479E+03  0.12500000000E+03 0.  0.
</event>
<event>
 5    0  0.5720942E-005  0.3107977E+03  0.7546771E-02  0.1079964E+00
         21   -1    0    0  502  501  0.00000000000E+00  0.00000000000E+00  0.13681980756E+03  0.13681980756E+03  0.00000000000E+00 0.  1.
         21   -1    0    0  501  502 -0.00000000000E+00 -0.00000000000E+00 -0.70600302140E+03  0.70600302140E+03  0.00000000000E+00 0.  1.
         25    1    1    2    0    0 -0.11132493417E+03  0.48065368901E+02 -0.70251378710E+02  0.18778651939E+03  0.12500000000E+03 0.  0.
         25    1    1    2    0    0  0.76978727563E+02 -0.73121355158E+02 -0.28544015715E+02  0.16646987088E+03  0.12500000000E+03 0.  0.
         25    1    1    2    0    0  0.34346206604E+02  0.25055986257E+02 -0.47038781942E+03  0.48856643869E+03  0.12500000000E+03 0.  0.
</event>
<event>
 5    0  0.5720942E-005  0.2885359E+03  0.7546771E-02  0.1091116E+00
         21   -1    0    0  502  501  0.00000000000E+00  0.00000000000E+00  0.10695159915E+04  0.10695159915E+04  0.00000000000E+00 0. -1.
         21   -1    0    0  501  502 -0.00000000000E+00 -0.00000000000E+00 -0.77841734267E+02  0.77841734267E+02  0.00000000000E+00 0. -1.
         25    1    1    2    0    0  0.17405975885E+02  0.55575773651E+02  0.39596406057E+02  0.14347302878E+03  0.12500000000E+03 0.  0.
         25    1    1    2    0    0 -0.55609661176E+02 -0.83865616593E+02  0.32199953398E+03  0.35977017100E+03  0.12500000000E+03 0.  0.
         25    1    1    2    0    0  0.38203685291E+02  0.28289842942E+02  0.63007831720E+03  0.64411452598E+03  0.12500000000E+03 0.  0.
</event>
<event>
 5    0  0.5720942E-005  0.3833364E+03  0.7546771E-02  0.1049707E+00
         21   -1    0    0  502  501  0.00000000000E+00  0.00000000000E+00  0.10733648738E+04  0.10733648738E+04  0.00000000000E+00 0.  1.
         21   -1    0    0  501  502 -0.00000000000E+00 -0.00000000000E+00 -0.13690295771E+03  0.13690295771E+03  0.00000000000E+00 0.  1.
         25    1    1    2    0    0  0.14614574578E+02  0.31217551356E+02  0.75673357421E+02  0.15013186979E+03  0.12500000000E+03 0.  0.
         25    1    1    2    0    0  0.82315098663E+02 -0.20602149511E+03  0.11767241509E+03  0.28052170894E+03  0.12500000000E+03 0.  0.
         25    1    1    2    0    0 -0.96929673242E+02  0.17480394375E+03  0.74311614356E+03  0.77961425277E+03  0.12500000000E+03 0.  0.
</event>
<event>
 5    0  0.5720942E-005  0.2363068E+03  0.7546771E-02  0.1122278E+00
         21   -1    0    0  502  501  0.00000000000E+00  0.00000000000E+00  0.30619800252E+03  0.30619800252E+03  0.00000000000E+00 0.  1.
         21   -1    0    0  501  502 -0.00000000000E+00 -0.00000000000E+00 -0.18236856552E+03  0.18236856552E+03  0.00000000000E+00 0.  1.
         25    1    1    2    0    0 -0.13965435334E+02 -0.24334654674E+02  0.36209281990E+02  0.13312896343E+03  0.12500000000E+03 0.  0.
         25    1    1    2    0    0  0.10008981497E+03 -0.57685308218E+02  0.61263662930E+02  0.18089721457E+03  0.12500000000E+03 0.  0.
         25    1    1    2    0    0 -0.86124379633E+02  0.82019962892E+02  0.26356492087E+02  0.17454039004E+03  0.12500000000E+03 0.  0.
</event>
<event>
 5    0  0.5720942E-005  0.2063796E+03  0.7546771E-02  0.1144465E+00
         21   -1    0    0  502  501  0.00000000000E+00  0.00000000000E+00  0.17703502750E+03  0.17703502750E+03  0.00000000000E+00 0.  1.
         21   -1    0    0  501  502 -0.00000000000E+00 -0.00000000000E+00 -0.24058812764E+03  0.24058812764E+03  0.00000000000E+00 0.  1.
         25    1    1    2    0    0 -0.68801753295E+02 -0.12798237609E+02 -0.29068896488E+02  0.14617618440E+03  0.12500000000E+03 0.  0.
         25    1    1    2    0    0  0.19301843067E+02  0.13341283855E+02  0.15257496686E+02  0.12809505145E+03  0.12500000000E+03 0.  0.
         25    1    1    2    0    0  0.49499910228E+02 -0.54304624543E+00 -0.49741700342E+02  0.14335191929E+03  0.12500000000E+03 0.  0.
</event>
<event>
 5    0  0.6282624E-005  0.3239375E+03  0.7546771E-02  0.1073851E+00
         21   -1    0    0  502  501  0.00000000000E+00  0.00000000000E+00  0.33938494228E+03  0.33938494228E+03  0.00000000000E+00 0. -1.
         21   -1    0    0  501  502 -0.00000000000E+00 -0.00000000000E+00 -0.30919308703E+03  0.30919308703E+03  0.00000000000E+00 0. -1.
         25    1    1    2    0    0 -0.54222559358E+02 -0.88895187726E+02 -0.45891493661E+02  0.16903688809E+03  0.12500000000E+03 0.  0.
         25    1    1    2    0    0  0.95902001212E+02 -0.12712362486E+02 -0.13701134590E+03  0.20917912635E+03  0.12500000000E+03 0.  0.
         25    1    1    2    0    0 -0.41679441854E+02  0.10160755021E+03  0.21309469480E+03  0.27036201487E+03  0.12500000000E+03 0.  0.
</event>
<event>
 5    0  0.5720942E-005  0.2645520E+03  0.7546771E-02  0.1104439E+00
         21   -1    0    0  502  501  0.00000000000E+00  0.00000000000E+00  0.56821552824E+03  0.56821552824E+03  0.00000000000E+00 0. -1.
         21   -1    0    0  501  502 -0.00000000000E+00 -0.00000000000E+00 -0.12317111938E+03  0.12317111938E+03  0.00000000000E+00 0. -1.
         25    1    1    2    0    0  0.33426599628E+01  0.14401410963E+03  0.13298822742E+03  0.23251259273E+03  0.12500000000E+03 0.  0.
         25    1    1    2    0    0 -0.79620534703E+02 -0.10846891468E+03  0.14583024800E+03  0.23451310460E+03  0.12500000000E+03 0.  0.
         25    1    1    2    0    0  0.76277874740E+02 -0.35545194951E+02  0.16622593345E+03  0.22436095028E+03  0.12500000000E+03 0.  0.
</event>
<event>
 5    0  0.5720942E-005  0.2235538E+03  0.7546771E-02  0.1131261E+00
         21   -1    0    0  502  501  0.00000000000E+00  0.00000000000E+00  0.19216105276E+03  0.19216105276E+03  0.00000000000E+00 0. -1.
         21   -1    0    0  501  502 -0.00000000000E+00 -0.00000000000E+00 -0.26007515630E+03  0.26007515630E+03  0.00000000000E+00 0. -1.
         25    1    1    2    0    0 -0.65345260029E+02  0.97995899915E+01  0.18105678118E+02  0.14254420561E+03  0.12500000000E+03 0.  0.
         25    1    1    2    0    0  0.24587237708E+02 -0.77930537627E+02 -0.39517735433E+02  0.15448091263E+03  0.12500000000E+03 0.  0.
         25    1    1    2    0    0  0.40758022321E+02  0.68130947636E+02 -0.46502046226E+02  0.15521109082E+03  0.12500000000E+03 0.  0.
</event>
<event>
 5    0  0.5720942E-005  0.3675920E+03  0.7546771E-02  0.1055618E+00
         21   -1    0    0  502  501  0.00000000000E+00  0.00000000000E+00  0.13151583911E+04  0.13151583911E+04  0.00000000000E+00 0.  1.
         21   -1    0    0  501  502 -0.00000000000E+00 -0.00000000000E+00 -0.10274343955E+03  0.10274343955E+03  0.00000000000E+00 0.  1.
         25    1    1    2    0    0 -0.32470866999E+02  0.75103360393E+02  0.29712317600E+03  0.33256887056E+03  0.12500000000E+03 0.  0.
         25    1    1    2    0    0 -0.29540835864E+02 -0.28661929105E+02  0.92840629955E+03  0.93768727420E+03  0.12500000000E+03 0.  0.
         25    1    1    2    0    0  0.62011702863E+02 -0.46441431288E+02 -0.13114523977E+02  0.14764568592E+03  0.12500000000E+03 0.  0.
</event>
<event>
 5    0  0.5720942E-005  0.2600430E+03  0.7546771E-02  0.1107117E+00
         21   -1    0    0  502  501  0.00000000000E+00  0.00000000000E+00  0.13666965186E+03  0.13666965186E+03  0.00000000000E+00 0. -1.
         21   -1    0    0  501  502 -0.00000000000E+00 -0.00000000000E+00 -0.49478685641E+03  0.49478685641E+03  0.00000000000E+00 0. -1.
         25    1    1    2    0    0  0.77413708423E+01  0.46324627257E+02  0.26605760998E+02  0.13615713875E+03  0.12500000000E+03 0.  0.
         25    1    1    2    0    0  0.33235145180E+02 -0.78662896131E+02 -0.10419334624E+03  0.18377616685E+03  0.12500000000E+03 0.  0.
         25    1    1    2    0    0 -0.40976516022E+02  0.32338268874E+02 -0.28052961930E+03  0.31152320267E+03  0.12500000000E+03 0.  0.
</event>
<event>
 5    0  0.5720942E-005  0.2595159E+03  0.7546771E-02  0.1107434E+00
         21   -1    0    0  502  501  0.00000000000E+00  0.00000000000E+00  0.22460060091E+03  0.22460060091E+03  0.00000000000E+00 0. -1.
         21   -1    0    0  501  502 -0.00000000000E+00 -0.00000000000E+00 -0.29985906393E+03  0.29985906393E+03  0.00000000000E+00 0. -1.
         25    1    1    2    0    0 -0.99192499978E+01  0.37236782249E+02  0.51019026327E+02  0.14040267277E+03  0.12500000000E+03 0.  0.
         25    1    1    2    0    0 -0.76120825731E+02  0.43923160841E+02 -0.14537773160E+03  0.21091066596E+03  0.12500000000E+03 0.  0.
         25    1    1    2    0    0  0.86040075728E+02 -0.81159943090E+02  0.19100242249E+02  0.17314632612E+03  0.12500000000E+03 0.  0.
</event>
<event>
 5    0  0.5720942E-005  0.2847413E+03  0.7546771E-02  0.1093127E+00
         21   -1    0    0  502  501  0.00000000000E+00  0.00000000000E+00  0.56311480286E+02  0.56311480286E+02  0.00000000000E+00 0. -1.
         21   -1    0    0  501  502 -0.00000000000E+00 -0.00000000000E+00 -0.14398064265E+04  0.14398064265E+04  0.00000000000E+00 0. -1.
         25    1    1    2    0    0  0.73340974809E+00  0.90846198176E+02 -0.24153406140E+03  0.28673554441E+03  0.12500000000E+03 0.  0.
         25    1    1    2    0    0  0.93927043821E+01 -0.68784131607E+02 -0.14258910234E+03  0.20193100743E+03  0.12500000000E+03 0.  0.
         25    1    1    2    0    0 -0.10126114130E+02 -0.22062066569E+02 -0.99937178244E+03  0.10074513549E+04  0.12500000000E+03 0.  0.
</event>
<event>
 5    0  0.5720942E-005  0.3380255E+03  0.7546771E-02  0.1067640E+00
         21   -1    0    0  502  501  0.00000000000E+00  0.00000000000E+00  0.66030630000E+03  0.66030630000E+03  0.00000000000E+00 0. -1.
         21   -1    0    0  501  502 -0.00000000000E+00 -0.00000000000E+00 -0.17304278074E+03  0.17304278074E+03  0.00000000000E+00 0. -1.
         25    1    1    2    0    0  0.35943343022E+02 -0.12191994312E+03 -0.28073553580E+02  0.18047027691E+03  0.12500000000E+03 0.  0.
         25    1    1    2    0    0  0.32213765244E+00  0.19620538193E+03  0.21292425108E+03  0.31537024649E+03  0.12500000000E+03 0.  0.
         25    1    1    2    0    0 -0.36265480675E+02 -0.74285438814E+02  0.30241282176E+03  0.33750855734E+03  0.12500000000E+03 0.  0.
</event>
<event>
 5    0  0.5720942E-005  0.2997049E+03  0.7546771E-02  0.1085388E+00
         21   -1    0    0  502  501  0.00000000000E+00  0.00000000000E+00  0.26227468303E+03  0.26227468303E+03  0.00000000000E+00 0.  1.
         21   -1    0    0  501  502 -0.00000000000E+00 -0.00000000000E+00 -0.34247689510E+03  0.34247689510E+03  0.00000000000E+00 0.  1.
         25    1    1    2    0    0 -0.25561717410E+02 -0.12591485942E+03  0.98057827433E+02  0.20432398474E+03  0.12500000000E+03 0.  0.
         25    1    1    2    0    0 -0.80790810645E+02  0.10825819804E+03 -0.13931777638E+03  0.23082771788E+03  0.12500000000E+03 0.  0.
         25    1    1    2    0    0  0.10635252805E+03  0.17656661378E+02 -0.38942263121E+02  0.16959987551E+03  0.12500000000E+03 0.  0.
</event>
<event>
 5    0  0.5720942E-005  0.4946520E+03  0.7546771E-02  0.1015184E+00
         21   -1    0    0  502  501  0.00000000000E+00  0.00000000000E+00  0.91591906665E+03  0.91591906665E+03  0.00000000000E+00 0.  1.
         21   -1    0    0  501  502 -0.00000000000E+00 -0.00000000000E+00 -0.26714219482E+03  0.26714219482E+03  0.00000000000E+00 0.  1.
         25    1    1    2    0    0 -0.41757142428E+02  0.10692249011E+03  0.18390347394E+03  0.25024301301E+03  0.12500000000E+03 0.  0.
         25    1    1    2    0    0  0.10915004648E+03  0.97911560796E+02  0.61321124900E+03  0.64277013177E+03  0.12500000000E+03 0.  0.
         25    1    1    2    0    0 -0.67392904056E+02 -0.20483405090E+03 -0.14833785111E+03  0.29004811670E+03  0.12500000000E+03 0.  0.
</event>
<event>
 5    0  0.5720942E-005  0.2434631E+03  0.7546771E-02  0.1117507E+00
         21   -1    0    0  502  501  0.00000000000E+00  0.00000000000E+00  0.71174287460E+03  0.71174287460E+03  0.00000000000E+00 0. -1.
         21   -1    0    0  501  502 -0.00000000000E+00 -0.00000000000E+00 -0.83280441552E+02  0.83280441552E+02  0.00000000000E+00 0. -1.
         25    1    1    2    0    0 -0.65715171205E+02 -0.31572023615E+02  0.40201113831E+03  0.42726248575E+03  0.12500000000E+03 0.  0.
         25    1    1    2    0    0  0.76945344384E+02  0.37066523153E+02  0.17659512838E+03  0.23260557287E+03  0.12500000000E+03 0.  0.
         25    1    1    2    0    0 -0.11230173179E+02 -0.54944995376E+01  0.49856166351E+02  0.13515525753E+03  0.12500000000E+03 0.  0.
</event>
<event>
 5    0  0.5720942E-005  0.2459089E+03  0.7546771E-02  0.1115918E+00
         21   -1    0    0  502  501  0.00000000000E+00  0.00000000000E+00  0.52401968998E+03  0.52401968998E+03  0.00000000000E+00 0. -1.
         21   -1    0    0  501  502 -0.00000000000E+00 -0.00000000000E+00 -0.11539869047E+03  0.11539869047E+03  0.00000000000E+00 0. -1.
         25    1    1    2    0    0  0.81193061680E+02  0.87805778873E+01  0.23355502761E+03  0.27720455035E+03  0.12500000000E+03 0.  0.
         25    1    1    2    0    0 -0.82211844307E+01 -0.38634598499E+02 -0.25968155744E+01  0.13111812814E+03  0.12500000000E+03 0.  0.
         25    1    1    2    0    0 -0.72971877249E+02  0.29854020612E+02  0.17766278747E+03  0.23109570197E+03  0.12500000000E+03 0.  0.
</event>
<event>
 5    0  0.5720942E-005  0.3393870E+03  0.7546771E-02  0.1067057E+00
         21   -1    0    0  502  501  0.00000000000E+00  0.00000000000E+00  0.17714147617E+04  0.17714147617E+04  0.00000000000E+00 0.  1.
         21   -1    0    0  501  502 -0.00000000000E+00 -0.00000000000E+00 -0.65023473167E+02  0.65023473167E+02  0.00000000000E+00 0.  1.
         25    1    1    2    0    0  0.76471936618E+02 -0.38344313618E+02  0.19780146633E+03  0.24913583355E+03  0.12500000000E+03 0.  0.
         25    1    1    2    0    0 -0.11779419371E+03 -0.23338976261E+02  0.17678174414E+03  0.24758223876E+03  0.12500000000E+03 0.  0.
         25    1    1    2    0    0  0.41322257094E+02  0.61683289879E+02  0.13318080780E+04  0.13397201625E+04  0.12500000000E+03 0.  0.
</event>
<event>
 5    0  0.5720942E-005  0.3823270E+03  0.7546771E-02  0.1050077E+00
         21   -1    0    0  502  501  0.00000000000E+00  0.00000000000E+00  0.12820269992E+04  0.12820269992E+04  0.00000000000E+00 0.  1.
         21   -1    0    0  501  502 -0.00000000000E+00 -0.00000000000E+00 -0.11401783096E+03  0.11401783096E+03  0.00000000000E+00 0.  1.
         25    1    1    2    0    0  0.18591240231E+03  0.40881900383E+02  0.42007342310E+03  0.47782991943E+03  0.12500000000E+03 0.  0.
         25    1    1    2    0    0 -0.91455454168E+02 -0.17355659671E+03  0.12873105407E+03  0.26586213841E+03  0.12500000000E+03 0.  0.
         25    1    1    2    0    0 -0.94456948140E+02  0.13267469633E+03  0.61920469107E+03  0.65235277231E+03  0.12500000000E+03 0.  0.
</event>
<event>
 5    0  0.5720942E-005  0.6155234E+03  0.7546771E-02  0.9873713E-01
         21   -1    0    0  502  501  0.00000000000E+00  0.00000000000E+00  0.72234799010E+03  0.72234799010E+03  0.00000000000E+00 0. -1.
         21   -1    0    0  501  502 -0.00000000000E+00 -0.00000000000E+00 -0.52449651156E+03  0.52449651156E+03  0.00000000000E+00 0. -1.
         25    1    1    2    0    0 -0.19217687458E+02  0.30981748651E+02  0.65914123546E+02  0.14594128937E+03  0.12500000000E+03 0.  0.
         25    1    1    2    0    0 -0.28234202328E+03 -0.43439692266E+03 -0.82671499971E+02  0.53933040099E+03  0.12500000000E+03 0.  0.
         25    1    1    2    0    0  0.30155971074E+03  0.40341517400E+03  0.21460885496E+03  0.56157281130E+03  0.12500000000E+03 0.  0.
</event>
<event>
 5    0  0.5720942E-005  0.4281484E+03  0.7546771E-02  0.1034446E+00
         21   -1    0    0  502  501  0.00000000000E+00  0.00000000000E+00  0.20532993696E+03  0.20532993696E+03  0.00000000000E+00 0.  1.
         21   -1    0    0  501  502 -0.00000000000E+00 -0.00000000000E+00 -0.89276334264E+03  0.89276334264E+03  0.00000000000E+00 0.  1.
         25    1    1    2    0    0  0.23340157469E+03 -0.25878276096E+03 -0.19335639329E+03  0.41767991005E+03  0.12500000000E+03 0.  0.
         25    1    1    2    0    0 -0.16975490926E+03  0.50631594883E+02 -0.23033298380E+03  0.31632036141E+03  0.12500000000E+03 0.  0.
         25    1    1    2    0    0 -0.63646665426E+02  0.20815116607E+03 -0.26374402859E+03  0.36409300814E+03  0.12500000000E+03 0.  0.
</event>
<event>
 5    0  0.5720942E-005  0.2793873E+03  0.7546771E-02  0.1096024E+00
         21   -1    0    0  502  501  0.00000000000E+00  0.00000000000E+00  0.13702072080E+03  0.13702072080E+03  0.00000000000E+00 0. -1.
         21   -1    0    0  501  502 -0.00000000000E+00 -0.00000000000E+00 -0.56967505752E+03  0.56967505752E+03  0.00000000000E+00 0. -1.
         25    1    1    2    0    0 -0.18150876767E+02 -0.12656666582E+03 -0.91602927920E+02  0.20090961059E+03  0.12500000000E+03 0.  0.
         25    1    1    2    0    0  0.11709549675E+03  0.11134201672E+03 -0.13519058747E+03  0.24496917150E+03  0.12500000000E+03 0.  0.
         25    1    1    2    0    0 -0.98944619981E+02  0.15224649101E+02 -0.20586082133E+03  0.26081699623E+03  0.12500000000E+03 0.  0.
</event>
<event>
 5    0  0.5720942E-005  0.2191251E+03  0.7546771E-02  0.1134537E+00
         21   -1    0    0  502  501  0.00000000000E+00  0.00000000000E+00  0.25498840868E+03  0.25498840868E+03  0.00000000000E+00 0.  1.
         21   -1    0    0  501  502 -0.00000000000E+00 -0.00000000000E+00 -0.18830580087E+03  0.18830580087E+03  0.00000000000E+00 0.  1.
         25    1    1    2    0    0  0.38891261328E+02 -0.35077965479E+02  0.22959504334E+02  0.13745956754E+03  0.12500000000E+03 0.  0.
         25    1    1    2    0    0  0.57665893364E+01  0.72504712739E+02  0.77172198222E+02  0.16392295477E+03  0.12500000000E+03 0.  0.
         25    1    1    2    0    0 -0.44657850664E+02 -0.37426747261E+02 -0.33449094745E+02  0.14191168724E+03  0.12500000000E+03 0.  0.
</event>
<event>
 5    0  0.5720942E-005  0.2308972E+03  0.7546771E-02  0.1126010E+00
         21   -1    0    0  502  501  0.00000000000E+00  0.00000000000E+00  0.16621326440E+04  0.16621326440E+04  0.00000000000E+00 0.  1.
         21   -1    0    0  501  502 -0.00000000000E+00 -0.00000000000E+00 -0.32075363348E+02  0.32075363348E+02  0.00000000000E+00 0.  1.
         25    1    1    2    0    0 -0.10768006166E+03 -0.27311851599E+02  0.59566866393E+03  0.61869789890E+03  0.12500000000E+03 0.  0.
         25    1    1    2    0    0  0.33357613795E+02  0.31719159609E+02  0.32288150234E+03  0.34927968741E+03  0.12500000000E+03 0.  0.
         25    1    1    2    0    0  0.74322447867E+02 -0.44073080108E+01  0.71150711435E+03  0.72623042101E+03  0.12500000000E+03 0.  0.
</event>
<event>
 5    0  0.5720942E-005  0.3079009E+03  0.7546771E-02  0.1081356E+00
         21   -1    0    0  502  501  0.00000000000E+00  0.00000000000E+00  0.22602089678E+03  0.22602089678E+03  0.00000000000E+00 0.  1.
         21   -1    0    0  501  502 -0.00000000000E+00 -0.00000000000E+00 -0.41944328854E+03  0.41944328854E+03  0.00000000000E+00 0.  1.
         25    1    1    2    0    0  0.19837846983E+03  0.64653932814E+02 -0.15696016661E+03  0.28947476958E+03  0.12500000000E+03 0.  0.
         25    1    1    2    0    0 -0.76616774409E+02 -0.31329734312E+01 -0.78370810572E+02  0.16627365875E+03  0.12500000000E+03 0.  0.
         25    1    1    2    0    0 -0.12176169542E+03 -0.61520959383E+02  0.41908585423E+02  0.18971575698E+03  0.12500000000E+03 0.  0.
</event>
<event>
 5    0  0.5720942E-005  0.3560136E+03  0.7546771E-02  0.1060174E+00
         21   -1    0    0  502  501  0.00000000000E+00  0.00000000000E+00  0.12433412511E+04  0.12433412511E+04  0.00000000000E+00 0. -1.
         21   -1    0    0  501  502 -0.00000000000E+00 -0.00000000000E+00 -0.10193960270E+03  0.10193960270E+03  0.00000000000E+00 0. -1.
         25    1    1    2    0    0  0.16311748182E+03  0.87770392793E+02  0.12521215073E+03  0.25615237148E+03  0.12500000000E+03 0.  0.
         25    1    1    2    0    0 -0.97331552527E+02  0.74836870120E+02  0.49962486364E+03  0.52945631795E+03  0.12500000000E+03 0.  0.
         25    1    1    2    0    0 -0.65785929292E+02 -0.16260726291E+03  0.51656463403E+03  0.55967216437E+03  0.12500000000E+03 0.  0.
</event>
<event>
 5    0  0.5720942E-005  0.2852542E+03  0.7546771E-02  0.1092853E+00
         21   -1    0    0  502  501  0.00000000000E+00  0.00000000000E+00  0.25615640061E+03  0.25615640061E+03  0.00000000000E+00 0.  1.
         21   -1    0    0  501  502 -0.00000000000E+00 -0.00000000000E+00 -0.31765738288E+03  0.31765738288E+03  0.00000000000E+00 0.  1.
         25    1    1    2    0    0 -0.14994079353E+02  0.15562206041E+03 -0.42192420705E+02  0.20456844445E+03  0.12500000000E+03 0.  0.
         25    1    1    2    0    0 -0.91709067458E+02 -0.49751011410E+02  0.34588578183E+02  0.16645445603E+03  0.12500000000E+03 0.  0.
         25    1    1    2    0    0  0.10670314681E+03 -0.10587104900E+03 -0.53897139751E+02  0.20279088300E+03  0.12500000000E+03 0.  0.
</event>
<event>
 5    0  0.5955729E-005  0.3024764E+03  0.7546771E-02  0.1084009E+00
         21   -1    0    0  502  501  0.00000000000E+00  0.00000000000E+00  0.24524360476E+03  0.24524360476E+03  0.00000000000E+00 0.  1.
         21   -1    0    0  501  502 -0.00000000000E+00 -0.00000000000E+00 -0.37306567446E+03  0.37306567446E+03  0.00000000000E+00 0.  1.
         25    1    1    2    0    0  0.62590632034E+01  0.13845520416E+03 -0.82214776507E+02  0.20394432796E+03  0.12500000000E+03 0.  0.
         25    1    1    2    0    0  0.66616065467E+02 -0.15415254938E+02  0.10081886759E+03  0.17454161202E+03  0.12500000000E+03 0.  0.
         25    1    1    2    0    0 -0.72875128670E+02 -0.12303994923E+03 -0.14642616078E+03  0.23982333924E+03  0.12500000000E+03 0.  0.
</event>
<event>
 5    0  0.5720942E-005  0.2672576E+03  0.7546771E-02  0.1102859E+00
         21   -1    0    0  502  501  0.00000000000E+00  0.00000000000E+00  0.20865161215E+04  0.20865161215E+04  0.00000000000E+00 0. -1.
         21   -1    0    0  501  502 -0.00000000000E+00 -0.00000000000E+00 -0.34232488544E+02  0.34232488544E+02  0.00000000000E+00 0. -1.
         25    1    1    2    0    0  0.90425816681E+02  0.28419071895E+02  0.44109173735E+03  0.46815744438E+03  0.12500000000E+03 0.  0.
         25    1    1    2    0    0  0.12521372265E+02  0.19199849241E+02  0.12191645380E+04  0.12257702027E+04  0.12500000000E+03 0.  0.
         25    1    1    2    0    0 -0.10294718895E+03 -0.47618921136E+02  0.39202735761E+03  0.42682096302E+03  0.12500000000E+03 0.  0.
</event>
<event>
 5    0  0.5720942E-005  0.4973324E+03  0.7546771E-02  0.1014478E+00
         21   -1    0    0  502  501  0.00000000000E+00  0.00000000000E+00  0.17052255194E+04  0.17052255194E+04  0.00000000000E+00 0.  1.
         21   -1    0    0  501  502 -0.00000000000E+00 -0.00000000000E+00 -0.14504800117E+03  0.14504800117E+03  0.00000000000E+00 0.  1.
         25    1    1    2    0    0  0.25042856289E+03  0.32609116021E+03  0.58351389481E+03  0.72468156821E+03  0.12500000000E+03 0.  0.
         25    1    1    2    0    0  0.26437065242E+02 -0.10572648766E+03  0.17876317223E+03  0.24384068643E+03  0.12500000000E+03 0.  0.
         25    1    1    2    0    0 -0.27686562813E+03 -0.22036467255E+03  0.79790045116E+03  0.88175126590E+03  0.12500000000E+03 0.  0.
</event>
<event>
 5    0  0.5720942E-005  0.5172488E+03  0.7546771E-02  0.1009372E+00
         21   -1    0    0  502  501  0.00000000000E+00  0.00000000000E+00  0.23128645397E+03  0.23128645397E+03  0.00000000000E+00 0. -1.
         21   -1    0    0  501  502 -0.00000000000E+00 -0.00000000000E+00 -0.11567745308E+04  0.11567745308E+04  0.00000000000E+00 0. -1.
         25    1    1    2    0    0  0.82164851044E+02  0.20629217412E+03 -0.12852694070E+03  0.28539743926E+03  0.12500000000E+03 0.  0.
         25    1    1    2    0    0 -0.23408016492E+03  0.83091684910E+02 -0.56597268116E+02  0.28377103881E+03  0.12500000000E+03 0.  0.
         25    1    1    2    0    0  0.15191531388E+03 -0.28938385903E+03 -0.74036386797E+03  0.81889250666E+03  0.12500000000E+03 0.  0.
</event>
<event>
 5    0  0.5720942E-005  0.3289327E+03  0.7546771E-02  0.1071610E+00
         21   -1    0    0  502  501  0.00000000000E+00  0.00000000000E+00  0.38013253825E+03  0.38013253825E+03  0.00000000000E+00 0. -1.
         21   -1    0    0  501  502 -0.00000000000E+00 -0.00000000000E+00 -0.28462889250E+03  0.28462889250E+03  0.00000000000E+00 0. -1.
         25    1    1    2    0    0  0.85198017373E+02  0.11505462962E+02 -0.73239018014E+02  0.16846373972E+03  0.12500000000E+03 0.  0.
         25    1    1    2    0    0  0.15283844824E+03  0.28421752130E+01  0.69067669463E+02  0.20919610939E+03  0.12500000000E+03 0.  0.
         25    1    1    2    0    0 -0.23803646561E+03 -0.14347638175E+02  0.99674994298E+02  0.28710158163E+03  0.12500000000E+03 0.  0.
</event>
<event>
 5    0  0.5720942E-005  0.3428446E+03  0.7546771E-02  0.1065591E+00
         21   -1    0    0  502  501  0.00000000000E+00  0.00000000000E+00  0.13828013795E+04  0.13828013795E+04  0.00000000000E+00 0.  1.
         21   -1    0    0  501  502 -0.00000000000E+00 -0.00000000000E+00 -0.85003103306E+02  0.85003103306E+02  0.00000000000E+00 0.  1.
         25    1    1    2    0    0 -0.49300206477E+02  0.20014016756E+03  0.39709411985E+03  0.46453776709E+03  0.12500000000E+03 0.  0.
         25    1    1    2    0    0 -0.12207811763E+02 -0.21092169968E+03  0.30564149438E+03  0.39201877142E+03  0.12500000000E+03 0.  0.
         25    1    1    2    0    0  0.61508018239E+02  0.10781532123E+02  0.59506266196E+03  0.61124794429E+03  0.12500000000E+03 0.  0.
</event>
<event>
 5    0  0.5720942E-005  0.2488360E+03  0.7546771E-02  0.1114043E+00
         21   -1    0    0  502  501  0.00000000000E+00  0.00000000000E+00  0.56998488875E+02  0.56998488875E+02  0.00000000000E+00 0. -1.
         21   -1    0    0  501  502 -0.00000000000E+00 -0.00000000000E+00 -0.10863331710E+04  0.10863331710E+04  0.00000000000E+00 0. -1.
         25    1    1    2    0    0  0.48265974354E+02  0.99089294683E+02 -0.20550675273E+03  0.26458707077E+03  0.12500000000E+03 0.  0.
         25    1    1    2    0    0  0.10905837714E+01 -0.11540187603E+03 -0.47704072115E+03  0.50646977403E+03  0.12500000000E+03 0.  0.
         25    1    1    2    0    0 -0.49356558125E+02  0.16312581343E+02 -0.34678720820E+03  0.37227481504E+03  0.12500000000E+03 0.  0.
</event>
<event>
 5    0  0.5720942E-005  0.5142692E+03  0.7546771E-02  0.1010120E+00
         21   -1    0    0  502  501  0.00000000000E+00  0.00000000000E+00  0.19721674713E+04  0.19721674713E+04  0.00000000000E+00 0. -1.
         21   -1    0    0  501  502 -0.00000000000E+00 -0.00000000000E+00 -0.13410259398E+03  0.13410259398E+03  0.00000000000E+00 0.  1.
         25    1    1    2    0    0  0.37388688204E+02 -0.37509219757E+02  0.23036533250E+03  0.26739117785E+03  0.12500000000E+03 0.  0.
         25    1    1    2    0    0 -0.15911827257E+03 -0.28540828577E+03  0.13391178889E+04  0.13840658347E+04  0.12500000000E+03 0.  0.
         25    1    1    2    0    0  0.12172958437E+03  0.32291750553E+03  0.26858165592E+03  0.45481305279E+03  0.12500000000E+03 0.  0.
</event>
<event>
 5    0  0.5720942E-005  0.3309203E+03  0.7546771E-02  0.1070730E+00
         21   -1    0    0  502  501  0.00000000000E+00  0.00000000000E+00  0.21931825552E+03  0.21931825552E+03  0.00000000000E+00 0. -1.
         21   -1    0    0  501  502 -0.00000000000E+00 -0.00000000000E+00 -0.49931201162E+03  0.49931201162E+03  0.00000000000E+00 0. -1.
         25    1    1    2    0    0 -0.95476820604E+02 -0.13739177111E+03 -0.16467722912E+03  0.26596223761E+03  0.12500000000E+03 0.  0.
         25    1    1    2    0    0  0.13523754073E+03  0.20066915817E+03 -0.92860841333E+01  0.27252254003E+03  0.12500000000E+03 0.  0.
         25    1    1    2    0    0 -0.39760720129E+02 -0.63277387060E+02 -0.10603044284E+03  0.18014548950E+03  0.12500000000E+03 0.  0.
</event>
<event>
 5    0  0.5720942E-005  0.3018095E+03  0.7546771E-02  0.1084340E+00
         21   -1    0    0  502  501  0.00000000000E+00  0.00000000000E+00  0.30025587334E+03  0.30025587334E+03  0.00000000000E+00 0. -1.
         21   -1    0    0  501  502 -0.00000000000E+00 -0.00000000000E+00 -0.30337117709E+03  0.30337117709E+03  0.00000000000E+00 0. -1.
         25    1    1    2    0    0  0.79730342621E+02 -0.41471673118E+02  0.15049429674E+02  0.15468779053E+03  0.12500000000E+03 0.  0.
         25    1    1    2    0    0 -0.18503729036E+03  0.11349746451E+03 -0.75042494185E+02  0.26148967324E+03  0.12500000000E+03 0.  0.
         25    1    1    2    0    0  0.10530694774E+03 -0.72025791397E+02  0.56877760765E+02  0.18744958666E+03  0.12500000000E+03 0.  0.
</event>
<event>
 5    0  0.5720942E-005  0.3358675E+03  0.7546771E-02  0.1068570E+00
         21   -1    0    0  502  501  0.00000000000E+00  0.00000000000E+00  0.12918970335E+03  0.12918970335E+03  0.00000000000E+00 0.  1.
         21   -1    0    0  501  502 -0.00000000000E+00 -0.00000000000E+00 -0.87318885022E+03  0.87318885022E+03  0.00000000000E+00 0.  1.
         25    1    1    2    0    0  0.51238583521E+02  0.24949361317E+02 -0.28060851480E+03  0.31243239533E+03  0.12500000000E+03 0.  0.
         25    1    1    2    0    0 -0.10486948664E+03 -0.10039573035E+03  0.98190245237E+01  0.19182889548E+03  0.12500000000E+03 0.  0.
         25    1    1    2    0    0  0.53630903114E+02  0.75446369035E+02 -0.47320965659E+03  0.49811726276E+03  0.12500000000E+03 0.  0.
</event>
<event>
 5    0  0.5720942E-005  0.4728906E+03  0.7546771E-02  0.1021108E+00
         21   -1    0    0  502  501  0.00000000000E+00  0.00000000000E+00  0.16855126369E+03  0.16855126369E+03  0.00000000000E+00 0. -1.
         21   -1    0    0  501  502 -0.00000000000E+00 -0.00000000000E+00 -0.13267507764E+04  0.13267507764E+04  0.00000000000E+00 0. -1.
         25    1    1    2    0    0 -0.18536387050E+02  0.27580666155E+03 -0.39884379044E+03  0.50111304251E+03  0.12500000000E+03 0.  0.
         25    1    1    2    0    0 -0.56353925208E+02 -0.22926135140E+03 -0.54131700832E+02  0.27256517233E+03  0.12500000000E+03 0.  0.
         25    1    1    2    0    0  0.74890312258E+02 -0.46545310155E+02 -0.70522402145E+03  0.72162382527E+03  0.12500000000E+03 0.  0.
</event>
<event>
 5    0  0.5720942E-005  0.2259046E+03  0.7546771E-02  0.1129556E+00
         21   -1    0    0  502  501  0.00000000000E+00  0.00000000000E+00  0.11776405240E+03  0.11776405240E+03  0.00000000000E+00 0. -1.
         21   -1    0    0  501  502 -0.00000000000E+00 -0.00000000000E+00 -0.43334874319E+03  0.43334874319E+03  0.00000000000E+00 0. -1.
         25    1    1    2    0    0 -0.67197574768E+02 -0.28058936495E+02 -0.21447025392E+02  0.14624565932E+03  0.12500000000E+03 0.  0.
         25    1    1    2    0    0  0.33855707133E+02  0.62178837808E+02 -0.16719223766E+03  0.22043289480E+03  0.12500000000E+03 0.  0.
         25    1    1    2    0    0  0.33341867635E+02 -0.34119901313E+02 -0.12694542774E+03  0.18443424147E+03  0.12500000000E+03 0.  0.
</event>
<event>
 5    0  0.5720942E-005  0.3050082E+03  0.7546771E-02  0.1082764E+00
         21   -1    0    0  502  501  0.00000000000E+00  0.00000000000E+00  0.34001501556E+03  0.34001501556E+03  0.00000000000E+00 0.  1.
         21   -1    0    0  501  502 -0.00000000000E+00 -0.00000000000E+00 -0.27360557413E+03  0.27360557413E+03  0.00000000000E+00 0.  1.
         25    1    1    2    0    0  0.20438745273E+03 -0.37581746896E+02  0.56579062789E+02  0.24902371148E+03  0.12500000000E+03 0.  0.
         25    1    1    2    0    0 -0.17365959686E+03 -0.34733526937E+02  0.28569157664E+01  0.21678845781E+03  0.12500000000E+03 0.  0.
         25    1    1    2    0    0 -0.30727855877E+02  0.72315273832E+02  0.69734628786E+01  0.14780842040E+03  0.12500000000E+03 0.  0.
</event>
<event>
 5    0  0.5720942E-005  0.2782836E+03  0.7546771E-02  0.1096630E+00
         21   -1    0    0  502  501  0.00000000000E+00  0.00000000000E+00  0.46733895134E+03  0.46733895134E+03  0.00000000000E+00 0. -1.
         21   -1    0    0  501  502 -0.00000000000E+00 -0.00000000000E+00 -0.16570793614E+03  0.16570793614E+03  0.00000000000E+00 0. -1.
         25    1    1    2    0    0  0.15185116368E+03  0.91341565896E+02  0.12554224300E+03  0.25057516308E+03  0.12500000000E+03 0.  0.
         25    1    1    2    0    0  0.44605401882E+01 -0.34617209228E+02  0.86535244340E+02  0.15598588432E+03  0.12500000000E+03 0.  0.
         25    1    1    2    0    0 -0.15631170387E+03 -0.56724356668E+02  0.89553527857E+02  0.22648584008E+03  0.12500000000E+03 0.  0.
</event>
<event>
 5    0  0.5720942E-005  0.3851440E+03  0.7546771E-02  0.1049049E+00
         21   -1    0    0  502  501  0.00000000000E+00  0.00000000000E+00  0.46107543478E+03  0.46107543478E+03  0.00000000000E+00 0.  1.
         21   -1    0    0  501  502 -0.00000000000E+00 -0.00000000000E+00 -0.32171713493E+03  0.32171713493E+03  0.00000000000E+00 0.  1.
         25    1    1    2    0    0  0.11507067996E+01 -0.70388980852E+02  0.34326654692E+02  0.14751017583E+03  0.12500000000E+03 0.  0.
         25    1    1    2    0    0 -0.55228440981E+02  0.25895869254E+03  0.22898083662E+03  0.37170823057E+03  0.12500000000E+03 0.  0.
         25    1    1    2    0    0  0.54077734181E+02 -0.18856971169E+03 -0.12394919146E+03  0.26357416331E+03  0.12500000000E+03 0.  0.
</event>
<event>
 5    0  0.5720942E-005  0.2247986E+03  0.7546771E-02  0.1130355E+00
         21   -1    0    0  502  501  0.00000000000E+00  0.00000000000E+00  0.75858158871E+03  0.75858158871E+03  0.00000000000E+00 0. -1.
         21   -1    0    0  501  502 -0.00000000000E+00 -0.00000000000E+00 -0.66616967702E+02  0.66616967702E+02  0.00000000000E+00 0. -1.
         25    1    1    2    0    0  0.46214132686E+01 -0.56144335200E+02  0.27327750428E+03  0.30574358240E+03  0.12500000000E+03 0.  0.
         25    1    1    2    0    0  0.62269841409E+02  0.62658441504E+02  0.28981683744E+03  0.32775358534E+03  0.12500000000E+03 0.  0.
         25    1    1    2    0    0 -0.66891254678E+02 -0.65141063038E+01  0.12887027929E+03  0.19170138867E+03  0.12500000000E+03 0.  0.
</event>
<event>
 5    0  0.5720942E-005  0.3985016E+03  0.7546771E-02  0.1044300E+00
         21   -1    0    0  502  501  0.00000000000E+00  0.00000000000E+00  0.73733864369E+03  0.73733864369E+03  0.00000000000E+00 0.  1.
         21   -1    0    0  501  502 -0.00000000000E+00 -0.00000000000E+00 -0.21537392459E+03  0.21537392459E+03  0.00000000000E+00 0.  1.
         25    1    1    2    0    0 -0.62389671051E+02 -0.14123603495E+03 -0.11945432089E+02  0.19901703939E+03  0.12500000000E+03 0.  0.
         25    1    1    2    0    0  0.37032223537E+02  0.25327649967E+03  0.50736779166E+03  0.58186548864E+03  0.12500000000E+03 0.  0.
         25    1    1    2    0    0  0.25357447514E+02 -0.11204046472E+03  0.26542359541E+02  0.17183004024E+03  0.12500000000E+03 0.  0.
</event>
<event>
 5    0  0.5720942E-005  0.4106564E+03  0.7546771E-02  0.1040151E+00
         21   -1    0    0  502  501  0.00000000000E+00  0.00000000000E+00  0.85366247578E+03  0.85366247578E+03  0.00000000000E+00 0. -1.
         21   -1    0    0  501  502 -0.00000000000E+00 -0.00000000000E+00 -0.19754725477E+03  0.19754725477E+03  0.00000000000E+00 0. -1.
         25    1    1    2    0    0 -0.15715822307E+03 -0.10872712755E+03 -0.40601736741E+02  0.23193489684E+03  0.12500000000E+03 0.  0.
         25    1    1    2    0    0  0.21970730743E+03  0.82613953490E+02  0.56927678525E+03  0.62832907340E+03  0.12500000000E+03 0.  0.
         25    1    1    2    0    0 -0.62549084362E+02  0.26113174057E+02  0.12744017251E+03  0.19094576032E+03  0.12500000000E+03 0.  0.
</event>
<event>
 5    0  0.5720942E-005  0.3334750E+03  0.7546771E-02  0.1069610E+00
         21   -1    0    0  502  501  0.00000000000E+00  0.00000000000E+00  0.82628373049E+03  0.82628373049E+03  0.00000000000E+00 0.  1.
         21   -1    0    0  501  502 -0.00000000000E+00 -0.00000000000E+00 -0.13458518782E+03  0.13458518782E+03  0.00000000000E+00 0.  1.
         25    1    1    2    0    0 -0.31694981306E+02  0.10537944287E+03  0.13779337987E+03  0.21615136908E+03  0.12500000000E+03 0.  0.
         25    1    1    2    0    0 -0.14868651245E+03 -0.17390378309E+03  0.23104559536E+03  0.34836370634E+03  0.12500000000E+03 0.  0.
         25    1    1    2    0    0  0.18038149376E+03  0.68524340221E+02  0.32285956743E+03  0.39635384289E+03  0.12500000000E+03 0.  0.
</event>
<event>
 5    0  0.5720942E-005  0.2892173E+03  0.7546771E-02  0.1090758E+00
         21   -1    0    0  502  501  0.00000000000E+00  0.00000000000E+00  0.60161500207E+02  0.60161500207E+02  0.00000000000E+00 0. -1.
         21   -1    0    0  501  502 -0.00000000000E+00 -0.00000000000E+00 -0.13903685466E+04  0.13903685466E+04  0.00000000000E+00 0. -1.
         25    1    1    2    0    0  0.11717919663E+03  0.81261817175E+02 -0.94519419702E+03  0.96402879476E+03  0.12500000000E+03 0.  0.
         25    1    1    2    0    0 -0.85312919468E+02 -0.16518052058E+02 -0.17942922823E+03  0.23531040822E+03  0.12500000000E+03 0.  0.
         25    1    1    2    0    0 -0.31866277166E+02 -0.64743765117E+02 -0.20558362117E+03  0.25119084385E+03  0.12500000000E+03 0.  0.
</event>
<event>
 5    0  0.5720942E-005  0.3288019E+03  0.7546771E-02  0.1071668E+00
         21   -1    0    0  502  501  0.00000000000E+00  0.00000000000E+00  0.15816819631E+04  0.15816819631E+04  0.00000000000E+00 0. -1.
         21   -1    0    0  501  502 -0.00000000000E+00 -0.00000000000E+00 -0.68351709716E+02  0.68351709716E+02  0.00000000000E+00 0. -1.
         25    1    1    2    0    0  0.28546093012E+02  0.25048412663E+03  0.64725644792E+03  0.70577835508E+03  0.12500000000E+03 0.  0.
         25    1    1    2    0    0 -0.76769192661E+02 -0.13352108512E+03  0.45579746026E+03  0.49708924137E+03  0.12500000000E+03 0.  0.
         25    1    1    2    0    0  0.48223099649E+02 -0.11696304151E+03  0.41027634522E+03  0.44716607638E+03  0.12500000000E+03 0.  0.
</event>
<event>
 5    0  0.5720942E-005  0.2799784E+03  0.7546771E-02  0.1095701E+00
         21   -1    0    0  502  501  0.00000000000E+00  0.00000000000E+00  0.33541950237E+03  0.33541950237E+03  0.00000000000E+00 0.  1.
         21   -1    0    0  501  502 -0.00000000000E+00 -0.00000000000E+00 -0.23370105740E+03  0.23370105740E+03  0.00000000000E+00 0.  1.
         25    1    1    2    0    0 -0.13238076246E+03 -0.14188271514E+02 -0.57216928249E+01  0.18271209890E+03  0.12500000000E+03 0.  0.
         25    1    1    2    0    0  0.13829106984E+03  0.10431713936E+03  0.87759705321E+02  0.23093993037E+03  0.12500000000E+03 0.  0.
         25    1    1    2    0    0 -0.59103073849E+01 -0.90128867844E+02  0.19680432469E+02  0.15546853050E+03  0.12500000000E+03 0.  0.
</event>
<event>
 5    0  0.5720942E-005  0.3005218E+03  0.7546771E-02  0.1084980E+00
         21   -1    0    0  502  501  0.00000000000E+00  0.00000000000E+00  0.12656449930E+03  0.12656449930E+03  0.00000000000E+00 0.  1.
         21   -1    0    0  501  502 -0.00000000000E+00 -0.00000000000E+00 -0.71357564969E+03  0.71357564969E+03  0.00000000000E+00 0.  1.
         25    1    1    2    0    0  0.17971034483E+02  0.28299129282E+02 -0.22221396322E+03  0.25715334773E+03  0.12500000000E+03 0.  0.
         25    1    1    2    0    0  0.68474827812E+02  0.15318047058E+03 -0.22856742535E+03  0.30987275863E+03  0.12500000000E+03 0.  0.
         25    1    1    2    0    0 -0.86445862295E+02 -0.18147959986E+03 -0.13622976183E+03  0.27311404263E+03  0.12500000000E+03 0.  0.
</event>
<event>
 5    0  0.6746575E-005  0.2961054E+03  0.7546771E-02  0.1087204E+00
         21   -1    0    0  502  501  0.00000000000E+00  0.00000000000E+00  0.39513537484E+03  0.39513537484E+03  0.00000000000E+00 0.  1.
         21   -1    0    0  501  502 -0.00000000000E+00 -0.00000000000E+00 -0.22189460408E+03  0.22189460408E+03  0.00000000000E+00 0.  1.
         25    1    1    2    0    0 -0.91152465673E+02  0.10050075885E+03  0.11253524779E+03  0.21609802526E+03  0.12500000000E+03 0.  0.
         25    1    1    2    0    0 -0.75723952784E+02 -0.93955949343E+02  0.80314246948E+02  0.19140850479E+03  0.12500000000E+03 0.  0.
         25    1    1    2    0    0  0.16687641846E+03 -0.65448095049E+01 -0.19608723986E+02  0.20952344887E+03  0.12500000000E+03 0.  0.
</event>
<event>
 5    0  0.5720942E-005  0.4947981E+03  0.7546771E-02  0.1015146E+00
         21   -1    0    0  502  501  0.00000000000E+00  0.00000000000E+00  0.11914534455E+04  0.11914534455E+04  0.00000000000E+00 0. -1.
         21   -1    0    0  501  502 -0.00000000000E+00 -0.00000000000E+00 -0.20548447045E+03  0.20548447045E+03  0.00000000000E+00 0. -1.
         25    1    1    2    0    0 -0.11382769585E+03  0.22772331283E+03  0.59997093348E+03  0.66362999674E+03  0.12500000000E+03 0.  0.
         25    1    1    2    0    0  0.12188355988E+03  0.14538467911E+03  0.10870497386E+03  0.25186122852E+03  0.12500000000E+03 0.  0.
         25    1    1    2    0    0 -0.80558640265E+01 -0.37310799194E+03  0.27729306775E+03  0.48144669073E+03  0.12500000000E+03 0.  0.
</event>
<event>
 5    0  0.5720942E-005  0.2545895E+03  0.7546771E-02  0.1110438E+00
         21   -1    0    0  502  501  0.00000000000E+00  0.00000000000E+00  0.74393008155E+03  0.74393008155E+03  0.00000000000E+00 0.  1.
         21   -1    0    0  501  502 -0.00000000000E+00 -0.00000000000E+00 -0.87126215760E+02  0.87126215760E+02  0.00000000000E+00 0.  1.
         25    1    1    2    0    0 -0.34537842190E+02 -0.18260420252E+02  0.16486798436E+03  0.21055345582E+03  0.12500000000E+03 0.  0.
         25    1    1    2    0    0  0.15778911302E+03  0.63200373693E+01  0.24195604596E+03  0.31480958568E+03  0.12500000000E+03 0.  0.
         25    1    1    2    0    0 -0.12325127083E+03  0.11940382882E+02  0.24997983547E+03  0.30569325581E+03  0.12500000000E+03 0.  0.
</event>
<event>
 5    0  0.5720942E-005  0.4283134E+03  0.7546771E-02  0.1034394E+00
         21   -1    0    0  502  501  0.00000000000E+00  0.00000000000E+00  0.10283731376E+04  0.10283731376E+04  0.00000000000E+00 0.  1.
         21   -1    0    0  501  502 -0.00000000000E+00 -0.00000000000E+00 -0.17839088032E+03  0.17839088032E+03  0.00000000000E+00 0.  1.
         25    1    1    2    0    0 -0.14989940662E+03  0.25090448365E+03  0.15964724541E+03  0.35571777435E+03  0.12500000000E+03 0.  0.
         25    1    1    2    0    0  0.24206797648E+03 -0.16970143296E+03  0.41445932023E+03  0.52421084471E+03  0.12500000000E+03 0.  0.
         25    1    1    2    0    0 -0.92168569858E+02 -0.81203050685E+02  0.27587569162E+03  0.32683539885E+03  0.12500000000E+03 0.  0.
</event>
<event>
 5    0  0.6447284E-005  0.3604167E+03  0.7546771E-02  0.1058419E+00
         21   -1    0    0  502  501  0.00000000000E+00  0.00000000000E+00  0.50687486885E+03  0.50687486885E+03  0.00000000000E+00 0.  1.
         21   -1    0    0  501  502 -0.00000000000E+00 -0.00000000000E+00 -0.25627659466E+03  0.25627659466E+03  0.00000000000E+00 0.  1.
         25    1    1    2    0    0 -0.12403354732E+03  0.18490298785E+03 -0.66962796569E+02  0.26397433948E+03  0.12500000000E+03 0.  0.
         25    1    1    2    0    0  0.21768178966E+02 -0.15148356637E+03  0.87498469417E+02  0.21610670199E+03  0.12500000000E+03 0.  0.
         25    1    1    2    0    0  0.10226536836E+03 -0.33419421482E+02  0.23006260135E+03  0.28307042204E+03  0.12500000000E+03 0.  0.
</event>
<event>
 5    0  0.6763732E-005  0.5923924E+03  0.7546771E-02  0.9921316E-01
         21   -1    0    0  502  501  0.00000000000E+00  0.00000000000E+00  0.44106795260E+03  0.44106795260E+03  0.00000000000E+00 0.  1.
         21   -1    0    0  501  502 -0.00000000000E+00 -0.00000000000E+00 -0.79563409375E+03  0.79563409375E+03  0.00000000000E+00 0.  1.
         25    1    1    2    0    0 -0.86910398763E+02 -0.42255290241E+03 -0.17769156167E+03  0.48301517972E+03  0.12500000000E+03 0.  0.
         25    1    1    2    0    0 -0.18803238288E+03  0.25896306094E+03  0.42400161068E+02  0.34618032526E+03  0.12500000000E+03 0.  0.
         25    1    1    2    0    0  0.27494278164E+03  0.16358984148E+03 -0.21927474055E+03  0.40750654137E+03  0.12500000000E+03 0.  0.
</event>
<event>
 5    0  0.5720942E-005  0.4748131E+03  0.7546771E-02  0.1020570E+00
         21   -1    0    0  502  501  0.00000000000E+00  0.00000000000E+00  0.48622022993E+03  0.48622022993E+03  0.00000000000E+00 0.  1.
         21   -1    0    0  501  502 -0.00000000000E+00 -0.00000000000E+00 -0.46367350312E+03  0.46367350312E+03  0.00000000000E+00 0.  1.
         25    1    1    2    0    0 -0.11926927799E+03 -0.26702463962E+03  0.16787368730E+03  0.35963021803E+03  0.12500000000E+03 0.  0.
         25    1    1    2    0    0  0.77194454233E+01  0.26638498395E+03 -0.25547543142E+03  0.38976049770E+03  0.12500000000E+03 0.  0.
         25    1    1    2    0    0  0.11154983257E+03  0.63965566735E+00  0.11014847092E+03  0.20050301732E+03  0.12500000000E+03 0.  0.
</event>
<event>
 5    0  0.5720942E-005  0.2689881E+03  0.7546771E-02  0.1101860E+00
         21   -1    0    0  502  501  0.00000000000E+00  0.00000000000E+00  0.62282589433E+03  0.62282589433E+03  0.00000000000E+00 0. -1.
         21   -1    0    0  501  502 -0.00000000000E+00 -0.00000000000E+00 -0.11617150569E+03  0.11617150569E+03  0.00000000000E+00 0. -1.
         25    1    1    2    0    0  0.13865770248E+03  0.68782413005E+02  0.18097024051E+03  0.26894647562E+03  0.12500000000E+03 0.  0.
         25    1    1    2    0    0 -0.14151886633E+03 -0.63957072189E+02  0.26323845168E+03  0.33020838731E+03  0.12500000000E+03 0.  0.
         25    1    1    2    0    0  0.28611638514E+01 -0.48253408159E+01  0.62445696451E+02  0.13984253708E+03  0.12500000000E+03 0.  0.
</event>
<event>
 5    0  0.6866841E-005  0.2742426E+03  0.7546771E-02  0.1098876E+00
         21   -1    0    0  502  501  0.00000000000E+00  0.00000000000E+00  0.49279836623E+03  0.49279836623E+03  0.00000000000E+00 0.  1.
         21   -1    0    0  501  502 -0.00000000000E+00 -0.00000000000E+00 -0.15261620563E+03  0.15261620563E+03  0.00000000000E+00 0.  1.
         25    1    1    2    0    0 -0.44110100730E+02  0.61389700972E+02 -0.54006018242E+02  0.15574352756E+03  0.12500000000E+03 0.  0.
         25    1    1    2    0    0 -0.39695401727E+02 -0.46896982816E+02  0.19261528742E+03  0.23769876075E+03  0.12500000000E+03 0.  0.
         25    1    1    2    0    0  0.83805502457E+02 -0.14492718157E+02  0.20157289142E+03  0.25197228355E+03  0.12500000000E+03 0.  0.
</event>
<event>
 5    0  0.5720942E-005  0.2952538E+03  0.7546771E-02  0.1087638E+00
         21   -1    0    0  502  501  0.00000000000E+00  0.00000000000E+00  0.80542415337E+03  0.80542415337E+03  0.00000000000E+00 0. -1.
         21   -1    0    0  501  502 -0.00000000000E+00 -0.00000000000E+00 -0.10823465686E+03  0.10823465686E+03  0.00000000000E+00 0. -1.
         25    1    1    2    0    0 -0.24033981667E+02  0.31272357803E+01  0.24641801935E+03  0.27737024379E+03  0.12500000000E+03 0.  0.
         25    1    1    2    0    0 -0.65154649092E+02  0.71211821039E+02  0.43754275745E+03  0.46517192129E+03  0.12500000000E+03 0.  0.
         25    1    1    2    0    0  0.89188630760E+02 -0.74339056819E+02  0.13228719702E+02  0.17111664516E+03  0.12500000000E+03 0.  0.
</event>
<event>
 5    0  0.5760748E-005  0.3840618E+03  0.7546771E-02  0.1049443E+00
         21   -1    0    0  502  501  0.00000000000E+00  0.00000000000E+00  0.61676331569E+03  0.61676331569E+03  0.00000000000E+00 0.  1.
         21   -1    0    0  501  502 -0.00000000000E+00 -0.00000000000E+00 -0.23915736973E+03  0.23915736973E+03  0.00000000000E+00 0.  1.
         25    1    1    2    0    0 -0.33107351505E+02  0.23051193031E+03  0.10512745381E+03  0.28444442037E+03  0.12500000000E+03 0.  0.
         25    1    1    2    0    0  0.19254215184E+03 -0.13062087868E+03  0.83609790055E+02  0.27703770714E+03  0.12500000000E+03 0.  0.
         25    1    1    2    0    0 -0.15943480034E+03 -0.99891051622E+02  0.18886870209E+03  0.29443855791E+03  0.12500000000E+03 0.  0.
</event>
<event>
 5    0  0.5720942E-005  0.2604553E+03  0.7546771E-02  0.1106870E+00
         21   -1    0    0  502  501  0.00000000000E+00  0.00000000000E+00  0.16263140107E+04  0.16263140107E+04  0.00000000000E+00 0.  1.
         21   -1    0    0  501  502 -0.00000000000E+00 -0.00000000000E+00 -0.41712096824E+02  0.41712096824E+02  0.00000000000E+00 0.  1.
         25    1    1    2    0    0  0.37896260255E+02  0.12251739301E+02  0.18076033924E+03  0.22335069263E+03  0.12500000000E+03 0.  0.
         25    1    1    2    0    0 -0.57462689935E+02 -0.11213801006E+03  0.82002485443E+03  0.83901290569E+03  0.12500000000E+03 0.  0.
         25    1    1    2    0    0  0.19566429680E+02  0.99886270758E+02  0.58381672018E+03  0.60566250918E+03  0.12500000000E+03 0.  0.
</event>
<event>
 5    0  0.5720942E-005  0.3716629E+03  0.7546771E-02  0.1054059E+00
         21   -1    0    0  502  501  0.00000000000E+00  0.00000000000E+00  0.17495185487E+03  0.17495185487E+03  0.00000000000E+00 0.  1.
         21   -1    0    0  501  502 -0.00000000000E+00 -0.00000000000E+00 -0.78955043073E+03  0.78955043073E+03  0.00000000000E+00 0.  1.
         25    1    1    2    0    0  0.61849771689E+02 -0.22518836626E+03 -0.12457277494E+03  0.29270902072E+03  0.12500000000E+03 0.  0.
         25    1    1    2    0    0 -0.12648589597E+03  0.19812182069E+03 -0.45025802841E+03  0.52307574008E+03  0.12500000000E+03 0.  0.
         25    1    1    2    0    0  0.64636124280E+02  0.27066545573E+02 -0.39767772497E+02  0.14871752479E+03  0.12500000000E+03 0.  0.
</event>
<event>
 5    0  0.5720942E-005  0.4048981E+03  0.7546771E-02  0.1042097E+00
         21   -1    0    0  502  501  0.00000000000E+00  0.00000000000E+00  0.50999760104E+03  0.50999760104E+03  0.00000000000E+00 0.  1.
         21   -1    0    0  501  502 -0.00000000000E+00 -0.00000000000E+00 -0.32145737529E+03  0.32145737529E+03  0.00000000000E+00 0.  1.
         25    1    1    2    0    0  0.10789680223E+02  0.11348049049E+02  0.15641779005E+03  0.20084003700E+03  0.12500000000E+03 0.  0.
         25    1    1    2    0    0 -0.93771414059E+02  0.84039895065E+02 -0.24431190525E+03  0.30194219497E+03  0.12500000000E+03 0.  0.
         25    1    1    2    0    0  0.82981733836E+02 -0.95387944115E+02  0.27643434095E+03  0.32867274437E+03  0.12500000000E+03 0.  0.
</event>
<event>
 5    0  0.5720942E-005  0.2922415E+03  0.7546771E-02  0.1089185E+00
         21   -1    0    0  502  501  0.00000000000E+00  0.00000000000E+00  0.31101562287E+03  0.31101562287E+03  0.00000000000E+00 0.  1.
         21   -1    0    0  501  502 -0.00000000000E+00 -0.00000000000E+00 -0.27460060002E+03  0.27460060002E+03  0.00000000000E+00 0.  1.
         25    1    1    2    0    0 -0.71580454486E+02  0.61379966138E+01  0.72429367307E+02  0.16134574589E+03  0.12500000000E+03 0.  0.
         25    1    1    2    0    0  0.12873243625E+03 -0.86055950538E+02 -0.13176525110E+03  0.23867288946E+03  0.12500000000E+03 0.  0.
         25    1    1    2    0    0 -0.57151981763E+02  0.79917953924E+02  0.95750906650E+02  0.18559758755E+03  0.12500000000E+03 0.  0.
</event>
<event>
 5    0  0.5720942E-005  0.2889323E+03  0.7546771E-02  0.1090908E+00
         21   -1    0    0  502  501  0.00000000000E+00  0.00000000000E+00  0.68680391652E+02  0.68680391652E+02  0.00000000000E+00 0. -1.
         21   -1    0    0  501  502 -0.00000000000E+00 -0.00000000000E+00 -0.12155125662E+04  0.12155125662E+04  0.00000000000E+00 0. -1.
         25    1    1    2    0    0  0.16290571011E+03  0.11122462749E+02 -0.27721283299E+03  0.34515783974E+03  0.12500000000E+03 0.  0.
         25    1    1    2    0    0 -0.16319837466E+02  0.38923761444E+02 -0.19328101459E+03  0.23401697994E+03  0.12500000000E+03 0.  0.
         25    1    1    2    0    0 -0.14658587264E+03 -0.50046224193E+02 -0.67633832700E+03  0.70501813820E+03  0.12500000000E+03 0.  0.
</event>
<event>
 5    0  0.6170562E-005  0.4206205E+03  0.7546771E-02  0.1036865E+00
         21   -1    0    0  502  501  0.00000000000E+00  0.00000000000E+00  0.48393117711E+03  0.48393117711E+03  0.00000000000E+00 0.  1.
         21   -1    0    0  501  502 -0.00000000000E+00 -0.00000000000E+00 -0.36559250967E+03  0.36559250967E+03  0.00000000000E+00 0.  1.
         25    1    1    2    0    0 -0.60824158425E+02 -0.22113816202E+03 -0.12647381719E+03  0.29021077062E+03  0.12500000000E+03 0.  0.
         25    1    1    2    0    0  0.14663213048E+03  0.10016438978E+03 -0.33857406382E+02  0.21978446405E+03  0.12500000000E+03 0.  0.
         25    1    1    2    0    0 -0.85807972060E+02  0.12097377224E+03  0.27866989101E+03  0.33952845211E+03  0.12500000000E+03 0.  0.
</event>
<event>
 5    0  0.5720942E-005  0.2323047E+03  0.7546771E-02  0.1125028E+00
         21   -1    0    0  502  501  0.00000000000E+00  0.00000000000E+00  0.17688022682E+03  0.17688022682E+03  0.00000000000E+00 0. -1.
         21   -1    0    0  501  502 -0.00000000000E+00 -0.00000000000E+00 -0.30509613384E+03  0.30509613384E+03  0.00000000000E+00 0. -1.
         25    1    1    2    0    0  0.20814267336E+02 -0.25647133504E+02  0.71987100944E+02  0.14798024153E+03  0.12500000000E+03 0.  0.
         25    1    1    2    0    0 -0.25292246800E+02 -0.28464632013E+02 -0.89006530704E+02  0.15810469801E+03  0.12500000000E+03 0.  0.
         25    1    1    2    0    0  0.44779794639E+01  0.54111765517E+02 -0.11119647726E+03  0.17589142112E+03  0.12500000000E+03 0.  0.
</event>
<event>
 5    0  0.6665870E-005  0.2689378E+03  0.7546771E-02  0.1101889E+00
         21   -1    0    0  502  501  0.00000000000E+00  0.00000000000E+00  0.61242802548E+03  0.61242802548E+03  0.00000000000E+00 0. -1.
         21   -1    0    0  501  502 -0.00000000000E+00 -0.00000000000E+00 -0.11809968121E+03  0.11809968121E+03  0.00000000000E+00 0. -1.
         25    1    1    2    0    0  0.69471589077E+02  0.66130627219E+02  0.24579283173E+03  0.29195663664E+03  0.12500000000E+03 0.  0.
         25    1    1    2    0    0 -0.71072304885E+02  0.64167458265E+02  0.19417820496E+03  0.24999782100E+03  0.12500000000E+03 0.  0.
         25    1    1    2    0    0  0.16007158083E+01 -0.13029808548E+03  0.54357307581E+02  0.18857324906E+03  0.12500000000E+03 0.  0.
</event>
<event>
 5    0  0.5720942E-005  0.3003448E+03  0.7546771E-02  0.1085068E+00
         21   -1    0    0  502  501  0.00000000000E+00  0.00000000000E+00  0.31300497430E+03  0.31300497430E+03  0.00000000000E+00 0.  1.
         21   -1    0    0  501  502 -0.00000000000E+00 -0.00000000000E+00 -0.28819669405E+03  0.28819669405E+03  0.00000000000E+00 0.  1.
         25    1    1    2    0    0  0.15051829582E+02  0.61111104923E+01  0.10248974342E+03  0.16245938185E+03  0.12500000000E+03 0.  0.
         25    1    1    2    0    0 -0.80056865742E+02 -0.41929879585E+02 -0.19732991741E+03  0.25046219846E+03  0.12500000000E+03 0.  0.
         25    1    1    2    0    0  0.65005036159E+02  0.35818769093E+02  0.11964845424E+03  0.18828008803E+03  0.12500000000E+03 0.  0.
</event>
<event>
 5    0  0.6992415E-005  0.3529954E+03  0.7546771E-02  0.1061392E+00
         21   -1    0    0  502  501  0.00000000000E+00  0.00000000000E+00  0.60885731740E+03  0.60885731740E+03  0.00000000000E+00 0. -1.
         21   -1    0    0  501  502 -0.00000000000E+00 -0.00000000000E+00 -0.20465504154E+03  0.20465504154E+03  0.00000000000E+00 0. -1.
         25    1    1    2    0    0  0.18238695859E+03 -0.75262051885E+02  0.32686458359E+03  0.40173976045E+03  0.12500000000E+03 0.  0.
         25    1    1    2    0    0 -0.18414562754E+03  0.82144611284E+02  0.13605753191E+03  0.27348491969E+03  0.12500000000E+03 0.  0.
         25    1    1    2    0    0  0.17586689457E+01 -0.68825593989E+01 -0.58719839653E+02  0.13828767880E+03  0.12500000000E+03 0.  0.
</event>
<event>
 5    0  0.5720942E-005  0.2653688E+03  0.7546771E-02  0.1103960E+00
         21   -1    0    0  502  501  0.00000000000E+00  0.00000000000E+00  0.31113380946E+03  0.31113380946E+03  0.00000000000E+00 0. -1.
         21   -1    0    0  501  502 -0.00000000000E+00 -0.00000000000E+00 -0.22633534281E+03  0.22633534281E+03  0.00000000000E+00 0. -1.
         25    1    1    2    0    0  0.85698475320E+02 -0.11019307472E+03  0.10034378499E+03  0.21255732774E+03  0.12500000000E+03 0.  0.
         25    1    1    2    0    0  0.11351990227E+02  0.78857827979E+02 -0.56226882387E+02  0.15853670559E+03  0.12500000000E+03 0.  0.
         25    1    1    2    0    0 -0.97050465547E+02  0.31335246739E+02  0.40681564051E+02  0.16637511895E+03  0.12500000000E+03 0.  0.
</event>
<event>
 5    0  0.5720942E-005  0.3518652E+03  0.7546771E-02  0.1061852E+00
         21   -1    0    0  502  501  0.00000000000E+00  0.00000000000E+00  0.16546955195E+03  0.16546955195E+03  0.00000000000E+00 0.  1.
         21   -1    0    0  501  502 -0.00000000000E+00 -0.00000000000E+00 -0.74822911544E+03  0.74822911544E+03  0.00000000000E+00 0.  1.
         25    1    1    2    0    0  0.95496656579E+02  0.11446506309E+02 -0.46043864565E+02  0.16430359518E+03  0.12500000000E+03 0.  0.
         25    1    1    2    0    0  0.96487140410E+02 -0.13991566694E+03 -0.40248596636E+03  0.45442943923E+03  0.12500000000E+03 0.  0.
         25    1    1    2    0    0 -0.19198379699E+03  0.12846916063E+03 -0.13422973256E+03  0.29496563299E+03  0.12500000000E+03 0.  0.
</event>
<event>
 5    0  0.5720942E-005  0.2470216E+03  0.7546771E-02  0.1115202E+00
         21   -1    0    0  502  501  0.00000000000E+00  0.00000000000E+00  0.47369354851E+02  0.47369354851E+02  0.00000000000E+00 0. -1.
         21   -1    0    0  501  502 -0.00000000000E+00 -0.00000000000E+00 -0.12881677310E+04  0.12881677310E+04  0.00000000000E+00 0. -1.
         25    1    1    2    0    0  0.44616840420E+02 -0.12875721497E+03 -0.45040625784E+03  0.48688795421E+03  0.12500000000E+03 0.  0.
         25    1    1    2    0    0 -0.14262572855E+02  0.46128422314E+02 -0.53013795691E+03  0.54681121577E+03  0.12500000000E+03 0.  0.
         25    1    1    2    0    0 -0.30354267565E+02  0.82628792654E+02 -0.26025416141E+03  0.30183791589E+03  0.12500000000E+03 0.  0.
</event>
<event>
 5    0  0.5720942E-005  0.2495670E+03  0.7546771E-02  0.1113579E+00
         21   -1    0    0  502  501  0.00000000000E+00  0.00000000000E+00  0.75936037950E+02  0.75936037950E+02  0.00000000000E+00 0. -1.
         21   -1    0    0  501  502 -0.00000000000E+00 -0.00000000000E+00 -0.82021246986E+03  0.82021246986E+03  0.00000000000E+00 0. -1.
         25    1    1    2    0    0 -0.48668335832E+02  0.27410539282E+02 -0.49831162452E+03  0.51677792107E+03  0.12500000000E+03 0.  0.
         25    1    1    2    0    0  0.97489619949E+01  0.51972527549E+02 -0.11521666638E+03  0.17803389029E+03  0.12500000000E+03 0.  0.
         25    1    1    2    0    0  0.38919373837E+02 -0.79383066831E+02 -0.13074814101E+03  0.20133669645E+03  0.12500000000E+03 0.  0.
</event>
<event>
 5    0  0.5720942E-005  0.5219485E+03  0.7546771E-02  0.1008204E+00
         21   -1    0    0  502  501  0.00000000000E+00  0.00000000000E+00  0.24096717237E+03  0.24096717237E+03  0.00000000000E+00 0.  1.
         21   -1    0    0  501  502 -0.00000000000E+00 -0.00000000000E+00 -0.11305697955E+04  0.11305697955E+04  0.00000000000E+00 0.  1.
         25    1    1    2    0    0  0.23071869687E+03  0.82731815795E+01  0.78732759281E+02  0.27408650095E+03  0.12500000000E+03 0.  0.
         25    1    1    2    0    0 -0.28776180939E+03  0.10481236325E+03 -0.71557588213E+03  0.78833136023E+03  0.12500000000E+03 0.  0.
         25    1    1    2    0    0  0.57043112525E+02 -0.11308554483E+03 -0.25275950030E+03  0.30911910670E+03  0.12500000000E+03 0.  0.
</event>
<event>
 5    0  0.5720942E-005  0.5480091E+03  0.7546771E-02  0.1001956E+00
         21   -1    0    0  502  501  0.00000000000E+00  0.00000000000E+00  0.15865028666E+03  0.15865028666E+03  0.00000000000E+00 0. -1.
         21   -1    0    0  501  502 -0.00000000000E+00 -0.00000000000E+00 -0.18929305614E+04  0.18929305614E+04  0.00000000000E+00 0.  1.
         25    1    1    2    0    0 -0.29594054062E+03  0.68114388576E+02 -0.51909511753E+03  0.61425167037E+03  0.12500000000E+03 0.  0.
         25    1    1    2    0    0 -0.19108544715E+03  0.40235646806E+02 -0.54694604542E+03  0.59406020906E+03  0.12500000000E+03 0.  0.
         25    1    1    2    0    0  0.48702598777E+03 -0.10835003538E+03 -0.66823911180E+03  0.84326896863E+03  0.12500000000E+03 0.  0.
</event>
<event>
 5    0  0.5720942E-005  0.2626399E+03  0.7546771E-02  0.1105567E+00
         21   -1    0    0  502  501  0.00000000000E+00  0.00000000000E+00  0.16799167337E+03  0.16799167337E+03  0.00000000000E+00 0.  1.
         21   -1    0    0  501  502 -0.00000000000E+00 -0.00000000000E+00 -0.41061401054E+03  0.41061401054E+03  0.00000000000E+00 0.  1.
         25    1    1    2    0    0  0.50690702517E+00 -0.11501529601E+03 -0.12890227750E+03  0.21323595479E+03  0.12500000000E+03 0.  0.
         25    1    1    2    0    0  0.72393554033E+02  0.77468525159E+02  0.19576309046E+02  0.16507704544E+03  0.12500000000E+03 0.  0.
         25    1    1    2    0    0 -0.72900461058E+02  0.37546770852E+02 -0.13329636871E+03  0.20029268368E+03  0.12500000000E+03 0.  0.
</event>
<event>
 5    0  0.5720942E-005  0.2871836E+03  0.7546771E-02  0.1091829E+00
         21   -1    0    0  502  501  0.00000000000E+00  0.00000000000E+00  0.44397256689E+02  0.44397256689E+02  0.00000000000E+00 0.  1.
         21   -1    0    0  501  502 -0.00000000000E+00 -0.00000000000E+00 -0.18576464226E+04  0.18576464226E+04  0.00000000000E+00 0.  1.
         25    1    1    2    0    0  0.13835845027E+03 -0.31386825659E+02 -0.90773986990E+03  0.92722427977E+03  0.12500000000E+03 0.  0.
         25    1    1    2    0    0  0.21134081281E+01 -0.74113571482E+02 -0.35580922754E+03  0.38434684124E+03  0.12500000000E+03 0.  0.
         25    1    1    2    0    0 -0.14047185840E+03  0.10550039714E+03 -0.54970006844E+03  0.59047255825E+03  0.12500000000E+03 0.  0.
</event>
<event>
 5    0  0.5720942E-005  0.3923536E+03  0.7546771E-02  0.1046460E+00
         21   -1    0    0  502  501  0.00000000000E+00  0.00000000000E+00  0.18314848817E+03  0.18314848817E+03  0.00000000000E+00 0. -1.
         21   -1    0    0  501  502 -0.00000000000E+00 -0.00000000000E+00 -0.84052772729E+03  0.84052772729E+03  0.00000000000E+00 0. -1.
         25    1    1    2    0    0  0.31019914297E+02  0.24032716681E+02  0.81007531563E+02  0.15403579689E+03  0.12500000000E+03 0.  0.
         25    1    1    2    0    0  0.46216184154E+02  0.75330896459E+02 -0.65678608209E+03  0.67439130871E+03  0.12500000000E+03 0.  0.
         25    1    1    2    0    0 -0.77236098451E+02 -0.99363613140E+02 -0.81600688590E+02  0.19524910985E+03  0.12500000000E+03 0.  0.
</event>
<event>
 5    0  0.5720942E-005  0.4326303E+03  0.7546771E-02  0.1033032E+00
         21   -1    0    0  502  501  0.00000000000E+00  0.00000000000E+00  0.11913679264E+03  0.11913679264E+03  0.00000000000E+00 0.  1.
         21   -1    0    0  501  502 -0.00000000000E+00 -0.00000000000E+00 -0.15710424787E+04  0.15710424787E+04  0.00000000000E+00 0.  1.
         25    1    1    2    0    0  0.13083100082E+03  0.33203187608E+02 -0.11785723068E+03  0.21848233171E+03  0.12500000000E+03 0.  0.
         25    1    1    2    0    0 -0.83509178751E+02 -0.24250105270E+03 -0.32468613855E+03  0.43223446422E+03  0.12500000000E+03 0.  0.
         25    1    1    2    0    0 -0.47321822071E+02  0.20929786509E+03 -0.10093623168E+04  0.10394624754E+04  0.12500000000E+03 0.  0.
</event>
<event>
 5    0  0.5720942E-005  0.3364676E+03  0.7546771E-02  0.1068310E+00
         21   -1    0    0  502  501  0.00000000000E+00  0.00000000000E+00  0.19641492271E+03  0.19641492271E+03  0.00000000000E+00 0.  1.
         21   -1    0    0  501  502 -0.00000000000E+00 -0.00000000000E+00 -0.57638430527E+03  0.57638430527E+03  0.00000000000E+00 0.  1.
         25    1    1    2    0    0  0.15618364129E+02  0.10220563231E+03 -0.19721515358E+03  0.25536002306E+03  0.12500000000E+03 0.  0.
         25    1    1    2    0    0  0.22782663030E+02 -0.35364278712E+02 -0.30117271957E+03  0.32878517144E+03  0.12500000000E+03 0.  0.
         25    1    1    2    0    0 -0.38401027160E+02 -0.66841353601E+02  0.11841849059E+03  0.18865403349E+03  0.12500000000E+03 0.  0.
</event>
<event>
 5    0  0.5767636E-005  0.3826689E+03  0.7546771E-02  0.1049952E+00
         21   -1    0    0  502  501  0.00000000000E+00  0.00000000000E+00  0.19149713302E+03  0.19149713302E+03  0.00000000000E+00 0.  1.
         21   -1    0    0  501  502 -0.00000000000E+00 -0.00000000000E+00 -0.76468756238E+03  0.76468756238E+03  0.00000000000E+00 0.  1.
         25    1    1    2    0    0 -0.11204538494E+03  0.70478339830E+02 -0.36853636765E+03  0.41105403410E+03  0.12500000000E+03 0.  0.
         25    1    1    2    0    0 -0.70022442155E+02 -0.78294876679E+02  0.82383319738E+02  0.18288040215E+03  0.12500000000E+03 0.  0.
         25    1    1    2    0    0  0.18206782709E+03  0.78165368486E+01 -0.28703738144E+03  0.36225025915E+03  0.12500000000E+03 0.  0.
</event>
<event>
 5    0  0.5720942E-005  0.5222353E+03  0.7546771E-02  0.1008133E+00
         21   -1    0    0  502  501  0.00000000000E+00  0.00000000000E+00  0.13705574493E+04  0.13705574493E+04  0.00000000000E+00 0.  1.
         21   -1    0    0  501  502 -0.00000000000E+00 -0.00000000000E+00 -0.19899179354E+03  0.19899179354E+03  0.00000000000E+00 0.  1.
         25    1    1    2    0    0  0.55267246760E+02  0.27249575671E+03  0.20090305289E+03  0.36509648403E+03  0.12500000000E+03 0.  0.
         25    1    1    2    0    0  0.72364210265E+02  0.47145568526E+02 -0.15285696991E+02  0.15270211554E+03  0.12500000000E+03 0.  0.
         25    1    1    2    0    0 -0.12763145703E+03 -0.31964132523E+03  0.98594829984E+03  0.10517506432E+04  0.12500000000E+03 0.  0.
</event>
<event>
 5    0  0.5720942E-005  0.3213257E+03  0.7546771E-02  0.1075041E+00
         21   -1    0    0  502  501  0.00000000000E+00  0.00000000000E+00  0.68055352839E+03  0.68055352839E+03  0.00000000000E+00 0. -1.
         21   -1    0    0  501  502 -0.00000000000E+00 -0.00000000000E+00 -0.15171505192E+03  0.15171505192E+03  0.00000000000E+00 0. -1.
         25    1    1    2    0    0  0.85470534491E+02  0.13413639867E+03  0.45708352010E+03  0.49984810699E+03  0.12500000000E+03 0.  0.
         25    1    1    2    0    0 -0.20928840428E+01 -0.20581681596E+02  0.68546833948E+02  0.14405434469E+03  0.12500000000E+03 0.  0.
         25    1    1    2    0    0 -0.83377650449E+02 -0.11355471708E+03  0.32081224264E+01  0.18836612863E+03  0.12500000000E+03 0.  0.
</event>
<event>
 5    0  0.5720942E-005  0.2836395E+03  0.7546771E-02  0.1093718E+00
         21   -1    0    0  502  501  0.00000000000E+00  0.00000000000E+00  0.35268055774E+03  0.35268055774E+03  0.00000000000E+00 0.  1.
         21   -1    0    0  501  502 -0.00000000000E+00 -0.00000000000E+00 -0.22811394598E+03  0.22811394598E+03  0.00000000000E+00 0.  1.
         25    1    1    2    0    0  0.14175682481E+03  0.48233510100E+02 -0.65983906375E+02  0.20591344001E+03  0.12500000000E+03 0.  0.
         25    1    1    2    0    0 -0.11283795626E+03 -0.11780904771E+02  0.39494365351E+02  0.17336666054E+03  0.12500000000E+03 0.  0.
         25    1    1    2    0    0 -0.28918868549E+02 -0.36452605330E+02  0.15105615278E+03  0.20151440317E+03  0.12500000000E+03 0.  0.
</event>
<event>
 5    0  0.5720942E-005  0.4235292E+03  0.7546771E-02  0.1035924E+00
         21   -1    0    0  502  501  0.00000000000E+00  0.00000000000E+00  0.15769256009E+03  0.15769256009E+03  0.00000000000E+00 0.  1.
         21   -1    0    0  501  502 -0.00000000000E+00 -0.00000000000E+00 -0.11375105982E+04  0.11375105982E+04  0.00000000000E+00 0.  1.
         25    1    1    2    0    0  0.66706202172E+02 -0.12140237113E+03  0.28511112432E+02  0.18874887194E+03  0.12500000000E+03 0.  0.
         25    1    1    2    0    0  0.38459404496E+01  0.72127909372E+02 -0.91917968974E+03  0.93044802574E+03  0.12500000000E+03 0.  0.
         25    1    1    2    0    0 -0.70552142621E+02  0.49274461762E+02 -0.89149460768E+02  0.17600626059E+03  0.12500000000E+03 0.  0.
</event>
<event>
 5    0  0.5720942E-005  0.3337230E+03  0.7546771E-02  0.1069501E+00
         21   -1    0    0  502  501  0.00000000000E+00  0.00000000000E+00  0.12052212773E+04  0.12052212773E+04  0.00000000000E+00 0.  1.
         21   -1    0    0  501  502 -0.00000000000E+00 -0.00000000000E+00 -0.92407142340E+02  0.92407142340E+02  0.00000000000E+00 0.  1.
         25    1    1    2    0    0 -0.20278132693E+03 -0.10350756247E+03  0.25318077338E+03  0.36271143634E+03  0.12500000000E+03 0.  0.
         25    1    1    2    0    0  0.83499745883E+02 -0.24688742809E+02  0.34694533904E+03  0.37891662654E+03  0.12500000000E+03 0.  0.
         25    1    1    2    0    0  0.11928158105E+03  0.12819630528E+03  0.51268802257E+03  0.55600035680E+03  0.12500000000E+03 0.  0.
</event>
<event>
 5    0  0.5720942E-005  0.3333798E+03  0.7546771E-02  0.1069651E+00
         21   -1    0    0  502  501  0.00000000000E+00  0.00000000000E+00  0.86420195467E+03  0.86420195467E+03  0.00000000000E+00 0.  1.
         21   -1    0    0  501  502 -0.00000000000E+00 -0.00000000000E+00 -0.12860658658E+03  0.12860658658E+03  0.00000000000E+00 0.  1.
         25    1    1    2    0    0 -0.25754385101E+03 -0.53952744150E+02  0.30417534785E+03  0.42117380739E+03  0.12500000000E+03 0.  0.
         25    1    1    2    0    0  0.12970956342E+03  0.49036729303E+02  0.28391826118E+03  0.33979957430E+03  0.12500000000E+03 0.  0.
         25    1    1    2    0    0  0.12783428759E+03  0.49160148471E+01  0.14750175906E+03  0.23183515957E+03  0.12500000000E+03 0.  0.
</event>
<event>
 5    0  0.5720942E-005  0.6843692E+03  0.7546771E-02  0.9744343E-01
         21   -1    0    0  502  501  0.00000000000E+00  0.00000000000E+00  0.47885216208E+03  0.47885216208E+03  0.00000000000E+00 0.  1.
         21   -1    0    0  501  502 -0.00000000000E+00 -0.00000000000E+00 -0.97809144637E+03  0.97809144637E+03  0.00000000000E+00 0.  1.
         25    1    1    2    0    0  0.86901695301E+02 -0.27197910912E+03  0.18806932251E+03  0.36403243058E+03  0.12500000000E+03 0.  0.
         25    1    1    2    0    0 -0.39278979164E+03  0.22880137207E+03 -0.56980183958E+03  0.73954920368E+03  0.12500000000E+03 0.  0.
         25    1    1    2    0    0  0.30588809634E+03  0.43177737050E+02 -0.11750676723E+03  0.35336197419E+03  0.12500000000E+03 0.  0.
</event>
<event>
 5    0  0.5720942E-005  0.3500755E+03  0.7546771E-02  0.1062584E+00
         21   -1    0    0  502  501  0.00000000000E+00  0.00000000000E+00  0.64713670966E+03  0.64713670966E+03  0.00000000000E+00 0.  1.
         21   -1    0    0  501  502 -0.00000000000E+00 -0.00000000000E+00 -0.18937711275E+03  0.18937711275E+03  0.00000000000E+00 0.  1.
         25    1    1    2    0    0  0.22858170789E+02  0.27488813860E+03  0.26340716718E+03  0.40136556957E+03  0.12500000000E+03 0.  0.
         25    1    1    2    0    0  0.32049236561E+02 -0.17289137195E+03  0.13593261015E+03  0.25499265589E+03  0.12500000000E+03 0.  0.
         25    1    1    2    0    0 -0.54907407350E+02 -0.10199676665E+03  0.58419819589E+02  0.18015559694E+03  0.12500000000E+03 0.  0.
</event>
<event>
 5    0  0.5720942E-005  0.4309555E+03  0.7546771E-02  0.1033559E+00
         21   -1    0    0  502  501  0.00000000000E+00  0.00000000000E+00  0.83173626432E+03  0.83173626432E+03  0.00000000000E+00 0. -1.
         21   -1    0    0  501  502 -0.00000000000E+00 -0.00000000000E+00 -0.22329511112E+03  0.22329511112E+03  0.00000000000E+00 0. -1.
         25    1    1    2    0    0  0.11573621841E+01  0.13020123777E+03  0.26543789656E+03  0.32099217862E+03  0.12500000000E+03 0.  0.
         25    1    1    2    0    0  0.82953823592E+01 -0.27883899135E+03  0.42458191540E+03  0.52317759829E+03  0.12500000000E+03 0.  0.
         25    1    1    2    0    0 -0.94527445433E+01  0.14863775359E+03 -0.81578658762E+02  0.21086159853E+03  0.12500000000E+03 0.  0.
</event>
<event>
 5    0  0.5720942E-005  0.3113760E+03  0.7546771E-02  0.1079688E+00
         21   -1    0    0  502  501  0.00000000000E+00  0.00000000000E+00  0.98610454544E+02  0.98610454544E+02  0.00000000000E+00 0. -1.
         21   -1    0    0  501  502 -0.00000000000E+00 -0.00000000000E+00 -0.98321250092E+03  0.98321250092E+03  0.00000000000E+00 0. -1.
         25    1    1    2    0    0  0.13150632012E+03 -0.78751410164E+02 -0.54411076927E+03  0.57894492490E+03  0.12500000000E+03 0.  0.
         25    1    1    2    0    0  0.45203799704E+02 -0.11232616201E+02 -0.15076827748E+03  0.20130978284E+03  0.12500000000E+03 0.  0.
         25    1    1    2    0    0 -0.17671011982E+03  0.89984026365E+02 -0.18972299963E+03  0.30156824773E+03  0.12500000000E+03 0.  0.
</event>
<event>
 5    0  0.5720942E-005  0.5901019E+03  0.7546771E-02  0.9926157E-01
         21   -1    0    0  502  501  0.00000000000E+00  0.00000000000E+00  0.24039118706E+03  0.24039118706E+03  0.00000000000E+00 0. -1.
         21   -1    0    0  501  502 -0.00000000000E+00 -0.00000000000E+00 -0.14485564544E+04  0.14485564544E+04  0.00000000000E+00 0. -1.
         25    1    1    2    0    0  0.11545184573E+03 -0.41297268522E+03 -0.93159520704E+03  0.10331360981E+04  0.12500000000E+03 0.  0.
         25    1    1    2    0    0 -0.16055240164E+03  0.41287060773E+03 -0.19502334779E+03  0.49989830824E+03  0.12500000000E+03 0.  0.
         25    1    1    2    0    0  0.45100555908E+02  0.10207748625E+00 -0.81546712531E+02  0.15591323513E+03  0.12500000000E+03 0.  0.
</event>
<event>
 5    0  0.5720942E-005  0.4726631E+03  0.7546771E-02  0.1021171E+00
         21   -1    0    0  502  501  0.00000000000E+00  0.00000000000E+00  0.94774404823E+02  0.94774404823E+02  0.00000000000E+00 0. -1.
         21   -1    0    0  501  502 -0.00000000000E+00 -0.00000000000E+00 -0.23572858193E+04  0.23572858193E+04  0.00000000000E+00 0. -1.
         25    1    1    2    0    0 -0.12446510073E+02 -0.27498506520E+03 -0.29135529648E+03  0.41986260905E+03  0.12500000000E+03 0.  0.
         25    1    1    2    0    0 -0.14520220093E+03  0.19339592519E+03 -0.95111870868E+03  0.98931160967E+03  0.12500000000E+03 0.  0.
         25    1    1    2    0    0  0.15764871100E+03  0.81589140010E+02 -0.10200374094E+04  0.10428860054E+04  0.12500000000E+03 0.  0.
</event>
<event>
 5    0  0.5720942E-005  0.3418956E+03  0.7546771E-02  0.1065991E+00
         21   -1    0    0  502  501  0.00000000000E+00  0.00000000000E+00  0.68197185970E+03  0.68197185970E+03  0.00000000000E+00 0.  1.
         21   -1    0    0  501  502 -0.00000000000E+00 -0.00000000000E+00 -0.17140383658E+03  0.17140383658E+03  0.00000000000E+00 0.  1.
         25    1    1    2    0    0 -0.22786323155E+02 -0.21250759665E+03  0.27050784648E+03  0.36671268067E+03  0.12500000000E+03 0.  0.
         25    1    1    2    0    0  0.83434328870E+02  0.11179462275E+03  0.25275595210E+03  0.31459481279E+03  0.12500000000E+03 0.  0.
         25    1    1    2    0    0 -0.60648005715E+02  0.10071297390E+03 -0.12695775460E+02  0.17206820283E+03  0.12500000000E+03 0.  0.
</event>
<event>
 5    0  0.5720942E-005  0.4792713E+03  0.7546771E-02  0.1019336E+00
         21   -1    0    0  502  501  0.00000000000E+00  0.00000000000E+00  0.15020399181E+03  0.15020399181E+03  0.00000000000E+00 0. -1.
         21   -1    0    0  501  502 -0.00000000000E+00 -0.00000000000E+00 -0.15292602647E+04  0.15292602647E+04  0.00000000000E+00 0. -1.
         25    1    1    2    0    0 -0.16918105940E+03  0.50138654122E+02 -0.58027216542E+03  0.61925511824E+03  0.12500000000E+03 0.  0.
         25    1    1    2    0    0  0.37903156210E+03 -0.13771714686E+03 -0.38266689547E+03  0.56981566361E+03  0.12500000000E+03 0.  0.
         25    1    1    2    0    0 -0.20985050270E+03  0.87578492740E+02 -0.41611721201E+03  0.49039347468E+03  0.12500000000E+03 0.  0.
</event>
<event>
 5    0  0.5720942E-005  0.4289550E+03  0.7546771E-02  0.1034191E+00
         21   -1    0    0  502  501  0.00000000000E+00  0.00000000000E+00  0.73497970878E+03  0.73497970878E+03  0.00000000000E+00 0. -1.
         21   -1    0    0  501  502 -0.00000000000E+00 -0.00000000000E+00 -0.25035026125E+03  0.25035026125E+03  0.00000000000E+00 0. -1.
         25    1    1    2    0    0 -0.21951492615E+03  0.48557444235E+02  0.14944186641E+03  0.29749369679E+03  0.12500000000E+03 0.  0.
         25    1    1    2    0    0  0.80581499648E+02 -0.21757649689E+03 -0.60827885146E+01  0.26361887337E+03  0.12500000000E+03 0.  0.
         25    1    1    2    0    0  0.13893342650E+03  0.16901905265E+03  0.34127036963E+03  0.42421739987E+03  0.12500000000E+03 0.  0.
</event>
<event>
 5    0  0.5720942E-005  0.2990185E+03  0.7546771E-02  0.1085732E+00
         21   -1    0    0  502  501  0.00000000000E+00  0.00000000000E+00  0.10899842410E+03  0.10899842410E+03  0.00000000000E+00 0. -1.
         21   -1    0    0  501  502 -0.00000000000E+00 -0.00000000000E+00 -0.82030606954E+03  0.82030606954E+03  0.00000000000E+00 0. -1.
         25    1    1    2    0    0  0.20615631755E+02  0.12073226187E+03 -0.48467664307E+03  0.51530353352E+03  0.12500000000E+03 0.  0.
         25    1    1    2    0    0  0.38549063496E+01 -0.16683279236E+03 -0.11276695554E+03  0.23704309138E+03  0.12500000000E+03 0.  0.
         25    1    1    2    0    0 -0.24470538105E+02  0.46100530497E+02 -0.11386404683E+03  0.17695786874E+03  0.12500000000E+03 0.  0.
</event>
<event>
 5    0  0.5720942E-005  0.5579618E+03  0.7546771E-02  0.9996677E-01
         21   -1    0    0  502  501  0.00000000000E+00  0.00000000000E+00  0.34599123113E+03  0.34599123113E+03  0.00000000000E+00 0. -1.
         21   -1    0    0  501  502 -0.00000000000E+00 -0.00000000000E+00 -0.89979553481E+03  0.89979553481E+03  0.00000000000E+00 0. -1.
         25    1    1    2    0    0  0.37659095322E+03  0.25179745313E+03 -0.31008168722E+03  0.56302607062E+03  0.12500000000E+03 0.  0.
         25    1    1    2    0    0 -0.27349692067E+03 -0.33031663609E+03 -0.22936235380E+03  0.50213716755E+03  0.12500000000E+03 0.  0.
         25    1    1    2    0    0 -0.10309403255E+03  0.78519182960E+02 -0.14360262656E+02  0.18062352777E+03  0.12500000000E+03 0.  0.
</event>
<event>
 5    0  0.5720942E-005  0.2915223E+03  0.7546771E-02  0.1089557E+00
         21   -1    0    0  502  501  0.00000000000E+00  0.00000000000E+00  0.30953145707E+04  0.30953145707E+04  0.00000000000E+00 0.  1.
         21   -1    0    0  501  502 -0.00000000000E+00 -0.00000000000E+00 -0.27456088847E+02  0.27456088847E+02  0.00000000000E+00 0.  1.
         25    1    1    2    0    0 -0.62976125179E+02 -0.74102995385E+02  0.11272851032E+04  0.11383558100E+04  0.12500000000E+03 0.  0.
         25    1    1    2    0    0 -0.12121492145E+03  0.72802974482E+02  0.76373176242E+03  0.78670485902E+03  0.12500000000E+03 0.  0.
         25    1    1    2    0    0  0.18419104662E+03  0.13000209035E+01  0.11768416162E+04  0.11977099905E+04  0.12500000000E+03 0.  0.
</event>
<event>
 5    0  0.5720942E-005  0.2273109E+03  0.7546771E-02  0.1128547E+00
         21   -1    0    0  502  501  0.00000000000E+00  0.00000000000E+00  0.78227271181E+02  0.78227271181E+02  0.00000000000E+00 0. -1.
         21   -1    0    0  501  502 -0.00000000000E+00 -0.00000000000E+00 -0.66051458715E+03  0.66051458715E+03  0.00000000000E+00 0. -1.
         25    1    1    2    0    0 -0.10963446883E+02 -0.56697147647E+02 -0.25581959238E+03  0.29052267995E+03  0.12500000000E+03 0.  0.
         25    1    1    2    0    0  0.86140602833E+02  0.50910777124E+02 -0.18894180480E+03  0.24766129347E+03  0.12500000000E+03 0.  0.
         25    1    1    2    0    0 -0.75177155950E+02  0.57863705221E+01 -0.13752591880E+03  0.20055788491E+03  0.12500000000E+03 0.  0.
</event>
<event>
 5    0  0.5720942E-005  0.2560352E+03  0.7546771E-02  0.1109549E+00
         21   -1    0    0  502  501  0.00000000000E+00  0.00000000000E+00  0.50626669227E+03  0.50626669227E+03  0.00000000000E+00 0.  1.
         21   -1    0    0  501  502 -0.00000000000E+00 -0.00000000000E+00 -0.12948516204E+03  0.12948516204E+03  0.00000000000E+00 0.  1.
         25    1    1    2    0    0 -0.61745337617E+02  0.94704451556E+02  0.61713788546E+02  0.17948540765E+03  0.12500000000E+03 0.  0.
         25    1    1    2    0    0  0.84717371394E+02 -0.11991046902E+03  0.23488574568E+03  0.30389449998E+03  0.12500000000E+03 0.  0.
         25    1    1    2    0    0 -0.22972033777E+02  0.25206017459E+02  0.80181996007E+02  0.15237194668E+03  0.12500000000E+03 0.  0.
</event>
<event>
 5    0  0.5720942E-005  0.2050808E+03  0.7546771E-02  0.1145522E+00
         21   -1    0    0  502  501  0.00000000000E+00  0.00000000000E+00  0.33286991746E+03  0.33286991746E+03  0.00000000000E+00 0.  1.
         21   -1    0    0  501  502 -0.00000000000E+00 -0.00000000000E+00 -0.12635009005E+03  0.12635009005E+03  0.00000000000E+00 0.  1.
         25    1    1    2    0    0 -0.18425397586E+02 -0.47188960959E+02  0.40002942083E+02  0.14068236808E+03  0.12500000000E+03 0.  0.
         25    1    1    2    0    0  0.42518309227E+02  0.25871234774E+02  0.12308954361E+03  0.18235449859E+03  0.12500000000E+03 0.  0.
         25    1    1    2    0    0 -0.24092911641E+02  0.21317726185E+02  0.43427341715E+02  0.13618314084E+03  0.12500000000E+03 0.  0.
</event>
<event>
 5    0  0.5720942E-005  0.6212946E+03  0.7546771E-02  0.9862185E-01
         21   -1    0    0  502  501  0.00000000000E+00  0.00000000000E+00  0.25079188593E+03  0.25079188593E+03  0.00000000000E+00 0.  1.
         21   -1    0    0  501  502 -0.00000000000E+00 -0.00000000000E+00 -0.15391527143E+04  0.15391527143E+04  0.00000000000E+00 0.  1.
         25    1    1    2    0    0 -0.36401204221E+03 -0.31769619814E+03 -0.43291530825E+03  0.66066353411E+03  0.12500000000E+03 0.  0.
         25    1    1    2    0    0  0.45700464797E+03  0.20774076269E+03 -0.75076664035E+03  0.91174833206E+03  0.12500000000E+03 0.  0.
         25    1    1    2    0    0 -0.92992605759E+02  0.10995543545E+03 -0.10467887974E+03  0.21753273403E+03  0.12500000000E+03 0.  0.
</event>
<event>
 5    0  0.5720942E-005  0.2989006E+03  0.7546771E-02  0.1085791E+00
         21   -1    0    0  502  501  0.00000000000E+00  0.00000000000E+00  0.41645443598E+03  0.41645443598E+03  0.00000000000E+00 0. -1.
         21   -1    0    0  501  502 -0.00000000000E+00 -0.00000000000E+00 -0.21452908322E+03  0.21452908322E+03  0.00000000000E+00 0. -1.
         25    1    1    2    0    0  0.32928723826E+02 -0.12761428606E+03  0.10360357982E+03  0.20911338697E+03  0.12500000000E+03 0.  0.
         25    1    1    2    0    0 -0.92370387754E+02 -0.99485849988E+01  0.15390905376E+03  0.21896177682E+03  0.12500000000E+03 0.  0.
         25    1    1    2    0    0  0.59441663927E+02  0.13756287106E+03 -0.55587280816E+02  0.20290835541E+03  0.12500000000E+03 0.  0.
</event>
<event>
 5    0  0.5720942E-005  0.4692714E+03  0.7546771E-02  0.1022126E+00
         21   -1    0    0  502  501  0.00000000000E+00  0.00000000000E+00  0.74518213595E+03  0.74518213595E+03  0.00000000000E+00 0.  1.
         21   -1    0    0  501  502 -0.00000000000E+00 -0.00000000000E+00 -0.29551919632E+03  0.29551919632E+03  0.00000000000E+00 0.  1.
         25    1    1    2    0    0 -0.18735460831E+03  0.21711982089E+02  0.27475604597E+03  0.35593404476E+03  0.12500000000E+03 0.  0.
         25    1    1    2    0    0 -0.21789190127E+02  0.25514354268E+03  0.22913351223E+02  0.28587238034E+03  0.12500000000E+03 0.  0.
         25    1    1    2    0    0  0.20914379844E+03 -0.27685552477E+03  0.15199354244E+03  0.39889490717E+03  0.12500000000E+03 0.  0.
</event>
<event>
 5    0  0.5720942E-005  0.3991280E+03  0.7546771E-02  0.1044082E+00
         21   -1    0    0  502  501  0.00000000000E+00  0.00000000000E+00  0.11328775106E+04  0.11328775106E+04  0.00000000000E+00 0. -1.
         21   -1    0    0  501  502 -0.00000000000E+00 -0.00000000000E+00 -0.14061815128E+03  0.14061815128E+03  0.00000000000E+00 0. -1.
         25    1    1    2    0    0 -0.41680313500E+02 -0.12790919997E+03  0.71313724563E+02  0.19699913523E+03  0.12500000000E+03 0.  0.
         25    1    1    2    0    0  0.15236499201E+03  0.22752525029E+02  0.84018883015E+03  0.86329313590E+03  0.12500000000E+03 0.  0.
         25    1    1    2    0    0 -0.11068467851E+03  0.10515667494E+03  0.80756804625E+02  0.21320339077E+03  0.12500000000E+03 0.  0.
</event>
<event>
 5    0  0.5720942E-005  0.2616716E+03  0.7546771E-02  0.1106143E+00
         21   -1    0    0  502  501  0.00000000000E+00  0.00000000000E+00  0.13097000818E+03  0.13097000818E+03  0.00000000000E+00 0.  1.
         21   -1    0    0  501  502 -0.00000000000E+00 -0.00000000000E+00 -0.52280681522E+03  0.52280681522E+03  0.00000000000E+00 0.  1.
         25    1    1    2    0    0 -0.95059679603E+01  0.17149071963E+02 -0.33006721300E+02  0.13076275367E+03  0.12500000000E+03 0.  0.
         25    1    1    2    0    0 -0.35864404396E+02  0.10038673412E+03 -0.28872800109E+03  0.33219363405E+03  0.12500000000E+03 0.  0.
         25    1    1    2    0    0  0.45370372357E+02 -0.11753580608E+03 -0.70102084650E+02  0.19082043568E+03  0.12500000000E+03 0.  0.
</event>
<event>
 5    0  0.5720942E-005  0.2711608E+03  0.7546771E-02  0.1100617E+00
         21   -1    0    0  502  501  0.00000000000E+00  0.00000000000E+00  0.27576249365E+03  0.27576249365E+03  0.00000000000E+00 0. -1.
         21   -1    0    0  501  502 -0.00000000000E+00 -0.00000000000E+00 -0.26663590000E+03  0.26663590000E+03  0.00000000000E+00 0. -1.
         25    1    1    2    0    0  0.64790134600E+02 -0.79725953408E+02  0.10760042249E+03  0.19431119398E+03  0.12500000000E+03 0.  0.
         25    1    1    2    0    0  0.29130329228E+02  0.11056441791E+03 -0.20410064926E+02  0.17063011850E+03  0.12500000000E+03 0.  0.
         25    1    1    2    0    0 -0.93920463828E+02 -0.30838464503E+02 -0.78063763916E+02  0.17745708116E+03  0.12500000000E+03 0.  0.
</event>
<event>
 5    0  0.5720942E-005  0.4880917E+03  0.7546771E-02  0.1016935E+00
         21   -1    0    0  502  501  0.00000000000E+00  0.00000000000E+00  0.11680419846E+04  0.11680419846E+04  0.00000000000E+00 0. -1.
         21   -1    0    0  501  502 -0.00000000000E+00 -0.00000000000E+00 -0.20395974259E+03  0.20395974259E+03  0.00000000000E+00 0. -1.
         25    1    1    2    0    0 -0.37104152724E+03 -0.43464448144E+02  0.36814177162E+03  0.53917931823E+03  0.12500000000E+03 0.  0.
         25    1    1    2    0    0  0.35583502785E+01  0.11686657045E+03  0.27467543957E+03  0.32363877123E+03  0.12500000000E+03 0.  0.
         25    1    1    2    0    0  0.36748317697E+03 -0.73402122303E+02  0.32126503084E+03  0.50918363775E+03  0.12500000000E+03 0.  0.
</event>
<event>
 5    0  0.5720942E-005  0.2528500E+03  0.7546771E-02  0.1111517E+00
         21   -1    0    0  502  501  0.00000000000E+00  0.00000000000E+00  0.60654333801E+03  0.60654333801E+03  0.00000000000E+00 0.  1.
         21   -1    0    0  501  502 -0.00000000000E+00 -0.00000000000E+00 -0.10540569916E+03  0.10540569916E+03  0.00000000000E+00 0.  1.
         25    1    1    2    0    0 -0.47056517269E+01  0.10523102221E+03  0.89311170929E+02  0.18627183482E+03  0.12500000000E+03 0.  0.
         25    1    1    2    0    0 -0.73195578667E+02 -0.63792193431E+02  0.28886502133E+03  0.32938584855E+03  0.12500000000E+03 0.  0.
         25    1    1    2    0    0  0.77901230394E+02 -0.41438828781E+02  0.12296144660E+03  0.19629135380E+03  0.12500000000E+03 0.  0.
</event>
<event>
 5    0  0.5720942E-005  0.2801890E+03  0.7546771E-02  0.1095586E+00
         21   -1    0    0  502  501  0.00000000000E+00  0.00000000000E+00  0.93272797474E+03  0.93272797474E+03  0.00000000000E+00 0.  1.
         21   -1    0    0  501  502 -0.00000000000E+00 -0.00000000000E+00 -0.84168027903E+02  0.84168027903E+02  0.00000000000E+00 0.  1.
         25    1    1    2    0    0  0.18672863858E+02 -0.94439734481E+02  0.72660312614E+02  0.17370106598E+03  0.12500000000E+03 0.  0.
         25    1    1    2    0    0  0.17332865253E+02 -0.43114294730E+02  0.41118490075E+03  0.43226993098E+03  0.12500000000E+03 0.  0.
         25    1    1    2    0    0 -0.36005729111E+02  0.13755402921E+03  0.36471473347E+03  0.41092500568E+03  0.12500000000E+03 0.  0.
</event>
<event>
 5    0  0.5720942E-005  0.2333564E+03  0.7546771E-02  0.1124299E+00
         21   -1    0    0  502  501  0.00000000000E+00  0.00000000000E+00  0.13375683676E+03  0.13375683676E+03  0.00000000000E+00 0. -1.
         21   -1    0    0  501  502 -0.00000000000E+00 -0.00000000000E+00 -0.40712082349E+03  0.40712082349E+03  0.00000000000E+00 0. -1.
         25    1    1    2    0    0 -0.45311550996E+02  0.14453900749E+02 -0.59899544720E+01  0.13387655304E+03  0.12500000000E+03 0.  0.
         25    1    1    2    0    0  0.75348608503E+02 -0.35839781590E+02 -0.22380922425E+03  0.26958759543E+03  0.12500000000E+03 0.  0.
         25    1    1    2    0    0 -0.30037057506E+02  0.21385880841E+02 -0.43564808002E+02  0.13741351178E+03  0.12500000000E+03 0.  0.
</event>
<event>
 5    0  0.5720942E-005  0.2782346E+03  0.7546771E-02  0.1096657E+00
         21   -1    0    0  502  501  0.00000000000E+00  0.00000000000E+00  0.23818677876E+03  0.23818677876E+03  0.00000000000E+00 0.  1.
         21   -1    0    0  501  502 -0.00000000000E+00 -0.00000000000E+00 -0.32501599741E+03  0.32501599741E+03  0.00000000000E+00 0.  1.
         25    1    1    2    0    0 -0.55611444031E+02  0.13102356818E+03 -0.39787597057E+02  0.19356616700E+03  0.12500000000E+03 0.  0.
         25    1    1    2    0    0 -0.51287325790E+02 -0.14151493798E+03  0.81594646513E+01  0.19582758825E+03  0.12500000000E+03 0.  0.
         25    1    1    2    0    0  0.10689876982E+03  0.10491369798E+02 -0.55201086248E+02  0.17380902092E+03  0.12500000000E+03 0.  0.
</event>
<event>
 5    0  0.6417432E-005  0.2243589E+03  0.7546771E-02  0.1130674E+00
         21   -1    0    0  502  501  0.00000000000E+00  0.00000000000E+00  0.51140709989E+03  0.51140709989E+03  0.00000000000E+00 0. -1.
         21   -1    0    0  501  502 -0.00000000000E+00 -0.00000000000E+00 -0.98428254385E+02  0.98428254385E+02  0.00000000000E+00 0. -1.
         25    1    1    2    0    0  0.85882977250E+02  0.31345854706E+02  0.22857484208E+03  0.27609764002E+03  0.12500000000E+03 0.  0.
         25    1    1    2    0    0 -0.81060130288E+02 -0.18553714375E+02  0.12149031238E+03  0.19313177119E+03  0.12500000000E+03 0.  0.
         25    1    1    2    0    0 -0.48228469619E+01 -0.12792140330E+02  0.62913691039E+02  0.14060594307E+03  0.12500000000E+03 0.  0.
</event>
<event>
 5    0  0.5720942E-005  0.3063246E+03  0.7546771E-02  0.1082121E+00
         21   -1    0    0  502  501  0.00000000000E+00  0.00000000000E+00  0.34278733259E+03  0.34278733259E+03  0.00000000000E+00 0. -1.
         21   -1    0    0  501  502 -0.00000000000E+00 -0.00000000000E+00 -0.27374037105E+03  0.27374037105E+03  0.00000000000E+00 0. -1.
         25    1    1    2    0    0  0.13401011723E+02 -0.90491214971E+02 -0.17087381049E+03  0.23063197136E+03  0.12500000000E+03 0.  0.
         25    1    1    2    0    0  0.18305175874E+02  0.11215289174E+03  0.11017363300E+03  0.20168435734E+03  0.12500000000E+03 0.  0.
         25    1    1    2    0    0 -0.31706187598E+02 -0.21661676768E+02  0.12974713902E+03  0.18421137494E+03  0.12500000000E+03 0.  0.
</event>
<event>
 5    0  0.5720942E-005  0.2873207E+03  0.7546771E-02  0.1091756E+00
         21   -1    0    0  502  501  0.00000000000E+00  0.00000000000E+00  0.67041884715E+03  0.67041884715E+03  0.00000000000E+00 0.  1.
         21   -1    0    0  501  502 -0.00000000000E+00 -0.00000000000E+00 -0.12313674786E+03  0.12313674786E+03  0.00000000000E+00 0.  1.
         25    1    1    2    0    0 -0.89946648603E+02 -0.15280053631E+02  0.37793532811E+03  0.40839195862E+03  0.12500000000E+03 0.  0.
         25    1    1    2    0    0  0.12867332854E+03 -0.57937074898E+02  0.54354717348E+02  0.19619624212E+03  0.12500000000E+03 0.  0.
         25    1    1    2    0    0 -0.38726679934E+02  0.73217128529E+02  0.11499205384E+03  0.18896739426E+03  0.12500000000E+03 0.  0.
</event>
<event>
 5    0  0.5720942E-005  0.2377612E+03  0.7546771E-02  0.1121293E+00
         21   -1    0    0  502  501  0.00000000000E+00  0.00000000000E+00  0.38468738921E+02  0.38468738921E+02  0.00000000000E+00 0. -1.
         21   -1    0    0  501  502 -0.00000000000E+00 -0.00000000000E+00 -0.14695150722E+04  0.14695150722E+04  0.00000000000E+00 0. -1.
         25    1    1    2    0    0 -0.67385156383E+02  0.45326351784E+02 -0.25920986018E+03  0.29901503153E+03  0.12500000000E+03 0.  0.
         25    1    1    2    0    0  0.50654576401E+02 -0.74919535968E+02 -0.81194720297E+03  0.82647570042E+03  0.12500000000E+03 0.  0.
         25    1    1    2    0    0  0.16730579982E+02  0.29593184184E+02 -0.35988927014E+03  0.38249307918E+03  0.12500000000E+03 0.  0.
</event>
<event>
 5    0  0.5720942E-005  0.4644063E+03  0.7546771E-02  0.1023511E+00
         21   -1    0    0  502  501  0.00000000000E+00  0.00000000000E+00  0.49921065360E+03  0.49921065360E+03  0.00000000000E+00 0. -1.
         21   -1    0    0  501  502 -0.00000000000E+00 -0.00000000000E+00 -0.43202847034E+03  0.43202847034E+03  0.00000000000E+00 0. -1.
         25    1    1    2    0    0  0.15201959084E+03 -0.13153844871E+02  0.40344939657E+03  0.44908729133E+03  0.12500000000E+03 0.  0.
         25    1    1    2    0    0  0.14504300739E+02  0.22441211133E+02 -0.75987441340E+02  0.14870465339E+03  0.12500000000E+03 0.  0.
         25    1    1    2    0    0 -0.16652389158E+03 -0.92873662627E+01 -0.26027977197E+03  0.33344717923E+03  0.12500000000E+03 0.  0.
</event>
<event>
 5    0  0.5720942E-005  0.2790300E+03  0.7546771E-02  0.1096220E+00
         21   -1    0    0  502  501  0.00000000000E+00  0.00000000000E+00  0.18460441154E+03  0.18460441154E+03  0.00000000000E+00 0. -1.
         21   -1    0    0  501  502 -0.00000000000E+00 -0.00000000000E+00 -0.42175453049E+03  0.42175453049E+03  0.00000000000E+00 0. -1.
         25    1    1    2    0    0  0.31556268496E+02 -0.20387346631E+02 -0.12919782585E+03  0.18365326076E+03  0.12500000000E+03 0.  0.
         25    1    1    2    0    0 -0.51813463564E+02  0.11674815615E+03  0.62680193896E+02  0.18939000417E+03  0.12500000000E+03 0.  0.
         25    1    1    2    0    0  0.20257195068E+02 -0.96360809523E+02 -0.17063248700E+03  0.23331567711E+03  0.12500000000E+03 0.  0.
</event>
<event>
 5    0  0.5720942E-005  0.3462809E+03  0.7546771E-02  0.1064152E+00
         21   -1    0    0  502  501  0.00000000000E+00  0.00000000000E+00  0.33556991742E+03  0.33556991742E+03  0.00000000000E+00 0. -1.
         21   -1    0    0  501  502 -0.00000000000E+00 -0.00000000000E+00 -0.35733366246E+03  0.35733366246E+03  0.00000000000E+00 0. -1.
         25    1    1    2    0    0  0.10513875052E+03 -0.23314689391E+03 -0.52356297742E+02  0.28944397198E+03  0.12500000000E+03 0.  0.
         25    1    1    2    0    0 -0.11670642705E+03  0.20509150935E+03  0.54722967197E+02  0.27258488671E+03  0.12500000000E+03 0.  0.
         25    1    1    2    0    0  0.11567676528E+02  0.28055384560E+02 -0.24130414499E+02  0.13087472119E+03  0.12500000000E+03 0.  0.
</event>
<event>
 5    0  0.5897553E-005  0.3637665E+03  0.7546771E-02  0.1057102E+00
         21   -1    0    0  502  501  0.00000000000E+00  0.00000000000E+00  0.74349146749E+03  0.74349146749E+03  0.00000000000E+00 0. -1.
         21   -1    0    0  501  502 -0.00000000000E+00 -0.00000000000E+00 -0.17797928963E+03  0.17797928963E+03  0.00000000000E+00 0. -1.
         25    1    1    2    0    0  0.46870840928E+02  0.16775550790E+03  0.61590283798E+02  0.22306310591E+03  0.12500000000E+03 0.  0.
         25    1    1    2    0    0 -0.51555207600E+02  0.89814780129E+02  0.31791229091E+03  0.35695638231E+03  0.12500000000E+03 0.  0.
         25    1    1    2    0    0  0.46843666720E+01 -0.25757028803E+03  0.18600960314E+03  0.34145126889E+03  0.12500000000E+03 0.  0.
</event>
<event>
 5    0  0.5720942E-005  0.3074753E+03  0.7546771E-02  0.1081562E+00
         21   -1    0    0  502  501  0.00000000000E+00  0.00000000000E+00  0.17809077781E+04  0.17809077781E+04  0.00000000000E+00 0.  1.
         21   -1    0    0  501  502 -0.00000000000E+00 -0.00000000000E+00 -0.53085889402E+02  0.53085889402E+02  0.00000000000E+00 0.  1.
         25    1    1    2    0    0 -0.12194741646E+03 -0.45592341436E+02  0.74456677261E+03  0.76612956662E+03  0.12500000000E+03 0.  0.
         25    1    1    2    0    0  0.26504197736E+02 -0.81369087106E+02  0.72108258077E+03  0.73682324143E+03  0.12500000000E+03 0.  0.
         25    1    1    2    0    0  0.95443218724E+02  0.12696142854E+03  0.26217253528E+03  0.33104085940E+03  0.12500000000E+03 0.  0.
</event>
<event>
 5    0  0.5720942E-005  0.3333205E+03  0.7546771E-02  0.1069677E+00
         21   -1    0    0  502  501  0.00000000000E+00  0.00000000000E+00  0.59981555219E+03  0.59981555219E+03  0.00000000000E+00 0. -1.
         21   -1    0    0  501  502 -0.00000000000E+00 -0.00000000000E+00 -0.18522792050E+03  0.18522792050E+03  0.00000000000E+00 0. -1.
         25    1    1    2    0    0  0.12983433610E+03  0.77537659688E+02  0.13449719917E+03  0.23787294946E+03  0.12500000000E+03 0.  0.
         25    1    1    2    0    0 -0.13010992163E+03 -0.30095937583E+01  0.34381930250E+03  0.38829674494E+03  0.12500000000E+03 0.  0.
         25    1    1    2    0    0  0.27558552929E+00 -0.74528065930E+02 -0.63728869981E+02  0.15887377829E+03  0.12500000000E+03 0.  0.
</event>
<event>
 5    0  0.5720942E-005  0.3100606E+03  0.7546771E-02  0.1080317E+00
         21   -1    0    0  502  501  0.00000000000E+00  0.00000000000E+00  0.29036675737E+03  0.29036675737E+03  0.00000000000E+00 0.  1.
         21   -1    0    0  501  502 -0.00000000000E+00 -0.00000000000E+00 -0.33109007576E+03  0.33109007576E+03  0.00000000000E+00 0.  1.
         25    1    1    2    0    0 -0.18391850983E+03 -0.14380195498E+03  0.32732526398E+02  0.26683597733E+03  0.12500000000E+03 0.  0.
         25    1    1    2    0    0  0.10963640101E+03  0.71392469475E+02 -0.63912492931E+02  0.19190318360E+03  0.12500000000E+03 0.  0.
         25    1    1    2    0    0  0.74282108820E+02  0.72409485506E+02 -0.95433518475E+01  0.16271767220E+03  0.12500000000E+03 0.  0.
</event>
<event>
 5    0  0.5720942E-005  0.5111508E+03  0.7546771E-02  0.1010909E+00
         21   -1    0    0  502  501  0.00000000000E+00  0.00000000000E+00  0.23838856476E+04  0.23838856476E+04  0.00000000000E+00 0. -1.
         21   -1    0    0  501  502 -0.00000000000E+00 -0.00000000000E+00 -0.10960053639E+03  0.10960053639E+03  0.00000000000E+00 0. -1.
         25    1    1    2    0    0 -0.32762155391E+03 -0.81404351208E+02  0.13302941647E+04  0.13781400929E+04  0.12500000000E+03 0.  0.
         25    1    1    2    0    0 -0.63720305791E+02  0.59953253786E+02  0.11906963097E+03  0.19353874813E+03  0.12500000000E+03 0.  0.
         25    1    1    2    0    0  0.39134185970E+03  0.21451097422E+02  0.82492131552E+03  0.92180734296E+03  0.12500000000E+03 0.  0.
</event>
<event>
 5    0  0.5720942E-005  0.4879969E+03  0.7546771E-02  0.1016960E+00
         21   -1    0    0  502  501  0.00000000000E+00  0.00000000000E+00  0.11820089453E+03  0.11820089453E+03  0.00000000000E+00 0.  1.
         21   -1    0    0  501  502 -0.00000000000E+00 -0.00000000000E+00 -0.20147140577E+04  0.20147140577E+04  0.00000000000E+00 0.  1.
         25    1    1    2    0    0  0.18407205084E+03  0.13683826335E+03 -0.77263684065E+03  0.81559788974E+03  0.12500000000E+03 0.  0.
         25    1    1    2    0    0 -0.13509212017E+03  0.45596353663E+02 -0.20258432630E+02  0.19069429067E+03  0.12500000000E+03 0.  0.
         25    1    1    2    0    0 -0.48979930667E+02 -0.18243461701E+03 -0.11036178899E+04  0.11266227718E+04  0.12500000000E+03 0.  0.
</event>
<event>
 5    0  0.5720942E-005  0.4783944E+03  0.7546771E-02  0.1019577E+00
         21   -1    0    0  502  501  0.00000000000E+00  0.00000000000E+00  0.44835578930E+03  0.44835578930E+03  0.00000000000E+00 0. -1.
         21   -1    0    0  501  502 -0.00000000000E+00 -0.00000000000E+00 -0.51044543904E+03  0.51044543904E+03  0.00000000000E+00 0. -1.
         25    1    1    2    0    0  0.13176078152E+03 -0.56967305185E+02 -0.24317483139E+03  0.30881252570E+03  0.12500000000E+03 0.  0.
         25    1    1    2    0    0  0.16211841006E+03  0.18583763218E+03  0.47119846076E+02  0.28046975650E+03  0.12500000000E+03 0.  0.
         25    1    1    2    0    0 -0.29387919159E+03 -0.12887032699E+03  0.13396533557E+03  0.36951894614E+03  0.12500000000E+03 0.  0.
</event>
<event>
 5    0  0.5720942E-005  0.4122352E+03  0.7546771E-02  0.1039624E+00
         21   -1    0    0  502  501  0.00000000000E+00  0.00000000000E+00  0.10153953783E+03  0.10153953783E+03  0.00000000000E+00 0. -1.
         21   -1    0    0  501  502 -0.00000000000E+00 -0.00000000000E+00 -0.16736129294E+04  0.16736129294E+04  0.00000000000E+00 0. -1.
         25    1    1    2    0    0  0.29075025952E+03  0.11882035083E+03 -0.59822651771E+03  0.68713459793E+03  0.12500000000E+03 0.  0.
         25    1    1    2    0    0 -0.92698918005E+01 -0.11300094138E+03 -0.25310811176E+03  0.30421022317E+03  0.12500000000E+03 0.  0.
         25    1    1    2    0    0 -0.28148036772E+03 -0.58194094479E+01 -0.72073876206E+03  0.78380764609E+03  0.12500000000E+03 0.  0.
</event>
<event>
 5    0  0.5720942E-005  0.3170854E+03  0.7546771E-02  0.1076999E+00
         21   -1    0    0  502  501  0.00000000000E+00  0.00000000000E+00  0.12283362387E+04  0.12283362387E+04  0.00000000000E+00 0. -1.
         21   -1    0    0  501  502 -0.00000000000E+00 -0.00000000000E+00 -0.81853135871E+02  0.81853135871E+02  0.00000000000E+00 0. -1.
         25    1    1    2    0    0  0.13914258804E+03 -0.29967982920E+01  0.29042547074E+03  0.34545852814E+03  0.12500000000E+03 0.  0.
         25    1    1    2    0    0  0.56011699727E+02  0.11697142414E+03  0.27342471171E+03  0.32742281158E+03  0.12500000000E+03 0.  0.
         25    1    1    2    0    0 -0.19515428777E+03 -0.11397462585E+03  0.58263292038E+03  0.63730803485E+03  0.12500000000E+03 0.  0.
</event>
<event>
 5    0  0.5720942E-005  0.2837026E+03  0.7546771E-02  0.1093684E+00
         21   -1    0    0  502  501  0.00000000000E+00  0.00000000000E+00  0.47906624988E+02  0.47906624988E+02  0.00000000000E+00 0. -1.
         21   -1    0    0  501  502 -0.00000000000E+00 -0.00000000000E+00 -0.16800846445E+04  0.16800846445E+04  0.00000000000E+00 0. -1.
         25    1    1    2    0    0  0.68979633857E+02 -0.12929144346E+03 -0.28212600183E+03  0.34160583740E+03  0.12500000000E+03 0.  0.
         25    1    1    2    0    0 -0.70097467646E+02  0.11317494764E+03 -0.65411553973E+03  0.67912764857E+03  0.12500000000E+03 0.  0.
         25    1    1    2    0    0  0.11178337885E+01  0.16116495822E+02 -0.69593647797E+03  0.70725778353E+03  0.12500000000E+03 0.  0.
</event>
<event>
 5    0  0.5720942E-005  0.3518564E+03  0.7546771E-02  0.1061856E+00
         21   -1    0    0  502  501  0.00000000000E+00  0.00000000000E+00  0.17162962677E+03  0.17162962677E+03  0.00000000000E+00 0.  1.
         21   -1    0    0  501  502 -0.00000000000E+00 -0.00000000000E+00 -0.72133761854E+03  0.72133761854E+03  0.00000000000E+00 0.  1.
         25    1    1    2    0    0 -0.20427454272E+02 -0.22864459914E+03 -0.16855770832E+03  0.31101822236E+03  0.12500000000E+03 0.  0.
         25    1    1    2    0    0 -0.89091121779E+02  0.14172969982E+03 -0.32466966253E+03  0.38608279624E+03  0.12500000000E+03 0.  0.
         25    1    1    2    0    0  0.10951857605E+03  0.86914899326E+02 -0.56480620931E+02  0.19586622671E+03  0.12500000000E+03 0.  0.
</event>
<event>
 5    0  0.5720942E-005  0.2563162E+03  0.7546771E-02  0.1109377E+00
         21   -1    0    0  502  501  0.00000000000E+00  0.00000000000E+00  0.16005252184E+04  0.16005252184E+04  0.00000000000E+00 0.  1.
         21   -1    0    0  501  502 -0.00000000000E+00 -0.00000000000E+00 -0.41047756421E+02  0.41047756421E+02  0.00000000000E+00 0.  1.
         25    1    1    2    0    0 -0.67510684964E+02  0.32586540516E+02  0.77759491725E+03  0.79113742836E+03  0.12500000000E+03 0.  0.
         25    1    1    2    0    0  0.34542070225E+02  0.87407074770E+02  0.32443172267E+03  0.36015842904E+03  0.12500000000E+03 0.  0.
         25    1    1    2    0    0  0.32968614740E+02 -0.11999361529E+03  0.45745082201E+03  0.49027711738E+03  0.12500000000E+03 0.  0.
</event>
<event>
 5    0  0.5720942E-005  0.3222677E+03  0.7546771E-02  0.1074610E+00
         21   -1    0    0  502  501  0.00000000000E+00  0.00000000000E+00  0.11463110464E+03  0.11463110464E+03  0.00000000000E+00 0. -1.
         21   -1    0    0  501  502 -0.00000000000E+00 -0.00000000000E+00 -0.90600602972E+03  0.90600602972E+03  0.00000000000E+00 0. -1.
         25    1    1    2    0    0 -0.99183045755E+02 -0.27293860525E+01 -0.36110738051E+03  0.39480155316E+03  0.12500000000E+03 0.  0.
         25    1    1    2    0    0  0.14539089848E+03 -0.93388540277E+02 -0.40752200652E+03  0.45995556156E+03  0.12500000000E+03 0.  0.
         25    1    1    2    0    0 -0.46207852722E+02  0.96117926330E+02 -0.22745538053E+02  0.16588001964E+03  0.12500000000E+03 0.  0.
</event>
<event>
 5    0  0.5720942E-005  0.3053805E+03  0.7546771E-02  0.1082581E+00
         21   -1    0    0  502  501  0.00000000000E+00  0.00000000000E+00  0.33844477235E+03  0.33844477235E+03  0.00000000000E+00 0. -1.
         21   -1    0    0  501  502 -0.00000000000E+00 -0.00000000000E+00 -0.27554651327E+03  0.27554651327E+03  0.00000000000E+00 0. -1.
         25    1    1    2    0    0  0.14474013706E+03 -0.15929497512E+03 -0.41587996934E+02  0.25234729613E+03  0.12500000000E+03 0.  0.
         25    1    1    2    0    0 -0.46733238888E+02  0.79222317005E+02 -0.29688622660E+00  0.15519426301E+03  0.12500000000E+03 0.  0.
         25    1    1    2    0    0 -0.98006898170E+02  0.80072658118E+02  0.10478314224E+03  0.20644972648E+03  0.12500000000E+03 0.  0.
</event>
<event>
 5    0  0.5720942E-005  0.2898478E+03  0.7546771E-02  0.1090429E+00
         21   -1    0    0  502  501  0.00000000000E+00  0.00000000000E+00  0.58716733341E+03  0.58716733341E+03  0.00000000000E+00 0. -1.
         21   -1    0    0  501  502 -0.00000000000E+00 -0.00000000000E+00 -0.14307977324E+03  0.14307977324E+03  0.00000000000E+00 0. -1.
         25    1    1    2    0    0  0.48746517357E+00  0.18368464054E+03  0.23919553329E+03  0.32646559993E+03  0.12500000000E+03 0.  0.
         25    1    1    2    0    0 -0.30092809458E+02 -0.20567909133E+02  0.33225014836E+02  0.13437826341E+03  0.12500000000E+03 0.  0.
         25    1    1    2    0    0  0.29605344284E+02 -0.16311673141E+03  0.17166701204E+03  0.26940324330E+03  0.12500000000E+03 0.  0.
</event>
<event>
 5    0  0.5720942E-005  0.5188540E+03  0.7546771E-02  0.1008972E+00
         21   -1    0    0  502  501  0.00000000000E+00  0.00000000000E+00  0.15596123462E+04  0.15596123462E+04  0.00000000000E+00 0.  1.
         21   -1    0    0  501  502 -0.00000000000E+00 -0.00000000000E+00 -0.17261307484E+03  0.17261307484E+03  0.00000000000E+00 0.  1.
         25    1    1    2    0    0  0.15823660827E+03  0.17466796061E+03  0.29702930689E+03  0.39924820577E+03  0.12500000000E+03 0.  0.
         25    1    1    2    0    0 -0.30291706107E+03 -0.35810432471E+03  0.56463584052E+03  0.74460465058E+03  0.12500000000E+03 0.  0.
         25    1    1    2    0    0  0.14468045281E+03  0.18343636411E+03  0.52533412395E+03  0.58837256469E+03  0.12500000000E+03 0.  0.
</event>
<event>
 5    0  0.5720942E-005  0.3009948E+03  0.7546771E-02  0.1084744E+00
         21   -1    0    0  502  501  0.00000000000E+00  0.00000000000E+00  0.58634537917E+03  0.58634537917E+03  0.00000000000E+00 0.  1.
         21   -1    0    0  501  502 -0.00000000000E+00 -0.00000000000E+00 -0.15451284216E+03  0.15451284216E+03  0.00000000000E+00 0.  1.
         25    1    1    2    0    0  0.22107389955E+02  0.42865504073E+02  0.36663424285E+03  0.39034837794E+03  0.12500000000E+03 0.  0.
         25    1    1    2    0    0  0.12504213595E+02 -0.24646969201E+02  0.14789884363E+03  0.19560903966E+03  0.12500000000E+03 0.  0.
         25    1    1    2    0    0 -0.34611603550E+02 -0.18218534872E+02 -0.82700549468E+02  0.15490080373E+03  0.12500000000E+03 0.  0.
</event>
<event>
 5    0  0.5720942E-005  0.3344249E+03  0.7546771E-02  0.1069196E+00
         21   -1    0    0  502  501  0.00000000000E+00  0.00000000000E+00  0.97425063375E+02  0.97425063375E+02  0.00000000000E+00 0.  1.
         21   -1    0    0  501  502 -0.00000000000E+00 -0.00000000000E+00 -0.11479593567E+04  0.11479593567E+04  0.00000000000E+00 0.  1.
         25    1    1    2    0    0  0.12953556744E+03 -0.11269834027E+03 -0.48279596984E+03  0.52744414645E+03  0.12500000000E+03 0.  0.
         25    1    1    2    0    0  0.49886954534E+02  0.11476000965E+03 -0.41523060974E+03  0.45133139412E+03  0.12500000000E+03 0.  0.
         25    1    1    2    0    0 -0.17942252197E+03 -0.20616693832E+01 -0.15250771370E+03  0.26660887947E+03  0.12500000000E+03 0.  0.
</event>
<event>
 5    0  0.5720942E-005  0.3504617E+03  0.7546771E-02  0.1062426E+00
         21   -1    0    0  502  501  0.00000000000E+00  0.00000000000E+00  0.40052415420E+03  0.40052415420E+03  0.00000000000E+00 0.  1.
         21   -1    0    0  501  502 -0.00000000000E+00 -0.00000000000E+00 -0.30665675553E+03  0.30665675553E+03  0.00000000000E+00 0.  1.
         25    1    1    2    0    0  0.20497745072E+03  0.16568990147E+03  0.20746510567E+02  0.29244540764E+03  0.12500000000E+03 0.  0.
         25    1    1    2    0    0 -0.12109728653E+03 -0.18736963789E+03  0.54950676435E+02  0.26156550011E+03  0.12500000000E+03 0.  0.
         25    1    1    2    0    0 -0.83880164187E+02  0.21679736419E+02  0.18170211673E+02  0.15317000198E+03  0.12500000000E+03 0.  0.
</event>
<event>
 5    0  0.5720942E-005  0.2428048E+03  0.7546771E-02  0.1117938E+00
         21   -1    0    0  502  501  0.00000000000E+00  0.00000000000E+00  0.47117414677E+03  0.47117414677E+03  0.00000000000E+00 0.  1.
         21   -1    0    0  501  502 -0.00000000000E+00 -0.00000000000E+00 -0.12512186740E+03  0.12512186740E+03  0.00000000000E+00 0.  1.
         25    1    1    2    0    0 -0.10298419162E+03  0.64310393381E+02  0.12965541715E+03  0.21720289505E+03  0.12500000000E+03 0.  0.
         25    1    1    2    0    0  0.33740532651E+01 -0.82936550585E+02  0.96165984009E+02  0.17822107658E+03  0.12500000000E+03 0.  0.
         25    1    1    2    0    0  0.99610138356E+02  0.18626157204E+02  0.12023087821E+03  0.20087204253E+03  0.12500000000E+03 0.  0.
</event>
<event>
 5    0  0.5720942E-005  0.2551525E+03  0.7546771E-02  0.1110091E+00
         21   -1    0    0  502  501  0.00000000000E+00  0.00000000000E+00  0.10170354997E+03  0.10170354997E+03  0.00000000000E+00 0.  1.
         21   -1    0    0  501  502 -0.00000000000E+00 -0.00000000000E+00 -0.64012305833E+03  0.64012305833E+03  0.00000000000E+00 0.  1.
         25    1    1    2    0    0 -0.13853842774E+03  0.30980385723E+02 -0.16668224200E+03  0.25211237585E+03  0.12500000000E+03 0.  0.
         25    1    1    2    0    0  0.13630403746E+03 -0.11402468353E+02 -0.16936254858E+03  0.25103282608E+03  0.12500000000E+03 0.  0.
         25    1    1    2    0    0  0.22343902846E+01 -0.19577917370E+02 -0.20237471779E+03  0.23868140637E+03  0.12500000000E+03 0.  0.
</event>
<event>
 5    0  0.5720942E-005  0.4581858E+03  0.7546771E-02  0.1025309E+00
         21   -1    0    0  502  501  0.00000000000E+00  0.00000000000E+00  0.12004693419E+04  0.12004693419E+04  0.00000000000E+00 0. -1.
         21   -1    0    0  501  502 -0.00000000000E+00 -0.00000000000E+00 -0.17487676202E+03  0.17487676202E+03  0.00000000000E+00 0. -1.
         25    1    1    2    0    0  0.21792825834E+03  0.16500816737E+02  0.12403806549E+03  0.28066963574E+03  0.12500000000E+03 0.  0.
         25    1    1    2    0    0  0.14990432323E+03  0.24603899261E+02  0.48609083662E+03  0.52439103675E+03  0.12500000000E+03 0.  0.
         25    1    1    2    0    0 -0.36783258158E+03 -0.41104715998E+02  0.41546367777E+03  0.57028543142E+03  0.12500000000E+03 0.  0.
</event>
<event>
 5    0  0.5720942E-005  0.3580096E+03  0.7546771E-02  0.1059375E+00
         21   -1    0    0  502  501  0.00000000000E+00  0.00000000000E+00  0.75104602735E+02  0.75104602735E+02  0.00000000000E+00 0.  1.
         21   -1    0    0  501  502 -0.00000000000E+00 -0.00000000000E+00 -0.17065652068E+04  0.17065652068E+04  0.00000000000E+00 0.  1.
         25    1    1    2    0    0  0.23694259968E+03 -0.32616281747E+01 -0.37850762852E+03  0.46372994146E+03  0.12500000000E+03 0.  0.
         25    1    1    2    0    0 -0.12404963450E+03 -0.10666346375E+03 -0.69426147414E+03  0.72414736124E+03  0.12500000000E+03 0.  0.
         25    1    1    2    0    0 -0.11289296518E+03  0.10992509193E+03 -0.55869150142E+03  0.59379250684E+03  0.12500000000E+03 0.  0.
</event>
<event>
 5    0  0.5720942E-005  0.2825162E+03  0.7546771E-02  0.1094323E+00
         21   -1    0    0  502  501  0.00000000000E+00  0.00000000000E+00  0.19412933351E+03  0.19412933351E+03  0.00000000000E+00 0.  1.
         21   -1    0    0  501  502 -0.00000000000E+00 -0.00000000000E+00 -0.41114551334E+03  0.41114551334E+03  0.00000000000E+00 0.  1.
         25    1    1    2    0    0 -0.10634155396E+03  0.46812382610E+02 -0.76380629435E+02  0.18697306174E+03  0.12500000000E+03 0.  0.
         25    1    1    2    0    0  0.18476968579E+03 -0.18296650402E+02 -0.14714478049E+03  0.26786412718E+03  0.12500000000E+03 0.  0.
         25    1    1    2    0    0 -0.78428131829E+02 -0.28515732208E+02  0.65092300938E+01  0.15043765792E+03  0.12500000000E+03 0.  0.
</event>
<event>
 5    0  0.5720942E-005  0.3002483E+03  0.7546771E-02  0.1085117E+00
         21   -1    0    0  502  501  0.00000000000E+00  0.00000000000E+00  0.21427489268E+04  0.21427489268E+04  0.00000000000E+00 0.  1.
         21   -1    0    0  501  502 -0.00000000000E+00 -0.00000000000E+00 -0.42071669056E+02  0.42071669056E+02  0.00000000000E+00 0.  1.
         25    1    1    2    0    0 -0.13237601745E+03  0.25139059644E+02  0.13870328202E+04  0.13991570414E+04  0.12500000000E+03 0.  0.
         25    1    1    2    0    0  0.30757398906E+02 -0.79441687538E+02  0.41932695928E+03  0.44577696002E+03  0.12500000000E+03 0.  0.
         25    1    1    2    0    0  0.10161861855E+03  0.54302627894E+02  0.29431747823E+03  0.33988659436E+03  0.12500000000E+03 0.  0.
</event>
<event>
 5    0  0.5720942E-005  0.2682055E+03  0.7546771E-02  0.1102311E+00
         21   -1    0    0  502  501  0.00000000000E+00  0.00000000000E+00  0.83326686068E+03  0.83326686068E+03  0.00000000000E+00 0. -1.
         21   -1    0    0  501  502 -0.00000000000E+00 -0.00000000000E+00 -0.86327941651E+02  0.86327941651E+02  0.00000000000E+00 0. -1.
         25    1    1    2    0    0  0.96318461235E+01  0.54157608315E+02  0.29073090896E+03  0.32120909144E+03  0.12500000000E+03 0.  0.
         25    1    1    2    0    0 -0.55817199442E+02 -0.94388341094E+02  0.57283320830E+02  0.17587238991E+03  0.12500000000E+03 0.  0.
         25    1    1    2    0    0  0.46185353319E+02  0.40230732778E+02  0.39892468923E+03  0.42251332098E+03  0.12500000000E+03 0.  0.
</event>
<event>
 5    0  0.5792774E-005  0.2814368E+03  0.7546771E-02  0.1094907E+00
         21   -1    0    0  502  501  0.00000000000E+00  0.00000000000E+00  0.84271881241E+02  0.84271881241E+02  0.00000000000E+00 0.  1.
         21   -1    0    0  501  502 -0.00000000000E+00 -0.00000000000E+00 -0.93989426228E+03  0.93989426228E+03  0.00000000000E+00 0.  1.
         25    1    1    2    0    0  0.12526369020E+03  0.28022302771E+01 -0.59959565144E+03  0.62517100845E+03  0.12500000000E+03 0.  0.
         25    1    1    2    0    0 -0.87486663634E+01  0.25102177713E+02 -0.73565763797E+02  0.14745704491E+03  0.12500000000E+03 0.  0.
         25    1    1    2    0    0 -0.11651502384E+03 -0.27904407990E+02 -0.18246096580E+03  0.25153809017E+03  0.12500000000E+03 0.  0.
</event>
<event>
 5    0  0.5720942E-005  0.2507462E+03  0.7546771E-02  0.1112834E+00
         21   -1    0    0  502  501  0.00000000000E+00  0.00000000000E+00  0.78123670328E+02  0.78123670328E+02  0.00000000000E+00 0. -1.
         21   -1    0    0  501  502 -0.00000000000E+00 -0.00000000000E+00 -0.80479666913E+03  0.80479666913E+03  0.00000000000E+00 0. -1.
         25    1    1    2    0    0  0.52808129047E+01 -0.26803891607E+02 -0.30310521189E+02  0.13149168523E+03  0.12500000000E+03 0.  0.
         25    1    1    2    0    0 -0.26885492906E+02 -0.39112401985E+02 -0.26199357765E+03  0.29413983825E+03  0.12500000000E+03 0.  0.
         25    1    1    2    0    0  0.21604680001E+02  0.65916293592E+02 -0.43436889996E+03  0.45728881597E+03  0.12500000000E+03 0.  0.
</event>
<event>
 5    0  0.5720942E-005  0.3914120E+03  0.7546771E-02  0.1046795E+00
         21   -1    0    0  502  501  0.00000000000E+00  0.00000000000E+00  0.11396411049E+04  0.11396411049E+04  0.00000000000E+00 0.  1.
         21   -1    0    0  501  502 -0.00000000000E+00 -0.00000000000E+00 -0.13443120774E+03  0.13443120774E+03  0.00000000000E+00 0.  1.
         25    1    1    2    0    0 -0.12818695880E+03  0.46519231098E+02  0.74758791711E+02  0.19952396399E+03  0.12500000000E+03 0.  0.
         25    1    1    2    0    0  0.19061312777E+03 -0.16863123300E+03  0.79713474084E+03  0.84606066702E+03  0.12500000000E+03 0.  0.
         25    1    1    2    0    0 -0.62426168967E+02  0.12211200191E+03  0.13331636461E+03  0.22848768163E+03  0.12500000000E+03 0.  0.
</event>
<event>
 5    0  0.5720942E-005  0.2671638E+03  0.7546771E-02  0.1102914E+00
         21   -1    0    0  502  501  0.00000000000E+00  0.00000000000E+00  0.24443775762E+03  0.24443775762E+03  0.00000000000E+00 0.  1.
         21   -1    0    0  501  502 -0.00000000000E+00 -0.00000000000E+00 -0.29200281059E+03  0.29200281059E+03  0.00000000000E+00 0.  1.
         25    1    1    2    0    0  0.58450793815E+02 -0.48004029059E+02 -0.87798275671E+02  0.17045356938E+03  0.12500000000E+03 0.  0.
         25    1    1    2    0    0 -0.10100451172E+03  0.13087839245E+03  0.12438964014E+02  0.20763138690E+03  0.12500000000E+03 0.  0.
         25    1    1    2    0    0  0.42553717907E+02 -0.82874363394E+02  0.27794258692E+02  0.15835561194E+03  0.12500000000E+03 0.  0.
</event>
<event>
 5    0  0.5720942E-005  0.2328198E+03  0.7546771E-02  0.1124671E+00
         21   -1    0    0  502  501  0.00000000000E+00  0.00000000000E+00  0.23250520310E+03  0.23250520310E+03  0.00000000000E+00 0.  1.
         21   -1    0    0  501  502 -0.00000000000E+00 -0.00000000000E+00 -0.23313476916E+03  0.23313476916E+03  0.00000000000E+00 0.  1.
         25    1    1    2    0    0  0.22073266585E+02 -0.47425360512E+02  0.84992640251E+02  0.15995356456E+03  0.12500000000E+03 0.  0.
         25    1    1    2    0    0  0.73506121074E+01  0.18130997439E+02 -0.11472856972E+03  0.17079346965E+03  0.12500000000E+03 0.  0.
         25    1    1    2    0    0 -0.29423878693E+02  0.29294363073E+02  0.29106363415E+02  0.13489293805E+03  0.12500000000E+03 0.  0.
</event>
<event>
 5    0  0.5720942E-005  0.2990074E+03  0.7546771E-02  0.1085738E+00
         21   -1    0    0  502  501  0.00000000000E+00  0.00000000000E+00  0.13650257444E+03  0.13650257444E+03  0.00000000000E+00 0.  1.
         21   -1    0    0  501  502 -0.00000000000E+00 -0.00000000000E+00 -0.65497261189E+03  0.65497261189E+03  0.00000000000E+00 0.  1.
         25    1    1    2    0    0 -0.17316660385E+03 -0.92736405744E+02 -0.91191873351E+02  0.25005533668E+03  0.12500000000E+03 0.  0.
         25    1    1    2    0    0  0.11663869076E+03  0.56803491562E+02 -0.17030065506E+03  0.24790831763E+03  0.12500000000E+03 0.  0.
         25    1    1    2    0    0  0.56527913085E+02  0.35932914182E+02 -0.25697750904E+03  0.29351153202E+03  0.12500000000E+03 0.  0.
</event>
<event>
 5    0  0.5720942E-005  0.2540538E+03  0.7546771E-02  0.1110769E+00
         21   -1    0    0  502  501  0.00000000000E+00  0.00000000000E+00  0.51102424674E+03  0.51102424674E+03  0.00000000000E+00 0.  1.
         21   -1    0    0  501  502 -0.00000000000E+00 -0.00000000000E+00 -0.12630192632E+03  0.12630192632E+03  0.00000000000E+00 0.  1.
         25    1    1    2    0    0  0.75978342749E+02  0.10730374259E+03  0.15908535731E+03  0.24128811129E+03  0.12500000000E+03 0.  0.
         25    1    1    2    0    0  0.36831180701E+02 -0.93080586661E+01  0.88926084314E+02  0.15803804700E+03  0.12500000000E+03 0.  0.
         25    1    1    2    0    0 -0.11280952345E+03 -0.97995683927E+02  0.13671087879E+03  0.23800001477E+03  0.12500000000E+03 0.  0.
</event>
<event>
 5    0  0.5720942E-005  0.3359509E+03  0.7546771E-02  0.1068534E+00
         21   -1    0    0  502  501  0.00000000000E+00  0.00000000000E+00  0.12924594649E+03  0.12924594649E+03  0.00000000000E+00 0. -1.
         21   -1    0    0  501  502 -0.00000000000E+00 -0.00000000000E+00 -0.87324194606E+03  0.87324194606E+03  0.00000000000E+00 0. -1.
         25    1    1    2    0    0 -0.24594666384E+03 -0.11728643780E+02 -0.28528502964E+03  0.39703887804E+03  0.12500000000E+03 0.  0.
         25    1    1    2    0    0  0.17268079708E+03  0.31336031520E+02 -0.14607744951E+03  0.26031562728E+03  0.12500000000E+03 0.  0.
         25    1    1    2    0    0  0.73265866757E+02 -0.19607387740E+02 -0.31263352043E+03  0.34513338723E+03  0.12500000000E+03 0.  0.
</event>
<event>
 5    0  0.5720942E-005  0.2410669E+03  0.7546771E-02  0.1119084E+00
         21   -1    0    0  502  501  0.00000000000E+00  0.00000000000E+00  0.23175509874E+03  0.23175509874E+03  0.00000000000E+00 0. -1.
         21   -1    0    0  501  502 -0.00000000000E+00 -0.00000000000E+00 -0.25075277606E+03  0.25075277606E+03  0.00000000000E+00 0. -1.
         25    1    1    2    0    0  0.10172181460E+03 -0.14080359891E+02  0.45257150121E+02  0.16798450446E+03  0.12500000000E+03 0.  0.
         25    1    1    2    0    0 -0.57755157204E+02  0.46261238094E+02 -0.96513752166E+02  0.17440087354E+03  0.12500000000E+03 0.  0.
         25    1    1    2    0    0 -0.43966657400E+02 -0.32180878203E+02  0.32258924730E+02  0.14012249680E+03  0.12500000000E+03 0.  0.
</event>
<event>
 5    0  0.6314341E-005  0.4091525E+03  0.7546771E-02  0.1040656E+00
         21   -1    0    0  502  501  0.00000000000E+00  0.00000000000E+00  0.18406034337E+03  0.18406034337E+03  0.00000000000E+00 0. -1.
         21   -1    0    0  501  502 -0.00000000000E+00 -0.00000000000E+00 -0.90951554980E+03  0.90951554980E+03  0.00000000000E+00 0. -1.
         25    1    1    2    0    0 -0.44396189819E+02 -0.14223892583E+03 -0.27455770911E+03  0.33646674327E+03  0.12500000000E+03 0.  0.
         25    1    1    2    0    0  0.20565281058E+03  0.19482995455E+03 -0.45020535841E+03  0.54640795604E+03  0.12500000000E+03 0.  0.
         25    1    1    2    0    0 -0.16125662076E+03 -0.52591028713E+02 -0.69213891088E+00  0.21070119387E+03  0.12500000000E+03 0.  0.
</event>
<event>
 5    0  0.5720942E-005  0.2973929E+03  0.7546771E-02  0.1086551E+00
         21   -1    0    0  502  501  0.00000000000E+00  0.00000000000E+00  0.33344178703E+03  0.33344178703E+03  0.00000000000E+00 0. -1.
         21   -1    0    0  501  502 -0.00000000000E+00 -0.00000000000E+00 -0.26524128959E+03  0.26524128959E+03  0.00000000000E+00 0. -1.
         25    1    1    2    0    0  0.57744771488E+02  0.17804593789E+03 -0.20683693498E+02  0.22602572821E+03  0.12500000000E+03 0.  0.
         25    1    1    2    0    0  0.55794890045E+02 -0.41773762702E+02  0.53528951590E+02  0.15280204732E+03  0.12500000000E+03 0.  0.
         25    1    1    2    0    0 -0.11353966153E+03 -0.13627217519E+03  0.35355239354E+02  0.21985530110E+03  0.12500000000E+03 0.  0.
</event>
<event>
 5    0  0.5720942E-005  0.2430117E+03  0.7546771E-02  0.1117803E+00
         21   -1    0    0  502  501  0.00000000000E+00  0.00000000000E+00  0.74146417639E+02  0.74146417639E+02  0.00000000000E+00 0. -1.
         21   -1    0    0  501  502 -0.00000000000E+00 -0.00000000000E+00 -0.79646038284E+03  0.79646038284E+03  0.00000000000E+00 0. -1.
         25    1    1    2    0    0 -0.10771848361E+03 -0.41710543002E+02 -0.14946528033E+03  0.22651249664E+03  0.12500000000E+03 0.  0.
         25    1    1    2    0    0  0.79210892334E+02  0.40221581346E+00 -0.38887066208E+03  0.41607681871E+03  0.12500000000E+03 0.  0.
         25    1    1    2    0    0  0.28507591277E+02  0.41308327189E+02 -0.18397802279E+03  0.22801748513E+03  0.12500000000E+03 0.  0.
</event>
<event>
 5    0  0.5720942E-005  0.2833831E+03  0.7546771E-02  0.1093855E+00
         21   -1    0    0  502  501  0.00000000000E+00  0.00000000000E+00  0.20883859433E+03  0.20883859433E+03  0.00000000000E+00 0.  1.
         21   -1    0    0  501  502 -0.00000000000E+00 -0.00000000000E+00 -0.38453603982E+03  0.38453603982E+03  0.00000000000E+00 0.  1.
         25    1    1    2    0    0 -0.42344333174E+02 -0.37369283102E+02 -0.24939579951E+02  0.13941480739E+03  0.12500000000E+03 0.  0.
         25    1    1    2    0    0  0.65017154193E+01 -0.11374150940E+03  0.44524663000E+02  0.17489096283E+03  0.12500000000E+03 0.  0.
         25    1    1    2    0    0  0.35842617755E+02  0.15111079250E+03 -0.19528252855E+03  0.27906886393E+03  0.12500000000E+03 0.  0.
</event>
<event>
 5    0  0.5720942E-005  0.2436767E+03  0.7546771E-02  0.1117367E+00
         21   -1    0    0  502  501  0.00000000000E+00  0.00000000000E+00  0.29736356978E+03  0.29736356978E+03  0.00000000000E+00 0. -1.
         21   -1    0    0  501  502 -0.00000000000E+00 -0.00000000000E+00 -0.19968259822E+03  0.19968259822E+03  0.00000000000E+00 0. -1.
         25    1    1    2    0    0  0.10243693995E+03  0.13161209242E+02  0.61636603319E+02  0.17346646640E+03  0.12500000000E+03 0.  0.
         25    1    1    2    0    0 -0.83039837570E+02  0.23711432234E+02 -0.57008129185E+02  0.16227376077E+03  0.12500000000E+03 0.  0.
         25    1    1    2    0    0 -0.19397102381E+02 -0.36872641476E+02  0.93052497431E+02  0.16130594083E+03  0.12500000000E+03 0.  0.
</event>
<event>
 5    0  0.5720942E-005  0.2934440E+03  0.7546771E-02  0.1088565E+00
         21   -1    0    0  502  501  0.00000000000E+00  0.00000000000E+00  0.73816789875E+02  0.73816789875E+02  0.00000000000E+00 0. -1.
         21   -1    0    0  501  502 -0.00000000000E+00 -0.00000000000E+00 -0.11665281143E+04  0.11665281143E+04  0.00000000000E+00 0. -1.
         25    1    1    2    0    0 -0.76115704426E+02 -0.10599901631E+03 -0.19016775515E+03  0.26233216924E+03  0.12500000000E+03 0.  0.
         25    1    1    2    0    0  0.84656739968E+02 -0.26670052809E+02 -0.64115598097E+03  0.65922988954E+03  0.12500000000E+03 0.  0.
         25    1    1    2    0    0 -0.85410355422E+01  0.13266906912E+03 -0.26138758827E+03  0.31878284535E+03  0.12500000000E+03 0.  0.
</event>
<event>
 5    0  0.5720942E-005  0.3411569E+03  0.7546771E-02  0.1066304E+00
         21   -1    0    0  502  501  0.00000000000E+00  0.00000000000E+00  0.94353615510E+03  0.94353615510E+03  0.00000000000E+00 0.  1.
         21   -1    0    0  501  502 -0.00000000000E+00 -0.00000000000E+00 -0.12335299918E+03  0.12335299918E+03  0.00000000000E+00 0.  1.
         25    1    1    2    0    0 -0.88606006283E+02  0.18039266926E+03  0.30795630754E+03  0.38840008603E+03  0.12500000000E+03 0.  0.
         25    1    1    2    0    0  0.16884157090E+03 -0.17757546934E+02  0.33483857659E+03  0.39568254815E+03  0.12500000000E+03 0.  0.
         25    1    1    2    0    0 -0.80235564619E+02 -0.16263512233E+03  0.17738827178E+03  0.28280652010E+03  0.12500000000E+03 0.  0.
</event>
<event>
 5    0  0.5720942E-005  0.3883062E+03  0.7546771E-02  0.1047906E+00
         21   -1    0    0  502  501  0.00000000000E+00  0.00000000000E+00  0.67745578712E+03  0.67745578712E+03  0.00000000000E+00 0.  1.
         21   -1    0    0  501  502 -0.00000000000E+00 -0.00000000000E+00 -0.22257053736E+03  0.22257053736E+03  0.00000000000E+00 0.  1.
         25    1    1    2    0    0 -0.64081907823E+02 -0.16642480364E+03  0.22302725548E+03  0.31172080916E+03  0.12500000000E+03 0.  0.
         25    1    1    2    0    0 -0.82360982447E+02  0.20936388934E+03  0.28499209406E+03  0.38400789480E+03  0.12500000000E+03 0.  0.
         25    1    1    2    0    0  0.14644289027E+03 -0.42939085706E+02 -0.53134099775E+02  0.20429762052E+03  0.12500000000E+03 0.  0.
</event>
<event>
 5    0  0.5720942E-005  0.3062382E+03  0.7546771E-02  0.1082163E+00
         21   -1    0    0  502  501  0.00000000000E+00  0.00000000000E+00  0.71776265288E+03  0.71776265288E+03  0.00000000000E+00 0.  1.
         21   -1    0    0  501  502 -0.00000000000E+00 -0.00000000000E+00 -0.13065859799E+03  0.13065859799E+03  0.00000000000E+00 0.  1.
         25    1    1    2    0    0  0.12965733661E+03  0.15238368561E+03  0.15972250091E+03  0.28490014018E+03  0.12500000000E+03 0.  0.
         25    1    1    2    0    0 -0.13388558850E+03 -0.21686201960E+02  0.18680726997E+03  0.26252161488E+03  0.12500000000E+03 0.  0.
         25    1    1    2    0    0  0.42282518901E+01 -0.13069748365E+03  0.24057428400E+03  0.30099949580E+03  0.12500000000E+03 0.  0.
</event>
<event>
 5    0  0.5720942E-005  0.2973078E+03  0.7546771E-02  0.1086594E+00
         21   -1    0    0  502  501  0.00000000000E+00  0.00000000000E+00  0.15358059972E+04  0.15358059972E+04  0.00000000000E+00 0. -1.
         21   -1    0    0  501  502 -0.00000000000E+00 -0.00000000000E+00 -0.57554098402E+02  0.57554098402E+02  0.00000000000E+00 0. -1.
         25    1    1    2    0    0 -0.83502213746E+02 -0.94978884448E+01  0.88068721724E+02  0.17448188826E+03  0.12500000000E+03 0.  0.
         25    1    1    2    0    0 -0.61879782510E+01 -0.46763246517E+01  0.50398377354E+03  0.51931185532E+03  0.12500000000E+03 0.  0.
         25    1    1    2    0    0  0.89690191997E+02  0.14174213097E+02  0.88619940355E+03  0.89956635203E+03  0.12500000000E+03 0.  0.
</event>
<event>
 5    0  0.5720942E-005  0.2491326E+03  0.7546771E-02  0.1113854E+00
         21   -1    0    0  502  501  0.00000000000E+00  0.00000000000E+00  0.11661602100E+03  0.11661602100E+03  0.00000000000E+00 0.  1.
         21   -1    0    0  501  502 -0.00000000000E+00 -0.00000000000E+00 -0.53223447450E+03  0.53223447450E+03  0.00000000000E+00 0.  1.
         25    1    1    2    0    0  0.89048681551E+02 -0.95283685726E+02 -0.23736172774E+03  0.29828549788E+03  0.12500000000E+03 0.  0.
         25    1    1    2    0    0  0.11497789881E+02  0.47025106025E+02 -0.71580151995E+02  0.15196143566E+03  0.12500000000E+03 0.  0.
         25    1    1    2    0    0 -0.10054647143E+03  0.48258579701E+02 -0.10667657376E+03  0.19860356196E+03  0.12500000000E+03 0.  0.
</event>
<event>
 5    0  0.5720942E-005  0.6522719E+03  0.7546771E-02  0.9802525E-01
         21   -1    0    0  502  501  0.00000000000E+00  0.00000000000E+00  0.12476677207E+04  0.12476677207E+04  0.00000000000E+00 0. -1.
         21   -1    0    0  501  502 -0.00000000000E+00 -0.00000000000E+00 -0.34100316411E+03  0.34100316411E+03  0.00000000000E+00 0. -1.
         25    1    1    2    0    0 -0.16811804196E+03 -0.18023059744E+02 -0.10129130088E+03  0.23339544629E+03  0.12500000000E+03 0.  0.
         25    1    1    2    0    0  0.30698333509E+03 -0.18697819185E+03  0.82835675857E+02  0.38946933312E+03  0.12500000000E+03 0.  0.
         25    1    1    2    0    0 -0.13886529313E+03  0.20500125159E+03  0.92512018163E+03  0.96580610541E+03  0.12500000000E+03 0.  0.
</event>
<event>
 5    0  0.5720942E-005  0.2719592E+03  0.7546771E-02  0.1100163E+00
         21   -1    0    0  502  501  0.00000000000E+00  0.00000000000E+00  0.14797276534E+03  0.14797276534E+03  0.00000000000E+00 0. -1.
         21   -1    0    0  501  502 -0.00000000000E+00 -0.00000000000E+00 -0.49983404376E+03  0.49983404376E+03  0.00000000000E+00 0. -1.
         25    1    1    2    0    0  0.81889531653E+02  0.10888283213E+03 -0.26067105402E+03  0.31958686602E+03  0.12500000000E+03 0.  0.
         25    1    1    2    0    0  0.27645102412E+02 -0.31107542104E+02 -0.35138986687E+02  0.13635130820E+03  0.12500000000E+03 0.  0.
         25    1    1    2    0    0 -0.10953463406E+03 -0.77775290030E+02 -0.56051237718E+02  0.19186863487E+03  0.12500000000E+03 0.  0.
</event>
<event>
 5    0  0.5720942E-005  0.2977464E+03  0.7546771E-02  0.1086373E+00
         21   -1    0    0  502  501  0.00000000000E+00  0.00000000000E+00  0.18028858531E+04  0.18028858531E+04  0.00000000000E+00 0.  1.
         21   -1    0    0  501  502 -0.00000000000E+00 -0.00000000000E+00 -0.49172770902E+02  0.49172770902E+02  0.00000000000E+00 0.  1.
         25    1    1    2    0    0  0.51167021960E+02 -0.93119137117E+02  0.19476471757E+03  0.25465178783E+03  0.12500000000E+03 0.  0.
         25    1    1    2    0    0 -0.23728667769E+02 -0.57412134016E+02  0.85237775712E+03  0.86373146501E+03  0.12500000000E+03 0.  0.
         25    1    1    2    0    0 -0.27438354191E+02  0.15053127113E+03  0.70657060755E+03  0.73367537121E+03  0.12500000000E+03 0.  0.
</event>
<event>
 5    0  0.5720942E-005  0.3321228E+03  0.7546771E-02  0.1070201E+00
         21   -1    0    0  502  501  0.00000000000E+00  0.00000000000E+00  0.87569204554E+03  0.87569204554E+03  0.00000000000E+00 0.  1.
         21   -1    0    0  501  502 -0.00000000000E+00 -0.00000000000E+00 -0.12596387837E+03  0.12596387837E+03  0.00000000000E+00 0.  1.
         25    1    1    2    0    0  0.24061105647E+03 -0.37575052235E+02  0.46446437925E+03  0.53912681684E+03  0.12500000000E+03 0.  0.
         25    1    1    2    0    0 -0.57556377385E+02  0.20693708657E+02  0.83335844985E+02  0.16220613187E+03  0.12500000000E+03 0.  0.
         25    1    1    2    0    0 -0.18305467908E+03  0.16881343579E+02  0.20192794293E+03  0.30032297520E+03  0.12500000000E+03 0.  0.
</event>
<event>
 5    0  0.5720942E-005  0.3557777E+03  0.7546771E-02  0.1060268E+00
         21   -1    0    0  502  501  0.00000000000E+00  0.00000000000E+00  0.23972614295E+03  0.23972614295E+03  0.00000000000E+00 0. -1.
         21   -1    0    0  501  502 -0.00000000000E+00 -0.00000000000E+00 -0.52800977523E+03  0.52800977523E+03  0.00000000000E+00 0. -1.
         25    1    1    2    0    0 -0.50982631391E+02 -0.53859168720E+02 -0.35136187315E+03  0.38023703747E+03  0.12500000000E+03 0.  0.
         25    1    1    2    0    0 -0.27381177582E+02  0.57914475514E+02 -0.96284174020E+02  0.17029227089E+03  0.12500000000E+03 0.  0.
         25    1    1    2    0    0  0.78363808973E+02 -0.40553067945E+01  0.15936241489E+03  0.21720660982E+03  0.12500000000E+03 0.  0.
</event>
<event>
 5    0  0.5720942E-005  0.2725927E+03  0.7546771E-02  0.1099805E+00
         21   -1    0    0  502  501  0.00000000000E+00  0.00000000000E+00  0.22731463427E+03  0.22731463427E+03  0.00000000000E+00 0.  1.
         21   -1    0    0  501  502 -0.00000000000E+00 -0.00000000000E+00 -0.32688959276E+03  0.32688959276E+03  0.00000000000E+00 0.  1.
         25    1    1    2    0    0 -0.10943809626E+03 -0.11560472052E+03 -0.84698009186E+02  0.21940806977E+03  0.12500000000E+03 0.  0.
         25    1    1    2    0    0  0.39035144068E+02 -0.23504488936E+02  0.10001035764E+02  0.13342122840E+03  0.12500000000E+03 0.  0.
         25    1    1    2    0    0  0.70402952192E+02  0.13910920945E+03 -0.24877985073E+02  0.20137492886E+03  0.12500000000E+03 0.  0.
</event>
<event>
 5    0  0.5720942E-005  0.2318822E+03  0.7546771E-02  0.1125322E+00
         21   -1    0    0  502  501  0.00000000000E+00  0.00000000000E+00  0.33253208277E+02  0.33253208277E+02  0.00000000000E+00 0. -1.
         21   -1    0    0  501  502 -0.00000000000E+00 -0.00000000000E+00 -0.16169673151E+04  0.16169673151E+04  0.00000000000E+00 0. -1.
         25    1    1    2    0    0 -0.65158583609E+02  0.46664779736E+02 -0.70104711370E+03  0.71659981741E+03  0.12500000000E+03 0.  0.
         25    1    1    2    0    0  0.22439985317E+02 -0.99759509297E+02 -0.49142491384E+03  0.51728034814E+03  0.12500000000E+03 0.  0.
         25    1    1    2    0    0  0.42718598292E+02  0.53094729561E+02 -0.39124207928E+03  0.41634035782E+03  0.12500000000E+03 0.  0.
</event>
<event>
 5    0  0.6295650E-005  0.2815433E+03  0.7546771E-02  0.1094849E+00
         21   -1    0    0  502  501  0.00000000000E+00  0.00000000000E+00  0.47160089550E+03  0.47160089550E+03  0.00000000000E+00 0. -1.
         21   -1    0    0  501  502 -0.00000000000E+00 -0.00000000000E+00 -0.16807984877E+03  0.16807984877E+03  0.00000000000E+00 0. -1.
         25    1    1    2    0    0  0.16230403454E+03 -0.56720434331E+02  0.89912901103E+02  0.23080107687E+03  0.12500000000E+03 0.  0.
         25    1    1    2    0    0 -0.11180494390E+03 -0.50682687932E+02  0.12375649277E+03  0.21449883412E+03  0.12500000000E+03 0.  0.
         25    1    1    2    0    0 -0.50499090643E+02  0.10740312226E+03  0.89851652847E+02  0.19438083328E+03  0.12500000000E+03 0.  0.
</event>
<event>
 5    0  0.5720942E-005  0.4134743E+03  0.7546771E-02  0.1039211E+00
         21   -1    0    0  502  501  0.00000000000E+00  0.00000000000E+00  0.36410118684E+03  0.36410118684E+03  0.00000000000E+00 0.  1.
         21   -1    0    0  501  502 -0.00000000000E+00 -0.00000000000E+00 -0.46954255063E+03  0.46954255063E+03  0.00000000000E+00 0.  1.
         25    1    1    2    0    0 -0.13389316022E+02 -0.33513423520E+03  0.36477531861E+02  0.35979138360E+03  0.12500000000E+03 0.  0.
         25    1    1    2    0    0  0.15087372573E+02  0.28672165000E+03 -0.13068653475E+03  0.33932418681E+03  0.12500000000E+03 0.  0.
         25    1    1    2    0    0 -0.16980565513E+01  0.48412585203E+02 -0.11232360904E+02  0.13452816706E+03  0.12500000000E+03 0.  0.
</event>
<event>
 5    0  0.5720942E-005  0.4087371E+03  0.7546771E-02  0.1040796E+00
         21   -1    0    0  502  501  0.00000000000E+00  0.00000000000E+00  0.12571376112E+03  0.12571376112E+03  0.00000000000E+00 0.  1.
         21   -1    0    0  501  502 -0.00000000000E+00 -0.00000000000E+00 -0.13289395843E+04  0.13289395843E+04  0.00000000000E+00 0.  1.
         25    1    1    2    0    0  0.11727869276E+03  0.15906253615E+03 -0.16475464409E+03  0.28604942743E+03  0.12500000000E+03 0.  0.
         25    1    1    2    0    0 -0.15154806300E+03  0.71881012154E+02 -0.74269746468E+03  0.77159459520E+03  0.12500000000E+03 0.  0.
         25    1    1    2    0    0  0.34269370242E+02 -0.23094354831E+03 -0.29577371441E+03  0.39700932278E+03  0.12500000000E+03 0.  0.
</event>
<event>
 5    0  0.5720942E-005  0.2944756E+03  0.7546771E-02  0.1088035E+00
         21   -1    0    0  502  501  0.00000000000E+00  0.00000000000E+00  0.17731320384E+03  0.17731320384E+03  0.00000000000E+00 0.  1.
         21   -1    0    0  501  502 -0.00000000000E+00 -0.00000000000E+00 -0.48905495252E+03  0.48905495252E+03  0.00000000000E+00 0.  1.
         25    1    1    2    0    0  0.73264082388E+02 -0.75159528075E+02 -0.55423948590E+02  0.17237573642E+03  0.12500000000E+03 0.  0.
         25    1    1    2    0    0 -0.14888151281E+03 -0.70929788170E+02 -0.17828588284E+03  0.27314391029E+03  0.12500000000E+03 0.  0.
         25    1    1    2    0    0  0.75617430427E+02  0.14608931624E+03 -0.78031917242E+02  0.22084850965E+03  0.12500000000E+03 0.  0.
</event>
<event>
 5    0  0.5720942E-005  0.3265277E+03  0.7546771E-02  0.1072684E+00
         21   -1    0    0  502  501  0.00000000000E+00  0.00000000000E+00  0.80128286171E+02  0.80128286171E+02  0.00000000000E+00 0.  1.
         21   -1    0    0  501  502 -0.00000000000E+00 -0.00000000000E+00 -0.13306204525E+04  0.13306204525E+04  0.00000000000E+00 0.  1.
         25    1    1    2    0    0  0.58338086247E+02 -0.45274188038E+02 -0.17348953990E+03  0.22622268866E+03  0.12500000000E+03 0.  0.
         25    1    1    2    0    0 -0.16314283590E+03  0.18119064302E+03 -0.70218677145E+03  0.75374856287E+03  0.12500000000E+03 0.  0.
         25    1    1    2    0    0  0.10480474965E+03 -0.13591645499E+03 -0.37481585497E+03  0.43077748714E+03  0.12500000000E+03 0.  0.
</event>
<event>
 5    0  0.6310937E-005  0.3577097E+03  0.7546771E-02  0.1059494E+00
         21   -1    0    0  502  501  0.00000000000E+00  0.00000000000E+00  0.57201296782E+03  0.57201296782E+03  0.00000000000E+00 0. -1.
         21   -1    0    0  501  502 -0.00000000000E+00 -0.00000000000E+00 -0.22369465378E+03  0.22369465378E+03  0.00000000000E+00 0. -1.
         25    1    1    2    0    0  0.19035166114E+03  0.10741035958E+02 -0.50259117565E+02  0.23345257259E+03  0.12500000000E+03 0.  0.
         25    1    1    2    0    0 -0.12980888328E+03  0.10420293892E+03  0.26946125704E+03  0.34050399073E+03  0.12500000000E+03 0.  0.
         25    1    1    2    0    0 -0.60542777857E+02 -0.11494397488E+03  0.12911617457E+03  0.22175105827E+03  0.12500000000E+03 0.  0.
</event>
<event>
 5    0  0.5720942E-005  0.2624665E+03  0.7546771E-02  0.1105670E+00
         21   -1    0    0  502  501  0.00000000000E+00  0.00000000000E+00  0.72872550770E+03  0.72872550770E+03  0.00000000000E+00 0. -1.
         21   -1    0    0  501  502 -0.00000000000E+00 -0.00000000000E+00 -0.94533067355E+02  0.94533067355E+02  0.00000000000E+00 0. -1.
         25    1    1    2    0    0  0.11820737711E+02  0.63545620538E+02  0.47045110182E+03  0.49104685615E+03  0.12500000000E+03 0.  0.
         25    1    1    2    0    0  0.10494669659E+02  0.28816144087E+02  0.98980533738E+02  0.16236580401E+03  0.12500000000E+03 0.  0.
         25    1    1    2    0    0 -0.22315407370E+02 -0.92361764625E+02  0.64760804781E+02  0.16984591490E+03  0.12500000000E+03 0.  0.
</event>
<event>
 5    0  0.5720942E-005  0.3683583E+03  0.7546771E-02  0.1055322E+00
         21   -1    0    0  502  501  0.00000000000E+00  0.00000000000E+00  0.35520248461E+03  0.35520248461E+03  0.00000000000E+00 0.  1.
         21   -1    0    0  501  502 -0.00000000000E+00 -0.00000000000E+00 -0.38200145929E+03  0.38200145929E+03  0.00000000000E+00 0.  1.
         25    1    1    2    0    0  0.65054355313E+02 -0.13432990580E+03 -0.53550011724E+01  0.19475694795E+03  0.12500000000E+03 0.  0.
         25    1    1    2    0    0  0.11319951224E+03  0.18805165125E+03  0.11756595356E+03  0.27861138983E+03  0.12500000000E+03 0.  0.
         25    1    1    2    0    0 -0.17825386755E+03 -0.53721745456E+02 -0.13900992706E+03  0.26383560611E+03  0.12500000000E+03 0.  0.
</event>
<event>
 5    0  0.5720942E-005  0.2972200E+03  0.7546771E-02  0.1086639E+00
         21   -1    0    0  502  501  0.00000000000E+00  0.00000000000E+00  0.26082075510E+04  0.26082075510E+04  0.00000000000E+00 0.  1.
         21   -1    0    0  501  502 -0.00000000000E+00 -0.00000000000E+00 -0.33869897095E+02  0.33869897095E+02  0.00000000000E+00 0.  1.
         25    1    1    2    0    0 -0.86274499636E+02 -0.49073465570E+02  0.73274684523E+03  0.74992961903E+03  0.12500000000E+03 0.  0.
         25    1    1    2    0    0  0.72908821264E+02 -0.13657975649E+03  0.65492676035E+03  0.68448797471E+03  0.12500000000E+03 0.  0.
         25    1    1    2    0    0  0.13365678372E+02  0.18565322206E+03  0.11866640483E+04  0.12076598543E+04  0.12500000000E+03 0.  0.
</event>
<event>
 5    0  0.5720942E-005  0.2390753E+03  0.7546771E-02  0.1120410E+00
         21   -1    0    0  502  501  0.00000000000E+00  0.00000000000E+00  0.31664015739E+02  0.31664015739E+02  0.00000000000E+00 0.  1.
         21   -1    0    0  501  502 -0.00000000000E+00 -0.00000000000E+00 -0.18051089086E+04  0.18051089086E+04  0.00000000000E+00 0.  1.
         25    1    1    2    0    0 -0.60906876350E+02 -0.35484507925E+02 -0.33153442648E+03  0.36126011935E+03  0.12500000000E+03 0.  0.
         25    1    1    2    0    0  0.11632032870E+03  0.43218140274E+02 -0.81864990075E+03  0.83738335696E+03  0.12500000000E+03 0.  0.
         25    1    1    2    0    0 -0.55413452352E+02 -0.77336323497E+01 -0.62326056560E+03  0.63812944800E+03  0.12500000000E+03 0.  0.
</event>
<event>
 5    0  0.5720942E-005  0.2439180E+03  0.7546771E-02  0.1117210E+00
         21   -1    0    0  502  501  0.00000000000E+00  0.00000000000E+00  0.15909266619E+03  0.15909266619E+03  0.00000000000E+00 0. -1.
         21   -1    0    0  501  502 -0.00000000000E+00 -0.00000000000E+00 -0.37397073395E+03  0.37397073395E+03  0.00000000000E+00 0. -1.
         25    1    1    2    0    0 -0.58759911213E+02 -0.20610631704E+02 -0.15787403854E+03  0.21077651043E+03  0.12500000000E+03 0.  0.
         25    1    1    2    0    0 -0.45721103051E+02 -0.26877670030E+02  0.17589950403E+02  0.13692054180E+03  0.12500000000E+03 0.  0.
         25    1    1    2    0    0  0.10448101426E+03  0.47488301734E+02 -0.74593979620E+02  0.18536634791E+03  0.12500000000E+03 0.  0.
</event>
<event>
 5    0  0.5720942E-005  0.3793606E+03  0.7546771E-02  0.1051170E+00
         21   -1    0    0  502  501  0.00000000000E+00  0.00000000000E+00  0.13983517724E+03  0.13983517724E+03  0.00000000000E+00 0. -1.
         21   -1    0    0  501  502 -0.00000000000E+00 -0.00000000000E+00 -0.10291720771E+04  0.10291720771E+04  0.00000000000E+00 0. -1.
         25    1    1    2    0    0 -0.25953382340E+02  0.27807160796E+03 -0.32470392492E+03  0.44615584280E+03  0.12500000000E+03 0.  0.
         25    1    1    2    0    0  0.11723724525E+03 -0.87732755510E+02 -0.16320704314E+03  0.25239482363E+03  0.12500000000E+03 0.  0.
         25    1    1    2    0    0 -0.91283862911E+02 -0.19033885245E+03 -0.40142593179E+03  0.47045658790E+03  0.12500000000E+03 0.  0.
</event>
<event>
 5    0  0.5720942E-005  0.3091424E+03  0.7546771E-02  0.1080758E+00
         21   -1    0    0  502  501  0.00000000000E+00  0.00000000000E+00  0.85751701213E+02  0.85751701213E+02  0.00000000000E+00 0.  1.
         21   -1    0    0  501  502 -0.00000000000E+00 -0.00000000000E+00 -0.11144852843E+04  0.11144852843E+04  0.00000000000E+00 0.  1.
         25    1    1    2    0    0  0.15452137582E+03  0.45107467176E+02 -0.15502257940E+03  0.25606354544E+03  0.12500000000E+03 0.  0.
         25    1    1    2    0    0 -0.17791236192E+03 -0.33477596006E+02 -0.43816778050E+03  0.49029538222E+03  0.12500000000E+03 0.  0.
         25    1    1    2    0    0  0.23390986102E+02 -0.11629871170E+02 -0.43554322321E+03  0.45387805787E+03  0.12500000000E+03 0.  0.
</event>
<event>
 5    0  0.5720942E-005  0.3223275E+03  0.7546771E-02  0.1074583E+00
         21   -1    0    0  502  501  0.00000000000E+00  0.00000000000E+00  0.19352934561E+03  0.19352934561E+03  0.00000000000E+00 0.  1.
         21   -1    0    0  501  502 -0.00000000000E+00 -0.00000000000E+00 -0.53684389517E+03  0.53684389517E+03  0.00000000000E+00 0.  1.
         25    1    1    2    0    0  0.18702773800E+02 -0.15899015389E+03 -0.36252583064E+03  0.41554499235E+03  0.12500000000E+03 0.  0.
         25    1    1    2    0    0  0.71638828663E-01  0.27241701771E+02 -0.15853240999E+02  0.12891253119E+03  0.12500000000E+03 0.  0.
         25    1    1    2    0    0 -0.18774412629E+02  0.13174845212E+03  0.35064522081E+02  0.18591571724E+03  0.12500000000E+03 0.  0.
</event>
<event>
 5    0  0.5720942E-005  0.2904732E+03  0.7546771E-02  0.1090102E+00
         21   -1    0    0  502  501  0.00000000000E+00  0.00000000000E+00  0.31125512297E+03  0.31125512297E+03  0.00000000000E+00 0. -1.
         21   -1    0    0  501  502 -0.00000000000E+00 -0.00000000000E+00 -0.27107891270E+03  0.27107891270E+03  0.00000000000E+00 0. -1.
         25    1    1    2    0    0  0.11857640405E+03  0.11245123941E+03 -0.22389798218E+02  0.20695880727E+03  0.12500000000E+03 0.  0.
         25    1    1    2    0    0 -0.23487256446E+02 -0.64734462852E+02  0.13454930983E+03  0.19613953878E+03  0.12500000000E+03 0.  0.
         25    1    1    2    0    0 -0.95089147607E+02 -0.47716776557E+02 -0.71983301346E+02  0.17923568961E+03  0.12500000000E+03 0.  0.
</event>
<event>
 5    0  0.5720942E-005  0.3116040E+03  0.7546771E-02  0.1079580E+00
         21   -1    0    0  502  501  0.00000000000E+00  0.00000000000E+00  0.47953083801E+02  0.47953083801E+02  0.00000000000E+00 0.  1.
         21   -1    0    0  501  502 -0.00000000000E+00 -0.00000000000E+00 -0.20248341085E+04  0.20248341085E+04  0.00000000000E+00 0.  1.
         25    1    1    2    0    0 -0.10531465580E+03  0.15562651943E+02 -0.59656495155E+03  0.61874721355E+03  0.12500000000E+03 0.  0.
         25    1    1    2    0    0  0.22549951617E+03 -0.31989362222E+02 -0.58857195577E+03  0.64336249363E+03  0.12500000000E+03 0.  0.
         25    1    1    2    0    0 -0.12018486037E+03  0.16426710279E+02 -0.79174411736E+03  0.81067748510E+03  0.12500000000E+03 0.  0.
</event>
<event>
 5    0  0.5720942E-005  0.2695138E+03  0.7546771E-02  0.1101558E+00
         21   -1    0    0  502  501  0.00000000000E+00  0.00000000000E+00  0.22576624887E+03  0.22576624887E+03  0.00000000000E+00 0. -1.
         21   -1    0    0  501  502 -0.00000000000E+00 -0.00000000000E+00 -0.32173845667E+03  0.32173845667E+03  0.00000000000E+00 0. -1.
         25    1    1    2    0    0 -0.16249054672E+03  0.50055294901E+02 -0.36881082234E+02  0.21422867349E+03  0.12500000000E+03 0.  0.
         25    1    1    2    0    0  0.87534900798E+02 -0.46787448230E+02  0.30018889622E+02  0.16241169263E+03  0.12500000000E+03 0.  0.
         25    1    1    2    0    0  0.74955645920E+02 -0.32678466707E+01 -0.89110015184E+02  0.17086433941E+03  0.12500000000E+03 0.  0.
</event>
<event>
 5    0  0.5720942E-005  0.2536786E+03  0.7546771E-02  0.1111002E+00
         21   -1    0    0  502  501  0.00000000000E+00  0.00000000000E+00  0.68710194734E+03  0.68710194734E+03  0.00000000000E+00 0.  1.
         21   -1    0    0  501  502 -0.00000000000E+00 -0.00000000000E+00 -0.93658377015E+02  0.93658377015E+02  0.00000000000E+00 0.  1.
         25    1    1    2    0    0  0.57187271471E+02 -0.94308905706E+02  0.15134108145E+03  0.22515256305E+03  0.12500000000E+03 0.  0.
         25    1    1    2    0    0 -0.32007938799E+02  0.14906944514E+03  0.27552306935E+03  0.33879812480E+03  0.12500000000E+03 0.  0.
         25    1    1    2    0    0 -0.25179332672E+02 -0.54760539437E+02  0.16657941953E+03  0.21680963651E+03  0.12500000000E+03 0.  0.
</event>
<event>
 5    0  0.5720942E-005  0.2548328E+03  0.7546771E-02  0.1110288E+00
         21   -1    0    0  502  501  0.00000000000E+00  0.00000000000E+00  0.23590271688E+03  0.23590271688E+03  0.00000000000E+00 0. -1.
         21   -1    0    0  501  502 -0.00000000000E+00 -0.00000000000E+00 -0.27528189697E+03  0.27528189697E+03  0.00000000000E+00 0. -1.
         25    1    1    2    0    0 -0.54601685904E+02 -0.70551891323E+02  0.10744608101E+03  0.18742618226E+03  0.12500000000E+03 0.  0.
         25    1    1    2    0    0 -0.28915388235E+02  0.33896373734E+02 -0.53679286250E+02  0.14314862766E+03  0.12500000000E+03 0.  0.
         25    1    1    2    0    0  0.83517074140E+02  0.36655517589E+02 -0.93145974852E+02  0.18060980392E+03  0.12500000000E+03 0.  0.
</event>
<event>
 5    0  0.5720942E-005  0.2745181E+03  0.7546771E-02  0.1098721E+00
         21   -1    0    0  502  501  0.00000000000E+00  0.00000000000E+00  0.30907928151E+03  0.30907928151E+03  0.00000000000E+00 0.  1.
         21   -1    0    0  501  502 -0.00000000000E+00 -0.00000000000E+00 -0.24382148452E+03  0.24382148452E+03  0.00000000000E+00 0.  1.
         25    1    1    2    0    0 -0.71832552195E+02  0.28808373053E+02 -0.29123535941E+02  0.14987667683E+03  0.12500000000E+03 0.  0.
         25    1    1    2    0    0  0.25818488725E+02  0.10954192196E+03  0.12364703613E+03  0.20875731501E+03  0.12500000000E+03 0.  0.
         25    1    1    2    0    0  0.46014063469E+02 -0.13835029501E+03 -0.29265703202E+02  0.19426677418E+03  0.12500000000E+03 0.  0.
</event>
<event>
 5    0  0.5720942E-005  0.4198635E+03  0.7546771E-02  0.1037111E+00
         21   -1    0    0  502  501  0.00000000000E+00  0.00000000000E+00  0.39138541820E+03  0.39138541820E+03  0.00000000000E+00 0. -1.
         21   -1    0    0  501  502 -0.00000000000E+00 -0.00000000000E+00 -0.45041381285E+03  0.45041381285E+03  0.00000000000E+00 0. -1.
         25    1    1    2    0    0 -0.26084879126E+03 -0.16673825925E+03  0.11279822401E+03  0.35240910649E+03  0.12500000000E+03 0.  0.
         25    1    1    2    0    0  0.25437711899E+03  0.15676241950E+03 -0.16534993791E+03  0.36365887422E+03  0.12500000000E+03 0.  0.
         25    1    1    2    0    0  0.64716722669E+01  0.99758397530E+01 -0.64766807541E+01  0.12573125035E+03  0.12500000000E+03 0.  0.
</event>
<event>
 5    0  0.5720942E-005  0.2729073E+03  0.7546771E-02  0.1099627E+00
         21   -1    0    0  502  501  0.00000000000E+00  0.00000000000E+00  0.13245242418E+03  0.13245242418E+03  0.00000000000E+00 0. -1.
         21   -1    0    0  501  502 -0.00000000000E+00 -0.00000000000E+00 -0.56230296764E+03  0.56230296764E+03  0.00000000000E+00 0. -1.
         25    1    1    2    0    0 -0.10576842297E+03  0.10368223414E+03 -0.43185588982E+02  0.19856223223E+03  0.12500000000E+03 0.  0.
         25    1    1    2    0    0  0.72293827687E+02 -0.24858977061E+02 -0.26110954137E+03  0.29941202190E+03  0.12500000000E+03 0.  0.
         25    1    1    2    0    0  0.33474595286E+02 -0.78823257077E+02 -0.12555541311E+03  0.19678113768E+03  0.12500000000E+03 0.  0.
</event>
<event>
 5    0  0.5720942E-005  0.1992926E+03  0.7546771E-02  0.1150337E+00
         21   -1    0    0  502  501  0.00000000000E+00  0.00000000000E+00  0.26645629709E+03  0.26645629709E+03  0.00000000000E+00 0. -1.
         21   -1    0    0  501  502 -0.00000000000E+00 -0.00000000000E+00 -0.14905838726E+03  0.14905838726E+03  0.00000000000E+00 0. -1.
         25    1    1    2    0    0 -0.21483575770E+02 -0.23403293350E+02  0.51341564139E+02  0.13881719769E+03  0.12500000000E+03 0.  0.
         25    1    1    2    0    0  0.98722790241E+01 -0.14949812019E+02 -0.69995783109E+01  0.12647115430E+03  0.12500000000E+03 0.  0.
         25    1    1    2    0    0  0.11611296746E+02  0.38353105369E+02  0.73055924000E+02  0.15022633236E+03  0.12500000000E+03 0.  0.
</event>
<event>
 5    0  0.5720942E-005  0.1991154E+03  0.7546771E-02  0.1150488E+00
         21   -1    0    0  502  501  0.00000000000E+00  0.00000000000E+00  0.10838191874E+03  0.10838191874E+03  0.00000000000E+00 0.  1.
         21   -1    0    0  501  502 -0.00000000000E+00 -0.00000000000E+00 -0.36580757284E+03  0.36580757284E+03  0.00000000000E+00 0.  1.
         25    1    1    2    0    0 -0.28455762498E+02 -0.40193487655E+01 -0.69646581303E+02  0.14595044320E+03  0.12500000000E+03 0.  0.
         25    1    1    2    0    0 -0.22276787351E+01  0.43453416770E+02 -0.71941672063E+02  0.15064450259E+03  0.12500000000E+03 0.  0.
         25    1    1    2    0    0  0.30683441233E+02 -0.39434068005E+02 -0.11583740074E+03  0.17759454579E+03  0.12500000000E+03 0.  0.
</event>
<event>
 5    0  0.5720942E-005  0.3928642E+03  0.7546771E-02  0.1046279E+00
         21   -1    0    0  502  501  0.00000000000E+00  0.00000000000E+00  0.14479074647E+03  0.14479074647E+03  0.00000000000E+00 0. -1.
         21   -1    0    0  501  502 -0.00000000000E+00 -0.00000000000E+00 -0.10659679463E+04  0.10659679463E+04  0.00000000000E+00 0. -1.
         25    1    1    2    0    0  0.29808273145E+01 -0.74048207321E+02 -0.36864906946E+03  0.39625643055E+03  0.12500000000E+03 0.  0.
         25    1    1    2    0    0  0.19558109253E+02 -0.13254365277E+03  0.27992930055E+02  0.18536165639E+03  0.12500000000E+03 0.  0.
         25    1    1    2    0    0 -0.22538936568E+02  0.20659186009E+03 -0.58052106042E+03  0.62914060583E+03  0.12500000000E+03 0.  0.
</event>
