<event>
 4    0  0.2239279E-002  0.2233429E+03  0.7546771E-02  0.1131415E+00
         21   -1    0    0  502  501  0.00000000000E+00  0.00000000000E+00  0.41244600682E+03  0.41244600682E+03  0.00000000000E+00 0. -1.
         21   -1    0    0  501  502 -0.00000000000E+00 -0.00000000000E+00 -0.12094201827E+03  0.12094201827E+03  0.00000000000E+00 0. -1.
         25    1    1    2    0    0 -0.14889058141E+03  0.10018232234E+03  0.91658428362E+02  0.23713112497E+03  0.12500000000E+03 0.  0.
         25    1    1    2    0    0  0.14889058141E+03 -0.10018232234E+03  0.19984556019E+03  0.29625690012E+03  0.12500000000E+03 0.  0.
</event>
<event>
 4    0  0.2239279E-002  0.1662814E+03  0.7546771E-02  0.1181782E+00
         21   -1    0    0  502  501  0.00000000000E+00  0.00000000000E+00  0.77236963340E+03  0.77236963340E+03  0.00000000000E+00 0.  1.
         21   -1    0    0  501  502 -0.00000000000E+00 -0.00000000000E+00 -0.35798258840E+02  0.35798258840E+02  0.00000000000E+00 0.  1.
         25    1    1    2    0    0 -0.39889009511E+02 -0.73510626434E+02  0.19594322140E+03  0.24700949636E+03  0.12500000000E+03 0.  0.
         25    1    1    2    0    0  0.39889009511E+02  0.73510626434E+02  0.54062815316E+03  0.56115839588E+03  0.12500000000E+03 0.  0.
</event>
<event>
 4    0  0.2239279E-002  0.1469146E+03  0.7546771E-02  0.1204316E+00
         21   -1    0    0  502  501  0.00000000000E+00  0.00000000000E+00  0.38843297745E+02  0.38843297745E+02  0.00000000000E+00 0.  1.
         21   -1    0    0  501  502 -0.00000000000E+00 -0.00000000000E+00 -0.55566582284E+03  0.55566582284E+03  0.00000000000E+00 0.  1.
         25    1    1    2    0    0  0.10533687329E+02  0.75955653587E+02 -0.27635764138E+03  0.31285582275E+03  0.12500000000E+03 0.  0.
         25    1    1    2    0    0 -0.10533687329E+02 -0.75955653587E+02 -0.24046488372E+03  0.28165329783E+03  0.12500000000E+03 0.  0.
</event>
<event>
 4    0  0.2239279E-002  0.1908562E+03  0.7546771E-02  0.1157691E+00
         21   -1    0    0  502  501  0.00000000000E+00  0.00000000000E+00  0.81085178626E+03  0.81085178626E+03  0.00000000000E+00 0. -1.
         21   -1    0    0  501  502 -0.00000000000E+00 -0.00000000000E+00 -0.44923237547E+02  0.44923237547E+02  0.00000000000E+00 0. -1.
         25    1    1    2    0    0 -0.24705483356E+02 -0.13429189705E+03  0.27885502665E+03  0.33470853053E+03  0.12500000000E+03 0.  0.
         25    1    1    2    0    0  0.24705483356E+02  0.13429189705E+03  0.48707352206E+03  0.52106649327E+03  0.12500000000E+03 0.  0.
</event>
<event>
 4    0  0.2239279E-002  0.2078798E+03  0.7546771E-02  0.1143256E+00
         21   -1    0    0  502  501  0.00000000000E+00  0.00000000000E+00  0.13727377726E+04  0.13727377726E+04  0.00000000000E+00 0. -1.
         21   -1    0    0  501  502 -0.00000000000E+00 -0.00000000000E+00 -0.31480174127E+02  0.31480174127E+02  0.00000000000E+00 0. -1.
         25    1    1    2    0    0 -0.92841433480E+02 -0.11240121195E+03  0.93946097172E+03  0.95888762720E+03  0.12500000000E+03 0.  0.
         25    1    1    2    0    0  0.92841433480E+02  0.11240121195E+03  0.40179662677E+03  0.44533031954E+03  0.12500000000E+03 0.  0.
</event>
<event>
 4    0  0.2239279E-002  0.4243711E+03  0.7546771E-02  0.1035653E+00
         21   -1    0    0  502  501  0.00000000000E+00  0.00000000000E+00  0.49948418181E+03  0.49948418181E+03  0.00000000000E+00 0. -1.
         21   -1    0    0  501  502 -0.00000000000E+00 -0.00000000000E+00 -0.36055366145E+03  0.36055366145E+03  0.00000000000E+00 0. -1.
         25    1    1    2    0    0  0.19873452654E+02  0.15374717411E+02 -0.34068636847E+03  0.36376302412E+03  0.12500000000E+03 0.  0.
         25    1    1    2    0    0 -0.19873452654E+02 -0.15374717411E+02  0.47961688883E+03  0.49627481913E+03  0.12500000000E+03 0.  0.
</event>
<event>
 4    0  0.2239279E-002  0.3277133E+03  0.7546771E-02  0.1072153E+00
         21   -1    0    0  502  501  0.00000000000E+00  0.00000000000E+00  0.14307996743E+04  0.14307996743E+04  0.00000000000E+00 0.  1.
         21   -1    0    0  501  502 -0.00000000000E+00 -0.00000000000E+00 -0.75060138431E+02  0.75060138431E+02  0.00000000000E+00 0.  1.
         25    1    1    2    0    0 -0.91465624821E+02  0.24507910968E+03  0.32685702085E+03  0.43690987927E+03  0.12500000000E+03 0.  0.
         25    1    1    2    0    0  0.91465624821E+02 -0.24507910968E+03  0.10288825150E+04  0.10689499335E+04  0.12500000000E+03 0.  0.
</event>
<event>
 4    0  0.2239279E-002  0.2552548E+03  0.7546771E-02  0.1110028E+00
         21   -1    0    0  502  501  0.00000000000E+00  0.00000000000E+00  0.45059576964E+03  0.45059576964E+03  0.00000000000E+00 0.  1.
         21   -1    0    0  501  502 -0.00000000000E+00 -0.00000000000E+00 -0.14459749835E+03  0.14459749835E+03  0.00000000000E+00 0.  1.
         25    1    1    2    0    0  0.10952920684E+03 -0.38427116854E+02 -0.68385380446E+02  0.18377935336E+03  0.12500000000E+03 0.  0.
         25    1    1    2    0    0 -0.10952920684E+03  0.38427116854E+02  0.37438365174E+03  0.41141391463E+03  0.12500000000E+03 0.  0.
</event>
<event>
 4    0  0.2239279E-002  0.2277092E+03  0.7546771E-02  0.1128263E+00
         21   -1    0    0  502  501  0.00000000000E+00  0.00000000000E+00  0.50790987056E+02  0.50790987056E+02  0.00000000000E+00 0.  1.
         21   -1    0    0  501  502 -0.00000000000E+00 -0.00000000000E+00 -0.10208795580E+04  0.10208795580E+04  0.00000000000E+00 0.  1.
         25    1    1    2    0    0  0.72217697464E+01 -0.13965909757E+03 -0.78886272405E+03  0.81085523670E+03  0.12500000000E+03 0.  0.
         25    1    1    2    0    0 -0.72217697464E+01  0.13965909757E+03 -0.18122584692E+03  0.26081530838E+03  0.12500000000E+03 0.  0.
</event>
<event>
 4    0  0.2239279E-002  0.1948185E+03  0.7546771E-02  0.1154186E+00
         21   -1    0    0  502  501  0.00000000000E+00  0.00000000000E+00  0.18283203023E+03  0.18283203023E+03  0.00000000000E+00 0. -1.
         21   -1    0    0  501  502 -0.00000000000E+00 -0.00000000000E+00 -0.20759084908E+03  0.20759084908E+03  0.00000000000E+00 0. -1.
         25    1    1    2    0    0  0.18093661222E+02 -0.63905387636E+02  0.12174860985E+03  0.18670565911E+03  0.12500000000E+03 0.  0.
         25    1    1    2    0    0 -0.18093661222E+02  0.63905387636E+02 -0.14650742870E+03  0.20371722021E+03  0.12500000000E+03 0.  0.
</event>
<event>
 4    0  0.2239279E-002  0.2258739E+03  0.7546771E-02  0.1129578E+00
         21   -1    0    0  502  501  0.00000000000E+00  0.00000000000E+00  0.12540061340E+03  0.12540061340E+03  0.00000000000E+00 0.  1.
         21   -1    0    0  501  502 -0.00000000000E+00 -0.00000000000E+00 -0.40684808932E+03  0.40684808932E+03  0.00000000000E+00 0.  1.
         25    1    1    2    0    0  0.72330692726E+02  0.13103543120E+03 -0.27501768161E+03  0.33713756619E+03  0.12500000000E+03 0.  0.
         25    1    1    2    0    0 -0.72330692726E+02 -0.13103543120E+03 -0.64297943121E+01  0.19511113652E+03  0.12500000000E+03 0.  0.
</event>
<event>
 4    0  0.2239279E-002  0.2115700E+03  0.7546771E-02  0.1140329E+00
         21   -1    0    0  502  501  0.00000000000E+00  0.00000000000E+00  0.38628864975E+03  0.38628864975E+03  0.00000000000E+00 0.  1.
         21   -1    0    0  501  502 -0.00000000000E+00 -0.00000000000E+00 -0.11587672945E+03  0.11587672945E+03  0.00000000000E+00 0.  1.
         25    1    1    2    0    0  0.15103840560E+02  0.31507999514E+02  0.33349064188E+03  0.35785735741E+03  0.12500000000E+03 0.  0.
         25    1    1    2    0    0 -0.15103840560E+02 -0.31507999514E+02 -0.63078721582E+02  0.14430802178E+03  0.12500000000E+03 0.  0.
</event>
<event>
 4    0  0.2239279E-002  0.3131900E+03  0.7546771E-02  0.1078827E+00
         21   -1    0    0  502  501  0.00000000000E+00  0.00000000000E+00  0.81298616345E+02  0.81298616345E+02  0.00000000000E+00 0. -1.
         21   -1    0    0  501  502 -0.00000000000E+00 -0.00000000000E+00 -0.12065148365E+04  0.12065148365E+04  0.00000000000E+00 0. -1.
         25    1    1    2    0    0 -0.21685976621E+02 -0.31654007075E+02  0.22495402816E+02  0.13267743174E+03  0.12500000000E+03 0.  0.
         25    1    1    2    0    0  0.21685976621E+02  0.31654007075E+02 -0.11477116230E+04  0.11551360211E+04  0.12500000000E+03 0.  0.
</event>
<event>
 4    0  0.2239279E-002  0.2069442E+03  0.7546771E-02  0.1144009E+00
         21   -1    0    0  502  501  0.00000000000E+00  0.00000000000E+00  0.19044838117E+03  0.19044838117E+03  0.00000000000E+00 0.  1.
         21   -1    0    0  501  502 -0.00000000000E+00 -0.00000000000E+00 -0.22486889760E+03  0.22486889760E+03  0.00000000000E+00 0.  1.
         25    1    1    2    0    0 -0.40813553594E+02  0.15812931744E+03 -0.40317787993E+02  0.20957373695E+03  0.12500000000E+03 0.  0.
         25    1    1    2    0    0  0.40813553594E+02 -0.15812931744E+03  0.58972715567E+01  0.20574354182E+03  0.12500000000E+03 0.  0.
</event>
<event>
 4    0  0.2239279E-002  0.2014549E+03  0.7546771E-02  0.1148517E+00
         21   -1    0    0  502  501  0.00000000000E+00  0.00000000000E+00  0.10394356241E+03  0.10394356241E+03  0.00000000000E+00 0.  1.
         21   -1    0    0  501  502 -0.00000000000E+00 -0.00000000000E+00 -0.39044354792E+03  0.39044354792E+03  0.00000000000E+00 0.  1.
         25    1    1    2    0    0  0.47976161545E+02  0.43071073157E+02  0.33726066467E+02  0.14463497841E+03  0.12500000000E+03 0.  0.
         25    1    1    2    0    0 -0.47976161545E+02 -0.43071073157E+02 -0.32022605198E+03  0.34975213193E+03  0.12500000000E+03 0.  0.
</event>
<event>
 4    0  0.2239279E-002  0.3927092E+03  0.7546771E-02  0.1046334E+00
         21   -1    0    0  502  501  0.00000000000E+00  0.00000000000E+00  0.59483202368E+03  0.59483202368E+03  0.00000000000E+00 0. -1.
         21   -1    0    0  501  502 -0.00000000000E+00 -0.00000000000E+00 -0.25926731032E+03  0.25926731032E+03  0.00000000000E+00 0. -1.
         25    1    1    2    0    0 -0.23895910739E+03  0.24914383523E+03  0.31932942054E+03  0.48659057170E+03  0.12500000000E+03 0.  0.
         25    1    1    2    0    0  0.23895910739E+03 -0.24914383523E+03  0.16235292810E+02  0.36750876230E+03  0.12500000000E+03 0.  0.
</event>
<event>
 4    0  0.2239279E-002  0.2141079E+03  0.7546771E-02  0.1138354E+00
         21   -1    0    0  502  501  0.00000000000E+00  0.00000000000E+00  0.47434184757E+02  0.47434184757E+02  0.00000000000E+00 0. -1.
         21   -1    0    0  501  502 -0.00000000000E+00 -0.00000000000E+00 -0.96643819091E+03  0.96643819091E+03  0.00000000000E+00 0. -1.
         25    1    1    2    0    0  0.86124485890E+02  0.77377779143E+02 -0.76650043941E+03  0.78520868016E+03  0.12500000000E+03 0.  0.
         25    1    1    2    0    0 -0.86124485890E+02 -0.77377779143E+02 -0.15250356674E+03  0.22866369551E+03  0.12500000000E+03 0.  0.
</event>
<event>
 4    0  0.2239279E-002  0.1556037E+03  0.7546771E-02  0.1193752E+00
         21   -1    0    0  502  501  0.00000000000E+00  0.00000000000E+00  0.18158631722E+03  0.18158631722E+03  0.00000000000E+00 0.  1.
         21   -1    0    0  501  502 -0.00000000000E+00 -0.00000000000E+00 -0.13333878790E+03  0.13333878790E+03  0.00000000000E+00 0.  1.
         25    1    1    2    0    0  0.52403296672E+02 -0.39701670694E+02  0.90212237072E+02  0.16758751706E+03  0.12500000000E+03 0.  0.
         25    1    1    2    0    0 -0.52403296672E+02  0.39701670694E+02 -0.41964707748E+02  0.14733758806E+03  0.12500000000E+03 0.  0.
</event>
<event>
 4    0  0.2239279E-002  0.1773644E+03  0.7546771E-02  0.1170378E+00
         21   -1    0    0  502  501  0.00000000000E+00  0.00000000000E+00  0.39820126847E+02  0.39820126847E+02  0.00000000000E+00 0.  1.
         21   -1    0    0  501  502 -0.00000000000E+00 -0.00000000000E+00 -0.79000608654E+03  0.79000608654E+03  0.00000000000E+00 0.  1.
         25    1    1    2    0    0 -0.57871751081E+01  0.11693150660E+03 -0.48297301287E+03  0.51243965478E+03  0.12500000000E+03 0.  0.
         25    1    1    2    0    0  0.57871751081E+01 -0.11693150660E+03 -0.26721294682E+03  0.31738655860E+03  0.12500000000E+03 0.  0.
</event>
<event>
 4    0  0.2239279E-002  0.2535470E+03  0.7546771E-02  0.1111083E+00
         21   -1    0    0  502  501  0.00000000000E+00  0.00000000000E+00  0.22918767603E+03  0.22918767603E+03  0.00000000000E+00 0. -1.
         21   -1    0    0  501  502 -0.00000000000E+00 -0.00000000000E+00 -0.28049539212E+03  0.28049539212E+03  0.00000000000E+00 0. -1.
         25    1    1    2    0    0  0.11401240843E+02 -0.15787453987E+03 -0.18008312738E+03  0.27038729889E+03  0.12500000000E+03 0.  0.
         25    1    1    2    0    0 -0.11401240843E+02  0.15787453987E+03  0.12877541129E+03  0.23929576926E+03  0.12500000000E+03 0.  0.
</event>
<event>
 4    0  0.2239279E-002  0.2332109E+03  0.7546771E-02  0.1124400E+00
         21   -1    0    0  502  501  0.00000000000E+00  0.00000000000E+00  0.74933787232E+03  0.74933787232E+03  0.00000000000E+00 0. -1.
         21   -1    0    0  501  502 -0.00000000000E+00 -0.00000000000E+00 -0.72580507312E+02  0.72580507312E+02  0.00000000000E+00 0. -1.
         25    1    1    2    0    0  0.99898132010E+02  0.14471336138E+03  0.18234150635E+03  0.28248012086E+03  0.12500000000E+03 0.  0.
         25    1    1    2    0    0 -0.99898132010E+02 -0.14471336138E+03  0.49441585866E+03  0.53943825878E+03  0.12500000000E+03 0.  0.
</event>
<event>
 4    0  0.2239279E-002  0.2307047E+03  0.7546771E-02  0.1126145E+00
         21   -1    0    0  502  501  0.00000000000E+00  0.00000000000E+00  0.43354538526E+03  0.43354538526E+03  0.00000000000E+00 0. -1.
         21   -1    0    0  501  502 -0.00000000000E+00 -0.00000000000E+00 -0.12276606603E+03  0.12276606603E+03  0.00000000000E+00 0. -1.
         25    1    1    2    0    0  0.11963984574E+02  0.64498441218E+01  0.38860331922E+03  0.40843882911E+03  0.12500000000E+03 0.  0.
         25    1    1    2    0    0 -0.11963984574E+02 -0.64498441218E+01 -0.77823999991E+02  0.14787262218E+03  0.12500000000E+03 0.  0.
</event>
<event>
 4    0  0.2239279E-002  0.1887578E+03  0.7546771E-02  0.1159587E+00
         21   -1    0    0  502  501  0.00000000000E+00  0.00000000000E+00  0.76781142952E+02  0.76781142952E+02  0.00000000000E+00 0. -1.
         21   -1    0    0  501  502 -0.00000000000E+00 -0.00000000000E+00 -0.46403964935E+03  0.46403964935E+03  0.00000000000E+00 0. -1.
         25    1    1    2    0    0  0.67767379115E+02  0.51715634615E+02 -0.31947188352E+02  0.15463682414E+03  0.12500000000E+03 0.  0.
         25    1    1    2    0    0 -0.67767379115E+02 -0.51715634615E+02 -0.35531131805E+03  0.38618396816E+03  0.12500000000E+03 0.  0.
</event>
<event>
 4    0  0.2239279E-002  0.1897771E+03  0.7546771E-02  0.1158663E+00
         21   -1    0    0  502  501  0.00000000000E+00  0.00000000000E+00  0.15681762981E+04  0.15681762981E+04  0.00000000000E+00 0.  1.
         21   -1    0    0  501  502 -0.00000000000E+00 -0.00000000000E+00 -0.22966387258E+02  0.22966387258E+02  0.00000000000E+00 0.  1.
         25    1    1    2    0    0  0.70930637575E+02  0.23016996155E+02  0.26210320645E+03  0.29980665151E+03  0.12500000000E+03 0.  0.
         25    1    1    2    0    0 -0.70930637575E+02 -0.23016996155E+02  0.12831067043E+04  0.12913360338E+04  0.12500000000E+03 0.  0.
</event>
<event>
 4    0  0.2239279E-002  0.1713487E+03  0.7546771E-02  0.1176449E+00
         21   -1    0    0  502  501  0.00000000000E+00  0.00000000000E+00  0.21420073407E+03  0.21420073407E+03  0.00000000000E+00 0. -1.
         21   -1    0    0  501  502 -0.00000000000E+00 -0.00000000000E+00 -0.13706945327E+03  0.13706945327E+03  0.00000000000E+00 0. -1.
         25    1    1    2    0    0  0.91029842643E+02 -0.58687652885E+02  0.84459615809E+02  0.18571241088E+03  0.12500000000E+03 0.  0.
         25    1    1    2    0    0 -0.91029842643E+02  0.58687652885E+02 -0.73283350049E+01  0.16555777646E+03  0.12500000000E+03 0.  0.
</event>
<event>
 4    0  0.2239279E-002  0.1826406E+03  0.7546771E-02  0.1165272E+00
         21   -1    0    0  502  501  0.00000000000E+00  0.00000000000E+00  0.17128636630E+04  0.17128636630E+04  0.00000000000E+00 0.  1.
         21   -1    0    0  501  502 -0.00000000000E+00 -0.00000000000E+00 -0.19474745645E+02  0.19474745645E+02  0.00000000000E+00 0.  1.
         25    1    1    2    0    0 -0.26054210694E+02 -0.11770859067E+03  0.57848430000E+03  0.60398942007E+03  0.12500000000E+03 0.  0.
         25    1    1    2    0    0  0.26054210694E+02  0.11770859067E+03  0.11149046174E+04  0.11283489886E+04  0.12500000000E+03 0.  0.
</event>
<event>
 4    0  0.2239279E-002  0.2530095E+03  0.7546771E-02  0.1111418E+00
         21   -1    0    0  502  501  0.00000000000E+00  0.00000000000E+00  0.12647735402E+04  0.12647735402E+04  0.00000000000E+00 0. -1.
         21   -1    0    0  501  502 -0.00000000000E+00 -0.00000000000E+00 -0.50612869261E+02  0.50612869261E+02  0.00000000000E+00 0. -1.
         25    1    1    2    0    0 -0.54837745450E+02 -0.89057270317E+02  0.10402592097E+03  0.19335141053E+03  0.12500000000E+03 0.  0.
         25    1    1    2    0    0  0.54837745450E+02  0.89057270317E+02  0.11101347499E+04  0.11220349989E+04  0.12500000000E+03 0.  0.
</event>
<event>
 4    0  0.2239279E-002  0.1881184E+03  0.7546771E-02  0.1160169E+00
         21   -1    0    0  502  501  0.00000000000E+00  0.00000000000E+00  0.18515269534E+03  0.18515269534E+03  0.00000000000E+00 0. -1.
         21   -1    0    0  501  502 -0.00000000000E+00 -0.00000000000E+00 -0.19113168025E+03  0.19113168025E+03  0.00000000000E+00 0. -1.
         25    1    1    2    0    0 -0.11310026186E+03  0.61599758006E+02 -0.59364564559E+02  0.18903796165E+03  0.12500000000E+03 0.  0.
         25    1    1    2    0    0  0.11310026186E+03 -0.61599758006E+02  0.53385579643E+02  0.18724641394E+03  0.12500000000E+03 0.  0.
</event>
<event>
 4    0  0.2239279E-002  0.2509268E+03  0.7546771E-02  0.1112720E+00
         21   -1    0    0  502  501  0.00000000000E+00  0.00000000000E+00  0.20317401455E+04  0.20317401455E+04  0.00000000000E+00 0. -1.
         21   -1    0    0  501  502 -0.00000000000E+00 -0.00000000000E+00 -0.30990322108E+02  0.30990322108E+02  0.00000000000E+00 0.  1.
         25    1    1    2    0    0 -0.21048806648E+03  0.46087277818E+02  0.11243659825E+04  0.11516306378E+04  0.12500000000E+03 0.  0.
         25    1    1    2    0    0  0.21048806648E+03 -0.46087277818E+02  0.87638384087E+03  0.91109982979E+03  0.12500000000E+03 0.  0.
</event>
<event>
 4    0  0.2239279E-002  0.1780344E+03  0.7546771E-02  0.1169719E+00
         21   -1    0    0  502  501  0.00000000000E+00  0.00000000000E+00  0.26794181310E+02  0.26794181310E+02  0.00000000000E+00 0. -1.
         21   -1    0    0  501  502 -0.00000000000E+00 -0.00000000000E+00 -0.11829520173E+04  0.11829520173E+04  0.00000000000E+00 0. -1.
         25    1    1    2    0    0  0.88062059324E+02  0.44534550697E+02 -0.30770520757E+03  0.34647618571E+03  0.12500000000E+03 0.  0.
         25    1    1    2    0    0 -0.88062059324E+02 -0.44534550697E+02 -0.84845262840E+03  0.86327001288E+03  0.12500000000E+03 0.  0.
</event>
<event>
 4    0  0.2239279E-002  0.1677446E+03  0.7546771E-02  0.1180220E+00
         21   -1    0    0  502  501  0.00000000000E+00  0.00000000000E+00  0.37314367897E+02  0.37314367897E+02  0.00000000000E+00 0.  1.
         21   -1    0    0  501  502 -0.00000000000E+00 -0.00000000000E+00 -0.75408666102E+03  0.75408666102E+03  0.00000000000E+00 0.  1.
         25    1    1    2    0    0 -0.11163388808E+03  0.27093189140E+01 -0.34277396780E+03  0.38156055664E+03  0.12500000000E+03 0.  0.
         25    1    1    2    0    0  0.11163388808E+03 -0.27093189140E+01 -0.37399832532E+03  0.40984047228E+03  0.12500000000E+03 0.  0.
</event>
<event>
 4    0  0.2239279E-002  0.3303303E+03  0.7546771E-02  0.1070991E+00
         21   -1    0    0  502  501  0.00000000000E+00  0.00000000000E+00  0.19452337783E+03  0.19452337783E+03  0.00000000000E+00 0. -1.
         21   -1    0    0  501  502 -0.00000000000E+00 -0.00000000000E+00 -0.56095100947E+03  0.56095100947E+03  0.00000000000E+00 0.  1.
         25    1    1    2    0    0 -0.25221422287E+03 -0.81722170426E+02 -0.35739823832E+03  0.46222183863E+03  0.12500000000E+03 0.  0.
         25    1    1    2    0    0  0.25221422287E+03  0.81722170426E+02 -0.90293933238E+01  0.29325254867E+03  0.12500000000E+03 0.  0.
</event>
<event>
 4    0  0.2239279E-002  0.2098870E+03  0.7546771E-02  0.1141655E+00
         21   -1    0    0  502  501  0.00000000000E+00  0.00000000000E+00  0.23829227514E+02  0.23829227514E+02  0.00000000000E+00 0.  1.
         21   -1    0    0  501  502 -0.00000000000E+00 -0.00000000000E+00 -0.18486776975E+04  0.18486776975E+04  0.00000000000E+00 0.  1.
         25    1    1    2    0    0 -0.14635421630E+03 -0.41481105656E+02 -0.58806537702E+03  0.62015008377E+03  0.12500000000E+03 0.  0.
         25    1    1    2    0    0  0.14635421630E+03  0.41481105656E+02 -0.12367830930E+04  0.12523568412E+04  0.12500000000E+03 0.  0.
</event>
<event>
 4    0  0.2239279E-002  0.2534434E+03  0.7546771E-02  0.1111148E+00
         21   -1    0    0  502  501  0.00000000000E+00  0.00000000000E+00  0.10248797308E+03  0.10248797308E+03  0.00000000000E+00 0.  1.
         21   -1    0    0  501  502 -0.00000000000E+00 -0.00000000000E+00 -0.62674215099E+03  0.62674215099E+03  0.00000000000E+00 0.  1.
         25    1    1    2    0    0  0.15550595495E+00  0.19688332294E+03 -0.11937849731E+03  0.26199101636E+03  0.12500000000E+03 0.  0.
         25    1    1    2    0    0 -0.15550595495E+00 -0.19688332294E+03 -0.40487568060E+03  0.46723910771E+03  0.12500000000E+03 0.  0.
</event>
<event>
 4    0  0.2239279E-002  0.2071125E+03  0.7546771E-02  0.1143873E+00
         21   -1    0    0  502  501  0.00000000000E+00  0.00000000000E+00  0.82724310030E+03  0.82724310030E+03  0.00000000000E+00 0.  1.
         21   -1    0    0  501  502 -0.00000000000E+00 -0.00000000000E+00 -0.51853678115E+02  0.51853678115E+02  0.00000000000E+00 0.  1.
         25    1    1    2    0    0 -0.68712792829E+01 -0.53034710553E+02  0.71927634770E+03  0.73201322349E+03  0.12500000000E+03 0.  0.
         25    1    1    2    0    0  0.68712792829E+01  0.53034710553E+02  0.56113074489E+02  0.14708355493E+03  0.12500000000E+03 0.  0.
</event>
<event>
 4    0  0.2239279E-002  0.3732685E+03  0.7546771E-02  0.1053450E+00
         21   -1    0    0  502  501  0.00000000000E+00  0.00000000000E+00  0.26395552177E+03  0.26395552177E+03  0.00000000000E+00 0. -1.
         21   -1    0    0  501  502 -0.00000000000E+00 -0.00000000000E+00 -0.52785165723E+03  0.52785165723E+03  0.00000000000E+00 0. -1.
         25    1    1    2    0    0 -0.92692519180E+02 -0.20220834939E+03 -0.42091024327E+03  0.49220986638E+03  0.12500000000E+03 0.  0.
         25    1    1    2    0    0  0.92692519180E+02  0.20220834939E+03  0.15701410780E+03  0.29959731262E+03  0.12500000000E+03 0.  0.
</event>
<event>
 4    0  0.2239279E-002  0.2426922E+03  0.7546771E-02  0.1118012E+00
         21   -1    0    0  502  501  0.00000000000E+00  0.00000000000E+00  0.30389899928E+03  0.30389899928E+03  0.00000000000E+00 0. -1.
         21   -1    0    0  501  502 -0.00000000000E+00 -0.00000000000E+00 -0.19381271035E+03  0.19381271035E+03  0.00000000000E+00 0. -1.
         25    1    1    2    0    0 -0.14291311320E+03 -0.57489480751E+02  0.19839824978E+03  0.28056383202E+03  0.12500000000E+03 0.  0.
         25    1    1    2    0    0  0.14291311320E+03  0.57489480751E+02 -0.88311960856E+02  0.21714787761E+03  0.12500000000E+03 0.  0.
</event>
<event>
 4    0  0.2239279E-002  0.1925452E+03  0.7546771E-02  0.1156186E+00
         21   -1    0    0  502  501  0.00000000000E+00  0.00000000000E+00  0.65171772580E+03  0.65171772580E+03  0.00000000000E+00 0.  1.
         21   -1    0    0  501  502 -0.00000000000E+00 -0.00000000000E+00 -0.56886068103E+02  0.56886068103E+02  0.00000000000E+00 0.  1.
         25    1    1    2    0    0  0.97148066623E+02  0.65976214731E+02  0.13638839036E+03  0.21912873108E+03  0.12500000000E+03 0.  0.
         25    1    1    2    0    0 -0.97148066623E+02 -0.65976214731E+02  0.45844326734E+03  0.48947506283E+03  0.12500000000E+03 0.  0.
</event>
<event>
 4    0  0.2239279E-002  0.1553253E+03  0.7546771E-02  0.1194078E+00
         21   -1    0    0  502  501  0.00000000000E+00  0.00000000000E+00  0.11068240453E+03  0.11068240453E+03  0.00000000000E+00 0. -1.
         21   -1    0    0  501  502 -0.00000000000E+00 -0.00000000000E+00 -0.21797450953E+03  0.21797450953E+03  0.00000000000E+00 0. -1.
         25    1    1    2    0    0 -0.26895070357E+02  0.72433135583E+02 -0.10687158808E+03  0.18170426599E+03  0.12500000000E+03 0.  0.
         25    1    1    2    0    0  0.26895070357E+02 -0.72433135583E+02 -0.42051691117E+00  0.14695264807E+03  0.12500000000E+03 0.  0.
</event>
<event>
 4    0  0.2239279E-002  0.2745836E+03  0.7546771E-02  0.1098685E+00
         21   -1    0    0  502  501  0.00000000000E+00  0.00000000000E+00  0.23438475561E+03  0.23438475561E+03  0.00000000000E+00 0.  1.
         21   -1    0    0  501  502 -0.00000000000E+00 -0.00000000000E+00 -0.32167690749E+03  0.32167690749E+03  0.00000000000E+00 0.  1.
         25    1    1    2    0    0 -0.82266089086E+02 -0.71017551370E+02  0.17810092121E+03  0.24322035308E+03  0.12500000000E+03 0.  0.
         25    1    1    2    0    0  0.82266089086E+02  0.71017551370E+02 -0.26539307308E+03  0.31284131002E+03  0.12500000000E+03 0.  0.
</event>
<event>
 4    0  0.2239279E-002  0.2074436E+03  0.7546771E-02  0.1143606E+00
         21   -1    0    0  502  501  0.00000000000E+00  0.00000000000E+00  0.10575797675E+03  0.10575797675E+03  0.00000000000E+00 0.  1.
         21   -1    0    0  501  502 -0.00000000000E+00 -0.00000000000E+00 -0.40689942501E+03  0.40689942501E+03  0.00000000000E+00 0.  1.
         25    1    1    2    0    0 -0.23771411553E+01 -0.15763437542E+03 -0.88129033099E+02  0.21964966103E+03  0.12500000000E+03 0.  0.
         25    1    1    2    0    0  0.23771411553E+01  0.15763437542E+03 -0.21301241517E+03  0.29300774073E+03  0.12500000000E+03 0.  0.
</event>
<event>
 4    0  0.2239279E-002  0.1370112E+03  0.7546771E-02  0.1217408E+00
         21   -1    0    0  502  501  0.00000000000E+00  0.00000000000E+00  0.74960152194E+03  0.74960152194E+03  0.00000000000E+00 0.  1.
         21   -1    0    0  501  502 -0.00000000000E+00 -0.00000000000E+00 -0.25042728400E+02  0.25042728400E+02  0.00000000000E+00 0.  1.
         25    1    1    2    0    0 -0.30550210567E+02 -0.33509864024E+02  0.45564716436E+03  0.47465309937E+03  0.12500000000E+03 0.  0.
         25    1    1    2    0    0  0.30550210567E+02  0.33509864024E+02  0.26891162919E+03  0.29999115098E+03  0.12500000000E+03 0.  0.
</event>
<event>
 4    0  0.2239279E-002  0.2097516E+03  0.7546771E-02  0.1141763E+00
         21   -1    0    0  502  501  0.00000000000E+00  0.00000000000E+00  0.43795203925E+03  0.43795203925E+03  0.00000000000E+00 0.  1.
         21   -1    0    0  501  502 -0.00000000000E+00 -0.00000000000E+00 -0.10045788598E+03  0.10045788598E+03  0.00000000000E+00 0.  1.
         25    1    1    2    0    0  0.45555880170E+02  0.11647295726E+02  0.37633135821E+03  0.39932604333E+03  0.12500000000E+03 0.  0.
         25    1    1    2    0    0 -0.45555880170E+02 -0.11647295726E+02 -0.38837204932E+02  0.13908388189E+03  0.12500000000E+03 0.  0.
</event>
<event>
 4    0  0.2239279E-002  0.2251808E+03  0.7546771E-02  0.1130078E+00
         21   -1    0    0  502  501  0.00000000000E+00  0.00000000000E+00  0.16012176149E+03  0.16012176149E+03  0.00000000000E+00 0. -1.
         21   -1    0    0  501  502 -0.00000000000E+00 -0.00000000000E+00 -0.31667390612E+03  0.31667390612E+03  0.00000000000E+00 0. -1.
         25    1    1    2    0    0 -0.18356981014E+03  0.19376799702E+02 -0.44662736489E+02  0.22736115673E+03  0.12500000000E+03 0.  0.
         25    1    1    2    0    0  0.18356981014E+03 -0.19376799702E+02 -0.11188940815E+03  0.24943451088E+03  0.12500000000E+03 0.  0.
</event>
<event>
 4    0  0.2239279E-002  0.1753276E+03  0.7546771E-02  0.1172403E+00
         21   -1    0    0  502  501  0.00000000000E+00  0.00000000000E+00  0.68124429218E+03  0.68124429218E+03  0.00000000000E+00 0. -1.
         21   -1    0    0  501  502 -0.00000000000E+00 -0.00000000000E+00 -0.45122960454E+02  0.45122960454E+02  0.00000000000E+00 0. -1.
         25    1    1    2    0    0 -0.10672736933E+03 -0.43568752384E+02  0.40657256206E+03  0.44069855431E+03  0.12500000000E+03 0.  0.
         25    1    1    2    0    0  0.10672736933E+03  0.43568752384E+02  0.22954876967E+03  0.28566869833E+03  0.12500000000E+03 0.  0.
</event>
<event>
 4    0  0.2239279E-002  0.1889991E+03  0.7546771E-02  0.1159367E+00
         21   -1    0    0  502  501  0.00000000000E+00  0.00000000000E+00  0.94352549817E+03  0.94352549817E+03  0.00000000000E+00 0. -1.
         21   -1    0    0  501  502 -0.00000000000E+00 -0.00000000000E+00 -0.37858730253E+02  0.37858730253E+02  0.00000000000E+00 0. -1.
         25    1    1    2    0    0 -0.47562926406E+02  0.24828830987E+02  0.79349849207E+03  0.80507363622E+03  0.12500000000E+03 0.  0.
         25    1    1    2    0    0  0.47562926406E+02 -0.24828830987E+02  0.11216827585E+03  0.17631059220E+03  0.12500000000E+03 0.  0.
</event>
<event>
 4    0  0.2239279E-002  0.1785271E+03  0.7546771E-02  0.1169236E+00
         21   -1    0    0  502  501  0.00000000000E+00  0.00000000000E+00  0.63620023091E+02  0.63620023091E+02  0.00000000000E+00 0.  1.
         21   -1    0    0  501  502 -0.00000000000E+00 -0.00000000000E+00 -0.50097326919E+03  0.50097326919E+03  0.00000000000E+00 0.  1.
         25    1    1    2    0    0 -0.14999113264E+02  0.12444614572E+03 -0.25525503420E+03  0.31063153263E+03  0.12500000000E+03 0.  0.
         25    1    1    2    0    0  0.14999113264E+02 -0.12444614572E+03 -0.18209821190E+03  0.25396175965E+03  0.12500000000E+03 0.  0.
</event>
<event>
 4    0  0.2239279E-002  0.2015535E+03  0.7546771E-02  0.1148435E+00
         21   -1    0    0  502  501  0.00000000000E+00  0.00000000000E+00  0.46706566815E+03  0.46706566815E+03  0.00000000000E+00 0.  1.
         21   -1    0    0  501  502 -0.00000000000E+00 -0.00000000000E+00 -0.86976702913E+02  0.86976702913E+02  0.00000000000E+00 0.  1.
         25    1    1    2    0    0  0.43604513854E+02 -0.75338526503E+01  0.39867150373E+03  0.42014530873E+03  0.12500000000E+03 0.  0.
         25    1    1    2    0    0 -0.43604513854E+02  0.75338526503E+01 -0.18582538491E+02  0.13389706233E+03  0.12500000000E+03 0.  0.
</event>
<event>
 4    0  0.2239279E-002  0.1625745E+03  0.7546771E-02  0.1185820E+00
         21   -1    0    0  502  501  0.00000000000E+00  0.00000000000E+00  0.35532150662E+03  0.35532150662E+03  0.00000000000E+00 0. -1.
         21   -1    0    0  501  502 -0.00000000000E+00 -0.00000000000E+00 -0.74384679544E+02  0.74384679544E+02  0.00000000000E+00 0. -1.
         25    1    1    2    0    0 -0.22469074524E+02 -0.32821021710E+02  0.26738973365E+03  0.29783275246E+03  0.12500000000E+03 0.  0.
         25    1    1    2    0    0  0.22469074524E+02  0.32821021710E+02  0.13547093422E+02  0.13187343370E+03  0.12500000000E+03 0.  0.
</event>
<event>
 4    0  0.2239279E-002  0.1842751E+03  0.7546771E-02  0.1163729E+00
         21   -1    0    0  502  501  0.00000000000E+00  0.00000000000E+00  0.71665158689E+02  0.71665158689E+02  0.00000000000E+00 0.  1.
         21   -1    0    0  501  502 -0.00000000000E+00 -0.00000000000E+00 -0.47383270254E+03  0.47383270254E+03  0.00000000000E+00 0.  1.
         25    1    1    2    0    0 -0.12744844238E+03 -0.40861857710E+02 -0.23139907683E+03  0.29509884723E+03  0.12500000000E+03 0.  0.
         25    1    1    2    0    0  0.12744844238E+03  0.40861857710E+02 -0.17076846703E+03  0.25039901400E+03  0.12500000000E+03 0.  0.
</event>
<event>
 4    0  0.2239279E-002  0.2246307E+03  0.7546771E-02  0.1130477E+00
         21   -1    0    0  502  501  0.00000000000E+00  0.00000000000E+00  0.72616191442E+02  0.72616191442E+02  0.00000000000E+00 0.  1.
         21   -1    0    0  501  502 -0.00000000000E+00 -0.00000000000E+00 -0.69487193607E+03  0.69487193607E+03  0.00000000000E+00 0. -1.
         25    1    1    2    0    0 -0.45458439374E+02  0.17943710315E+03 -0.35190696159E+03  0.41680649384E+03  0.12500000000E+03 0.  0.
         25    1    1    2    0    0  0.45458439374E+02 -0.17943710315E+03 -0.27034878304E+03  0.35068163366E+03  0.12500000000E+03 0.  0.
</event>
<event>
 4    0  0.2239279E-002  0.1797249E+03  0.7546771E-02  0.1168070E+00
         21   -1    0    0  502  501  0.00000000000E+00  0.00000000000E+00  0.25119844713E+03  0.25119844713E+03  0.00000000000E+00 0. -1.
         21   -1    0    0  501  502 -0.00000000000E+00 -0.00000000000E+00 -0.12858775327E+03  0.12858775327E+03  0.00000000000E+00 0. -1.
         25    1    1    2    0    0 -0.58964898070E+02  0.90495297072E+02 -0.13478962989E+02  0.16574963179E+03  0.12500000000E+03 0.  0.
         25    1    1    2    0    0  0.58964898070E+02 -0.90495297072E+02  0.13608965686E+03  0.21403656860E+03  0.12500000000E+03 0.  0.
</event>
<event>
 4    0  0.2239279E-002  0.2068753E+03  0.7546771E-02  0.1144065E+00
         21   -1    0    0  502  501  0.00000000000E+00  0.00000000000E+00  0.17830004720E+03  0.17830004720E+03  0.00000000000E+00 0.  1.
         21   -1    0    0  501  502 -0.00000000000E+00 -0.00000000000E+00 -0.24003015757E+03  0.24003015757E+03  0.00000000000E+00 0.  1.
         25    1    1    2    0    0  0.16545055544E+02  0.15713033479E+03  0.16652018979E+02  0.20215333465E+03  0.12500000000E+03 0.  0.
         25    1    1    2    0    0 -0.16545055544E+02 -0.15713033479E+03 -0.78382129347E+02  0.21617687012E+03  0.12500000000E+03 0.  0.
</event>
<event>
 4    0  0.2239279E-002  0.1683663E+03  0.7546771E-02  0.1179562E+00
         21   -1    0    0  502  501  0.00000000000E+00  0.00000000000E+00  0.71567376635E+03  0.71567376635E+03  0.00000000000E+00 0.  1.
         21   -1    0    0  501  502 -0.00000000000E+00 -0.00000000000E+00 -0.39609119446E+02  0.39609119446E+02  0.00000000000E+00 0.  1.
         25    1    1    2    0    0  0.20952170860E+02  0.55408497915E+02  0.55332422555E+03  0.57035234170E+03  0.12500000000E+03 0.  0.
         25    1    1    2    0    0 -0.20952170860E+02 -0.55408497915E+02  0.12274042136E+03  0.18493054410E+03  0.12500000000E+03 0.  0.
</event>
<event>
 4    0  0.2239279E-002  0.2224269E+03  0.7546771E-02  0.1132087E+00
         21   -1    0    0  502  501  0.00000000000E+00  0.00000000000E+00  0.75413480880E+03  0.75413480880E+03  0.00000000000E+00 0.  1.
         21   -1    0    0  501  502 -0.00000000000E+00 -0.00000000000E+00 -0.65603278494E+02  0.65603278494E+02  0.00000000000E+00 0. -1.
         25    1    1    2    0    0  0.14510042924E+03 -0.41343479718E+02  0.15025244877E+03  0.24690932797E+03  0.12500000000E+03 0.  0.
         25    1    1    2    0    0 -0.14510042924E+03  0.41343479718E+02  0.53827908154E+03  0.57282875932E+03  0.12500000000E+03 0.  0.
</event>
<event>
 4    0  0.2239279E-002  0.3749489E+03  0.7546771E-02  0.1052817E+00
         21   -1    0    0  502  501  0.00000000000E+00  0.00000000000E+00  0.12859171209E+04  0.12859171209E+04  0.00000000000E+00 0. -1.
         21   -1    0    0  501  502 -0.00000000000E+00 -0.00000000000E+00 -0.10932797132E+03  0.10932797132E+03  0.00000000000E+00 0. -1.
         25    1    1    2    0    0 -0.15366259606E+03 -0.82309320661E+02  0.11604787503E+04  0.11801368342E+04  0.12500000000E+03 0.  0.
         25    1    1    2    0    0  0.15366259606E+03  0.82309320661E+02  0.16110399340E+02  0.21510825800E+03  0.12500000000E+03 0.  0.
</event>
<event>
 4    0  0.2239279E-002  0.2315364E+03  0.7546771E-02  0.1125563E+00
         21   -1    0    0  502  501  0.00000000000E+00  0.00000000000E+00  0.10493945933E+04  0.10493945933E+04  0.00000000000E+00 0.  1.
         21   -1    0    0  501  502 -0.00000000000E+00 -0.00000000000E+00 -0.51085749440E+02  0.51085749440E+02  0.00000000000E+00 0.  1.
         25    1    1    2    0    0  0.11917312594E+03  0.11245563798E+03  0.24837615151E+03  0.32274481731E+03  0.12500000000E+03 0.  0.
         25    1    1    2    0    0 -0.11917312594E+03 -0.11245563798E+03  0.74993269230E+03  0.77773552538E+03  0.12500000000E+03 0.  0.
</event>
<event>
 4    0  0.2239279E-002  0.1855798E+03  0.7546771E-02  0.1162510E+00
         21   -1    0    0  502  501  0.00000000000E+00  0.00000000000E+00  0.16079407175E+03  0.16079407175E+03  0.00000000000E+00 0. -1.
         21   -1    0    0  501  502 -0.00000000000E+00 -0.00000000000E+00 -0.21418622719E+03  0.21418622719E+03  0.00000000000E+00 0. -1.
         25    1    1    2    0    0  0.10870110746E+03 -0.15998465981E+02  0.56264936348E+02  0.17567761593E+03  0.12500000000E+03 0.  0.
         25    1    1    2    0    0 -0.10870110746E+03  0.15998465981E+02 -0.10965709179E+03  0.19930268301E+03  0.12500000000E+03 0.  0.
</event>
<event>
 4    0  0.2239279E-002  0.2483877E+03  0.7546771E-02  0.1114328E+00
         21   -1    0    0  502  501  0.00000000000E+00  0.00000000000E+00  0.11809593825E+03  0.11809593825E+03  0.00000000000E+00 0. -1.
         21   -1    0    0  501  502 -0.00000000000E+00 -0.00000000000E+00 -0.52242649532E+03  0.52242649532E+03  0.00000000000E+00 0. -1.
         25    1    1    2    0    0 -0.15376069429E+03 -0.79869812244E+02 -0.36551205199E+03  0.42337406411E+03  0.12500000000E+03 0.  0.
         25    1    1    2    0    0  0.15376069429E+03  0.79869812244E+02 -0.38818505082E+02  0.21714836945E+03  0.12500000000E+03 0.  0.
</event>
<event>
 4    0  0.2239279E-002  0.2644738E+03  0.7546771E-02  0.1104485E+00
         21   -1    0    0  502  501  0.00000000000E+00  0.00000000000E+00  0.70589241657E+02  0.70589241657E+02  0.00000000000E+00 0.  1.
         21   -1    0    0  501  502 -0.00000000000E+00 -0.00000000000E+00 -0.99089326450E+03  0.99089326450E+03  0.00000000000E+00 0.  1.
         25    1    1    2    0    0  0.97352444992E+01 -0.22454249794E+03 -0.58397704532E+03  0.63809740465E+03  0.12500000000E+03 0.  0.
         25    1    1    2    0    0 -0.97352444992E+01  0.22454249794E+03 -0.33632697753E+03  0.42338510151E+03  0.12500000000E+03 0.  0.
</event>
<event>
 4    0  0.2239279E-002  0.2310687E+03  0.7546771E-02  0.1125890E+00
         21   -1    0    0  502  501  0.00000000000E+00  0.00000000000E+00  0.27098092285E+03  0.27098092285E+03  0.00000000000E+00 0. -1.
         21   -1    0    0  501  502 -0.00000000000E+00 -0.00000000000E+00 -0.19703502860E+03  0.19703502860E+03  0.00000000000E+00 0. -1.
         25    1    1    2    0    0  0.18666403798E+03 -0.52670636438E+02  0.49379283746E+02  0.23596816031E+03  0.12500000000E+03 0.  0.
         25    1    1    2    0    0 -0.18666403798E+03  0.52670636438E+02  0.24566610507E+02  0.23204779113E+03  0.12500000000E+03 0.  0.
</event>
<event>
 4    0  0.2239279E-002  0.2213266E+03  0.7546771E-02  0.1132898E+00
         21   -1    0    0  502  501  0.00000000000E+00  0.00000000000E+00  0.65750480743E+03  0.65750480743E+03  0.00000000000E+00 0.  1.
         21   -1    0    0  501  502 -0.00000000000E+00 -0.00000000000E+00 -0.74502057126E+02  0.74502057126E+02  0.00000000000E+00 0.  1.
         25    1    1    2    0    0  0.12477775632E+02  0.15719229030E+03  0.13908129341E+03  0.24460931542E+03  0.12500000000E+03 0.  0.
         25    1    1    2    0    0 -0.12477775632E+02 -0.15719229030E+03  0.44392145690E+03  0.48739754914E+03  0.12500000000E+03 0.  0.
</event>
<event>
 4    0  0.2239279E-002  0.1975390E+03  0.7546771E-02  0.1151832E+00
         21   -1    0    0  502  501  0.00000000000E+00  0.00000000000E+00  0.26438784626E+02  0.26438784626E+02  0.00000000000E+00 0.  1.
         21   -1    0    0  501  502 -0.00000000000E+00 -0.00000000000E+00 -0.14759246268E+04  0.14759246268E+04  0.00000000000E+00 0.  1.
         25    1    1    2    0    0 -0.83440733651E+02 -0.12183791607E+03 -0.87636626847E+03  0.89746847875E+03  0.12500000000E+03 0.  0.
         25    1    1    2    0    0  0.83440733651E+02  0.12183791607E+03 -0.57311957371E+03  0.60489493269E+03  0.12500000000E+03 0.  0.
</event>
<event>
 4    0  0.2239279E-002  0.2429302E+03  0.7546771E-02  0.1117856E+00
         21   -1    0    0  502  501  0.00000000000E+00  0.00000000000E+00  0.10904810601E+03  0.10904810601E+03  0.00000000000E+00 0.  1.
         21   -1    0    0  501  502 -0.00000000000E+00 -0.00000000000E+00 -0.54118381439E+03  0.54118381439E+03  0.00000000000E+00 0.  1.
         25    1    1    2    0    0  0.55055960138E+02 -0.18985804320E+03 -0.12817810393E+03  0.26670557107E+03  0.12500000000E+03 0.  0.
         25    1    1    2    0    0 -0.55055960138E+02  0.18985804320E+03 -0.30395760446E+03  0.38352634932E+03  0.12500000000E+03 0.  0.
</event>
<event>
 4    0  0.2239279E-002  0.2888674E+03  0.7546771E-02  0.1090942E+00
         21   -1    0    0  502  501  0.00000000000E+00  0.00000000000E+00  0.12543511001E+04  0.12543511001E+04  0.00000000000E+00 0.  1.
         21   -1    0    0  501  502 -0.00000000000E+00 -0.00000000000E+00 -0.66523920419E+02  0.66523920419E+02  0.00000000000E+00 0.  1.
         25    1    1    2    0    0  0.11543039403E+02  0.21363130328E+03  0.25443244139E+03  0.35515129555E+03  0.12500000000E+03 0.  0.
         25    1    1    2    0    0 -0.11543039403E+02 -0.21363130328E+03  0.93339473824E+03  0.96572372492E+03  0.12500000000E+03 0.  0.
</event>
<event>
 4    0  0.2239279E-002  0.1765338E+03  0.7546771E-02  0.1171200E+00
         21   -1    0    0  502  501  0.00000000000E+00  0.00000000000E+00  0.24542778315E+03  0.24542778315E+03  0.00000000000E+00 0.  1.
         21   -1    0    0  501  502 -0.00000000000E+00 -0.00000000000E+00 -0.12697899477E+03  0.12697899477E+03  0.00000000000E+00 0.  1.
         25    1    1    2    0    0  0.47165693723E+02  0.74384631859E+02 -0.33820244882E+02  0.15660933907E+03  0.12500000000E+03 0.  0.
         25    1    1    2    0    0 -0.47165693723E+02 -0.74384631859E+02  0.15226903327E+03  0.21579743885E+03  0.12500000000E+03 0.  0.
</event>
<event>
 4    0  0.2239279E-002  0.3078997E+03  0.7546771E-02  0.1081357E+00
         21   -1    0    0  502  501  0.00000000000E+00  0.00000000000E+00  0.14781929667E+04  0.14781929667E+04  0.00000000000E+00 0.  1.
         21   -1    0    0  501  502 -0.00000000000E+00 -0.00000000000E+00 -0.64133865624E+02  0.64133865624E+02  0.00000000000E+00 0.  1.
         25    1    1    2    0    0  0.13509421715E+02 -0.26484868891E+03  0.47141275658E+03  0.55514171124E+03  0.12500000000E+03 0.  0.
         25    1    1    2    0    0 -0.13509421715E+02  0.26484868891E+03  0.94264634446E+03  0.98718512105E+03  0.12500000000E+03 0.  0.
</event>
<event>
 4    0  0.2239279E-002  0.1957478E+03  0.7546771E-02  0.1153377E+00
         21   -1    0    0  502  501  0.00000000000E+00  0.00000000000E+00  0.88558572911E+02  0.88558572911E+02  0.00000000000E+00 0. -1.
         21   -1    0    0  501  502 -0.00000000000E+00 -0.00000000000E+00 -0.43267627735E+03  0.43267627735E+03  0.00000000000E+00 0. -1.
         25    1    1    2    0    0  0.37313649202E+02  0.11068045939E+03 -0.45403309160E+02  0.17699981071E+03  0.12500000000E+03 0.  0.
         25    1    1    2    0    0 -0.37313649202E+02 -0.11068045939E+03 -0.29871439528E+03  0.34423503955E+03  0.12500000000E+03 0.  0.
</event>
<event>
 4    0  0.2239279E-002  0.2812404E+03  0.7546771E-02  0.1095013E+00
         21   -1    0    0  502  501  0.00000000000E+00  0.00000000000E+00  0.53846528565E+03  0.53846528565E+03  0.00000000000E+00 0. -1.
         21   -1    0    0  501  502 -0.00000000000E+00 -0.00000000000E+00 -0.14689183627E+03  0.14689183627E+03  0.00000000000E+00 0. -1.
         25    1    1    2    0    0 -0.96253299920E+02  0.21603837373E+03  0.90027431812E+02  0.28225381335E+03  0.12500000000E+03 0.  0.
         25    1    1    2    0    0  0.96253299920E+02 -0.21603837373E+03  0.30154601757E+03  0.40310330858E+03  0.12500000000E+03 0.  0.
</event>
<event>
 4    0  0.2239279E-002  0.2496207E+03  0.7546771E-02  0.1113545E+00
         21   -1    0    0  502  501  0.00000000000E+00  0.00000000000E+00  0.17642105968E+04  0.17642105968E+04  0.00000000000E+00 0. -1.
         21   -1    0    0  501  502 -0.00000000000E+00 -0.00000000000E+00 -0.35319188901E+02  0.35319188901E+02  0.00000000000E+00 0. -1.
         25    1    1    2    0    0  0.67929913177E+00  0.20251526662E+03  0.59296481062E+03  0.63894065554E+03  0.12500000000E+03 0.  0.
         25    1    1    2    0    0 -0.67929913177E+00 -0.20251526662E+03  0.11359265973E+04  0.11605891302E+04  0.12500000000E+03 0.  0.
</event>
<event>
 4    0  0.2239279E-002  0.2990356E+03  0.7546771E-02  0.1085724E+00
         21   -1    0    0  502  501  0.00000000000E+00  0.00000000000E+00  0.58134365965E+03  0.58134365965E+03  0.00000000000E+00 0.  1.
         21   -1    0    0  501  502 -0.00000000000E+00 -0.00000000000E+00 -0.15382004810E+03  0.15382004810E+03  0.00000000000E+00 0.  1.
         25    1    1    2    0    0  0.24544981784E+03 -0.10462513972E+03  0.27650376178E+03  0.40406851303E+03  0.12500000000E+03 0.  0.
         25    1    1    2    0    0 -0.24544981784E+03  0.10462513972E+03  0.15101984977E+03  0.33109519471E+03  0.12500000000E+03 0.  0.
</event>
<event>
 4    0  0.2239279E-002  0.2862807E+03  0.7546771E-02  0.1092307E+00
         21   -1    0    0  502  501  0.00000000000E+00  0.00000000000E+00  0.16261816672E+03  0.16261816672E+03  0.00000000000E+00 0.  1.
         21   -1    0    0  501  502 -0.00000000000E+00 -0.00000000000E+00 -0.50398221921E+03  0.50398221921E+03  0.00000000000E+00 0.  1.
         25    1    1    2    0    0 -0.69424376752E+02 -0.20992972295E+03 -0.32443888420E+03  0.41203861742E+03  0.12500000000E+03 0.  0.
         25    1    1    2    0    0  0.69424376752E+02  0.20992972295E+03 -0.16925168292E+02  0.25456176851E+03  0.12500000000E+03 0.  0.
</event>
<event>
 4    0  0.2239279E-002  0.2606367E+03  0.7546771E-02  0.1106761E+00
         21   -1    0    0  502  501  0.00000000000E+00  0.00000000000E+00  0.56682139019E+02  0.56682139019E+02  0.00000000000E+00 0.  1.
         21   -1    0    0  501  502 -0.00000000000E+00 -0.00000000000E+00 -0.11984636076E+04  0.11984636076E+04  0.00000000000E+00 0.  1.
         25    1    1    2    0    0  0.16769487580E+03  0.10989988673E+03 -0.83582951690E+03  0.86858248761E+03  0.12500000000E+03 0.  0.
         25    1    1    2    0    0 -0.16769487580E+03 -0.10989988673E+03 -0.30595195170E+03  0.38656325902E+03  0.12500000000E+03 0.  0.
</event>
<event>
 4    0  0.2239279E-002  0.1572032E+03  0.7546771E-02  0.1191891E+00
         21   -1    0    0  502  501  0.00000000000E+00  0.00000000000E+00  0.16792199024E+04  0.16792199024E+04  0.00000000000E+00 0.  1.
         21   -1    0    0  501  502 -0.00000000000E+00 -0.00000000000E+00 -0.14716859430E+02  0.14716859430E+02  0.00000000000E+00 0.  1.
         25    1    1    2    0    0 -0.50260485398E+02  0.18040403864E+02  0.12577209101E+04  0.12650448451E+04  0.12500000000E+03 0.  0.
         25    1    1    2    0    0  0.50260485398E+02 -0.18040403864E+02  0.40678213291E+03  0.42889191671E+03  0.12500000000E+03 0.  0.
</event>
<event>
 4    0  0.2239279E-002  0.3109375E+03  0.7546771E-02  0.1079897E+00
         21   -1    0    0  502  501  0.00000000000E+00  0.00000000000E+00  0.51605306542E+03  0.51605306542E+03  0.00000000000E+00 0. -1.
         21   -1    0    0  501  502 -0.00000000000E+00 -0.00000000000E+00 -0.18734914938E+03  0.18734914938E+03  0.00000000000E+00 0. -1.
         25    1    1    2    0    0 -0.22348800702E+03 -0.11952955210E+03  0.17644862135E+02  0.28314403449E+03  0.12500000000E+03 0.  0.
         25    1    1    2    0    0  0.22348800702E+03  0.11952955210E+03  0.31105905390E+03  0.42025818032E+03  0.12500000000E+03 0.  0.
</event>
<event>
 4    0  0.2239279E-002  0.2965206E+03  0.7546771E-02  0.1086993E+00
         21   -1    0    0  502  501  0.00000000000E+00  0.00000000000E+00  0.31702213341E+03  0.31702213341E+03  0.00000000000E+00 0. -1.
         21   -1    0    0  501  502 -0.00000000000E+00 -0.00000000000E+00 -0.27734488644E+03  0.27734488644E+03  0.00000000000E+00 0. -1.
         25    1    1    2    0    0 -0.18538136128E+03 -0.18084259983E+03  0.92313305924E+02  0.30202159108E+03  0.12500000000E+03 0.  0.
         25    1    1    2    0    0  0.18538136128E+03  0.18084259983E+03 -0.52636058953E+02  0.29234542878E+03  0.12500000000E+03 0.  0.
</event>
<event>
 4    0  0.2239279E-002  0.2843340E+03  0.7546771E-02  0.1093345E+00
         21   -1    0    0  502  501  0.00000000000E+00  0.00000000000E+00  0.33455528865E+03  0.33455528865E+03  0.00000000000E+00 0. -1.
         21   -1    0    0  501  502 -0.00000000000E+00 -0.00000000000E+00 -0.24165160978E+03  0.24165160978E+03  0.00000000000E+00 0.  1.
         25    1    1    2    0    0 -0.22417859413E+03 -0.21876159323E+02 -0.75502465328E+02  0.26844036709E+03  0.12500000000E+03 0.  0.
         25    1    1    2    0    0  0.22417859413E+03  0.21876159323E+02  0.16840614419E+03  0.30776653134E+03  0.12500000000E+03 0.  0.
</event>
<event>
 4    0  0.2239279E-002  0.2037742E+03  0.7546771E-02  0.1146593E+00
         21   -1    0    0  502  501  0.00000000000E+00  0.00000000000E+00  0.54513269123E+03  0.54513269123E+03  0.00000000000E+00 0. -1.
         21   -1    0    0  501  502 -0.00000000000E+00 -0.00000000000E+00 -0.76172129373E+02  0.76172129373E+02  0.00000000000E+00 0. -1.
         25    1    1    2    0    0  0.13560195692E+03 -0.72983809346E+02  0.30573124231E+03  0.36443259963E+03  0.12500000000E+03 0.  0.
         25    1    1    2    0    0 -0.13560195692E+03  0.72983809346E+02  0.16322931955E+03  0.25687222098E+03  0.12500000000E+03 0.  0.
</event>
<event>
 4    0  0.2239279E-002  0.2429565E+03  0.7546771E-02  0.1117839E+00
         21   -1    0    0  502  501  0.00000000000E+00  0.00000000000E+00  0.14066994347E+03  0.14066994347E+03  0.00000000000E+00 0. -1.
         21   -1    0    0  501  502 -0.00000000000E+00 -0.00000000000E+00 -0.41961973893E+03  0.41961973893E+03  0.00000000000E+00 0. -1.
         25    1    1    2    0    0 -0.14122749527E+03 -0.10325845246E+03 -0.90440044390E+01  0.21520759151E+03  0.12500000000E+03 0.  0.
         25    1    1    2    0    0  0.14122749527E+03  0.10325845246E+03 -0.26990579102E+03  0.34508209089E+03  0.12500000000E+03 0.  0.
</event>
<event>
 4    0  0.2239279E-002  0.3535566E+03  0.7546771E-02  0.1061165E+00
         21   -1    0    0  502  501  0.00000000000E+00  0.00000000000E+00  0.63010523606E+03  0.63010523606E+03  0.00000000000E+00 0. -1.
         21   -1    0    0  501  502 -0.00000000000E+00 -0.00000000000E+00 -0.19838317192E+03  0.19838317192E+03  0.00000000000E+00 0. -1.
         25    1    1    2    0    0  0.11048841739E+03 -0.11810052268E+03  0.55386061805E+03  0.59037446427E+03  0.12500000000E+03 0.  0.
         25    1    1    2    0    0 -0.11048841739E+03  0.11810052268E+03 -0.12213855392E+03  0.23811394371E+03  0.12500000000E+03 0.  0.
</event>
<event>
 4    0  0.2239279E-002  0.2340508E+03  0.7546771E-02  0.1123821E+00
         21   -1    0    0  502  501  0.00000000000E+00  0.00000000000E+00  0.24237597688E+03  0.24237597688E+03  0.00000000000E+00 0. -1.
         21   -1    0    0  501  502 -0.00000000000E+00 -0.00000000000E+00 -0.22601157550E+03  0.22601157550E+03  0.00000000000E+00 0. -1.
         25    1    1    2    0    0 -0.59247516072E+02 -0.63798532412E+02 -0.16961780937E+03  0.22798184610E+03  0.12500000000E+03 0.  0.
         25    1    1    2    0    0  0.59247516072E+02  0.63798532412E+02  0.18598221075E+03  0.24040570628E+03  0.12500000000E+03 0.  0.
</event>
<event>
 4    0  0.2239279E-002  0.2900934E+03  0.7546771E-02  0.1090300E+00
         21   -1    0    0  502  501  0.00000000000E+00  0.00000000000E+00  0.17218142163E+03  0.17218142163E+03  0.00000000000E+00 0. -1.
         21   -1    0    0  501  502 -0.00000000000E+00 -0.00000000000E+00 -0.48875312953E+03  0.48875312953E+03  0.00000000000E+00 0. -1.
         25    1    1    2    0    0  0.16227427333E+03  0.12392451198E+03  0.28340760305E+02  0.24107762889E+03  0.12500000000E+03 0.  0.
         25    1    1    2    0    0 -0.16227427333E+03 -0.12392451198E+03 -0.34491246820E+03  0.41985692227E+03  0.12500000000E+03 0.  0.
</event>
<event>
 4    0  0.2239279E-002  0.2974585E+03  0.7546771E-02  0.1086518E+00
         21   -1    0    0  502  501  0.00000000000E+00  0.00000000000E+00  0.30326063571E+03  0.30326063571E+03  0.00000000000E+00 0.  1.
         21   -1    0    0  501  502 -0.00000000000E+00 -0.00000000000E+00 -0.29176744051E+03  0.29176744051E+03  0.00000000000E+00 0.  1.
         25    1    1    2    0    0 -0.24141415373E+03  0.35517372568E+02  0.12115574506E+03  0.29974321000E+03  0.12500000000E+03 0.  0.
         25    1    1    2    0    0  0.24141415373E+03 -0.35517372568E+02 -0.10966254987E+03  0.29528486622E+03  0.12500000000E+03 0.  0.
</event>
<event>
 4    0  0.2239279E-002  0.2078161E+03  0.7546771E-02  0.1143307E+00
         21   -1    0    0  502  501  0.00000000000E+00  0.00000000000E+00  0.17974290451E+03  0.17974290451E+03  0.00000000000E+00 0. -1.
         21   -1    0    0  501  502 -0.00000000000E+00 -0.00000000000E+00 -0.24027398948E+03  0.24027398948E+03  0.00000000000E+00 0. -1.
         25    1    1    2    0    0 -0.43857790393E+02 -0.13360410165E+03 -0.11945178842E+03  0.22286159721E+03  0.12500000000E+03 0.  0.
         25    1    1    2    0    0  0.43857790393E+02  0.13360410165E+03  0.58920703446E+02  0.19715529678E+03  0.12500000000E+03 0.  0.
</event>
<event>
 4    0  0.2239279E-002  0.2162971E+03  0.7546771E-02  0.1136674E+00
         21   -1    0    0  502  501  0.00000000000E+00  0.00000000000E+00  0.25283616300E+03  0.25283616300E+03  0.00000000000E+00 0.  1.
         21   -1    0    0  501  502 -0.00000000000E+00 -0.00000000000E+00 -0.18503849781E+03  0.18503849781E+03  0.00000000000E+00 0.  1.
         25    1    1    2    0    0  0.95940497485E+02  0.14808000183E+03  0.28623906049E+02  0.21812059508E+03  0.12500000000E+03 0.  0.
         25    1    1    2    0    0 -0.95940497485E+02 -0.14808000183E+03  0.39173759140E+02  0.21975406573E+03  0.12500000000E+03 0.  0.
</event>
<event>
 4    0  0.2239279E-002  0.3936876E+03  0.7546771E-02  0.1045988E+00
         21   -1    0    0  502  501  0.00000000000E+00  0.00000000000E+00  0.50562031290E+03  0.50562031290E+03  0.00000000000E+00 0.  1.
         21   -1    0    0  501  502 -0.00000000000E+00 -0.00000000000E+00 -0.30653420851E+03  0.30653420851E+03  0.00000000000E+00 0.  1.
         25    1    1    2    0    0 -0.20167616572E+03  0.30056206221E+03  0.19382023631E+03  0.42918773638E+03  0.12500000000E+03 0.  0.
         25    1    1    2    0    0  0.20167616572E+03 -0.30056206221E+03  0.52658680829E+01  0.38296678502E+03  0.12500000000E+03 0.  0.
</event>
<event>
 4    0  0.2239279E-002  0.1749768E+03  0.7546771E-02  0.1172755E+00
         21   -1    0    0  502  501  0.00000000000E+00  0.00000000000E+00  0.21252801475E+04  0.21252801475E+04  0.00000000000E+00 0.  1.
         21   -1    0    0  501  502 -0.00000000000E+00 -0.00000000000E+00 -0.14406039625E+02  0.14406039625E+02  0.00000000000E+00 0.  1.
         25    1    1    2    0    0 -0.59794107235E+02 -0.46128078144E+02  0.16447120078E+04  0.16511831284E+04  0.12500000000E+03 0.  0.
         25    1    1    2    0    0  0.59794107235E+02  0.46128078144E+02  0.46616210005E+03  0.48850305872E+03  0.12500000000E+03 0.  0.
</event>
<event>
 4    0  0.2239279E-002  0.2214452E+03  0.7546771E-02  0.1132810E+00
         21   -1    0    0  502  501  0.00000000000E+00  0.00000000000E+00  0.10357616070E+03  0.10357616070E+03  0.00000000000E+00 0.  1.
         21   -1    0    0  501  502 -0.00000000000E+00 -0.00000000000E+00 -0.47344857674E+03  0.47344857674E+03  0.00000000000E+00 0.  1.
         25    1    1    2    0    0 -0.31851838787E+02 -0.10390210850E+00  0.49573131406E+02  0.13819206123E+03  0.12500000000E+03 0.  0.
         25    1    1    2    0    0  0.31851838787E+02  0.10390210850E+00 -0.41944554745E+03  0.43883267620E+03  0.12500000000E+03 0.  0.
</event>
<event>
 4    0  0.2239279E-002  0.3408349E+03  0.7546771E-02  0.1066441E+00
         21   -1    0    0  502  501  0.00000000000E+00  0.00000000000E+00  0.79257438465E+03  0.79257438465E+03  0.00000000000E+00 0.  1.
         21   -1    0    0  501  502 -0.00000000000E+00 -0.00000000000E+00 -0.14657104186E+03  0.14657104186E+03  0.00000000000E+00 0. -1.
         25    1    1    2    0    0  0.81471691165E+02 -0.21984743764E+03  0.61711329020E+03  0.67188119876E+03  0.12500000000E+03 0.  0.
         25    1    1    2    0    0 -0.81471691165E+02  0.21984743764E+03  0.28890052585E+02  0.26726422775E+03  0.12500000000E+03 0.  0.
</event>
<event>
 4    0  0.2239279E-002  0.2955099E+03  0.7546771E-02  0.1087507E+00
         21   -1    0    0  502  501  0.00000000000E+00  0.00000000000E+00  0.34079500995E+03  0.34079500995E+03  0.00000000000E+00 0.  1.
         21   -1    0    0  501  502 -0.00000000000E+00 -0.00000000000E+00 -0.25624238060E+03  0.25624238060E+03  0.00000000000E+00 0.  1.
         25    1    1    2    0    0 -0.16178831490E+03  0.20920307996E+02 -0.17222499993E+03  0.26814094936E+03  0.12500000000E+03 0.  0.
         25    1    1    2    0    0  0.16178831490E+03 -0.20920307996E+02  0.25677762928E+03  0.32889644118E+03  0.12500000000E+03 0.  0.
</event>
<event>
 4    0  0.2239279E-002  0.1872982E+03  0.7546771E-02  0.1160921E+00
         21   -1    0    0  502  501  0.00000000000E+00  0.00000000000E+00  0.12149645000E+03  0.12149645000E+03  0.00000000000E+00 0. -1.
         21   -1    0    0  501  502 -0.00000000000E+00 -0.00000000000E+00 -0.28873767907E+03  0.28873767907E+03  0.00000000000E+00 0. -1.
         25    1    1    2    0    0 -0.72715998176E+02  0.11902842794E+03 -0.84134207534E+02  0.20532644234E+03  0.12500000000E+03 0.  0.
         25    1    1    2    0    0  0.72715998176E+02 -0.11902842794E+03 -0.83107021543E+02  0.20490768672E+03  0.12500000000E+03 0.  0.
</event>
<event>
 4    0  0.2239279E-002  0.1969441E+03  0.7546771E-02  0.1152343E+00
         21   -1    0    0  502  501  0.00000000000E+00  0.00000000000E+00  0.65512359689E+02  0.65512359689E+02  0.00000000000E+00 0. -1.
         21   -1    0    0  501  502 -0.00000000000E+00 -0.00000000000E+00 -0.59205572485E+03  0.59205572485E+03  0.00000000000E+00 0. -1.
         25    1    1    2    0    0  0.98810744340E+02 -0.11378731778E+03 -0.29871906738E+03  0.35716830501E+03  0.12500000000E+03 0.  0.
         25    1    1    2    0    0 -0.98810744340E+02  0.11378731778E+03 -0.22782429778E+03  0.30039977953E+03  0.12500000000E+03 0.  0.
</event>
<event>
 4    0  0.2239279E-002  0.2117519E+03  0.7546771E-02  0.1140186E+00
         21   -1    0    0  502  501  0.00000000000E+00  0.00000000000E+00  0.18508711363E+04  0.18508711363E+04  0.00000000000E+00 0.  1.
         21   -1    0    0  501  502 -0.00000000000E+00 -0.00000000000E+00 -0.24225807482E+02  0.24225807482E+02  0.00000000000E+00 0.  1.
         25    1    1    2    0    0  0.12985731560E+03 -0.10057093936E+03  0.70393920422E+03  0.73357538093E+03  0.12500000000E+03 0.  0.
         25    1    1    2    0    0 -0.12985731560E+03  0.10057093936E+03  0.11227061246E+04  0.11415215629E+04  0.12500000000E+03 0.  0.
</event>
<event>
 4    0  0.2239279E-002  0.2019695E+03  0.7546771E-02  0.1148088E+00
         21   -1    0    0  502  501  0.00000000000E+00  0.00000000000E+00  0.44026773889E+03  0.44026773889E+03  0.00000000000E+00 0.  1.
         21   -1    0    0  501  502 -0.00000000000E+00 -0.00000000000E+00 -0.92652017552E+02  0.92652017552E+02  0.00000000000E+00 0.  1.
         25    1    1    2    0    0  0.12084280760E+03  0.51959792289E+02  0.29080215198E+03  0.34277353422E+03  0.12500000000E+03 0.  0.
         25    1    1    2    0    0 -0.12084280760E+03 -0.51959792289E+02  0.56813569355E+02  0.19014622222E+03  0.12500000000E+03 0.  0.
</event>
<event>
 4    0  0.2239279E-002  0.2003380E+03  0.7546771E-02  0.1149454E+00
         21   -1    0    0  502  501  0.00000000000E+00  0.00000000000E+00  0.56691577967E+03  0.56691577967E+03  0.00000000000E+00 0.  1.
         21   -1    0    0  501  502 -0.00000000000E+00 -0.00000000000E+00 -0.70795931413E+02  0.70795931413E+02  0.00000000000E+00 0.  1.
         25    1    1    2    0    0  0.19901327289E+02  0.13647707861E+03  0.13015039634E+03  0.22712591548E+03  0.12500000000E+03 0.  0.
         25    1    1    2    0    0 -0.19901327289E+02 -0.13647707861E+03  0.36596945192E+03  0.41058579560E+03  0.12500000000E+03 0.  0.
</event>
<event>
 4    0  0.2239279E-002  0.1759373E+03  0.7546771E-02  0.1171794E+00
         21   -1    0    0  502  501  0.00000000000E+00  0.00000000000E+00  0.92107382916E+03  0.92107382916E+03  0.00000000000E+00 0. -1.
         21   -1    0    0  501  502 -0.00000000000E+00 -0.00000000000E+00 -0.33606348823E+02  0.33606348823E+02  0.00000000000E+00 0. -1.
         25    1    1    2    0    0  0.60378316692E+02  0.82060820869E+02  0.63460770397E+03  0.65477588333E+03  0.12500000000E+03 0.  0.
         25    1    1    2    0    0 -0.60378316692E+02 -0.82060820869E+02  0.25285977637E+03  0.29990429465E+03  0.12500000000E+03 0.  0.
</event>
<event>
 4    0  0.2239279E-002  0.2203752E+03  0.7546771E-02  0.1133604E+00
         21   -1    0    0  502  501  0.00000000000E+00  0.00000000000E+00  0.30990202203E+03  0.30990202203E+03  0.00000000000E+00 0.  1.
         21   -1    0    0  501  502 -0.00000000000E+00 -0.00000000000E+00 -0.15671151209E+03  0.15671151209E+03  0.00000000000E+00 0.  1.
         25    1    1    2    0    0 -0.13729632781E+03  0.60517761158E+02  0.18470266814E+03  0.26879872891E+03  0.12500000000E+03 0.  0.
         25    1    1    2    0    0  0.13729632781E+03 -0.60517761158E+02 -0.31512158204E+02  0.19781480521E+03  0.12500000000E+03 0.  0.
</event>
<event>
 4    0  0.2239279E-002  0.2155555E+03  0.7546771E-02  0.1137241E+00
         21   -1    0    0  502  501  0.00000000000E+00  0.00000000000E+00  0.18942663945E+03  0.18942663945E+03  0.00000000000E+00 0. -1.
         21   -1    0    0  501  502 -0.00000000000E+00 -0.00000000000E+00 -0.24528855366E+03  0.24528855366E+03  0.00000000000E+00 0. -1.
         25    1    1    2    0    0  0.14378662444E+03 -0.15102986325E+02 -0.12844626722E+03  0.23027404788E+03  0.12500000000E+03 0.  0.
         25    1    1    2    0    0 -0.14378662444E+03  0.15102986325E+02  0.72584353011E+02  0.20444114524E+03  0.12500000000E+03 0.  0.
</event>
<event>
 4    0  0.2239279E-002  0.3136514E+03  0.7546771E-02  0.1078609E+00
         21   -1    0    0  502  501  0.00000000000E+00  0.00000000000E+00  0.82455713366E+02  0.82455713366E+02  0.00000000000E+00 0.  1.
         21   -1    0    0  501  502 -0.00000000000E+00 -0.00000000000E+00 -0.11930911674E+04  0.11930911674E+04  0.00000000000E+00 0.  1.
         25    1    1    2    0    0  0.25068931921E+02  0.24496250570E+03 -0.25291663480E+03  0.37446883009E+03  0.12500000000E+03 0.  0.
         25    1    1    2    0    0 -0.25068931921E+02 -0.24496250570E+03 -0.85771881920E+03  0.90107805065E+03  0.12500000000E+03 0.  0.
</event>
<event>
 4    0  0.2239279E-002  0.2350525E+03  0.7546771E-02  0.1123133E+00
         21   -1    0    0  502  501  0.00000000000E+00  0.00000000000E+00  0.35141331114E+03  0.35141331114E+03  0.00000000000E+00 0.  1.
         21   -1    0    0  501  502 -0.00000000000E+00 -0.00000000000E+00 -0.15722133833E+03  0.15722133833E+03  0.00000000000E+00 0.  1.
         25    1    1    2    0    0  0.10830809597E+03  0.14215136814E+03  0.19195748681E+03  0.29053456225E+03  0.12500000000E+03 0.  0.
         25    1    1    2    0    0 -0.10830809597E+03 -0.14215136814E+03  0.22344859963E+01  0.21810008722E+03  0.12500000000E+03 0.  0.
</event>
<event>
 4    0  0.2239279E-002  0.2633370E+03  0.7546771E-02  0.1105155E+00
         21   -1    0    0  502  501  0.00000000000E+00  0.00000000000E+00  0.86269894017E+03  0.86269894017E+03  0.00000000000E+00 0.  1.
         21   -1    0    0  501  502 -0.00000000000E+00 -0.00000000000E+00 -0.80383029474E+02  0.80383029474E+02  0.00000000000E+00 0.  1.
         25    1    1    2    0    0 -0.20239128992E+03 -0.10992547680E+03  0.34461827378E+03  0.43293486728E+03  0.12500000000E+03 0.  0.
         25    1    1    2    0    0  0.20239128992E+03  0.10992547680E+03  0.43769763692E+03  0.51014710236E+03  0.12500000000E+03 0.  0.
</event>
<event>
 4    0  0.2239279E-002  0.2580671E+03  0.7546771E-02  0.1108310E+00
         21   -1    0    0  502  501  0.00000000000E+00  0.00000000000E+00  0.62202427072E+03  0.62202427072E+03  0.00000000000E+00 0. -1.
         21   -1    0    0  501  502 -0.00000000000E+00 -0.00000000000E+00 -0.10706754987E+03  0.10706754987E+03  0.00000000000E+00 0. -1.
         25    1    1    2    0    0 -0.10566459705E+02 -0.21841350330E+03  0.17810189904E+03  0.30848240620E+03  0.12500000000E+03 0.  0.
         25    1    1    2    0    0  0.10566459705E+02  0.21841350330E+03  0.33685482182E+03  0.42060941439E+03  0.12500000000E+03 0.  0.
</event>
<event>
 4    0  0.2239279E-002  0.1839689E+03  0.7546771E-02  0.1164016E+00
         21   -1    0    0  502  501  0.00000000000E+00  0.00000000000E+00  0.44493760722E+03  0.44493760722E+03  0.00000000000E+00 0.  1.
         21   -1    0    0  501  502 -0.00000000000E+00 -0.00000000000E+00 -0.76065827293E+02  0.76065827293E+02  0.00000000000E+00 0.  1.
         25    1    1    2    0    0 -0.41334978035E+02  0.56788917919E+02  0.34765203831E+03  0.37605917267E+03  0.12500000000E+03 0.  0.
         25    1    1    2    0    0  0.41334978035E+02 -0.56788917919E+02  0.21219741617E+02  0.14494426185E+03  0.12500000000E+03 0.  0.
</event>
<event>
 4    0  0.2239279E-002  0.9537150E+03  0.7546771E-02  0.9360819E-01
         21   -1    0    0  502  501  0.00000000000E+00  0.00000000000E+00  0.12961308416E+04  0.12961308416E+04  0.00000000000E+00 0.  1.
         21   -1    0    0  501  502 -0.00000000000E+00 -0.00000000000E+00 -0.70175965872E+03  0.70175965872E+03  0.00000000000E+00 0. -1.
         25    1    1    2    0    0 -0.24100264296E+03  0.61793010164E+03 -0.40858591506E+03  0.78897866537E+03  0.12500000000E+03 0.  0.
         25    1    1    2    0    0  0.24100264296E+03 -0.61793010164E+03  0.10029570980E+04  0.12089118350E+04  0.12500000000E+03 0.  0.
</event>
<event>
 4    0  0.2239279E-002  0.2516614E+03  0.7546771E-02  0.1112259E+00
         21   -1    0    0  502  501  0.00000000000E+00  0.00000000000E+00  0.64411671648E+02  0.64411671648E+02  0.00000000000E+00 0.  1.
         21   -1    0    0  501  502 -0.00000000000E+00 -0.00000000000E+00 -0.98326079645E+03  0.98326079645E+03  0.00000000000E+00 0.  1.
         25    1    1    2    0    0 -0.62735775859E+02  0.94683022245E+02 -0.71079939448E+02  0.18324303552E+03  0.12500000000E+03 0.  0.
         25    1    1    2    0    0  0.62735775859E+02 -0.94683022245E+02 -0.84776918535E+03  0.86442943258E+03  0.12500000000E+03 0.  0.
</event>
<event>
 4    0  0.2239279E-002  0.2929959E+03  0.7546771E-02  0.1088795E+00
         21   -1    0    0  502  501  0.00000000000E+00  0.00000000000E+00  0.93940916711E+02  0.93940916711E+02  0.00000000000E+00 0. -1.
         21   -1    0    0  501  502 -0.00000000000E+00 -0.00000000000E+00 -0.91383610871E+03  0.91383610871E+03  0.00000000000E+00 0. -1.
         25    1    1    2    0    0 -0.42577604950E+02 -0.74239708834E+02 -0.84125668623E+03  0.85478780930E+03  0.12500000000E+03 0.  0.
         25    1    1    2    0    0  0.42577604950E+02  0.74239708834E+02  0.21361494232E+02  0.15298921611E+03  0.12500000000E+03 0.  0.
</event>
<event>
 4    0  0.2239279E-002  0.1915936E+03  0.7546771E-02  0.1157032E+00
         21   -1    0    0  502  501  0.00000000000E+00  0.00000000000E+00  0.12093093553E+03  0.12093093553E+03  0.00000000000E+00 0.  1.
         21   -1    0    0  501  502 -0.00000000000E+00 -0.00000000000E+00 -0.30354609714E+03  0.30354609714E+03  0.00000000000E+00 0.  1.
         25    1    1    2    0    0  0.13684476349E+03 -0.68449799751E+01 -0.14454629762E+03  0.23514245725E+03  0.12500000000E+03 0.  0.
         25    1    1    2    0    0 -0.13684476349E+03  0.68449799751E+01 -0.38068863994E+02  0.18933457543E+03  0.12500000000E+03 0.  0.
</event>
<event>
 4    0  0.2239279E-002  0.2313918E+03  0.7546771E-02  0.1125664E+00
         21   -1    0    0  502  501  0.00000000000E+00  0.00000000000E+00  0.45501901524E+02  0.45501901524E+02  0.00000000000E+00 0.  1.
         21   -1    0    0  501  502 -0.00000000000E+00 -0.00000000000E+00 -0.11767012722E+04  0.11767012722E+04  0.00000000000E+00 0.  1.
         25    1    1    2    0    0  0.48239544025E+02 -0.98507541254E+02 -0.14068573698E+03  0.21782622864E+03  0.12500000000E+03 0.  0.
         25    1    1    2    0    0 -0.48239544025E+02  0.98507541254E+02 -0.99051363366E+03  0.10043769451E+04  0.12500000000E+03 0.  0.
</event>
<event>
 4    0  0.2239279E-002  0.1963092E+03  0.7546771E-02  0.1152891E+00
         21   -1    0    0  502  501  0.00000000000E+00  0.00000000000E+00  0.10305692660E+03  0.10305692660E+03  0.00000000000E+00 0. -1.
         21   -1    0    0  501  502 -0.00000000000E+00 -0.00000000000E+00 -0.37394205333E+03  0.37394205333E+03  0.00000000000E+00 0. -1.
         25    1    1    2    0    0  0.14713766728E+03 -0.14608882969E+02 -0.17479924826E+03  0.26084993729E+03  0.12500000000E+03 0.  0.
         25    1    1    2    0    0 -0.14713766728E+03  0.14608882969E+02 -0.96085878463E+02  0.21614904264E+03  0.12500000000E+03 0.  0.
</event>
<event>
 4    0  0.2239279E-002  0.2329290E+03  0.7546771E-02  0.1124595E+00
         21   -1    0    0  502  501  0.00000000000E+00  0.00000000000E+00  0.10602183797E+03  0.10602183797E+03  0.00000000000E+00 0. -1.
         21   -1    0    0  501  502 -0.00000000000E+00 -0.00000000000E+00 -0.51174302087E+03  0.51174302087E+03  0.00000000000E+00 0. -1.
         25    1    1    2    0    0 -0.93240480808E+02  0.89349655673E+02 -0.63778979865E+01  0.17984111269E+03  0.12500000000E+03 0.  0.
         25    1    1    2    0    0  0.93240480808E+02 -0.89349655673E+02 -0.39934328492E+03  0.43792374615E+03  0.12500000000E+03 0.  0.
</event>
<event>
 4    0  0.2239279E-002  0.2559465E+03  0.7546771E-02  0.1109603E+00
         21   -1    0    0  502  501  0.00000000000E+00  0.00000000000E+00  0.10100846420E+03  0.10100846420E+03  0.00000000000E+00 0.  1.
         21   -1    0    0  501  502 -0.00000000000E+00 -0.00000000000E+00 -0.64854597912E+03  0.64854597912E+03  0.00000000000E+00 0.  1.
         25    1    1    2    0    0  0.19909743031E+03  0.17348663174E+02 -0.41977781850E+03  0.48143450206E+03  0.12500000000E+03 0.  0.
         25    1    1    2    0    0 -0.19909743031E+03 -0.17348663174E+02 -0.12775969642E+03  0.26811994126E+03  0.12500000000E+03 0.  0.
</event>
<event>
 4    0  0.2239279E-002  0.2291593E+03  0.7546771E-02  0.1127233E+00
         21   -1    0    0  502  501  0.00000000000E+00  0.00000000000E+00  0.38010869659E+03  0.38010869659E+03  0.00000000000E+00 0.  1.
         21   -1    0    0  501  502 -0.00000000000E+00 -0.00000000000E+00 -0.13815514951E+03  0.13815514951E+03  0.00000000000E+00 0.  1.
         25    1    1    2    0    0  0.66453295747E+02  0.82431024886E+02 -0.60225889588E+02  0.17453673584E+03  0.12500000000E+03 0.  0.
         25    1    1    2    0    0 -0.66453295747E+02 -0.82431024886E+02  0.30217943667E+03  0.34372711026E+03  0.12500000000E+03 0.  0.
</event>
<event>
 4    0  0.2239279E-002  0.2097268E+03  0.7546771E-02  0.1141783E+00
         21   -1    0    0  502  501  0.00000000000E+00  0.00000000000E+00  0.33003013032E+02  0.33003013032E+02  0.00000000000E+00 0. -1.
         21   -1    0    0  501  502 -0.00000000000E+00 -0.00000000000E+00 -0.13327670407E+04  0.13327670407E+04  0.00000000000E+00 0. -1.
         25    1    1    2    0    0 -0.49727205370E+02  0.14515002345E+03 -0.42384877655E+03  0.46777570441E+03  0.12500000000E+03 0.  0.
         25    1    1    2    0    0  0.49727205370E+02 -0.14515002345E+03 -0.87591525116E+03  0.89799434936E+03  0.12500000000E+03 0.  0.
</event>
<event>
 4    0  0.2239279E-002  0.2236050E+03  0.7546771E-02  0.1131224E+00
         21   -1    0    0  502  501  0.00000000000E+00  0.00000000000E+00  0.18060731656E+03  0.18060731656E+03  0.00000000000E+00 0.  1.
         21   -1    0    0  501  502 -0.00000000000E+00 -0.00000000000E+00 -0.27683936666E+03  0.27683936666E+03  0.00000000000E+00 0.  1.
         25    1    1    2    0    0  0.12048879764E+03  0.12531943984E+03 -0.11402461505E+03  0.24258838636E+03  0.12500000000E+03 0.  0.
         25    1    1    2    0    0 -0.12048879764E+03 -0.12531943984E+03  0.17792564952E+02  0.21485829686E+03  0.12500000000E+03 0.  0.
</event>
<event>
 4    0  0.2239279E-002  0.3243852E+03  0.7546771E-02  0.1073649E+00
         21   -1    0    0  502  501  0.00000000000E+00  0.00000000000E+00  0.47305103742E+03  0.47305103742E+03  0.00000000000E+00 0.  1.
         21   -1    0    0  501  502 -0.00000000000E+00 -0.00000000000E+00 -0.22244059567E+03  0.22244059567E+03  0.00000000000E+00 0.  1.
         25    1    1    2    0    0  0.25291350846E+03 -0.94324055567E+01  0.29664844969E+03  0.40948689325E+03  0.12500000000E+03 0.  0.
         25    1    1    2    0    0 -0.25291350846E+03  0.94324055567E+01 -0.46038007936E+02  0.28600473984E+03  0.12500000000E+03 0.  0.
</event>
<event>
 4    0  0.2239279E-002  0.2183891E+03  0.7546771E-02  0.1135090E+00
         21   -1    0    0  502  501  0.00000000000E+00  0.00000000000E+00  0.50412935091E+03  0.50412935091E+03  0.00000000000E+00 0. -1.
         21   -1    0    0  501  502 -0.00000000000E+00 -0.00000000000E+00 -0.94606288033E+02  0.94606288033E+02  0.00000000000E+00 0. -1.
         25    1    1    2    0    0  0.14646889940E+03 -0.10283061353E+03  0.19592725830E+03  0.29332535539E+03  0.12500000000E+03 0.  0.
         25    1    1    2    0    0 -0.14646889940E+03  0.10283061353E+03  0.21359580458E+03  0.30541028356E+03  0.12500000000E+03 0.  0.
</event>
<event>
 4    0  0.2239279E-002  0.2134002E+03  0.7546771E-02  0.1138901E+00
         21   -1    0    0  502  501  0.00000000000E+00  0.00000000000E+00  0.51948508470E+03  0.51948508470E+03  0.00000000000E+00 0.  1.
         21   -1    0    0  501  502 -0.00000000000E+00 -0.00000000000E+00 -0.87663023816E+02  0.87663023816E+02  0.00000000000E+00 0.  1.
         25    1    1    2    0    0  0.10123444007E+03  0.13937394476E+03  0.23800079170E+03  0.31928495922E+03  0.12500000000E+03 0.  0.
         25    1    1    2    0    0 -0.10123444007E+03 -0.13937394476E+03  0.19382126918E+03  0.28786314930E+03  0.12500000000E+03 0.  0.
</event>
<event>
 4    0  0.2239279E-002  0.2338067E+03  0.7546771E-02  0.1123989E+00
         21   -1    0    0  502  501  0.00000000000E+00  0.00000000000E+00  0.12470411906E+03  0.12470411906E+03  0.00000000000E+00 0. -1.
         21   -1    0    0  501  502 -0.00000000000E+00 -0.00000000000E+00 -0.43836233105E+03  0.43836233105E+03  0.00000000000E+00 0. -1.
         25    1    1    2    0    0 -0.10948716699E+03  0.35947839088E+02  0.36435875836E+02  0.17387426468E+03  0.12500000000E+03 0.  0.
         25    1    1    2    0    0  0.10948716699E+03 -0.35947839088E+02 -0.35009408782E+03  0.38919218543E+03  0.12500000000E+03 0.  0.
</event>
<event>
 4    0  0.2239279E-002  0.1704654E+03  0.7546771E-02  0.1177363E+00
         21   -1    0    0  502  501  0.00000000000E+00  0.00000000000E+00  0.42377534478E+02  0.42377534478E+02  0.00000000000E+00 0. -1.
         21   -1    0    0  501  502 -0.00000000000E+00 -0.00000000000E+00 -0.68570435376E+03  0.68570435376E+03  0.00000000000E+00 0. -1.
         25    1    1    2    0    0 -0.78711292856E+02 -0.63232512065E+02 -0.44321549807E+03  0.47144331148E+03  0.12500000000E+03 0.  0.
         25    1    1    2    0    0  0.78711292856E+02  0.63232512065E+02 -0.20011132120E+03  0.25663857675E+03  0.12500000000E+03 0.  0.
</event>
<event>
 4    0  0.2239279E-002  0.3736104E+03  0.7546771E-02  0.1053321E+00
         21   -1    0    0  502  501  0.00000000000E+00  0.00000000000E+00  0.22904825530E+03  0.22904825530E+03  0.00000000000E+00 0.  1.
         21   -1    0    0  501  502 -0.00000000000E+00 -0.00000000000E+00 -0.60941197478E+03  0.60941197478E+03  0.00000000000E+00 0. -1.
         25    1    1    2    0    0 -0.85946916395E+02 -0.31966022115E+03 -0.55574996015E+02  0.35816631557E+03  0.12500000000E+03 0.  0.
         25    1    1    2    0    0  0.85946916395E+02  0.31966022115E+03 -0.32478872347E+03  0.48029391451E+03  0.12500000000E+03 0.  0.
</event>
<event>
 4    0  0.2239279E-002  0.3285525E+03  0.7546771E-02  0.1071779E+00
         21   -1    0    0  502  501  0.00000000000E+00  0.00000000000E+00  0.58761906687E+03  0.58761906687E+03  0.00000000000E+00 0.  1.
         21   -1    0    0  501  502 -0.00000000000E+00 -0.00000000000E+00 -0.18370193220E+03  0.18370193220E+03  0.00000000000E+00 0.  1.
         25    1    1    2    0    0  0.12552768346E+03 -0.22026689945E+03  0.53764696417E+01  0.28271648826E+03  0.12500000000E+03 0.  0.
         25    1    1    2    0    0 -0.12552768346E+03  0.22026689945E+03  0.39854066502E+03  0.48860451081E+03  0.12500000000E+03 0.  0.
</event>
<event>
 4    0  0.2239279E-002  0.2143955E+03  0.7546771E-02  0.1138132E+00
         21   -1    0    0  502  501  0.00000000000E+00  0.00000000000E+00  0.10030445511E+03  0.10030445511E+03  0.00000000000E+00 0.  1.
         21   -1    0    0  501  502 -0.00000000000E+00 -0.00000000000E+00 -0.45825891348E+03  0.45825891348E+03  0.00000000000E+00 0.  1.
         25    1    1    2    0    0  0.12535020932E+03 -0.57813602035E+02 -0.40593866108E+02  0.19059892319E+03  0.12500000000E+03 0.  0.
         25    1    1    2    0    0 -0.12535020932E+03  0.57813602035E+02 -0.31736059226E+03  0.36796444540E+03  0.12500000000E+03 0.  0.
</event>
<event>
 4    0  0.2239279E-002  0.2132931E+03  0.7546771E-02  0.1138984E+00
         21   -1    0    0  502  501  0.00000000000E+00  0.00000000000E+00  0.36387349296E+03  0.36387349296E+03  0.00000000000E+00 0.  1.
         21   -1    0    0  501  502 -0.00000000000E+00 -0.00000000000E+00 -0.12502685447E+03  0.12502685447E+03  0.00000000000E+00 0.  1.
         25    1    1    2    0    0 -0.10067488563E+03  0.12934667937E+03  0.18222748046E+03  0.27513242393E+03  0.12500000000E+03 0.  0.
         25    1    1    2    0    0  0.10067488563E+03 -0.12934667937E+03  0.56619158030E+02  0.21376792350E+03  0.12500000000E+03 0.  0.
</event>
<event>
 4    0  0.2239279E-002  0.2361818E+03  0.7546771E-02  0.1122363E+00
         21   -1    0    0  502  501  0.00000000000E+00  0.00000000000E+00  0.81634689622E+02  0.81634689622E+02  0.00000000000E+00 0. -1.
         21   -1    0    0  501  502 -0.00000000000E+00 -0.00000000000E+00 -0.68331056884E+03  0.68331056884E+03  0.00000000000E+00 0. -1.
         25    1    1    2    0    0  0.40659365851E+02  0.16375677092E+03 -0.12576761311E+03  0.24476919038E+03  0.12500000000E+03 0.  0.
         25    1    1    2    0    0 -0.40659365851E+02 -0.16375677092E+03 -0.47590826611E+03  0.52017606808E+03  0.12500000000E+03 0.  0.
</event>
<event>
 4    0  0.2239279E-002  0.2065659E+03  0.7546771E-02  0.1144315E+00
         21   -1    0    0  502  501  0.00000000000E+00  0.00000000000E+00  0.15288628522E+03  0.15288628522E+03  0.00000000000E+00 0. -1.
         21   -1    0    0  501  502 -0.00000000000E+00 -0.00000000000E+00 -0.27909294664E+03  0.27909294664E+03  0.00000000000E+00 0. -1.
         25    1    1    2    0    0  0.15402393400E+03 -0.30509747267E+02 -0.11982561739E+02  0.20105421833E+03  0.12500000000E+03 0.  0.
         25    1    1    2    0    0 -0.15402393400E+03  0.30509747267E+02 -0.11422409969E+03  0.23092501353E+03  0.12500000000E+03 0.  0.
</event>
<event>
 4    0  0.2239279E-002  0.1998863E+03  0.7546771E-02  0.1149835E+00
         21   -1    0    0  502  501  0.00000000000E+00  0.00000000000E+00  0.14951265792E+03  0.14951265792E+03  0.00000000000E+00 0. -1.
         21   -1    0    0  501  502 -0.00000000000E+00 -0.00000000000E+00 -0.26723171395E+03  0.26723171395E+03  0.00000000000E+00 0. -1.
         25    1    1    2    0    0 -0.14845209380E+03 -0.47772034139E+02 -0.62044122913E+02  0.20927174819E+03  0.12500000000E+03 0.  0.
         25    1    1    2    0    0  0.14845209380E+03  0.47772034139E+02 -0.55674933109E+02  0.20747262368E+03  0.12500000000E+03 0.  0.
</event>
<event>
 4    0  0.2239279E-002  0.2370643E+03  0.7546771E-02  0.1121764E+00
         21   -1    0    0  502  501  0.00000000000E+00  0.00000000000E+00  0.70183555434E+02  0.70183555434E+02  0.00000000000E+00 0.  1.
         21   -1    0    0  501  502 -0.00000000000E+00 -0.00000000000E+00 -0.80074988277E+03  0.80074988277E+03  0.00000000000E+00 0.  1.
         25    1    1    2    0    0 -0.17073093488E+03  0.81081218380E+02 -0.23734031483E+03  0.32814423832E+03  0.12500000000E+03 0.  0.
         25    1    1    2    0    0  0.17073093488E+03 -0.81081218380E+02 -0.49322601251E+03  0.54278919989E+03  0.12500000000E+03 0.  0.
</event>
<event>
 4    0  0.2239279E-002  0.1811030E+03  0.7546771E-02  0.1166740E+00
         21   -1    0    0  502  501  0.00000000000E+00  0.00000000000E+00  0.13687962072E+03  0.13687962072E+03  0.00000000000E+00 0.  1.
         21   -1    0    0  501  502 -0.00000000000E+00 -0.00000000000E+00 -0.23961428872E+03  0.23961428872E+03  0.00000000000E+00 0.  1.
         25    1    1    2    0    0 -0.56557897404E+02  0.75622390017E+02 -0.14581278268E+03  0.21401847870E+03  0.12500000000E+03 0.  0.
         25    1    1    2    0    0  0.56557897404E+02 -0.75622390017E+02  0.43078114687E+02  0.16247543074E+03  0.12500000000E+03 0.  0.
</event>
<event>
 4    0  0.2239279E-002  0.2292453E+03  0.7546771E-02  0.1127172E+00
         21   -1    0    0  502  501  0.00000000000E+00  0.00000000000E+00  0.13565780766E+04  0.13565780766E+04  0.00000000000E+00 0. -1.
         21   -1    0    0  501  502 -0.00000000000E+00 -0.00000000000E+00 -0.38739673855E+02  0.38739673855E+02  0.00000000000E+00 0. -1.
         25    1    1    2    0    0 -0.92069752581E+02 -0.16844786073E+03  0.63223683425E+03  0.67245812933E+03  0.12500000000E+03 0.  0.
         25    1    1    2    0    0  0.92069752581E+02  0.16844786073E+03  0.68560156851E+03  0.72285962114E+03  0.12500000000E+03 0.  0.
</event>
<event>
 4    0  0.2239279E-002  0.3290327E+03  0.7546771E-02  0.1071566E+00
         21   -1    0    0  502  501  0.00000000000E+00  0.00000000000E+00  0.74769423732E+03  0.74769423732E+03  0.00000000000E+00 0. -1.
         21   -1    0    0  501  502 -0.00000000000E+00 -0.00000000000E+00 -0.14479518092E+03  0.14479518092E+03  0.00000000000E+00 0. -1.
         25    1    1    2    0    0 -0.29668338687E+03 -0.29248915023E+02  0.21827599065E+03  0.39005889192E+03  0.12500000000E+03 0.  0.
         25    1    1    2    0    0  0.29668338687E+03  0.29248915023E+02  0.38462306575E+03  0.50243052632E+03  0.12500000000E+03 0.  0.
</event>
<event>
 4    0  0.2239279E-002  0.2180052E+03  0.7546771E-02  0.1135379E+00
         21   -1    0    0  502  501  0.00000000000E+00  0.00000000000E+00  0.28246170024E+03  0.28246170024E+03  0.00000000000E+00 0. -1.
         21   -1    0    0  501  502 -0.00000000000E+00 -0.00000000000E+00 -0.16825736099E+03  0.16825736099E+03  0.00000000000E+00 0. -1.
         25    1    1    2    0    0  0.40712646592E+02 -0.40559816233E+02  0.23191842525E+03  0.26965491699E+03  0.12500000000E+03 0.  0.
         25    1    1    2    0    0 -0.40712646592E+02  0.40559816233E+02 -0.11771408600E+03  0.18106414424E+03  0.12500000000E+03 0.  0.
</event>
<event>
 4    0  0.2239279E-002  0.2862851E+03  0.7546771E-02  0.1092305E+00
         21   -1    0    0  502  501  0.00000000000E+00  0.00000000000E+00  0.31023351962E+03  0.31023351962E+03  0.00000000000E+00 0. -1.
         21   -1    0    0  501  502 -0.00000000000E+00 -0.00000000000E+00 -0.26418534244E+03  0.26418534244E+03  0.00000000000E+00 0. -1.
         25    1    1    2    0    0 -0.23173764427E+03  0.88577544769E+02 -0.46378980370E+02  0.28164574740E+03  0.12500000000E+03 0.  0.
         25    1    1    2    0    0  0.23173764427E+03 -0.88577544769E+02  0.92427157551E+02  0.29277311465E+03  0.12500000000E+03 0.  0.
</event>
<event>
 4    0  0.2239279E-002  0.1861939E+03  0.7546771E-02  0.1161940E+00
         21   -1    0    0  502  501  0.00000000000E+00  0.00000000000E+00  0.12339931787E+02  0.12339931787E+02  0.00000000000E+00 0.  1.
         21   -1    0    0  501  502 -0.00000000000E+00 -0.00000000000E+00 -0.28094287087E+04  0.28094287087E+04  0.00000000000E+00 0.  1.
         25    1    1    2    0    0 -0.97076778244E+02 -0.34109990671E+02 -0.20953353441E+04  0.21015809755E+04  0.12500000000E+03 0.  0.
         25    1    1    2    0    0  0.97076778244E+02  0.34109990671E+02 -0.70175343279E+03  0.72018766497E+03  0.12500000000E+03 0.  0.
</event>
<event>
 4    0  0.2239279E-002  0.2364949E+03  0.7546771E-02  0.1122150E+00
         21   -1    0    0  502  501  0.00000000000E+00  0.00000000000E+00  0.59424259762E+03  0.59424259762E+03  0.00000000000E+00 0.  1.
         21   -1    0    0  501  502 -0.00000000000E+00 -0.00000000000E+00 -0.94119508393E+02  0.94119508393E+02  0.00000000000E+00 0.  1.
         25    1    1    2    0    0 -0.14076137029E+03 -0.12745246474E+03  0.15521912115E+03  0.27527417188E+03  0.12500000000E+03 0.  0.
         25    1    1    2    0    0  0.14076137029E+03  0.12745246474E+03  0.34490396809E+03  0.41308793414E+03  0.12500000000E+03 0.  0.
</event>
<event>
 4    0  0.2239279E-002  0.1958625E+03  0.7546771E-02  0.1153278E+00
         21   -1    0    0  502  501  0.00000000000E+00  0.00000000000E+00  0.22788486328E+03  0.22788486328E+03  0.00000000000E+00 0.  1.
         21   -1    0    0  501  502 -0.00000000000E+00 -0.00000000000E+00 -0.16833983992E+03  0.16833983992E+03  0.00000000000E+00 0.  1.
         25    1    1    2    0    0  0.82366515145E+02  0.12578900174E+03  0.18240421517E+02  0.19637929818E+03  0.12500000000E+03 0.  0.
         25    1    1    2    0    0 -0.82366515145E+02 -0.12578900174E+03  0.41304601845E+02  0.19984540502E+03  0.12500000000E+03 0.  0.
</event>
<event>
 4    0  0.2239279E-002  0.1741050E+03  0.7546771E-02  0.1173633E+00
         21   -1    0    0  502  501  0.00000000000E+00  0.00000000000E+00  0.42970265463E+02  0.42970265463E+02  0.00000000000E+00 0. -1.
         21   -1    0    0  501  502 -0.00000000000E+00 -0.00000000000E+00 -0.70543062512E+03  0.70543062512E+03  0.00000000000E+00 0. -1.
         25    1    1    2    0    0 -0.76474569144E+02  0.52930981352E+02 -0.16422827048E+03  0.22637573487E+03  0.12500000000E+03 0.  0.
         25    1    1    2    0    0  0.76474569144E+02 -0.52930981352E+02 -0.49823208917E+03  0.52202515571E+03  0.12500000000E+03 0.  0.
</event>
<event>
 4    0  0.2239279E-002  0.2776444E+03  0.7546771E-02  0.1096983E+00
         21   -1    0    0  502  501  0.00000000000E+00  0.00000000000E+00  0.61340447965E+02  0.61340447965E+02  0.00000000000E+00 0. -1.
         21   -1    0    0  501  502 -0.00000000000E+00 -0.00000000000E+00 -0.12566978804E+04  0.12566978804E+04  0.00000000000E+00 0. -1.
         25    1    1    2    0    0  0.23777828362E+03  0.42181562463E+02 -0.73076208241E+03  0.77971534387E+03  0.12500000000E+03 0.  0.
         25    1    1    2    0    0 -0.23777828362E+03 -0.42181562463E+02 -0.46459535004E+03  0.53832298451E+03  0.12500000000E+03 0.  0.
</event>
<event>
 4    0  0.2239279E-002  0.3492644E+03  0.7546771E-02  0.1062917E+00
         21   -1    0    0  502  501  0.00000000000E+00  0.00000000000E+00  0.60739773861E+02  0.60739773861E+02  0.00000000000E+00 0. -1.
         21   -1    0    0  501  502 -0.00000000000E+00 -0.00000000000E+00 -0.20083319423E+04  0.20083319423E+04  0.00000000000E+00 0. -1.
         25    1    1    2    0    0 -0.27991484298E+03 -0.13189174001E+03 -0.12789421628E+04  0.13217661692E+04  0.12500000000E+03 0.  0.
         25    1    1    2    0    0  0.27991484298E+03  0.13189174001E+03 -0.66865000571E+03  0.74730554698E+03  0.12500000000E+03 0.  0.
</event>
<event>
 4    0  0.2239279E-002  0.2122591E+03  0.7546771E-02  0.1139789E+00
         21   -1    0    0  502  501  0.00000000000E+00  0.00000000000E+00  0.77173814194E+02  0.77173814194E+02  0.00000000000E+00 0.  1.
         21   -1    0    0  501  502 -0.00000000000E+00 -0.00000000000E+00 -0.58379790131E+03  0.58379790131E+03  0.00000000000E+00 0.  1.
         25    1    1    2    0    0 -0.15268993949E+03 -0.27892599299E+02 -0.13956951816E+03  0.24330405898E+03  0.12500000000E+03 0.  0.
         25    1    1    2    0    0  0.15268993949E+03  0.27892599299E+02 -0.36705456895E+03  0.41766765652E+03  0.12500000000E+03 0.  0.
</event>
<event>
 4    0  0.2239279E-002  0.2171531E+03  0.7546771E-02  0.1136023E+00
         21   -1    0    0  502  501  0.00000000000E+00  0.00000000000E+00  0.10595338261E+04  0.10595338261E+04  0.00000000000E+00 0.  1.
         21   -1    0    0  501  502 -0.00000000000E+00 -0.00000000000E+00 -0.44505866547E+02  0.44505866547E+02  0.00000000000E+00 0.  1.
         25    1    1    2    0    0  0.15580477843E+03 -0.35927758244E+02  0.70383963825E+03  0.73251700947E+03  0.12500000000E+03 0.  0.
         25    1    1    2    0    0 -0.15580477843E+03  0.35927758244E+02  0.31118832129E+03  0.37152268316E+03  0.12500000000E+03 0.  0.
</event>
<event>
 4    0  0.2239279E-002  0.2415641E+03  0.7546771E-02  0.1118755E+00
         21   -1    0    0  502  501  0.00000000000E+00  0.00000000000E+00  0.20957171667E+03  0.20957171667E+03  0.00000000000E+00 0. -1.
         21   -1    0    0  501  502 -0.00000000000E+00 -0.00000000000E+00 -0.27844019998E+03  0.27844019998E+03  0.00000000000E+00 0. -1.
         25    1    1    2    0    0  0.14744960116E+02  0.78970053888E+02 -0.22681821474E+03  0.27115527986E+03  0.12500000000E+03 0.  0.
         25    1    1    2    0    0 -0.14744960116E+02 -0.78970053888E+02  0.15794973143E+03  0.21685663679E+03  0.12500000000E+03 0.  0.
</event>
<event>
 4    0  0.2239279E-002  0.2523407E+03  0.7546771E-02  0.1111834E+00
         21   -1    0    0  502  501  0.00000000000E+00  0.00000000000E+00  0.34078708200E+03  0.34078708200E+03  0.00000000000E+00 0. -1.
         21   -1    0    0  501  502 -0.00000000000E+00 -0.00000000000E+00 -0.18684923012E+03  0.18684923012E+03  0.00000000000E+00 0. -1.
         25    1    1    2    0    0  0.49490651107E+02 -0.15026961135E+03 -0.81657324178E+02  0.21753896027E+03  0.12500000000E+03 0.  0.
         25    1    1    2    0    0 -0.49490651107E+02  0.15026961135E+03  0.23559517607E+03  0.31009735186E+03  0.12500000000E+03 0.  0.
</event>
<event>
 4    0  0.2239279E-002  0.2700333E+03  0.7546771E-02  0.1101261E+00
         21   -1    0    0  502  501  0.00000000000E+00  0.00000000000E+00  0.16693798235E+03  0.16693798235E+03  0.00000000000E+00 0.  1.
         21   -1    0    0  501  502 -0.00000000000E+00 -0.00000000000E+00 -0.43679668991E+03  0.43679668991E+03  0.00000000000E+00 0.  1.
         25    1    1    2    0    0  0.10833792062E+03  0.11389842385E+02 -0.37318967151E+03  0.40836547904E+03  0.12500000000E+03 0.  0.
         25    1    1    2    0    0 -0.10833792062E+03 -0.11389842385E+02  0.10333096394E+03  0.19536919323E+03  0.12500000000E+03 0.  0.
</event>
<event>
 4    0  0.2239279E-002  0.3462229E+03  0.7546771E-02  0.1064176E+00
         21   -1    0    0  502  501  0.00000000000E+00  0.00000000000E+00  0.51486511085E+03  0.51486511085E+03  0.00000000000E+00 0. -1.
         21   -1    0    0  501  502 -0.00000000000E+00 -0.00000000000E+00 -0.23281880022E+03  0.23281880022E+03  0.00000000000E+00 0. -1.
         25    1    1    2    0    0  0.45499787031E+01  0.11419304349E+03  0.46707964756E+03  0.49683915975E+03  0.12500000000E+03 0.  0.
         25    1    1    2    0    0 -0.45499787031E+01 -0.11419304349E+03 -0.18503333694E+03  0.25084475132E+03  0.12500000000E+03 0.  0.
</event>
<event>
 4    0  0.2239279E-002  0.2051693E+03  0.7546771E-02  0.1145449E+00
         21   -1    0    0  502  501  0.00000000000E+00  0.00000000000E+00  0.73052390516E+03  0.73052390516E+03  0.00000000000E+00 0. -1.
         21   -1    0    0  501  502 -0.00000000000E+00 -0.00000000000E+00 -0.57622273037E+02  0.57622273037E+02  0.00000000000E+00 0. -1.
         25    1    1    2    0    0  0.24212927638E+02  0.15830225809E+03  0.39157174289E+03  0.44113410729E+03  0.12500000000E+03 0.  0.
         25    1    1    2    0    0 -0.24212927638E+02 -0.15830225809E+03  0.28132988923E+03  0.34701207091E+03  0.12500000000E+03 0.  0.
</event>
<event>
 4    0  0.2239279E-002  0.2178180E+03  0.7546771E-02  0.1135520E+00
         21   -1    0    0  502  501  0.00000000000E+00  0.00000000000E+00  0.10522678326E+03  0.10522678326E+03  0.00000000000E+00 0. -1.
         21   -1    0    0  501  502 -0.00000000000E+00 -0.00000000000E+00 -0.45088040004E+03  0.45088040004E+03  0.00000000000E+00 0. -1.
         25    1    1    2    0    0  0.55229653567E+02  0.64865071678E+02 -0.37288930338E+03  0.40240430506E+03  0.12500000000E+03 0.  0.
         25    1    1    2    0    0 -0.55229653567E+02 -0.64865071678E+02  0.27235686595E+02  0.15370287825E+03  0.12500000000E+03 0.  0.
</event>
<event>
 4    0  0.2239279E-002  0.5718515E+03  0.7546771E-02  0.9965590E-01
         21   -1    0    0  502  501  0.00000000000E+00  0.00000000000E+00  0.28020972421E+03  0.28020972421E+03  0.00000000000E+00 0.  1.
         21   -1    0    0  501  502 -0.00000000000E+00 -0.00000000000E+00 -0.11670335294E+04  0.11670335294E+04  0.00000000000E+00 0.  1.
         25    1    1    2    0    0 -0.52068235103E+03 -0.26232000370E+02 -0.19162911419E+03  0.56933728660E+03  0.12500000000E+03 0.  0.
         25    1    1    2    0    0  0.52068235103E+03  0.26232000370E+02 -0.69519469099E+03  0.87790596700E+03  0.12500000000E+03 0.  0.
</event>
<event>
 4    0  0.2239279E-002  0.2042617E+03  0.7546771E-02  0.1146192E+00
         21   -1    0    0  502  501  0.00000000000E+00  0.00000000000E+00  0.41848409951E+03  0.41848409951E+03  0.00000000000E+00 0.  1.
         21   -1    0    0  501  502 -0.00000000000E+00 -0.00000000000E+00 -0.99699933276E+02  0.99699933276E+02  0.00000000000E+00 0.  1.
         25    1    1    2    0    0  0.25174809139E+02  0.15913172241E+03  0.17446245700E+03  0.26836323332E+03  0.12500000000E+03 0.  0.
         25    1    1    2    0    0 -0.25174809139E+02 -0.15913172241E+03  0.14432170924E+03  0.24982079947E+03  0.12500000000E+03 0.  0.
</event>
<event>
 4    0  0.2239279E-002  0.2405467E+03  0.7546771E-02  0.1119429E+00
         21   -1    0    0  502  501  0.00000000000E+00  0.00000000000E+00  0.82334855068E+03  0.82334855068E+03  0.00000000000E+00 0.  1.
         21   -1    0    0  501  502 -0.00000000000E+00 -0.00000000000E+00 -0.70277322767E+02  0.70277322767E+02  0.00000000000E+00 0.  1.
         25    1    1    2    0    0  0.37147823465E+01 -0.12734120407E+03  0.76977558734E+02  0.19437110488E+03  0.12500000000E+03 0.  0.
         25    1    1    2    0    0 -0.37147823465E+01  0.12734120407E+03  0.67609366918E+03  0.69925476857E+03  0.12500000000E+03 0.  0.
</event>
<event>
 4    0  0.2239279E-002  0.2699714E+03  0.7546771E-02  0.1101296E+00
         21   -1    0    0  502  501  0.00000000000E+00  0.00000000000E+00  0.10550403485E+03  0.10550403485E+03  0.00000000000E+00 0. -1.
         21   -1    0    0  501  502 -0.00000000000E+00 -0.00000000000E+00 -0.69082237931E+03  0.69082237931E+03  0.00000000000E+00 0. -1.
         25    1    1    2    0    0  0.16189114892E+03 -0.17472316087E+03 -0.25894310109E+03  0.37338111447E+03  0.12500000000E+03 0.  0.
         25    1    1    2    0    0 -0.16189114892E+03  0.17472316087E+03 -0.32637524338E+03  0.42294529969E+03  0.12500000000E+03 0.  0.
</event>
<event>
 4    0  0.2239279E-002  0.2943990E+03  0.7546771E-02  0.1088074E+00
         21   -1    0    0  502  501  0.00000000000E+00  0.00000000000E+00  0.95060256613E+03  0.95060256613E+03  0.00000000000E+00 0.  1.
         21   -1    0    0  501  502 -0.00000000000E+00 -0.00000000000E+00 -0.91174547511E+02  0.91174547511E+02  0.00000000000E+00 0.  1.
         25    1    1    2    0    0  0.15768830271E+03 -0.20886115010E+03  0.34024162796E+03  0.44707711442E+03  0.12500000000E+03 0.  0.
         25    1    1    2    0    0 -0.15768830271E+03  0.20886115010E+03  0.51918639065E+03  0.59469999922E+03  0.12500000000E+03 0.  0.
</event>
<event>
 4    0  0.2239279E-002  0.2591519E+03  0.7546771E-02  0.1107654E+00
         21   -1    0    0  502  501  0.00000000000E+00  0.00000000000E+00  0.10183343312E+03  0.10183343312E+03  0.00000000000E+00 0.  1.
         21   -1    0    0  501  502 -0.00000000000E+00 -0.00000000000E+00 -0.65950530730E+03  0.65950530730E+03  0.00000000000E+00 0.  1.
         25    1    1    2    0    0  0.12903495181E+03  0.16429923805E+03 -0.40931594128E+03  0.47624447314E+03  0.12500000000E+03 0.  0.
         25    1    1    2    0    0 -0.12903495181E+03 -0.16429923805E+03 -0.14835593290E+03  0.28509426728E+03  0.12500000000E+03 0.  0.
</event>
<event>
 4    0  0.2239279E-002  0.1937113E+03  0.7546771E-02  0.1155156E+00
         21   -1    0    0  502  501  0.00000000000E+00  0.00000000000E+00  0.49452440178E+03  0.49452440178E+03  0.00000000000E+00 0. -1.
         21   -1    0    0  501  502 -0.00000000000E+00 -0.00000000000E+00 -0.75879093704E+02  0.75879093704E+02  0.00000000000E+00 0. -1.
         25    1    1    2    0    0  0.45369069844E+01 -0.13044468660E+03  0.31199048016E+03  0.36055437800E+03  0.12500000000E+03 0.  0.
         25    1    1    2    0    0 -0.45369069844E+01  0.13044468660E+03  0.10665482791E+03  0.20984911748E+03  0.12500000000E+03 0.  0.
</event>
<event>
 4    0  0.2239279E-002  0.3026886E+03  0.7546771E-02  0.1083904E+00
         21   -1    0    0  502  501  0.00000000000E+00  0.00000000000E+00  0.47307335722E+03  0.47307335722E+03  0.00000000000E+00 0.  1.
         21   -1    0    0  501  502 -0.00000000000E+00 -0.00000000000E+00 -0.19367063603E+03  0.19367063603E+03  0.00000000000E+00 0.  1.
         25    1    1    2    0    0  0.15360671967E+03 -0.22834749996E+03  0.12201716468E+03  0.32596133750E+03  0.12500000000E+03 0.  0.
         25    1    1    2    0    0 -0.15360671967E+03  0.22834749996E+03  0.15738555651E+03  0.34078265576E+03  0.12500000000E+03 0.  0.
</event>
<event>
 4    0  0.2239279E-002  0.2004884E+03  0.7546771E-02  0.1149328E+00
         21   -1    0    0  502  501  0.00000000000E+00  0.00000000000E+00  0.41763601852E+03  0.41763601852E+03  0.00000000000E+00 0.  1.
         21   -1    0    0  501  502 -0.00000000000E+00 -0.00000000000E+00 -0.96245498566E+02  0.96245498566E+02  0.00000000000E+00 0.  1.
         25    1    1    2    0    0  0.13972375865E+03  0.67810609508E+02  0.13352167225E+03  0.23994591985E+03  0.12500000000E+03 0.  0.
         25    1    1    2    0    0 -0.13972375865E+03 -0.67810609508E+02  0.18786884771E+03  0.27393559723E+03  0.12500000000E+03 0.  0.
</event>
<event>
 4    0  0.2239279E-002  0.2183450E+03  0.7546771E-02  0.1135123E+00
         21   -1    0    0  502  501  0.00000000000E+00  0.00000000000E+00  0.87341337202E+02  0.87341337202E+02  0.00000000000E+00 0. -1.
         21   -1    0    0  501  502 -0.00000000000E+00 -0.00000000000E+00 -0.54584148688E+03  0.54584148688E+03  0.00000000000E+00 0. -1.
         25    1    1    2    0    0 -0.15726222210E+03  0.20448804404E+02 -0.10880767701E+03  0.22937670038E+03  0.12500000000E+03 0.  0.
         25    1    1    2    0    0  0.15726222210E+03 -0.20448804404E+02 -0.34969247266E+03  0.40380612370E+03  0.12500000000E+03 0.  0.
</event>
<event>
 4    0  0.2239279E-002  0.1991985E+03  0.7546771E-02  0.1150417E+00
         21   -1    0    0  502  501  0.00000000000E+00  0.00000000000E+00  0.27597258758E+03  0.27597258758E+03  0.00000000000E+00 0. -1.
         21   -1    0    0  501  502 -0.00000000000E+00 -0.00000000000E+00 -0.14378253154E+03  0.14378253154E+03  0.00000000000E+00 0. -1.
         25    1    1    2    0    0  0.53212012296E+02 -0.59882327048E+02 -0.73831492117E+02  0.16581164185E+03  0.12500000000E+03 0.  0.
         25    1    1    2    0    0 -0.53212012296E+02  0.59882327048E+02  0.20602154816E+03  0.25394347727E+03  0.12500000000E+03 0.  0.
</event>
<event>
 4    0  0.2239279E-002  0.1977302E+03  0.7546771E-02  0.1151668E+00
         21   -1    0    0  502  501  0.00000000000E+00  0.00000000000E+00  0.59413651302E+02  0.59413651302E+02  0.00000000000E+00 0.  1.
         21   -1    0    0  501  502 -0.00000000000E+00 -0.00000000000E+00 -0.65805110677E+03  0.65805110677E+03  0.00000000000E+00 0.  1.
         25    1    1    2    0    0 -0.45380550158E+02  0.13905521368E+03 -0.21664629714E+03  0.28975224736E+03  0.12500000000E+03 0.  0.
         25    1    1    2    0    0  0.45380550158E+02 -0.13905521368E+03 -0.38199115833E+03  0.42771251072E+03  0.12500000000E+03 0.  0.
</event>
<event>
 4    0  0.2239279E-002  0.2964871E+03  0.7546771E-02  0.1087010E+00
         21   -1    0    0  502  501  0.00000000000E+00  0.00000000000E+00  0.48186422889E+03  0.48186422889E+03  0.00000000000E+00 0.  1.
         21   -1    0    0  501  502 -0.00000000000E+00 -0.00000000000E+00 -0.18242610012E+03  0.18242610012E+03  0.00000000000E+00 0.  1.
         25    1    1    2    0    0 -0.12756146681E+02  0.26836651959E+03  0.13872535755E+03  0.32718959785E+03  0.12500000000E+03 0.  0.
         25    1    1    2    0    0  0.12756146681E+02 -0.26836651959E+03  0.16071277122E+03  0.33710073116E+03  0.12500000000E+03 0.  0.
</event>
<event>
 4    0  0.2239279E-002  0.3450963E+03  0.7546771E-02  0.1064646E+00
         21   -1    0    0  502  501  0.00000000000E+00  0.00000000000E+00  0.30265063703E+03  0.30265063703E+03  0.00000000000E+00 0. -1.
         21   -1    0    0  501  502 -0.00000000000E+00 -0.00000000000E+00 -0.39349472961E+03  0.39349472961E+03  0.00000000000E+00 0. -1.
         25    1    1    2    0    0  0.19535032381E+03  0.13962308217E+02  0.21194482959E+03  0.31448736994E+03  0.12500000000E+03 0.  0.
         25    1    1    2    0    0 -0.19535032381E+03 -0.13962308217E+02 -0.30278892216E+03  0.38165799670E+03  0.12500000000E+03 0.  0.
</event>
<event>
 4    0  0.2239279E-002  0.1793268E+03  0.7546771E-02  0.1168456E+00
         21   -1    0    0  502  501  0.00000000000E+00  0.00000000000E+00  0.21942653912E+03  0.21942653912E+03  0.00000000000E+00 0. -1.
         21   -1    0    0  501  502 -0.00000000000E+00 -0.00000000000E+00 -0.14655521999E+03  0.14655521999E+03  0.00000000000E+00 0. -1.
         25    1    1    2    0    0  0.29028521583E+02  0.11465614788E+03  0.87908531508E+02  0.19323974028E+03  0.12500000000E+03 0.  0.
         25    1    1    2    0    0 -0.29028521583E+02 -0.11465614788E+03 -0.15037212376E+02  0.17274201883E+03  0.12500000000E+03 0.  0.
</event>
<event>
 4    0  0.2239279E-002  0.3908056E+03  0.7546771E-02  0.1047011E+00
         21   -1    0    0  502  501  0.00000000000E+00  0.00000000000E+00  0.35003349311E+03  0.35003349311E+03  0.00000000000E+00 0. -1.
         21   -1    0    0  501  502 -0.00000000000E+00 -0.00000000000E+00 -0.43632680428E+03  0.43632680428E+03  0.00000000000E+00 0. -1.
         25    1    1    2    0    0 -0.12456088190E+02  0.17646523336E+00  0.32916785836E+03  0.35232323831E+03  0.12500000000E+03 0.  0.
         25    1    1    2    0    0  0.12456088190E+02 -0.17646523336E+00 -0.41546116952E+03  0.43403705908E+03  0.12500000000E+03 0.  0.
</event>
<event>
 4    0  0.2239279E-002  0.2614021E+03  0.7546771E-02  0.1106304E+00
         21   -1    0    0  502  501  0.00000000000E+00  0.00000000000E+00  0.13208431566E+03  0.13208431566E+03  0.00000000000E+00 0.  1.
         21   -1    0    0  501  502 -0.00000000000E+00 -0.00000000000E+00 -0.51732889121E+03  0.51732889121E+03  0.00000000000E+00 0.  1.
         25    1    1    2    0    0  0.22592396650E+03  0.11744812496E+02 -0.14409076809E+03  0.29591675976E+03  0.12500000000E+03 0.  0.
         25    1    1    2    0    0 -0.22592396650E+03 -0.11744812496E+02 -0.24115380746E+03  0.35349644710E+03  0.12500000000E+03 0.  0.
</event>
<event>
 4    0  0.2239279E-002  0.4541052E+03  0.7546771E-02  0.1026505E+00
         21   -1    0    0  502  501  0.00000000000E+00  0.00000000000E+00  0.30868817075E+03  0.30868817075E+03  0.00000000000E+00 0.  1.
         21   -1    0    0  501  502 -0.00000000000E+00 -0.00000000000E+00 -0.66802527649E+03  0.66802527649E+03  0.00000000000E+00 0. -1.
         25    1    1    2    0    0  0.20944646994E+03  0.36460290536E+03 -0.30592654612E+03  0.53480758595E+03  0.12500000000E+03 0.  0.
         25    1    1    2    0    0 -0.20944646994E+03 -0.36460290536E+03 -0.53410559627E+02  0.44190586129E+03  0.12500000000E+03 0.  0.
</event>
<event>
 4    0  0.2239279E-002  0.1927505E+03  0.7546771E-02  0.1156004E+00
         21   -1    0    0  502  501  0.00000000000E+00  0.00000000000E+00  0.60258120239E+03  0.60258120239E+03  0.00000000000E+00 0. -1.
         21   -1    0    0  501  502 -0.00000000000E+00 -0.00000000000E+00 -0.61655993615E+02  0.61655993615E+02  0.00000000000E+00 0. -1.
         25    1    1    2    0    0  0.58151612363E+02  0.87443556152E+02  0.44702059784E+03  0.47589956969E+03  0.12500000000E+03 0.  0.
         25    1    1    2    0    0 -0.58151612363E+02 -0.87443556152E+02  0.93904610932E+02  0.18833762632E+03  0.12500000000E+03 0.  0.
</event>
<event>
 4    0  0.2239279E-002  0.2780081E+03  0.7546771E-02  0.1096782E+00
         21   -1    0    0  502  501  0.00000000000E+00  0.00000000000E+00  0.79101642182E+02  0.79101642182E+02  0.00000000000E+00 0.  1.
         21   -1    0    0  501  502 -0.00000000000E+00 -0.00000000000E+00 -0.97707805273E+03  0.97707805273E+03  0.00000000000E+00 0.  1.
         25    1    1    2    0    0  0.17712386680E+03  0.93435538655E+02 -0.17006863232E+03  0.29094914293E+03  0.12500000000E+03 0.  0.
         25    1    1    2    0    0 -0.17712386680E+03 -0.93435538655E+02 -0.72790777823E+03  0.76523055198E+03  0.12500000000E+03 0.  0.
</event>
<event>
 4    0  0.2239279E-002  0.1501954E+03  0.7546771E-02  0.1200233E+00
         21   -1    0    0  502  501  0.00000000000E+00  0.00000000000E+00  0.20759577570E+03  0.20759577570E+03  0.00000000000E+00 0. -1.
         21   -1    0    0  501  502 -0.00000000000E+00 -0.00000000000E+00 -0.10866619757E+03  0.10866619757E+03  0.00000000000E+00 0. -1.
         25    1    1    2    0    0  0.33140438390E+02 -0.18162387670E+02 -0.28654482743E+02  0.13369457866E+03  0.12500000000E+03 0.  0.
         25    1    1    2    0    0 -0.33140438390E+02  0.18162387670E+02  0.12758406087E+03  0.18256739460E+03  0.12500000000E+03 0.  0.
</event>
<event>
 4    0  0.2239279E-002  0.1622607E+03  0.7546771E-02  0.1186168E+00
         21   -1    0    0  502  501  0.00000000000E+00  0.00000000000E+00  0.18250822220E+03  0.18250822220E+03  0.00000000000E+00 0.  1.
         21   -1    0    0  501  502 -0.00000000000E+00 -0.00000000000E+00 -0.14425940324E+03  0.14425940324E+03  0.00000000000E+00 0.  1.
         25    1    1    2    0    0 -0.13397014191E+02 -0.96664112708E+02  0.53714724169E+02  0.16743267981E+03  0.12500000000E+03 0.  0.
         25    1    1    2    0    0  0.13397014191E+02  0.96664112708E+02 -0.15465905210E+02  0.15933494563E+03  0.12500000000E+03 0.  0.
</event>
<event>
 4    0  0.2239279E-002  0.2429377E+03  0.7546771E-02  0.1117851E+00
         21   -1    0    0  502  501  0.00000000000E+00  0.00000000000E+00  0.27809404397E+04  0.27809404397E+04  0.00000000000E+00 0. -1.
         21   -1    0    0  501  502 -0.00000000000E+00 -0.00000000000E+00 -0.21222574332E+02  0.21222574332E+02  0.00000000000E+00 0. -1.
         25    1    1    2    0    0  0.29835900263E+02 -0.19026220060E+03  0.18377590415E+04  0.18520456746E+04  0.12500000000E+03 0.  0.
         25    1    1    2    0    0 -0.29835900263E+02  0.19026220060E+03  0.92195882386E+03  0.95011733949E+03  0.12500000000E+03 0.  0.
</event>
<event>
 4    0  0.2239279E-002  0.2836517E+03  0.7546771E-02  0.1093711E+00
         21   -1    0    0  502  501  0.00000000000E+00  0.00000000000E+00  0.29699052566E+03  0.29699052566E+03  0.00000000000E+00 0. -1.
         21   -1    0    0  501  502 -0.00000000000E+00 -0.00000000000E+00 -0.27091205367E+03  0.27091205367E+03  0.00000000000E+00 0. -1.
         25    1    1    2    0    0  0.19114587738E+03  0.15451053426E+03  0.79615570011E+02  0.28700852012E+03  0.12500000000E+03 0.  0.
         25    1    1    2    0    0 -0.19114587738E+03 -0.15451053426E+03 -0.53537098023E+02  0.28089405921E+03  0.12500000000E+03 0.  0.
</event>
<event>
 4    0  0.2239279E-002  0.1533113E+03  0.7546771E-02  0.1196462E+00
         21   -1    0    0  502  501  0.00000000000E+00  0.00000000000E+00  0.72247160925E+02  0.72247160925E+02  0.00000000000E+00 0. -1.
         21   -1    0    0  501  502 -0.00000000000E+00 -0.00000000000E+00 -0.32533272173E+03  0.32533272173E+03  0.00000000000E+00 0. -1.
         25    1    1    2    0    0 -0.53323118460E+01 -0.51115377655E+02 -0.32698218796E+02  0.13905174898E+03  0.12500000000E+03 0.  0.
         25    1    1    2    0    0  0.53323118460E+01  0.51115377655E+02 -0.22038734201E+03  0.25852813367E+03  0.12500000000E+03 0.  0.
</event>
<event>
 4    0  0.2239279E-002  0.2665564E+03  0.7546771E-02  0.1103267E+00
         21   -1    0    0  502  501  0.00000000000E+00  0.00000000000E+00  0.17562959298E+03  0.17562959298E+03  0.00000000000E+00 0.  1.
         21   -1    0    0  501  502 -0.00000000000E+00 -0.00000000000E+00 -0.40455765040E+03  0.40455765040E+03  0.00000000000E+00 0.  1.
         25    1    1    2    0    0  0.11032360517E+03  0.13966592729E+03 -0.28218048813E+03  0.35627053904E+03  0.12500000000E+03 0.  0.
         25    1    1    2    0    0 -0.11032360517E+03 -0.13966592729E+03  0.53252430714E+02  0.22391670434E+03  0.12500000000E+03 0.  0.
</event>
<event>
 4    0  0.2239279E-002  0.2129923E+03  0.7546771E-02  0.1139218E+00
         21   -1    0    0  502  501  0.00000000000E+00  0.00000000000E+00  0.53819670769E+02  0.53819670769E+02  0.00000000000E+00 0. -1.
         21   -1    0    0  501  502 -0.00000000000E+00 -0.00000000000E+00 -0.84292082310E+03  0.84292082310E+03  0.00000000000E+00 0. -1.
         25    1    1    2    0    0  0.13147026907E+03  0.94203520858E+02 -0.26856093764E+03  0.33750364771E+03  0.12500000000E+03 0.  0.
         25    1    1    2    0    0 -0.13147026907E+03 -0.94203520858E+02 -0.52054021469E+03  0.55923684616E+03  0.12500000000E+03 0.  0.
</event>
<event>
 4    0  0.2239279E-002  0.2268561E+03  0.7546771E-02  0.1128872E+00
         21   -1    0    0  502  501  0.00000000000E+00  0.00000000000E+00  0.12032507617E+04  0.12032507617E+04  0.00000000000E+00 0. -1.
         21   -1    0    0  501  502 -0.00000000000E+00 -0.00000000000E+00 -0.42770547130E+02  0.42770547130E+02  0.00000000000E+00 0. -1.
         25    1    1    2    0    0 -0.16410874811E+03 -0.55007323584E+02  0.79084973211E+03  0.81916163584E+03  0.12500000000E+03 0.  0.
         25    1    1    2    0    0  0.16410874811E+03  0.55007323584E+02  0.36963048242E+03  0.42685967294E+03  0.12500000000E+03 0.  0.
</event>
<event>
 4    0  0.2239279E-002  0.1778662E+03  0.7546771E-02  0.1169884E+00
         21   -1    0    0  502  501  0.00000000000E+00  0.00000000000E+00  0.13353099759E+02  0.13353099759E+02  0.00000000000E+00 0.  1.
         21   -1    0    0  501  502 -0.00000000000E+00 -0.00000000000E+00 -0.23692163227E+04  0.23692163227E+04  0.00000000000E+00 0.  1.
         25    1    1    2    0    0 -0.17916230363E+01  0.12651576873E+03 -0.11686215051E+04  0.11820789617E+04  0.12500000000E+03 0.  0.
         25    1    1    2    0    0  0.17916230363E+01 -0.12651576873E+03 -0.11872417179E+04  0.12004904607E+04  0.12500000000E+03 0.  0.
</event>
<event>
 4    0  0.2239279E-002  0.2598917E+03  0.7546771E-02  0.1107208E+00
         21   -1    0    0  502  501  0.00000000000E+00  0.00000000000E+00  0.69232810000E+02  0.69232810000E+02  0.00000000000E+00 0.  1.
         21   -1    0    0  501  502 -0.00000000000E+00 -0.00000000000E+00 -0.97560217559E+03  0.97560217559E+03  0.00000000000E+00 0.  1.
         25    1    1    2    0    0  0.20201820863E+03 -0.29051532786E+01 -0.24141440909E+03  0.33871184427E+03  0.12500000000E+03 0.  0.
         25    1    1    2    0    0 -0.20201820863E+03  0.29051532786E+01 -0.66495495650E+03  0.70612314132E+03  0.12500000000E+03 0.  0.
</event>
<event>
 4    0  0.2239279E-002  0.1940800E+03  0.7546771E-02  0.1154832E+00
         21   -1    0    0  502  501  0.00000000000E+00  0.00000000000E+00  0.12629384973E+03  0.12629384973E+03  0.00000000000E+00 0.  1.
         21   -1    0    0  501  502 -0.00000000000E+00 -0.00000000000E+00 -0.29824922444E+03  0.29824922444E+03  0.00000000000E+00 0.  1.
         25    1    1    2    0    0 -0.10294117075E+02  0.12725877942E+03 -0.31042694298E+01  0.17870479086E+03  0.12500000000E+03 0.  0.
         25    1    1    2    0    0  0.10294117075E+02 -0.12725877942E+03 -0.16885110528E+03  0.24583828331E+03  0.12500000000E+03 0.  0.
</event>
<event>
 4    0  0.2239279E-002  0.2275614E+03  0.7546771E-02  0.1128368E+00
         21   -1    0    0  502  501  0.00000000000E+00  0.00000000000E+00  0.29151431163E+03  0.29151431163E+03  0.00000000000E+00 0. -1.
         21   -1    0    0  501  502 -0.00000000000E+00 -0.00000000000E+00 -0.17763860020E+03  0.17763860020E+03  0.00000000000E+00 0. -1.
         25    1    1    2    0    0 -0.39811553413E+01 -0.16977407314E+03  0.14513297976E+03  0.25598372472E+03  0.12500000000E+03 0.  0.
         25    1    1    2    0    0  0.39811553413E+01  0.16977407314E+03 -0.31257268332E+02  0.21316918711E+03  0.12500000000E+03 0.  0.
</event>
<event>
 4    0  0.2239279E-002  0.2244493E+03  0.7546771E-02  0.1130609E+00
         21   -1    0    0  502  501  0.00000000000E+00  0.00000000000E+00  0.46119999981E+03  0.46119999981E+03  0.00000000000E+00 0. -1.
         21   -1    0    0  501  502 -0.00000000000E+00 -0.00000000000E+00 -0.10923128343E+03  0.10923128343E+03  0.00000000000E+00 0. -1.
         25    1    1    2    0    0 -0.17637481096E+03  0.46055813855E+02  0.22557978310E+03  0.31581711555E+03  0.12500000000E+03 0.  0.
         25    1    1    2    0    0  0.17637481096E+03 -0.46055813855E+02  0.12638893328E+03  0.25461416768E+03  0.12500000000E+03 0.  0.
</event>
<event>
 4    0  0.2239279E-002  0.2961847E+03  0.7546771E-02  0.1087164E+00
         21   -1    0    0  502  501  0.00000000000E+00  0.00000000000E+00  0.15059967120E+03  0.15059967120E+03  0.00000000000E+00 0.  1.
         21   -1    0    0  501  502 -0.00000000000E+00 -0.00000000000E+00 -0.58250724109E+03  0.58250724109E+03  0.00000000000E+00 0.  1.
         25    1    1    2    0    0  0.10209284248E+03  0.12270048558E+03  0.51267030659E+02  0.20912117559E+03  0.12500000000E+03 0.  0.
         25    1    1    2    0    0 -0.10209284248E+03 -0.12270048558E+03 -0.48317460055E+03  0.52398573670E+03  0.12500000000E+03 0.  0.
</event>
<event>
 4    0  0.2239279E-002  0.1617686E+03  0.7546771E-02  0.1186714E+00
         21   -1    0    0  502  501  0.00000000000E+00  0.00000000000E+00  0.18957956912E+03  0.18957956912E+03  0.00000000000E+00 0. -1.
         21   -1    0    0  501  502 -0.00000000000E+00 -0.00000000000E+00 -0.13803751065E+03  0.13803751065E+03  0.00000000000E+00 0. -1.
         25    1    1    2    0    0  0.92784047527E+02 -0.43056076526E+02  0.34906241452E+02  0.16524572882E+03  0.12500000000E+03 0.  0.
         25    1    1    2    0    0 -0.92784047527E+02  0.43056076526E+02  0.16635817020E+02  0.16237135095E+03  0.12500000000E+03 0.  0.
</event>
<event>
 4    0  0.2239279E-002  0.2301320E+03  0.7546771E-02  0.1126547E+00
         21   -1    0    0  502  501  0.00000000000E+00  0.00000000000E+00  0.15252091808E+03  0.15252091808E+03  0.00000000000E+00 0. -1.
         21   -1    0    0  501  502 -0.00000000000E+00 -0.00000000000E+00 -0.34723584855E+03  0.34723584855E+03  0.00000000000E+00 0. -1.
         25    1    1    2    0    0 -0.78522742908E+02 -0.14691571531E+03 -0.20366479502E+03  0.29129778113E+03  0.12500000000E+03 0.  0.
         25    1    1    2    0    0  0.78522742908E+02  0.14691571531E+03  0.89498645476E+01  0.20845898550E+03  0.12500000000E+03 0.  0.
</event>
<event>
 4    0  0.2239279E-002  0.1885990E+03  0.7546771E-02  0.1159731E+00
         21   -1    0    0  502  501  0.00000000000E+00  0.00000000000E+00  0.14798367591E+03  0.14798367591E+03  0.00000000000E+00 0.  1.
         21   -1    0    0  501  502 -0.00000000000E+00 -0.00000000000E+00 -0.24036163574E+03  0.24036163574E+03  0.00000000000E+00 0.  1.
         25    1    1    2    0    0  0.10698803585E+03  0.73151074708E+01 -0.14079948483E+03  0.21667820735E+03  0.12500000000E+03 0.  0.
         25    1    1    2    0    0 -0.10698803585E+03 -0.73151074708E+01  0.48421525007E+02  0.17166710429E+03  0.12500000000E+03 0.  0.
</event>
<event>
 4    0  0.2239279E-002  0.1937633E+03  0.7546771E-02  0.1155110E+00
         21   -1    0    0  502  501  0.00000000000E+00  0.00000000000E+00  0.24043584145E+03  0.24043584145E+03  0.00000000000E+00 0.  1.
         21   -1    0    0  501  502 -0.00000000000E+00 -0.00000000000E+00 -0.15615070042E+03  0.15615070042E+03  0.00000000000E+00 0.  1.
         25    1    1    2    0    0 -0.88163251037E+02  0.92005627711E+02  0.11928001746E+03  0.21468702087E+03  0.12500000000E+03 0.  0.
         25    1    1    2    0    0  0.88163251037E+02 -0.92005627711E+02 -0.34994876431E+02  0.18189952100E+03  0.12500000000E+03 0.  0.
</event>
<event>
 4    0  0.2239279E-002  0.2963917E+03  0.7546771E-02  0.1087058E+00
         21   -1    0    0  502  501  0.00000000000E+00  0.00000000000E+00  0.15767369179E+04  0.15767369179E+04  0.00000000000E+00 0.  1.
         21   -1    0    0  501  502 -0.00000000000E+00 -0.00000000000E+00 -0.55715089651E+02  0.55715089651E+02  0.00000000000E+00 0.  1.
         25    1    1    2    0    0  0.16641375166E+03 -0.21044959156E+03  0.71780617098E+03  0.77643626038E+03  0.12500000000E+03 0.  0.
         25    1    1    2    0    0 -0.16641375166E+03  0.21044959156E+03  0.80321565728E+03  0.85601574719E+03  0.12500000000E+03 0.  0.
</event>
<event>
 4    0  0.2239279E-002  0.2273742E+03  0.7546771E-02  0.1128502E+00
         21   -1    0    0  502  501  0.00000000000E+00  0.00000000000E+00  0.87362905952E+03  0.87362905952E+03  0.00000000000E+00 0.  1.
         21   -1    0    0  501  502 -0.00000000000E+00 -0.00000000000E+00 -0.59177307063E+02  0.59177307063E+02  0.00000000000E+00 0.  1.
         25    1    1    2    0    0 -0.38568696071E+02  0.18197443519E+03  0.48591979814E+03  0.53511240838E+03  0.12500000000E+03 0.  0.
         25    1    1    2    0    0  0.38568696071E+02 -0.18197443519E+03  0.32853195432E+03  0.39769395820E+03  0.12500000000E+03 0.  0.
</event>
<event>
 4    0  0.2239279E-002  0.1942836E+03  0.7546771E-02  0.1154654E+00
         21   -1    0    0  502  501  0.00000000000E+00  0.00000000000E+00  0.12263133557E+04  0.12263133557E+04  0.00000000000E+00 0. -1.
         21   -1    0    0  501  502 -0.00000000000E+00 -0.00000000000E+00 -0.30780151335E+02  0.30780151335E+02  0.00000000000E+00 0. -1.
         25    1    1    2    0    0  0.13363582891E+02 -0.63853937538E+02  0.10301862554E+04  0.10397906671E+04  0.12500000000E+03 0.  0.
         25    1    1    2    0    0 -0.13363582891E+02  0.63853937538E+02  0.16534694896E+03  0.21730283987E+03  0.12500000000E+03 0.  0.
</event>
<event>
 4    0  0.2239279E-002  0.1954177E+03  0.7546771E-02  0.1153664E+00
         21   -1    0    0  502  501  0.00000000000E+00  0.00000000000E+00  0.67649987840E+03  0.67649987840E+03  0.00000000000E+00 0.  1.
         21   -1    0    0  501  502 -0.00000000000E+00 -0.00000000000E+00 -0.56449472504E+02  0.56449472504E+02  0.00000000000E+00 0.  1.
         25    1    1    2    0    0 -0.90505655303E+02  0.11448281412E+03  0.24331279898E+03  0.31003823396E+03  0.12500000000E+03 0.  0.
         25    1    1    2    0    0  0.90505655303E+02 -0.11448281412E+03  0.37673760691E+03  0.42291111694E+03  0.12500000000E+03 0.  0.
</event>
<event>
 4    0  0.2239279E-002  0.3076823E+03  0.7546771E-02  0.1081462E+00
         21   -1    0    0  502  501  0.00000000000E+00  0.00000000000E+00  0.22196764626E+04  0.22196764626E+04  0.00000000000E+00 0.  1.
         21   -1    0    0  501  502 -0.00000000000E+00 -0.00000000000E+00 -0.42649627039E+02  0.42649627039E+02  0.00000000000E+00 0.  1.
         25    1    1    2    0    0  0.14585307201E+03 -0.15334880964E+02  0.19703521547E+04  0.19797527347E+04  0.12500000000E+03 0.  0.
         25    1    1    2    0    0 -0.14585307201E+03  0.15334880964E+02  0.20667468087E+03  0.28257335490E+03  0.12500000000E+03 0.  0.
</event>
<event>
 4    0  0.2239279E-002  0.2788203E+03  0.7546771E-02  0.1096335E+00
         21   -1    0    0  502  501  0.00000000000E+00  0.00000000000E+00  0.11252917263E+03  0.11252917263E+03  0.00000000000E+00 0.  1.
         21   -1    0    0  501  502 -0.00000000000E+00 -0.00000000000E+00 -0.69084986253E+03  0.69084986253E+03  0.00000000000E+00 0.  1.
         25    1    1    2    0    0 -0.22551958570E+03 -0.68048734703E+02 -0.17188858584E+03  0.31727023146E+03  0.12500000000E+03 0.  0.
         25    1    1    2    0    0  0.22551958570E+03  0.68048734703E+02 -0.40643210406E+03  0.48610880370E+03  0.12500000000E+03 0.  0.
</event>
<event>
 4    0  0.2239279E-002  0.2086630E+03  0.7546771E-02  0.1142629E+00
         21   -1    0    0  502  501  0.00000000000E+00  0.00000000000E+00  0.21793457487E+03  0.21793457487E+03  0.00000000000E+00 0.  1.
         21   -1    0    0  501  502 -0.00000000000E+00 -0.00000000000E+00 -0.19978579448E+03  0.19978579448E+03  0.00000000000E+00 0.  1.
         25    1    1    2    0    0 -0.96234867506E+02 -0.12912111234E+03  0.53634112865E+02  0.21079617985E+03  0.12500000000E+03 0.  0.
         25    1    1    2    0    0  0.96234867506E+02  0.12912111234E+03 -0.35485332479E+02  0.20692418949E+03  0.12500000000E+03 0.  0.
</event>
<event>
 4    0  0.2239279E-002  0.2110796E+03  0.7546771E-02  0.1140714E+00
         21   -1    0    0  502  501  0.00000000000E+00  0.00000000000E+00  0.65416453460E+02  0.65416453460E+02  0.00000000000E+00 0.  1.
         21   -1    0    0  501  502 -0.00000000000E+00 -0.00000000000E+00 -0.68109166890E+03  0.68109166890E+03  0.00000000000E+00 0.  1.
         25    1    1    2    0    0 -0.12207861787E+02 -0.59324856835E+02 -0.26786918237E+02  0.14146027540E+03  0.12500000000E+03 0.  0.
         25    1    1    2    0    0  0.12207861787E+02  0.59324856835E+02 -0.58888829720E+03  0.60504784696E+03  0.12500000000E+03 0.  0.
</event>
<event>
 4    0  0.2239279E-002  0.2455094E+03  0.7546771E-02  0.1116176E+00
         21   -1    0    0  502  501  0.00000000000E+00  0.00000000000E+00  0.13511451336E+03  0.13511451336E+03  0.00000000000E+00 0. -1.
         21   -1    0    0  501  502 -0.00000000000E+00 -0.00000000000E+00 -0.44610201759E+03  0.44610201759E+03  0.00000000000E+00 0. -1.
         25    1    1    2    0    0 -0.39388162848E+02  0.20173335398E+03 -0.21350790045E+03  0.32164949407E+03  0.12500000000E+03 0.  0.
         25    1    1    2    0    0  0.39388162848E+02 -0.20173335398E+03 -0.97479603774E+02  0.25956703687E+03  0.12500000000E+03 0.  0.
</event>
<event>
 4    0  0.2239279E-002  0.2059489E+03  0.7546771E-02  0.1144815E+00
         21   -1    0    0  502  501  0.00000000000E+00  0.00000000000E+00  0.77667783603E+02  0.77667783603E+02  0.00000000000E+00 0. -1.
         21   -1    0    0  501  502 -0.00000000000E+00 -0.00000000000E+00 -0.54610745564E+03  0.54610745564E+03  0.00000000000E+00 0. -1.
         25    1    1    2    0    0  0.13237067491E+03 -0.50894871270E+02 -0.35797153633E+03  0.40482206501E+03  0.12500000000E+03 0.  0.
         25    1    1    2    0    0 -0.13237067491E+03  0.50894871270E+02 -0.11046813570E+03  0.21895317423E+03  0.12500000000E+03 0.  0.
</event>
<event>
 4    0  0.2239279E-002  0.1761614E+03  0.7546771E-02  0.1171571E+00
         21   -1    0    0  502  501  0.00000000000E+00  0.00000000000E+00  0.37752465087E+03  0.37752465087E+03  0.00000000000E+00 0.  1.
         21   -1    0    0  501  502 -0.00000000000E+00 -0.00000000000E+00 -0.82200793639E+02  0.82200793639E+02  0.00000000000E+00 0.  1.
         25    1    1    2    0    0  0.12155941101E+03  0.10733284383E+02  0.17730028847E+03  0.24890216168E+03  0.12500000000E+03 0.  0.
         25    1    1    2    0    0 -0.12155941101E+03 -0.10733284383E+02  0.11802356876E+03  0.21082328283E+03  0.12500000000E+03 0.  0.
</event>
<event>
 4    0  0.2239279E-002  0.1734992E+03  0.7546771E-02  0.1174247E+00
         21   -1    0    0  502  501  0.00000000000E+00  0.00000000000E+00  0.84993604072E+03  0.84993604072E+03  0.00000000000E+00 0.  1.
         21   -1    0    0  501  502 -0.00000000000E+00 -0.00000000000E+00 -0.35416752397E+02  0.35416752397E+02  0.00000000000E+00 0.  1.
         25    1    1    2    0    0 -0.72769942793E+01 -0.42600649876E+02  0.69376498109E+03  0.70625959746E+03  0.12500000000E+03 0.  0.
         25    1    1    2    0    0  0.72769942793E+01  0.42600649876E+02  0.12075430723E+03  0.17909319565E+03  0.12500000000E+03 0.  0.
</event>
<event>
 4    0  0.2239279E-002  0.1864882E+03  0.7546771E-02  0.1161667E+00
         21   -1    0    0  502  501  0.00000000000E+00  0.00000000000E+00  0.51352065634E+03  0.51352065634E+03  0.00000000000E+00 0.  1.
         21   -1    0    0  501  502 -0.00000000000E+00 -0.00000000000E+00 -0.67724309541E+02  0.67724309541E+02  0.00000000000E+00 0.  1.
         25    1    1    2    0    0 -0.96424074911E+02 -0.33583196804E+02  0.77311922721E+02  0.17896247295E+03  0.12500000000E+03 0.  0.
         25    1    1    2    0    0  0.96424074911E+02  0.33583196804E+02  0.36848442407E+03  0.40228249293E+03  0.12500000000E+03 0.  0.
</event>
<event>
 4    0  0.2239279E-002  0.2089305E+03  0.7546771E-02  0.1142416E+00
         21   -1    0    0  502  501  0.00000000000E+00  0.00000000000E+00  0.10688462553E+04  0.10688462553E+04  0.00000000000E+00 0.  1.
         21   -1    0    0  501  502 -0.00000000000E+00 -0.00000000000E+00 -0.40840274384E+02  0.40840274384E+02  0.00000000000E+00 0.  1.
         25    1    1    2    0    0 -0.12574363434E+02 -0.81406874231E+02  0.90105010297E+03  0.91340105203E+03  0.12500000000E+03 0.  0.
         25    1    1    2    0    0  0.12574363434E+02  0.81406874231E+02  0.12695587791E+03  0.19628547762E+03  0.12500000000E+03 0.  0.
</event>
<event>
 4    0  0.2239279E-002  0.1953176E+03  0.7546771E-02  0.1153751E+00
         21   -1    0    0  502  501  0.00000000000E+00  0.00000000000E+00  0.12708160974E+03  0.12708160974E+03  0.00000000000E+00 0. -1.
         21   -1    0    0  501  502 -0.00000000000E+00 -0.00000000000E+00 -0.30019276081E+03  0.30019276081E+03  0.00000000000E+00 0. -1.
         25    1    1    2    0    0 -0.10519795886E+03 -0.10525958807E+03 -0.10781538546E+03  0.22225064403E+03  0.12500000000E+03 0.  0.
         25    1    1    2    0    0  0.10519795886E+03  0.10525958807E+03 -0.65295765613E+02  0.20502372652E+03  0.12500000000E+03 0.  0.
</event>
<event>
 4    0  0.2239279E-002  0.1786470E+03  0.7546771E-02  0.1169119E+00
         21   -1    0    0  502  501  0.00000000000E+00  0.00000000000E+00  0.38695380602E+02  0.38695380602E+02  0.00000000000E+00 0. -1.
         21   -1    0    0  501  502 -0.00000000000E+00 -0.00000000000E+00 -0.82476921955E+03  0.82476921955E+03  0.00000000000E+00 0. -1.
         25    1    1    2    0    0  0.35841766643E+02 -0.31850532498E+02 -0.67888680168E+03  0.69196197739E+03  0.12500000000E+03 0.  0.
         25    1    1    2    0    0 -0.35841766643E+02  0.31850532498E+02 -0.10718703727E+03  0.17150262277E+03  0.12500000000E+03 0.  0.
</event>
<event>
 4    0  0.2239279E-002  0.1523265E+03  0.7546771E-02  0.1197643E+00
         21   -1    0    0  502  501  0.00000000000E+00  0.00000000000E+00  0.26872487106E+02  0.26872487106E+02  0.00000000000E+00 0. -1.
         21   -1    0    0  501  502 -0.00000000000E+00 -0.00000000000E+00 -0.86346139520E+03  0.86346139520E+03  0.00000000000E+00 0. -1.
         25    1    1    2    0    0  0.21932526238E+02  0.12926138643E+02 -0.66158289450E+03  0.67376928326E+03  0.12500000000E+03 0.  0.
         25    1    1    2    0    0 -0.21932526238E+02 -0.12926138643E+02 -0.17500601360E+03  0.21656459905E+03  0.12500000000E+03 0.  0.
</event>
<event>
 4    0  0.2239279E-002  0.1968568E+03  0.7546771E-02  0.1152418E+00
         21   -1    0    0  502  501  0.00000000000E+00  0.00000000000E+00  0.15338630518E+04  0.15338630518E+04  0.00000000000E+00 0. -1.
         21   -1    0    0  501  502 -0.00000000000E+00 -0.00000000000E+00 -0.25264701560E+02  0.25264701560E+02  0.00000000000E+00 0. -1.
         25    1    1    2    0    0 -0.62312266009E+02 -0.84672002362E+02  0.11894627676E+04  0.12006243550E+04  0.12500000000E+03 0.  0.
         25    1    1    2    0    0  0.62312266009E+02  0.84672002362E+02  0.31913558264E+03  0.35850339829E+03  0.12500000000E+03 0.  0.
</event>
<event>
 4    0  0.2239279E-002  0.4177217E+03  0.7546771E-02  0.1037810E+00
         21   -1    0    0  502  501  0.00000000000E+00  0.00000000000E+00  0.27023585620E+03  0.27023585620E+03  0.00000000000E+00 0. -1.
         21   -1    0    0  501  502 -0.00000000000E+00 -0.00000000000E+00 -0.64570056426E+03  0.64570056426E+03  0.00000000000E+00 0. -1.
         25    1    1    2    0    0 -0.58810804012E+02  0.39093043575E+02  0.24233710383E+03  0.28167223615E+03  0.12500000000E+03 0.  0.
         25    1    1    2    0    0  0.58810804012E+02 -0.39093043575E+02 -0.61780181189E+03  0.63426418431E+03  0.12500000000E+03 0.  0.
</event>
<event>
 4    0  0.2239279E-002  0.2455894E+03  0.7546771E-02  0.1116124E+00
         21   -1    0    0  502  501  0.00000000000E+00  0.00000000000E+00  0.28181451656E+03  0.28181451656E+03  0.00000000000E+00 0.  1.
         21   -1    0    0  501  502 -0.00000000000E+00 -0.00000000000E+00 -0.21402073623E+03  0.21402073623E+03  0.00000000000E+00 0.  1.
         25    1    1    2    0    0 -0.20300980850E+03 -0.11886419243E+02  0.92192784494E+02  0.25588821548E+03  0.12500000000E+03 0.  0.
         25    1    1    2    0    0  0.20300980850E+03  0.11886419243E+02 -0.24399004163E+02  0.23994703731E+03  0.12500000000E+03 0.  0.
</event>
<event>
 4    0  0.2239279E-002  0.2457426E+03  0.7546771E-02  0.1116025E+00
         21   -1    0    0  502  501  0.00000000000E+00  0.00000000000E+00  0.19306147093E+03  0.19306147093E+03  0.00000000000E+00 0.  1.
         21   -1    0    0  501  502 -0.00000000000E+00 -0.00000000000E+00 -0.31279884306E+03  0.31279884306E+03  0.00000000000E+00 0.  1.
         25    1    1    2    0    0 -0.19864651962E+02 -0.19026324242E+03  0.33161366274E+02  0.23090990024E+03  0.12500000000E+03 0.  0.
         25    1    1    2    0    0  0.19864651962E+02  0.19026324242E+03 -0.15289873840E+03  0.27495041375E+03  0.12500000000E+03 0.  0.
</event>
<event>
 4    0  0.2239279E-002  0.2736915E+03  0.7546771E-02  0.1099185E+00
         21   -1    0    0  502  501  0.00000000000E+00  0.00000000000E+00  0.35133175098E+03  0.35133175098E+03  0.00000000000E+00 0. -1.
         21   -1    0    0  501  502 -0.00000000000E+00 -0.00000000000E+00 -0.21320889460E+03  0.21320889460E+03  0.00000000000E+00 0. -1.
         25    1    1    2    0    0  0.10144779194E+03  0.21411942496E+03  0.12688365553E+03  0.29641734881E+03  0.12500000000E+03 0.  0.
         25    1    1    2    0    0 -0.10144779194E+03 -0.21411942496E+03  0.11239200851E+02  0.26812329677E+03  0.12500000000E+03 0.  0.
</event>
<event>
 4    0  0.2239279E-002  0.1742246E+03  0.7546771E-02  0.1173513E+00
         21   -1    0    0  502  501  0.00000000000E+00  0.00000000000E+00  0.26544681346E+03  0.26544681346E+03  0.00000000000E+00 0.  1.
         21   -1    0    0  501  502 -0.00000000000E+00 -0.00000000000E+00 -0.11435133242E+03  0.11435133242E+03  0.00000000000E+00 0.  1.
         25    1    1    2    0    0  0.57927443328E+01  0.11284597214E+03  0.12382021934E+03  0.20910336208E+03  0.12500000000E+03 0.  0.
         25    1    1    2    0    0 -0.57927443328E+01 -0.11284597214E+03  0.27275261709E+02  0.17069478380E+03  0.12500000000E+03 0.  0.
</event>
<event>
 4    0  0.2239279E-002  0.1554597E+03  0.7546771E-02  0.1193920E+00
         21   -1    0    0  502  501  0.00000000000E+00  0.00000000000E+00  0.11710310179E+02  0.11710310179E+02  0.00000000000E+00 0. -1.
         21   -1    0    0  501  502 -0.00000000000E+00 -0.00000000000E+00 -0.20637990295E+04  0.20637990295E+04  0.00000000000E+00 0. -1.
         25    1    1    2    0    0  0.21798081161E+02  0.81793111302E+02 -0.77829309458E+03  0.79279909843E+03  0.12500000000E+03 0.  0.
         25    1    1    2    0    0 -0.21798081161E+02 -0.81793111302E+02 -0.12737956247E+04  0.12827102412E+04  0.12500000000E+03 0.  0.
</event>
<event>
 4    0  0.2239279E-002  0.2046263E+03  0.7546771E-02  0.1145893E+00
         21   -1    0    0  502  501  0.00000000000E+00  0.00000000000E+00  0.37913245410E+02  0.37913245410E+02  0.00000000000E+00 0. -1.
         21   -1    0    0  501  502 -0.00000000000E+00 -0.00000000000E+00 -0.11044143491E+04  0.11044143491E+04  0.00000000000E+00 0. -1.
         25    1    1    2    0    0 -0.28666970717E+02  0.26048245315E+02 -0.94156890303E+02  0.16121670598E+03  0.12500000000E+03 0.  0.
         25    1    1    2    0    0  0.28666970717E+02 -0.26048245315E+02 -0.97234421339E+03  0.98111088854E+03  0.12500000000E+03 0.  0.
</event>
<event>
 4    0  0.2239279E-002  0.1819972E+03  0.7546771E-02  0.1165884E+00
         21   -1    0    0  502  501  0.00000000000E+00  0.00000000000E+00  0.37735857121E+02  0.37735857121E+02  0.00000000000E+00 0.  1.
         21   -1    0    0  501  502 -0.00000000000E+00 -0.00000000000E+00 -0.87775836676E+03  0.87775836676E+03  0.00000000000E+00 0.  1.
         25    1    1    2    0    0  0.52442837205E+02 -0.49012396244E+02 -0.14055404154E+03  0.20132785390E+03  0.12500000000E+03 0.  0.
         25    1    1    2    0    0 -0.52442837205E+02  0.49012396244E+02 -0.69946846809E+03  0.71416636998E+03  0.12500000000E+03 0.  0.
</event>
<event>
 4    0  0.2239279E-002  0.1830737E+03  0.7546771E-02  0.1164861E+00
         21   -1    0    0  502  501  0.00000000000E+00  0.00000000000E+00  0.40793495823E+02  0.40793495823E+02  0.00000000000E+00 0.  1.
         21   -1    0    0  501  502 -0.00000000000E+00 -0.00000000000E+00 -0.82160099483E+03  0.82160099483E+03  0.00000000000E+00 0.  1.
         25    1    1    2    0    0  0.29253901535E+02 -0.12554559574E+03 -0.47445568188E+03  0.50729742896E+03  0.12500000000E+03 0.  0.
         25    1    1    2    0    0 -0.29253901535E+02  0.12554559574E+03 -0.30635181713E+03  0.35509706169E+03  0.12500000000E+03 0.  0.
</event>
<event>
 4    0  0.2239279E-002  0.2925977E+03  0.7546771E-02  0.1089001E+00
         21   -1    0    0  502  501  0.00000000000E+00  0.00000000000E+00  0.96270239669E+03  0.96270239669E+03  0.00000000000E+00 0.  1.
         21   -1    0    0  501  502 -0.00000000000E+00 -0.00000000000E+00 -0.88930322540E+02  0.88930322540E+02  0.00000000000E+00 0.  1.
         25    1    1    2    0    0 -0.19560821357E+03 -0.11184552748E+03  0.18777120008E+03  0.31883384201E+03  0.12500000000E+03 0.  0.
         25    1    1    2    0    0  0.19560821357E+03  0.11184552748E+03  0.68600087408E+03  0.73279887723E+03  0.12500000000E+03 0.  0.
</event>
<event>
 4    0  0.2239279E-002  0.1925408E+03  0.7546771E-02  0.1156189E+00
         21   -1    0    0  502  501  0.00000000000E+00  0.00000000000E+00  0.33360722947E+03  0.33360722947E+03  0.00000000000E+00 0.  1.
         21   -1    0    0  501  502 -0.00000000000E+00 -0.00000000000E+00 -0.11112452384E+03  0.11112452384E+03  0.00000000000E+00 0.  1.
         25    1    1    2    0    0 -0.11054949560E+03 -0.13092409431E+01  0.32232990450E+00  0.16687722728E+03  0.12500000000E+03 0.  0.
         25    1    1    2    0    0  0.11054949560E+03  0.13092409431E+01  0.22216037573E+03  0.27785452603E+03  0.12500000000E+03 0.  0.
</event>
<event>
 4    0  0.2239279E-002  0.2404173E+03  0.7546771E-02  0.1119515E+00
         21   -1    0    0  502  501  0.00000000000E+00  0.00000000000E+00  0.19466563522E+04  0.19466563522E+04  0.00000000000E+00 0. -1.
         21   -1    0    0  501  502 -0.00000000000E+00 -0.00000000000E+00 -0.29692193971E+02  0.29692193971E+02  0.00000000000E+00 0. -1.
         25    1    1    2    0    0 -0.50716410487E+02  0.14013533366E+03  0.37770815589E+03  0.42485117048E+03  0.12500000000E+03 0.  0.
         25    1    1    2    0    0  0.50716410487E+02 -0.14013533366E+03  0.15392560024E+04  0.15514973757E+04  0.12500000000E+03 0.  0.
</event>
<event>
 4    0  0.2239279E-002  0.2072090E+03  0.7546771E-02  0.1143795E+00
         21   -1    0    0  502  501  0.00000000000E+00  0.00000000000E+00  0.20593590395E+02  0.20593590395E+02  0.00000000000E+00 0. -1.
         21   -1    0    0  501  502 -0.00000000000E+00 -0.00000000000E+00 -0.20848987503E+04  0.20848987503E+04  0.00000000000E+00 0. -1.
         25    1    1    2    0    0  0.79496977266E+02  0.13601089520E+03 -0.12857666237E+04  0.13013990716E+04  0.12500000000E+03 0.  0.
         25    1    1    2    0    0 -0.79496977266E+02 -0.13601089520E+03 -0.77853853618E+03  0.80409326905E+03  0.12500000000E+03 0.  0.
</event>
<event>
 4    0  0.2239279E-002  0.2214062E+03  0.7546771E-02  0.1132839E+00
         21   -1    0    0  502  501  0.00000000000E+00  0.00000000000E+00  0.34185893800E+03  0.34185893800E+03  0.00000000000E+00 0. -1.
         21   -1    0    0  501  502 -0.00000000000E+00 -0.00000000000E+00 -0.14339451047E+03  0.14339451047E+03  0.00000000000E+00 0. -1.
         25    1    1    2    0    0  0.45241023871E+02  0.14504685128E+03 -0.12039743593E+02  0.19711746430E+03  0.12500000000E+03 0.  0.
         25    1    1    2    0    0 -0.45241023871E+02 -0.14504685128E+03  0.21050417112E+03  0.28813598416E+03  0.12500000000E+03 0.  0.
</event>
<event>
 4    0  0.2239279E-002  0.2090029E+03  0.7546771E-02  0.1142358E+00
         21   -1    0    0  502  501  0.00000000000E+00  0.00000000000E+00  0.14727567504E+03  0.14727567504E+03  0.00000000000E+00 0.  1.
         21   -1    0    0  501  502 -0.00000000000E+00 -0.00000000000E+00 -0.29660159496E+03  0.29660159496E+03  0.00000000000E+00 0.  1.
         25    1    1    2    0    0  0.14797526052E+03  0.78485833000E+02 -0.73914791104E+02  0.22168694154E+03  0.12500000000E+03 0.  0.
         25    1    1    2    0    0 -0.14797526052E+03 -0.78485833000E+02 -0.75411128816E+02  0.22219032845E+03  0.12500000000E+03 0.  0.
</event>
<event>
 4    0  0.2239279E-002  0.1852668E+03  0.7546771E-02  0.1162801E+00
         21   -1    0    0  502  501  0.00000000000E+00  0.00000000000E+00  0.96834210189E+03  0.96834210189E+03  0.00000000000E+00 0.  1.
         21   -1    0    0  501  502 -0.00000000000E+00 -0.00000000000E+00 -0.35445924805E+02  0.35445924805E+02  0.00000000000E+00 0.  1.
         25    1    1    2    0    0  0.50702734310E+02 -0.10337267832E+03  0.26660098959E+03  0.31616098042E+03  0.12500000000E+03 0.  0.
         25    1    1    2    0    0 -0.50702734310E+02  0.10337267832E+03  0.66629518749E+03  0.68762704627E+03  0.12500000000E+03 0.  0.
</event>
<event>
 4    0  0.2239279E-002  0.1726264E+03  0.7546771E-02  0.1175136E+00
         21   -1    0    0  502  501  0.00000000000E+00  0.00000000000E+00  0.27666882643E+03  0.27666882643E+03  0.00000000000E+00 0.  1.
         21   -1    0    0  501  502 -0.00000000000E+00 -0.00000000000E+00 -0.10770953959E+03  0.10770953959E+03  0.00000000000E+00 0.  1.
         25    1    1    2    0    0 -0.37718342804E+02 -0.57509473543E+02 -0.23718418335E+02  0.14462909908E+03  0.12500000000E+03 0.  0.
         25    1    1    2    0    0  0.37718342804E+02  0.57509473543E+02  0.19267770518E+03  0.23974926695E+03  0.12500000000E+03 0.  0.
</event>
<event>
 4    0  0.2239279E-002  0.2126168E+03  0.7546771E-02  0.1139510E+00
         21   -1    0    0  502  501  0.00000000000E+00  0.00000000000E+00  0.20590566382E+04  0.20590566382E+04  0.00000000000E+00 0. -1.
         21   -1    0    0  501  502 -0.00000000000E+00 -0.00000000000E+00 -0.21954676067E+02  0.21954676067E+02  0.00000000000E+00 0. -1.
         25    1    1    2    0    0  0.13228242932E+03  0.10839483151E+03  0.92926873277E+03  0.95310726485E+03  0.12500000000E+03 0.  0.
         25    1    1    2    0    0 -0.13228242932E+03 -0.10839483151E+03  0.11078332293E+04  0.11279040494E+04  0.12500000000E+03 0.  0.
</event>
<event>
 4    0  0.2239279E-002  0.1954915E+03  0.7546771E-02  0.1153600E+00
         21   -1    0    0  502  501  0.00000000000E+00  0.00000000000E+00  0.43625809922E+03  0.43625809922E+03  0.00000000000E+00 0.  1.
         21   -1    0    0  501  502 -0.00000000000E+00 -0.00000000000E+00 -0.87601664082E+02  0.87601664082E+02  0.00000000000E+00 0.  1.
         25    1    1    2    0    0  0.10291287408E+03 -0.15114013867E+02  0.28952991111E+02  0.16517496409E+03  0.12500000000E+03 0.  0.
         25    1    1    2    0    0 -0.10291287408E+03  0.15114013867E+02  0.31970344403E+03  0.35868479922E+03  0.12500000000E+03 0.  0.
</event>
<event>
 4    0  0.2239279E-002  0.2409950E+03  0.7546771E-02  0.1119132E+00
         21   -1    0    0  502  501  0.00000000000E+00  0.00000000000E+00  0.13830047134E+04  0.13830047134E+04  0.00000000000E+00 0. -1.
         21   -1    0    0  501  502 -0.00000000000E+00 -0.00000000000E+00 -0.41994501005E+02  0.41994501005E+02  0.00000000000E+00 0. -1.
         25    1    1    2    0    0 -0.13906945757E+03  0.12116150960E+03  0.94200642710E+03  0.96799872631E+03  0.12500000000E+03 0.  0.
         25    1    1    2    0    0  0.13906945757E+03 -0.12116150960E+03  0.39900378528E+03  0.45700048808E+03  0.12500000000E+03 0.  0.
</event>
<event>
 4    0  0.2239279E-002  0.2318481E+03  0.7546771E-02  0.1125346E+00
         21   -1    0    0  502  501  0.00000000000E+00  0.00000000000E+00  0.50484379501E+03  0.50484379501E+03  0.00000000000E+00 0. -1.
         21   -1    0    0  501  502 -0.00000000000E+00 -0.00000000000E+00 -0.10647559391E+03  0.10647559391E+03  0.00000000000E+00 0. -1.
         25    1    1    2    0    0  0.12914288674E+02  0.10836298824E+03 -0.14289693140E+02  0.16654882588E+03  0.12500000000E+03 0.  0.
         25    1    1    2    0    0 -0.12914288674E+02 -0.10836298824E+03  0.41265789424E+03  0.44477056305E+03  0.12500000000E+03 0.  0.
</event>
<event>
 4    0  0.2239279E-002  0.1950673E+03  0.7546771E-02  0.1153969E+00
         21   -1    0    0  502  501  0.00000000000E+00  0.00000000000E+00  0.79337201622E+02  0.79337201622E+02  0.00000000000E+00 0. -1.
         21   -1    0    0  501  502 -0.00000000000E+00 -0.00000000000E+00 -0.47961413869E+03  0.47961413869E+03  0.00000000000E+00 0. -1.
         25    1    1    2    0    0 -0.31142255305E+02 -0.15799330394E+02 -0.40877818909E+03  0.42888700934E+03  0.12500000000E+03 0.  0.
         25    1    1    2    0    0  0.31142255305E+02  0.15799330394E+02  0.85012520171E+01  0.13006433098E+03  0.12500000000E+03 0.  0.
</event>
<event>
 4    0  0.2239279E-002  0.1787932E+03  0.7546771E-02  0.1168976E+00
         21   -1    0    0  502  501  0.00000000000E+00  0.00000000000E+00  0.43345427044E+02  0.43345427044E+02  0.00000000000E+00 0. -1.
         21   -1    0    0  501  502 -0.00000000000E+00 -0.00000000000E+00 -0.73749461237E+03  0.73749461237E+03  0.00000000000E+00 0. -1.
         25    1    1    2    0    0  0.82627261054E+02  0.47949358798E+01 -0.55981719057E+03  0.57954339142E+03  0.12500000000E+03 0.  0.
         25    1    1    2    0    0 -0.82627261054E+02 -0.47949358798E+01 -0.13433199476E+03  0.20129664800E+03  0.12500000000E+03 0.  0.
</event>
<event>
 4    0  0.2239279E-002  0.2681098E+03  0.7546771E-02  0.1102366E+00
         21   -1    0    0  502  501  0.00000000000E+00  0.00000000000E+00  0.93289884446E+03  0.93289884446E+03  0.00000000000E+00 0.  1.
         21   -1    0    0  501  502 -0.00000000000E+00 -0.00000000000E+00 -0.77053223218E+02  0.77053223218E+02  0.00000000000E+00 0.  1.
         25    1    1    2    0    0  0.89003865766E+02 -0.21719961843E+03  0.49208523375E+03  0.55934804875E+03  0.12500000000E+03 0.  0.
         25    1    1    2    0    0 -0.89003865766E+02  0.21719961843E+03  0.36376038749E+03  0.45060401893E+03  0.12500000000E+03 0.  0.
</event>
<event>
 4    0  0.2239279E-002  0.1727764E+03  0.7546771E-02  0.1174983E+00
         21   -1    0    0  502  501  0.00000000000E+00  0.00000000000E+00  0.72588839375E+02  0.72588839375E+02  0.00000000000E+00 0. -1.
         21   -1    0    0  501  502 -0.00000000000E+00 -0.00000000000E+00 -0.41124349957E+03  0.41124349957E+03  0.00000000000E+00 0. -1.
         25    1    1    2    0    0  0.10649740950E+03 -0.35792085463E+02 -0.22540259780E+03  0.28116561438E+03  0.12500000000E+03 0.  0.
         25    1    1    2    0    0 -0.10649740950E+03  0.35792085463E+02 -0.11325206239E+03  0.20266672457E+03  0.12500000000E+03 0.  0.
</event>
<event>
 4    0  0.2239279E-002  0.2159140E+03  0.7546771E-02  0.1136966E+00
         21   -1    0    0  502  501  0.00000000000E+00  0.00000000000E+00  0.45489174440E+03  0.45489174440E+03  0.00000000000E+00 0. -1.
         21   -1    0    0  501  502 -0.00000000000E+00 -0.00000000000E+00 -0.10248341892E+03  0.10248341892E+03  0.00000000000E+00 0. -1.
         25    1    1    2    0    0 -0.82050285208E+01 -0.17200290275E+03  0.12892839115E+03  0.24879680683E+03  0.12500000000E+03 0.  0.
         25    1    1    2    0    0  0.82050285208E+01  0.17200290275E+03  0.22347993434E+03  0.30857835649E+03  0.12500000000E+03 0.  0.
</event>
<event>
 4    0  0.2239279E-002  0.1914605E+03  0.7546771E-02  0.1157151E+00
         21   -1    0    0  502  501  0.00000000000E+00  0.00000000000E+00  0.12809252051E+03  0.12809252051E+03  0.00000000000E+00 0.  1.
         21   -1    0    0  501  502 -0.00000000000E+00 -0.00000000000E+00 -0.28617686774E+03  0.28617686774E+03  0.00000000000E+00 0.  1.
         25    1    1    2    0    0 -0.11842853669E+03 -0.72744247689E+02 -0.34238365246E+02  0.19003765293E+03  0.12500000000E+03 0.  0.
         25    1    1    2    0    0  0.11842853669E+03  0.72744247689E+02 -0.12384598199E+03  0.22423173533E+03  0.12500000000E+03 0.  0.
</event>
<event>
 4    0  0.2239279E-002  0.1879424E+03  0.7546771E-02  0.1160330E+00
         21   -1    0    0  502  501  0.00000000000E+00  0.00000000000E+00  0.45387613970E+02  0.45387613970E+02  0.00000000000E+00 0. -1.
         21   -1    0    0  501  502 -0.00000000000E+00 -0.00000000000E+00 -0.77823784897E+03  0.77823784897E+03  0.00000000000E+00 0. -1.
         25    1    1    2    0    0 -0.61259292962E+01 -0.32744379141E+02 -0.66516074345E+03  0.67762344706E+03  0.12500000000E+03 0.  0.
         25    1    1    2    0    0  0.61259292962E+01  0.32744379141E+02 -0.67689491548E+02  0.14600201588E+03  0.12500000000E+03 0.  0.
</event>
<event>
 4    0  0.2239279E-002  0.1731079E+03  0.7546771E-02  0.1174645E+00
         21   -1    0    0  502  501  0.00000000000E+00  0.00000000000E+00  0.15715625592E+03  0.15715625592E+03  0.00000000000E+00 0. -1.
         21   -1    0    0  501  502 -0.00000000000E+00 -0.00000000000E+00 -0.19067873801E+03  0.19067873801E+03  0.00000000000E+00 0. -1.
         25    1    1    2    0    0 -0.59204407257E+02  0.18411486136E+02 -0.11969629272E+03  0.18383782840E+03  0.12500000000E+03 0.  0.
         25    1    1    2    0    0  0.59204407257E+02 -0.18411486136E+02  0.86173810634E+02  0.16399716552E+03  0.12500000000E+03 0.  0.
</event>
<event>
 4    0  0.2239279E-002  0.1956969E+03  0.7546771E-02  0.1153421E+00
         21   -1    0    0  502  501  0.00000000000E+00  0.00000000000E+00  0.50606495150E+02  0.50606495150E+02  0.00000000000E+00 0.  1.
         21   -1    0    0  501  502 -0.00000000000E+00 -0.00000000000E+00 -0.75676611332E+03  0.75676611332E+03  0.00000000000E+00 0.  1.
         25    1    1    2    0    0  0.58150967860E+02  0.13289931246E+03 -0.26983515132E+03  0.33087727514E+03  0.12500000000E+03 0.  0.
         25    1    1    2    0    0 -0.58150967860E+02 -0.13289931246E+03 -0.43632446685E+03  0.47649533333E+03  0.12500000000E+03 0.  0.
</event>
<event>
 4    0  0.2239279E-002  0.2590730E+03  0.7546771E-02  0.1107701E+00
         21   -1    0    0  502  501  0.00000000000E+00  0.00000000000E+00  0.10412035938E+03  0.10412035938E+03  0.00000000000E+00 0.  1.
         21   -1    0    0  501  502 -0.00000000000E+00 -0.00000000000E+00 -0.64462706198E+03  0.64462706198E+03  0.00000000000E+00 0.  1.
         25    1    1    2    0    0 -0.12728806122E+03 -0.40796777330E+02 -0.52639937716E+01  0.18308286976E+03  0.12500000000E+03 0.  0.
         25    1    1    2    0    0  0.12728806122E+03  0.40796777330E+02 -0.53524270883E+03  0.56566455159E+03  0.12500000000E+03 0.  0.
</event>
<event>
 4    0  0.2239279E-002  0.1867685E+03  0.7546771E-02  0.1161409E+00
         21   -1    0    0  502  501  0.00000000000E+00  0.00000000000E+00  0.54085329822E+03  0.54085329822E+03  0.00000000000E+00 0.  1.
         21   -1    0    0  501  502 -0.00000000000E+00 -0.00000000000E+00 -0.64495276148E+02  0.64495276148E+02  0.00000000000E+00 0.  1.
         25    1    1    2    0    0 -0.70887820292E+02 -0.83786004829E+02  0.10055035134E+03  0.19437219664E+03  0.12500000000E+03 0.  0.
         25    1    1    2    0    0  0.70887820292E+02  0.83786004829E+02  0.37580767074E+03  0.41097637773E+03  0.12500000000E+03 0.  0.
</event>
<event>
 4    0  0.2239279E-002  0.1934340E+03  0.7546771E-02  0.1155400E+00
         21   -1    0    0  502  501  0.00000000000E+00  0.00000000000E+00  0.29310374615E+03  0.29310374615E+03  0.00000000000E+00 0. -1.
         21   -1    0    0  501  502 -0.00000000000E+00 -0.00000000000E+00 -0.12765683089E+03  0.12765683089E+03  0.00000000000E+00 0. -1.
         25    1    1    2    0    0  0.13802462443E+03  0.45058600152E+02  0.53730578955E+02  0.19898002290E+03  0.12500000000E+03 0.  0.
         25    1    1    2    0    0 -0.13802462443E+03 -0.45058600152E+02  0.11171633631E+03  0.22178055414E+03  0.12500000000E+03 0.  0.
</event>
<event>
 4    0  0.2239279E-002  0.1860249E+03  0.7546771E-02  0.1162096E+00
         21   -1    0    0  502  501  0.00000000000E+00  0.00000000000E+00  0.38191945119E+03  0.38191945119E+03  0.00000000000E+00 0.  1.
         21   -1    0    0  501  502 -0.00000000000E+00 -0.00000000000E+00 -0.90608816498E+02  0.90608816498E+02  0.00000000000E+00 0.  1.
         25    1    1    2    0    0  0.20954605990E+01 -0.13695050373E+03  0.12679843233E+03  0.22463898564E+03  0.12500000000E+03 0.  0.
         25    1    1    2    0    0 -0.20954605990E+01  0.13695050373E+03  0.16451220236E+03  0.24788928205E+03  0.12500000000E+03 0.  0.
</event>
<event>
 4    0  0.2239279E-002  0.2092076E+03  0.7546771E-02  0.1142195E+00
         21   -1    0    0  502  501  0.00000000000E+00  0.00000000000E+00  0.24178587175E+03  0.24178587175E+03  0.00000000000E+00 0. -1.
         21   -1    0    0  501  502 -0.00000000000E+00 -0.00000000000E+00 -0.18101899009E+03  0.18101899009E+03  0.00000000000E+00 0. -1.
         25    1    1    2    0    0 -0.10340554035E+03  0.11901460721E+03 -0.27538514936E+02  0.20307770018E+03  0.12500000000E+03 0.  0.
         25    1    1    2    0    0  0.10340554035E+03 -0.11901460721E+03  0.88305396587E+02  0.21972716166E+03  0.12500000000E+03 0.  0.
</event>
<event>
 4    0  0.2239279E-002  0.1588575E+03  0.7546771E-02  0.1189993E+00
         21   -1    0    0  502  501  0.00000000000E+00  0.00000000000E+00  0.16714639260E+03  0.16714639260E+03  0.00000000000E+00 0. -1.
         21   -1    0    0  501  502 -0.00000000000E+00 -0.00000000000E+00 -0.15097958035E+03  0.15097958035E+03  0.00000000000E+00 0. -1.
         25    1    1    2    0    0 -0.51783377437E+02  0.74734521499E+02 -0.28623610718E+02  0.15719757623E+03  0.12500000000E+03 0.  0.
         25    1    1    2    0    0  0.51783377437E+02 -0.74734521499E+02  0.44790422970E+02  0.16092839672E+03  0.12500000000E+03 0.  0.
</event>
<event>
 4    0  0.2239279E-002  0.1692088E+03  0.7546771E-02  0.1178675E+00
         21   -1    0    0  502  501  0.00000000000E+00  0.00000000000E+00  0.27999410530E+02  0.27999410530E+02  0.00000000000E+00 0.  1.
         21   -1    0    0  501  502 -0.00000000000E+00 -0.00000000000E+00 -0.10225797576E+04  0.10225797576E+04  0.00000000000E+00 0.  1.
         25    1    1    2    0    0  0.80213050966E+02  0.77120190558E+02 -0.41968218806E+03  0.45181832224E+03  0.12500000000E+03 0.  0.
         25    1    1    2    0    0 -0.80213050966E+02 -0.77120190558E+02 -0.57489815901E+03  0.59876084589E+03  0.12500000000E+03 0.  0.
</event>
<event>
 4    0  0.2239279E-002  0.4563064E+03  0.7546771E-02  0.1025858E+00
         21   -1    0    0  502  501  0.00000000000E+00  0.00000000000E+00  0.21490150544E+03  0.21490150544E+03  0.00000000000E+00 0.  1.
         21   -1    0    0  501  502 -0.00000000000E+00 -0.00000000000E+00 -0.96888820708E+03  0.96888820708E+03  0.00000000000E+00 0.  1.
         25    1    1    2    0    0 -0.93538690339E+02 -0.42825617257E+03 -0.40413120257E+03  0.60917966547E+03  0.12500000000E+03 0.  0.
         25    1    1    2    0    0  0.93538690339E+02  0.42825617257E+03 -0.34985549907E+03  0.57461004704E+03  0.12500000000E+03 0.  0.
</event>
<event>
 4    0  0.2239279E-002  0.1644171E+03  0.7546771E-02  0.1183798E+00
         21   -1    0    0  502  501  0.00000000000E+00  0.00000000000E+00  0.16488011131E+03  0.16488011131E+03  0.00000000000E+00 0.  1.
         21   -1    0    0  501  502 -0.00000000000E+00 -0.00000000000E+00 -0.16395545703E+03  0.16395545703E+03  0.00000000000E+00 0.  1.
         25    1    1    2    0    0 -0.19607025145E+01 -0.25358292599E+02  0.10419849120E+03  0.16470948038E+03  0.12500000000E+03 0.  0.
         25    1    1    2    0    0  0.19607025145E+01  0.25358292599E+02 -0.10327383692E+03  0.16412608796E+03  0.12500000000E+03 0.  0.
</event>
<event>
 4    0  0.2239279E-002  0.2293714E+03  0.7546771E-02  0.1127083E+00
         21   -1    0    0  502  501  0.00000000000E+00  0.00000000000E+00  0.14607463230E+03  0.14607463230E+03  0.00000000000E+00 0. -1.
         21   -1    0    0  501  502 -0.00000000000E+00 -0.00000000000E+00 -0.36016678056E+03  0.36016678056E+03  0.00000000000E+00 0. -1.
         25    1    1    2    0    0 -0.11640431199E+02 -0.18892148176E+03 -0.69470479012E+02  0.23722979021E+03  0.12500000000E+03 0.  0.
         25    1    1    2    0    0  0.11640431199E+02  0.18892148176E+03 -0.14462166924E+03  0.26901162265E+03  0.12500000000E+03 0.  0.
</event>
<event>
 4    0  0.2239279E-002  0.2180540E+03  0.7546771E-02  0.1135342E+00
         21   -1    0    0  502  501  0.00000000000E+00  0.00000000000E+00  0.22757077018E+02  0.22757077018E+02  0.00000000000E+00 0. -1.
         21   -1    0    0  501  502 -0.00000000000E+00 -0.00000000000E+00 -0.20893519696E+04  0.20893519696E+04  0.00000000000E+00 0. -1.
         25    1    1    2    0    0  0.37093668977E+02 -0.17327149773E+03 -0.92247733431E+03  0.94762249051E+03  0.12500000000E+03 0.  0.
         25    1    1    2    0    0 -0.37093668977E+02  0.17327149773E+03 -0.11441175582E+04  0.11644865561E+04  0.12500000000E+03 0.  0.
</event>
<event>
 4    0  0.2239279E-002  0.1858584E+03  0.7546771E-02  0.1162251E+00
         21   -1    0    0  502  501  0.00000000000E+00  0.00000000000E+00  0.37281172396E+03  0.37281172396E+03  0.00000000000E+00 0.  1.
         21   -1    0    0  501  502 -0.00000000000E+00 -0.00000000000E+00 -0.92656269335E+02  0.92656269335E+02  0.00000000000E+00 0.  1.
         25    1    1    2    0    0 -0.13243327524E+03 -0.36425580169E+02  0.14918950979E+03  0.23821818804E+03  0.12500000000E+03 0.  0.
         25    1    1    2    0    0  0.13243327524E+03  0.36425580169E+02  0.13096594483E+03  0.22724980525E+03  0.12500000000E+03 0.  0.
</event>
<event>
 4    0  0.2239279E-002  0.1932917E+03  0.7546771E-02  0.1155526E+00
         21   -1    0    0  502  501  0.00000000000E+00  0.00000000000E+00  0.21945958855E+03  0.21945958855E+03  0.00000000000E+00 0. -1.
         21   -1    0    0  501  502 -0.00000000000E+00 -0.00000000000E+00 -0.17024399646E+03  0.17024399646E+03  0.00000000000E+00 0. -1.
         25    1    1    2    0    0  0.35638505115E+02 -0.32542466738E+02 -0.11582764284E+03  0.17711622747E+03  0.12500000000E+03 0.  0.
         25    1    1    2    0    0 -0.35638505115E+02  0.32542466738E+02  0.16504323493E+03  0.21258735754E+03  0.12500000000E+03 0.  0.
</event>
<event>
 4    0  0.2239279E-002  0.2628777E+03  0.7546771E-02  0.1105426E+00
         21   -1    0    0  502  501  0.00000000000E+00  0.00000000000E+00  0.69252971859E+02  0.69252971859E+02  0.00000000000E+00 0.  1.
         21   -1    0    0  501  502 -0.00000000000E+00 -0.00000000000E+00 -0.99785854620E+03  0.99785854620E+03  0.00000000000E+00 0.  1.
         25    1    1    2    0    0 -0.67026231016E+02 -0.18000438302E+03 -0.20291132587E+03  0.30609165247E+03  0.12500000000E+03 0.  0.
         25    1    1    2    0    0  0.67026231016E+02  0.18000438302E+03 -0.72569424848E+03  0.76101986559E+03  0.12500000000E+03 0.  0.
</event>
<event>
 4    0  0.2239279E-002  0.2885919E+03  0.7546771E-02  0.1091087E+00
         21   -1    0    0  502  501  0.00000000000E+00  0.00000000000E+00  0.29965697263E+03  0.29965697263E+03  0.00000000000E+00 0.  1.
         21   -1    0    0  501  502 -0.00000000000E+00 -0.00000000000E+00 -0.27793548401E+03  0.27793548401E+03  0.00000000000E+00 0.  1.
         25    1    1    2    0    0  0.14074422628E+03 -0.21691264384E+03  0.39169874493E+02  0.28986084826E+03  0.12500000000E+03 0.  0.
         25    1    1    2    0    0 -0.14074422628E+03  0.21691264384E+03 -0.17448385869E+02  0.28773160837E+03  0.12500000000E+03 0.  0.
</event>
<event>
 4    0  0.2239279E-002  0.2369591E+03  0.7546771E-02  0.1121835E+00
         21   -1    0    0  502  501  0.00000000000E+00  0.00000000000E+00  0.86353021301E+02  0.86353021301E+02  0.00000000000E+00 0.  1.
         21   -1    0    0  501  502 -0.00000000000E+00 -0.00000000000E+00 -0.65023322639E+03  0.65023322639E+03  0.00000000000E+00 0.  1.
         25    1    1    2    0    0  0.15256577870E+03  0.11655857986E+03 -0.18788069940E+03  0.29628765849E+03  0.12500000000E+03 0.  0.
         25    1    1    2    0    0 -0.15256577870E+03 -0.11655857986E+03 -0.37599950569E+03  0.44029858919E+03  0.12500000000E+03 0.  0.
</event>
<event>
 4    0  0.2239279E-002  0.2042537E+03  0.7546771E-02  0.1146199E+00
         21   -1    0    0  502  501  0.00000000000E+00  0.00000000000E+00  0.13358661564E+03  0.13358661564E+03  0.00000000000E+00 0. -1.
         21   -1    0    0  501  502 -0.00000000000E+00 -0.00000000000E+00 -0.31230366330E+03  0.31230366330E+03  0.00000000000E+00 0. -1.
         25    1    1    2    0    0 -0.81509632782E+02 -0.91036365238E+02 -0.20468296642E+03  0.26916826851E+03  0.12500000000E+03 0.  0.
         25    1    1    2    0    0  0.81509632782E+02  0.91036365238E+02  0.25965918762E+02  0.17672201043E+03  0.12500000000E+03 0.  0.
</event>
<event>
 4    0  0.2239279E-002  0.2238638E+03  0.7546771E-02  0.1131035E+00
         21   -1    0    0  502  501  0.00000000000E+00  0.00000000000E+00  0.97589826802E+02  0.97589826802E+02  0.00000000000E+00 0. -1.
         21   -1    0    0  501  502 -0.00000000000E+00 -0.00000000000E+00 -0.51352684141E+03  0.51352684141E+03  0.00000000000E+00 0. -1.
         25    1    1    2    0    0  0.74592504577E+02  0.80553465920E+02 -0.41242155028E+03  0.44471275870E+03  0.12500000000E+03 0.  0.
         25    1    1    2    0    0 -0.74592504577E+02 -0.80553465920E+02 -0.35154643195E+01  0.16640390951E+03  0.12500000000E+03 0.  0.
</event>
<event>
 4    0  0.2239279E-002  0.2179233E+03  0.7546771E-02  0.1135441E+00
         21   -1    0    0  502  501  0.00000000000E+00  0.00000000000E+00  0.28855716353E+03  0.28855716353E+03  0.00000000000E+00 0.  1.
         21   -1    0    0  501  502 -0.00000000000E+00 -0.00000000000E+00 -0.16457932914E+03  0.16457932914E+03  0.00000000000E+00 0.  1.
         25    1    1    2    0    0  0.10508208957E+03  0.14292861059E+03  0.41333444021E+02  0.22091692300E+03  0.12500000000E+03 0.  0.
         25    1    1    2    0    0 -0.10508208957E+03 -0.14292861059E+03  0.82644390365E+02  0.23221956966E+03  0.12500000000E+03 0.  0.
</event>
<event>
 4    0  0.2239279E-002  0.1880867E+03  0.7546771E-02  0.1160198E+00
         21   -1    0    0  502  501  0.00000000000E+00  0.00000000000E+00  0.42401312562E+02  0.42401312562E+02  0.00000000000E+00 0. -1.
         21   -1    0    0  501  502 -0.00000000000E+00 -0.00000000000E+00 -0.83432806056E+03  0.83432806056E+03  0.00000000000E+00 0. -1.
         25    1    1    2    0    0 -0.22086972983E+02 -0.13016094069E+03 -0.28365833494E+03  0.33692247749E+03  0.12500000000E+03 0.  0.
         25    1    1    2    0    0  0.22086972983E+02  0.13016094069E+03 -0.50826841306E+03  0.53980689563E+03  0.12500000000E+03 0.  0.
</event>
<event>
 4    0  0.2239279E-002  0.1497630E+03  0.7546771E-02  0.1200765E+00
         21   -1    0    0  502  501  0.00000000000E+00  0.00000000000E+00  0.40016759988E+03  0.40016759988E+03  0.00000000000E+00 0. -1.
         21   -1    0    0  501  502 -0.00000000000E+00 -0.00000000000E+00 -0.56048910020E+02  0.56048910020E+02  0.00000000000E+00 0. -1.
         25    1    1    2    0    0 -0.40726753862E+02 -0.39502861075E+02  0.26325407148E+03  0.29689535305E+03  0.12500000000E+03 0.  0.
         25    1    1    2    0    0  0.40726753862E+02  0.39502861075E+02  0.80864618379E+02  0.15932115685E+03  0.12500000000E+03 0.  0.
</event>
<event>
 4    0  0.2239279E-002  0.1602305E+03  0.7546771E-02  0.1188437E+00
         21   -1    0    0  502  501  0.00000000000E+00  0.00000000000E+00  0.56741198540E+03  0.56741198540E+03  0.00000000000E+00 0.  1.
         21   -1    0    0  501  502 -0.00000000000E+00 -0.00000000000E+00 -0.45247244667E+02  0.45247244667E+02  0.00000000000E+00 0.  1.
         25    1    1    2    0    0  0.83043860140E+02  0.28605156633E+02  0.16871444623E+03  0.22760514506E+03  0.12500000000E+03 0.  0.
         25    1    1    2    0    0 -0.83043860140E+02 -0.28605156633E+02  0.35345029451E+03  0.38505408501E+03  0.12500000000E+03 0.  0.
</event>
<event>
 4    0  0.2239279E-002  0.2194733E+03  0.7546771E-02  0.1134276E+00
         21   -1    0    0  502  501  0.00000000000E+00  0.00000000000E+00  0.26147507515E+03  0.26147507515E+03  0.00000000000E+00 0. -1.
         21   -1    0    0  501  502 -0.00000000000E+00 -0.00000000000E+00 -0.18421846890E+03  0.18421846890E+03  0.00000000000E+00 0. -1.
         25    1    1    2    0    0 -0.90466008034E+02  0.86340481916E+02 -0.93388474287E+02  0.19996295796E+03  0.12500000000E+03 0.  0.
         25    1    1    2    0    0  0.90466008034E+02 -0.86340481916E+02  0.17064508054E+03  0.24573058609E+03  0.12500000000E+03 0.  0.
</event>
<event>
 4    0  0.2239279E-002  0.2303231E+03  0.7546771E-02  0.1126413E+00
         21   -1    0    0  502  501  0.00000000000E+00  0.00000000000E+00  0.15871808619E+03  0.15871808619E+03  0.00000000000E+00 0.  1.
         21   -1    0    0  501  502 -0.00000000000E+00 -0.00000000000E+00 -0.33423242278E+03  0.33423242278E+03  0.00000000000E+00 0.  1.
         25    1    1    2    0    0  0.13142486360E+03  0.66468116068E+02 -0.22198565886E+03  0.29426712009E+03  0.12500000000E+03 0.  0.
         25    1    1    2    0    0 -0.13142486360E+03 -0.66468116068E+02  0.46471322263E+02  0.19868338888E+03  0.12500000000E+03 0.  0.
</event>
<event>
 4    0  0.2239279E-002  0.1936199E+03  0.7546771E-02  0.1155236E+00
         21   -1    0    0  502  501  0.00000000000E+00  0.00000000000E+00  0.60250156306E+02  0.60250156306E+02  0.00000000000E+00 0.  1.
         21   -1    0    0  501  502 -0.00000000000E+00 -0.00000000000E+00 -0.62221671922E+03  0.62221671922E+03  0.00000000000E+00 0.  1.
         25    1    1    2    0    0  0.57061533894E+02  0.95349124205E+02 -0.10906067424E+03  0.19966648393E+03  0.12500000000E+03 0.  0.
         25    1    1    2    0    0 -0.57061533894E+02 -0.95349124205E+02 -0.45290588867E+03  0.48280039160E+03  0.12500000000E+03 0.  0.
</event>
<event>
 4    0  0.2239279E-002  0.1338353E+03  0.7546771E-02  0.1221873E+00
         21   -1    0    0  502  501  0.00000000000E+00  0.00000000000E+00  0.81925340471E+01  0.81925340471E+01  0.00000000000E+00 0.  1.
         21   -1    0    0  501  502 -0.00000000000E+00 -0.00000000000E+00 -0.21863668658E+04  0.21863668658E+04  0.00000000000E+00 0.  1.
         25    1    1    2    0    0  0.24631725374E+02  0.60674576345E+01 -0.14214493526E+04  0.14271603967E+04  0.12500000000E+03 0.  0.
         25    1    1    2    0    0 -0.24631725374E+02 -0.60674576345E+01 -0.75672497909E+03  0.76739900307E+03  0.12500000000E+03 0.  0.
</event>
<event>
 4    0  0.2239279E-002  0.1769554E+03  0.7546771E-02  0.1170783E+00
         21   -1    0    0  502  501  0.00000000000E+00  0.00000000000E+00  0.53048245890E+02  0.53048245890E+02  0.00000000000E+00 0.  1.
         21   -1    0    0  501  502 -0.00000000000E+00 -0.00000000000E+00 -0.59027819969E+03  0.59027819969E+03  0.00000000000E+00 0.  1.
         25    1    1    2    0    0 -0.31219399092E+02 -0.12044192197E+03 -0.24244197425E+03  0.29980663490E+03  0.12500000000E+03 0.  0.
         25    1    1    2    0    0  0.31219399092E+02  0.12044192197E+03 -0.29478797955E+03  0.34351981069E+03  0.12500000000E+03 0.  0.
</event>
<event>
 4    0  0.2239279E-002  0.2399635E+03  0.7546771E-02  0.1119817E+00
         21   -1    0    0  502  501  0.00000000000E+00  0.00000000000E+00  0.16998825481E+03  0.16998825481E+03  0.00000000000E+00 0.  1.
         21   -1    0    0  501  502 -0.00000000000E+00 -0.00000000000E+00 -0.33874378424E+03  0.33874378424E+03  0.00000000000E+00 0.  1.
         25    1    1    2    0    0 -0.13338354805E+03  0.70412272240E+02 -0.23129056242E+03  0.30309962593E+03  0.12500000000E+03 0.  0.
         25    1    1    2    0    0  0.13338354805E+03 -0.70412272240E+02  0.62535032987E+02  0.20563241312E+03  0.12500000000E+03 0.  0.
</event>
<event>
 4    0  0.2239279E-002  0.2382977E+03  0.7546771E-02  0.1120932E+00
         21   -1    0    0  502  501  0.00000000000E+00  0.00000000000E+00  0.32377267892E+03  0.32377267892E+03  0.00000000000E+00 0.  1.
         21   -1    0    0  501  502 -0.00000000000E+00 -0.00000000000E+00 -0.17538788821E+03  0.17538788821E+03  0.00000000000E+00 0.  1.
         25    1    1    2    0    0 -0.12259557162E+03 -0.39781783855E+02  0.23829037189E+03  0.29836146843E+03  0.12500000000E+03 0.  0.
         25    1    1    2    0    0  0.12259557162E+03  0.39781783855E+02 -0.89905581182E+02  0.20079909869E+03  0.12500000000E+03 0.  0.
</event>
<event>
 4    0  0.2239279E-002  0.2495939E+03  0.7546771E-02  0.1113562E+00
         21   -1    0    0  502  501  0.00000000000E+00  0.00000000000E+00  0.14776866188E+04  0.14776866188E+04  0.00000000000E+00 0.  1.
         21   -1    0    0  501  502 -0.00000000000E+00 -0.00000000000E+00 -0.42158529846E+02  0.42158529846E+02  0.00000000000E+00 0.  1.
         25    1    1    2    0    0 -0.17097284469E+03 -0.12710175975E+03  0.60860100479E+03  0.65681561643E+03  0.12500000000E+03 0.  0.
         25    1    1    2    0    0  0.17097284469E+03  0.12710175975E+03  0.82692708411E+03  0.86302953217E+03  0.12500000000E+03 0.  0.
</event>
<event>
 4    0  0.2239279E-002  0.2002331E+03  0.7546771E-02  0.1149542E+00
         21   -1    0    0  502  501  0.00000000000E+00  0.00000000000E+00  0.11239435525E+03  0.11239435525E+03  0.00000000000E+00 0.  1.
         21   -1    0    0  501  502 -0.00000000000E+00 -0.00000000000E+00 -0.35671981238E+03  0.35671981238E+03  0.00000000000E+00 0.  1.
         25    1    1    2    0    0 -0.13755499799E+03 -0.53409747932E+02 -0.18296738596E+03  0.26622554906E+03  0.12500000000E+03 0.  0.
         25    1    1    2    0    0  0.13755499799E+03  0.53409747932E+02 -0.61358071178E+02  0.20288861857E+03  0.12500000000E+03 0.  0.
</event>
<event>
 4    0  0.2239279E-002  0.2319969E+03  0.7546771E-02  0.1125242E+00
         21   -1    0    0  502  501  0.00000000000E+00  0.00000000000E+00  0.27677940652E+03  0.27677940652E+03  0.00000000000E+00 0. -1.
         21   -1    0    0  501  502 -0.00000000000E+00 -0.00000000000E+00 -0.19446011918E+03  0.19446011918E+03  0.00000000000E+00 0. -1.
         25    1    1    2    0    0  0.13728323887E+03  0.25058595333E+01 -0.10009713940E+03  0.21094407866E+03  0.12500000000E+03 0.  0.
         25    1    1    2    0    0 -0.13728323887E+03 -0.25058595333E+01  0.18241642673E+03  0.26029544704E+03  0.12500000000E+03 0.  0.
</event>
<event>
 4    0  0.2239279E-002  0.1682304E+03  0.7546771E-02  0.1179706E+00
         21   -1    0    0  502  501  0.00000000000E+00  0.00000000000E+00  0.15129756142E+02  0.15129756142E+02  0.00000000000E+00 0. -1.
         21   -1    0    0  501  502 -0.00000000000E+00 -0.00000000000E+00 -0.18705839251E+04  0.18705839251E+04  0.00000000000E+00 0. -1.
         25    1    1    2    0    0  0.75464054458E+02  0.52859900368E+02 -0.12904023016E+04  0.12997123115E+04  0.12500000000E+03 0.  0.
         25    1    1    2    0    0 -0.75464054458E+02 -0.52859900368E+02 -0.56505186733E+03  0.58600136976E+03  0.12500000000E+03 0.  0.
</event>
<event>
 4    0  0.2239279E-002  0.2341309E+03  0.7546771E-02  0.1123766E+00
         21   -1    0    0  502  501  0.00000000000E+00  0.00000000000E+00  0.72644565153E+03  0.72644565153E+03  0.00000000000E+00 0.  1.
         21   -1    0    0  501  502 -0.00000000000E+00 -0.00000000000E+00 -0.75459573444E+02  0.75459573444E+02  0.00000000000E+00 0.  1.
         25    1    1    2    0    0  0.29683352992E+02 -0.17879383453E+03  0.18909317987E+03  0.29022330607E+03  0.12500000000E+03 0.  0.
         25    1    1    2    0    0 -0.29683352992E+02  0.17879383453E+03  0.46189289821E+03  0.51168191890E+03  0.12500000000E+03 0.  0.
</event>
<event>
 4    0  0.2239279E-002  0.1557578E+03  0.7546771E-02  0.1193571E+00
         21   -1    0    0  502  501  0.00000000000E+00  0.00000000000E+00  0.63187611393E+03  0.63187611393E+03  0.00000000000E+00 0.  1.
         21   -1    0    0  501  502 -0.00000000000E+00 -0.00000000000E+00 -0.38394357821E+02  0.38394357821E+02  0.00000000000E+00 0.  1.
         25    1    1    2    0    0 -0.31299489106E+02 -0.86538769967E+02  0.26894709279E+03  0.31052561158E+03  0.12500000000E+03 0.  0.
         25    1    1    2    0    0  0.31299489106E+02  0.86538769967E+02  0.32453466332E+03  0.35974486018E+03  0.12500000000E+03 0.  0.
</event>
<event>
 4    0  0.2239279E-002  0.2098418E+03  0.7546771E-02  0.1141691E+00
         21   -1    0    0  502  501  0.00000000000E+00  0.00000000000E+00  0.36335716107E+03  0.36335716107E+03  0.00000000000E+00 0.  1.
         21   -1    0    0  501  502 -0.00000000000E+00 -0.00000000000E+00 -0.12118535780E+03  0.12118535780E+03  0.00000000000E+00 0.  1.
         25    1    1    2    0    0  0.14156957151E+02 -0.12515887604E+03 -0.82197965367E+01  0.17764495136E+03  0.12500000000E+03 0.  0.
         25    1    1    2    0    0 -0.14156957151E+02  0.12515887604E+03  0.25039159981E+03  0.30689756751E+03  0.12500000000E+03 0.  0.
</event>
<event>
 4    0  0.2239279E-002  0.1916619E+03  0.7546771E-02  0.1156971E+00
         21   -1    0    0  502  501  0.00000000000E+00  0.00000000000E+00  0.14586208196E+03  0.14586208196E+03  0.00000000000E+00 0. -1.
         21   -1    0    0  501  502 -0.00000000000E+00 -0.00000000000E+00 -0.25184269143E+03  0.25184269143E+03  0.00000000000E+00 0. -1.
         25    1    1    2    0    0  0.58285611252E+02 -0.62177785469E+02 -0.17507388171E+03  0.23138529241E+03  0.12500000000E+03 0.  0.
         25    1    1    2    0    0 -0.58285611252E+02  0.62177785469E+02  0.69093272247E+02  0.16631948098E+03  0.12500000000E+03 0.  0.
</event>
<event>
 4    0  0.2239279E-002  0.2770275E+03  0.7546771E-02  0.1097324E+00
         21   -1    0    0  502  501  0.00000000000E+00  0.00000000000E+00  0.21213748565E+03  0.21213748565E+03  0.00000000000E+00 0. -1.
         21   -1    0    0  501  502 -0.00000000000E+00 -0.00000000000E+00 -0.36176657840E+03  0.36176657840E+03  0.00000000000E+00 0. -1.
         25    1    1    2    0    0 -0.37000537655E+02  0.18499528028E+03  0.90680848589E+02  0.24380383470E+03  0.12500000000E+03 0.  0.
         25    1    1    2    0    0  0.37000537655E+02 -0.18499528028E+03 -0.24030994133E+03  0.33010022935E+03  0.12500000000E+03 0.  0.
</event>
<event>
 4    0  0.2239279E-002  0.1640509E+03  0.7546771E-02  0.1184198E+00
         21   -1    0    0  502  501  0.00000000000E+00  0.00000000000E+00  0.14549079096E+03  0.14549079096E+03  0.00000000000E+00 0. -1.
         21   -1    0    0  501  502 -0.00000000000E+00 -0.00000000000E+00 -0.18497872770E+03  0.18497872770E+03  0.00000000000E+00 0. -1.
         25    1    1    2    0    0 -0.50376895113E+02  0.42582355531E+02 -0.10363132189E+03  0.17525849320E+03  0.12500000000E+03 0.  0.
         25    1    1    2    0    0  0.50376895113E+02 -0.42582355531E+02  0.64143385152E+02  0.15521102545E+03  0.12500000000E+03 0.  0.
</event>
<event>
 4    0  0.2239279E-002  0.2832704E+03  0.7546771E-02  0.1093916E+00
         21   -1    0    0  502  501  0.00000000000E+00  0.00000000000E+00  0.10713090215E+03  0.10713090215E+03  0.00000000000E+00 0. -1.
         21   -1    0    0  501  502 -0.00000000000E+00 -0.00000000000E+00 -0.74900986455E+03  0.74900986455E+03  0.00000000000E+00 0. -1.
         25    1    1    2    0    0 -0.13910197149E+03 -0.21276134446E+03 -0.32003993394E+03  0.42739596101E+03  0.12500000000E+03 0.  0.
         25    1    1    2    0    0  0.13910197149E+03  0.21276134446E+03 -0.32183902846E+03  0.42874480569E+03  0.12500000000E+03 0.  0.
</event>
<event>
 4    0  0.2239279E-002  0.2367041E+03  0.7546771E-02  0.1122008E+00
         21   -1    0    0  502  501  0.00000000000E+00  0.00000000000E+00  0.16791441245E+03  0.16791441245E+03  0.00000000000E+00 0. -1.
         21   -1    0    0  501  502 -0.00000000000E+00 -0.00000000000E+00 -0.33367507180E+03  0.33367507180E+03  0.00000000000E+00 0. -1.
         25    1    1    2    0    0  0.13691306927E+03  0.14586628930E+03 -0.10358023546E+03  0.25763545577E+03  0.12500000000E+03 0.  0.
         25    1    1    2    0    0 -0.13691306927E+03 -0.14586628930E+03 -0.62180423888E+02  0.24395402847E+03  0.12500000000E+03 0.  0.
</event>
<event>
 4    0  0.2239279E-002  0.2267932E+03  0.7546771E-02  0.1128917E+00
         21   -1    0    0  502  501  0.00000000000E+00  0.00000000000E+00  0.31857315512E+03  0.31857315512E+03  0.00000000000E+00 0. -1.
         21   -1    0    0  501  502 -0.00000000000E+00 -0.00000000000E+00 -0.16145480001E+03  0.16145480001E+03  0.00000000000E+00 0. -1.
         25    1    1    2    0    0  0.11995994186E+03 -0.10758319704E+03 -0.26450249625E+02  0.20564325333E+03  0.12500000000E+03 0.  0.
         25    1    1    2    0    0 -0.11995994186E+03  0.10758319704E+03  0.18356860473E+03  0.27438470179E+03  0.12500000000E+03 0.  0.
</event>
<event>
 4    0  0.2239279E-002  0.1748520E+03  0.7546771E-02  0.1172880E+00
         21   -1    0    0  502  501  0.00000000000E+00  0.00000000000E+00  0.12161676570E+03  0.12161676570E+03  0.00000000000E+00 0.  1.
         21   -1    0    0  501  502 -0.00000000000E+00 -0.00000000000E+00 -0.25138998011E+03  0.25138998011E+03  0.00000000000E+00 0.  1.
         25    1    1    2    0    0  0.34509576412E+02  0.63572086254E+02  0.40250940680E+02  0.14992484531E+03  0.12500000000E+03 0.  0.
         25    1    1    2    0    0 -0.34509576412E+02 -0.63572086254E+02 -0.17002415509E+03  0.22308190050E+03  0.12500000000E+03 0.  0.
</event>
<event>
 4    0  0.2239279E-002  0.2124465E+03  0.7546771E-02  0.1139643E+00
         21   -1    0    0  502  501  0.00000000000E+00  0.00000000000E+00  0.54865910799E+02  0.54865910799E+02  0.00000000000E+00 0. -1.
         21   -1    0    0  501  502 -0.00000000000E+00 -0.00000000000E+00 -0.82261507194E+03  0.82261507194E+03  0.00000000000E+00 0. -1.
         25    1    1    2    0    0  0.50983278618E+02 -0.16343652592E+03 -0.35483454986E+03  0.41333200999E+03  0.12500000000E+03 0.  0.
         25    1    1    2    0    0 -0.50983278618E+02  0.16343652592E+03 -0.41291461128E+03  0.46414897276E+03  0.12500000000E+03 0.  0.
</event>
<event>
 4    0  0.2239279E-002  0.2400746E+03  0.7546771E-02  0.1119743E+00
         21   -1    0    0  502  501  0.00000000000E+00  0.00000000000E+00  0.24758604192E+03  0.24758604192E+03  0.00000000000E+00 0. -1.
         21   -1    0    0  501  502 -0.00000000000E+00 -0.00000000000E+00 -0.23279109956E+03  0.23279109956E+03  0.00000000000E+00 0.  1.
         25    1    1    2    0    0  0.66498175920E+02 -0.13438627837E+03  0.14721052405E+03  0.24449461672E+03  0.12500000000E+03 0.  0.
         25    1    1    2    0    0 -0.66498175920E+02  0.13438627837E+03 -0.13241558169E+03  0.23588252476E+03  0.12500000000E+03 0.  0.
</event>
<event>
 4    0  0.2239279E-002  0.4027147E+03  0.7546771E-02  0.1042844E+00
         21   -1    0    0  502  501  0.00000000000E+00  0.00000000000E+00  0.42786425123E+03  0.42786425123E+03  0.00000000000E+00 0. -1.
         21   -1    0    0  501  502 -0.00000000000E+00 -0.00000000000E+00 -0.37904340486E+03  0.37904340486E+03  0.00000000000E+00 0. -1.
         25    1    1    2    0    0 -0.44506562340E+02  0.78779753667E+02  0.39707034693E+03  0.42600110808E+03  0.12500000000E+03 0.  0.
         25    1    1    2    0    0  0.44506562340E+02 -0.78779753667E+02 -0.34824950055E+03  0.38090654801E+03  0.12500000000E+03 0.  0.
</event>
<event>
 4    0  0.2239279E-002  0.2467191E+03  0.7546771E-02  0.1115396E+00
         21   -1    0    0  502  501  0.00000000000E+00  0.00000000000E+00  0.13047782551E+03  0.13047782551E+03  0.00000000000E+00 0.  1.
         21   -1    0    0  501  502 -0.00000000000E+00 -0.00000000000E+00 -0.46651847992E+03  0.46651847992E+03  0.00000000000E+00 0.  1.
         25    1    1    2    0    0  0.33534523997E+02  0.16306740985E+03 -0.32820723021E+03  0.38866506200E+03  0.12500000000E+03 0.  0.
         25    1    1    2    0    0 -0.33534523997E+02 -0.16306740985E+03 -0.78334242098E+01  0.20833124343E+03  0.12500000000E+03 0.  0.
</event>
<event>
 4    0  0.2239279E-002  0.2239419E+03  0.7546771E-02  0.1130978E+00
         21   -1    0    0  502  501  0.00000000000E+00  0.00000000000E+00  0.44317325460E+02  0.44317325460E+02  0.00000000000E+00 0.  1.
         21   -1    0    0  501  502 -0.00000000000E+00 -0.00000000000E+00 -0.11316111901E+04  0.11316111901E+04  0.00000000000E+00 0.  1.
         25    1    1    2    0    0 -0.85050893329E+01  0.13721193557E+03 -0.87184265065E+03  0.89142249203E+03  0.12500000000E+03 0.  0.
         25    1    1    2    0    0  0.85050893329E+01 -0.13721193557E+03 -0.21545121394E+03  0.28450602348E+03  0.12500000000E+03 0.  0.
</event>
<event>
 4    0  0.2239279E-002  0.2014824E+03  0.7546771E-02  0.1148494E+00
         21   -1    0    0  502  501  0.00000000000E+00  0.00000000000E+00  0.17167188570E+03  0.17167188570E+03  0.00000000000E+00 0.  1.
         21   -1    0    0  501  502 -0.00000000000E+00 -0.00000000000E+00 -0.23646955023E+03  0.23646955023E+03  0.00000000000E+00 0.  1.
         25    1    1    2    0    0  0.81519643924E+02 -0.13413300609E+03 -0.13914516383E+02  0.20113609679E+03  0.12500000000E+03 0.  0.
         25    1    1    2    0    0 -0.81519643924E+02  0.13413300609E+03 -0.50883148150E+02  0.20700533914E+03  0.12500000000E+03 0.  0.
</event>
<event>
 4    0  0.2239279E-002  0.1999894E+03  0.7546771E-02  0.1149748E+00
         21   -1    0    0  502  501  0.00000000000E+00  0.00000000000E+00  0.42953350273E+02  0.42953350273E+02  0.00000000000E+00 0.  1.
         21   -1    0    0  501  502 -0.00000000000E+00 -0.00000000000E+00 -0.93114427176E+03  0.93114427176E+03  0.00000000000E+00 0.  1.
         25    1    1    2    0    0 -0.13246536367E+03  0.77185035964E+01 -0.64439090505E+03  0.66967998804E+03  0.12500000000E+03 0.  0.
         25    1    1    2    0    0  0.13246536367E+03 -0.77185035964E+01 -0.24380001643E+03  0.30441763399E+03  0.12500000000E+03 0.  0.
</event>
<event>
 4    0  0.2239279E-002  0.1877001E+03  0.7546771E-02  0.1160552E+00
         21   -1    0    0  502  501  0.00000000000E+00  0.00000000000E+00  0.46767976649E+03  0.46767976649E+03  0.00000000000E+00 0. -1.
         21   -1    0    0  501  502 -0.00000000000E+00 -0.00000000000E+00 -0.75332168707E+02  0.75332168707E+02  0.00000000000E+00 0. -1.
         25    1    1    2    0    0 -0.70331503744E+02  0.93078049022E+02  0.30818361275E+03  0.35243748779E+03  0.12500000000E+03 0.  0.
         25    1    1    2    0    0  0.70331503744E+02 -0.93078049022E+02  0.84163985028E+02  0.19057444741E+03  0.12500000000E+03 0.  0.
</event>
<event>
 4    0  0.2239279E-002  0.2497827E+03  0.7546771E-02  0.1113442E+00
         21   -1    0    0  502  501  0.00000000000E+00  0.00000000000E+00  0.86466150758E+02  0.86466150758E+02  0.00000000000E+00 0.  1.
         21   -1    0    0  501  502 -0.00000000000E+00 -0.00000000000E+00 -0.72156998759E+03  0.72156998759E+03  0.00000000000E+00 0. -1.
         25    1    1    2    0    0 -0.79385939396E+02  0.17376373528E+03 -0.15363170221E+03  0.27517932879E+03  0.12500000000E+03 0.  0.
         25    1    1    2    0    0  0.79385939396E+02 -0.17376373528E+03 -0.48147213463E+03  0.53285680956E+03  0.12500000000E+03 0.  0.
</event>
<event>
 4    0  0.2239279E-002  0.2691510E+03  0.7546771E-02  0.1101767E+00
         21   -1    0    0  502  501  0.00000000000E+00  0.00000000000E+00  0.11038792509E+03  0.11038792509E+03  0.00000000000E+00 0.  1.
         21   -1    0    0  501  502 -0.00000000000E+00 -0.00000000000E+00 -0.65625158285E+03  0.65625158285E+03  0.00000000000E+00 0.  1.
         25    1    1    2    0    0  0.11539159340E+03  0.14947120284E+03 -0.48010192628E+03  0.53082927569E+03  0.12500000000E+03 0.  0.
         25    1    1    2    0    0 -0.11539159340E+03 -0.14947120284E+03 -0.65761731481E+02  0.23581023225E+03  0.12500000000E+03 0.  0.
</event>
<event>
 4    0  0.2239279E-002  0.2632158E+03  0.7546771E-02  0.1105226E+00
         21   -1    0    0  502  501  0.00000000000E+00  0.00000000000E+00  0.66021150113E+02  0.66021150113E+02  0.00000000000E+00 0.  1.
         21   -1    0    0  501  502 -0.00000000000E+00 -0.00000000000E+00 -0.10493993689E+04  0.10493993689E+04  0.00000000000E+00 0. -1.
         25    1    1    2    0    0 -0.20473886092E+03  0.98602874027E+02 -0.58684865664E+03  0.64160492029E+03  0.12500000000E+03 0.  0.
         25    1    1    2    0    0  0.20473886092E+03 -0.98602874027E+02 -0.39652956215E+03  0.47381559873E+03  0.12500000000E+03 0.  0.
</event>
<event>
 4    0  0.2239279E-002  0.3437303E+03  0.7546771E-02  0.1065218E+00
         21   -1    0    0  502  501  0.00000000000E+00  0.00000000000E+00  0.51152865422E+03  0.51152865422E+03  0.00000000000E+00 0. -1.
         21   -1    0    0  501  502 -0.00000000000E+00 -0.00000000000E+00 -0.23097530434E+03  0.23097530434E+03  0.00000000000E+00 0. -1.
         25    1    1    2    0    0 -0.70538012285E+02 -0.11600074576E+03 -0.17293126079E+03  0.25290710775E+03  0.12500000000E+03 0.  0.
         25    1    1    2    0    0  0.70538012285E+02  0.11600074576E+03  0.45348461067E+03  0.48959685080E+03  0.12500000000E+03 0.  0.
</event>
<event>
 4    0  0.2239279E-002  0.2401541E+03  0.7546771E-02  0.1119690E+00
         21   -1    0    0  502  501  0.00000000000E+00  0.00000000000E+00  0.71474024622E+02  0.71474024622E+02  0.00000000000E+00 0.  1.
         21   -1    0    0  501  502 -0.00000000000E+00 -0.00000000000E+00 -0.80692263606E+03  0.80692263606E+03  0.00000000000E+00 0.  1.
         25    1    1    2    0    0  0.12156118360E+02  0.13282826995E+03 -0.65256176570E+03  0.67768206304E+03  0.12500000000E+03 0.  0.
         25    1    1    2    0    0 -0.12156118360E+02 -0.13282826995E+03 -0.82886845739E+02  0.20071459764E+03  0.12500000000E+03 0.  0.
</event>
<event>
 4    0  0.2239279E-002  0.3096892E+03  0.7546771E-02  0.1080495E+00
         21   -1    0    0  502  501  0.00000000000E+00  0.00000000000E+00  0.36118926455E+03  0.36118926455E+03  0.00000000000E+00 0. -1.
         21   -1    0    0  501  502 -0.00000000000E+00 -0.00000000000E+00 -0.26553219697E+03  0.26553219697E+03  0.00000000000E+00 0. -1.
         25    1    1    2    0    0 -0.20378498272E+03  0.79723419413E+02  0.22995759270E+03  0.34115925493E+03  0.12500000000E+03 0.  0.
         25    1    1    2    0    0  0.20378498272E+03 -0.79723419413E+02 -0.13430052512E+03  0.28556220659E+03  0.12500000000E+03 0.  0.
</event>
<event>
 4    0  0.2239279E-002  0.2158309E+03  0.7546771E-02  0.1137030E+00
         21   -1    0    0  502  501  0.00000000000E+00  0.00000000000E+00  0.34621090190E+03  0.34621090190E+03  0.00000000000E+00 0.  1.
         21   -1    0    0  501  502 -0.00000000000E+00 -0.00000000000E+00 -0.13455082536E+03  0.13455082536E+03  0.00000000000E+00 0.  1.
         25    1    1    2    0    0 -0.13765931706E+03 -0.10957904200E+03  0.10644872274E+03  0.24065324555E+03  0.12500000000E+03 0.  0.
         25    1    1    2    0    0  0.13765931706E+03  0.10957904200E+03  0.10521135381E+03  0.24010848171E+03  0.12500000000E+03 0.  0.
</event>
<event>
 4    0  0.2239279E-002  0.2387203E+03  0.7546771E-02  0.1120648E+00
         21   -1    0    0  502  501  0.00000000000E+00  0.00000000000E+00  0.26338653767E+03  0.26338653767E+03  0.00000000000E+00 0. -1.
         21   -1    0    0  501  502 -0.00000000000E+00 -0.00000000000E+00 -0.21636403987E+03  0.21636403987E+03  0.00000000000E+00 0. -1.
         25    1    1    2    0    0 -0.73791081067E+02  0.15794769289E+03 -0.81732207413E+02  0.22955990735E+03  0.12500000000E+03 0.  0.
         25    1    1    2    0    0  0.73791081067E+02 -0.15794769289E+03  0.12875470521E+03  0.25019067019E+03  0.12500000000E+03 0.  0.
</event>
<event>
 4    0  0.2239279E-002  0.1890263E+03  0.7546771E-02  0.1159343E+00
         21   -1    0    0  502  501  0.00000000000E+00  0.00000000000E+00  0.21396983237E+03  0.21396983237E+03  0.00000000000E+00 0. -1.
         21   -1    0    0  501  502 -0.00000000000E+00 -0.00000000000E+00 -0.16699052928E+03  0.16699052928E+03  0.00000000000E+00 0. -1.
         25    1    1    2    0    0 -0.26881161924E+02  0.12106179399E+03  0.92774439307E+02  0.19902424832E+03  0.12500000000E+03 0.  0.
         25    1    1    2    0    0  0.26881161924E+02 -0.12106179399E+03 -0.45795136218E+02  0.18193611333E+03  0.12500000000E+03 0.  0.
</event>
<event>
 4    0  0.2239279E-002  0.2699096E+03  0.7546771E-02  0.1101331E+00
         21   -1    0    0  502  501  0.00000000000E+00  0.00000000000E+00  0.24775554553E+04  0.24775554553E+04  0.00000000000E+00 0. -1.
         21   -1    0    0  501  502 -0.00000000000E+00 -0.00000000000E+00 -0.29404455548E+02  0.29404455548E+02  0.00000000000E+00 0. -1.
         25    1    1    2    0    0  0.22483501303E+02 -0.12992541675E+03  0.29711964050E+03  0.34826886528E+03  0.12500000000E+03 0.  0.
         25    1    1    2    0    0 -0.22483501303E+02  0.12992541675E+03  0.21510313592E+04  0.21586910455E+04  0.12500000000E+03 0.  0.
</event>
<event>
 4    0  0.2239279E-002  0.1428516E+03  0.7546771E-02  0.1209543E+00
         21   -1    0    0  502  501  0.00000000000E+00  0.00000000000E+00  0.12278388366E+04  0.12278388366E+04  0.00000000000E+00 0.  1.
         21   -1    0    0  501  502 -0.00000000000E+00 -0.00000000000E+00 -0.16619928200E+02  0.16619928200E+02  0.00000000000E+00 0.  1.
         25    1    1    2    0    0  0.51531835602E+02  0.12234161214E+02  0.41196662362E+03  0.43375880828E+03  0.12500000000E+03 0.  0.
         25    1    1    2    0    0 -0.51531835602E+02 -0.12234161214E+02  0.79925228481E+03  0.81069995655E+03  0.12500000000E+03 0.  0.
</event>
<event>
 4    0  0.2239279E-002  0.1995219E+03  0.7546771E-02  0.1150143E+00
         21   -1    0    0  502  501  0.00000000000E+00  0.00000000000E+00  0.57926367622E+02  0.57926367622E+02  0.00000000000E+00 0.  1.
         21   -1    0    0  501  502 -0.00000000000E+00 -0.00000000000E+00 -0.68723453347E+03  0.68723453347E+03  0.00000000000E+00 0.  1.
         25    1    1    2    0    0  0.13952834298E+02  0.15148222054E+03 -0.37494587478E+03  0.42349846958E+03  0.12500000000E+03 0.  0.
         25    1    1    2    0    0 -0.13952834298E+02 -0.15148222054E+03 -0.25436229107E+03  0.32166243151E+03  0.12500000000E+03 0.  0.
</event>
<event>
 4    0  0.2239279E-002  0.4285424E+03  0.7546771E-02  0.1034321E+00
         21   -1    0    0  502  501  0.00000000000E+00  0.00000000000E+00  0.23442033550E+04  0.23442033550E+04  0.00000000000E+00 0. -1.
         21   -1    0    0  501  502 -0.00000000000E+00 -0.00000000000E+00 -0.78341591546E+02  0.78341591546E+02  0.00000000000E+00 0.  1.
         25    1    1    2    0    0 -0.31521905154E+03  0.24848147324E+03  0.13680151121E+04  0.14311521373E+04  0.12500000000E+03 0.  0.
         25    1    1    2    0    0  0.31521905154E+03 -0.24848147324E+03  0.89784665136E+03  0.99139280931E+03  0.12500000000E+03 0.  0.
</event>
<event>
 4    0  0.2239279E-002  0.2213501E+03  0.7546771E-02  0.1132881E+00
         21   -1    0    0  502  501  0.00000000000E+00  0.00000000000E+00  0.61113949541E+02  0.61113949541E+02  0.00000000000E+00 0. -1.
         21   -1    0    0  501  502 -0.00000000000E+00 -0.00000000000E+00 -0.80171303430E+03  0.80171303430E+03  0.00000000000E+00 0. -1.
         25    1    1    2    0    0  0.15790160338E+03  0.48126833848E+02 -0.52279312454E+03  0.56230486353E+03  0.12500000000E+03 0.  0.
         25    1    1    2    0    0 -0.15790160338E+03 -0.48126833848E+02 -0.21780596022E+03  0.30052212031E+03  0.12500000000E+03 0.  0.
</event>
<event>
 4    0  0.2239279E-002  0.2543606E+03  0.7546771E-02  0.1110580E+00
         21   -1    0    0  502  501  0.00000000000E+00  0.00000000000E+00  0.14910074067E+04  0.14910074067E+04  0.00000000000E+00 0.  1.
         21   -1    0    0  501  502 -0.00000000000E+00 -0.00000000000E+00 -0.43393022810E+02  0.43393022810E+02  0.00000000000E+00 0.  1.
         25    1    1    2    0    0  0.38039293954E+02 -0.34296685962E+02  0.13738720876E+04  0.13804972885E+04  0.12500000000E+03 0.  0.
         25    1    1    2    0    0 -0.38039293954E+02  0.34296685962E+02  0.73742296361E+02  0.15390314105E+03  0.12500000000E+03 0.  0.
</event>
<event>
 4    0  0.2239279E-002  0.1966325E+03  0.7546771E-02  0.1152612E+00
         21   -1    0    0  502  501  0.00000000000E+00  0.00000000000E+00  0.12618969108E+03  0.12618969108E+03  0.00000000000E+00 0. -1.
         21   -1    0    0  501  502 -0.00000000000E+00 -0.00000000000E+00 -0.30639847030E+03  0.30639847030E+03  0.00000000000E+00 0. -1.
         25    1    1    2    0    0 -0.98265390034E+02  0.11199819217E+03 -0.12197846615E+03  0.22957227214E+03  0.12500000000E+03 0.  0.
         25    1    1    2    0    0  0.98265390034E+02 -0.11199819217E+03 -0.58230313068E+02  0.20301588925E+03  0.12500000000E+03 0.  0.
</event>
<event>
 4    0  0.2239279E-002  0.2235525E+03  0.7546771E-02  0.1131262E+00
         21   -1    0    0  502  501  0.00000000000E+00  0.00000000000E+00  0.14787317292E+04  0.14787317292E+04  0.00000000000E+00 0. -1.
         21   -1    0    0  501  502 -0.00000000000E+00 -0.00000000000E+00 -0.33796353514E+02  0.33796353514E+02  0.00000000000E+00 0. -1.
         25    1    1    2    0    0 -0.14153061497E+03  0.11467945658E+03  0.60683025493E+03  0.64579427919E+03  0.12500000000E+03 0.  0.
         25    1    1    2    0    0  0.14153061497E+03 -0.11467945658E+03  0.83810512078E+03  0.86673380355E+03  0.12500000000E+03 0.  0.
</event>
<event>
 4    0  0.2239279E-002  0.2762404E+03  0.7546771E-02  0.1097760E+00
         21   -1    0    0  502  501  0.00000000000E+00  0.00000000000E+00  0.98847770923E+03  0.98847770923E+03  0.00000000000E+00 0. -1.
         21   -1    0    0  501  502 -0.00000000000E+00 -0.00000000000E+00 -0.77198278496E+02  0.77198278496E+02  0.00000000000E+00 0. -1.
         25    1    1    2    0    0  0.12742446794E+02  0.24543847524E+03  0.48799468309E+03  0.56050533076E+03  0.12500000000E+03 0.  0.
         25    1    1    2    0    0 -0.12742446794E+02 -0.24543847524E+03  0.42328474764E+03  0.50517065697E+03  0.12500000000E+03 0.  0.
</event>
<event>
 4    0  0.2239279E-002  0.2098132E+03  0.7546771E-02  0.1141714E+00
         21   -1    0    0  502  501  0.00000000000E+00  0.00000000000E+00  0.23200721567E+03  0.23200721567E+03  0.00000000000E+00 0. -1.
         21   -1    0    0  501  502 -0.00000000000E+00 -0.00000000000E+00 -0.18974235997E+03  0.18974235997E+03  0.00000000000E+00 0. -1.
         25    1    1    2    0    0  0.14394169910E+03  0.44327649605E+02  0.97095534477E+02  0.21848729042E+03  0.12500000000E+03 0.  0.
         25    1    1    2    0    0 -0.14394169910E+03 -0.44327649605E+02 -0.54830678777E+02  0.20326228522E+03  0.12500000000E+03 0.  0.
</event>
<event>
 4    0  0.2239279E-002  0.2398121E+03  0.7546771E-02  0.1119918E+00
         21   -1    0    0  502  501  0.00000000000E+00  0.00000000000E+00  0.56074688617E+03  0.56074688617E+03  0.00000000000E+00 0.  1.
         21   -1    0    0  501  502 -0.00000000000E+00 -0.00000000000E+00 -0.10255937332E+03  0.10255937332E+03  0.00000000000E+00 0.  1.
         25    1    1    2    0    0  0.71216945457E+02 -0.55852760504E+01 -0.36140416660E+02  0.14843914021E+03  0.12500000000E+03 0.  0.
         25    1    1    2    0    0 -0.71216945457E+02  0.55852760504E+01  0.49432792951E+03  0.51486711929E+03  0.12500000000E+03 0.  0.
</event>
<event>
 4    0  0.2239279E-002  0.1829498E+03  0.7546771E-02  0.1164978E+00
         21   -1    0    0  502  501  0.00000000000E+00  0.00000000000E+00  0.86655256936E+03  0.86655256936E+03  0.00000000000E+00 0.  1.
         21   -1    0    0  501  502 -0.00000000000E+00 -0.00000000000E+00 -0.38625035080E+02  0.38625035080E+02  0.00000000000E+00 0.  1.
         25    1    1    2    0    0  0.11620571974E+03 -0.34573003785E+02  0.55273198670E+03  0.57951420259E+03  0.12500000000E+03 0.  0.
         25    1    1    2    0    0 -0.11620571974E+03  0.34573003785E+02  0.27519554758E+03  0.32566340185E+03  0.12500000000E+03 0.  0.
</event>
<event>
 4    0  0.2239279E-002  0.5738816E+03  0.7546771E-02  0.9961126E-01
         21   -1    0    0  502  501  0.00000000000E+00  0.00000000000E+00  0.80729162955E+03  0.80729162955E+03  0.00000000000E+00 0.  1.
         21   -1    0    0  501  502 -0.00000000000E+00 -0.00000000000E+00 -0.40795673023E+03  0.40795673023E+03  0.00000000000E+00 0.  1.
         25    1    1    2    0    0  0.33811504760E+03 -0.34466891173E+01  0.67244307751E+03  0.76297991951E+03  0.12500000000E+03 0.  0.
         25    1    1    2    0    0 -0.33811504760E+03  0.34466891173E+01 -0.27310817819E+03  0.45226844028E+03  0.12500000000E+03 0.  0.
</event>
<event>
 4    0  0.2239279E-002  0.2082022E+03  0.7546771E-02  0.1142998E+00
         21   -1    0    0  502  501  0.00000000000E+00  0.00000000000E+00  0.56760014748E+03  0.56760014748E+03  0.00000000000E+00 0. -1.
         21   -1    0    0  501  502 -0.00000000000E+00 -0.00000000000E+00 -0.76370942386E+02  0.76370942386E+02  0.00000000000E+00 0. -1.
         25    1    1    2    0    0  0.35561876244E+02  0.15981037580E+03  0.19872836263E+03  0.28622013445E+03  0.12500000000E+03 0.  0.
         25    1    1    2    0    0 -0.35561876244E+02 -0.15981037580E+03  0.29250084246E+03  0.35775095541E+03  0.12500000000E+03 0.  0.
</event>
<event>
 4    0  0.2239279E-002  0.1899968E+03  0.7546771E-02  0.1158464E+00
         21   -1    0    0  502  501  0.00000000000E+00  0.00000000000E+00  0.30955519155E+03  0.30955519155E+03  0.00000000000E+00 0.  1.
         21   -1    0    0  501  502 -0.00000000000E+00 -0.00000000000E+00 -0.11661497705E+03  0.11661497705E+03  0.00000000000E+00 0.  1.
         25    1    1    2    0    0 -0.65535199221E+02  0.25960955090E+02  0.23612040197E+03  0.27630902582E+03  0.12500000000E+03 0.  0.
         25    1    1    2    0    0  0.65535199221E+02 -0.25960955090E+02 -0.43180187457E+02  0.14986114278E+03  0.12500000000E+03 0.  0.
</event>
<event>
 4    0  0.2239279E-002  0.1772055E+03  0.7546771E-02  0.1170535E+00
         21   -1    0    0  502  501  0.00000000000E+00  0.00000000000E+00  0.55467719687E+02  0.55467719687E+02  0.00000000000E+00 0.  1.
         21   -1    0    0  501  502 -0.00000000000E+00 -0.00000000000E+00 -0.56612718457E+03  0.56612718457E+03  0.00000000000E+00 0.  1.
         25    1    1    2    0    0 -0.11746228393E+03 -0.41594539461E+02 -0.28302163682E+03  0.33354720920E+03  0.12500000000E+03 0.  0.
         25    1    1    2    0    0  0.11746228393E+03  0.41594539461E+02 -0.22763782807E+03  0.28804769506E+03  0.12500000000E+03 0.  0.
</event>
<event>
 4    0  0.2239279E-002  0.2012122E+03  0.7546771E-02  0.1148720E+00
         21   -1    0    0  502  501  0.00000000000E+00  0.00000000000E+00  0.18742770858E+03  0.18742770858E+03  0.00000000000E+00 0. -1.
         21   -1    0    0  501  502 -0.00000000000E+00 -0.00000000000E+00 -0.21601048348E+03  0.21601048348E+03  0.00000000000E+00 0. -1.
         25    1    1    2    0    0  0.53005669264E+02 -0.39979233562E+02 -0.15766709083E+03  0.21187697284E+03  0.12500000000E+03 0.  0.
         25    1    1    2    0    0 -0.53005669264E+02  0.39979233562E+02  0.12908431593E+03  0.19156121922E+03  0.12500000000E+03 0.  0.
</event>
<event>
 4    0  0.2239279E-002  0.3491314E+03  0.7546771E-02  0.1062972E+00
         21   -1    0    0  502  501  0.00000000000E+00  0.00000000000E+00  0.99700199047E+03  0.99700199047E+03  0.00000000000E+00 0.  1.
         21   -1    0    0  501  502 -0.00000000000E+00 -0.00000000000E+00 -0.12225925158E+03  0.12225925158E+03  0.00000000000E+00 0.  1.
         25    1    1    2    0    0 -0.21514198448E+03 -0.26984207827E+02  0.82755548101E+03  0.86457347583E+03  0.12500000000E+03 0.  0.
         25    1    1    2    0    0  0.21514198448E+03  0.26984207827E+02  0.47187257885E+02  0.25468776622E+03  0.12500000000E+03 0.  0.
</event>
<event>
 4    0  0.2239279E-002  0.2795963E+03  0.7546771E-02  0.1095910E+00
         21   -1    0    0  502  501  0.00000000000E+00  0.00000000000E+00  0.29528824230E+03  0.29528824230E+03  0.00000000000E+00 0. -1.
         21   -1    0    0  501  502 -0.00000000000E+00 -0.00000000000E+00 -0.26473829252E+03  0.26473829252E+03  0.00000000000E+00 0. -1.
         25    1    1    2    0    0  0.20883405006E+03  0.64016507743E+02  0.13727342582E+03  0.28666839233E+03  0.12500000000E+03 0.  0.
         25    1    1    2    0    0 -0.20883405006E+03 -0.64016507743E+02 -0.10672347604E+03  0.27335814249E+03  0.12500000000E+03 0.  0.
</event>
<event>
 4    0  0.2239279E-002  0.1668880E+03  0.7546771E-02  0.1181133E+00
         21   -1    0    0  502  501  0.00000000000E+00  0.00000000000E+00  0.23065491555E+03  0.23065491555E+03  0.00000000000E+00 0. -1.
         21   -1    0    0  501  502 -0.00000000000E+00 -0.00000000000E+00 -0.12075009226E+03  0.12075009226E+03  0.00000000000E+00 0. -1.
         25    1    1    2    0    0  0.83708896291E+02  0.34030201387E+02 -0.12142417426E+02  0.15471804105E+03  0.12500000000E+03 0.  0.
         25    1    1    2    0    0 -0.83708896291E+02 -0.34030201387E+02  0.12204724071E+03  0.19668696675E+03  0.12500000000E+03 0.  0.
</event>
<event>
 4    0  0.2239279E-002  0.1986439E+03  0.7546771E-02  0.1150888E+00
         21   -1    0    0  502  501  0.00000000000E+00  0.00000000000E+00  0.42606501364E+03  0.42606501364E+03  0.00000000000E+00 0.  1.
         21   -1    0    0  501  502 -0.00000000000E+00 -0.00000000000E+00 -0.92613565706E+02  0.92613565706E+02  0.00000000000E+00 0.  1.
         25    1    1    2    0    0  0.13881625039E+03  0.67238717682E+02  0.15812458451E+03  0.25380973338E+03  0.12500000000E+03 0.  0.
         25    1    1    2    0    0 -0.13881625039E+03 -0.67238717682E+02  0.17532686342E+03  0.26486884597E+03  0.12500000000E+03 0.  0.
</event>
<event>
 4    0  0.2239279E-002  0.2274760E+03  0.7546771E-02  0.1128429E+00
         21   -1    0    0  502  501  0.00000000000E+00  0.00000000000E+00  0.11414524832E+04  0.11414524832E+04  0.00000000000E+00 0.  1.
         21   -1    0    0  501  502 -0.00000000000E+00 -0.00000000000E+00 -0.45332867120E+02  0.45332867120E+02  0.00000000000E+00 0.  1.
         25    1    1    2    0    0 -0.88232549488E+02  0.11724527843E+03  0.86313744521E+03  0.88439961975E+03  0.12500000000E+03 0.  0.
         25    1    1    2    0    0  0.88232549488E+02 -0.11724527843E+03  0.23298217086E+03  0.30238573055E+03  0.12500000000E+03 0.  0.
</event>
<event>
 4    0  0.2239279E-002  0.2144206E+03  0.7546771E-02  0.1138112E+00
         21   -1    0    0  502  501  0.00000000000E+00  0.00000000000E+00  0.43634151192E+03  0.43634151192E+03  0.00000000000E+00 0.  1.
         21   -1    0    0  501  502 -0.00000000000E+00 -0.00000000000E+00 -0.10536744937E+03  0.10536744937E+03  0.00000000000E+00 0.  1.
         25    1    1    2    0    0 -0.24686614832E+02  0.72866351626E+02  0.36293438964E+03  0.39149113059E+03  0.12500000000E+03 0.  0.
         25    1    1    2    0    0  0.24686614832E+02 -0.72866351626E+02 -0.31960327098E+02  0.15021783070E+03  0.12500000000E+03 0.  0.
</event>
<event>
 4    0  0.2239279E-002  0.1750501E+03  0.7546771E-02  0.1172681E+00
         21   -1    0    0  502  501  0.00000000000E+00  0.00000000000E+00  0.26850848761E+03  0.26850848761E+03  0.00000000000E+00 0.  1.
         21   -1    0    0  501  502 -0.00000000000E+00 -0.00000000000E+00 -0.11412131444E+03  0.11412131444E+03  0.00000000000E+00 0.  1.
         25    1    1    2    0    0  0.26003343029E+01 -0.79188093217E+02 -0.24980969718E+02  0.15008852286E+03  0.12500000000E+03 0.  0.
         25    1    1    2    0    0 -0.26003343029E+01  0.79188093217E+02  0.17936814289E+03  0.23254127919E+03  0.12500000000E+03 0.  0.
</event>
<event>
 4    0  0.2239279E-002  0.1874035E+03  0.7546771E-02  0.1160824E+00
         21   -1    0    0  502  501  0.00000000000E+00  0.00000000000E+00  0.19141013307E+02  0.19141013307E+02  0.00000000000E+00 0.  1.
         21   -1    0    0  501  502 -0.00000000000E+00 -0.00000000000E+00 -0.18348066521E+04  0.18348066521E+04  0.00000000000E+00 0.  1.
         25    1    1    2    0    0 -0.11154405074E+03 -0.44639880038E+02 -0.55596750011E+03  0.58237415406E+03  0.12500000000E+03 0.  0.
         25    1    1    2    0    0  0.11154405074E+03  0.44639880038E+02 -0.12596981386E+04  0.12715735113E+04  0.12500000000E+03 0.  0.
</event>
<event>
 4    0  0.2239279E-002  0.2008784E+03  0.7546771E-02  0.1149000E+00
         21   -1    0    0  502  501  0.00000000000E+00  0.00000000000E+00  0.62655270194E+02  0.62655270194E+02  0.00000000000E+00 0.  1.
         21   -1    0    0  501  502 -0.00000000000E+00 -0.00000000000E+00 -0.64403439373E+03  0.64403439373E+03  0.00000000000E+00 0.  1.
         25    1    1    2    0    0  0.30456346471E+01 -0.46431819631E+02 -0.26476785616E+02  0.13598238835E+03  0.12500000000E+03 0.  0.
         25    1    1    2    0    0 -0.30456346471E+01  0.46431819631E+02 -0.55490233792E+03  0.57070727557E+03  0.12500000000E+03 0.  0.
</event>
<event>
 4    0  0.2239279E-002  0.1882149E+03  0.7546771E-02  0.1160081E+00
         21   -1    0    0  502  501  0.00000000000E+00  0.00000000000E+00  0.23706107621E+03  0.23706107621E+03  0.00000000000E+00 0.  1.
         21   -1    0    0  501  502 -0.00000000000E+00 -0.00000000000E+00 -0.14943342742E+03  0.14943342742E+03  0.00000000000E+00 0.  1.
         25    1    1    2    0    0 -0.34790891190E+02  0.18585644579E+02  0.18249565125E+03  0.22468977507E+03  0.12500000000E+03 0.  0.
         25    1    1    2    0    0  0.34790891190E+02 -0.18585644579E+02 -0.94868002464E+02  0.16180472856E+03  0.12500000000E+03 0.  0.
</event>
<event>
 4    0  0.2239279E-002  0.1537093E+03  0.7546771E-02  0.1195988E+00
         21   -1    0    0  502  501  0.00000000000E+00  0.00000000000E+00  0.33583717643E+02  0.33583717643E+02  0.00000000000E+00 0.  1.
         21   -1    0    0  501  502 -0.00000000000E+00 -0.00000000000E+00 -0.70351235667E+03  0.70351235667E+03  0.00000000000E+00 0.  1.
         25    1    1    2    0    0 -0.67571570878E+02 -0.50244771651E+02 -0.40733761093E+03  0.43432635604E+03  0.12500000000E+03 0.  0.
         25    1    1    2    0    0  0.67571570878E+02  0.50244771651E+02 -0.26259102810E+03  0.30276971828E+03  0.12500000000E+03 0.  0.
</event>
<event>
 4    0  0.2239279E-002  0.3854818E+03  0.7546771E-02  0.1048926E+00
         21   -1    0    0  502  501  0.00000000000E+00  0.00000000000E+00  0.62855419030E+03  0.62855419030E+03  0.00000000000E+00 0. -1.
         21   -1    0    0  501  502 -0.00000000000E+00 -0.00000000000E+00 -0.23640949789E+03  0.23640949789E+03  0.00000000000E+00 0. -1.
         25    1    1    2    0    0  0.21452406896E+03 -0.22409031735E+03 -0.18957606811E+02  0.33499468257E+03  0.12500000000E+03 0.  0.
         25    1    1    2    0    0 -0.21452406896E+03  0.22409031735E+03  0.41110229921E+03  0.52996900562E+03  0.12500000000E+03 0.  0.
</event>
<event>
 4    0  0.2239279E-002  0.1852688E+03  0.7546771E-02  0.1162799E+00
         21   -1    0    0  502  501  0.00000000000E+00  0.00000000000E+00  0.26092116058E+02  0.26092116058E+02  0.00000000000E+00 0.  1.
         21   -1    0    0  501  502 -0.00000000000E+00 -0.00000000000E+00 -0.13155129032E+04  0.13155129032E+04  0.00000000000E+00 0.  1.
         25    1    1    2    0    0 -0.13582242518E+03  0.15311049711E+02 -0.62962640088E+03  0.65630523700E+03  0.12500000000E+03 0.  0.
         25    1    1    2    0    0  0.13582242518E+03 -0.15311049711E+02 -0.65979438631E+03  0.68529978231E+03  0.12500000000E+03 0.  0.
</event>
<event>
 4    0  0.2239279E-002  0.2609393E+03  0.7546771E-02  0.1106580E+00
         21   -1    0    0  502  501  0.00000000000E+00  0.00000000000E+00  0.54136074831E+03  0.54136074831E+03  0.00000000000E+00 0. -1.
         21   -1    0    0  501  502 -0.00000000000E+00 -0.00000000000E+00 -0.12577439728E+03  0.12577439728E+03  0.00000000000E+00 0. -1.
         25    1    1    2    0    0 -0.91534997047E+02 -0.13245116096E+03 -0.47075299413E+00  0.20383127172E+03  0.12500000000E+03 0.  0.
         25    1    1    2    0    0  0.91534997047E+02  0.13245116096E+03  0.41605710403E+03  0.46330387386E+03  0.12500000000E+03 0.  0.
</event>
<event>
 4    0  0.2239279E-002  0.1927003E+03  0.7546771E-02  0.1156048E+00
         21   -1    0    0  502  501  0.00000000000E+00  0.00000000000E+00  0.28034887716E+04  0.28034887716E+04  0.00000000000E+00 0. -1.
         21   -1    0    0  501  502 -0.00000000000E+00 -0.00000000000E+00 -0.13245428710E+02  0.13245428710E+02  0.00000000000E+00 0. -1.
         25    1    1    2    0    0  0.14269892762E+03  0.26897549392E+02  0.15452501920E+04  0.15570836901E+04  0.12500000000E+03 0.  0.
         25    1    1    2    0    0 -0.14269892762E+03 -0.26897549392E+02  0.12449931509E+04  0.12596505102E+04  0.12500000000E+03 0.  0.
</event>
<event>
 4    0  0.2239279E-002  0.2112981E+03  0.7546771E-02  0.1140542E+00
         21   -1    0    0  502  501  0.00000000000E+00  0.00000000000E+00  0.62383366671E+03  0.62383366671E+03  0.00000000000E+00 0.  1.
         21   -1    0    0  501  502 -0.00000000000E+00 -0.00000000000E+00 -0.71568552540E+02  0.71568552540E+02  0.00000000000E+00 0.  1.
         25    1    1    2    0    0  0.11631441430E+03  0.64591709318E+01  0.48067826888E+03  0.51014445212E+03  0.12500000000E+03 0.  0.
         25    1    1    2    0    0 -0.11631441430E+03 -0.64591709318E+01  0.71586845298E+02  0.18525776713E+03  0.12500000000E+03 0.  0.
</event>
<event>
 4    0  0.2239279E-002  0.2053475E+03  0.7546771E-02  0.1145304E+00
         21   -1    0    0  502  501  0.00000000000E+00  0.00000000000E+00  0.19117658118E+04  0.19117658118E+04  0.00000000000E+00 0. -1.
         21   -1    0    0  501  502 -0.00000000000E+00 -0.00000000000E+00 -0.22056888536E+02  0.22056888536E+02  0.00000000000E+00 0. -1.
         25    1    1    2    0    0 -0.99118752739E+02 -0.62097921814E+02  0.41084346751E+03  0.44508205292E+03  0.12500000000E+03 0.  0.
         25    1    1    2    0    0  0.99118752739E+02  0.62097921814E+02  0.14788654557E+04  0.14887406474E+04  0.12500000000E+03 0.  0.
</event>
<event>
 4    0  0.2239279E-002  0.2359172E+03  0.7546771E-02  0.1122543E+00
         21   -1    0    0  502  501  0.00000000000E+00  0.00000000000E+00  0.30192665429E+04  0.30192665429E+04  0.00000000000E+00 0. -1.
         21   -1    0    0  501  502 -0.00000000000E+00 -0.00000000000E+00 -0.18433930168E+02  0.18433930168E+02  0.00000000000E+00 0. -1.
         25    1    1    2    0    0 -0.17823728093E+03 -0.80820324405E+02  0.12325204877E+04  0.12542058067E+04  0.12500000000E+03 0.  0.
         25    1    1    2    0    0  0.17823728093E+03  0.80820324405E+02  0.17683121251E+04  0.17834946664E+04  0.12500000000E+03 0.  0.
</event>
<event>
 4    0  0.2239279E-002  0.2192935E+03  0.7546771E-02  0.1134411E+00
         21   -1    0    0  502  501  0.00000000000E+00  0.00000000000E+00  0.51832929440E+02  0.51832929440E+02  0.00000000000E+00 0.  1.
         21   -1    0    0  501  502 -0.00000000000E+00 -0.00000000000E+00 -0.92778174104E+03  0.92778174104E+03  0.00000000000E+00 0.  1.
         25    1    1    2    0    0 -0.50031766624E+02 -0.14261646599E+03 -0.21887942318E+03  0.29389766235E+03  0.12500000000E+03 0.  0.
         25    1    1    2    0    0  0.50031766624E+02  0.14261646599E+03 -0.65706938842E+03  0.68571700814E+03  0.12500000000E+03 0.  0.
</event>
<event>
 4    0  0.2239279E-002  0.1465144E+03  0.7546771E-02  0.1204823E+00
         21   -1    0    0  502  501  0.00000000000E+00  0.00000000000E+00  0.26466992536E+03  0.26466992536E+03  0.00000000000E+00 0.  1.
         21   -1    0    0  501  502 -0.00000000000E+00 -0.00000000000E+00 -0.81106530999E+02  0.81106530999E+02  0.00000000000E+00 0.  1.
         25    1    1    2    0    0  0.56621862480E+02  0.49803306112E+02  0.77088105945E+02  0.16508779691E+03  0.12500000000E+03 0.  0.
         25    1    1    2    0    0 -0.56621862480E+02 -0.49803306112E+02  0.10647528842E+03  0.18068865945E+03  0.12500000000E+03 0.  0.
</event>
<event>
 4    0  0.2239279E-002  0.1552827E+03  0.7546771E-02  0.1194128E+00
         21   -1    0    0  502  501  0.00000000000E+00  0.00000000000E+00  0.13618893315E+03  0.13618893315E+03  0.00000000000E+00 0.  1.
         21   -1    0    0  501  502 -0.00000000000E+00 -0.00000000000E+00 -0.17705332077E+03  0.17705332077E+03  0.00000000000E+00 0.  1.
         25    1    1    2    0    0  0.71550680553E+02  0.57565864639E+02 -0.12994747117E+02  0.15565086608E+03  0.12500000000E+03 0.  0.
         25    1    1    2    0    0 -0.71550680553E+02 -0.57565864639E+02 -0.27869640506E+02  0.15759138784E+03  0.12500000000E+03 0.  0.
</event>
<event>
 4    0  0.2239279E-002  0.1710615E+03  0.7546771E-02  0.1176745E+00
         21   -1    0    0  502  501  0.00000000000E+00  0.00000000000E+00  0.14804856293E+03  0.14804856293E+03  0.00000000000E+00 0.  1.
         21   -1    0    0  501  502 -0.00000000000E+00 -0.00000000000E+00 -0.19765162212E+03  0.19765162212E+03  0.00000000000E+00 0.  1.
         25    1    1    2    0    0  0.10159413960E+03  0.49716943833E+02  0.45520797886E+01  0.16863826711E+03  0.12500000000E+03 0.  0.
         25    1    1    2    0    0 -0.10159413960E+03 -0.49716943833E+02 -0.54155138983E+02  0.17706191793E+03  0.12500000000E+03 0.  0.
</event>
<event>
 4    0  0.2239279E-002  0.2019678E+03  0.7546771E-02  0.1148089E+00
         21   -1    0    0  502  501  0.00000000000E+00  0.00000000000E+00  0.53504356466E+03  0.53504356466E+03  0.00000000000E+00 0.  1.
         21   -1    0    0  501  502 -0.00000000000E+00 -0.00000000000E+00 -0.76238609059E+02  0.76238609059E+02  0.00000000000E+00 0.  1.
         25    1    1    2    0    0 -0.13257447489E+03  0.18322653189E+02  0.35829461450E+03  0.40238258137E+03  0.12500000000E+03 0.  0.
         25    1    1    2    0    0  0.13257447489E+03 -0.18322653189E+02  0.10051034110E+03  0.20889959234E+03  0.12500000000E+03 0.  0.
</event>
<event>
 4    0  0.2239279E-002  0.5128476E+03  0.7546771E-02  0.1010479E+00
         21   -1    0    0  502  501  0.00000000000E+00  0.00000000000E+00  0.16800594986E+04  0.16800594986E+04  0.00000000000E+00 0. -1.
         21   -1    0    0  501  502 -0.00000000000E+00 -0.00000000000E+00 -0.15654962901E+03  0.15654962901E+03  0.00000000000E+00 0.  1.
         25    1    1    2    0    0 -0.37872099937E+02  0.47200488283E+03  0.48922605251E+03  0.69223553493E+03  0.12500000000E+03 0.  0.
         25    1    1    2    0    0  0.37872099937E+02 -0.47200488283E+03  0.10342838171E+04  0.11443735927E+04  0.12500000000E+03 0.  0.
</event>
<event>
 4    0  0.2239279E-002  0.1572213E+03  0.7546771E-02  0.1191870E+00
         21   -1    0    0  502  501  0.00000000000E+00  0.00000000000E+00  0.50582245213E+03  0.50582245213E+03  0.00000000000E+00 0.  1.
         21   -1    0    0  501  502 -0.00000000000E+00 -0.00000000000E+00 -0.48868038220E+02  0.48868038220E+02  0.00000000000E+00 0.  1.
         25    1    1    2    0    0 -0.21669888419E+02  0.89000978271E+02  0.27524241276E+03  0.31587045442E+03  0.12500000000E+03 0.  0.
         25    1    1    2    0    0  0.21669888419E+02 -0.89000978271E+02  0.18171200115E+03  0.23882003593E+03  0.12500000000E+03 0.  0.
</event>
<event>
 4    0  0.2239279E-002  0.2035374E+03  0.7546771E-02  0.1146788E+00
         21   -1    0    0  502  501  0.00000000000E+00  0.00000000000E+00  0.70901602701E+03  0.70901602701E+03  0.00000000000E+00 0. -1.
         21   -1    0    0  501  502 -0.00000000000E+00 -0.00000000000E+00 -0.58429529515E+02  0.58429529515E+02  0.00000000000E+00 0. -1.
         25    1    1    2    0    0  0.12473545144E+03 -0.85195901231E+01  0.13516166739E+03  0.22254256355E+03  0.12500000000E+03 0.  0.
         25    1    1    2    0    0 -0.12473545144E+03  0.85195901231E+01  0.51542483010E+03  0.54490299297E+03  0.12500000000E+03 0.  0.
</event>
<event>
 4    0  0.2239279E-002  0.1871824E+03  0.7546771E-02  0.1161027E+00
         21   -1    0    0  502  501  0.00000000000E+00  0.00000000000E+00  0.24557086125E+02  0.24557086125E+02  0.00000000000E+00 0. -1.
         21   -1    0    0  501  502 -0.00000000000E+00 -0.00000000000E+00 -0.14267671477E+04  0.14267671477E+04  0.00000000000E+00 0. -1.
         25    1    1    2    0    0  0.64282014118E+01 -0.11157993302E+03 -0.10236192779E+04  0.10372621796E+04  0.12500000000E+03 0.  0.
         25    1    1    2    0    0 -0.64282014118E+01  0.11157993302E+03 -0.37859078363E+03  0.41406205414E+03  0.12500000000E+03 0.  0.
</event>
<event>
 4    0  0.2239279E-002  0.1955557E+03  0.7546771E-02  0.1153544E+00
         21   -1    0    0  502  501  0.00000000000E+00  0.00000000000E+00  0.98869491694E+02  0.98869491694E+02  0.00000000000E+00 0.  1.
         21   -1    0    0  501  502 -0.00000000000E+00 -0.00000000000E+00 -0.38679308316E+03  0.38679308316E+03  0.00000000000E+00 0.  1.
         25    1    1    2    0    0  0.11882135416E+03  0.88608621305E+02 -0.17554800746E+03  0.26155707770E+03  0.12500000000E+03 0.  0.
         25    1    1    2    0    0 -0.11882135416E+03 -0.88608621305E+02 -0.11237558401E+03  0.22410549715E+03  0.12500000000E+03 0.  0.
</event>
<event>
 4    0  0.2239279E-002  0.1622378E+03  0.7546771E-02  0.1186193E+00
         21   -1    0    0  502  501  0.00000000000E+00  0.00000000000E+00  0.56384378721E+02  0.56384378721E+02  0.00000000000E+00 0. -1.
         21   -1    0    0  501  502 -0.00000000000E+00 -0.00000000000E+00 -0.46681563439E+03  0.46681563439E+03  0.00000000000E+00 0. -1.
         25    1    1    2    0    0 -0.36289135261E+02 -0.37096288084E+02 -0.34946504254E+03  0.37475839135E+03  0.12500000000E+03 0.  0.
         25    1    1    2    0    0  0.36289135261E+02  0.37096288084E+02 -0.60966213123E+02  0.14844162176E+03  0.12500000000E+03 0.  0.
</event>
<event>
 4    0  0.2239279E-002  0.2430428E+03  0.7546771E-02  0.1117782E+00
         21   -1    0    0  502  501  0.00000000000E+00  0.00000000000E+00  0.80591679440E+03  0.80591679440E+03  0.00000000000E+00 0. -1.
         21   -1    0    0  501  502 -0.00000000000E+00 -0.00000000000E+00 -0.73295192079E+02  0.73295192079E+02  0.00000000000E+00 0. -1.
         25    1    1    2    0    0  0.18145941299E+03  0.68819220464E+02  0.50383863512E+03  0.55420391004E+03  0.12500000000E+03 0.  0.
         25    1    1    2    0    0 -0.18145941299E+03 -0.68819220464E+02  0.22878296721E+03  0.32500807644E+03  0.12500000000E+03 0.  0.
</event>
<event>
 4    0  0.2239279E-002  0.1734431E+03  0.7546771E-02  0.1174304E+00
         21   -1    0    0  502  501  0.00000000000E+00  0.00000000000E+00  0.29810985390E+02  0.29810985390E+02  0.00000000000E+00 0. -1.
         21   -1    0    0  501  502 -0.00000000000E+00 -0.00000000000E+00 -0.10091076652E+04  0.10091076652E+04  0.00000000000E+00 0. -1.
         25    1    1    2    0    0 -0.10894409959E+03  0.50428846126E+02 -0.46942198810E+03  0.50039373325E+03  0.12500000000E+03 0.  0.
         25    1    1    2    0    0  0.10894409959E+03 -0.50428846126E+02 -0.50987469167E+03  0.53852491731E+03  0.12500000000E+03 0.  0.
</event>
<event>
 4    0  0.2239279E-002  0.2155977E+03  0.7546771E-02  0.1137208E+00
         21   -1    0    0  502  501  0.00000000000E+00  0.00000000000E+00  0.13765291597E+03  0.13765291597E+03  0.00000000000E+00 0.  1.
         21   -1    0    0  501  502 -0.00000000000E+00 -0.00000000000E+00 -0.33767816528E+03  0.33767816528E+03  0.00000000000E+00 0.  1.
         25    1    1    2    0    0  0.14026204860E+03 -0.25508716153E+02 -0.21314923397E+03  0.28527483734E+03  0.12500000000E+03 0.  0.
         25    1    1    2    0    0 -0.14026204860E+03  0.25508716153E+02  0.13123984662E+02  0.19005624391E+03  0.12500000000E+03 0.  0.
</event>
<event>
 4    0  0.2239279E-002  0.2206565E+03  0.7546771E-02  0.1133395E+00
         21   -1    0    0  502  501  0.00000000000E+00  0.00000000000E+00  0.79766820642E+02  0.79766820642E+02  0.00000000000E+00 0. -1.
         21   -1    0    0  501  502 -0.00000000000E+00 -0.00000000000E+00 -0.61039537488E+03  0.61039537488E+03  0.00000000000E+00 0. -1.
         25    1    1    2    0    0 -0.16196514942E+03 -0.46049336161E+02 -0.15797389184E+03  0.26255285466E+03  0.12500000000E+03 0.  0.
         25    1    1    2    0    0  0.16196514942E+03  0.46049336161E+02 -0.37265466239E+03  0.42760934086E+03  0.12500000000E+03 0.  0.
</event>
<event>
 4    0  0.2239279E-002  0.2490245E+03  0.7546771E-02  0.1113923E+00
         21   -1    0    0  502  501  0.00000000000E+00  0.00000000000E+00  0.23797235379E+03  0.23797235379E+03  0.00000000000E+00 0. -1.
         21   -1    0    0  501  502 -0.00000000000E+00 -0.00000000000E+00 -0.26058990004E+03  0.26058990004E+03  0.00000000000E+00 0.  1.
         25    1    1    2    0    0  0.63901772752E+02 -0.20102080537E+03 -0.54889731761E+02  0.25125820067E+03  0.12500000000E+03 0.  0.
         25    1    1    2    0    0 -0.63901772752E+02  0.20102080537E+03  0.32272185508E+02  0.24730405316E+03  0.12500000000E+03 0.  0.
</event>
<event>
 4    0  0.2239279E-002  0.2361367E+03  0.7546771E-02  0.1122394E+00
         21   -1    0    0  502  501  0.00000000000E+00  0.00000000000E+00  0.57612917066E+02  0.57612917066E+02  0.00000000000E+00 0.  1.
         21   -1    0    0  501  502 -0.00000000000E+00 -0.00000000000E+00 -0.96784806395E+03  0.96784806395E+03  0.00000000000E+00 0.  1.
         25    1    1    2    0    0  0.13208456164E+03  0.62230344602E+01 -0.12833081884E+03  0.22266310122E+03  0.12500000000E+03 0.  0.
         25    1    1    2    0    0 -0.13208456164E+03 -0.62230344602E+01 -0.78190432805E+03  0.80279787980E+03  0.12500000000E+03 0.  0.
</event>
<event>
 4    0  0.2239279E-002  0.2377241E+03  0.7546771E-02  0.1121318E+00
         21   -1    0    0  502  501  0.00000000000E+00  0.00000000000E+00  0.79395715405E+02  0.79395715405E+02  0.00000000000E+00 0.  1.
         21   -1    0    0  501  502 -0.00000000000E+00 -0.00000000000E+00 -0.71178582585E+03  0.71178582585E+03  0.00000000000E+00 0.  1.
         25    1    1    2    0    0  0.19260762737E+03 -0.23853978090E+02 -0.22175186784E+03  0.32010248560E+03  0.12500000000E+03 0.  0.
         25    1    1    2    0    0 -0.19260762737E+03  0.23853978090E+02 -0.41063824260E+03  0.47107905566E+03  0.12500000000E+03 0.  0.
</event>
<event>
 4    0  0.2239279E-002  0.2289031E+03  0.7546771E-02  0.1127414E+00
         21   -1    0    0  502  501  0.00000000000E+00  0.00000000000E+00  0.12640799298E+03  0.12640799298E+03  0.00000000000E+00 0. -1.
         21   -1    0    0  501  502 -0.00000000000E+00 -0.00000000000E+00 -0.41450409736E+03  0.41450409736E+03  0.00000000000E+00 0. -1.
         25    1    1    2    0    0  0.13247298723E+02 -0.15762140478E+03 -0.27213182708E+03  0.33867496140E+03  0.12500000000E+03 0.  0.
         25    1    1    2    0    0 -0.13247298723E+02  0.15762140478E+03 -0.15964277302E+02  0.20223712893E+03  0.12500000000E+03 0.  0.
</event>
<event>
 4    0  0.2239279E-002  0.1885908E+03  0.7546771E-02  0.1159739E+00
         21   -1    0    0  502  501  0.00000000000E+00  0.00000000000E+00  0.22702342053E+03  0.22702342053E+03  0.00000000000E+00 0. -1.
         21   -1    0    0  501  502 -0.00000000000E+00 -0.00000000000E+00 -0.15666432840E+03  0.15666432840E+03  0.00000000000E+00 0. -1.
         25    1    1    2    0    0  0.11119489904E+03  0.74715690818E+02 -0.10253283690E+02  0.18351258772E+03  0.12500000000E+03 0.  0.
         25    1    1    2    0    0 -0.11119489904E+03 -0.74715690818E+02  0.80612375818E+02  0.20017516120E+03  0.12500000000E+03 0.  0.
</event>
<event>
 4    0  0.2239279E-002  0.1520351E+03  0.7546771E-02  0.1197994E+00
         21   -1    0    0  502  501  0.00000000000E+00  0.00000000000E+00  0.92469093979E+02  0.92469093979E+02  0.00000000000E+00 0. -1.
         21   -1    0    0  501  502 -0.00000000000E+00 -0.00000000000E+00 -0.24997179480E+03  0.24997179480E+03  0.00000000000E+00 0. -1.
         25    1    1    2    0    0 -0.16309168463E+02  0.75017799504E+02 -0.33759992914E+02  0.15052706182E+03  0.12500000000E+03 0.  0.
         25    1    1    2    0    0  0.16309168463E+02 -0.75017799504E+02 -0.12374270791E+03  0.19191382696E+03  0.12500000000E+03 0.  0.
</event>
<event>
 4    0  0.2239279E-002  0.2068387E+03  0.7546771E-02  0.1144094E+00
         21   -1    0    0  502  501  0.00000000000E+00  0.00000000000E+00  0.46772124322E+02  0.46772124322E+02  0.00000000000E+00 0.  1.
         21   -1    0    0  501  502 -0.00000000000E+00 -0.00000000000E+00 -0.91469573754E+03  0.91469573754E+03  0.00000000000E+00 0.  1.
         25    1    1    2    0    0 -0.12471744037E+03 -0.14837471649E+02 -0.68192945117E+03  0.70457601923E+03  0.12500000000E+03 0.  0.
         25    1    1    2    0    0  0.12471744037E+03  0.14837471649E+02 -0.18599416205E+03  0.25689184263E+03  0.12500000000E+03 0.  0.
</event>
<event>
 4    0  0.2239279E-002  0.2065055E+03  0.7546771E-02  0.1144364E+00
         21   -1    0    0  502  501  0.00000000000E+00  0.00000000000E+00  0.98354884730E+03  0.98354884730E+03  0.00000000000E+00 0.  1.
         21   -1    0    0  501  502 -0.00000000000E+00 -0.00000000000E+00 -0.43357787800E+02  0.43357787800E+02  0.00000000000E+00 0.  1.
         25    1    1    2    0    0 -0.61792152513E+02 -0.14759441269E+03  0.56369491030E+03  0.59914884016E+03  0.12500000000E+03 0.  0.
         25    1    1    2    0    0  0.61792152513E+02  0.14759441269E+03  0.37649614920E+03  0.42775779494E+03  0.12500000000E+03 0.  0.
</event>
<event>
 4    0  0.2239279E-002  0.1952264E+03  0.7546771E-02  0.1153830E+00
         21   -1    0    0  502  501  0.00000000000E+00  0.00000000000E+00  0.15529796708E+03  0.15529796708E+03  0.00000000000E+00 0.  1.
         21   -1    0    0  501  502 -0.00000000000E+00 -0.00000000000E+00 -0.24542071108E+03  0.24542071108E+03  0.00000000000E+00 0.  1.
         25    1    1    2    0    0 -0.12104834765E+03 -0.64816829649E+02 -0.10693253458E+03  0.21427433544E+03  0.12500000000E+03 0.  0.
         25    1    1    2    0    0  0.12104834765E+03  0.64816829649E+02  0.16809790591E+02  0.18644434272E+03  0.12500000000E+03 0.  0.
</event>
<event>
 4    0  0.2239279E-002  0.2085408E+03  0.7546771E-02  0.1142727E+00
         21   -1    0    0  502  501  0.00000000000E+00  0.00000000000E+00  0.13619820255E+03  0.13619820255E+03  0.00000000000E+00 0. -1.
         21   -1    0    0  501  502 -0.00000000000E+00 -0.00000000000E+00 -0.31930857662E+03  0.31930857662E+03  0.00000000000E+00 0. -1.
         25    1    1    2    0    0 -0.15072723930E+02  0.16094831172E+03 -0.13701593503E+03  0.24602827583E+03  0.12500000000E+03 0.  0.
         25    1    1    2    0    0  0.15072723930E+02 -0.16094831172E+03 -0.46094439040E+02  0.20947850335E+03  0.12500000000E+03 0.  0.
</event>
<event>
 4    0  0.2239279E-002  0.2031391E+03  0.7546771E-02  0.1147117E+00
         21   -1    0    0  502  501  0.00000000000E+00  0.00000000000E+00  0.48614556297E+03  0.48614556297E+03  0.00000000000E+00 0.  1.
         21   -1    0    0  501  502 -0.00000000000E+00 -0.00000000000E+00 -0.84882995599E+02  0.84882995599E+02  0.00000000000E+00 0.  1.
         25    1    1    2    0    0  0.13392681266E+03 -0.54251928552E+02  0.29760981497E+03  0.35366122896E+03  0.12500000000E+03 0.  0.
         25    1    1    2    0    0 -0.13392681266E+03  0.54251928552E+02  0.10365275240E+03  0.21736732961E+03  0.12500000000E+03 0.  0.
</event>
<event>
 4    0  0.2239279E-002  0.1653012E+03  0.7546771E-02  0.1182838E+00
         21   -1    0    0  502  501  0.00000000000E+00  0.00000000000E+00  0.50416260205E+02  0.50416260205E+02  0.00000000000E+00 0. -1.
         21   -1    0    0  501  502 -0.00000000000E+00 -0.00000000000E+00 -0.54197795231E+03  0.54197795231E+03  0.00000000000E+00 0. -1.
         25    1    1    2    0    0 -0.65824439344E+02 -0.55978887189E+02 -0.12919944356E+03  0.19945924105E+03  0.12500000000E+03 0.  0.
         25    1    1    2    0    0  0.65824439344E+02  0.55978887189E+02 -0.36236224855E+03  0.39293497146E+03  0.12500000000E+03 0.  0.
</event>
<event>
 4    0  0.2239279E-002  0.2655427E+03  0.7546771E-02  0.1103858E+00
         21   -1    0    0  502  501  0.00000000000E+00  0.00000000000E+00  0.13159104604E+03  0.13159104604E+03  0.00000000000E+00 0.  1.
         21   -1    0    0  501  502 -0.00000000000E+00 -0.00000000000E+00 -0.53584908169E+03  0.53584908169E+03  0.00000000000E+00 0.  1.
         25    1    1    2    0    0 -0.52566054081E+02 -0.22461544028E+03 -0.25352759602E+03  0.36485137796E+03  0.12500000000E+03 0.  0.
         25    1    1    2    0    0  0.52566054081E+02  0.22461544028E+03 -0.15073043962E+03  0.30258874977E+03  0.12500000000E+03 0.  0.
</event>
<event>
 4    0  0.2239279E-002  0.2120946E+03  0.7546771E-02  0.1139918E+00
         21   -1    0    0  502  501  0.00000000000E+00  0.00000000000E+00  0.14733897016E+04  0.14733897016E+04  0.00000000000E+00 0.  1.
         21   -1    0    0  501  502 -0.00000000000E+00 -0.00000000000E+00 -0.30531051881E+02  0.30531051881E+02  0.00000000000E+00 0.  1.
         25    1    1    2    0    0 -0.13790279333E+03  0.83322962310E+02  0.51472182507E+03  0.55364560294E+03  0.12500000000E+03 0.  0.
         25    1    1    2    0    0  0.13790279333E+03 -0.83322962310E+02  0.92813682465E+03  0.95027515054E+03  0.12500000000E+03 0.  0.
</event>
<event>
 4    0  0.2239279E-002  0.2428450E+03  0.7546771E-02  0.1117912E+00
         21   -1    0    0  502  501  0.00000000000E+00  0.00000000000E+00  0.12731985835E+03  0.12731985835E+03  0.00000000000E+00 0. -1.
         21   -1    0    0  501  502 -0.00000000000E+00 -0.00000000000E+00 -0.46319304973E+03  0.46319304973E+03  0.00000000000E+00 0. -1.
         25    1    1    2    0    0  0.53018113357E+01  0.97704597760E+02 -0.39137816621E+03  0.42234602711E+03  0.12500000000E+03 0.  0.
         25    1    1    2    0    0 -0.53018113357E+01 -0.97704597760E+02  0.55504974820E+02  0.16816688097E+03  0.12500000000E+03 0.  0.
</event>
<event>
 4    0  0.2239279E-002  0.2146726E+03  0.7546771E-02  0.1137918E+00
         21   -1    0    0  502  501  0.00000000000E+00  0.00000000000E+00  0.57654468555E+02  0.57654468555E+02  0.00000000000E+00 0.  1.
         21   -1    0    0  501  502 -0.00000000000E+00 -0.00000000000E+00 -0.79931942645E+03  0.79931942645E+03  0.00000000000E+00 0.  1.
         25    1    1    2    0    0 -0.11736227291E+02  0.13606464441E+03 -0.58772735239E+03  0.61619783125E+03  0.12500000000E+03 0.  0.
         25    1    1    2    0    0  0.11736227291E+02 -0.13606464441E+03 -0.15393760551E+03  0.24077606376E+03  0.12500000000E+03 0.  0.
</event>
<event>
 4    0  0.2239279E-002  0.1918211E+03  0.7546771E-02  0.1156829E+00
         21   -1    0    0  502  501  0.00000000000E+00  0.00000000000E+00  0.52358501988E+03  0.52358501988E+03  0.00000000000E+00 0. -1.
         21   -1    0    0  501  502 -0.00000000000E+00 -0.00000000000E+00 -0.70275746750E+02  0.70275746750E+02  0.00000000000E+00 0. -1.
         25    1    1    2    0    0 -0.11768334356E+02 -0.11689047757E+03  0.93778683468E+02  0.19550273377E+03  0.12500000000E+03 0.  0.
         25    1    1    2    0    0  0.11768334356E+02  0.11689047757E+03  0.35953058966E+03  0.39835803286E+03  0.12500000000E+03 0.  0.
</event>
<event>
 4    0  0.2239279E-002  0.3222281E+03  0.7546771E-02  0.1074628E+00
         21   -1    0    0  502  501  0.00000000000E+00  0.00000000000E+00  0.22928325912E+03  0.22928325912E+03  0.00000000000E+00 0. -1.
         21   -1    0    0  501  502 -0.00000000000E+00 -0.00000000000E+00 -0.45285024630E+03  0.45285024630E+03  0.00000000000E+00 0. -1.
         25    1    1    2    0    0 -0.13464083117E+03 -0.66221399985E+02  0.15950662756E+03  0.25215231799E+03  0.12500000000E+03 0.  0.
         25    1    1    2    0    0  0.13464083117E+03  0.66221399985E+02 -0.38307361473E+03  0.42998118743E+03  0.12500000000E+03 0.  0.
</event>
<event>
 4    0  0.2239279E-002  0.2979290E+03  0.7546771E-02  0.1086280E+00
         21   -1    0    0  502  501  0.00000000000E+00  0.00000000000E+00  0.67479105538E+03  0.67479105538E+03  0.00000000000E+00 0. -1.
         21   -1    0    0  501  502 -0.00000000000E+00 -0.00000000000E+00 -0.13153955790E+03  0.13153955790E+03  0.00000000000E+00 0. -1.
         25    1    1    2    0    0 -0.37230325490E+02 -0.78092549597E+02 -0.75106998171E+02  0.16956003247E+03  0.12500000000E+03 0.  0.
         25    1    1    2    0    0  0.37230325490E+02  0.78092549597E+02  0.61835849565E+03  0.63677058081E+03  0.12500000000E+03 0.  0.
</event>
<event>
 4    0  0.2239279E-002  0.2238924E+03  0.7546771E-02  0.1131014E+00
         21   -1    0    0  502  501  0.00000000000E+00  0.00000000000E+00  0.89190470214E+02  0.89190470214E+02  0.00000000000E+00 0. -1.
         21   -1    0    0  501  502 -0.00000000000E+00 -0.00000000000E+00 -0.56203076753E+03  0.56203076753E+03  0.00000000000E+00 0. -1.
         25    1    1    2    0    0 -0.15125842717E+02 -0.18506051832E+03 -0.24392108334E+03  0.33105691574E+03  0.12500000000E+03 0.  0.
         25    1    1    2    0    0  0.15125842717E+02  0.18506051832E+03 -0.22891921397E+03  0.32016432200E+03  0.12500000000E+03 0.  0.
</event>
<event>
 4    0  0.2239279E-002  0.2348416E+03  0.7546771E-02  0.1123278E+00
         21   -1    0    0  502  501  0.00000000000E+00  0.00000000000E+00  0.11539482088E+03  0.11539482088E+03  0.00000000000E+00 0.  1.
         21   -1    0    0  501  502 -0.00000000000E+00 -0.00000000000E+00 -0.47792953846E+03  0.47792953846E+03  0.00000000000E+00 0.  1.
         25    1    1    2    0    0  0.68864658112E+02  0.31841709255E+02 -0.41340656208E+03  0.43850452809E+03  0.12500000000E+03 0.  0.
         25    1    1    2    0    0 -0.68864658112E+02 -0.31841709255E+02  0.50871844498E+02  0.15481983125E+03  0.12500000000E+03 0.  0.
</event>
<event>
 4    0  0.2239279E-002  0.1733912E+03  0.7546771E-02  0.1174357E+00
         21   -1    0    0  502  501  0.00000000000E+00  0.00000000000E+00  0.15704404812E+03  0.15704404812E+03  0.00000000000E+00 0.  1.
         21   -1    0    0  501  502 -0.00000000000E+00 -0.00000000000E+00 -0.19144001237E+03  0.19144001237E+03  0.00000000000E+00 0.  1.
         25    1    1    2    0    0  0.65538038377E+01 -0.11869644512E+03 -0.34825896176E+02  0.17598193508E+03  0.12500000000E+03 0.  0.
         25    1    1    2    0    0 -0.65538038377E+01  0.11869644512E+03  0.42993192185E+00  0.17250212541E+03  0.12500000000E+03 0.  0.
</event>
<event>
 4    0  0.2239279E-002  0.1818846E+03  0.7546771E-02  0.1165992E+00
         21   -1    0    0  502  501  0.00000000000E+00  0.00000000000E+00  0.78998028009E+03  0.78998028009E+03  0.00000000000E+00 0.  1.
         21   -1    0    0  501  502 -0.00000000000E+00 -0.00000000000E+00 -0.41876993593E+02  0.41876993593E+02  0.00000000000E+00 0.  1.
         25    1    1    2    0    0 -0.10474150723E+03 -0.71377488688E+02  0.45935376978E+03  0.49264227898E+03  0.12500000000E+03 0.  0.
         25    1    1    2    0    0  0.10474150723E+03  0.71377488688E+02  0.28874951671E+03  0.33921499470E+03  0.12500000000E+03 0.  0.
</event>
<event>
 4    0  0.2239279E-002  0.2477264E+03  0.7546771E-02  0.1114750E+00
         21   -1    0    0  502  501  0.00000000000E+00  0.00000000000E+00  0.13276195765E+04  0.13276195765E+04  0.00000000000E+00 0.  1.
         21   -1    0    0  501  502 -0.00000000000E+00 -0.00000000000E+00 -0.46224377490E+02  0.46224377490E+02  0.00000000000E+00 0.  1.
         25    1    1    2    0    0 -0.43927485632E+02 -0.15848648955E+03  0.10198440939E+04  0.10405549324E+04  0.12500000000E+03 0.  0.
         25    1    1    2    0    0  0.43927485632E+02  0.15848648955E+03  0.26155110509E+03  0.33328902163E+03  0.12500000000E+03 0.  0.
</event>
<event>
 4    0  0.2239279E-002  0.2330743E+03  0.7546771E-02  0.1124494E+00
         21   -1    0    0  502  501  0.00000000000E+00  0.00000000000E+00  0.29879402053E+03  0.29879402053E+03  0.00000000000E+00 0. -1.
         21   -1    0    0  501  502 -0.00000000000E+00 -0.00000000000E+00 -0.18180964450E+03  0.18180964450E+03  0.00000000000E+00 0. -1.
         25    1    1    2    0    0 -0.77213768347E+02 -0.31285652545E+01  0.24500770979E+03  0.28570182324E+03  0.12500000000E+03 0.  0.
         25    1    1    2    0    0  0.77213768347E+02  0.31285652545E+01 -0.12802333376E+03  0.19490184178E+03  0.12500000000E+03 0.  0.
</event>
<event>
 4    0  0.2239279E-002  0.2889368E+03  0.7546771E-02  0.1090906E+00
         21   -1    0    0  502  501  0.00000000000E+00  0.00000000000E+00  0.32537581146E+03  0.32537581146E+03  0.00000000000E+00 0. -1.
         21   -1    0    0  501  502 -0.00000000000E+00 -0.00000000000E+00 -0.25657861936E+03  0.25657861936E+03  0.00000000000E+00 0. -1.
         25    1    1    2    0    0  0.20679029271E+03 -0.15105382273E+03  0.82485073837E+02  0.29666187812E+03  0.12500000000E+03 0.  0.
         25    1    1    2    0    0 -0.20679029271E+03  0.15105382273E+03 -0.13687881741E+02  0.28529255270E+03  0.12500000000E+03 0.  0.
</event>
<event>
 4    0  0.2239279E-002  0.2442611E+03  0.7546771E-02  0.1116986E+00
         21   -1    0    0  502  501  0.00000000000E+00  0.00000000000E+00  0.10514016571E+03  0.10514016571E+03  0.00000000000E+00 0. -1.
         21   -1    0    0  501  502 -0.00000000000E+00 -0.00000000000E+00 -0.56746633140E+03  0.56746633140E+03  0.00000000000E+00 0. -1.
         25    1    1    2    0    0 -0.10064036562E+03  0.13175142532E+03 -0.40829484794E+03  0.45805742448E+03  0.12500000000E+03 0.  0.
         25    1    1    2    0    0  0.10064036562E+03 -0.13175142532E+03 -0.54031317752E+02  0.21454907263E+03  0.12500000000E+03 0.  0.
</event>
<event>
 4    0  0.2239279E-002  0.2377500E+03  0.7546771E-02  0.1121301E+00
         21   -1    0    0  502  501  0.00000000000E+00  0.00000000000E+00  0.15240877312E+04  0.15240877312E+04  0.00000000000E+00 0.  1.
         21   -1    0    0  501  502 -0.00000000000E+00 -0.00000000000E+00 -0.37087803271E+02  0.37087803271E+02  0.00000000000E+00 0.  1.
         25    1    1    2    0    0  0.57654248093E+02 -0.15279744917E+03  0.35185884084E+03  0.40755455668E+03  0.12500000000E+03 0.  0.
         25    1    1    2    0    0 -0.57654248093E+02  0.15279744917E+03  0.11351410871E+04  0.11536209778E+04  0.12500000000E+03 0.  0.
</event>
<event>
 4    0  0.2239279E-002  0.2540882E+03  0.7546771E-02  0.1110748E+00
         21   -1    0    0  502  501  0.00000000000E+00  0.00000000000E+00  0.12826076631E+03  0.12826076631E+03  0.00000000000E+00 0.  1.
         21   -1    0    0  501  502 -0.00000000000E+00 -0.00000000000E+00 -0.50335588916E+03  0.50335588916E+03  0.00000000000E+00 0.  1.
         25    1    1    2    0    0 -0.26851892160E+01 -0.79865960539E+02  0.68835318712E+02  0.16355146895E+03  0.12500000000E+03 0.  0.
         25    1    1    2    0    0  0.26851892160E+01  0.79865960539E+02 -0.44393044156E+03  0.46806518652E+03  0.12500000000E+03 0.  0.
</event>
<event>
 4    0  0.2239279E-002  0.1735916E+03  0.7546771E-02  0.1174153E+00
         21   -1    0    0  502  501  0.00000000000E+00  0.00000000000E+00  0.26183523821E+02  0.26183523821E+02  0.00000000000E+00 0.  1.
         21   -1    0    0  501  502 -0.00000000000E+00 -0.00000000000E+00 -0.11508777508E+04  0.11508777508E+04  0.00000000000E+00 0.  1.
         25    1    1    2    0    0 -0.95584359613E+02  0.61793581075E+02 -0.42868864694E+03  0.46081858955E+03  0.12500000000E+03 0.  0.
         25    1    1    2    0    0  0.95584359613E+02 -0.61793581075E+02 -0.69600558003E+03  0.71624268506E+03  0.12500000000E+03 0.  0.
</event>
<event>
 4    0  0.2239279E-002  0.2431796E+03  0.7546771E-02  0.1117693E+00
         21   -1    0    0  502  501  0.00000000000E+00  0.00000000000E+00  0.12733650040E+04  0.12733650040E+04  0.00000000000E+00 0. -1.
         21   -1    0    0  501  502 -0.00000000000E+00 -0.00000000000E+00 -0.46440972045E+02  0.46440972045E+02  0.00000000000E+00 0. -1.
         25    1    1    2    0    0 -0.19847109408E+03  0.57025191936E+02  0.53348262095E+03  0.58555217919E+03  0.12500000000E+03 0.  0.
         25    1    1    2    0    0  0.19847109408E+03 -0.57025191936E+02  0.69344141101E+03  0.73425379686E+03  0.12500000000E+03 0.  0.
</event>
<event>
 4    0  0.2239279E-002  0.1667347E+03  0.7546771E-02  0.1181296E+00
         21   -1    0    0  502  501  0.00000000000E+00  0.00000000000E+00  0.19927525401E+02  0.19927525401E+02  0.00000000000E+00 0. -1.
         21   -1    0    0  501  502 -0.00000000000E+00 -0.00000000000E+00 -0.13950791301E+04  0.13950791301E+04  0.00000000000E+00 0. -1.
         25    1    1    2    0    0  0.37728925602E+02 -0.67220825102E+02 -0.10225903083E+04  0.10330818214E+04  0.12500000000E+03 0.  0.
         25    1    1    2    0    0 -0.37728925602E+02  0.67220825102E+02 -0.35256129637E+03  0.38192483403E+03  0.12500000000E+03 0.  0.
</event>
<event>
 4    0  0.2239279E-002  0.2132097E+03  0.7546771E-02  0.1139049E+00
         21   -1    0    0  502  501  0.00000000000E+00  0.00000000000E+00  0.62888936571E+02  0.62888936571E+02  0.00000000000E+00 0. -1.
         21   -1    0    0  501  502 -0.00000000000E+00 -0.00000000000E+00 -0.72283580674E+03  0.72283580674E+03  0.00000000000E+00 0. -1.
         25    1    1    2    0    0  0.41320516820E+02 -0.11925686208E+03 -0.54724360007E+03  0.57535218960E+03  0.12500000000E+03 0.  0.
         25    1    1    2    0    0 -0.41320516820E+02  0.11925686208E+03 -0.11270327011E+03  0.21037255371E+03  0.12500000000E+03 0.  0.
</event>
<event>
 4    0  0.2239279E-002  0.1946304E+03  0.7546771E-02  0.1154350E+00
         21   -1    0    0  502  501  0.00000000000E+00  0.00000000000E+00  0.34292015354E+02  0.34292015354E+02  0.00000000000E+00 0.  1.
         21   -1    0    0  501  502 -0.00000000000E+00 -0.00000000000E+00 -0.11046591638E+04  0.11046591638E+04  0.00000000000E+00 0.  1.
         25    1    1    2    0    0  0.56709804702E+02 -0.13552077188E+02 -0.93696793064E+03  0.94706576529E+03  0.12500000000E+03 0.  0.
         25    1    1    2    0    0 -0.56709804702E+02  0.13552077188E+02 -0.13339921785E+03  0.19188541390E+03  0.12500000000E+03 0.  0.
</event>
<event>
 4    0  0.2239279E-002  0.1795501E+03  0.7546771E-02  0.1168239E+00
         21   -1    0    0  502  501  0.00000000000E+00  0.00000000000E+00  0.18896161168E+03  0.18896161168E+03  0.00000000000E+00 0. -1.
         21   -1    0    0  501  502 -0.00000000000E+00 -0.00000000000E+00 -0.17060738902E+03  0.17060738902E+03  0.00000000000E+00 0. -1.
         25    1    1    2    0    0 -0.93806694001E+02  0.64184563313E+01  0.97453151763E+02  0.18429055649E+03  0.12500000000E+03 0.  0.
         25    1    1    2    0    0  0.93806694001E+02 -0.64184563313E+01 -0.79098929098E+02  0.17527844421E+03  0.12500000000E+03 0.  0.
</event>
<event>
 4    0  0.2239279E-002  0.1809588E+03  0.7546771E-02  0.1166878E+00
         21   -1    0    0  502  501  0.00000000000E+00  0.00000000000E+00  0.80139914608E+03  0.80139914608E+03  0.00000000000E+00 0.  1.
         21   -1    0    0  501  502 -0.00000000000E+00 -0.00000000000E+00 -0.40861133809E+02  0.40861133809E+02  0.00000000000E+00 0.  1.
         25    1    1    2    0    0  0.91544725837E+02  0.26143666997E+02  0.58916369288E+03  0.60975633261E+03  0.12500000000E+03 0.  0.
         25    1    1    2    0    0 -0.91544725837E+02 -0.26143666997E+02  0.17137431939E+03  0.23250394728E+03  0.12500000000E+03 0.  0.
</event>
<event>
 4    0  0.2239279E-002  0.2190164E+03  0.7546771E-02  0.1134618E+00
         21   -1    0    0  502  501  0.00000000000E+00  0.00000000000E+00  0.76887206493E+02  0.76887206493E+02  0.00000000000E+00 0. -1.
         21   -1    0    0  501  502 -0.00000000000E+00 -0.00000000000E+00 -0.62387753386E+03  0.62387753386E+03  0.00000000000E+00 0. -1.
         25    1    1    2    0    0  0.16731210425E+03 -0.11655071792E+02 -0.16964341351E+03  0.26931964034E+03  0.12500000000E+03 0.  0.
         25    1    1    2    0    0 -0.16731210425E+03  0.11655071792E+02 -0.37734691386E+03  0.43144510001E+03  0.12500000000E+03 0.  0.
</event>
<event>
 4    0  0.2239279E-002  0.1405715E+03  0.7546771E-02  0.1212562E+00
         21   -1    0    0  502  501  0.00000000000E+00  0.00000000000E+00  0.17033195092E+03  0.17033195092E+03  0.00000000000E+00 0. -1.
         21   -1    0    0  501  502 -0.00000000000E+00 -0.00000000000E+00 -0.11601087606E+03  0.11601087606E+03  0.00000000000E+00 0. -1.
         25    1    1    2    0    0  0.31898552874E+02 -0.36651382238E+02 -0.15743585098E+02  0.13503222566E+03  0.12500000000E+03 0.  0.
         25    1    1    2    0    0 -0.31898552874E+02  0.36651382238E+02  0.70064659960E+02  0.15131060132E+03  0.12500000000E+03 0.  0.
</event>
<event>
 4    0  0.2239279E-002  0.1914902E+03  0.7546771E-02  0.1157124E+00
         21   -1    0    0  502  501  0.00000000000E+00  0.00000000000E+00  0.10315337936E+03  0.10315337936E+03  0.00000000000E+00 0. -1.
         21   -1    0    0  501  502 -0.00000000000E+00 -0.00000000000E+00 -0.35547548191E+03  0.35547548191E+03  0.00000000000E+00 0. -1.
         25    1    1    2    0    0 -0.53196812926E+02  0.12187749917E+03 -0.19557077438E+03  0.26750131495E+03  0.12500000000E+03 0.  0.
         25    1    1    2    0    0  0.53196812926E+02 -0.12187749917E+03 -0.56751328169E+02  0.19112754631E+03  0.12500000000E+03 0.  0.
</event>
<event>
 4    0  0.2239279E-002  0.2424663E+03  0.7546771E-02  0.1118161E+00
         21   -1    0    0  502  501  0.00000000000E+00  0.00000000000E+00  0.73117352790E+02  0.73117352790E+02  0.00000000000E+00 0.  1.
         21   -1    0    0  501  502 -0.00000000000E+00 -0.00000000000E+00 -0.80404835420E+03  0.80404835420E+03  0.00000000000E+00 0.  1.
         25    1    1    2    0    0  0.10711717059E+03  0.17647968905E+03 -0.40772113172E+03  0.47379393214E+03  0.12500000000E+03 0.  0.
         25    1    1    2    0    0 -0.10711717059E+03 -0.17647968905E+03 -0.32320986969E+03  0.40337177485E+03  0.12500000000E+03 0.  0.
</event>
<event>
 4    0  0.2239279E-002  0.1721057E+03  0.7546771E-02  0.1175670E+00
         21   -1    0    0  502  501  0.00000000000E+00  0.00000000000E+00  0.70704759714E+03  0.70704759714E+03  0.00000000000E+00 0.  1.
         21   -1    0    0  501  502 -0.00000000000E+00 -0.00000000000E+00 -0.41893050245E+02  0.41893050245E+02  0.00000000000E+00 0.  1.
         25    1    1    2    0    0 -0.12206023357E+02 -0.89219858281E+02  0.49950942083E+03  0.52272730139E+03  0.12500000000E+03 0.  0.
         25    1    1    2    0    0  0.12206023357E+02  0.89219858281E+02  0.16564512606E+03  0.22621334599E+03  0.12500000000E+03 0.  0.
</event>
<event>
 4    0  0.2239279E-002  0.3634229E+03  0.7546771E-02  0.1057237E+00
         21   -1    0    0  502  501  0.00000000000E+00  0.00000000000E+00  0.16968161944E+03  0.16968161944E+03  0.00000000000E+00 0.  1.
         21   -1    0    0  501  502 -0.00000000000E+00 -0.00000000000E+00 -0.77837642517E+03  0.77837642517E+03  0.00000000000E+00 0.  1.
         25    1    1    2    0    0 -0.32961379751E+03 -0.38942737361E+02 -0.20090547299E+03  0.40761477081E+03  0.12500000000E+03 0.  0.
         25    1    1    2    0    0  0.32961379751E+03  0.38942737361E+02 -0.40778933273E+03  0.54044327380E+03  0.12500000000E+03 0.  0.
</event>
<event>
 4    0  0.2239279E-002  0.2716650E+03  0.7546771E-02  0.1100330E+00
         21   -1    0    0  502  501  0.00000000000E+00  0.00000000000E+00  0.49498476785E+03  0.49498476785E+03  0.00000000000E+00 0.  1.
         21   -1    0    0  501  502 -0.00000000000E+00 -0.00000000000E+00 -0.14909927898E+03  0.14909927898E+03  0.00000000000E+00 0.  1.
         25    1    1    2    0    0  0.16655576264E+03 -0.62149002234E+01 -0.33736685544E+02  0.21105120470E+03  0.12500000000E+03 0.  0.
         25    1    1    2    0    0 -0.16655576264E+03  0.62149002234E+01  0.37962217442E+03  0.43303284213E+03  0.12500000000E+03 0.  0.
</event>
<event>
 4    0  0.2239279E-002  0.2474603E+03  0.7546771E-02  0.1114920E+00
         21   -1    0    0  502  501  0.00000000000E+00  0.00000000000E+00  0.68654978159E+02  0.68654978159E+02  0.00000000000E+00 0. -1.
         21   -1    0    0  501  502 -0.00000000000E+00 -0.00000000000E+00 -0.89194726830E+03  0.89194726830E+03  0.00000000000E+00 0. -1.
         25    1    1    2    0    0  0.19652043166E+03 -0.82869416328E+02 -0.39003295651E+03  0.46177735694E+03  0.12500000000E+03 0.  0.
         25    1    1    2    0    0 -0.19652043166E+03  0.82869416328E+02 -0.43325933363E+03  0.49882488951E+03  0.12500000000E+03 0.  0.
</event>
<event>
 4    0  0.2239279E-002  0.1766265E+03  0.7546771E-02  0.1171108E+00
         21   -1    0    0  502  501  0.00000000000E+00  0.00000000000E+00  0.50979360883E+02  0.50979360883E+02  0.00000000000E+00 0. -1.
         21   -1    0    0  501  502 -0.00000000000E+00 -0.00000000000E+00 -0.61195207046E+03  0.61195207046E+03  0.00000000000E+00 0. -1.
         25    1    1    2    0    0  0.11625274147E+03 -0.38170339086E+02 -0.23450846066E+03  0.29255921248E+03  0.12500000000E+03 0.  0.
         25    1    1    2    0    0 -0.11625274147E+03  0.38170339086E+02 -0.32646424892E+03  0.37037221886E+03  0.12500000000E+03 0.  0.
</event>
<event>
 4    0  0.2239279E-002  0.2492774E+03  0.7546771E-02  0.1113762E+00
         21   -1    0    0  502  501  0.00000000000E+00  0.00000000000E+00  0.11850546934E+04  0.11850546934E+04  0.00000000000E+00 0. -1.
         21   -1    0    0  501  502 -0.00000000000E+00 -0.00000000000E+00 -0.52435742394E+02  0.52435742394E+02  0.00000000000E+00 0. -1.
         25    1    1    2    0    0 -0.44350173383E+01 -0.13420856128E+03  0.98521769300E+03  0.10021529374E+04  0.12500000000E+03 0.  0.
         25    1    1    2    0    0  0.44350173383E+01  0.13420856128E+03  0.14740125802E+03  0.23533749843E+03  0.12500000000E+03 0.  0.
</event>
<event>
 4    0  0.2239279E-002  0.1903199E+03  0.7546771E-02  0.1158173E+00
         21   -1    0    0  502  501  0.00000000000E+00  0.00000000000E+00  0.49632919047E+02  0.49632919047E+02  0.00000000000E+00 0.  1.
         21   -1    0    0  501  502 -0.00000000000E+00 -0.00000000000E+00 -0.72979077792E+03  0.72979077792E+03  0.00000000000E+00 0.  1.
         25    1    1    2    0    0  0.56716792273E+02  0.88125749821E+02 -0.13930612043E+03  0.21450906157E+03  0.12500000000E+03 0.  0.
         25    1    1    2    0    0 -0.56716792273E+02 -0.88125749821E+02 -0.54085173845E+03  0.56491463540E+03  0.12500000000E+03 0.  0.
</event>
<event>
 4    0  0.2239279E-002  0.4155234E+03  0.7546771E-02  0.1038533E+00
         21   -1    0    0  502  501  0.00000000000E+00  0.00000000000E+00  0.17595853089E+03  0.17595853089E+03  0.00000000000E+00 0.  1.
         21   -1    0    0  501  502 -0.00000000000E+00 -0.00000000000E+00 -0.98125226975E+03  0.98125226975E+03  0.00000000000E+00 0.  1.
         25    1    1    2    0    0  0.23196673581E+03  0.12722107768E+03  0.81704693193E+01  0.29272090069E+03  0.12500000000E+03 0.  0.
         25    1    1    2    0    0 -0.23196673581E+03 -0.12722107768E+03 -0.81346420818E+03  0.86448989995E+03  0.12500000000E+03 0.  0.
</event>
<event>
 4    0  0.2239279E-002  0.1863532E+03  0.7546771E-02  0.1161792E+00
         21   -1    0    0  502  501  0.00000000000E+00  0.00000000000E+00  0.81928107549E+02  0.81928107549E+02  0.00000000000E+00 0. -1.
         21   -1    0    0  501  502 -0.00000000000E+00 -0.00000000000E+00 -0.42387803383E+03  0.42387803383E+03  0.00000000000E+00 0. -1.
         25    1    1    2    0    0 -0.45388641420E+02 -0.16083380172E+01 -0.34812838864E+03  0.37266753346E+03  0.12500000000E+03 0.  0.
         25    1    1    2    0    0  0.45388641420E+02  0.16083380172E+01  0.61784623570E+01  0.13313860792E+03  0.12500000000E+03 0.  0.
</event>
<event>
 4    0  0.2239279E-002  0.2178471E+03  0.7546771E-02  0.1135498E+00
         21   -1    0    0  502  501  0.00000000000E+00  0.00000000000E+00  0.28782015422E+03  0.28782015422E+03  0.00000000000E+00 0.  1.
         21   -1    0    0  501  502 -0.00000000000E+00 -0.00000000000E+00 -0.16488546430E+03  0.16488546430E+03  0.00000000000E+00 0.  1.
         25    1    1    2    0    0 -0.15402300185E+03  0.87073834618E+02  0.85329695317E+02  0.23283276118E+03  0.12500000000E+03 0.  0.
         25    1    1    2    0    0  0.15402300185E+03 -0.87073834618E+02  0.37604994611E+02  0.21987285734E+03  0.12500000000E+03 0.  0.
</event>
<event>
 4    0  0.2239279E-002  0.2409317E+03  0.7546771E-02  0.1119174E+00
         21   -1    0    0  502  501  0.00000000000E+00  0.00000000000E+00  0.97613326101E+02  0.97613326101E+02  0.00000000000E+00 0.  1.
         21   -1    0    0  501  502 -0.00000000000E+00 -0.00000000000E+00 -0.59467364920E+03  0.59467364920E+03  0.00000000000E+00 0.  1.
         25    1    1    2    0    0 -0.32322878657E+02  0.20338497749E+03 -0.25368129960E+03  0.34984199194E+03  0.12500000000E+03 0.  0.
         25    1    1    2    0    0  0.32322878657E+02 -0.20338497749E+03 -0.24337902350E+03  0.34244498337E+03  0.12500000000E+03 0.  0.
</event>
<event>
 4    0  0.2239279E-002  0.2624760E+03  0.7546771E-02  0.1105665E+00
         21   -1    0    0  502  501  0.00000000000E+00  0.00000000000E+00  0.12003973671E+04  0.12003973671E+04  0.00000000000E+00 0.  1.
         21   -1    0    0  501  502 -0.00000000000E+00 -0.00000000000E+00 -0.57392370997E+02  0.57392370997E+02  0.00000000000E+00 0.  1.
         25    1    1    2    0    0 -0.10257166688E+03 -0.14860540972E+03  0.91592941231E+03  0.94188969788E+03  0.12500000000E+03 0.  0.
         25    1    1    2    0    0  0.10257166688E+03  0.14860540972E+03  0.22707558375E+03  0.31590004017E+03  0.12500000000E+03 0.  0.
</event>
<event>
 4    0  0.2239279E-002  0.1876073E+03  0.7546771E-02  0.1160637E+00
         21   -1    0    0  502  501  0.00000000000E+00  0.00000000000E+00  0.45185900542E+03  0.45185900542E+03  0.00000000000E+00 0.  1.
         21   -1    0    0  501  502 -0.00000000000E+00 -0.00000000000E+00 -0.77892653001E+02  0.77892653001E+02  0.00000000000E+00 0.  1.
         25    1    1    2    0    0 -0.10327809730E+03 -0.44614362025E+02  0.30438611511E+03  0.34775381199E+03  0.12500000000E+03 0.  0.
         25    1    1    2    0    0  0.10327809730E+03  0.44614362025E+02  0.69580237308E+02  0.18199784643E+03  0.12500000000E+03 0.  0.
</event>
<event>
 4    0  0.2239279E-002  0.1948535E+03  0.7546771E-02  0.1154155E+00
         21   -1    0    0  502  501  0.00000000000E+00  0.00000000000E+00  0.31724643448E+03  0.31724643448E+03  0.00000000000E+00 0. -1.
         21   -1    0    0  501  502 -0.00000000000E+00 -0.00000000000E+00 -0.11967946850E+03  0.11967946850E+03  0.00000000000E+00 0. -1.
         25    1    1    2    0    0 -0.12455425858E+03 -0.78856159990E+02  0.12649299252E+03  0.23099249870E+03  0.12500000000E+03 0.  0.
         25    1    1    2    0    0  0.12455425858E+03  0.78856159990E+02  0.71073973466E+02  0.20593340429E+03  0.12500000000E+03 0.  0.
</event>
<event>
 4    0  0.2239279E-002  0.1698787E+03  0.7546771E-02  0.1177974E+00
         21   -1    0    0  502  501  0.00000000000E+00  0.00000000000E+00  0.31114027693E+03  0.31114027693E+03  0.00000000000E+00 0. -1.
         21   -1    0    0  501  502 -0.00000000000E+00 -0.00000000000E+00 -0.92751637171E+02  0.92751637171E+02  0.00000000000E+00 0. -1.
         25    1    1    2    0    0 -0.77865797904E+01  0.17410934941E+00 -0.27245266966E+02  0.12817162600E+03  0.12500000000E+03 0.  0.
         25    1    1    2    0    0  0.77865797904E+01 -0.17410934941E+00  0.24563390673E+03  0.27572028811E+03  0.12500000000E+03 0.  0.
</event>
<event>
 4    0  0.2239279E-002  0.1908117E+03  0.7546771E-02  0.1157731E+00
         21   -1    0    0  502  501  0.00000000000E+00  0.00000000000E+00  0.13446583612E+03  0.13446583612E+03  0.00000000000E+00 0.  1.
         21   -1    0    0  501  502 -0.00000000000E+00 -0.00000000000E+00 -0.27076846983E+03  0.27076846983E+03  0.00000000000E+00 0.  1.
         25    1    1    2    0    0 -0.13361003622E+03  0.38020649754E+02 -0.10909733199E+03  0.21638955482E+03  0.12500000000E+03 0.  0.
         25    1    1    2    0    0  0.13361003622E+03 -0.38020649754E+02 -0.27205301725E+02  0.18884475113E+03  0.12500000000E+03 0.  0.
</event>
<event>
 4    0  0.2239279E-002  0.2890382E+03  0.7546771E-02  0.1090852E+00
         21   -1    0    0  502  501  0.00000000000E+00  0.00000000000E+00  0.80376004096E+02  0.80376004096E+02  0.00000000000E+00 0.  1.
         21   -1    0    0  501  502 -0.00000000000E+00 -0.00000000000E+00 -0.10394033433E+04  0.10394033433E+04  0.00000000000E+00 0.  1.
         25    1    1    2    0    0 -0.11577994430E+03  0.18718316866E+03 -0.74984233425E+03  0.79141080379E+03  0.12500000000E+03 0.  0.
         25    1    1    2    0    0  0.11577994430E+03 -0.18718316866E+03 -0.20918500497E+03  0.32836854362E+03  0.12500000000E+03 0.  0.
</event>
<event>
 4    0  0.2239279E-002  0.2301373E+03  0.7546771E-02  0.1126543E+00
         21   -1    0    0  502  501  0.00000000000E+00  0.00000000000E+00  0.17975436056E+02  0.17975436056E+02  0.00000000000E+00 0.  1.
         21   -1    0    0  501  502 -0.00000000000E+00 -0.00000000000E+00 -0.29464200352E+04  0.29464200352E+04  0.00000000000E+00 0.  1.
         25    1    1    2    0    0 -0.96131062044E+02  0.12872811029E+02 -0.38784474904E+03  0.41887401413E+03  0.12500000000E+03 0.  0.
         25    1    1    2    0    0  0.96131062044E+02 -0.12872811029E+02 -0.25405998501E+04  0.25455214571E+04  0.12500000000E+03 0.  0.
</event>
<event>
 4    0  0.2239279E-002  0.1998099E+03  0.7546771E-02  0.1149899E+00
         21   -1    0    0  502  501  0.00000000000E+00  0.00000000000E+00  0.52526215568E+03  0.52526215568E+03  0.00000000000E+00 0.  1.
         21   -1    0    0  501  502 -0.00000000000E+00 -0.00000000000E+00 -0.76007779877E+02  0.76007779877E+02  0.00000000000E+00 0.  1.
         25    1    1    2    0    0  0.10354446929E+03 -0.11621179764E+03  0.23742705690E+03  0.31019872079E+03  0.12500000000E+03 0.  0.
         25    1    1    2    0    0 -0.10354446929E+03  0.11621179764E+03  0.21182731891E+03  0.29107121477E+03  0.12500000000E+03 0.  0.
</event>
<event>
 4    0  0.2239279E-002  0.1865133E+03  0.7546771E-02  0.1161644E+00
         21   -1    0    0  502  501  0.00000000000E+00  0.00000000000E+00  0.69616096483E+03  0.69616096483E+03  0.00000000000E+00 0. -1.
         21   -1    0    0  501  502 -0.00000000000E+00 -0.00000000000E+00 -0.49970063492E+02  0.49970063492E+02  0.00000000000E+00 0. -1.
         25    1    1    2    0    0  0.74682742845E+02  0.26287657413E+02  0.55021961195E+03  0.56976764948E+03  0.12500000000E+03 0.  0.
         25    1    1    2    0    0 -0.74682742845E+02 -0.26287657413E+02  0.95971289379E+02  0.17636337884E+03  0.12500000000E+03 0.  0.
</event>
<event>
 4    0  0.2239279E-002  0.1961116E+03  0.7546771E-02  0.1153062E+00
         21   -1    0    0  502  501  0.00000000000E+00  0.00000000000E+00  0.18072340360E+03  0.18072340360E+03  0.00000000000E+00 0. -1.
         21   -1    0    0  501  502 -0.00000000000E+00 -0.00000000000E+00 -0.21281005648E+03  0.21281005648E+03  0.00000000000E+00 0. -1.
         25    1    1    2    0    0  0.76887407197E+02 -0.47520375915E+02 -0.13754658431E+03  0.20667346798E+03  0.12500000000E+03 0.  0.
         25    1    1    2    0    0 -0.76887407197E+02  0.47520375915E+02  0.10545993142E+03  0.18685999210E+03  0.12500000000E+03 0.  0.
</event>
<event>
 4    0  0.2239279E-002  0.1721632E+03  0.7546771E-02  0.1175611E+00
         21   -1    0    0  502  501  0.00000000000E+00  0.00000000000E+00  0.61297519737E+02  0.61297519737E+02  0.00000000000E+00 0.  1.
         21   -1    0    0  501  502 -0.00000000000E+00 -0.00000000000E+00 -0.48354615681E+03  0.48354615681E+03  0.00000000000E+00 0.  1.
         25    1    1    2    0    0 -0.66639602671E+02 -0.41648303984E+02 -0.71019540771E+02  0.16384197582E+03  0.12500000000E+03 0.  0.
         25    1    1    2    0    0  0.66639602671E+02  0.41648303984E+02 -0.35122909631E+03  0.38100170073E+03  0.12500000000E+03 0.  0.
</event>
<event>
 4    0  0.2239279E-002  0.3404869E+03  0.7546771E-02  0.1066589E+00
         21   -1    0    0  502  501  0.00000000000E+00  0.00000000000E+00  0.16567638309E+03  0.16567638309E+03  0.00000000000E+00 0. -1.
         21   -1    0    0  501  502 -0.00000000000E+00 -0.00000000000E+00 -0.69974553859E+03  0.69974553859E+03  0.00000000000E+00 0.  1.
         25    1    1    2    0    0 -0.24807906880E+03 -0.15946830229E+03 -0.12029049885E+03  0.34215225839E+03  0.12500000000E+03 0.  0.
         25    1    1    2    0    0  0.24807906880E+03  0.15946830229E+03 -0.41377865665E+03  0.52326966328E+03  0.12500000000E+03 0.  0.
</event>
<event>
 4    0  0.2239279E-002  0.2325845E+03  0.7546771E-02  0.1124834E+00
         21   -1    0    0  502  501  0.00000000000E+00  0.00000000000E+00  0.23797176765E+03  0.23797176765E+03  0.00000000000E+00 0. -1.
         21   -1    0    0  501  502 -0.00000000000E+00 -0.00000000000E+00 -0.22731921262E+03  0.22731921262E+03  0.00000000000E+00 0. -1.
         25    1    1    2    0    0 -0.17458460975E+03 -0.31119036217E+02  0.89147857085E+02  0.23456453441E+03  0.12500000000E+03 0.  0.
         25    1    1    2    0    0  0.17458460975E+03  0.31119036217E+02 -0.78495302057E+02  0.23072644587E+03  0.12500000000E+03 0.  0.
</event>
<event>
 4    0  0.2239279E-002  0.2229393E+03  0.7546771E-02  0.1131710E+00
         21   -1    0    0  502  501  0.00000000000E+00  0.00000000000E+00  0.16682799659E+04  0.16682799659E+04  0.00000000000E+00 0. -1.
         21   -1    0    0  501  502 -0.00000000000E+00 -0.00000000000E+00 -0.29792327907E+02  0.29792327907E+02  0.00000000000E+00 0. -1.
         25    1    1    2    0    0 -0.10403260998E+03  0.10493027340E+03  0.12406467614E+04  0.12556522340E+04  0.12500000000E+03 0.  0.
         25    1    1    2    0    0  0.10403260998E+03 -0.10493027340E+03  0.39784087655E+03  0.44242005975E+03  0.12500000000E+03 0.  0.
</event>
<event>
 4    0  0.2239279E-002  0.3008483E+03  0.7546771E-02  0.1084817E+00
         21   -1    0    0  502  501  0.00000000000E+00  0.00000000000E+00  0.38309529463E+03  0.38309529463E+03  0.00000000000E+00 0. -1.
         21   -1    0    0  501  502 -0.00000000000E+00 -0.00000000000E+00 -0.23625889203E+03  0.23625889203E+03  0.00000000000E+00 0. -1.
         25    1    1    2    0    0  0.75149838311E+02  0.24416545981E+03 -0.27543847253E+02  0.28574102520E+03  0.12500000000E+03 0.  0.
         25    1    1    2    0    0 -0.75149838311E+02 -0.24416545981E+03  0.17438024985E+03  0.33361316146E+03  0.12500000000E+03 0.  0.
</event>
<event>
 4    0  0.2239279E-002  0.2316808E+03  0.7546771E-02  0.1125462E+00
         21   -1    0    0  502  501  0.00000000000E+00  0.00000000000E+00  0.12367581593E+04  0.12367581593E+04  0.00000000000E+00 0. -1.
         21   -1    0    0  501  502 -0.00000000000E+00 -0.00000000000E+00 -0.43400557373E+02  0.43400557373E+02  0.00000000000E+00 0. -1.
         25    1    1    2    0    0 -0.36853839587E+02 -0.17022989625E+03  0.35401798751E+03  0.41387215242E+03  0.12500000000E+03 0.  0.
         25    1    1    2    0    0  0.36853839587E+02  0.17022989625E+03  0.83933961440E+03  0.86628656424E+03  0.12500000000E+03 0.  0.
</event>
<event>
 4    0  0.2239279E-002  0.2426868E+03  0.7546771E-02  0.1118016E+00
         21   -1    0    0  502  501  0.00000000000E+00  0.00000000000E+00  0.16129383903E+03  0.16129383903E+03  0.00000000000E+00 0.  1.
         21   -1    0    0  501  502 -0.00000000000E+00 -0.00000000000E+00 -0.36515284966E+03  0.36515284966E+03  0.00000000000E+00 0.  1.
         25    1    1    2    0    0  0.96772244618E+02  0.17124468044E+03 -0.28508591488E+02  0.23479213721E+03  0.12500000000E+03 0.  0.
         25    1    1    2    0    0 -0.96772244618E+02 -0.17124468044E+03 -0.17535041914E+03  0.29165455148E+03  0.12500000000E+03 0.  0.
</event>
<event>
 4    0  0.2239279E-002  0.2126570E+03  0.7546771E-02  0.1139479E+00
         21   -1    0    0  502  501  0.00000000000E+00  0.00000000000E+00  0.99585400612E+03  0.99585400612E+03  0.00000000000E+00 0.  1.
         21   -1    0    0  501  502 -0.00000000000E+00 -0.00000000000E+00 -0.45411271367E+02  0.45411271367E+02  0.00000000000E+00 0.  1.
         25    1    1    2    0    0  0.14681788384E+02  0.97784777181E+02  0.81989645205E+03  0.83524404197E+03  0.12500000000E+03 0.  0.
         25    1    1    2    0    0 -0.14681788384E+02 -0.97784777181E+02  0.13054628271E+03  0.20602123553E+03  0.12500000000E+03 0.  0.
</event>
<event>
 4    0  0.2239279E-002  0.2180462E+03  0.7546771E-02  0.1135348E+00
         21   -1    0    0  502  501  0.00000000000E+00  0.00000000000E+00  0.31841728505E+03  0.31841728505E+03  0.00000000000E+00 0. -1.
         21   -1    0    0  501  502 -0.00000000000E+00 -0.00000000000E+00 -0.14931401434E+03  0.14931401434E+03  0.00000000000E+00 0. -1.
         25    1    1    2    0    0  0.19559153315E+01 -0.17172646637E+03  0.13737253320E+03  0.25296248286E+03  0.12500000000E+03 0.  0.
         25    1    1    2    0    0 -0.19559153315E+01  0.17172646637E+03  0.31730737510E+02  0.21476881654E+03  0.12500000000E+03 0.  0.
</event>
<event>
 4    0  0.2239279E-002  0.2091160E+03  0.7546771E-02  0.1142268E+00
         21   -1    0    0  502  501  0.00000000000E+00  0.00000000000E+00  0.32319753093E+03  0.32319753093E+03  0.00000000000E+00 0. -1.
         21   -1    0    0  501  502 -0.00000000000E+00 -0.00000000000E+00 -0.13530269870E+03  0.13530269870E+03  0.00000000000E+00 0.  1.
         25    1    1    2    0    0 -0.89183616637E+02  0.21372351024E+02 -0.59899685279E+02  0.16620309011E+03  0.12500000000E+03 0.  0.
         25    1    1    2    0    0  0.89183616637E+02 -0.21372351024E+02  0.24779451751E+03  0.29229713952E+03  0.12500000000E+03 0.  0.
</event>
<event>
 4    0  0.2239279E-002  0.2421529E+03  0.7546771E-02  0.1118367E+00
         21   -1    0    0  502  501  0.00000000000E+00  0.00000000000E+00  0.23262615839E+03  0.23262615839E+03  0.00000000000E+00 0. -1.
         21   -1    0    0  501  502 -0.00000000000E+00 -0.00000000000E+00 -0.25206988295E+03  0.25206988295E+03  0.00000000000E+00 0. -1.
         25    1    1    2    0    0  0.18416144629E+03 -0.92823306241E+02  0.12237646917E+02  0.24146710849E+03  0.12500000000E+03 0.  0.
         25    1    1    2    0    0 -0.18416144629E+03  0.92823306241E+02 -0.31681371473E+02  0.24322893286E+03  0.12500000000E+03 0.  0.
</event>
<event>
 4    0  0.2239279E-002  0.2499561E+03  0.7546771E-02  0.1113333E+00
         21   -1    0    0  502  501  0.00000000000E+00  0.00000000000E+00  0.49264419814E+03  0.49264419814E+03  0.00000000000E+00 0.  1.
         21   -1    0    0  501  502 -0.00000000000E+00 -0.00000000000E+00 -0.12682185504E+03  0.12682185504E+03  0.00000000000E+00 0.  1.
         25    1    1    2    0    0  0.53118023195E+02  0.13414076936E+03 -0.17040832715E+02  0.19165244682E+03  0.12500000000E+03 0.  0.
         25    1    1    2    0    0 -0.53118023195E+02 -0.13414076936E+03  0.38286317581E+03  0.42781360636E+03  0.12500000000E+03 0.  0.
</event>
<event>
 4    0  0.2239279E-002  0.2086382E+03  0.7546771E-02  0.1142649E+00
         21   -1    0    0  502  501  0.00000000000E+00  0.00000000000E+00  0.43983708475E+03  0.43983708475E+03  0.00000000000E+00 0. -1.
         21   -1    0    0  501  502 -0.00000000000E+00 -0.00000000000E+00 -0.98968245997E+02  0.98968245997E+02  0.00000000000E+00 0. -1.
         25    1    1    2    0    0  0.42903998408E+02 -0.16067584797E+03  0.15012354636E+03  0.25655323107E+03  0.12500000000E+03 0.  0.
         25    1    1    2    0    0 -0.42903998408E+02  0.16067584797E+03  0.19074529239E+03  0.28225209968E+03  0.12500000000E+03 0.  0.
</event>
<event>
 4    0  0.2239279E-002  0.2679524E+03  0.7546771E-02  0.1102457E+00
         21   -1    0    0  502  501  0.00000000000E+00  0.00000000000E+00  0.11739073521E+04  0.11739073521E+04  0.00000000000E+00 0. -1.
         21   -1    0    0  501  502 -0.00000000000E+00 -0.00000000000E+00 -0.61161985759E+02  0.61161985759E+02  0.00000000000E+00 0. -1.
         25    1    1    2    0    0 -0.13190478963E+03  0.19601859569E+03  0.59957114576E+03  0.65645466120E+03  0.12500000000E+03 0.  0.
         25    1    1    2    0    0  0.13190478963E+03 -0.19601859569E+03  0.51317422061E+03  0.57861467669E+03  0.12500000000E+03 0.  0.
</event>
<event>
 4    0  0.2239279E-002  0.2295358E+03  0.7546771E-02  0.1126967E+00
         21   -1    0    0  502  501  0.00000000000E+00  0.00000000000E+00  0.12938816107E+03  0.12938816107E+03  0.00000000000E+00 0. -1.
         21   -1    0    0  501  502 -0.00000000000E+00 -0.00000000000E+00 -0.40719856598E+03  0.40719856598E+03  0.00000000000E+00 0. -1.
         25    1    1    2    0    0  0.95652581403E+02 -0.13571252187E+03 -0.25013368338E+02  0.20932743136E+03  0.12500000000E+03 0.  0.
         25    1    1    2    0    0 -0.95652581403E+02  0.13571252187E+03 -0.25279703656E+03  0.32725929569E+03  0.12500000000E+03 0.  0.
</event>
<event>
 4    0  0.2239279E-002  0.2637608E+03  0.7546771E-02  0.1104904E+00
         21   -1    0    0  502  501  0.00000000000E+00  0.00000000000E+00  0.52826068939E+03  0.52826068939E+03  0.00000000000E+00 0. -1.
         21   -1    0    0  501  502 -0.00000000000E+00 -0.00000000000E+00 -0.13169588891E+03  0.13169588891E+03  0.00000000000E+00 0. -1.
         25    1    1    2    0    0  0.22714109549E+03 -0.23169972522E+02  0.25157830326E+03  0.36200354633E+03  0.12500000000E+03 0.  0.
         25    1    1    2    0    0 -0.22714109549E+03  0.23169972522E+02  0.14498649722E+03  0.29795303197E+03  0.12500000000E+03 0.  0.
</event>
<event>
 4    0  0.2239279E-002  0.4142771E+03  0.7546771E-02  0.1038945E+00
         21   -1    0    0  502  501  0.00000000000E+00  0.00000000000E+00  0.11542875447E+04  0.11542875447E+04  0.00000000000E+00 0.  1.
         21   -1    0    0  501  502 -0.00000000000E+00 -0.00000000000E+00 -0.14868522847E+03  0.14868522847E+03  0.00000000000E+00 0.  1.
         25    1    1    2    0    0 -0.74052545390E+02 -0.11751199482E+03  0.10842491183E+04  0.11002336110E+04  0.12500000000E+03 0.  0.
         25    1    1    2    0    0  0.74052545390E+02  0.11751199482E+03 -0.78646802011E+02  0.20273916216E+03  0.12500000000E+03 0.  0.
</event>
<event>
 4    0  0.2239279E-002  0.2137076E+03  0.7546771E-02  0.1138663E+00
         21   -1    0    0  502  501  0.00000000000E+00  0.00000000000E+00  0.91895172348E+02  0.91895172348E+02  0.00000000000E+00 0. -1.
         21   -1    0    0  501  502 -0.00000000000E+00 -0.00000000000E+00 -0.49698955338E+03  0.49698955338E+03  0.00000000000E+00 0. -1.
         25    1    1    2    0    0 -0.73169070427E+02  0.10198896627E+02  0.13497588441E+02  0.14582494729E+03  0.12500000000E+03 0.  0.
         25    1    1    2    0    0  0.73169070427E+02 -0.10198896627E+02 -0.41859196947E+03  0.44305977844E+03  0.12500000000E+03 0.  0.
</event>
<event>
 4    0  0.2239279E-002  0.1816783E+03  0.7546771E-02  0.1166189E+00
         21   -1    0    0  502  501  0.00000000000E+00  0.00000000000E+00  0.91393816834E+02  0.91393816834E+02  0.00000000000E+00 0.  1.
         21   -1    0    0  501  502 -0.00000000000E+00 -0.00000000000E+00 -0.36115128999E+03  0.36115128999E+03  0.00000000000E+00 0.  1.
         25    1    1    2    0    0 -0.47063154324E+02 -0.24932024421E+02  0.15329049029E+02  0.13673524082E+03  0.12500000000E+03 0.  0.
         25    1    1    2    0    0  0.47063154324E+02  0.24932024421E+02 -0.28508652219E+03  0.31580986601E+03  0.12500000000E+03 0.  0.
</event>
<event>
 4    0  0.2239279E-002  0.2166880E+03  0.7546771E-02  0.1136377E+00
         21   -1    0    0  502  501  0.00000000000E+00  0.00000000000E+00  0.31312617657E+03  0.31312617657E+03  0.00000000000E+00 0. -1.
         21   -1    0    0  501  502 -0.00000000000E+00 -0.00000000000E+00 -0.14995137535E+03  0.14995137535E+03  0.00000000000E+00 0. -1.
         25    1    1    2    0    0 -0.76527218179E+02  0.75778556938E+02  0.23167721378E+03  0.28442597666E+03  0.12500000000E+03 0.  0.
         25    1    1    2    0    0  0.76527218179E+02 -0.75778556938E+02 -0.68502412559E+02  0.17865157525E+03  0.12500000000E+03 0.  0.
</event>
<event>
 4    0  0.2239279E-002  0.1840521E+03  0.7546771E-02  0.1163938E+00
         21   -1    0    0  502  501  0.00000000000E+00  0.00000000000E+00  0.21587215081E+03  0.21587215081E+03  0.00000000000E+00 0.  1.
         21   -1    0    0  501  502 -0.00000000000E+00 -0.00000000000E+00 -0.15692239748E+03  0.15692239748E+03  0.00000000000E+00 0.  1.
         25    1    1    2    0    0  0.11308742766E+03  0.13176443978E+02  0.10311862747E+03  0.19804251135E+03  0.12500000000E+03 0.  0.
         25    1    1    2    0    0 -0.11308742766E+03 -0.13176443978E+02 -0.44168874142E+02  0.17475203694E+03  0.12500000000E+03 0.  0.
</event>
<event>
 4    0  0.2239279E-002  0.2363095E+03  0.7546771E-02  0.1122276E+00
         21   -1    0    0  502  501  0.00000000000E+00  0.00000000000E+00  0.12921345583E+03  0.12921345583E+03  0.00000000000E+00 0. -1.
         21   -1    0    0  501  502 -0.00000000000E+00 -0.00000000000E+00 -0.43217012680E+03  0.43217012680E+03  0.00000000000E+00 0. -1.
         25    1    1    2    0    0 -0.59051165153E+02 -0.11947268556E+03 -0.32947786531E+03  0.37675114655E+03  0.12500000000E+03 0.  0.
         25    1    1    2    0    0  0.59051165153E+02  0.11947268556E+03  0.26521194345E+02  0.18463243607E+03  0.12500000000E+03 0.  0.
</event>
<event>
 4    0  0.2239279E-002  0.2219901E+03  0.7546771E-02  0.1132408E+00
         21   -1    0    0  502  501  0.00000000000E+00  0.00000000000E+00  0.13598362032E+03  0.13598362032E+03  0.00000000000E+00 0. -1.
         21   -1    0    0  501  502 -0.00000000000E+00 -0.00000000000E+00 -0.36239355208E+03  0.36239355208E+03  0.00000000000E+00 0. -1.
         25    1    1    2    0    0  0.10065289509E+03 -0.14885486795E+03 -0.15468984125E+03  0.26803493054E+03  0.12500000000E+03 0.  0.
         25    1    1    2    0    0 -0.10065289509E+03  0.14885486795E+03 -0.71720090504E+02  0.23034224186E+03  0.12500000000E+03 0.  0.
</event>
<event>
 4    0  0.2239279E-002  0.2407294E+03  0.7546771E-02  0.1119308E+00
         21   -1    0    0  502  501  0.00000000000E+00  0.00000000000E+00  0.39694541031E+03  0.39694541031E+03  0.00000000000E+00 0. -1.
         21   -1    0    0  501  502 -0.00000000000E+00 -0.00000000000E+00 -0.14599145817E+03  0.14599145817E+03  0.00000000000E+00 0. -1.
         25    1    1    2    0    0 -0.34511391378E+02  0.14448486515E+03  0.28598483337E+03  0.34565768805E+03  0.12500000000E+03 0.  0.
         25    1    1    2    0    0  0.34511391378E+02 -0.14448486515E+03 -0.35030881225E+02  0.19727918043E+03  0.12500000000E+03 0.  0.
</event>
<event>
 4    0  0.2239279E-002  0.1939488E+03  0.7546771E-02  0.1154947E+00
         21   -1    0    0  502  501  0.00000000000E+00  0.00000000000E+00  0.31329251646E+03  0.31329251646E+03  0.00000000000E+00 0.  1.
         21   -1    0    0  501  502 -0.00000000000E+00 -0.00000000000E+00 -0.12006711844E+03  0.12006711844E+03  0.00000000000E+00 0.  1.
         25    1    1    2    0    0  0.11778861011E+03 -0.83208572744E+02  0.58019800542E+02  0.19947210458E+03  0.12500000000E+03 0.  0.
         25    1    1    2    0    0 -0.11778861011E+03  0.83208572744E+02  0.13520559748E+03  0.23388753032E+03  0.12500000000E+03 0.  0.
</event>
<event>
 4    0  0.2239279E-002  0.1821373E+03  0.7546771E-02  0.1165750E+00
         21   -1    0    0  502  501  0.00000000000E+00  0.00000000000E+00  0.36453508254E+03  0.36453508254E+03  0.00000000000E+00 0.  1.
         21   -1    0    0  501  502 -0.00000000000E+00 -0.00000000000E+00 -0.91003622749E+02  0.91003622749E+02  0.00000000000E+00 0.  1.
         25    1    1    2    0    0  0.24573125266E+02 -0.11056461476E+03  0.22268622094E+03  0.27936092339E+03  0.12500000000E+03 0.  0.
         25    1    1    2    0    0 -0.24573125266E+02  0.11056461476E+03  0.50845238854E+02  0.17617778190E+03  0.12500000000E+03 0.  0.
</event>
<event>
 4    0  0.2239279E-002  0.2212527E+03  0.7546771E-02  0.1132953E+00
         21   -1    0    0  502  501  0.00000000000E+00  0.00000000000E+00  0.49233085356E+02  0.49233085356E+02  0.00000000000E+00 0. -1.
         21   -1    0    0  501  502 -0.00000000000E+00 -0.00000000000E+00 -0.99430599217E+03  0.99430599217E+03  0.00000000000E+00 0. -1.
         25    1    1    2    0    0  0.10974355130E+03 -0.96876050310E+02 -0.72978200482E+03  0.75474193652E+03  0.12500000000E+03 0.  0.
         25    1    1    2    0    0 -0.10974355130E+03  0.96876050310E+02 -0.21529090200E+03  0.28879714101E+03  0.12500000000E+03 0.  0.
</event>
<event>
 4    0  0.2239279E-002  0.1780903E+03  0.7546771E-02  0.1169664E+00
         21   -1    0    0  502  501  0.00000000000E+00  0.00000000000E+00  0.89047796897E+02  0.89047796897E+02  0.00000000000E+00 0. -1.
         21   -1    0    0  501  502 -0.00000000000E+00 -0.00000000000E+00 -0.35617020716E+03  0.35617020716E+03  0.00000000000E+00 0. -1.
         25    1    1    2    0    0  0.68436835895E+02  0.92665449146E+02 -0.19994769906E+03  0.26243964703E+03  0.12500000000E+03 0.  0.
         25    1    1    2    0    0 -0.68436835895E+02 -0.92665449146E+02 -0.67174711203E+02  0.18277835703E+03  0.12500000000E+03 0.  0.
</event>
<event>
 4    0  0.2239279E-002  0.1620808E+03  0.7546771E-02  0.1186367E+00
         21   -1    0    0  502  501  0.00000000000E+00  0.00000000000E+00  0.15481861372E+03  0.15481861372E+03  0.00000000000E+00 0. -1.
         21   -1    0    0  501  502 -0.00000000000E+00 -0.00000000000E+00 -0.16968370465E+03  0.16968370465E+03  0.00000000000E+00 0. -1.
         25    1    1    2    0    0 -0.95326811141E+02 -0.39411836849E+02 -0.96032610495E+01  0.16235059725E+03  0.12500000000E+03 0.  0.
         25    1    1    2    0    0  0.95326811141E+02  0.39411836849E+02 -0.52618298782E+01  0.16215172111E+03  0.12500000000E+03 0.  0.
</event>
<event>
 4    0  0.2239279E-002  0.1955231E+03  0.7546771E-02  0.1153572E+00
         21   -1    0    0  502  501  0.00000000000E+00  0.00000000000E+00  0.10595263678E+03  0.10595263678E+03  0.00000000000E+00 0.  1.
         21   -1    0    0  501  502 -0.00000000000E+00 -0.00000000000E+00 -0.36081477091E+03  0.36081477091E+03  0.00000000000E+00 0.  1.
         25    1    1    2    0    0  0.34693530282E+02  0.14315624329E+03 -0.16337770313E+03  0.25301111619E+03  0.12500000000E+03 0.  0.
         25    1    1    2    0    0 -0.34693530282E+02 -0.14315624329E+03 -0.91484430999E+02  0.21375629149E+03  0.12500000000E+03 0.  0.
</event>
<event>
 4    0  0.2239279E-002  0.2005967E+03  0.7546771E-02  0.1149237E+00
         21   -1    0    0  502  501  0.00000000000E+00  0.00000000000E+00  0.87946733129E+02  0.87946733129E+02  0.00000000000E+00 0.  1.
         21   -1    0    0  501  502 -0.00000000000E+00 -0.00000000000E+00 -0.45753865598E+03  0.45753865598E+03  0.00000000000E+00 0.  1.
         25    1    1    2    0    0 -0.65464320577E+01 -0.15130539819E+03 -0.12910226516E+03  0.23500760448E+03  0.12500000000E+03 0.  0.
         25    1    1    2    0    0  0.65464320577E+01  0.15130539819E+03 -0.24048965769E+03  0.31047778463E+03  0.12500000000E+03 0.  0.
</event>
<event>
 4    0  0.2239279E-002  0.3635560E+03  0.7546771E-02  0.1057185E+00
         21   -1    0    0  502  501  0.00000000000E+00  0.00000000000E+00  0.12960078927E+04  0.12960078927E+04  0.00000000000E+00 0.  1.
         21   -1    0    0  501  502 -0.00000000000E+00 -0.00000000000E+00 -0.10198467086E+03  0.10198467086E+03  0.00000000000E+00 0.  1.
         25    1    1    2    0    0 -0.24805496004E+03 -0.10261064425E+03  0.10025422951E+04  0.10453593932E+04  0.12500000000E+03 0.  0.
         25    1    1    2    0    0  0.24805496004E+03  0.10261064425E+03  0.19148092670E+03  0.35263317031E+03  0.12500000000E+03 0.  0.
</event>
<event>
 4    0  0.2239279E-002  0.3203278E+03  0.7546771E-02  0.1075499E+00
         21   -1    0    0  502  501  0.00000000000E+00  0.00000000000E+00  0.13737034318E+04  0.13737034318E+04  0.00000000000E+00 0. -1.
         21   -1    0    0  501  502 -0.00000000000E+00 -0.00000000000E+00 -0.74695811476E+02  0.74695811476E+02  0.00000000000E+00 0. -1.
         25    1    1    2    0    0  0.28679827394E+03 -0.67781361071E+02  0.62300990639E+03  0.70043836724E+03  0.12500000000E+03 0.  0.
         25    1    1    2    0    0 -0.28679827394E+03  0.67781361071E+02  0.67599771398E+03  0.74796087608E+03  0.12500000000E+03 0.  0.
</event>
<event>
 4    0  0.2239279E-002  0.2154576E+03  0.7546771E-02  0.1137316E+00
         21   -1    0    0  502  501  0.00000000000E+00  0.00000000000E+00  0.16035988574E+03  0.16035988574E+03  0.00000000000E+00 0. -1.
         21   -1    0    0  501  502 -0.00000000000E+00 -0.00000000000E+00 -0.28948615734E+03  0.28948615734E+03  0.00000000000E+00 0. -1.
         25    1    1    2    0    0  0.84228285149E+02 -0.14469880851E+03 -0.96715969064E+01  0.20916665363E+03  0.12500000000E+03 0.  0.
         25    1    1    2    0    0 -0.84228285149E+02  0.14469880851E+03 -0.11945467469E+03  0.24067938945E+03  0.12500000000E+03 0.  0.
</event>
<event>
 4    0  0.2239279E-002  0.2947807E+03  0.7546771E-02  0.1087879E+00
         21   -1    0    0  502  501  0.00000000000E+00  0.00000000000E+00  0.35044809849E+02  0.35044809849E+02  0.00000000000E+00 0. -1.
         21   -1    0    0  501  502 -0.00000000000E+00 -0.00000000000E+00 -0.24795591418E+04  0.24795591418E+04  0.00000000000E+00 0. -1.
         25    1    1    2    0    0 -0.15754477079E+03  0.15221389600E+03 -0.57146294155E+03  0.62464735532E+03  0.12500000000E+03 0.  0.
         25    1    1    2    0    0  0.15754477079E+03 -0.15221389600E+03 -0.18730513904E+04  0.18899565963E+04  0.12500000000E+03 0.  0.
</event>
<event>
 4    0  0.2239279E-002  0.4235606E+03  0.7546771E-02  0.1035914E+00
         21   -1    0    0  502  501  0.00000000000E+00  0.00000000000E+00  0.20848361493E+04  0.20848361493E+04  0.00000000000E+00 0. -1.
         21   -1    0    0  501  502 -0.00000000000E+00 -0.00000000000E+00 -0.86051645367E+02  0.86051645367E+02  0.00000000000E+00 0. -1.
         25    1    1    2    0    0 -0.13637800724E+03 -0.37488391423E+02  0.27691880546E+02  0.19077783047E+03  0.12500000000E+03 0.  0.
         25    1    1    2    0    0  0.13637800724E+03  0.37488391423E+02  0.19710926234E+04  0.19801099642E+04  0.12500000000E+03 0.  0.
</event>
<event>
 4    0  0.2239279E-002  0.5274356E+03  0.7546771E-02  0.1006856E+00
         21   -1    0    0  502  501  0.00000000000E+00  0.00000000000E+00  0.58266286720E+03  0.58266286720E+03  0.00000000000E+00 0. -1.
         21   -1    0    0  501  502 -0.00000000000E+00 -0.00000000000E+00 -0.47744297622E+03  0.47744297622E+03  0.00000000000E+00 0.  1.
         25    1    1    2    0    0 -0.19045248619E+02 -0.51132780412E+03  0.80029929188E+02  0.53277446854E+03  0.12500000000E+03 0.  0.
         25    1    1    2    0    0  0.19045248619E+02  0.51132780412E+03  0.25189961794E+02  0.52733137488E+03  0.12500000000E+03 0.  0.
</event>
<event>
 4    0  0.2239279E-002  0.2998743E+03  0.7546771E-02  0.1085303E+00
         21   -1    0    0  502  501  0.00000000000E+00  0.00000000000E+00  0.64520820487E+03  0.64520820487E+03  0.00000000000E+00 0. -1.
         21   -1    0    0  501  502 -0.00000000000E+00 -0.00000000000E+00 -0.13937295454E+03  0.13937295454E+03  0.00000000000E+00 0. -1.
         25    1    1    2    0    0  0.15964603170E+03 -0.18242023785E+03  0.41597196177E+03  0.49741498932E+03  0.12500000000E+03 0.  0.
         25    1    1    2    0    0 -0.15964603170E+03  0.18242023785E+03  0.89863288547E+02  0.28716617009E+03  0.12500000000E+03 0.  0.
</event>
<event>
 4    0  0.2239279E-002  0.2109523E+03  0.7546771E-02  0.1140814E+00
         21   -1    0    0  502  501  0.00000000000E+00  0.00000000000E+00  0.26089336946E+03  0.26089336946E+03  0.00000000000E+00 0.  1.
         21   -1    0    0  501  502 -0.00000000000E+00 -0.00000000000E+00 -0.17057117405E+03  0.17057117405E+03  0.00000000000E+00 0.  1.
         25    1    1    2    0    0 -0.15702802850E+03 -0.60154131840E+02  0.70201981003E+02  0.22097429590E+03  0.12500000000E+03 0.  0.
         25    1    1    2    0    0  0.15702802850E+03  0.60154131840E+02  0.20120214407E+02  0.21049024761E+03  0.12500000000E+03 0.  0.
</event>
<event>
 4    0  0.2239279E-002  0.2802767E+03  0.7546771E-02  0.1095538E+00
         21   -1    0    0  502  501  0.00000000000E+00  0.00000000000E+00  0.36207717433E+03  0.36207717433E+03  0.00000000000E+00 0. -1.
         21   -1    0    0  501  502 -0.00000000000E+00 -0.00000000000E+00 -0.21695653021E+03  0.21695653021E+03  0.00000000000E+00 0. -1.
         25    1    1    2    0    0 -0.20356153393E+03  0.14535468790E+03  0.92287687663E+02  0.29446103424E+03  0.12500000000E+03 0.  0.
         25    1    1    2    0    0  0.20356153393E+03 -0.14535468790E+03  0.52832956462E+02  0.28457267030E+03  0.12500000000E+03 0.  0.
</event>
<event>
 4    0  0.2239279E-002  0.2672280E+03  0.7546771E-02  0.1102877E+00
         21   -1    0    0  502  501  0.00000000000E+00  0.00000000000E+00  0.80457494600E+03  0.80457494600E+03  0.00000000000E+00 0. -1.
         21   -1    0    0  501  502 -0.00000000000E+00 -0.00000000000E+00 -0.88755912314E+02  0.88755912314E+02  0.00000000000E+00 0. -1.
         25    1    1    2    0    0 -0.10426675818E+03  0.20075816488E+03  0.24441651764E+03  0.35572437606E+03  0.12500000000E+03 0.  0.
         25    1    1    2    0    0  0.10426675818E+03 -0.20075816488E+03  0.47140251604E+03  0.53760648225E+03  0.12500000000E+03 0.  0.
</event>
<event>
 4    0  0.2239279E-002  0.2594753E+03  0.7546771E-02  0.1107459E+00
         21   -1    0    0  502  501  0.00000000000E+00  0.00000000000E+00  0.29463005115E+03  0.29463005115E+03  0.00000000000E+00 0. -1.
         21   -1    0    0  501  502 -0.00000000000E+00 -0.00000000000E+00 -0.22851511147E+03  0.22851511147E+03  0.00000000000E+00 0. -1.
         25    1    1    2    0    0 -0.10273799583E+03  0.19236918465E+03 -0.31816559531E+02  0.25337381958E+03  0.12500000000E+03 0.  0.
         25    1    1    2    0    0  0.10273799583E+03 -0.19236918465E+03  0.97931499213E+02  0.26977134304E+03  0.12500000000E+03 0.  0.
</event>
<event>
 4    0  0.2239279E-002  0.1814976E+03  0.7546771E-02  0.1166361E+00
         21   -1    0    0  502  501  0.00000000000E+00  0.00000000000E+00  0.26090620087E+03  0.26090620087E+03  0.00000000000E+00 0. -1.
         21   -1    0    0  501  502 -0.00000000000E+00 -0.00000000000E+00 -0.12625760074E+03  0.12625760074E+03  0.00000000000E+00 0. -1.
         25    1    1    2    0    0  0.11812014768E+03 -0.10109457412E+02  0.12823923911E+03  0.21476701997E+03  0.12500000000E+03 0.  0.
         25    1    1    2    0    0 -0.11812014768E+03  0.10109457412E+02  0.64093610153E+01  0.17239678165E+03  0.12500000000E+03 0.  0.
</event>
<event>
 4    0  0.2239279E-002  0.3426123E+03  0.7546771E-02  0.1065689E+00
         21   -1    0    0  502  501  0.00000000000E+00  0.00000000000E+00  0.13478242233E+04  0.13478242233E+04  0.00000000000E+00 0.  1.
         21   -1    0    0  501  502 -0.00000000000E+00 -0.00000000000E+00 -0.87090894286E+02  0.87090894286E+02  0.00000000000E+00 0.  1.
         25    1    1    2    0    0  0.76642736255E+02  0.66476227345E+02 -0.29497239969E+01  0.16101831788E+03  0.12500000000E+03 0.  0.
         25    1    1    2    0    0 -0.76642736255E+02 -0.66476227345E+02  0.12636830530E+04  0.12738967997E+04  0.12500000000E+03 0.  0.
</event>
<event>
 4    0  0.2239279E-002  0.2065911E+03  0.7546771E-02  0.1144294E+00
         21   -1    0    0  502  501  0.00000000000E+00  0.00000000000E+00  0.43439821323E+02  0.43439821323E+02  0.00000000000E+00 0. -1.
         21   -1    0    0  501  502 -0.00000000000E+00 -0.00000000000E+00 -0.98250610778E+03  0.98250610778E+03  0.00000000000E+00 0. -1.
         25    1    1    2    0    0  0.28971675520E+02  0.14414081057E+03 -0.65265522024E+03  0.68058781047E+03  0.12500000000E+03 0.  0.
         25    1    1    2    0    0 -0.28971675520E+02 -0.14414081057E+03 -0.28641106621E+03  0.34535811863E+03  0.12500000000E+03 0.  0.
</event>
<event>
 4    0  0.2239279E-002  0.2581864E+03  0.7546771E-02  0.1108238E+00
         21   -1    0    0  502  501  0.00000000000E+00  0.00000000000E+00  0.82474209514E+02  0.82474209514E+02  0.00000000000E+00 0. -1.
         21   -1    0    0  501  502 -0.00000000000E+00 -0.00000000000E+00 -0.80825540742E+03  0.80825540742E+03  0.00000000000E+00 0. -1.
         25    1    1    2    0    0  0.20428869646E+03  0.21163518536E+02 -0.52519825901E+03  0.57761576959E+03  0.12500000000E+03 0.  0.
         25    1    1    2    0    0 -0.20428869646E+03 -0.21163518536E+02 -0.20058293889E+03  0.31311384733E+03  0.12500000000E+03 0.  0.
</event>
<event>
 4    0  0.2239279E-002  0.2153887E+03  0.7546771E-02  0.1137368E+00
         21   -1    0    0  502  501  0.00000000000E+00  0.00000000000E+00  0.65124023551E+03  0.65124023551E+03  0.00000000000E+00 0.  1.
         21   -1    0    0  501  502 -0.00000000000E+00 -0.00000000000E+00 -0.71236830509E+02  0.71236830509E+02  0.00000000000E+00 0.  1.
         25    1    1    2    0    0  0.60523809304E+02 -0.15219887765E+03  0.39527071729E+03  0.44574832563E+03  0.12500000000E+03 0.  0.
         25    1    1    2    0    0 -0.60523809304E+02  0.15219887765E+03  0.18473268771E+03  0.27672874039E+03  0.12500000000E+03 0.  0.
</event>
<event>
 4    0  0.2239279E-002  0.2019069E+03  0.7546771E-02  0.1148140E+00
         21   -1    0    0  502  501  0.00000000000E+00  0.00000000000E+00  0.16885549874E+03  0.16885549874E+03  0.00000000000E+00 0.  1.
         21   -1    0    0  501  502 -0.00000000000E+00 -0.00000000000E+00 -0.24142768372E+03  0.24142768372E+03  0.00000000000E+00 0.  1.
         25    1    1    2    0    0 -0.76552188745E+02  0.11955249658E+03 -0.10804589822E+03  0.21783469229E+03  0.12500000000E+03 0.  0.
         25    1    1    2    0    0  0.76552188745E+02 -0.11955249658E+03  0.35473713242E+02  0.19244849018E+03  0.12500000000E+03 0.  0.
</event>
<event>
 4    0  0.2239279E-002  0.2175639E+03  0.7546771E-02  0.1135712E+00
         21   -1    0    0  502  501  0.00000000000E+00  0.00000000000E+00  0.45674475892E+03  0.45674475892E+03  0.00000000000E+00 0. -1.
         21   -1    0    0  501  502 -0.00000000000E+00 -0.00000000000E+00 -0.10363348702E+03  0.10363348702E+03  0.00000000000E+00 0. -1.
         25    1    1    2    0    0  0.67324483917E+02  0.15651555782E+03  0.24321771211E+03  0.32219491222E+03  0.12500000000E+03 0.  0.
         25    1    1    2    0    0 -0.67324483917E+02 -0.15651555782E+03  0.10989355978E+03  0.23818333371E+03  0.12500000000E+03 0.  0.
</event>
<event>
 4    0  0.2239279E-002  0.2479988E+03  0.7546771E-02  0.1114576E+00
         21   -1    0    0  502  501  0.00000000000E+00  0.00000000000E+00  0.80441774623E+02  0.80441774623E+02  0.00000000000E+00 0. -1.
         21   -1    0    0  501  502 -0.00000000000E+00 -0.00000000000E+00 -0.76457057083E+03  0.76457057083E+03  0.00000000000E+00 0. -1.
         25    1    1    2    0    0  0.45482656096E+01  0.16857962775E+03 -0.11708657848E+03  0.24036231916E+03  0.12500000000E+03 0.  0.
         25    1    1    2    0    0 -0.45482656096E+01 -0.16857962775E+03 -0.56704221773E+03  0.60465002630E+03  0.12500000000E+03 0.  0.
</event>
<event>
 4    0  0.2239279E-002  0.1695283E+03  0.7546771E-02  0.1178341E+00
         21   -1    0    0  502  501  0.00000000000E+00  0.00000000000E+00  0.44374083590E+02  0.44374083590E+02  0.00000000000E+00 0. -1.
         21   -1    0    0  501  502 -0.00000000000E+00 -0.00000000000E+00 -0.64767146501E+03  0.64767146501E+03  0.00000000000E+00 0. -1.
         25    1    1    2    0    0  0.64439491445E+02 -0.35324063644E+02 -0.12237397845E+03  0.18973831488E+03  0.12500000000E+03 0.  0.
         25    1    1    2    0    0 -0.64439491445E+02  0.35324063644E+02 -0.48092340296E+03  0.50230723372E+03  0.12500000000E+03 0.  0.
</event>
<event>
 4    0  0.2239279E-002  0.2402819E+03  0.7546771E-02  0.1119605E+00
         21   -1    0    0  502  501  0.00000000000E+00  0.00000000000E+00  0.12406382622E+03  0.12406382622E+03  0.00000000000E+00 0. -1.
         21   -1    0    0  501  502 -0.00000000000E+00 -0.00000000000E+00 -0.46536831014E+03  0.46536831014E+03  0.00000000000E+00 0. -1.
         25    1    1    2    0    0  0.39448915280E+02  0.16893998643E+03 -0.30508851615E+03  0.37255997989E+03  0.12500000000E+03 0.  0.
         25    1    1    2    0    0 -0.39448915280E+02 -0.16893998643E+03 -0.36215967767E+02  0.21687215647E+03  0.12500000000E+03 0.  0.
</event>
<event>
 4    0  0.2239279E-002  0.1682416E+03  0.7546771E-02  0.1179694E+00
         21   -1    0    0  502  501  0.00000000000E+00  0.00000000000E+00  0.78547867976E+03  0.78547867976E+03  0.00000000000E+00 0.  1.
         21   -1    0    0  501  502 -0.00000000000E+00 -0.00000000000E+00 -0.36035645301E+02  0.36035645301E+02  0.00000000000E+00 0.  1.
         25    1    1    2    0    0 -0.94496523246E+02  0.46841711379E+02  0.27839956505E+03  0.32288551632E+03  0.12500000000E+03 0.  0.
         25    1    1    2    0    0  0.94496523246E+02 -0.46841711379E+02  0.47104346941E+03  0.49862880874E+03  0.12500000000E+03 0.  0.
</event>
<event>
 4    0  0.2239279E-002  0.2262337E+03  0.7546771E-02  0.1129319E+00
         21   -1    0    0  502  501  0.00000000000E+00  0.00000000000E+00  0.28641234410E+03  0.28641234410E+03  0.00000000000E+00 0.  1.
         21   -1    0    0  501  502 -0.00000000000E+00 -0.00000000000E+00 -0.17869923421E+03  0.17869923421E+03  0.00000000000E+00 0.  1.
         25    1    1    2    0    0  0.47436509779E+02  0.10668478113E+03  0.20606466008E+03  0.26780498337E+03  0.12500000000E+03 0.  0.
         25    1    1    2    0    0 -0.47436509779E+02 -0.10668478113E+03 -0.98351550183E+02  0.19730659495E+03  0.12500000000E+03 0.  0.
</event>
<event>
 4    0  0.2239279E-002  0.2621682E+03  0.7546771E-02  0.1105847E+00
         21   -1    0    0  502  501  0.00000000000E+00  0.00000000000E+00  0.21444684865E+03  0.21444684865E+03  0.00000000000E+00 0. -1.
         21   -1    0    0  501  502 -0.00000000000E+00 -0.00000000000E+00 -0.32050914668E+03  0.32050914668E+03  0.00000000000E+00 0. -1.
         25    1    1    2    0    0  0.89070662403E+02  0.20888662016E+03 -0.93068435632E+02  0.27541593399E+03  0.12500000000E+03 0.  0.
         25    1    1    2    0    0 -0.89070662403E+02 -0.20888662016E+03 -0.12993862405E+02  0.25954006135E+03  0.12500000000E+03 0.  0.
</event>
<event>
 4    0  0.2239279E-002  0.2303386E+03  0.7546771E-02  0.1126402E+00
         21   -1    0    0  502  501  0.00000000000E+00  0.00000000000E+00  0.16078139076E+04  0.16078139076E+04  0.00000000000E+00 0. -1.
         21   -1    0    0  501  502 -0.00000000000E+00 -0.00000000000E+00 -0.32998761871E+02  0.32998761871E+02  0.00000000000E+00 0. -1.
         25    1    1    2    0    0 -0.73451114881E+02 -0.60355690525E+02  0.18724642601E+03  0.24438514626E+03  0.12500000000E+03 0.  0.
         25    1    1    2    0    0  0.73451114881E+02  0.60355690525E+02  0.13875687198E+04  0.13964275233E+04  0.12500000000E+03 0.  0.
</event>
<event>
 4    0  0.2239279E-002  0.2135881E+03  0.7546771E-02  0.1138756E+00
         21   -1    0    0  502  501  0.00000000000E+00  0.00000000000E+00  0.19085909159E+03  0.19085909159E+03  0.00000000000E+00 0. -1.
         21   -1    0    0  501  502 -0.00000000000E+00 -0.00000000000E+00 -0.23902387876E+03  0.23902387876E+03  0.00000000000E+00 0. -1.
         25    1    1    2    0    0  0.13265907648E+03  0.10152166344E+03 -0.70086405573E+02  0.22009584950E+03  0.12500000000E+03 0.  0.
         25    1    1    2    0    0 -0.13265907648E+03 -0.10152166344E+03  0.21921618402E+02  0.20978712085E+03  0.12500000000E+03 0.  0.
</event>
<event>
 4    0  0.2239279E-002  0.2544499E+03  0.7546771E-02  0.1110524E+00
         21   -1    0    0  502  501  0.00000000000E+00  0.00000000000E+00  0.26533760206E+03  0.26533760206E+03  0.00000000000E+00 0. -1.
         21   -1    0    0  501  502 -0.00000000000E+00 -0.00000000000E+00 -0.24400899222E+03  0.24400899222E+03  0.00000000000E+00 0. -1.
         25    1    1    2    0    0 -0.99124182378E+02 -0.16931395207E+03  0.11384186903E+03  0.25899380117E+03  0.12500000000E+03 0.  0.
         25    1    1    2    0    0  0.99124182378E+02  0.16931395207E+03 -0.92513259193E+02  0.25035279312E+03  0.12500000000E+03 0.  0.
</event>
<event>
 4    0  0.2239279E-002  0.3796709E+03  0.7546771E-02  0.1051055E+00
         21   -1    0    0  502  501  0.00000000000E+00  0.00000000000E+00  0.36364171482E+03  0.36364171482E+03  0.00000000000E+00 0. -1.
         21   -1    0    0  501  502 -0.00000000000E+00 -0.00000000000E+00 -0.39640657014E+03  0.39640657014E+03  0.00000000000E+00 0. -1.
         25    1    1    2    0    0 -0.14589561711E+03  0.32460112746E+03  0.26942278059E+02  0.37815646152E+03  0.12500000000E+03 0.  0.
         25    1    1    2    0    0  0.14589561711E+03 -0.32460112746E+03 -0.59707133380E+02  0.38189182345E+03  0.12500000000E+03 0.  0.
</event>
<event>
 4    0  0.2239279E-002  0.2166518E+03  0.7546771E-02  0.1136404E+00
         21   -1    0    0  502  501  0.00000000000E+00  0.00000000000E+00  0.12347921312E+04  0.12347921312E+04  0.00000000000E+00 0.  1.
         21   -1    0    0  501  502 -0.00000000000E+00 -0.00000000000E+00 -0.38012865016E+02  0.38012865016E+02  0.00000000000E+00 0.  1.
         25    1    1    2    0    0 -0.56278696250E+02 -0.65360027800E+01  0.10908211042E+04  0.10994206166E+04  0.12500000000E+03 0.  0.
         25    1    1    2    0    0  0.56278696250E+02  0.65360027800E+01  0.10595816201E+03  0.17338437957E+03  0.12500000000E+03 0.  0.
</event>
<event>
 4    0  0.2239279E-002  0.1825298E+03  0.7546771E-02  0.1165377E+00
         21   -1    0    0  502  501  0.00000000000E+00  0.00000000000E+00  0.10088521861E+04  0.10088521861E+04  0.00000000000E+00 0.  1.
         21   -1    0    0  501  502 -0.00000000000E+00 -0.00000000000E+00 -0.33024788031E+02  0.33024788031E+02  0.00000000000E+00 0.  1.
         25    1    1    2    0    0 -0.48279306782E+02 -0.97192754261E+02  0.70740783984E+03  0.72651784205E+03  0.12500000000E+03 0.  0.
         25    1    1    2    0    0  0.48279306782E+02  0.97192754261E+02  0.26841955818E+03  0.31535913203E+03  0.12500000000E+03 0.  0.
</event>
<event>
 4    0  0.2239279E-002  0.3682450E+03  0.7546771E-02  0.1055366E+00
         21   -1    0    0  502  501  0.00000000000E+00  0.00000000000E+00  0.88220935384E+02  0.88220935384E+02  0.00000000000E+00 0. -1.
         21   -1    0    0  501  502 -0.00000000000E+00 -0.00000000000E+00 -0.15371001650E+04  0.15371001650E+04  0.00000000000E+00 0.  1.
         25    1    1    2    0    0  0.26946789886E+02 -0.29143985665E+03 -0.11332493164E+04  0.11770906221E+04  0.12500000000E+03 0.  0.
         25    1    1    2    0    0 -0.26946789886E+02  0.29143985665E+03 -0.31562991319E+03  0.44823047825E+03  0.12500000000E+03 0.  0.
</event>
<event>
 4    0  0.2239279E-002  0.2077384E+03  0.7546771E-02  0.1143370E+00
         21   -1    0    0  502  501  0.00000000000E+00  0.00000000000E+00  0.35870167384E+03  0.35870167384E+03  0.00000000000E+00 0. -1.
         21   -1    0    0  501  502 -0.00000000000E+00 -0.00000000000E+00 -0.12030951903E+03  0.12030951903E+03  0.00000000000E+00 0. -1.
         25    1    1    2    0    0  0.74028168580E+02 -0.14017431442E+03  0.62700463027E+02  0.21138911096E+03  0.12500000000E+03 0.  0.
         25    1    1    2    0    0 -0.74028168580E+02  0.14017431442E+03  0.17569169178E+03  0.26762208191E+03  0.12500000000E+03 0.  0.
</event>
<event>
 4    0  0.2239279E-002  0.2833582E+03  0.7546771E-02  0.1093869E+00
         21   -1    0    0  502  501  0.00000000000E+00  0.00000000000E+00  0.13821506072E+03  0.13821506072E+03  0.00000000000E+00 0.  1.
         21   -1    0    0  501  502 -0.00000000000E+00 -0.00000000000E+00 -0.58092002852E+03  0.58092002852E+03  0.00000000000E+00 0.  1.
         25    1    1    2    0    0  0.91514900561E+02 -0.12602775225E+03  0.33731550414E+02  0.20253589523E+03  0.12500000000E+03 0.  0.
         25    1    1    2    0    0 -0.91514900561E+02  0.12602775225E+03 -0.47643651822E+03  0.51659919401E+03  0.12500000000E+03 0.  0.
</event>
<event>
 4    0  0.2239279E-002  0.2670502E+03  0.7546771E-02  0.1102980E+00
         21   -1    0    0  502  501  0.00000000000E+00  0.00000000000E+00  0.63569062344E+02  0.63569062344E+02  0.00000000000E+00 0. -1.
         21   -1    0    0  501  502 -0.00000000000E+00 -0.00000000000E+00 -0.11218636548E+04  0.11218636548E+04  0.00000000000E+00 0. -1.
         25    1    1    2    0    0  0.11423354630E+03  0.17724456084E+03 -0.29398687433E+03  0.38277698432E+03  0.12500000000E+03 0.  0.
         25    1    1    2    0    0 -0.11423354630E+03 -0.17724456084E+03 -0.76430771816E+03  0.80265573285E+03  0.12500000000E+03 0.  0.
</event>
<event>
 4    0  0.2239279E-002  0.2198842E+03  0.7546771E-02  0.1133969E+00
         21   -1    0    0  502  501  0.00000000000E+00  0.00000000000E+00  0.31586419066E+02  0.31586419066E+02  0.00000000000E+00 0.  1.
         21   -1    0    0  501  502 -0.00000000000E+00 -0.00000000000E+00 -0.15306908840E+04  0.15306908840E+04  0.00000000000E+00 0.  1.
         25    1    1    2    0    0  0.95041452388E+02  0.27461172163E+02 -0.12875778624E+04  0.12974084728E+04  0.12500000000E+03 0.  0.
         25    1    1    2    0    0 -0.95041452388E+02 -0.27461172163E+02 -0.21152660255E+03  0.26486883025E+03  0.12500000000E+03 0.  0.
</event>
<event>
 4    0  0.2239279E-002  0.1508018E+03  0.7546771E-02  0.1199491E+00
         21   -1    0    0  502  501  0.00000000000E+00  0.00000000000E+00  0.91008436253E+02  0.91008436253E+02  0.00000000000E+00 0. -1.
         21   -1    0    0  501  502 -0.00000000000E+00 -0.00000000000E+00 -0.24988001383E+03  0.24988001383E+03  0.00000000000E+00 0. -1.
         25    1    1    2    0    0 -0.12501840169E+02  0.46904543354E+02 -0.15741389118E+03  0.20678603756E+03  0.12500000000E+03 0.  0.
         25    1    1    2    0    0  0.12501840169E+02 -0.46904543354E+02 -0.14576864013E+01  0.13410241252E+03  0.12500000000E+03 0.  0.
</event>
<event>
 4    0  0.2239279E-002  0.3563864E+03  0.7546771E-02  0.1060024E+00
         21   -1    0    0  502  501  0.00000000000E+00  0.00000000000E+00  0.90055176718E+03  0.90055176718E+03  0.00000000000E+00 0. -1.
         21   -1    0    0  501  502 -0.00000000000E+00 -0.00000000000E+00 -0.14103716377E+03  0.14103716377E+03  0.00000000000E+00 0. -1.
         25    1    1    2    0    0 -0.25686910658E+03 -0.39851864891E+02  0.68564595980E+03  0.74384493763E+03  0.12500000000E+03 0.  0.
         25    1    1    2    0    0  0.25686910658E+03  0.39851864891E+02  0.73868643607E+02  0.29774399332E+03  0.12500000000E+03 0.  0.
</event>
<event>
 4    0  0.2239279E-002  0.2354219E+03  0.7546771E-02  0.1122881E+00
         21   -1    0    0  502  501  0.00000000000E+00  0.00000000000E+00  0.31700518201E+03  0.31700518201E+03  0.00000000000E+00 0.  1.
         21   -1    0    0  501  502 -0.00000000000E+00 -0.00000000000E+00 -0.17483461735E+03  0.17483461735E+03  0.00000000000E+00 0.  1.
         25    1    1    2    0    0 -0.18742500860E+03  0.54836807233E+02  0.28483456689E+02  0.23360547207E+03  0.12500000000E+03 0.  0.
         25    1    1    2    0    0  0.18742500860E+03 -0.54836807233E+02  0.11368710796E+03  0.25823432729E+03  0.12500000000E+03 0.  0.
</event>
<event>
 4    0  0.2239279E-002  0.2828704E+03  0.7546771E-02  0.1094131E+00
         21   -1    0    0  502  501  0.00000000000E+00  0.00000000000E+00  0.62133830636E+03  0.62133830636E+03  0.00000000000E+00 0. -1.
         21   -1    0    0  501  502 -0.00000000000E+00 -0.00000000000E+00 -0.12877952219E+03  0.12877952219E+03  0.00000000000E+00 0. -1.
         25    1    1    2    0    0 -0.20433008331E+03  0.21416810654E+01  0.44576196579E+03  0.50604752730E+03  0.12500000000E+03 0.  0.
         25    1    1    2    0    0  0.20433008331E+03 -0.21416810654E+01  0.46796818384E+02  0.24407030125E+03  0.12500000000E+03 0.  0.
</event>
<event>
 4    0  0.2239279E-002  0.1682582E+03  0.7546771E-02  0.1179677E+00
         21   -1    0    0  502  501  0.00000000000E+00  0.00000000000E+00  0.75874246359E+03  0.75874246359E+03  0.00000000000E+00 0. -1.
         21   -1    0    0  501  502 -0.00000000000E+00 -0.00000000000E+00 -0.37312802501E+02  0.37312802501E+02  0.00000000000E+00 0. -1.
         25    1    1    2    0    0 -0.57950175075E+02  0.11092439715E+02  0.58766901901E+03  0.60370617101E+03  0.12500000000E+03 0.  0.
         25    1    1    2    0    0  0.57950175075E+02 -0.11092439715E+02  0.13376064208E+03  0.19234909509E+03  0.12500000000E+03 0.  0.
</event>
<event>
 4    0  0.2239279E-002  0.3286805E+03  0.7546771E-02  0.1071722E+00
         21   -1    0    0  502  501  0.00000000000E+00  0.00000000000E+00  0.20888080093E+03  0.20888080093E+03  0.00000000000E+00 0.  1.
         21   -1    0    0  501  502 -0.00000000000E+00 -0.00000000000E+00 -0.51718900607E+03  0.51718900607E+03  0.00000000000E+00 0.  1.
         25    1    1    2    0    0  0.21768335131E+03  0.56495607672E+02  0.71741788715E+02  0.26711360761E+03  0.12500000000E+03 0.  0.
         25    1    1    2    0    0 -0.21768335131E+03 -0.56495607672E+02 -0.38004999386E+03  0.45895619939E+03  0.12500000000E+03 0.  0.
</event>
<event>
 4    0  0.2239279E-002  0.1434977E+03  0.7546771E-02  0.1208699E+00
         21   -1    0    0  502  501  0.00000000000E+00  0.00000000000E+00  0.39233938144E+02  0.39233938144E+02  0.00000000000E+00 0.  1.
         21   -1    0    0  501  502 -0.00000000000E+00 -0.00000000000E+00 -0.52484094309E+03  0.52484094309E+03  0.00000000000E+00 0.  1.
         25    1    1    2    0    0 -0.50912727657E+02 -0.48715554180E+02 -0.24501499631E+03  0.28394129582E+03  0.12500000000E+03 0.  0.
         25    1    1    2    0    0  0.50912727657E+02  0.48715554180E+02 -0.24059200864E+03  0.28013358542E+03  0.12500000000E+03 0.  0.
</event>
<event>
 4    0  0.2239279E-002  0.2749137E+03  0.7546771E-02  0.1098500E+00
         21   -1    0    0  502  501  0.00000000000E+00  0.00000000000E+00  0.21845317761E+03  0.21845317761E+03  0.00000000000E+00 0.  1.
         21   -1    0    0  501  502 -0.00000000000E+00 -0.00000000000E+00 -0.34596680306E+03  0.34596680306E+03  0.00000000000E+00 0.  1.
         25    1    1    2    0    0  0.21895739112E+02  0.68058352198E+02 -0.30415401043E+03  0.33652046707E+03  0.12500000000E+03 0.  0.
         25    1    1    2    0    0 -0.21895739112E+02 -0.68058352198E+02  0.17664038498E+03  0.22789951360E+03  0.12500000000E+03 0.  0.
</event>
<event>
 4    0  0.2239279E-002  0.2308002E+03  0.7546771E-02  0.1126078E+00
         21   -1    0    0  502  501  0.00000000000E+00  0.00000000000E+00  0.10316796174E+03  0.10316796174E+03  0.00000000000E+00 0.  1.
         21   -1    0    0  501  502 -0.00000000000E+00 -0.00000000000E+00 -0.51633015225E+03  0.51633015225E+03  0.00000000000E+00 0.  1.
         25    1    1    2    0    0  0.17362594246E+03  0.75005164288E+02 -0.26464753758E+03  0.34847533874E+03  0.12500000000E+03 0.  0.
         25    1    1    2    0    0 -0.17362594246E+03 -0.75005164288E+02 -0.14851465293E+03  0.27102277524E+03  0.12500000000E+03 0.  0.
</event>
<event>
 4    0  0.2239279E-002  0.1804234E+03  0.7546771E-02  0.1167394E+00
         21   -1    0    0  502  501  0.00000000000E+00  0.00000000000E+00  0.17017810353E+03  0.17017810353E+03  0.00000000000E+00 0.  1.
         21   -1    0    0  501  502 -0.00000000000E+00 -0.00000000000E+00 -0.19128548392E+03  0.19128548392E+03  0.00000000000E+00 0.  1.
         25    1    1    2    0    0  0.21165504128E+02 -0.80725480350E+02  0.89431849359E+02  0.17489321720E+03  0.12500000000E+03 0.  0.
         25    1    1    2    0    0 -0.21165504128E+02  0.80725480350E+02 -0.11053922975E+03  0.18657037025E+03  0.12500000000E+03 0.  0.
</event>
<event>
 4    0  0.2239279E-002  0.1395996E+03  0.7546771E-02  0.1213869E+00
         21   -1    0    0  502  501  0.00000000000E+00  0.00000000000E+00  0.68855182312E+02  0.68855182312E+02  0.00000000000E+00 0. -1.
         21   -1    0    0  501  502 -0.00000000000E+00 -0.00000000000E+00 -0.28302959288E+03  0.28302959288E+03  0.00000000000E+00 0. -1.
         25    1    1    2    0    0 -0.52203654681E+00  0.11564431180E+02 -0.30123655539E+02  0.12909857944E+03  0.12500000000E+03 0.  0.
         25    1    1    2    0    0  0.52203654681E+00 -0.11564431180E+02 -0.18405075503E+03  0.22278619575E+03  0.12500000000E+03 0.  0.
</event>
<event>
 4    0  0.2239279E-002  0.2257783E+03  0.7546771E-02  0.1129647E+00
         21   -1    0    0  502  501  0.00000000000E+00  0.00000000000E+00  0.73364472897E+03  0.73364472897E+03  0.00000000000E+00 0. -1.
         21   -1    0    0  501  502 -0.00000000000E+00 -0.00000000000E+00 -0.69483025615E+02  0.69483025615E+02  0.00000000000E+00 0. -1.
         25    1    1    2    0    0  0.23366358220E+02 -0.11703616454E+03  0.73682464320E+02  0.18787643826E+03  0.12500000000E+03 0.  0.
         25    1    1    2    0    0 -0.23366358220E+02  0.11703616454E+03  0.59047923904E+03  0.61525131632E+03  0.12500000000E+03 0.  0.
</event>
<event>
 4    0  0.2239279E-002  0.2169615E+03  0.7546771E-02  0.1136169E+00
         21   -1    0    0  502  501  0.00000000000E+00  0.00000000000E+00  0.16049604200E+04  0.16049604200E+04  0.00000000000E+00 0. -1.
         21   -1    0    0  501  502 -0.00000000000E+00 -0.00000000000E+00 -0.29329246024E+02  0.29329246024E+02  0.00000000000E+00 0. -1.
         25    1    1    2    0    0 -0.13401169375E+03 -0.14479329661E+02  0.35381448068E+03  0.39872104508E+03  0.12500000000E+03 0.  0.
         25    1    1    2    0    0  0.13401169375E+03  0.14479329661E+02  0.12218166933E+04  0.12355686209E+04  0.12500000000E+03 0.  0.
</event>
<event>
 4    0  0.2239279E-002  0.3425554E+03  0.7546771E-02  0.1065713E+00
         21   -1    0    0  502  501  0.00000000000E+00  0.00000000000E+00  0.38267930955E+02  0.38267930955E+02  0.00000000000E+00 0. -1.
         21   -1    0    0  501  502 -0.00000000000E+00 -0.00000000000E+00 -0.30663840230E+04  0.30663840230E+04  0.00000000000E+00 0. -1.
         25    1    1    2    0    0 -0.21159358363E+03  0.68072514474E+02 -0.25505331767E+04  0.25632499287E+04  0.12500000000E+03 0.  0.
         25    1    1    2    0    0  0.21159358363E+03 -0.68072514474E+02 -0.47758291542E+03  0.54140202526E+03  0.12500000000E+03 0.  0.
</event>
<event>
 4    0  0.2239279E-002  0.1884628E+03  0.7546771E-02  0.1159855E+00
         21   -1    0    0  502  501  0.00000000000E+00  0.00000000000E+00  0.22244406462E+03  0.22244406462E+03  0.00000000000E+00 0.  1.
         21   -1    0    0  501  502 -0.00000000000E+00 -0.00000000000E+00 -0.15967259951E+03  0.15967259951E+03  0.00000000000E+00 0.  1.
         25    1    1    2    0    0 -0.10997554776E+03 -0.88172847932E+02  0.26403805433E+02  0.19023993576E+03  0.12500000000E+03 0.  0.
         25    1    1    2    0    0  0.10997554776E+03  0.88172847932E+02  0.36367659682E+02  0.19187672837E+03  0.12500000000E+03 0.  0.
</event>
<event>
 4    0  0.2239279E-002  0.2324820E+03  0.7546771E-02  0.1124905E+00
         21   -1    0    0  502  501  0.00000000000E+00  0.00000000000E+00  0.25866815340E+03  0.25866815340E+03  0.00000000000E+00 0. -1.
         21   -1    0    0  501  502 -0.00000000000E+00 -0.00000000000E+00 -0.20894683323E+03  0.20894683323E+03  0.00000000000E+00 0. -1.
         25    1    1    2    0    0  0.89716935791E+02  0.16029639026E+02 -0.14967073427E+03  0.21524963784E+03  0.12500000000E+03 0.  0.
         25    1    1    2    0    0 -0.89716935791E+02 -0.16029639026E+02  0.19939205444E+03  0.25236534879E+03  0.12500000000E+03 0.  0.
</event>
<event>
 4    0  0.2239279E-002  0.1995303E+03  0.7546771E-02  0.1150136E+00
         21   -1    0    0  502  501  0.00000000000E+00  0.00000000000E+00  0.94863276277E+02  0.94863276277E+02  0.00000000000E+00 0. -1.
         21   -1    0    0  501  502 -0.00000000000E+00 -0.00000000000E+00 -0.41968137574E+03  0.41968137574E+03  0.00000000000E+00 0. -1.
         25    1    1    2    0    0  0.10522764410E+03  0.10569758306E+03 -0.10558054097E+03  0.22139802795E+03  0.12500000000E+03 0.  0.
         25    1    1    2    0    0 -0.10522764410E+03 -0.10569758306E+03 -0.21923755849E+03  0.29314662407E+03  0.12500000000E+03 0.  0.
</event>
<event>
 4    0  0.2239279E-002  0.4958184E+03  0.7546771E-02  0.1014876E+00
         21   -1    0    0  502  501  0.00000000000E+00  0.00000000000E+00  0.11720197934E+04  0.11720197934E+04  0.00000000000E+00 0. -1.
         21   -1    0    0  501  502 -0.00000000000E+00 -0.00000000000E+00 -0.20975400583E+03  0.20975400583E+03  0.00000000000E+00 0.  1.
         25    1    1    2    0    0  0.32168292197E+03 -0.72325881607E+02 -0.45718364216E+01  0.35264264792E+03  0.12500000000E+03 0.  0.
         25    1    1    2    0    0 -0.32168292197E+03  0.72325881607E+02  0.96683762402E+03  0.10291311513E+04  0.12500000000E+03 0.  0.
</event>
<event>
 4    0  0.2239279E-002  0.2568943E+03  0.7546771E-02  0.1109024E+00
         21   -1    0    0  502  501  0.00000000000E+00  0.00000000000E+00  0.48877677375E+03  0.48877677375E+03  0.00000000000E+00 0. -1.
         21   -1    0    0  501  502 -0.00000000000E+00 -0.00000000000E+00 -0.13502007068E+03  0.13502007068E+03  0.00000000000E+00 0. -1.
         25    1    1    2    0    0 -0.18272128861E+03 -0.58283116586E+02  0.31839237515E+03  0.39215136815E+03  0.12500000000E+03 0.  0.
         25    1    1    2    0    0  0.18272128861E+03  0.58283116586E+02  0.35364327931E+02  0.23164547628E+03  0.12500000000E+03 0.  0.
</event>
<event>
 4    0  0.2239279E-002  0.4843799E+03  0.7546771E-02  0.1017938E+00
         21   -1    0    0  502  501  0.00000000000E+00  0.00000000000E+00  0.17856463123E+03  0.17856463123E+03  0.00000000000E+00 0. -1.
         21   -1    0    0  501  502 -0.00000000000E+00 -0.00000000000E+00 -0.13139438257E+04  0.13139438257E+04  0.00000000000E+00 0. -1.
         25    1    1    2    0    0 -0.30644439971E+03  0.24394377499E+03 -0.96223186886E+03  0.10463899392E+04  0.12500000000E+03 0.  0.
         25    1    1    2    0    0  0.30644439971E+03 -0.24394377499E+03 -0.17314732562E+03  0.44611851771E+03  0.12500000000E+03 0.  0.
</event>
<event>
 4    0  0.2239279E-002  0.2262656E+03  0.7546771E-02  0.1129296E+00
         21   -1    0    0  502  501  0.00000000000E+00  0.00000000000E+00  0.14085881101E+03  0.14085881101E+03  0.00000000000E+00 0. -1.
         21   -1    0    0  501  502 -0.00000000000E+00 -0.00000000000E+00 -0.36345701373E+03  0.36345701373E+03  0.00000000000E+00 0. -1.
         25    1    1    2    0    0  0.17465028028E+03 -0.28137817970E+02 -0.18417882400E+03  0.28432603893E+03  0.12500000000E+03 0.  0.
         25    1    1    2    0    0 -0.17465028028E+03  0.28137817970E+02 -0.38419378719E+02  0.21998978582E+03  0.12500000000E+03 0.  0.
</event>
<event>
 4    0  0.2239279E-002  0.2114143E+03  0.7546771E-02  0.1140451E+00
         21   -1    0    0  502  501  0.00000000000E+00  0.00000000000E+00  0.11252599311E+04  0.11252599311E+04  0.00000000000E+00 0.  1.
         21   -1    0    0  501  502 -0.00000000000E+00 -0.00000000000E+00 -0.39720604515E+02  0.39720604515E+02  0.00000000000E+00 0.  1.
         25    1    1    2    0    0  0.21862254767E+02 -0.14397250215E+03  0.29842507620E+03  0.35480778692E+03  0.12500000000E+03 0.  0.
         25    1    1    2    0    0 -0.21862254767E+02  0.14397250215E+03  0.78711425036E+03  0.81017274866E+03  0.12500000000E+03 0.  0.
</event>
<event>
 4    0  0.2239279E-002  0.1974744E+03  0.7546771E-02  0.1151888E+00
         21   -1    0    0  502  501  0.00000000000E+00  0.00000000000E+00  0.14476711679E+04  0.14476711679E+04  0.00000000000E+00 0.  1.
         21   -1    0    0  501  502 -0.00000000000E+00 -0.00000000000E+00 -0.26937154298E+02  0.26937154298E+02  0.00000000000E+00 0.  1.
         25    1    1    2    0    0  0.47725143217E+02  0.14510974392E+03  0.73295942417E+03  0.75907117226E+03  0.12500000000E+03 0.  0.
         25    1    1    2    0    0 -0.47725143217E+02 -0.14510974392E+03  0.68777458943E+03  0.71553714994E+03  0.12500000000E+03 0.  0.
</event>
<event>
 4    0  0.2239279E-002  0.1961269E+03  0.7546771E-02  0.1153048E+00
         21   -1    0    0  502  501  0.00000000000E+00  0.00000000000E+00  0.48600147001E+02  0.48600147001E+02  0.00000000000E+00 0.  1.
         21   -1    0    0  501  502 -0.00000000000E+00 -0.00000000000E+00 -0.79147428177E+03  0.79147428177E+03  0.00000000000E+00 0. -1.
         25    1    1    2    0    0 -0.14307562020E+03  0.47051748348E+02 -0.34466491592E+03  0.39636271820E+03  0.12500000000E+03 0.  0.
         25    1    1    2    0    0  0.14307562020E+03 -0.47051748348E+02 -0.39820921885E+03  0.44371171057E+03  0.12500000000E+03 0.  0.
</event>
<event>
 4    0  0.2239279E-002  0.1988617E+03  0.7546771E-02  0.1150703E+00
         21   -1    0    0  502  501  0.00000000000E+00  0.00000000000E+00  0.39239340859E+03  0.39239340859E+03  0.00000000000E+00 0.  1.
         21   -1    0    0  501  502 -0.00000000000E+00 -0.00000000000E+00 -0.10078141252E+03  0.10078141252E+03  0.00000000000E+00 0.  1.
         25    1    1    2    0    0 -0.55519334124E+02  0.14396569623E+03  0.15895484411E+03  0.25436226257E+03  0.12500000000E+03 0.  0.
         25    1    1    2    0    0  0.55519334124E+02 -0.14396569623E+03  0.13265715196E+03  0.23881255855E+03  0.12500000000E+03 0.  0.
</event>
<event>
 4    0  0.2239279E-002  0.2201139E+03  0.7546771E-02  0.1133798E+00
         21   -1    0    0  502  501  0.00000000000E+00  0.00000000000E+00  0.70631250074E+02  0.70631250074E+02  0.00000000000E+00 0. -1.
         21   -1    0    0  501  502 -0.00000000000E+00 -0.00000000000E+00 -0.68595908578E+03  0.68595908578E+03  0.00000000000E+00 0. -1.
         25    1    1    2    0    0  0.14603268347E+03  0.81836165170E+02 -0.18856318107E+03  0.28143165392E+03  0.12500000000E+03 0.  0.
         25    1    1    2    0    0 -0.14603268347E+03 -0.81836165170E+02 -0.42676465463E+03  0.47515868193E+03  0.12500000000E+03 0.  0.
</event>
<event>
 4    0  0.2239279E-002  0.3033117E+03  0.7546771E-02  0.1083597E+00
         21   -1    0    0  502  501  0.00000000000E+00  0.00000000000E+00  0.31894937923E+03  0.31894937923E+03  0.00000000000E+00 0. -1.
         21   -1    0    0  501  502 -0.00000000000E+00 -0.00000000000E+00 -0.28844076743E+03  0.28844076743E+03  0.00000000000E+00 0. -1.
         25    1    1    2    0    0 -0.19179583618E+03 -0.18529337470E+03  0.87828507028E+02  0.30734040432E+03  0.12500000000E+03 0.  0.
         25    1    1    2    0    0  0.19179583618E+03  0.18529337470E+03 -0.57319895230E+02  0.30004974233E+03  0.12500000000E+03 0.  0.
</event>
<event>
 4    0  0.2239279E-002  0.2596112E+03  0.7546771E-02  0.1107377E+00
         21   -1    0    0  502  501  0.00000000000E+00  0.00000000000E+00  0.63140331768E+03  0.63140331768E+03  0.00000000000E+00 0. -1.
         21   -1    0    0  501  502 -0.00000000000E+00 -0.00000000000E+00 -0.10674313745E+03  0.10674313745E+03  0.00000000000E+00 0. -1.
         25    1    1    2    0    0  0.51516147321E+02  0.10762951772E+03  0.53775741297E+03  0.56484162534E+03  0.12500000000E+03 0.  0.
         25    1    1    2    0    0 -0.51516147321E+02 -0.10762951772E+03 -0.13097232739E+02  0.17330482978E+03  0.12500000000E+03 0.  0.
</event>
<event>
 4    0  0.2239279E-002  0.2714119E+03  0.7546771E-02  0.1100474E+00
         21   -1    0    0  502  501  0.00000000000E+00  0.00000000000E+00  0.66757557789E+03  0.66757557789E+03  0.00000000000E+00 0. -1.
         21   -1    0    0  501  502 -0.00000000000E+00 -0.00000000000E+00 -0.11034618886E+03  0.11034618886E+03  0.00000000000E+00 0. -1.
         25    1    1    2    0    0  0.66783236746E+02  0.22982453357E+03  0.31812528375E+03  0.41726252300E+03  0.12500000000E+03 0.  0.
         25    1    1    2    0    0 -0.66783236746E+02 -0.22982453357E+03  0.23910410528E+03  0.36065924375E+03  0.12500000000E+03 0.  0.
</event>
<event>
 4    0  0.2239279E-002  0.1747654E+03  0.7546771E-02  0.1172967E+00
         21   -1    0    0  502  501  0.00000000000E+00  0.00000000000E+00  0.28346753588E+03  0.28346753588E+03  0.00000000000E+00 0.  1.
         21   -1    0    0  501  502 -0.00000000000E+00 -0.00000000000E+00 -0.10774765516E+03  0.10774765516E+03  0.00000000000E+00 0.  1.
         25    1    1    2    0    0  0.21548563330E+02 -0.62833225495E+02  0.20258035870E+03  0.24713590702E+03  0.12500000000E+03 0.  0.
         25    1    1    2    0    0 -0.21548563330E+02  0.62833225495E+02 -0.26860477982E+02  0.14407928403E+03  0.12500000000E+03 0.  0.
</event>
<event>
 4    0  0.2239279E-002  0.2099565E+03  0.7546771E-02  0.1141600E+00
         21   -1    0    0  502  501  0.00000000000E+00  0.00000000000E+00  0.49611251765E+03  0.49611251765E+03  0.00000000000E+00 0. -1.
         21   -1    0    0  501  502 -0.00000000000E+00 -0.00000000000E+00 -0.88854281919E+02  0.88854281919E+02  0.00000000000E+00 0. -1.
         25    1    1    2    0    0 -0.48613675806E+01  0.54772165675E+02 -0.18533807516E+02  0.13781191911E+03  0.12500000000E+03 0.  0.
         25    1    1    2    0    0  0.48613675806E+01 -0.54772165675E+02  0.42579204325E+03  0.44715488046E+03  0.12500000000E+03 0.  0.
</event>
<event>
 4    0  0.2239279E-002  0.4508251E+03  0.7546771E-02  0.1027476E+00
         21   -1    0    0  502  501  0.00000000000E+00  0.00000000000E+00  0.52405930065E+03  0.52405930065E+03  0.00000000000E+00 0. -1.
         21   -1    0    0  501  502 -0.00000000000E+00 -0.00000000000E+00 -0.38782495581E+03  0.38782495581E+03  0.00000000000E+00 0. -1.
         25    1    1    2    0    0  0.41827560503E+03 -0.35273940488E+02  0.17619235600E+03  0.47208842281E+03  0.12500000000E+03 0.  0.
         25    1    1    2    0    0 -0.41827560503E+03  0.35273940488E+02 -0.39958011163E+02  0.43979583365E+03  0.12500000000E+03 0.  0.
</event>
<event>
 4    0  0.2239279E-002  0.1938866E+03  0.7546771E-02  0.1155002E+00
         21   -1    0    0  502  501  0.00000000000E+00  0.00000000000E+00  0.18355597743E+03  0.18355597743E+03  0.00000000000E+00 0.  1.
         21   -1    0    0  501  502 -0.00000000000E+00 -0.00000000000E+00 -0.20479853449E+03  0.20479853449E+03  0.00000000000E+00 0.  1.
         25    1    1    2    0    0  0.10909879353E+03  0.87609928692E+02  0.38328879051E+02  0.19149973714E+03  0.12500000000E+03 0.  0.
         25    1    1    2    0    0 -0.10909879353E+03 -0.87609928692E+02 -0.59571436114E+02  0.19685477478E+03  0.12500000000E+03 0.  0.
</event>
<event>
 4    0  0.2239279E-002  0.2224099E+03  0.7546771E-02  0.1132099E+00
         21   -1    0    0  502  501  0.00000000000E+00  0.00000000000E+00  0.57485140733E+03  0.57485140733E+03  0.00000000000E+00 0.  1.
         21   -1    0    0  501  502 -0.00000000000E+00 -0.00000000000E+00 -0.86050341383E+02  0.86050341383E+02  0.00000000000E+00 0.  1.
         25    1    1    2    0    0  0.60451223167E+02 -0.17289697112E+03  0.26985227585E+03  0.34927491147E+03  0.12500000000E+03 0.  0.
         25    1    1    2    0    0 -0.60451223167E+02  0.17289697112E+03  0.21894879010E+03  0.31162683724E+03  0.12500000000E+03 0.  0.
</event>
<event>
 4    0  0.2239279E-002  0.1523920E+03  0.7546771E-02  0.1197564E+00
         21   -1    0    0  502  501  0.00000000000E+00  0.00000000000E+00  0.13028470382E+02  0.13028470382E+02  0.00000000000E+00 0.  1.
         21   -1    0    0  501  502 -0.00000000000E+00 -0.00000000000E+00 -0.17825063270E+04  0.17825063270E+04  0.00000000000E+00 0.  1.
         25    1    1    2    0    0 -0.57042407679E+02 -0.17148821019E+01 -0.49656696102E+03  0.51522861321E+03  0.12500000000E+03 0.  0.
         25    1    1    2    0    0  0.57042407679E+02  0.17148821019E+01 -0.12729108956E+04  0.12803061842E+04  0.12500000000E+03 0.  0.
</event>
<event>
 4    0  0.2239279E-002  0.1973603E+03  0.7546771E-02  0.1151985E+00
         21   -1    0    0  502  501  0.00000000000E+00  0.00000000000E+00  0.20618183088E+03  0.20618183088E+03  0.00000000000E+00 0.  1.
         21   -1    0    0  501  502 -0.00000000000E+00 -0.00000000000E+00 -0.18891625013E+03  0.18891625013E+03  0.00000000000E+00 0.  1.
         25    1    1    2    0    0  0.91517040883E+02  0.78697557992E+02 -0.85037799955E+02  0.19345568440E+03  0.12500000000E+03 0.  0.
         25    1    1    2    0    0 -0.91517040883E+02 -0.78697557992E+02  0.10230338071E+03  0.20164239661E+03  0.12500000000E+03 0.  0.
</event>
<event>
 4    0  0.2239279E-002  0.2215387E+03  0.7546771E-02  0.1132741E+00
         21   -1    0    0  502  501  0.00000000000E+00  0.00000000000E+00  0.22472198667E+02  0.22472198667E+02  0.00000000000E+00 0. -1.
         21   -1    0    0  501  502 -0.00000000000E+00 -0.00000000000E+00 -0.21840046514E+04  0.21840046514E+04  0.00000000000E+00 0. -1.
         25    1    1    2    0    0  0.19304340321E+02 -0.16503485654E+03 -0.70003330310E+03  0.73026076636E+03  0.12500000000E+03 0.  0.
         25    1    1    2    0    0 -0.19304340321E+02  0.16503485654E+03 -0.14614991497E+04  0.14762160837E+04  0.12500000000E+03 0.  0.
</event>
<event>
 4    0  0.2239279E-002  0.1780112E+03  0.7546771E-02  0.1169742E+00
         21   -1    0    0  502  501  0.00000000000E+00  0.00000000000E+00  0.12348627270E+04  0.12348627270E+04  0.00000000000E+00 0. -1.
         21   -1    0    0  501  502 -0.00000000000E+00 -0.00000000000E+00 -0.25661152490E+02  0.25661152490E+02  0.00000000000E+00 0. -1.
         25    1    1    2    0    0  0.62150115551E+02  0.72097570805E+01  0.21435977932E+03  0.25590961774E+03  0.12500000000E+03 0.  0.
         25    1    1    2    0    0 -0.62150115551E+02 -0.72097570805E+01  0.99484179518E+03  0.10046142617E+04  0.12500000000E+03 0.  0.
</event>
<event>
 4    0  0.2239279E-002  0.1421390E+03  0.7546771E-02  0.1210479E+00
         21   -1    0    0  502  501  0.00000000000E+00  0.00000000000E+00  0.37032796544E+03  0.37032796544E+03  0.00000000000E+00 0. -1.
         21   -1    0    0  501  502 -0.00000000000E+00 -0.00000000000E+00 -0.54555681774E+02  0.54555681774E+02  0.00000000000E+00 0. -1.
         25    1    1    2    0    0  0.95784560963E+01 -0.65916278797E+01  0.58258579206E+02  0.13839891051E+03  0.12500000000E+03 0.  0.
         25    1    1    2    0    0 -0.95784560963E+01  0.65916278797E+01  0.25751370446E+03  0.28648473670E+03  0.12500000000E+03 0.  0.
</event>
<event>
 4    0  0.2239279E-002  0.2477335E+03  0.7546771E-02  0.1114746E+00
         21   -1    0    0  502  501  0.00000000000E+00  0.00000000000E+00  0.10678968840E+04  0.10678968840E+04  0.00000000000E+00 0.  1.
         21   -1    0    0  501  502 -0.00000000000E+00 -0.00000000000E+00 -0.57469879580E+02  0.57469879580E+02  0.00000000000E+00 0.  1.
         25    1    1    2    0    0  0.51179990602E+01  0.15553879876E+03  0.83847496569E+03  0.86190705991E+03  0.12500000000E+03 0.  0.
         25    1    1    2    0    0 -0.51179990602E+01 -0.15553879876E+03  0.17195203872E+03  0.26345970366E+03  0.12500000000E+03 0.  0.
</event>
<event>
 4    0  0.2239279E-002  0.2695269E+03  0.7546771E-02  0.1101551E+00
         21   -1    0    0  502  501  0.00000000000E+00  0.00000000000E+00  0.26152561993E+03  0.26152561993E+03  0.00000000000E+00 0. -1.
         21   -1    0    0  501  502 -0.00000000000E+00 -0.00000000000E+00 -0.27777296795E+03  0.27777296795E+03  0.00000000000E+00 0. -1.
         25    1    1    2    0    0  0.11888162874E+03  0.19131439873E+03 -0.87442127576E+02  0.27203890620E+03  0.12500000000E+03 0.  0.
         25    1    1    2    0    0 -0.11888162874E+03 -0.19131439873E+03  0.71194779557E+02  0.26725968168E+03  0.12500000000E+03 0.  0.
</event>
<event>
 4    0  0.2239279E-002  0.1979453E+03  0.7546771E-02  0.1151484E+00
         21   -1    0    0  502  501  0.00000000000E+00  0.00000000000E+00  0.69346217169E+02  0.69346217169E+02  0.00000000000E+00 0. -1.
         21   -1    0    0  501  502 -0.00000000000E+00 -0.00000000000E+00 -0.56502492539E+03  0.56502492539E+03  0.00000000000E+00 0. -1.
         25    1    1    2    0    0  0.10766693816E+02  0.11772892619E+03 -0.90990665619E+02  0.19462867977E+03  0.12500000000E+03 0.  0.
         25    1    1    2    0    0 -0.10766693816E+02 -0.11772892619E+03 -0.40468804260E+03  0.43974246279E+03  0.12500000000E+03 0.  0.
</event>
<event>
 4    0  0.2239279E-002  0.2737933E+03  0.7546771E-02  0.1099128E+00
         21   -1    0    0  502  501  0.00000000000E+00  0.00000000000E+00  0.17695626135E+03  0.17695626135E+03  0.00000000000E+00 0.  1.
         21   -1    0    0  501  502 -0.00000000000E+00 -0.00000000000E+00 -0.42362305461E+03  0.42362305461E+03  0.00000000000E+00 0.  1.
         25    1    1    2    0    0  0.16574508557E+03  0.14793782641E+03 -0.23290512419E+03  0.34529238443E+03  0.12500000000E+03 0.  0.
         25    1    1    2    0    0 -0.16574508557E+03 -0.14793782641E+03 -0.13761669065E+02  0.25528693153E+03  0.12500000000E+03 0.  0.
</event>
<event>
 4    0  0.2239279E-002  0.3668165E+03  0.7546771E-02  0.1055917E+00
         21   -1    0    0  502  501  0.00000000000E+00  0.00000000000E+00  0.24485777091E+03  0.24485777091E+03  0.00000000000E+00 0.  1.
         21   -1    0    0  501  502 -0.00000000000E+00 -0.00000000000E+00 -0.54952040325E+03  0.54952040325E+03  0.00000000000E+00 0.  1.
         25    1    1    2    0    0  0.24106631283E+03  0.13667146486E+03 -0.37460176329E+03  0.48243500863E+03  0.12500000000E+03 0.  0.
         25    1    1    2    0    0 -0.24106631283E+03 -0.13667146486E+03  0.69939130950E+02  0.31194316554E+03  0.12500000000E+03 0.  0.
</event>
<event>
 4    0  0.2239279E-002  0.3901254E+03  0.7546771E-02  0.1047254E+00
         21   -1    0    0  502  501  0.00000000000E+00  0.00000000000E+00  0.39920086770E+03  0.39920086770E+03  0.00000000000E+00 0.  1.
         21   -1    0    0  501  502 -0.00000000000E+00 -0.00000000000E+00 -0.38125634099E+03  0.38125634099E+03  0.00000000000E+00 0.  1.
         25    1    1    2    0    0 -0.92458705449E+02 -0.22742491828E+03  0.28527375578E+03  0.39658141838E+03  0.12500000000E+03 0.  0.
         25    1    1    2    0    0  0.92458705449E+02  0.22742491828E+03 -0.26732922907E+03  0.38387579031E+03  0.12500000000E+03 0.  0.
</event>
<event>
 4    0  0.2239279E-002  0.1771662E+03  0.7546771E-02  0.1170574E+00
         21   -1    0    0  502  501  0.00000000000E+00  0.00000000000E+00  0.92726011689E+02  0.92726011689E+02  0.00000000000E+00 0. -1.
         21   -1    0    0  501  502 -0.00000000000E+00 -0.00000000000E+00 -0.33850110558E+03  0.33850110558E+03  0.00000000000E+00 0. -1.
         25    1    1    2    0    0 -0.32835757689E+02 -0.58357540477E+02 -0.25213792983E+03  0.28927897465E+03  0.12500000000E+03 0.  0.
         25    1    1    2    0    0  0.32835757689E+02  0.58357540477E+02  0.63628359367E+01  0.14194814262E+03  0.12500000000E+03 0.  0.
</event>
<event>
 4    0  0.2239279E-002  0.1840475E+03  0.7546771E-02  0.1163942E+00
         21   -1    0    0  502  501  0.00000000000E+00  0.00000000000E+00  0.66053407075E+03  0.66053407075E+03  0.00000000000E+00 0. -1.
         21   -1    0    0  501  502 -0.00000000000E+00 -0.00000000000E+00 -0.51281937119E+02  0.51281937119E+02  0.00000000000E+00 0. -1.
         25    1    1    2    0    0  0.10262651433E+03 -0.87760888938E+02  0.29731554275E+03  0.34965083588E+03  0.12500000000E+03 0.  0.
         25    1    1    2    0    0 -0.10262651433E+03  0.87760888938E+02  0.31193659088E+03  0.36216517199E+03  0.12500000000E+03 0.  0.
</event>
<event>
 4    0  0.2239279E-002  0.1692109E+03  0.7546771E-02  0.1178673E+00
         21   -1    0    0  502  501  0.00000000000E+00  0.00000000000E+00  0.63438332056E+03  0.63438332056E+03  0.00000000000E+00 0.  1.
         21   -1    0    0  501  502 -0.00000000000E+00 -0.00000000000E+00 -0.45134110154E+02  0.45134110154E+02  0.00000000000E+00 0.  1.
         25    1    1    2    0    0 -0.11201559404E+03 -0.42561446709E+01  0.33682486524E+03  0.37635302300E+03  0.12500000000E+03 0.  0.
         25    1    1    2    0    0  0.11201559404E+03  0.42561446709E+01  0.25242434516E+03  0.30316440772E+03  0.12500000000E+03 0.  0.
</event>
<event>
 4    0  0.2239279E-002  0.2161012E+03  0.7546771E-02  0.1136824E+00
         21   -1    0    0  502  501  0.00000000000E+00  0.00000000000E+00  0.74340994633E+02  0.74340994633E+02  0.00000000000E+00 0. -1.
         21   -1    0    0  501  502 -0.00000000000E+00 -0.00000000000E+00 -0.62818268416E+03  0.62818268416E+03  0.00000000000E+00 0. -1.
         25    1    1    2    0    0  0.14236281509E+03 -0.10346423459E+03 -0.26044783473E+03  0.33827517434E+03  0.12500000000E+03 0.  0.
         25    1    1    2    0    0 -0.14236281509E+03  0.10346423459E+03 -0.29339385480E+03  0.36424850445E+03  0.12500000000E+03 0.  0.
</event>
<event>
 4    0  0.2239279E-002  0.3175699E+03  0.7546771E-02  0.1076773E+00
         21   -1    0    0  502  501  0.00000000000E+00  0.00000000000E+00  0.21258153526E+03  0.21258153526E+03  0.00000000000E+00 0. -1.
         21   -1    0    0  501  502 -0.00000000000E+00 -0.00000000000E+00 -0.47440913828E+03  0.47440913828E+03  0.00000000000E+00 0. -1.
         25    1    1    2    0    0 -0.12434074769E+02  0.10731676493E+03  0.16243551497E+03  0.23169331189E+03  0.12500000000E+03 0.  0.
         25    1    1    2    0    0  0.12434074769E+02 -0.10731676493E+03 -0.42426311798E+03  0.45529736166E+03  0.12500000000E+03 0.  0.
</event>
<event>
 4    0  0.2239279E-002  0.2104674E+03  0.7546771E-02  0.1141196E+00
         21   -1    0    0  502  501  0.00000000000E+00  0.00000000000E+00  0.16629383211E+03  0.16629383211E+03  0.00000000000E+00 0. -1.
         21   -1    0    0  501  502 -0.00000000000E+00 -0.00000000000E+00 -0.26637509730E+03  0.26637509730E+03  0.00000000000E+00 0. -1.
         25    1    1    2    0    0  0.51120273003E+02 -0.13934918179E+03 -0.13379872908E+03  0.23570866909E+03  0.12500000000E+03 0.  0.
         25    1    1    2    0    0 -0.51120273003E+02  0.13934918179E+03  0.33717463892E+02  0.19696026033E+03  0.12500000000E+03 0.  0.
</event>
<event>
 4    0  0.2239279E-002  0.1892000E+03  0.7546771E-02  0.1159185E+00
         21   -1    0    0  502  501  0.00000000000E+00  0.00000000000E+00  0.24558416893E+02  0.24558416893E+02  0.00000000000E+00 0. -1.
         21   -1    0    0  501  502 -0.00000000000E+00 -0.00000000000E+00 -0.14576112725E+04  0.14576112725E+04  0.00000000000E+00 0. -1.
         25    1    1    2    0    0 -0.14161429156E+03  0.47589440610E+01 -0.67847558610E+03  0.70429494962E+03  0.12500000000E+03 0.  0.
         25    1    1    2    0    0  0.14161429156E+03 -0.47589440610E+01 -0.75457726949E+03  0.77787473976E+03  0.12500000000E+03 0.  0.
</event>
<event>
 4    0  0.2239279E-002  0.1929670E+03  0.7546771E-02  0.1155812E+00
         21   -1    0    0  502  501  0.00000000000E+00  0.00000000000E+00  0.10427201497E+04  0.10427201497E+04  0.00000000000E+00 0.  1.
         21   -1    0    0  501  502 -0.00000000000E+00 -0.00000000000E+00 -0.35710679862E+02  0.35710679862E+02  0.00000000000E+00 0.  1.
         25    1    1    2    0    0 -0.13929964204E+03 -0.43639076306E+02  0.55210427274E+03  0.58459634555E+03  0.12500000000E+03 0.  0.
         25    1    1    2    0    0  0.13929964204E+03  0.43639076306E+02  0.45490519710E+03  0.49383448402E+03  0.12500000000E+03 0.  0.
</event>
<event>
 4    0  0.2239279E-002  0.2237163E+03  0.7546771E-02  0.1131142E+00
         21   -1    0    0  502  501  0.00000000000E+00  0.00000000000E+00  0.35033529917E+02  0.35033529917E+02  0.00000000000E+00 0. -1.
         21   -1    0    0  501  502 -0.00000000000E+00 -0.00000000000E+00 -0.14286018040E+04  0.14286018040E+04  0.00000000000E+00 0. -1.
         25    1    1    2    0    0 -0.14111639053E+03 -0.50281112901E+02 -0.33871336032E+03  0.39088843223E+03  0.12500000000E+03 0.  0.
         25    1    1    2    0    0  0.14111639053E+03  0.50281112901E+02 -0.10548549138E+04  0.10727469017E+04  0.12500000000E+03 0.  0.
</event>
<event>
 4    0  0.2239279E-002  0.2276188E+03  0.7546771E-02  0.1128327E+00
         21   -1    0    0  502  501  0.00000000000E+00  0.00000000000E+00  0.67506810805E+03  0.67506810805E+03  0.00000000000E+00 0.  1.
         21   -1    0    0  501  502 -0.00000000000E+00 -0.00000000000E+00 -0.76748298992E+02  0.76748298992E+02  0.00000000000E+00 0.  1.
         25    1    1    2    0    0 -0.18842829309E+01  0.18192894028E+03  0.20745228831E+03  0.30292431688E+03  0.12500000000E+03 0.  0.
         25    1    1    2    0    0  0.18842829309E+01 -0.18192894028E+03  0.39086752075E+03  0.44889209016E+03  0.12500000000E+03 0.  0.
</event>
<event>
 4    0  0.2239279E-002  0.1904595E+03  0.7546771E-02  0.1158048E+00
         21   -1    0    0  502  501  0.00000000000E+00  0.00000000000E+00  0.10903186480E+03  0.10903186480E+03  0.00000000000E+00 0.  1.
         21   -1    0    0  501  502 -0.00000000000E+00 -0.00000000000E+00 -0.33269922987E+03  0.33269922987E+03  0.00000000000E+00 0.  1.
         25    1    1    2    0    0 -0.12473759023E+03 -0.51319798603E+02 -0.54356539586E+02  0.19176240909E+03  0.12500000000E+03 0.  0.
         25    1    1    2    0    0  0.12473759023E+03  0.51319798603E+02 -0.16931082549E+03  0.24996868558E+03  0.12500000000E+03 0.  0.
</event>
<event>
 4    0  0.2239279E-002  0.2967719E+03  0.7546771E-02  0.1086866E+00
         21   -1    0    0  502  501  0.00000000000E+00  0.00000000000E+00  0.63987230629E+02  0.63987230629E+02  0.00000000000E+00 0. -1.
         21   -1    0    0  501  502 -0.00000000000E+00 -0.00000000000E+00 -0.13764237594E+04  0.13764237594E+04  0.00000000000E+00 0. -1.
         25    1    1    2    0    0  0.21542855733E+03 -0.12738925310E+03 -0.41584196437E+03  0.50118561876E+03  0.12500000000E+03 0.  0.
         25    1    1    2    0    0 -0.21542855733E+03  0.12738925310E+03 -0.89659456436E+03  0.93922537123E+03  0.12500000000E+03 0.  0.
</event>
<event>
 4    0  0.2239279E-002  0.2720044E+03  0.7546771E-02  0.1100138E+00
         21   -1    0    0  502  501  0.00000000000E+00  0.00000000000E+00  0.13856594913E+04  0.13856594913E+04  0.00000000000E+00 0. -1.
         21   -1    0    0  501  502 -0.00000000000E+00 -0.00000000000E+00 -0.53394361055E+02  0.53394361055E+02  0.00000000000E+00 0. -1.
         25    1    1    2    0    0  0.40534579472E+02  0.21971865322E+03  0.42308267693E+03  0.49451318508E+03  0.12500000000E+03 0.  0.
         25    1    1    2    0    0 -0.40534579472E+02 -0.21971865322E+03  0.90918245327E+03  0.94454066722E+03  0.12500000000E+03 0.  0.
</event>
<event>
 4    0  0.2239279E-002  0.2469001E+03  0.7546771E-02  0.1115280E+00
         21   -1    0    0  502  501  0.00000000000E+00  0.00000000000E+00  0.16438749197E+04  0.16438749197E+04  0.00000000000E+00 0.  1.
         21   -1    0    0  501  502 -0.00000000000E+00 -0.00000000000E+00 -0.37082906777E+02  0.37082906777E+02  0.00000000000E+00 0.  1.
         25    1    1    2    0    0  0.11579119284E+03 -0.17809208700E+03  0.75403400396E+03  0.79329481967E+03  0.12500000000E+03 0.  0.
         25    1    1    2    0    0 -0.11579119284E+03  0.17809208700E+03  0.85275800892E+03  0.88766300676E+03  0.12500000000E+03 0.  0.
</event>
<event>
 4    0  0.2239279E-002  0.2180715E+03  0.7546771E-02  0.1135329E+00
         21   -1    0    0  502  501  0.00000000000E+00  0.00000000000E+00  0.12265191188E+03  0.12265191188E+03  0.00000000000E+00 0. -1.
         21   -1    0    0  501  502 -0.00000000000E+00 -0.00000000000E+00 -0.38772483860E+03  0.38772483860E+03  0.00000000000E+00 0. -1.
         25    1    1    2    0    0  0.78840300514E+02  0.71617572565E+02  0.35359694237E+02  0.16798862361E+03  0.12500000000E+03 0.  0.
         25    1    1    2    0    0 -0.78840300514E+02 -0.71617572565E+02 -0.30043262095E+03  0.34238812687E+03  0.12500000000E+03 0.  0.
</event>
<event>
 4    0  0.2239279E-002  0.2929041E+03  0.7546771E-02  0.1088843E+00
         21   -1    0    0  502  501  0.00000000000E+00  0.00000000000E+00  0.11913078434E+03  0.11913078434E+03  0.00000000000E+00 0. -1.
         21   -1    0    0  501  502 -0.00000000000E+00 -0.00000000000E+00 -0.72015646079E+03  0.72015646079E+03  0.00000000000E+00 0. -1.
         25    1    1    2    0    0  0.23915743631E+03  0.11246488009E+03 -0.27475707880E+03  0.40119955252E+03  0.12500000000E+03 0.  0.
         25    1    1    2    0    0 -0.23915743631E+03 -0.11246488009E+03 -0.32626859765E+03  0.43808769260E+03  0.12500000000E+03 0.  0.
</event>
<event>
 4    0  0.2239279E-002  0.1757314E+03  0.7546771E-02  0.1171999E+00
         21   -1    0    0  502  501  0.00000000000E+00  0.00000000000E+00  0.48012764765E+02  0.48012764765E+02  0.00000000000E+00 0.  1.
         21   -1    0    0  501  502 -0.00000000000E+00 -0.00000000000E+00 -0.64319422275E+03  0.64319422275E+03  0.00000000000E+00 0.  1.
         25    1    1    2    0    0  0.77843593452E+02 -0.85442997443E+01 -0.10973734427E+03  0.18384753147E+03  0.12500000000E+03 0.  0.
         25    1    1    2    0    0 -0.77843593452E+02  0.85442997443E+01 -0.48544411372E+03  0.50735945605E+03  0.12500000000E+03 0.  0.
</event>
<event>
 4    0  0.2239279E-002  0.1853069E+03  0.7546771E-02  0.1162764E+00
         21   -1    0    0  502  501  0.00000000000E+00  0.00000000000E+00  0.26648972036E+02  0.26648972036E+02  0.00000000000E+00 0.  1.
         21   -1    0    0  501  502 -0.00000000000E+00 -0.00000000000E+00 -0.12885540675E+04  0.12885540675E+04  0.00000000000E+00 0.  1.
         25    1    1    2    0    0  0.81448342765E+02  0.45397453838E+02 -0.27574609951E+03  0.31678963485E+03  0.12500000000E+03 0.  0.
         25    1    1    2    0    0 -0.81448342765E+02 -0.45397453838E+02 -0.98615899600E+03  0.99841340473E+03  0.12500000000E+03 0.  0.
</event>
<event>
 4    0  0.2239279E-002  0.1947527E+03  0.7546771E-02  0.1154243E+00
         21   -1    0    0  502  501  0.00000000000E+00  0.00000000000E+00  0.10385384592E+04  0.10385384592E+04  0.00000000000E+00 0.  1.
         21   -1    0    0  501  502 -0.00000000000E+00 -0.00000000000E+00 -0.36521153998E+02  0.36521153998E+02  0.00000000000E+00 0.  1.
         25    1    1    2    0    0  0.36548870593E+02  0.59316383165E+02  0.13641518257E+03  0.19770775223E+03  0.12500000000E+03 0.  0.
         25    1    1    2    0    0 -0.36548870593E+02 -0.59316383165E+02  0.86560212265E+03  0.87735186099E+03  0.12500000000E+03 0.  0.
</event>
<event>
 4    0  0.2239279E-002  0.2556932E+03  0.7546771E-02  0.1109759E+00
         21   -1    0    0  502  501  0.00000000000E+00  0.00000000000E+00  0.22072292510E+03  0.22072292510E+03  0.00000000000E+00 0.  1.
         21   -1    0    0  501  502 -0.00000000000E+00 -0.00000000000E+00 -0.29620399089E+03  0.29620399089E+03  0.00000000000E+00 0.  1.
         25    1    1    2    0    0 -0.19064598024E+03 -0.55839200761E+01 -0.15465234382E+03  0.27553478436E+03  0.12500000000E+03 0.  0.
         25    1    1    2    0    0  0.19064598024E+03  0.55839200761E+01  0.79171278028E+02  0.24139213162E+03  0.12500000000E+03 0.  0.
</event>
<event>
 4    0  0.2239279E-002  0.2781858E+03  0.7546771E-02  0.1096684E+00
         21   -1    0    0  502  501  0.00000000000E+00  0.00000000000E+00  0.31587796990E+03  0.31587796990E+03  0.00000000000E+00 0. -1.
         21   -1    0    0  501  502 -0.00000000000E+00 -0.00000000000E+00 -0.24499124651E+03  0.24499124651E+03  0.00000000000E+00 0. -1.
         25    1    1    2    0    0 -0.14469870769E+03 -0.21761468762E+02  0.23794294320E+03  0.30602797543E+03  0.12500000000E+03 0.  0.
         25    1    1    2    0    0  0.14469870769E+03  0.21761468762E+02 -0.16705621980E+03  0.25484124098E+03  0.12500000000E+03 0.  0.
</event>
<event>
 4    0  0.2239279E-002  0.1655084E+03  0.7546771E-02  0.1182615E+00
         21   -1    0    0  502  501  0.00000000000E+00  0.00000000000E+00  0.14949848871E+03  0.14949848871E+03  0.00000000000E+00 0.  1.
         21   -1    0    0  501  502 -0.00000000000E+00 -0.00000000000E+00 -0.18323272258E+03  0.18323272258E+03  0.00000000000E+00 0.  1.
         25    1    1    2    0    0 -0.16003173408E+02  0.45781386517E+02 -0.11440567903E+03  0.17625463484E+03  0.12500000000E+03 0.  0.
         25    1    1    2    0    0  0.16003173408E+02 -0.45781386517E+02  0.80671445157E+02  0.15647657644E+03  0.12500000000E+03 0.  0.
</event>
<event>
 4    0  0.2239279E-002  0.2234896E+03  0.7546771E-02  0.1131308E+00
         21   -1    0    0  502  501  0.00000000000E+00  0.00000000000E+00  0.25467690438E+03  0.25467690438E+03  0.00000000000E+00 0.  1.
         21   -1    0    0  501  502 -0.00000000000E+00 -0.00000000000E+00 -0.19612136087E+03  0.19612136087E+03  0.00000000000E+00 0.  1.
         25    1    1    2    0    0  0.17222577922E+02 -0.12770466626E+03 -0.10496657673E+03  0.20796173014E+03  0.12500000000E+03 0.  0.
         25    1    1    2    0    0 -0.17222577922E+02  0.12770466626E+03  0.16352212024E+03  0.24283653511E+03  0.12500000000E+03 0.  0.
</event>
<event>
 4    0  0.2239279E-002  0.1814606E+03  0.7546771E-02  0.1166397E+00
         21   -1    0    0  502  501  0.00000000000E+00  0.00000000000E+00  0.16715509566E+03  0.16715509566E+03  0.00000000000E+00 0. -1.
         21   -1    0    0  501  502 -0.00000000000E+00 -0.00000000000E+00 -0.19699050384E+03  0.19699050384E+03  0.00000000000E+00 0. -1.
         25    1    1    2    0    0  0.89618722542E+02  0.34023017421E+02  0.75463276445E+02  0.17466764794E+03  0.12500000000E+03 0.  0.
         25    1    1    2    0    0 -0.89618722542E+02 -0.34023017421E+02 -0.10529868462E+03  0.18947795156E+03  0.12500000000E+03 0.  0.
</event>
<event>
 4    0  0.2239279E-002  0.2480092E+03  0.7546771E-02  0.1114569E+00
         21   -1    0    0  502  501  0.00000000000E+00  0.00000000000E+00  0.59795380224E+03  0.59795380224E+03  0.00000000000E+00 0. -1.
         21   -1    0    0  501  502 -0.00000000000E+00 -0.00000000000E+00 -0.10286506049E+03  0.10286506049E+03  0.00000000000E+00 0. -1.
         25    1    1    2    0    0 -0.19874433760E+03 -0.78801217871E+02  0.22887442544E+03  0.33722017479E+03  0.12500000000E+03 0.  0.
         25    1    1    2    0    0  0.19874433760E+03  0.78801217871E+02  0.26621431630E+03  0.36359868794E+03  0.12500000000E+03 0.  0.
</event>
<event>
 4    0  0.2239279E-002  0.2169781E+03  0.7546771E-02  0.1136156E+00
         21   -1    0    0  502  501  0.00000000000E+00  0.00000000000E+00  0.27477100639E+03  0.27477100639E+03  0.00000000000E+00 0.  1.
         21   -1    0    0  501  502 -0.00000000000E+00 -0.00000000000E+00 -0.17134085803E+03  0.17134085803E+03  0.00000000000E+00 0.  1.
         25    1    1    2    0    0  0.11085736912E+03 -0.13356162909E+02 -0.89937101271E+02  0.19021415710E+03  0.12500000000E+03 0.  0.
         25    1    1    2    0    0 -0.11085736912E+03  0.13356162909E+02  0.19336724963E+03  0.25589770731E+03  0.12500000000E+03 0.  0.
</event>
<event>
 4    0  0.2239279E-002  0.2740596E+03  0.7546771E-02  0.1098978E+00
         21   -1    0    0  502  501  0.00000000000E+00  0.00000000000E+00  0.82173233535E+02  0.82173233535E+02  0.00000000000E+00 0. -1.
         21   -1    0    0  501  502 -0.00000000000E+00 -0.00000000000E+00 -0.91402833498E+03  0.91402833498E+03  0.00000000000E+00 0. -1.
         25    1    1    2    0    0  0.18303605300E+03  0.15810677080E+03 -0.35892331731E+03  0.45050071630E+03  0.12500000000E+03 0.  0.
         25    1    1    2    0    0 -0.18303605300E+03 -0.15810677080E+03 -0.47293178413E+03  0.54570085222E+03  0.12500000000E+03 0.  0.
</event>
<event>
 4    0  0.2239279E-002  0.2374022E+03  0.7546771E-02  0.1121536E+00
         21   -1    0    0  502  501  0.00000000000E+00  0.00000000000E+00  0.59417733228E+02  0.59417733228E+02  0.00000000000E+00 0.  1.
         21   -1    0    0  501  502 -0.00000000000E+00 -0.00000000000E+00 -0.94853508158E+03  0.94853508158E+03  0.00000000000E+00 0.  1.
         25    1    1    2    0    0  0.91549595659E+02  0.13959850101E+03 -0.20376628280E+03  0.29157292048E+03  0.12500000000E+03 0.  0.
         25    1    1    2    0    0 -0.91549595659E+02 -0.13959850101E+03 -0.68535106555E+03  0.71637989433E+03  0.12500000000E+03 0.  0.
</event>
<event>
 4    0  0.2239279E-002  0.2031338E+03  0.7546771E-02  0.1147122E+00
         21   -1    0    0  502  501  0.00000000000E+00  0.00000000000E+00  0.38491007460E+03  0.38491007460E+03  0.00000000000E+00 0. -1.
         21   -1    0    0  501  502 -0.00000000000E+00 -0.00000000000E+00 -0.10720250137E+03  0.10720250137E+03  0.00000000000E+00 0. -1.
         25    1    1    2    0    0 -0.79853457121E+02 -0.13285060265E+03  0.18749423764E+03  0.27350492936E+03  0.12500000000E+03 0.  0.
         25    1    1    2    0    0  0.79853457121E+02  0.13285060265E+03  0.90213335589E+02  0.21860764661E+03  0.12500000000E+03 0.  0.
</event>
<event>
 4    0  0.2239279E-002  0.2509486E+03  0.7546771E-02  0.1112707E+00
         21   -1    0    0  502  501  0.00000000000E+00  0.00000000000E+00  0.15136809514E+04  0.15136809514E+04  0.00000000000E+00 0. -1.
         21   -1    0    0  501  502 -0.00000000000E+00 -0.00000000000E+00 -0.41603996553E+02  0.41603996553E+02  0.00000000000E+00 0. -1.
         25    1    1    2    0    0  0.11898635212E+03  0.33198179016E+02  0.12911525073E+04  0.13030578146E+04  0.12500000000E+03 0.  0.
         25    1    1    2    0    0 -0.11898635212E+03 -0.33198179016E+02  0.18092444755E+03  0.25222713336E+03  0.12500000000E+03 0.  0.
</event>
<event>
 4    0  0.2239279E-002  0.1714635E+03  0.7546771E-02  0.1176330E+00
         21   -1    0    0  502  501  0.00000000000E+00  0.00000000000E+00  0.35303496283E+03  0.35303496283E+03  0.00000000000E+00 0.  1.
         21   -1    0    0  501  502 -0.00000000000E+00 -0.00000000000E+00 -0.83277078514E+02  0.83277078514E+02  0.00000000000E+00 0.  1.
         25    1    1    2    0    0 -0.10867496602E+03 -0.18335925261E+02  0.18621922660E+03  0.24989808873E+03  0.12500000000E+03 0.  0.
         25    1    1    2    0    0  0.10867496602E+03  0.18335925261E+02  0.83538657711E+02  0.18641395261E+03  0.12500000000E+03 0.  0.
</event>
<event>
 4    0  0.2239279E-002  0.3871920E+03  0.7546771E-02  0.1048307E+00
         21   -1    0    0  502  501  0.00000000000E+00  0.00000000000E+00  0.29498641611E+03  0.29498641611E+03  0.00000000000E+00 0. -1.
         21   -1    0    0  501  502 -0.00000000000E+00 -0.00000000000E+00 -0.50821885419E+03  0.50821885419E+03  0.00000000000E+00 0. -1.
         25    1    1    2    0    0 -0.19858645379E+03  0.25916540691E+03  0.65978181139E+02  0.35578281037E+03  0.12500000000E+03 0.  0.
         25    1    1    2    0    0  0.19858645379E+03 -0.25916540691E+03 -0.27921061922E+03  0.44742245993E+03  0.12500000000E+03 0.  0.
</event>
<event>
 4    0  0.2239279E-002  0.2253905E+03  0.7546771E-02  0.1129927E+00
         21   -1    0    0  502  501  0.00000000000E+00  0.00000000000E+00  0.16056338778E+03  0.16056338778E+03  0.00000000000E+00 0.  1.
         21   -1    0    0  501  502 -0.00000000000E+00 -0.00000000000E+00 -0.31639144471E+03  0.31639144471E+03  0.00000000000E+00 0.  1.
         25    1    1    2    0    0  0.15623463689E+03  0.10373575358E+03 -0.75429518959E+02  0.23766569097E+03  0.12500000000E+03 0.  0.
         25    1    1    2    0    0 -0.15623463689E+03 -0.10373575358E+03 -0.80398537972E+02  0.23928914151E+03  0.12500000000E+03 0.  0.
</event>
<event>
 4    0  0.2239279E-002  0.2212529E+03  0.7546771E-02  0.1132952E+00
         21   -1    0    0  502  501  0.00000000000E+00  0.00000000000E+00  0.31104034784E+02  0.31104034784E+02  0.00000000000E+00 0. -1.
         21   -1    0    0  501  502 -0.00000000000E+00 -0.00000000000E+00 -0.15738424804E+04  0.15738424804E+04  0.00000000000E+00 0. -1.
         25    1    1    2    0    0  0.27852348008E+02 -0.33987651306E+02 -0.12870338209E+03  0.18471728206E+03  0.12500000000E+03 0.  0.
         25    1    1    2    0    0 -0.27852348008E+02  0.33987651306E+02 -0.14140350636E+04  0.14202292332E+04  0.12500000000E+03 0.  0.
</event>
<event>
 4    0  0.2239279E-002  0.2523613E+03  0.7546771E-02  0.1111822E+00
         21   -1    0    0  502  501  0.00000000000E+00  0.00000000000E+00  0.42087220288E+03  0.42087220288E+03  0.00000000000E+00 0.  1.
         21   -1    0    0  501  502 -0.00000000000E+00 -0.00000000000E+00 -0.15131966091E+03  0.15131966091E+03  0.00000000000E+00 0.  1.
         25    1    1    2    0    0  0.31167060654E+02 -0.85710867565E+02 -0.91230754427E+02  0.17962680491E+03  0.12500000000E+03 0.  0.
         25    1    1    2    0    0 -0.31167060654E+02  0.85710867565E+02  0.36078329641E+03  0.39256505888E+03  0.12500000000E+03 0.  0.
</event>
<event>
 4    0  0.2239279E-002  0.2076531E+03  0.7546771E-02  0.1143438E+00
         21   -1    0    0  502  501  0.00000000000E+00  0.00000000000E+00  0.61402735469E+02  0.61402735469E+02  0.00000000000E+00 0. -1.
         21   -1    0    0  501  502 -0.00000000000E+00 -0.00000000000E+00 -0.70224544310E+03  0.70224544310E+03  0.00000000000E+00 0. -1.
         25    1    1    2    0    0 -0.14381018340E+03 -0.55018905047E+02 -0.20727646412E+03  0.28687450451E+03  0.12500000000E+03 0.  0.
         25    1    1    2    0    0  0.14381018340E+03  0.55018905047E+02 -0.43356624352E+03  0.47677367406E+03  0.12500000000E+03 0.  0.
</event>
<event>
 4    0  0.2239279E-002  0.1846112E+03  0.7546771E-02  0.1163413E+00
         21   -1    0    0  502  501  0.00000000000E+00  0.00000000000E+00  0.31067628795E+04  0.31067628795E+04  0.00000000000E+00 0. -1.
         21   -1    0    0  501  502 -0.00000000000E+00 -0.00000000000E+00 -0.10970035702E+02  0.10970035702E+02  0.00000000000E+00 0. -1.
         25    1    1    2    0    0 -0.33097297941E+02  0.12940622132E+03  0.13385080599E+04  0.13509516008E+04  0.12500000000E+03 0.  0.
         25    1    1    2    0    0  0.33097297941E+02 -0.12940622132E+03  0.17572847839E+04  0.17667813144E+04  0.12500000000E+03 0.  0.
</event>
<event>
 4    0  0.2239279E-002  0.1945241E+03  0.7546771E-02  0.1154443E+00
         21   -1    0    0  502  501  0.00000000000E+00  0.00000000000E+00  0.20090861744E+03  0.20090861744E+03  0.00000000000E+00 0. -1.
         21   -1    0    0  501  502 -0.00000000000E+00 -0.00000000000E+00 -0.18834245469E+03  0.18834245469E+03  0.00000000000E+00 0. -1.
         25    1    1    2    0    0 -0.11928667139E+03 -0.19489386538E+01 -0.83102827767E+02  0.19173989756E+03  0.12500000000E+03 0.  0.
         25    1    1    2    0    0  0.11928667139E+03  0.19489386538E+01  0.95668990511E+02  0.19751117457E+03  0.12500000000E+03 0.  0.
</event>
<event>
 4    0  0.2239279E-002  0.2476635E+03  0.7546771E-02  0.1114790E+00
         21   -1    0    0  502  501  0.00000000000E+00  0.00000000000E+00  0.46983373314E+02  0.46983373314E+02  0.00000000000E+00 0. -1.
         21   -1    0    0  501  502 -0.00000000000E+00 -0.00000000000E+00 -0.13055083771E+04  0.13055083771E+04  0.00000000000E+00 0. -1.
         25    1    1    2    0    0  0.20411584185E+03  0.25670770513E+02 -0.78824069584E+03  0.82417877911E+03  0.12500000000E+03 0.  0.
         25    1    1    2    0    0 -0.20411584185E+03 -0.25670770513E+02 -0.47028430797E+03  0.52831297133E+03  0.12500000000E+03 0.  0.
</event>
<event>
 4    0  0.2239279E-002  0.2229614E+03  0.7546771E-02  0.1131694E+00
         21   -1    0    0  502  501  0.00000000000E+00  0.00000000000E+00  0.23975654322E+02  0.23975654322E+02  0.00000000000E+00 0.  1.
         21   -1    0    0  501  502 -0.00000000000E+00 -0.00000000000E+00 -0.20734282408E+04  0.20734282408E+04  0.00000000000E+00 0.  1.
         25    1    1    2    0    0 -0.19133639521E+02 -0.11879934491E+03 -0.36610989118E+03  0.40514297838E+03  0.12500000000E+03 0.  0.
         25    1    1    2    0    0  0.19133639521E+02  0.11879934491E+03 -0.16833426953E+04  0.16922609167E+04  0.12500000000E+03 0.  0.
</event>
<event>
 4    0  0.2239279E-002  0.2029633E+03  0.7546771E-02  0.1147263E+00
         21   -1    0    0  502  501  0.00000000000E+00  0.00000000000E+00  0.37303110735E+03  0.37303110735E+03  0.00000000000E+00 0.  1.
         21   -1    0    0  501  502 -0.00000000000E+00 -0.00000000000E+00 -0.11043077172E+03  0.11043077172E+03  0.00000000000E+00 0.  1.
         25    1    1    2    0    0 -0.84774308250E+02  0.10575955260E+03  0.30258414165E+02  0.18684843572E+03  0.12500000000E+03 0.  0.
         25    1    1    2    0    0  0.84774308250E+02 -0.10575955260E+03  0.23234192147E+03  0.29661344335E+03  0.12500000000E+03 0.  0.
</event>
<event>
 4    0  0.2239279E-002  0.3311622E+03  0.7546771E-02  0.1070624E+00
         21   -1    0    0  502  501  0.00000000000E+00  0.00000000000E+00  0.49640454070E+03  0.49640454070E+03  0.00000000000E+00 0. -1.
         21   -1    0    0  501  502 -0.00000000000E+00 -0.00000000000E+00 -0.22092545254E+03  0.22092545254E+03  0.00000000000E+00 0. -1.
         25    1    1    2    0    0 -0.63589512454E+02 -0.11754720014E+03  0.43667377468E+03  0.47346589724E+03  0.12500000000E+03 0.  0.
         25    1    1    2    0    0  0.63589512454E+02  0.11754720014E+03 -0.16119468652E+03  0.24386409600E+03  0.12500000000E+03 0.  0.
</event>
<event>
 4    0  0.2239279E-002  0.2366312E+03  0.7546771E-02  0.1122058E+00
         21   -1    0    0  502  501  0.00000000000E+00  0.00000000000E+00  0.15678063251E+04  0.15678063251E+04  0.00000000000E+00 0. -1.
         21   -1    0    0  501  502 -0.00000000000E+00 -0.00000000000E+00 -0.35715071626E+02  0.35715071626E+02  0.00000000000E+00 0. -1.
         25    1    1    2    0    0  0.14714703024E+03  0.12181787471E+03  0.97702846729E+03  0.10033451395E+04  0.12500000000E+03 0.  0.
         25    1    1    2    0    0 -0.14714703024E+03 -0.12181787471E+03  0.55506278620E+03  0.60017625722E+03  0.12500000000E+03 0.  0.
</event>
<event>
 4    0  0.2239279E-002  0.2650069E+03  0.7546771E-02  0.1104172E+00
         21   -1    0    0  502  501  0.00000000000E+00  0.00000000000E+00  0.21254427422E+03  0.21254427422E+03  0.00000000000E+00 0.  1.
         21   -1    0    0  501  502 -0.00000000000E+00 -0.00000000000E+00 -0.33041894010E+03  0.33041894010E+03  0.00000000000E+00 0.  1.
         25    1    1    2    0    0  0.30701746631E+02 -0.20766592274E+03  0.46215140925E+02  0.24865351790E+03  0.12500000000E+03 0.  0.
         25    1    1    2    0    0 -0.30701746631E+02  0.20766592274E+03 -0.16408980680E+03  0.29430969642E+03  0.12500000000E+03 0.  0.
</event>
<event>
 4    0  0.2239279E-002  0.1791537E+03  0.7546771E-02  0.1168625E+00
         21   -1    0    0  502  501  0.00000000000E+00  0.00000000000E+00  0.17332515313E+02  0.17332515313E+02  0.00000000000E+00 0.  1.
         21   -1    0    0  501  502 -0.00000000000E+00 -0.00000000000E+00 -0.18517818763E+04  0.18517818763E+04  0.00000000000E+00 0.  1.
         25    1    1    2    0    0  0.58841191845E+02 -0.73010925695E+02 -0.13743219822E+04  0.13831770645E+04  0.12500000000E+03 0.  0.
         25    1    1    2    0    0 -0.58841191845E+02  0.73010925695E+02 -0.46012737881E+03  0.48593732709E+03  0.12500000000E+03 0.  0.
</event>
<event>
 4    0  0.2239279E-002  0.2021425E+03  0.7546771E-02  0.1147944E+00
         21   -1    0    0  502  501  0.00000000000E+00  0.00000000000E+00  0.10779165411E+03  0.10779165411E+03  0.00000000000E+00 0.  1.
         21   -1    0    0  501  502 -0.00000000000E+00 -0.00000000000E+00 -0.37907949879E+03  0.37907949879E+03  0.00000000000E+00 0.  1.
         25    1    1    2    0    0 -0.74961601832E+02 -0.13522014839E+03 -0.91677493293E+02  0.21893718975E+03  0.12500000000E+03 0.  0.
         25    1    1    2    0    0  0.74961601832E+02  0.13522014839E+03 -0.17961035138E+03  0.26793396314E+03  0.12500000000E+03 0.  0.
</event>
<event>
 4    0  0.2239279E-002  0.1543803E+03  0.7546771E-02  0.1195192E+00
         21   -1    0    0  502  501  0.00000000000E+00  0.00000000000E+00  0.33997779239E+03  0.33997779239E+03  0.00000000000E+00 0.  1.
         21   -1    0    0  501  502 -0.00000000000E+00 -0.00000000000E+00 -0.70102461782E+02  0.70102461782E+02  0.00000000000E+00 0.  1.
         25    1    1    2    0    0 -0.80122595889E+02  0.13130694200E+02  0.81542840520E+02  0.16990079559E+03  0.12500000000E+03 0.  0.
         25    1    1    2    0    0  0.80122595889E+02 -0.13130694200E+02  0.18833249009E+03  0.24017945858E+03  0.12500000000E+03 0.  0.
</event>
<event>
 4    0  0.2239279E-002  0.1896390E+03  0.7546771E-02  0.1158787E+00
         21   -1    0    0  502  501  0.00000000000E+00  0.00000000000E+00  0.60937720289E+03  0.60937720289E+03  0.00000000000E+00 0.  1.
         21   -1    0    0  501  502 -0.00000000000E+00 -0.00000000000E+00 -0.59015904777E+02  0.59015904777E+02  0.00000000000E+00 0.  1.
         25    1    1    2    0    0  0.10870816733E+03  0.47020874876E+02  0.13519856809E+03  0.21893396523E+03  0.12500000000E+03 0.  0.
         25    1    1    2    0    0 -0.10870816733E+03 -0.47020874876E+02  0.41516273003E+03  0.44945914244E+03  0.12500000000E+03 0.  0.
</event>
<event>
 4    0  0.2239279E-002  0.2141601E+03  0.7546771E-02  0.1138313E+00
         21   -1    0    0  502  501  0.00000000000E+00  0.00000000000E+00  0.52399016962E+02  0.52399016962E+02  0.00000000000E+00 0.  1.
         21   -1    0    0  501  502 -0.00000000000E+00 -0.00000000000E+00 -0.87529413641E+03  0.87529413641E+03  0.00000000000E+00 0.  1.
         25    1    1    2    0    0 -0.13668264920E+03  0.58054131451E+01 -0.64395229519E+03  0.67008611976E+03  0.12500000000E+03 0.  0.
         25    1    1    2    0    0  0.13668264920E+03 -0.58054131451E+01 -0.17894282426E+03  0.25760703362E+03  0.12500000000E+03 0.  0.
</event>
<event>
 4    0  0.2239279E-002  0.1548190E+03  0.7546771E-02  0.1194673E+00
         21   -1    0    0  502  501  0.00000000000E+00  0.00000000000E+00  0.69893365467E+03  0.69893365467E+03  0.00000000000E+00 0. -1.
         21   -1    0    0  501  502 -0.00000000000E+00 -0.00000000000E+00 -0.34293581404E+02  0.34293581404E+02  0.00000000000E+00 0. -1.
         25    1    1    2    0    0 -0.25336287885E+02  0.32511994012E+02  0.13928725665E+03  0.19163741050E+03  0.12500000000E+03 0.  0.
         25    1    1    2    0    0  0.25336287885E+02 -0.32511994012E+02  0.52535281661E+03  0.54158982557E+03  0.12500000000E+03 0.  0.
</event>
<event>
 4    0  0.2239279E-002  0.3203424E+03  0.7546771E-02  0.1075492E+00
         21   -1    0    0  502  501  0.00000000000E+00  0.00000000000E+00  0.11238917357E+03  0.11238917357E+03  0.00000000000E+00 0. -1.
         21   -1    0    0  501  502 -0.00000000000E+00 -0.00000000000E+00 -0.91307068976E+03  0.91307068976E+03  0.00000000000E+00 0.  1.
         25    1    1    2    0    0  0.19798412119E+03 -0.15508880342E+03 -0.64697380829E+03  0.70530160768E+03  0.12500000000E+03 0.  0.
         25    1    1    2    0    0 -0.19798412119E+03  0.15508880342E+03 -0.15370770791E+03  0.32015825565E+03  0.12500000000E+03 0.  0.
</event>
<event>
 4    0  0.2239279E-002  0.2608032E+03  0.7546771E-02  0.1106662E+00
         21   -1    0    0  502  501  0.00000000000E+00  0.00000000000E+00  0.36005518202E+02  0.36005518202E+02  0.00000000000E+00 0. -1.
         21   -1    0    0  501  502 -0.00000000000E+00 -0.00000000000E+00 -0.18891073546E+04  0.18891073546E+04  0.00000000000E+00 0. -1.
         25    1    1    2    0    0 -0.17947011676E+03  0.91667039176E+02 -0.13271435529E+04  0.13481644481E+04  0.12500000000E+03 0.  0.
         25    1    1    2    0    0  0.17947011676E+03 -0.91667039176E+02 -0.52595828342E+03  0.57694842472E+03  0.12500000000E+03 0.  0.
</event>
<event>
 4    0  0.2239279E-002  0.1997565E+03  0.7546771E-02  0.1149945E+00
         21   -1    0    0  502  501  0.00000000000E+00  0.00000000000E+00  0.11122697119E+03  0.11122697119E+03  0.00000000000E+00 0.  1.
         21   -1    0    0  501  502 -0.00000000000E+00 -0.00000000000E+00 -0.35874996188E+03  0.35874996188E+03  0.00000000000E+00 0.  1.
         25    1    1    2    0    0 -0.16776502571E+02 -0.24797995710E+02  0.56117188664E+02  0.14025166842E+03  0.12500000000E+03 0.  0.
         25    1    1    2    0    0  0.16776502571E+02  0.24797995710E+02 -0.30364017936E+03  0.32972526466E+03  0.12500000000E+03 0.  0.
</event>
<event>
 4    0  0.2239279E-002  0.1590217E+03  0.7546771E-02  0.1189806E+00
         21   -1    0    0  502  501  0.00000000000E+00  0.00000000000E+00  0.93672300833E+02  0.93672300833E+02  0.00000000000E+00 0. -1.
         21   -1    0    0  501  502 -0.00000000000E+00 -0.00000000000E+00 -0.26996143055E+03  0.26996143055E+03  0.00000000000E+00 0. -1.
         25    1    1    2    0    0 -0.59112008533E+02 -0.61233692468E+02 -0.14437945513E+03  0.20907946267E+03  0.12500000000E+03 0.  0.
         25    1    1    2    0    0  0.59112008533E+02  0.61233692468E+02 -0.31909674589E+02  0.15455426872E+03  0.12500000000E+03 0.  0.
</event>
<event>
 4    0  0.2239279E-002  0.1878140E+03  0.7546771E-02  0.1160448E+00
         21   -1    0    0  502  501  0.00000000000E+00  0.00000000000E+00  0.64119712763E+02  0.64119712763E+02  0.00000000000E+00 0.  1.
         21   -1    0    0  501  502 -0.00000000000E+00 -0.00000000000E+00 -0.55012903994E+03  0.55012903994E+03  0.00000000000E+00 0.  1.
         25    1    1    2    0    0 -0.11689212968E+03 -0.17495189162E+02 -0.11977017647E+03  0.20961809749E+03  0.12500000000E+03 0.  0.
         25    1    1    2    0    0  0.11689212968E+03  0.17495189162E+02 -0.36623915071E+03  0.40463065521E+03  0.12500000000E+03 0.  0.
</event>
<event>
 4    0  0.2239279E-002  0.1466211E+03  0.7546771E-02  0.1204688E+00
         21   -1    0    0  502  501  0.00000000000E+00  0.00000000000E+00  0.91487661748E+02  0.91487661748E+02  0.00000000000E+00 0.  1.
         21   -1    0    0  501  502 -0.00000000000E+00 -0.00000000000E+00 -0.23497974466E+03  0.23497974466E+03  0.00000000000E+00 0.  1.
         25    1    1    2    0    0  0.52099440486E+02  0.37754960075E+02 -0.11809152956E+03  0.18360391625E+03  0.12500000000E+03 0.  0.
         25    1    1    2    0    0 -0.52099440486E+02 -0.37754960075E+02 -0.25400553354E+02  0.14286349016E+03  0.12500000000E+03 0.  0.
</event>
<event>
 4    0  0.2239279E-002  0.2373344E+03  0.7546771E-02  0.1121581E+00
         21   -1    0    0  502  501  0.00000000000E+00  0.00000000000E+00  0.10108966699E+04  0.10108966699E+04  0.00000000000E+00 0. -1.
         21   -1    0    0  501  502 -0.00000000000E+00 -0.00000000000E+00 -0.55720446745E+02  0.55720446745E+02  0.00000000000E+00 0. -1.
         25    1    1    2    0    0  0.56904806729E+02  0.14668533362E+03  0.19381632283E+03  0.27918544218E+03  0.12500000000E+03 0.  0.
         25    1    1    2    0    0 -0.56904806729E+02 -0.14668533362E+03  0.76135990036E+03  0.78743167450E+03  0.12500000000E+03 0.  0.
</event>
<event>
 4    0  0.2239279E-002  0.2639867E+03  0.7546771E-02  0.1104771E+00
         21   -1    0    0  502  501  0.00000000000E+00  0.00000000000E+00  0.42552312039E+03  0.42552312039E+03  0.00000000000E+00 0.  1.
         21   -1    0    0  501  502 -0.00000000000E+00 -0.00000000000E+00 -0.16377252316E+03  0.16377252316E+03  0.00000000000E+00 0.  1.
         25    1    1    2    0    0  0.11401655942E+03 -0.18214407703E+03  0.31746960435E+02  0.25061745772E+03  0.12500000000E+03 0.  0.
         25    1    1    2    0    0 -0.11401655942E+03  0.18214407703E+03  0.23000363679E+03  0.33867818583E+03  0.12500000000E+03 0.  0.
</event>
<event>
 4    0  0.2239279E-002  0.2610165E+03  0.7546771E-02  0.1106534E+00
         21   -1    0    0  502  501  0.00000000000E+00  0.00000000000E+00  0.27142455325E+03  0.27142455325E+03  0.00000000000E+00 0. -1.
         21   -1    0    0  501  502 -0.00000000000E+00 -0.00000000000E+00 -0.25100752894E+03  0.25100752894E+03  0.00000000000E+00 0. -1.
         25    1    1    2    0    0  0.11437543908E+03 -0.44155262162E+02  0.20393641052E+03  0.26878706773E+03  0.12500000000E+03 0.  0.
         25    1    1    2    0    0 -0.11437543908E+03  0.44155262162E+02 -0.18351938621E+03  0.25364501445E+03  0.12500000000E+03 0.  0.
</event>
<event>
 4    0  0.2239279E-002  0.3478501E+03  0.7546771E-02  0.1063501E+00
         21   -1    0    0  502  501  0.00000000000E+00  0.00000000000E+00  0.62135609695E+02  0.62135609695E+02  0.00000000000E+00 0.  1.
         21   -1    0    0  501  502 -0.00000000000E+00 -0.00000000000E+00 -0.19473486430E+04  0.19473486430E+04  0.00000000000E+00 0.  1.
         25    1    1    2    0    0 -0.15687128834E+03 -0.21657902120E+03 -0.14741068290E+04  0.15033732128E+04  0.12500000000E+03 0.  0.
         25    1    1    2    0    0  0.15687128834E+03  0.21657902120E+03 -0.41110620430E+03  0.50611103994E+03  0.12500000000E+03 0.  0.
</event>
<event>
 4    0  0.2239279E-002  0.2162934E+03  0.7546771E-02  0.1136677E+00
         21   -1    0    0  502  501  0.00000000000E+00  0.00000000000E+00  0.35021803726E+03  0.35021803726E+03  0.00000000000E+00 0.  1.
         21   -1    0    0  501  502 -0.00000000000E+00 -0.00000000000E+00 -0.13358204194E+03  0.13358204194E+03  0.00000000000E+00 0.  1.
         25    1    1    2    0    0  0.26345882026E+02 -0.16804908944E+03  0.16105138640E+03  0.26551299596E+03  0.12500000000E+03 0.  0.
         25    1    1    2    0    0 -0.26345882026E+02  0.16804908944E+03  0.55584608924E+02  0.21828708324E+03  0.12500000000E+03 0.  0.
</event>
<event>
 4    0  0.2239279E-002  0.2017891E+03  0.7546771E-02  0.1148238E+00
         21   -1    0    0  502  501  0.00000000000E+00  0.00000000000E+00  0.27705347280E+03  0.27705347280E+03  0.00000000000E+00 0.  1.
         21   -1    0    0  501  502 -0.00000000000E+00 -0.00000000000E+00 -0.14697110826E+03  0.14697110826E+03  0.00000000000E+00 0.  1.
         25    1    1    2    0    0  0.11969017281E+03 -0.71985492716E-01 -0.43985566781E+02  0.17856503782E+03  0.12500000000E+03 0.  0.
         25    1    1    2    0    0 -0.11969017281E+03  0.71985492716E-01  0.17406793132E+03  0.24545954323E+03  0.12500000000E+03 0.  0.
</event>
<event>
 4    0  0.2239279E-002  0.2383305E+03  0.7546771E-02  0.1120910E+00
         21   -1    0    0  502  501  0.00000000000E+00  0.00000000000E+00  0.81889938323E+03  0.81889938323E+03  0.00000000000E+00 0.  1.
         21   -1    0    0  501  502 -0.00000000000E+00 -0.00000000000E+00 -0.69363116705E+02  0.69363116705E+02  0.00000000000E+00 0.  1.
         25    1    1    2    0    0 -0.19665921306E+02 -0.19979110238E+03  0.31970210424E+03  0.39766527194E+03  0.12500000000E+03 0.  0.
         25    1    1    2    0    0  0.19665921306E+02  0.19979110238E+03  0.42983416228E+03  0.49059722799E+03  0.12500000000E+03 0.  0.
</event>
<event>
 4    0  0.2239279E-002  0.2084381E+03  0.7546771E-02  0.1142809E+00
         21   -1    0    0  502  501  0.00000000000E+00  0.00000000000E+00  0.13708427876E+03  0.13708427876E+03  0.00000000000E+00 0. -1.
         21   -1    0    0  501  502 -0.00000000000E+00 -0.00000000000E+00 -0.31693230112E+03  0.31693230112E+03  0.00000000000E+00 0. -1.
         25    1    1    2    0    0 -0.12360650049E+03  0.11112354863E+03 -0.74738070777E+02  0.22099273573E+03  0.12500000000E+03 0.  0.
         25    1    1    2    0    0  0.12360650049E+03 -0.11112354863E+03 -0.10510995159E+03  0.23302384415E+03  0.12500000000E+03 0.  0.
</event>
<event>
 4    0  0.2239279E-002  0.1859864E+03  0.7546771E-02  0.1162132E+00
         21   -1    0    0  502  501  0.00000000000E+00  0.00000000000E+00  0.34326767988E+02  0.34326767988E+02  0.00000000000E+00 0.  1.
         21   -1    0    0  501  502 -0.00000000000E+00 -0.00000000000E+00 -0.10076957088E+04  0.10076957088E+04  0.00000000000E+00 0.  1.
         25    1    1    2    0    0 -0.11460901058E+03 -0.62140889347E+02 -0.61099651188E+03  0.63713299473E+03  0.12500000000E+03 0.  0.
         25    1    1    2    0    0  0.11460901058E+03  0.62140889347E+02 -0.36237242891E+03  0.40488948204E+03  0.12500000000E+03 0.  0.
</event>
<event>
 4    0  0.2239279E-002  0.3293599E+03  0.7546771E-02  0.1071420E+00
         21   -1    0    0  502  501  0.00000000000E+00  0.00000000000E+00  0.33868567973E+03  0.33868567973E+03  0.00000000000E+00 0. -1.
         21   -1    0    0  501  502 -0.00000000000E+00 -0.00000000000E+00 -0.32029091116E+03  0.32029091116E+03  0.00000000000E+00 0. -1.
         25    1    1    2    0    0  0.90111173672E+02  0.83512983272E+02  0.28815820519E+03  0.33727524845E+03  0.12500000000E+03 0.  0.
         25    1    1    2    0    0 -0.90111173672E+02 -0.83512983272E+02 -0.26976343662E+03  0.32170134245E+03  0.12500000000E+03 0.  0.
</event>
<event>
 4    0  0.2239279E-002  0.1525459E+03  0.7546771E-02  0.1197379E+00
         21   -1    0    0  502  501  0.00000000000E+00  0.00000000000E+00  0.34139941487E+02  0.34139941487E+02  0.00000000000E+00 0.  1.
         21   -1    0    0  501  502 -0.00000000000E+00 -0.00000000000E+00 -0.68161400297E+03  0.68161400297E+03  0.00000000000E+00 0.  1.
         25    1    1    2    0    0  0.36175500876E+01  0.50775455652E+02 -0.49052010099E+03  0.50874964673E+03  0.12500000000E+03 0.  0.
         25    1    1    2    0    0 -0.36175500876E+01 -0.50775455652E+02 -0.15695396049E+03  0.20700429773E+03  0.12500000000E+03 0.  0.
</event>
<event>
 4    0  0.2239279E-002  0.2122410E+03  0.7546771E-02  0.1139804E+00
         21   -1    0    0  502  501  0.00000000000E+00  0.00000000000E+00  0.71372069384E+03  0.71372069384E+03  0.00000000000E+00 0.  1.
         21   -1    0    0  501  502 -0.00000000000E+00 -0.00000000000E+00 -0.63114635878E+02  0.63114635878E+02  0.00000000000E+00 0.  1.
         25    1    1    2    0    0  0.14335209387E+03 -0.18387644546E+02  0.49435807084E+03  0.53000267027E+03  0.12500000000E+03 0.  0.
         25    1    1    2    0    0 -0.14335209387E+03  0.18387644546E+02  0.15624798712E+03  0.24683265944E+03  0.12500000000E+03 0.  0.
</event>
<event>
 4    0  0.2239279E-002  0.2290459E+03  0.7546771E-02  0.1127313E+00
         21   -1    0    0  502  501  0.00000000000E+00  0.00000000000E+00  0.24979917280E+03  0.24979917280E+03  0.00000000000E+00 0.  1.
         21   -1    0    0  501  502 -0.00000000000E+00 -0.00000000000E+00 -0.21001677724E+03  0.21001677724E+03  0.00000000000E+00 0.  1.
         25    1    1    2    0    0  0.90602642507E+02 -0.14753451490E+03 -0.63256234222E+02  0.22271421842E+03  0.12500000000E+03 0.  0.
         25    1    1    2    0    0 -0.90602642507E+02  0.14753451490E+03  0.10303862978E+03  0.23710173163E+03  0.12500000000E+03 0.  0.
</event>
<event>
 4    0  0.2239279E-002  0.1851976E+03  0.7546771E-02  0.1162866E+00
         21   -1    0    0  502  501  0.00000000000E+00  0.00000000000E+00  0.47521685693E+02  0.47521685693E+02  0.00000000000E+00 0. -1.
         21   -1    0    0  501  502 -0.00000000000E+00 -0.00000000000E+00 -0.72173648557E+03  0.72173648557E+03  0.00000000000E+00 0.  1.
         25    1    1    2    0    0  0.11269115373E+03  0.76869484605E+02 -0.32037345922E+03  0.36996265645E+03  0.12500000000E+03 0.  0.
         25    1    1    2    0    0 -0.11269115373E+03 -0.76869484605E+02 -0.35384134066E+03  0.39929551481E+03  0.12500000000E+03 0.  0.
</event>
<event>
 4    0  0.2239279E-002  0.1977924E+03  0.7546771E-02  0.1151615E+00
         21   -1    0    0  502  501  0.00000000000E+00  0.00000000000E+00  0.54589398493E+03  0.54589398493E+03  0.00000000000E+00 0. -1.
         21   -1    0    0  501  502 -0.00000000000E+00 -0.00000000000E+00 -0.71665656713E+02  0.71665656713E+02  0.00000000000E+00 0. -1.
         25    1    1    2    0    0 -0.17809739523E+01 -0.31576761453E+02  0.29623464032E+01  0.12897301744E+03  0.12500000000E+03 0.  0.
         25    1    1    2    0    0  0.17809739523E+01  0.31576761453E+02  0.47126598182E+03  0.48858662420E+03  0.12500000000E+03 0.  0.
</event>
<event>
 4    0  0.2239279E-002  0.2109540E+03  0.7546771E-02  0.1140813E+00
         21   -1    0    0  502  501  0.00000000000E+00  0.00000000000E+00  0.95175192966E+02  0.95175192966E+02  0.00000000000E+00 0. -1.
         21   -1    0    0  501  502 -0.00000000000E+00 -0.00000000000E+00 -0.46757530483E+03  0.46757530483E+03  0.00000000000E+00 0. -1.
         25    1    1    2    0    0  0.12282333988E+03 -0.37650676485E+02 -0.37831056824E+02  0.18319207166E+03  0.12500000000E+03 0.  0.
         25    1    1    2    0    0 -0.12282333988E+03  0.37650676485E+02 -0.33456905504E+03  0.37955842614E+03  0.12500000000E+03 0.  0.
</event>
<event>
 4    0  0.2239279E-002  0.2072632E+03  0.7546771E-02  0.1143752E+00
         21   -1    0    0  502  501  0.00000000000E+00  0.00000000000E+00  0.12114667532E+03  0.12114667532E+03  0.00000000000E+00 0. -1.
         21   -1    0    0  501  502 -0.00000000000E+00 -0.00000000000E+00 -0.35459511777E+03  0.35459511777E+03  0.00000000000E+00 0. -1.
         25    1    1    2    0    0 -0.16345433860E+03 -0.24738221957E+02 -0.11893753072E+03  0.23895697656E+03  0.12500000000E+03 0.  0.
         25    1    1    2    0    0  0.16345433860E+03  0.24738221957E+02 -0.11451091173E+03  0.23678481653E+03  0.12500000000E+03 0.  0.
</event>
<event>
 4    0  0.2239279E-002  0.3665324E+03  0.7546771E-02  0.1056027E+00
         21   -1    0    0  502  501  0.00000000000E+00  0.00000000000E+00  0.13953445679E+04  0.13953445679E+04  0.00000000000E+00 0. -1.
         21   -1    0    0  501  502 -0.00000000000E+00 -0.00000000000E+00 -0.96281604067E+02  0.96281604067E+02  0.00000000000E+00 0. -1.
         25    1    1    2    0    0 -0.31327075877E+02 -0.88598280534E+02  0.13240542902E+04  0.13332575912E+04  0.12500000000E+03 0.  0.
         25    1    1    2    0    0  0.31327075877E+02  0.88598280534E+02 -0.24991326354E+02  0.15836858082E+03  0.12500000000E+03 0.  0.
</event>
<event>
 4    0  0.2239279E-002  0.2285132E+03  0.7546771E-02  0.1127691E+00
         21   -1    0    0  502  501  0.00000000000E+00  0.00000000000E+00  0.33342148136E+02  0.33342148136E+02  0.00000000000E+00 0.  1.
         21   -1    0    0  501  502 -0.00000000000E+00 -0.00000000000E+00 -0.15661346381E+04  0.15661346381E+04  0.00000000000E+00 0.  1.
         25    1    1    2    0    0 -0.28604638045E+02 -0.14653135380E+03 -0.11849581951E+04  0.12008499437E+04  0.12500000000E+03 0.  0.
         25    1    1    2    0    0  0.28604638045E+02  0.14653135380E+03 -0.34783429483E+03  0.39862684258E+03  0.12500000000E+03 0.  0.
</event>
<event>
 4    0  0.2239279E-002  0.2846813E+03  0.7546771E-02  0.1093159E+00
         21   -1    0    0  502  501  0.00000000000E+00  0.00000000000E+00  0.21036733576E+04  0.21036733576E+04  0.00000000000E+00 0.  1.
         21   -1    0    0  501  502 -0.00000000000E+00 -0.00000000000E+00 -0.38524723699E+02  0.38524723699E+02  0.00000000000E+00 0.  1.
         25    1    1    2    0    0  0.62913166783E+02 -0.22666161623E+03  0.14104127041E+04  0.14353475366E+04  0.12500000000E+03 0.  0.
         25    1    1    2    0    0 -0.62913166783E+02  0.22666161623E+03  0.65473592981E+03  0.70685054475E+03  0.12500000000E+03 0.  0.
</event>
<event>
 4    0  0.2239279E-002  0.1455551E+03  0.7546771E-02  0.1206044E+00
         21   -1    0    0  502  501  0.00000000000E+00  0.00000000000E+00  0.45217008378E+03  0.45217008378E+03  0.00000000000E+00 0.  1.
         21   -1    0    0  501  502 -0.00000000000E+00 -0.00000000000E+00 -0.46854715365E+02  0.46854715365E+02  0.00000000000E+00 0.  1.
         25    1    1    2    0    0 -0.36024139013E+02 -0.38768156511E+01  0.90924023067E+02  0.15876065716E+03  0.12500000000E+03 0.  0.
         25    1    1    2    0    0  0.36024139013E+02  0.38768156511E+01  0.31439134535E+03  0.34026414199E+03  0.12500000000E+03 0.  0.
</event>
<event>
 4    0  0.2239279E-002  0.1877526E+03  0.7546771E-02  0.1160504E+00
         21   -1    0    0  502  501  0.00000000000E+00  0.00000000000E+00  0.44632939663E+03  0.44632939663E+03  0.00000000000E+00 0. -1.
         21   -1    0    0  501  502 -0.00000000000E+00 -0.00000000000E+00 -0.78979887078E+02  0.78979887078E+02  0.00000000000E+00 0. -1.
         25    1    1    2    0    0  0.67424947152E+02 -0.10999586034E+02  0.35477449853E+03  0.38230492960E+03  0.12500000000E+03 0.  0.
         25    1    1    2    0    0 -0.67424947152E+02  0.10999586034E+02  0.12575011024E+02  0.14300435411E+03  0.12500000000E+03 0.  0.
</event>
<event>
 4    0  0.2239279E-002  0.2695937E+03  0.7546771E-02  0.1101512E+00
         21   -1    0    0  502  501  0.00000000000E+00  0.00000000000E+00  0.17425602877E+04  0.17425602877E+04  0.00000000000E+00 0.  1.
         21   -1    0    0  501  502 -0.00000000000E+00 -0.00000000000E+00 -0.41709181499E+02  0.41709181499E+02  0.00000000000E+00 0.  1.
         25    1    1    2    0    0 -0.41663433774E+02 -0.17994219165E+03  0.13516408517E+04  0.13699171603E+04  0.12500000000E+03 0.  0.
         25    1    1    2    0    0  0.41663433774E+02  0.17994219165E+03  0.34921025445E+03  0.41435230887E+03  0.12500000000E+03 0.  0.
</event>
<event>
 4    0  0.2239279E-002  0.1390179E+03  0.7546771E-02  0.1214657E+00
         21   -1    0    0  502  501  0.00000000000E+00  0.00000000000E+00  0.14633396637E+03  0.14633396637E+03  0.00000000000E+00 0. -1.
         21   -1    0    0  501  502 -0.00000000000E+00 -0.00000000000E+00 -0.13206763017E+03  0.13206763017E+03  0.00000000000E+00 0. -1.
         25    1    1    2    0    0  0.60602404241E+02 -0.41651607028E+01  0.10451164012E+02  0.13937082475E+03  0.12500000000E+03 0.  0.
         25    1    1    2    0    0 -0.60602404241E+02  0.41651607028E+01  0.38151721856E+01  0.13903077178E+03  0.12500000000E+03 0.  0.
</event>
<event>
 4    0  0.2239279E-002  0.2821184E+03  0.7546771E-02  0.1094537E+00
         21   -1    0    0  502  501  0.00000000000E+00  0.00000000000E+00  0.88005076726E+02  0.88005076726E+02  0.00000000000E+00 0.  1.
         21   -1    0    0  501  502 -0.00000000000E+00 -0.00000000000E+00 -0.90438888072E+03  0.90438888072E+03  0.00000000000E+00 0.  1.
         25    1    1    2    0    0 -0.51722137037E+02  0.15413121520E+03 -0.74894219530E+03  0.77651208803E+03  0.12500000000E+03 0.  0.
         25    1    1    2    0    0  0.51722137037E+02 -0.15413121520E+03 -0.67441608701E+02  0.21588186942E+03  0.12500000000E+03 0.  0.
</event>
<event>
 4    0  0.2239279E-002  0.1862635E+03  0.7546771E-02  0.1161875E+00
         21   -1    0    0  502  501  0.00000000000E+00  0.00000000000E+00  0.16338436027E+03  0.16338436027E+03  0.00000000000E+00 0. -1.
         21   -1    0    0  501  502 -0.00000000000E+00 -0.00000000000E+00 -0.21234651801E+03  0.21234651801E+03  0.00000000000E+00 0. -1.
         25    1    1    2    0    0 -0.28207609144E+02  0.11377051285E+03  0.49151584505E+02  0.17827023607E+03  0.12500000000E+03 0.  0.
         25    1    1    2    0    0  0.28207609144E+02 -0.11377051285E+03 -0.98113742245E+02  0.19746064222E+03  0.12500000000E+03 0.  0.
</event>
<event>
 4    0  0.2239279E-002  0.1701286E+03  0.7546771E-02  0.1177714E+00
         21   -1    0    0  502  501  0.00000000000E+00  0.00000000000E+00  0.12017212125E+03  0.12017212125E+03  0.00000000000E+00 0. -1.
         21   -1    0    0  501  502 -0.00000000000E+00 -0.00000000000E+00 -0.24085226264E+03  0.24085226264E+03  0.00000000000E+00 0. -1.
         25    1    1    2    0    0  0.10159485029E+03 -0.34577417445E+02 -0.10537613336E+03  0.19556646156E+03  0.12500000000E+03 0.  0.
         25    1    1    2    0    0 -0.10159485029E+03  0.34577417445E+02 -0.15304008021E+02  0.16545792234E+03  0.12500000000E+03 0.  0.
</event>
<event>
 4    0  0.2239279E-002  0.1852974E+03  0.7546771E-02  0.1162772E+00
         21   -1    0    0  502  501  0.00000000000E+00  0.00000000000E+00  0.10156398281E+04  0.10156398281E+04  0.00000000000E+00 0.  1.
         21   -1    0    0  501  502 -0.00000000000E+00 -0.00000000000E+00 -0.33806394552E+02  0.33806394552E+02  0.00000000000E+00 0.  1.
         25    1    1    2    0    0 -0.56181635714E+02 -0.77558222332E+02  0.21434982579E+03  0.26597462635E+03  0.12500000000E+03 0.  0.
         25    1    1    2    0    0  0.56181635714E+02  0.77558222332E+02  0.76748360774E+03  0.78347159629E+03  0.12500000000E+03 0.  0.
</event>
<event>
 4    0  0.2239279E-002  0.1842113E+03  0.7546771E-02  0.1163788E+00
         21   -1    0    0  502  501  0.00000000000E+00  0.00000000000E+00  0.19561921771E+02  0.19561921771E+02  0.00000000000E+00 0.  1.
         21   -1    0    0  501  502 -0.00000000000E+00 -0.00000000000E+00 -0.17346865469E+04  0.17346865469E+04  0.00000000000E+00 0.  1.
         25    1    1    2    0    0  0.10202380481E+03  0.10407193526E+02 -0.43726251876E+03  0.46619810890E+03  0.12500000000E+03 0.  0.
         25    1    1    2    0    0 -0.10202380481E+03 -0.10407193526E+02 -0.12778621064E+04  0.12880503598E+04  0.12500000000E+03 0.  0.
</event>
<event>
 4    0  0.2239279E-002  0.2630182E+03  0.7546771E-02  0.1105343E+00
         21   -1    0    0  502  501  0.00000000000E+00  0.00000000000E+00  0.10614298806E+03  0.10614298806E+03  0.00000000000E+00 0.  1.
         21   -1    0    0  501  502 -0.00000000000E+00 -0.00000000000E+00 -0.65174890160E+03  0.65174890160E+03  0.00000000000E+00 0.  1.
         25    1    1    2    0    0  0.22778993041E+03 -0.34609429505E+02 -0.24165085787E+03  0.35651956764E+03  0.12500000000E+03 0.  0.
         25    1    1    2    0    0 -0.22778993041E+03  0.34609429505E+02 -0.30395505568E+03  0.40137232201E+03  0.12500000000E+03 0.  0.
</event>
<event>
 4    0  0.2239279E-002  0.1924858E+03  0.7546771E-02  0.1156238E+00
         21   -1    0    0  502  501  0.00000000000E+00  0.00000000000E+00  0.13730897350E+03  0.13730897350E+03  0.00000000000E+00 0.  1.
         21   -1    0    0  501  502 -0.00000000000E+00 -0.00000000000E+00 -0.26983523937E+03  0.26983523937E+03  0.00000000000E+00 0.  1.
         25    1    1    2    0    0  0.41303390298E+02  0.97653840350E+01 -0.21441884897E+03  0.25179709206E+03  0.12500000000E+03 0.  0.
         25    1    1    2    0    0 -0.41303390298E+02 -0.97653840350E+01  0.81892583107E+02  0.15534712081E+03  0.12500000000E+03 0.  0.
</event>
<event>
 4    0  0.2239279E-002  0.2450160E+03  0.7546771E-02  0.1116496E+00
         21   -1    0    0  502  501  0.00000000000E+00  0.00000000000E+00  0.41366571340E+02  0.41366571340E+02  0.00000000000E+00 0. -1.
         21   -1    0    0  501  502 -0.00000000000E+00 -0.00000000000E+00 -0.14512409241E+04  0.14512409241E+04  0.00000000000E+00 0. -1.
         25    1    1    2    0    0  0.52044577141E+02  0.20414618265E+03 -0.71972153368E+03  0.76026862880E+03  0.12500000000E+03 0.  0.
         25    1    1    2    0    0 -0.52044577141E+02 -0.20414618265E+03 -0.69015281904E+03  0.73233886660E+03  0.12500000000E+03 0.  0.
</event>
<event>
 4    0  0.2239279E-002  0.1650073E+03  0.7546771E-02  0.1183157E+00
         21   -1    0    0  502  501  0.00000000000E+00  0.00000000000E+00  0.48229314320E+02  0.48229314320E+02  0.00000000000E+00 0.  1.
         21   -1    0    0  501  502 -0.00000000000E+00 -0.00000000000E+00 -0.56454082125E+03  0.56454082125E+03  0.00000000000E+00 0.  1.
         25    1    1    2    0    0 -0.59217069478E+02  0.47574241732E+02 -0.39996017539E+03  0.42586748137E+03  0.12500000000E+03 0.  0.
         25    1    1    2    0    0  0.59217069478E+02 -0.47574241732E+02 -0.11635133154E+03  0.18690265419E+03  0.12500000000E+03 0.  0.
</event>
<event>
 4    0  0.2239279E-002  0.2535168E+03  0.7546771E-02  0.1111102E+00
         21   -1    0    0  502  501  0.00000000000E+00  0.00000000000E+00  0.10101421244E+04  0.10101421244E+04  0.00000000000E+00 0. -1.
         21   -1    0    0  501  502 -0.00000000000E+00 -0.00000000000E+00 -0.63625477137E+02  0.63625477137E+02  0.00000000000E+00 0. -1.
         25    1    1    2    0    0 -0.10864346593E+03 -0.18682302463E+03  0.37999267418E+03  0.45467095537E+03  0.12500000000E+03 0.  0.
         25    1    1    2    0    0  0.10864346593E+03  0.18682302463E+03  0.56652397307E+03  0.61909664616E+03  0.12500000000E+03 0.  0.
</event>
<event>
 4    0  0.2239279E-002  0.2438542E+03  0.7546771E-02  0.1117252E+00
         21   -1    0    0  502  501  0.00000000000E+00  0.00000000000E+00  0.13279965427E+03  0.13279965427E+03  0.00000000000E+00 0. -1.
         21   -1    0    0  501  502 -0.00000000000E+00 -0.00000000000E+00 -0.44777875958E+03  0.44777875958E+03  0.00000000000E+00 0. -1.
         25    1    1    2    0    0  0.45013088608E+02  0.40008866390E+02  0.81227687324E+02  0.16077880682E+03  0.12500000000E+03 0.  0.
         25    1    1    2    0    0 -0.45013088608E+02 -0.40008866390E+02 -0.39620679263E+03  0.41979960703E+03  0.12500000000E+03 0.  0.
</event>
<event>
 4    0  0.2239279E-002  0.2329157E+03  0.7546771E-02  0.1124604E+00
         21   -1    0    0  502  501  0.00000000000E+00  0.00000000000E+00  0.42433875997E+02  0.42433875997E+02  0.00000000000E+00 0.  1.
         21   -1    0    0  501  502 -0.00000000000E+00 -0.00000000000E+00 -0.12784534723E+04  0.12784534723E+04  0.00000000000E+00 0.  1.
         25    1    1    2    0    0  0.19293856125E+02  0.36789497302E+02 -0.73326118281E+02  0.15075622580E+03  0.12500000000E+03 0.  0.
         25    1    1    2    0    0 -0.19293856125E+02 -0.36789497302E+02 -0.11626934780E+04  0.11701311225E+04  0.12500000000E+03 0.  0.
</event>
<event>
 4    0  0.2239279E-002  0.1966319E+03  0.7546771E-02  0.1152612E+00
         21   -1    0    0  502  501  0.00000000000E+00  0.00000000000E+00  0.11149674399E+03  0.11149674399E+03  0.00000000000E+00 0.  1.
         21   -1    0    0  501  502 -0.00000000000E+00 -0.00000000000E+00 -0.34677349633E+03  0.34677349633E+03  0.00000000000E+00 0.  1.
         25    1    1    2    0    0  0.73131899472E+02  0.99492038534E+02 -0.14773531284E+02  0.17632412676E+03  0.12500000000E+03 0.  0.
         25    1    1    2    0    0 -0.73131899472E+02 -0.99492038534E+02 -0.22050322106E+03  0.28194611356E+03  0.12500000000E+03 0.  0.
</event>
<event>
 4    0  0.2239279E-002  0.1792252E+03  0.7546771E-02  0.1168555E+00
         21   -1    0    0  502  501  0.00000000000E+00  0.00000000000E+00  0.79065096251E+03  0.79065096251E+03  0.00000000000E+00 0.  1.
         21   -1    0    0  501  502 -0.00000000000E+00 -0.00000000000E+00 -0.40626847808E+02  0.40626847808E+02  0.00000000000E+00 0.  1.
         25    1    1    2    0    0 -0.22012210255E+02  0.12097020693E+03  0.28891396890E+03  0.33795652056E+03  0.12500000000E+03 0.  0.
         25    1    1    2    0    0  0.22012210255E+02 -0.12097020693E+03  0.46111014581E+03  0.49332128976E+03  0.12500000000E+03 0.  0.
</event>
<event>
 4    0  0.2239279E-002  0.2211813E+03  0.7546771E-02  0.1133005E+00
         21   -1    0    0  502  501  0.00000000000E+00  0.00000000000E+00  0.43432144360E+03  0.43432144360E+03  0.00000000000E+00 0.  1.
         21   -1    0    0  501  502 -0.00000000000E+00 -0.00000000000E+00 -0.11263817621E+03  0.11263817621E+03  0.00000000000E+00 0.  1.
         25    1    1    2    0    0  0.17134650599E+02 -0.17603350235E+03  0.10534186245E+03  0.24083873896E+03  0.12500000000E+03 0.  0.
         25    1    1    2    0    0 -0.17134650599E+02  0.17603350235E+03  0.21634140495E+03  0.30612088085E+03  0.12500000000E+03 0.  0.
</event>
<event>
 4    0  0.2239279E-002  0.1714025E+03  0.7546771E-02  0.1176393E+00
         21   -1    0    0  502  501  0.00000000000E+00  0.00000000000E+00  0.72970686503E+02  0.72970686503E+02  0.00000000000E+00 0.  1.
         21   -1    0    0  501  502 -0.00000000000E+00 -0.00000000000E+00 -0.40261129263E+03  0.40261129263E+03  0.00000000000E+00 0.  1.
         25    1    1    2    0    0 -0.96950168321E+02 -0.55118864982E+02 -0.21515550433E+03  0.27267987725E+03  0.12500000000E+03 0.  0.
         25    1    1    2    0    0  0.96950168321E+02  0.55118864982E+02 -0.11448510180E+03  0.20290210188E+03  0.12500000000E+03 0.  0.
</event>
<event>
 4    0  0.2239279E-002  0.2469005E+03  0.7546771E-02  0.1115279E+00
         21   -1    0    0  502  501  0.00000000000E+00  0.00000000000E+00  0.33379951555E+03  0.33379951555E+03  0.00000000000E+00 0. -1.
         21   -1    0    0  501  502 -0.00000000000E+00 -0.00000000000E+00 -0.18262415544E+03  0.18262415544E+03  0.00000000000E+00 0. -1.
         25    1    1    2    0    0 -0.78601532748E+01 -0.17671800339E+03 -0.48348129809E+02  0.22193146777E+03  0.12500000000E+03 0.  0.
         25    1    1    2    0    0  0.78601532748E+01  0.17671800339E+03  0.19952348991E+03  0.29449220322E+03  0.12500000000E+03 0.  0.
</event>
<event>
 4    0  0.2239279E-002  0.1638020E+03  0.7546771E-02  0.1184470E+00
         21   -1    0    0  502  501  0.00000000000E+00  0.00000000000E+00  0.39256111055E+02  0.39256111055E+02  0.00000000000E+00 0. -1.
         21   -1    0    0  501  502 -0.00000000000E+00 -0.00000000000E+00 -0.68348852870E+03  0.68348852870E+03  0.00000000000E+00 0. -1.
         25    1    1    2    0    0  0.68165181017E+02 -0.62594282062E+02 -0.43550400829E+03  0.46244272866E+03  0.12500000000E+03 0.  0.
         25    1    1    2    0    0 -0.68165181017E+02  0.62594282062E+02 -0.20872840935E+03  0.26030191110E+03  0.12500000000E+03 0.  0.
</event>
<event>
 4    0  0.2239279E-002  0.1498036E+03  0.7546771E-02  0.1200715E+00
         21   -1    0    0  502  501  0.00000000000E+00  0.00000000000E+00  0.28369353721E+04  0.28369353721E+04  0.00000000000E+00 0.  1.
         21   -1    0    0  501  502 -0.00000000000E+00 -0.00000000000E+00 -0.79103342984E+01  0.79103342984E+01  0.00000000000E+00 0.  1.
         25    1    1    2    0    0  0.41281352854E+02 -0.39210727727E+02  0.84682052589E+03  0.85788789147E+03  0.12500000000E+03 0.  0.
         25    1    1    2    0    0 -0.41281352854E+02  0.39210727727E+02  0.19822045119E+04  0.19869578149E+04  0.12500000000E+03 0.  0.
</event>
<event>
 4    0  0.2239279E-002  0.2075878E+03  0.7546771E-02  0.1143491E+00
         21   -1    0    0  502  501  0.00000000000E+00  0.00000000000E+00  0.39832053990E+02  0.39832053990E+02  0.00000000000E+00 0.  1.
         21   -1    0    0  501  502 -0.00000000000E+00 -0.00000000000E+00 -0.10818594839E+04  0.10818594839E+04  0.00000000000E+00 0.  1.
         25    1    1    2    0    0 -0.14633422416E+03 -0.28066468421E+02 -0.32495211085E+03  0.37870873525E+03  0.12500000000E+03 0.  0.
         25    1    1    2    0    0  0.14633422416E+03  0.28066468421E+02 -0.71707531906E+03  0.74298280264E+03  0.12500000000E+03 0.  0.
</event>
<event>
 4    0  0.2239279E-002  0.2066165E+03  0.7546771E-02  0.1144274E+00
         21   -1    0    0  502  501  0.00000000000E+00  0.00000000000E+00  0.51917549544E+02  0.51917549544E+02  0.00000000000E+00 0. -1.
         21   -1    0    0  501  502 -0.00000000000E+00 -0.00000000000E+00 -0.82227255419E+03  0.82227255419E+03  0.00000000000E+00 0. -1.
         25    1    1    2    0    0  0.56287630398E+02 -0.15241340871E+03 -0.33053265756E+03  0.38894084666E+03  0.12500000000E+03 0.  0.
         25    1    1    2    0    0 -0.56287630398E+02  0.15241340871E+03 -0.43982234709E+03  0.48524925707E+03  0.12500000000E+03 0.  0.
</event>
<event>
 4    0  0.2239279E-002  0.2058295E+03  0.7546771E-02  0.1144912E+00
         21   -1    0    0  502  501  0.00000000000E+00  0.00000000000E+00  0.82143185287E+02  0.82143185287E+02  0.00000000000E+00 0.  1.
         21   -1    0    0  501  502 -0.00000000000E+00 -0.00000000000E+00 -0.51575541465E+03  0.51575541465E+03  0.00000000000E+00 0.  1.
         25    1    1    2    0    0  0.30997282540E+02 -0.15582680409E+03 -0.16059254450E+03  0.25818169909E+03  0.12500000000E+03 0.  0.
         25    1    1    2    0    0 -0.30997282540E+02  0.15582680409E+03 -0.27301968486E+03  0.33971690085E+03  0.12500000000E+03 0.  0.
</event>
<event>
 4    0  0.2239279E-002  0.1413341E+03  0.7546771E-02  0.1211545E+00
         21   -1    0    0  502  501  0.00000000000E+00  0.00000000000E+00  0.25934589496E+02  0.25934589496E+02  0.00000000000E+00 0.  1.
         21   -1    0    0  501  502 -0.00000000000E+00 -0.00000000000E+00 -0.77021919722E+03  0.77021919722E+03  0.00000000000E+00 0.  1.
         25    1    1    2    0    0  0.27269836583E+00  0.64727896997E+02 -0.40782985335E+03  0.43143940977E+03  0.12500000000E+03 0.  0.
         25    1    1    2    0    0 -0.27269836583E+00 -0.64727896997E+02 -0.33645475437E+03  0.36471437695E+03  0.12500000000E+03 0.  0.
</event>
<event>
 4    0  0.2239279E-002  0.2324896E+03  0.7546771E-02  0.1124900E+00
         21   -1    0    0  502  501  0.00000000000E+00  0.00000000000E+00  0.26018100332E+03  0.26018100332E+03  0.00000000000E+00 0. -1.
         21   -1    0    0  501  502 -0.00000000000E+00 -0.00000000000E+00 -0.20774540122E+03  0.20774540122E+03  0.00000000000E+00 0. -1.
         25    1    1    2    0    0  0.66913251609E+02 -0.15883757873E+03  0.12018872866E+03  0.24449353807E+03  0.12500000000E+03 0.  0.
         25    1    1    2    0    0 -0.66913251609E+02  0.15883757873E+03 -0.67753126563E+02  0.22343286647E+03  0.12500000000E+03 0.  0.
</event>
<event>
 4    0  0.2239279E-002  0.3004730E+03  0.7546771E-02  0.1085004E+00
         21   -1    0    0  502  501  0.00000000000E+00  0.00000000000E+00  0.86361686440E+02  0.86361686440E+02  0.00000000000E+00 0.  1.
         21   -1    0    0  501  502 -0.00000000000E+00 -0.00000000000E+00 -0.10454178671E+04  0.10454178671E+04  0.00000000000E+00 0.  1.
         25    1    1    2    0    0 -0.13470372323E+03  0.12673560165E+03 -0.85831640123E+03  0.88687036843E+03  0.12500000000E+03 0.  0.
         25    1    1    2    0    0  0.13470372323E+03 -0.12673560165E+03 -0.10073977938E+03  0.24490918506E+03  0.12500000000E+03 0.  0.
</event>
<event>
 4    0  0.2239279E-002  0.1474336E+03  0.7546771E-02  0.1203663E+00
         21   -1    0    0  502  501  0.00000000000E+00  0.00000000000E+00  0.35098664160E+02  0.35098664160E+02  0.00000000000E+00 0.  1.
         21   -1    0    0  501  502 -0.00000000000E+00 -0.00000000000E+00 -0.61930175113E+03  0.61930175113E+03  0.00000000000E+00 0.  1.
         25    1    1    2    0    0 -0.40769525251E+02 -0.41783300384E+02 -0.17670478059E+03  0.22418201949E+03  0.12500000000E+03 0.  0.
         25    1    1    2    0    0  0.40769525251E+02  0.41783300384E+02 -0.40749830638E+03  0.43021839580E+03  0.12500000000E+03 0.  0.
</event>
<event>
 4    0  0.2239279E-002  0.2329179E+03  0.7546771E-02  0.1124603E+00
         21   -1    0    0  502  501  0.00000000000E+00  0.00000000000E+00  0.50158540307E+02  0.50158540307E+02  0.00000000000E+00 0. -1.
         21   -1    0    0  501  502 -0.00000000000E+00 -0.00000000000E+00 -0.10815854342E+04  0.10815854342E+04  0.00000000000E+00 0. -1.
         25    1    1    2    0    0 -0.75629908061E+02 -0.69431419843E+02 -0.92286270160E+03  0.93693178570E+03  0.12500000000E+03 0.  0.
         25    1    1    2    0    0  0.75629908061E+02  0.69431419843E+02 -0.10856419227E+03  0.19481218878E+03  0.12500000000E+03 0.  0.
</event>
<event>
 4    0  0.2239279E-002  0.2118808E+03  0.7546771E-02  0.1140085E+00
         21   -1    0    0  502  501  0.00000000000E+00  0.00000000000E+00  0.93942056253E+02  0.93942056253E+02  0.00000000000E+00 0. -1.
         21   -1    0    0  501  502 -0.00000000000E+00 -0.00000000000E+00 -0.47788464604E+03  0.47788464604E+03  0.00000000000E+00 0. -1.
         25    1    1    2    0    0  0.70678647876E+02  0.15579611932E+03 -0.19095767515E+03  0.28523277469E+03  0.12500000000E+03 0.  0.
         25    1    1    2    0    0 -0.70678647876E+02 -0.15579611932E+03 -0.19298491463E+03  0.28659392760E+03  0.12500000000E+03 0.  0.
</event>
<event>
 4    0  0.2239279E-002  0.2771500E+03  0.7546771E-02  0.1097256E+00
         21   -1    0    0  502  501  0.00000000000E+00  0.00000000000E+00  0.95840160381E+02  0.95840160381E+02  0.00000000000E+00 0. -1.
         21   -1    0    0  501  502 -0.00000000000E+00 -0.00000000000E+00 -0.80146080732E+03  0.80146080732E+03  0.00000000000E+00 0. -1.
         25    1    1    2    0    0 -0.14608208648E+03 -0.12767828926E+03 -0.60120733445E+03  0.64398523317E+03  0.12500000000E+03 0.  0.
         25    1    1    2    0    0  0.14608208648E+03  0.12767828926E+03 -0.10441331249E+03  0.25331573454E+03  0.12500000000E+03 0.  0.
</event>
<event>
 4    0  0.2239279E-002  0.1963049E+03  0.7546771E-02  0.1152895E+00
         21   -1    0    0  502  501  0.00000000000E+00  0.00000000000E+00  0.64323195398E+03  0.64323195398E+03  0.00000000000E+00 0.  1.
         21   -1    0    0  501  502 -0.00000000000E+00 -0.00000000000E+00 -0.59909364325E+02  0.59909364325E+02  0.00000000000E+00 0.  1.
         25    1    1    2    0    0  0.11693608821E+03 -0.80085947915E+02  0.19650834365E+03  0.27263223746E+03  0.12500000000E+03 0.  0.
         25    1    1    2    0    0 -0.11693608821E+03  0.80085947915E+02  0.38681424601E+03  0.43050908085E+03  0.12500000000E+03 0.  0.
</event>
<event>
 4    0  0.2239279E-002  0.2139253E+03  0.7546771E-02  0.1138495E+00
         21   -1    0    0  502  501  0.00000000000E+00  0.00000000000E+00  0.26899508210E+03  0.26899508210E+03  0.00000000000E+00 0. -1.
         21   -1    0    0  501  502 -0.00000000000E+00 -0.00000000000E+00 -0.17012966712E+03  0.17012966712E+03  0.00000000000E+00 0. -1.
         25    1    1    2    0    0  0.15551349417E+03  0.11871503281E+02 -0.28823842676E+02  0.20194354005E+03  0.12500000000E+03 0.  0.
         25    1    1    2    0    0 -0.15551349417E+03 -0.11871503281E+02  0.12768925766E+03  0.23718120917E+03  0.12500000000E+03 0.  0.
</event>
<event>
 4    0  0.2239279E-002  0.3905842E+03  0.7546771E-02  0.1047090E+00
         21   -1    0    0  502  501  0.00000000000E+00  0.00000000000E+00  0.45837933086E+03  0.45837933086E+03  0.00000000000E+00 0.  1.
         21   -1    0    0  501  502 -0.00000000000E+00 -0.00000000000E+00 -0.33281612853E+03  0.33281612853E+03  0.00000000000E+00 0.  1.
         25    1    1    2    0    0 -0.35664712061E+03 -0.29109752081E+02 -0.32696588166E+02  0.38044528277E+03  0.12500000000E+03 0.  0.
         25    1    1    2    0    0  0.35664712061E+03  0.29109752081E+02  0.15825979050E+03  0.41075017662E+03  0.12500000000E+03 0.  0.
</event>
<event>
 4    0  0.2239279E-002  0.2425825E+03  0.7546771E-02  0.1118084E+00
         21   -1    0    0  502  501  0.00000000000E+00  0.00000000000E+00  0.18760131553E+03  0.18760131553E+03  0.00000000000E+00 0. -1.
         21   -1    0    0  501  502 -0.00000000000E+00 -0.00000000000E+00 -0.31367726600E+03  0.31367726600E+03  0.00000000000E+00 0. -1.
         25    1    1    2    0    0 -0.18618049471E+03 -0.91967247106E+02 -0.73376123265E+02  0.25323942548E+03  0.12500000000E+03 0.  0.
         25    1    1    2    0    0  0.18618049471E+03  0.91967247106E+02 -0.52699827197E+02  0.24803915606E+03  0.12500000000E+03 0.  0.
</event>
<event>
 4    0  0.2239279E-002  0.2170384E+03  0.7546771E-02  0.1136111E+00
         21   -1    0    0  502  501  0.00000000000E+00  0.00000000000E+00  0.12701077816E+03  0.12701077816E+03  0.00000000000E+00 0.  1.
         21   -1    0    0  501  502 -0.00000000000E+00 -0.00000000000E+00 -0.37087919344E+03  0.37087919344E+03  0.00000000000E+00 0.  1.
         25    1    1    2    0    0  0.10310228242E+02  0.16127066542E+03 -0.37911375067E+02  0.20779028055E+03  0.12500000000E+03 0.  0.
         25    1    1    2    0    0 -0.10310228242E+02 -0.16127066542E+03 -0.20595704022E+03  0.29009969105E+03  0.12500000000E+03 0.  0.
</event>
<event>
 4    0  0.2239279E-002  0.2066956E+03  0.7546771E-02  0.1144210E+00
         21   -1    0    0  502  501  0.00000000000E+00  0.00000000000E+00  0.10381407295E+04  0.10381407295E+04  0.00000000000E+00 0. -1.
         21   -1    0    0  501  502 -0.00000000000E+00 -0.00000000000E+00 -0.41153434046E+02  0.41153434046E+02  0.00000000000E+00 0. -1.
         25    1    1    2    0    0  0.82786679976E+02  0.77203197584E+01  0.12756438195E+03  0.19700484578E+03  0.12500000000E+03 0.  0.
         25    1    1    2    0    0 -0.82786679976E+02 -0.77203197584E+01  0.86942291353E+03  0.88228931779E+03  0.12500000000E+03 0.  0.
</event>
<event>
 4    0  0.2239279E-002  0.2316924E+03  0.7546771E-02  0.1125454E+00
         21   -1    0    0  502  501  0.00000000000E+00  0.00000000000E+00  0.94354679826E+02  0.94354679826E+02  0.00000000000E+00 0. -1.
         21   -1    0    0  501  502 -0.00000000000E+00 -0.00000000000E+00 -0.56893181026E+03  0.56893181026E+03  0.00000000000E+00 0. -1.
         25    1    1    2    0    0  0.79922629656E+02 -0.43524893733E+02 -0.48427913112E+03  0.50836337392E+03  0.12500000000E+03 0.  0.
         25    1    1    2    0    0 -0.79922629656E+02  0.43524893733E+02  0.97020006852E+01  0.15492311617E+03  0.12500000000E+03 0.  0.
</event>
<event>
 4    0  0.2239279E-002  0.2936788E+03  0.7546771E-02  0.1088444E+00
         21   -1    0    0  502  501  0.00000000000E+00  0.00000000000E+00  0.59606381044E+03  0.59606381044E+03  0.00000000000E+00 0.  1.
         21   -1    0    0  501  502 -0.00000000000E+00 -0.00000000000E+00 -0.14469460841E+03  0.14469460841E+03  0.00000000000E+00 0. -1.
         25    1    1    2    0    0 -0.31888352005E+02  0.25637766943E+03  0.14716878445E+03  0.32253686222E+03  0.12500000000E+03 0.  0.
         25    1    1    2    0    0  0.31888352005E+02 -0.25637766943E+03  0.30420041758E+03  0.41822155663E+03  0.12500000000E+03 0.  0.
</event>
<event>
 4    0  0.2239279E-002  0.1749025E+03  0.7546771E-02  0.1172830E+00
         21   -1    0    0  502  501  0.00000000000E+00  0.00000000000E+00  0.72228751663E+03  0.72228751663E+03  0.00000000000E+00 0. -1.
         21   -1    0    0  501  502 -0.00000000000E+00 -0.00000000000E+00 -0.42352758983E+02  0.42352758983E+02  0.00000000000E+00 0. -1.
         25    1    1    2    0    0  0.18235359609E+02  0.10908636754E+03  0.22568185660E+03  0.28069496668E+03  0.12500000000E+03 0.  0.
         25    1    1    2    0    0 -0.18235359609E+02 -0.10908636754E+03  0.45425290105E+03  0.48394530893E+03  0.12500000000E+03 0.  0.
</event>
<event>
 4    0  0.2239279E-002  0.1990790E+03  0.7546771E-02  0.1150518E+00
         21   -1    0    0  502  501  0.00000000000E+00  0.00000000000E+00  0.45869014732E+03  0.45869014732E+03  0.00000000000E+00 0. -1.
         21   -1    0    0  501  502 -0.00000000000E+00 -0.00000000000E+00 -0.86403561571E+02  0.86403561571E+02  0.00000000000E+00 0. -1.
         25    1    1    2    0    0  0.26465848158E+02  0.62288737187E+02  0.37696159152E+03  0.40287140551E+03  0.12500000000E+03 0.  0.
         25    1    1    2    0    0 -0.26465848158E+02 -0.62288737187E+02 -0.46750057716E+01  0.14222230338E+03  0.12500000000E+03 0.  0.
</event>
<event>
 4    0  0.2239279E-002  0.2284799E+03  0.7546771E-02  0.1127714E+00
         21   -1    0    0  502  501  0.00000000000E+00  0.00000000000E+00  0.22422449154E+03  0.22422449154E+03  0.00000000000E+00 0.  1.
         21   -1    0    0  501  502 -0.00000000000E+00 -0.00000000000E+00 -0.23281610870E+03  0.23281610870E+03  0.00000000000E+00 0.  1.
         25    1    1    2    0    0 -0.79072688481E+02 -0.17116447428E+03  0.27777073858E+02  0.22791738229E+03  0.12500000000E+03 0.  0.
         25    1    1    2    0    0  0.79072688481E+02  0.17116447428E+03 -0.36368691011E+02  0.22912321795E+03  0.12500000000E+03 0.  0.
</event>
<event>
 4    0  0.2239279E-002  0.2623525E+03  0.7546771E-02  0.1105738E+00
         21   -1    0    0  502  501  0.00000000000E+00  0.00000000000E+00  0.21576956495E+03  0.21576956495E+03  0.00000000000E+00 0. -1.
         21   -1    0    0  501  502 -0.00000000000E+00 -0.00000000000E+00 -0.31899241952E+03  0.31899241952E+03  0.00000000000E+00 0. -1.
         25    1    1    2    0    0  0.18419660543E+03  0.48077416117E+02 -0.18435385283E+03  0.29300370381E+03  0.12500000000E+03 0.  0.
         25    1    1    2    0    0 -0.18419660543E+03 -0.48077416117E+02  0.81130998250E+02  0.24175828066E+03  0.12500000000E+03 0.  0.
</event>
<event>
 4    0  0.2239279E-002  0.2734560E+03  0.7546771E-02  0.1099318E+00
         21   -1    0    0  502  501  0.00000000000E+00  0.00000000000E+00  0.38543391131E+02  0.38543391131E+02  0.00000000000E+00 0. -1.
         21   -1    0    0  501  502 -0.00000000000E+00 -0.00000000000E+00 -0.19401034339E+04  0.19401034339E+04  0.00000000000E+00 0. -1.
         25    1    1    2    0    0 -0.10226672151E+03  0.13193525662E+03 -0.31084158285E+03  0.37431655573E+03  0.12500000000E+03 0.  0.
         25    1    1    2    0    0  0.10226672151E+03 -0.13193525662E+03 -0.15907184599E+04  0.16043302693E+04  0.12500000000E+03 0.  0.
</event>
<event>
 4    0  0.2239279E-002  0.3001036E+03  0.7546771E-02  0.1085189E+00
         21   -1    0    0  502  501  0.00000000000E+00  0.00000000000E+00  0.20676131590E+03  0.20676131590E+03  0.00000000000E+00 0. -1.
         21   -1    0    0  501  502 -0.00000000000E+00 -0.00000000000E+00 -0.43558511362E+03  0.43558511362E+03  0.00000000000E+00 0. -1.
         25    1    1    2    0    0 -0.16696453167E+03  0.20477635283E+03 -0.41616974798E+02  0.29524139633E+03  0.12500000000E+03 0.  0.
         25    1    1    2    0    0  0.16696453167E+03 -0.20477635283E+03 -0.18720682292E+03  0.34710503319E+03  0.12500000000E+03 0.  0.
</event>
<event>
 4    0  0.2239279E-002  0.2702818E+03  0.7546771E-02  0.1101118E+00
         21   -1    0    0  502  501  0.00000000000E+00  0.00000000000E+00  0.47317546429E+02  0.47317546429E+02  0.00000000000E+00 0. -1.
         21   -1    0    0  501  502 -0.00000000000E+00 -0.00000000000E+00 -0.15438725688E+04  0.15438725688E+04  0.00000000000E+00 0.  1.
         25    1    1    2    0    0  0.18492645300E+03  0.50011384577E+02 -0.32448097442E+03  0.39700356971E+03  0.12500000000E+03 0.  0.
         25    1    1    2    0    0 -0.18492645300E+03 -0.50011384577E+02 -0.11720740480E+04  0.11941865456E+04  0.12500000000E+03 0.  0.
</event>
<event>
 4    0  0.2239279E-002  0.1938703E+03  0.7546771E-02  0.1155016E+00
         21   -1    0    0  502  501  0.00000000000E+00  0.00000000000E+00  0.16747364657E+04  0.16747364657E+04  0.00000000000E+00 0.  1.
         21   -1    0    0  501  502 -0.00000000000E+00 -0.00000000000E+00 -0.22442742024E+02  0.22442742024E+02  0.00000000000E+00 0.  1.
         25    1    1    2    0    0 -0.34721154238E+02 -0.67695202477E+02  0.13827873779E+04  0.13905085873E+04  0.12500000000E+03 0.  0.
         25    1    1    2    0    0  0.34721154238E+02  0.67695202477E+02  0.26950634575E+03  0.30667062036E+03  0.12500000000E+03 0.  0.
</event>
<event>
 4    0  0.2239279E-002  0.3167043E+03  0.7546771E-02  0.1077176E+00
         21   -1    0    0  502  501  0.00000000000E+00  0.00000000000E+00  0.47201537322E+03  0.47201537322E+03  0.00000000000E+00 0. -1.
         21   -1    0    0  501  502 -0.00000000000E+00 -0.00000000000E+00 -0.21249646002E+03  0.21249646002E+03  0.00000000000E+00 0. -1.
         25    1    1    2    0    0  0.95408345336E+02  0.21317891511E+03  0.31733943143E+03  0.41337309655E+03  0.12500000000E+03 0.  0.
         25    1    1    2    0    0 -0.95408345336E+02 -0.21317891511E+03 -0.57820518232E+02  0.27113873669E+03  0.12500000000E+03 0.  0.
</event>
<event>
 4    0  0.2239279E-002  0.1715856E+03  0.7546771E-02  0.1176204E+00
         21   -1    0    0  502  501  0.00000000000E+00  0.00000000000E+00  0.95361077892E+02  0.95361077892E+02  0.00000000000E+00 0.  1.
         21   -1    0    0  501  502 -0.00000000000E+00 -0.00000000000E+00 -0.30873838917E+03  0.30873838917E+03  0.00000000000E+00 0.  1.
         25    1    1    2    0    0 -0.11639537393E+03  0.24538846687E+01 -0.12577508752E+03  0.21212797379E+03  0.12500000000E+03 0.  0.
         25    1    1    2    0    0  0.11639537393E+03 -0.24538846687E+01 -0.87602223757E+02  0.19197149327E+03  0.12500000000E+03 0.  0.
</event>
<event>
 4    0  0.2239279E-002  0.1941525E+03  0.7546771E-02  0.1154768E+00
         21   -1    0    0  502  501  0.00000000000E+00  0.00000000000E+00  0.65056954394E+03  0.65056954394E+03  0.00000000000E+00 0.  1.
         21   -1    0    0  501  502 -0.00000000000E+00 -0.00000000000E+00 -0.57941847869E+02  0.57941847869E+02  0.00000000000E+00 0.  1.
         25    1    1    2    0    0  0.29021197675E+02 -0.14225076662E+03  0.35380233180E+03  0.40234139795E+03  0.12500000000E+03 0.  0.
         25    1    1    2    0    0 -0.29021197675E+02  0.14225076662E+03  0.23882536427E+03  0.30616999386E+03  0.12500000000E+03 0.  0.
</event>
<event>
 4    0  0.2239279E-002  0.2391519E+03  0.7546771E-02  0.1120359E+00
         21   -1    0    0  502  501  0.00000000000E+00  0.00000000000E+00  0.28385974811E+02  0.28385974811E+02  0.00000000000E+00 0. -1.
         21   -1    0    0  501  502 -0.00000000000E+00 -0.00000000000E+00 -0.20148552489E+04  0.20148552489E+04  0.00000000000E+00 0. -1.
         25    1    1    2    0    0 -0.10577666732E+03 -0.15182743407E+03 -0.13589297285E+04  0.13771547771E+04  0.12500000000E+03 0.  0.
         25    1    1    2    0    0  0.10577666732E+03  0.15182743407E+03 -0.62753954561E+03  0.66608644664E+03  0.12500000000E+03 0.  0.
</event>
<event>
 4    0  0.2239279E-002  0.1919795E+03  0.7546771E-02  0.1156688E+00
         21   -1    0    0  502  501  0.00000000000E+00  0.00000000000E+00  0.85009458179E+03  0.85009458179E+03  0.00000000000E+00 0. -1.
         21   -1    0    0  501  502 -0.00000000000E+00 -0.00000000000E+00 -0.43355328842E+02  0.43355328842E+02  0.00000000000E+00 0. -1.
         25    1    1    2    0    0  0.11344751760E+03  0.91030304569E+02  0.38331542670E+03  0.42861704580E+03  0.12500000000E+03 0.  0.
         25    1    1    2    0    0 -0.11344751760E+03 -0.91030304569E+02  0.42342382625E+03  0.46483286484E+03  0.12500000000E+03 0.  0.
</event>
<event>
 4    0  0.2239279E-002  0.3264722E+03  0.7546771E-02  0.1072709E+00
         21   -1    0    0  502  501  0.00000000000E+00  0.00000000000E+00  0.22414352139E+03  0.22414352139E+03  0.00000000000E+00 0.  1.
         21   -1    0    0  501  502 -0.00000000000E+00 -0.00000000000E+00 -0.47551724357E+03  0.47551724357E+03  0.00000000000E+00 0.  1.
         25    1    1    2    0    0 -0.17923977444E+03 -0.12325041442E+03  0.98165339574E+02  0.26940489099E+03  0.12500000000E+03 0.  0.
         25    1    1    2    0    0  0.17923977444E+03  0.12325041442E+03 -0.34953906175E+03  0.43025587397E+03  0.12500000000E+03 0.  0.
</event>
<event>
 4    0  0.2239279E-002  0.2860734E+03  0.7546771E-02  0.1092417E+00
         21   -1    0    0  502  501  0.00000000000E+00  0.00000000000E+00  0.11922364406E+03  0.11922364406E+03  0.00000000000E+00 0.  1.
         21   -1    0    0  501  502 -0.00000000000E+00 -0.00000000000E+00 -0.68642415550E+03  0.68642415550E+03  0.00000000000E+00 0.  1.
         25    1    1    2    0    0  0.80592806383E+02  0.14195772684E+03 -0.35102004048E+01  0.20563199692E+03  0.12500000000E+03 0.  0.
         25    1    1    2    0    0 -0.80592806383E+02 -0.14195772684E+03 -0.56369031104E+03  0.60001580263E+03  0.12500000000E+03 0.  0.
</event>
<event>
 4    0  0.2239279E-002  0.3183819E+03  0.7546771E-02  0.1076396E+00
         21   -1    0    0  502  501  0.00000000000E+00  0.00000000000E+00  0.14683693404E+03  0.14683693404E+03  0.00000000000E+00 0.  1.
         21   -1    0    0  501  502 -0.00000000000E+00 -0.00000000000E+00 -0.69033740284E+03  0.69033740284E+03  0.00000000000E+00 0.  1.
         25    1    1    2    0    0  0.16216149009E+03  0.21794030983E+03 -0.41545782652E+03  0.51188331985E+03  0.12500000000E+03 0.  0.
         25    1    1    2    0    0 -0.16216149009E+03 -0.21794030983E+03 -0.12804264228E+03  0.32529101703E+03  0.12500000000E+03 0.  0.
</event>
<event>
 4    0  0.2239279E-002  0.1750149E+03  0.7546771E-02  0.1172717E+00
         21   -1    0    0  502  501  0.00000000000E+00  0.00000000000E+00  0.55430840034E+03  0.55430840034E+03  0.00000000000E+00 0. -1.
         21   -1    0    0  501  502 -0.00000000000E+00 -0.00000000000E+00 -0.55258424666E+02  0.55258424666E+02  0.00000000000E+00 0. -1.
         25    1    1    2    0    0 -0.61921099131E+02  0.58625835087E+02  0.40267547160E+03  0.43016711460E+03  0.12500000000E+03 0.  0.
         25    1    1    2    0    0  0.61921099131E+02 -0.58625835087E+02  0.96374504072E+02  0.17939971040E+03  0.12500000000E+03 0.  0.
</event>
<event>
 4    0  0.2239279E-002  0.2348334E+03  0.7546771E-02  0.1123283E+00
         21   -1    0    0  502  501  0.00000000000E+00  0.00000000000E+00  0.94624757321E+03  0.94624757321E+03  0.00000000000E+00 0.  1.
         21   -1    0    0  501  502 -0.00000000000E+00 -0.00000000000E+00 -0.58279392519E+02  0.58279392519E+02  0.00000000000E+00 0.  1.
         25    1    1    2    0    0 -0.32724601443E+01  0.68956761660E+02  0.45247090595E+02  0.14979333490E+03  0.12500000000E+03 0.  0.
         25    1    1    2    0    0  0.32724601443E+01 -0.68956761660E+02  0.84272109010E+03  0.85473363083E+03  0.12500000000E+03 0.  0.
</event>
<event>
 4    0  0.2239279E-002  0.3062311E+03  0.7546771E-02  0.1082167E+00
         21   -1    0    0  502  501  0.00000000000E+00  0.00000000000E+00  0.13649658199E+03  0.13649658199E+03  0.00000000000E+00 0. -1.
         21   -1    0    0  501  502 -0.00000000000E+00 -0.00000000000E+00 -0.68703181544E+03  0.68703181544E+03  0.00000000000E+00 0. -1.
         25    1    1    2    0    0 -0.15092552080E+03  0.23525243410E+03 -0.28266594817E+03  0.41671004168E+03  0.12500000000E+03 0.  0.
         25    1    1    2    0    0  0.15092552080E+03 -0.23525243410E+03 -0.26786928528E+03  0.40681835576E+03  0.12500000000E+03 0.  0.
</event>
<event>
 4    0  0.2239279E-002  0.2125658E+03  0.7546771E-02  0.1139550E+00
         21   -1    0    0  502  501  0.00000000000E+00  0.00000000000E+00  0.46717518921E+03  0.46717518921E+03  0.00000000000E+00 0. -1.
         21   -1    0    0  501  502 -0.00000000000E+00 -0.00000000000E+00 -0.96717891446E+02  0.96717891446E+02  0.00000000000E+00 0. -1.
         25    1    1    2    0    0  0.15312902374E+03  0.63994142578E+01  0.28856635921E+03  0.34983566725E+03  0.12500000000E+03 0.  0.
         25    1    1    2    0    0 -0.15312902374E+03 -0.63994142578E+01  0.81890938550E+02  0.21405741340E+03  0.12500000000E+03 0.  0.
</event>
<event>
 4    0  0.2239279E-002  0.4815105E+03  0.7546771E-02  0.1018721E+00
         21   -1    0    0  502  501  0.00000000000E+00  0.00000000000E+00  0.17039319500E+04  0.17039319500E+04  0.00000000000E+00 0. -1.
         21   -1    0    0  501  502 -0.00000000000E+00 -0.00000000000E+00 -0.13606904642E+03  0.13606904642E+03  0.00000000000E+00 0. -1.
         25    1    1    2    0    0 -0.39380120298E+03  0.18052762118E+03  0.46104892958E+03  0.64487264242E+03  0.12500000000E+03 0.  0.
         25    1    1    2    0    0  0.39380120298E+03 -0.18052762118E+03  0.11068139740E+04  0.11951283540E+04  0.12500000000E+03 0.  0.
</event>
<event>
 4    0  0.2239279E-002  0.3577008E+03  0.7546771E-02  0.1059498E+00
         21   -1    0    0  502  501  0.00000000000E+00  0.00000000000E+00  0.23382323426E+03  0.23382323426E+03  0.00000000000E+00 0.  1.
         21   -1    0    0  501  502 -0.00000000000E+00 -0.00000000000E+00 -0.54720763222E+03  0.54720763222E+03  0.00000000000E+00 0.  1.
         25    1    1    2    0    0 -0.13972245077E+03  0.27821309830E+03 -0.29217313647E+03  0.44487642440E+03  0.12500000000E+03 0.  0.
         25    1    1    2    0    0  0.13972245077E+03 -0.27821309830E+03 -0.21211261493E+02  0.33615444207E+03  0.12500000000E+03 0.  0.
</event>
<event>
 4    0  0.2239279E-002  0.1840451E+03  0.7546771E-02  0.1163945E+00
         21   -1    0    0  502  501  0.00000000000E+00  0.00000000000E+00  0.58356944073E+03  0.58356944073E+03  0.00000000000E+00 0.  1.
         21   -1    0    0  501  502 -0.00000000000E+00 -0.00000000000E+00 -0.58043787350E+02  0.58043787350E+02  0.00000000000E+00 0.  1.
         25    1    1    2    0    0 -0.11210898528E+03 -0.28855491706E+02  0.14141443598E+03  0.22141388097E+03  0.12500000000E+03 0.  0.
         25    1    1    2    0    0  0.11210898528E+03  0.28855491706E+02  0.38411121740E+03  0.42019934712E+03  0.12500000000E+03 0.  0.
</event>
<event>
 4    0  0.2239279E-002  0.1820917E+03  0.7546771E-02  0.1165794E+00
         21   -1    0    0  502  501  0.00000000000E+00  0.00000000000E+00  0.16205761249E+03  0.16205761249E+03  0.00000000000E+00 0. -1.
         21   -1    0    0  501  502 -0.00000000000E+00 -0.00000000000E+00 -0.20460237671E+03  0.20460237671E+03  0.00000000000E+00 0. -1.
         25    1    1    2    0    0  0.84864923360E+02  0.18312854884E+02  0.79382288317E+02  0.17165070221E+03  0.12500000000E+03 0.  0.
         25    1    1    2    0    0 -0.84864923360E+02 -0.18312854884E+02 -0.12192705254E+03  0.19500928699E+03  0.12500000000E+03 0.  0.
</event>
<event>
 4    0  0.2239279E-002  0.2415021E+03  0.7546771E-02  0.1118796E+00
         21   -1    0    0  502  501  0.00000000000E+00  0.00000000000E+00  0.56608791569E+03  0.56608791569E+03  0.00000000000E+00 0. -1.
         21   -1    0    0  501  502 -0.00000000000E+00 -0.00000000000E+00 -0.10302867194E+03  0.10302867194E+03  0.00000000000E+00 0. -1.
         25    1    1    2    0    0 -0.18676203720E+03  0.91047821336E+01  0.10968952194E+03  0.25023937903E+03  0.12500000000E+03 0.  0.
         25    1    1    2    0    0  0.18676203720E+03 -0.91047821336E+01  0.35336972181E+03  0.41887720860E+03  0.12500000000E+03 0.  0.
</event>
<event>
 4    0  0.2239279E-002  0.2340170E+03  0.7546771E-02  0.1123844E+00
         21   -1    0    0  502  501  0.00000000000E+00  0.00000000000E+00  0.29993828396E+03  0.29993828396E+03  0.00000000000E+00 0.  1.
         21   -1    0    0  501  502 -0.00000000000E+00 -0.00000000000E+00 -0.18258403453E+03  0.18258403453E+03  0.00000000000E+00 0.  1.
         25    1    1    2    0    0 -0.55496125354E+02  0.17723383346E+03  0.12895845324E+03  0.25835428062E+03  0.12500000000E+03 0.  0.
         25    1    1    2    0    0  0.55496125354E+02 -0.17723383346E+03 -0.11604203814E+02  0.22416803786E+03  0.12500000000E+03 0.  0.
</event>
<event>
 4    0  0.2239279E-002  0.1324291E+03  0.7546771E-02  0.1223895E+00
         21   -1    0    0  502  501  0.00000000000E+00  0.00000000000E+00  0.12056055883E+03  0.12056055883E+03  0.00000000000E+00 0. -1.
         21   -1    0    0  501  502 -0.00000000000E+00 -0.00000000000E+00 -0.14546599495E+03  0.14546599495E+03  0.00000000000E+00 0. -1.
         25    1    1    2    0    0 -0.26016600476E+02 -0.22218818977E+02  0.14905689564E+02  0.13045197966E+03  0.12500000000E+03 0.  0.
         25    1    1    2    0    0  0.26016600476E+02  0.22218818977E+02 -0.39811125687E+02  0.13557457411E+03  0.12500000000E+03 0.  0.
</event>
<event>
 4    0  0.2239279E-002  0.3137990E+03  0.7546771E-02  0.1078539E+00
         21   -1    0    0  502  501  0.00000000000E+00  0.00000000000E+00  0.12192894669E+03  0.12192894669E+03  0.00000000000E+00 0.  1.
         21   -1    0    0  501  502 -0.00000000000E+00 -0.00000000000E+00 -0.80759989405E+03  0.80759989405E+03  0.00000000000E+00 0. -1.
         25    1    1    2    0    0 -0.14529967854E+02  0.12351018762E+03  0.41617613184E+02  0.18117094728E+03  0.12500000000E+03 0.  0.
         25    1    1    2    0    0  0.14529967854E+02 -0.12351018762E+03 -0.72728856054E+03  0.74835789346E+03  0.12500000000E+03 0.  0.
</event>
<event>
 4    0  0.2239279E-002  0.2182365E+03  0.7546771E-02  0.1135205E+00
         21   -1    0    0  502  501  0.00000000000E+00  0.00000000000E+00  0.97459770394E+03  0.97459770394E+03  0.00000000000E+00 0. -1.
         21   -1    0    0  501  502 -0.00000000000E+00 -0.00000000000E+00 -0.48868543994E+02  0.48868543994E+02  0.00000000000E+00 0. -1.
         25    1    1    2    0    0 -0.61114337077E+02  0.22023438378E+02  0.72024338973E+02  0.15821662188E+03  0.12500000000E+03 0.  0.
         25    1    1    2    0    0  0.61114337077E+02 -0.22023438378E+02  0.85370482097E+03  0.86524962605E+03  0.12500000000E+03 0.  0.
</event>
<event>
 4    0  0.2239279E-002  0.1635141E+03  0.7546771E-02  0.1184786E+00
         21   -1    0    0  502  501  0.00000000000E+00  0.00000000000E+00  0.71444951963E+02  0.71444951963E+02  0.00000000000E+00 0. -1.
         21   -1    0    0  501  502 -0.00000000000E+00 -0.00000000000E+00 -0.37423004342E+03  0.37423004342E+03  0.00000000000E+00 0. -1.
         25    1    1    2    0    0  0.71155823863E+02  0.44691479570E+02 -0.64649630654E+02  0.16390562638E+03  0.12500000000E+03 0.  0.
         25    1    1    2    0    0 -0.71155823863E+02 -0.44691479570E+02 -0.23813546080E+03  0.28176936900E+03  0.12500000000E+03 0.  0.
</event>
<event>
 4    0  0.2239279E-002  0.1680710E+03  0.7546771E-02  0.1179875E+00
         21   -1    0    0  502  501  0.00000000000E+00  0.00000000000E+00  0.89717466503E+03  0.89717466503E+03  0.00000000000E+00 0.  1.
         21   -1    0    0  501  502 -0.00000000000E+00 -0.00000000000E+00 -0.31485363240E+02  0.31485363240E+02  0.00000000000E+00 0.  1.
         25    1    1    2    0    0 -0.96055025599E+02  0.56422321300E+02  0.39254102342E+03  0.42675930142E+03  0.12500000000E+03 0.  0.
         25    1    1    2    0    0  0.96055025599E+02 -0.56422321300E+02  0.47314827837E+03  0.50190072685E+03  0.12500000000E+03 0.  0.
</event>
<event>
 4    0  0.2239279E-002  0.1990582E+03  0.7546771E-02  0.1150536E+00
         21   -1    0    0  502  501  0.00000000000E+00  0.00000000000E+00  0.23315101749E+03  0.23315101749E+03  0.00000000000E+00 0.  1.
         21   -1    0    0  501  502 -0.00000000000E+00 -0.00000000000E+00 -0.16995061730E+03  0.16995061730E+03  0.00000000000E+00 0.  1.
         25    1    1    2    0    0 -0.11163571951E+03  0.87423662873E+02  0.94781327929E+02  0.21145668782E+03  0.12500000000E+03 0.  0.
         25    1    1    2    0    0  0.11163571951E+03 -0.87423662873E+02 -0.31580927744E+02  0.19164494697E+03  0.12500000000E+03 0.  0.
</event>
<event>
 4    0  0.2239279E-002  0.2249232E+03  0.7546771E-02  0.1130265E+00
         21   -1    0    0  502  501  0.00000000000E+00  0.00000000000E+00  0.21381674619E+02  0.21381674619E+02  0.00000000000E+00 0. -1.
         21   -1    0    0  501  502 -0.00000000000E+00 -0.00000000000E+00 -0.23660649472E+04  0.23660649472E+04  0.00000000000E+00 0. -1.
         25    1    1    2    0    0  0.75348327667E+01 -0.69163617594E+02 -0.20934980540E+04  0.20983802043E+04  0.12500000000E+03 0.  0.
         25    1    1    2    0    0 -0.75348327667E+01  0.69163617594E+02 -0.25118521859E+03  0.28906641753E+03  0.12500000000E+03 0.  0.
</event>
<event>
 4    0  0.2239279E-002  0.2645262E+03  0.7546771E-02  0.1104454E+00
         21   -1    0    0  502  501  0.00000000000E+00  0.00000000000E+00  0.14372493320E+03  0.14372493320E+03  0.00000000000E+00 0. -1.
         21   -1    0    0  501  502 -0.00000000000E+00 -0.00000000000E+00 -0.48686116488E+03  0.48686116488E+03  0.00000000000E+00 0. -1.
         25    1    1    2    0    0  0.38640391924E+02  0.22218826841E+03 -0.24196570452E+03  0.35360021022E+03  0.12500000000E+03 0.  0.
         25    1    1    2    0    0 -0.38640391924E+02 -0.22218826841E+03 -0.10117052716E+03  0.27698588785E+03  0.12500000000E+03 0.  0.
</event>
<event>
 4    0  0.2239279E-002  0.2103955E+03  0.7546771E-02  0.1141253E+00
         21   -1    0    0  502  501  0.00000000000E+00  0.00000000000E+00  0.91649536103E+02  0.91649536103E+02  0.00000000000E+00 0. -1.
         21   -1    0    0  501  502 -0.00000000000E+00 -0.00000000000E+00 -0.48299514460E+03  0.48299514460E+03  0.00000000000E+00 0. -1.
         25    1    1    2    0    0 -0.25250208763E+02 -0.96730484609E+02 -0.91910072251E+01  0.16032415385E+03  0.12500000000E+03 0.  0.
         25    1    1    2    0    0  0.25250208763E+02  0.96730484609E+02 -0.38215460127E+03  0.41432052685E+03  0.12500000000E+03 0.  0.
</event>
<event>
 4    0  0.2239279E-002  0.1856313E+03  0.7546771E-02  0.1162462E+00
         21   -1    0    0  502  501  0.00000000000E+00  0.00000000000E+00  0.15356874821E+03  0.15356874821E+03  0.00000000000E+00 0.  1.
         21   -1    0    0  501  502 -0.00000000000E+00 -0.00000000000E+00 -0.22438808597E+03  0.22438808597E+03  0.00000000000E+00 0.  1.
         25    1    1    2    0    0 -0.48903277364E+02 -0.30287976893E+02  0.91436737048E+02  0.16521068054E+03  0.12500000000E+03 0.  0.
         25    1    1    2    0    0  0.48903277364E+02  0.30287976893E+02 -0.16225607481E+03  0.21274615365E+03  0.12500000000E+03 0.  0.
</event>
<event>
 4    0  0.2239279E-002  0.4024827E+03  0.7546771E-02  0.1042923E+00
         21   -1    0    0  502  501  0.00000000000E+00  0.00000000000E+00  0.23597321564E+03  0.23597321564E+03  0.00000000000E+00 0.  1.
         21   -1    0    0  501  502 -0.00000000000E+00 -0.00000000000E+00 -0.68648602523E+03  0.68648602523E+03  0.00000000000E+00 0.  1.
         25    1    1    2    0    0  0.25285904540E+03 -0.28444236980E+03 -0.26996588363E+03  0.48306494066E+03  0.12500000000E+03 0.  0.
         25    1    1    2    0    0 -0.25285904540E+03  0.28444236980E+03 -0.18054692597E+03  0.43939430020E+03  0.12500000000E+03 0.  0.
</event>
<event>
 4    0  0.2239279E-002  0.2677373E+03  0.7546771E-02  0.1102582E+00
         21   -1    0    0  502  501  0.00000000000E+00  0.00000000000E+00  0.10463455360E+03  0.10463455360E+03  0.00000000000E+00 0. -1.
         21   -1    0    0  501  502 -0.00000000000E+00 -0.00000000000E+00 -0.68508232049E+03  0.68508232049E+03  0.00000000000E+00 0. -1.
         25    1    1    2    0    0  0.37753948746E+02 -0.10477091947E+03 -0.59836832137E+03  0.62134688720E+03  0.12500000000E+03 0.  0.
         25    1    1    2    0    0 -0.37753948746E+02  0.10477091947E+03  0.17920554479E+02  0.16836998689E+03  0.12500000000E+03 0.  0.
</event>
<event>
 4    0  0.2239279E-002  0.3721409E+03  0.7546771E-02  0.1053877E+00
         21   -1    0    0  502  501  0.00000000000E+00  0.00000000000E+00  0.12409567851E+03  0.12409567851E+03  0.00000000000E+00 0. -1.
         21   -1    0    0  501  502 -0.00000000000E+00 -0.00000000000E+00 -0.11159842091E+04  0.11159842091E+04  0.00000000000E+00 0. -1.
         25    1    1    2    0    0 -0.15424929672E+03  0.17469719520E+03 -0.93218070732E+03  0.96896740227E+03  0.12500000000E+03 0.  0.
         25    1    1    2    0    0  0.15424929672E+03 -0.17469719520E+03 -0.59707823265E+02  0.27111248534E+03  0.12500000000E+03 0.  0.
</event>
<event>
 4    0  0.2239279E-002  0.2492698E+03  0.7546771E-02  0.1113767E+00
         21   -1    0    0  502  501  0.00000000000E+00  0.00000000000E+00  0.32976521336E+03  0.32976521336E+03  0.00000000000E+00 0.  1.
         21   -1    0    0  501  502 -0.00000000000E+00 -0.00000000000E+00 -0.18842324371E+03  0.18842324371E+03  0.00000000000E+00 0.  1.
         25    1    1    2    0    0 -0.16111568038E+03  0.23519774211E+02  0.21766244386E+03  0.29918787026E+03  0.12500000000E+03 0.  0.
         25    1    1    2    0    0  0.16111568038E+03 -0.23519774211E+02 -0.76320474210E+02  0.21900058682E+03  0.12500000000E+03 0.  0.
</event>
<event>
 4    0  0.2239279E-002  0.2307266E+03  0.7546771E-02  0.1126129E+00
         21   -1    0    0  502  501  0.00000000000E+00  0.00000000000E+00  0.35784186276E+03  0.35784186276E+03  0.00000000000E+00 0.  1.
         21   -1    0    0  501  502 -0.00000000000E+00 -0.00000000000E+00 -0.14876617772E+03  0.14876617772E+03  0.00000000000E+00 0.  1.
         25    1    1    2    0    0  0.57052134166E+02  0.17171897897E+03  0.18113161834E+03  0.28491405180E+03  0.12500000000E+03 0.  0.
         25    1    1    2    0    0 -0.57052134166E+02 -0.17171897897E+03  0.27944066695E+02  0.22169398868E+03  0.12500000000E+03 0.  0.
</event>
<event>
 4    0  0.2239279E-002  0.2246576E+03  0.7546771E-02  0.1130457E+00
         21   -1    0    0  502  501  0.00000000000E+00  0.00000000000E+00  0.91156462449E+02  0.91156462449E+02  0.00000000000E+00 0.  1.
         21   -1    0    0  501  502 -0.00000000000E+00 -0.00000000000E+00 -0.55367498854E+03  0.55367498854E+03  0.00000000000E+00 0.  1.
         25    1    1    2    0    0  0.15899584560E+03 -0.90007154330E+02 -0.17632710347E+03  0.28301451229E+03  0.12500000000E+03 0.  0.
         25    1    1    2    0    0 -0.15899584560E+03  0.90007154330E+02 -0.28619142261E+03  0.36181693869E+03  0.12500000000E+03 0.  0.
</event>
<event>
 4    0  0.2239279E-002  0.1790472E+03  0.7546771E-02  0.1168728E+00
         21   -1    0    0  502  501  0.00000000000E+00  0.00000000000E+00  0.21010537756E+02  0.21010537756E+02  0.00000000000E+00 0.  1.
         21   -1    0    0  501  502 -0.00000000000E+00 -0.00000000000E+00 -0.15258005086E+04  0.15258005086E+04  0.00000000000E+00 0.  1.
         25    1    1    2    0    0  0.52557732618E+02  0.15916380589E+02 -0.12527421538E+04  0.12601601289E+04  0.12500000000E+03 0.  0.
         25    1    1    2    0    0 -0.52557732618E+02 -0.15916380589E+02 -0.25204781699E+03  0.28665091746E+03  0.12500000000E+03 0.  0.
</event>
<event>
 4    0  0.2239279E-002  0.2079412E+03  0.7546771E-02  0.1143207E+00
         21   -1    0    0  502  501  0.00000000000E+00  0.00000000000E+00  0.11146588486E+03  0.11146588486E+03  0.00000000000E+00 0.  1.
         21   -1    0    0  501  502 -0.00000000000E+00 -0.00000000000E+00 -0.38791720595E+03  0.38791720595E+03  0.00000000000E+00 0.  1.
         25    1    1    2    0    0  0.91938161054E+02  0.32834315935E+02 -0.29970180893E+03  0.33908242661E+03  0.12500000000E+03 0.  0.
         25    1    1    2    0    0 -0.91938161054E+02 -0.32834315935E+02  0.23250487835E+02  0.16030066421E+03  0.12500000000E+03 0.  0.
</event>
<event>
 4    0  0.2239279E-002  0.2367916E+03  0.7546771E-02  0.1121949E+00
         21   -1    0    0  502  501  0.00000000000E+00  0.00000000000E+00  0.76631363080E+03  0.76631363080E+03  0.00000000000E+00 0. -1.
         21   -1    0    0  501  502 -0.00000000000E+00 -0.00000000000E+00 -0.73168840833E+02  0.73168840833E+02  0.00000000000E+00 0. -1.
         25    1    1    2    0    0 -0.81911726474E+02 -0.11679017950E+03  0.95286589119E+02  0.21225930139E+03  0.12500000000E+03 0.  0.
         25    1    1    2    0    0  0.81911726474E+02  0.11679017950E+03  0.59785820085E+03  0.62722317024E+03  0.12500000000E+03 0.  0.
</event>
<event>
 4    0  0.2239279E-002  0.2072392E+03  0.7546771E-02  0.1143771E+00
         21   -1    0    0  502  501  0.00000000000E+00  0.00000000000E+00  0.23001379689E+03  0.23001379689E+03  0.00000000000E+00 0. -1.
         21   -1    0    0  501  502 -0.00000000000E+00 -0.00000000000E+00 -0.18671953477E+03  0.18671953477E+03  0.00000000000E+00 0. -1.
         25    1    1    2    0    0  0.71592591213E+02  0.11645855551E+03  0.11507726250E+03  0.21807308548E+03  0.12500000000E+03 0.  0.
         25    1    1    2    0    0 -0.71592591213E+02 -0.11645855551E+03 -0.71783000374E+02  0.19866024618E+03  0.12500000000E+03 0.  0.
</event>
<event>
 4    0  0.2239279E-002  0.2010809E+03  0.7546771E-02  0.1148830E+00
         21   -1    0    0  502  501  0.00000000000E+00  0.00000000000E+00  0.20848497576E+03  0.20848497576E+03  0.00000000000E+00 0. -1.
         21   -1    0    0  501  502 -0.00000000000E+00 -0.00000000000E+00 -0.19393972918E+03  0.19393972918E+03  0.00000000000E+00 0. -1.
         25    1    1    2    0    0  0.10061026483E+03  0.11509291123E+03  0.45241023614E+02  0.20258468309E+03  0.12500000000E+03 0.  0.
         25    1    1    2    0    0 -0.10061026483E+03 -0.11509291123E+03 -0.30695777034E+02  0.19984002185E+03  0.12500000000E+03 0.  0.
</event>
<event>
 4    0  0.2239279E-002  0.2560933E+03  0.7546771E-02  0.1109513E+00
         21   -1    0    0  502  501  0.00000000000E+00  0.00000000000E+00  0.89459005695E+02  0.89459005695E+02  0.00000000000E+00 0.  1.
         21   -1    0    0  501  502 -0.00000000000E+00 -0.00000000000E+00 -0.73311552608E+03  0.73311552608E+03  0.00000000000E+00 0.  1.
         25    1    1    2    0    0 -0.51323774232E+02 -0.16982430610E+02 -0.67013620553E+03  0.68383482414E+03  0.12500000000E+03 0.  0.
         25    1    1    2    0    0  0.51323774232E+02  0.16982430610E+02  0.26479685136E+02  0.13873970764E+03  0.12500000000E+03 0.  0.
</event>
<event>
 4    0  0.2239279E-002  0.1973394E+03  0.7546771E-02  0.1152003E+00
         21   -1    0    0  502  501  0.00000000000E+00  0.00000000000E+00  0.35947641787E+02  0.35947641787E+02  0.00000000000E+00 0. -1.
         21   -1    0    0  501  502 -0.00000000000E+00 -0.00000000000E+00 -0.10833209966E+04  0.10833209966E+04  0.00000000000E+00 0. -1.
         25    1    1    2    0    0 -0.13666731412E+03  0.43824774150E+02 -0.37580421076E+03  0.42125095894E+03  0.12500000000E+03 0.  0.
         25    1    1    2    0    0  0.13666731412E+03 -0.43824774150E+02 -0.67156914401E+03  0.69801767941E+03  0.12500000000E+03 0.  0.
</event>
<event>
 4    0  0.2239279E-002  0.2166396E+03  0.7546771E-02  0.1136413E+00
         21   -1    0    0  502  501  0.00000000000E+00  0.00000000000E+00  0.25695825325E+02  0.25695825325E+02  0.00000000000E+00 0. -1.
         21   -1    0    0  501  502 -0.00000000000E+00 -0.00000000000E+00 -0.18264725536E+04  0.18264725536E+04  0.00000000000E+00 0. -1.
         25    1    1    2    0    0 -0.93307746715E+02  0.12951867359E+02 -0.26011945037E+03  0.30358065638E+03  0.12500000000E+03 0.  0.
         25    1    1    2    0    0  0.93307746715E+02 -0.12951867359E+02 -0.15406572779E+04  0.15485877226E+04  0.12500000000E+03 0.  0.
</event>
<event>
 4    0  0.2239279E-002  0.2094675E+03  0.7546771E-02  0.1141988E+00
         21   -1    0    0  502  501  0.00000000000E+00  0.00000000000E+00  0.12463566704E+03  0.12463566704E+03  0.00000000000E+00 0. -1.
         21   -1    0    0  501  502 -0.00000000000E+00 -0.00000000000E+00 -0.35203913536E+03  0.35203913536E+03  0.00000000000E+00 0. -1.
         25    1    1    2    0    0 -0.13387716247E+03 -0.82989481696E+02 -0.46954112163E+02  0.20649464243E+03  0.12500000000E+03 0.  0.
         25    1    1    2    0    0  0.13387716247E+03  0.82989481696E+02 -0.18044935616E+03  0.27018015997E+03  0.12500000000E+03 0.  0.
</event>
<event>
 4    0  0.2239279E-002  0.2718664E+03  0.7546771E-02  0.1100216E+00
         21   -1    0    0  502  501  0.00000000000E+00  0.00000000000E+00  0.13290296763E+03  0.13290296763E+03  0.00000000000E+00 0. -1.
         21   -1    0    0  501  502 -0.00000000000E+00 -0.00000000000E+00 -0.55613022114E+03  0.55613022114E+03  0.00000000000E+00 0. -1.
         25    1    1    2    0    0 -0.20559335240E+03  0.12574726939E+03 -0.19345401172E+03  0.33336235085E+03  0.12500000000E+03 0.  0.
         25    1    1    2    0    0  0.20559335240E+03 -0.12574726939E+03 -0.22977324178E+03  0.35567083793E+03  0.12500000000E+03 0.  0.
</event>
<event>
 4    0  0.2239279E-002  0.2219865E+03  0.7546771E-02  0.1132411E+00
         21   -1    0    0  502  501  0.00000000000E+00  0.00000000000E+00  0.23481784660E+03  0.23481784660E+03  0.00000000000E+00 0. -1.
         21   -1    0    0  501  502 -0.00000000000E+00 -0.00000000000E+00 -0.20985639392E+03  0.20985639392E+03  0.00000000000E+00 0. -1.
         25    1    1    2    0    0  0.17911930840E+03  0.19934563122E+02  0.46768005317E+02  0.22426181077E+03  0.12500000000E+03 0.  0.
         25    1    1    2    0    0 -0.17911930840E+03 -0.19934563122E+02 -0.21806552634E+02  0.22041242975E+03  0.12500000000E+03 0.  0.
</event>
<event>
 4    0  0.2239279E-002  0.1786980E+03  0.7546771E-02  0.1169069E+00
         21   -1    0    0  502  501  0.00000000000E+00  0.00000000000E+00  0.10472175138E+03  0.10472175138E+03  0.00000000000E+00 0. -1.
         21   -1    0    0  501  502 -0.00000000000E+00 -0.00000000000E+00 -0.30493171615E+03  0.30493171615E+03  0.00000000000E+00 0. -1.
         25    1    1    2    0    0  0.22644009342E+02  0.92228744886E+02 -0.19796461323E+03  0.25265367726E+03  0.12500000000E+03 0.  0.
         25    1    1    2    0    0 -0.22644009342E+02 -0.92228744886E+02 -0.22453515433E+01  0.15699979027E+03  0.12500000000E+03 0.  0.
</event>
<event>
 4    0  0.2239279E-002  0.2004950E+03  0.7546771E-02  0.1149322E+00
         21   -1    0    0  502  501  0.00000000000E+00  0.00000000000E+00  0.26836831983E+03  0.26836831983E+03  0.00000000000E+00 0.  1.
         21   -1    0    0  501  502 -0.00000000000E+00 -0.00000000000E+00 -0.14978764012E+03  0.14978764012E+03  0.00000000000E+00 0.  1.
         25    1    1    2    0    0 -0.77524749499E+02 -0.12123381365E+03  0.12412531857E+03  0.22746388519E+03  0.12500000000E+03 0.  0.
         25    1    1    2    0    0  0.77524749499E+02  0.12123381365E+03 -0.55446388502E+01  0.19069207476E+03  0.12500000000E+03 0.  0.
</event>
<event>
 4    0  0.2239279E-002  0.2517675E+03  0.7546771E-02  0.1112193E+00
         21   -1    0    0  502  501  0.00000000000E+00  0.00000000000E+00  0.73284999019E+03  0.73284999019E+03  0.00000000000E+00 0.  1.
         21   -1    0    0  501  502 -0.00000000000E+00 -0.00000000000E+00 -0.86493663521E+02  0.86493663521E+02  0.00000000000E+00 0.  1.
         25    1    1    2    0    0  0.95216404264E+02  0.87906781083E+02  0.60952592475E+03  0.63556322954E+03  0.12500000000E+03 0.  0.
         25    1    1    2    0    0 -0.95216404264E+02 -0.87906781083E+02  0.36830401915E+02  0.18378042417E+03  0.12500000000E+03 0.  0.
</event>
<event>
 4    0  0.2239279E-002  0.2099889E+03  0.7546771E-02  0.1141575E+00
         21   -1    0    0  502  501  0.00000000000E+00  0.00000000000E+00  0.54028895667E+03  0.54028895667E+03  0.00000000000E+00 0.  1.
         21   -1    0    0  501  502 -0.00000000000E+00 -0.00000000000E+00 -0.81614325891E+02  0.81614325891E+02  0.00000000000E+00 0.  1.
         25    1    1    2    0    0  0.15531353774E+03 -0.52585244894E+02  0.28825040848E+03  0.35440203297E+03  0.12500000000E+03 0.  0.
         25    1    1    2    0    0 -0.15531353774E+03  0.52585244894E+02  0.17042422231E+03  0.26750124960E+03  0.12500000000E+03 0.  0.
</event>
<event>
 4    0  0.2239279E-002  0.2825127E+03  0.7546771E-02  0.1094324E+00
         21   -1    0    0  502  501  0.00000000000E+00  0.00000000000E+00  0.10002709995E+03  0.10002709995E+03  0.00000000000E+00 0.  1.
         21   -1    0    0  501  502 -0.00000000000E+00 -0.00000000000E+00 -0.79791787841E+03  0.79791787841E+03  0.00000000000E+00 0.  1.
         25    1    1    2    0    0 -0.94770370374E+02 -0.22135059831E+03 -0.47419001330E+03  0.54631371865E+03  0.12500000000E+03 0.  0.
         25    1    1    2    0    0  0.94770370374E+02  0.22135059831E+03 -0.22370076516E+03  0.35163125971E+03  0.12500000000E+03 0.  0.
</event>
<event>
 4    0  0.2239279E-002  0.2020717E+03  0.7546771E-02  0.1148003E+00
         21   -1    0    0  502  501  0.00000000000E+00  0.00000000000E+00  0.77796056540E+03  0.77796056540E+03  0.00000000000E+00 0.  1.
         21   -1    0    0  501  502 -0.00000000000E+00 -0.00000000000E+00 -0.52487216699E+02  0.52487216699E+02  0.00000000000E+00 0.  1.
         25    1    1    2    0    0 -0.12386852627E+03 -0.79908506832E+02  0.24153274847E+03  0.30934099283E+03  0.12500000000E+03 0.  0.
         25    1    1    2    0    0  0.12386852627E+03  0.79908506832E+02  0.48394060023E+03  0.52110678927E+03  0.12500000000E+03 0.  0.
</event>
<event>
 4    0  0.2239279E-002  0.1646609E+03  0.7546771E-02  0.1183533E+00
         21   -1    0    0  502  501  0.00000000000E+00  0.00000000000E+00  0.21553982649E+03  0.21553982649E+03  0.00000000000E+00 0.  1.
         21   -1    0    0  501  502 -0.00000000000E+00 -0.00000000000E+00 -0.12579212356E+03  0.12579212356E+03  0.00000000000E+00 0.  1.
         25    1    1    2    0    0 -0.22933982309E+02  0.88923466019E+02 -0.12412645325E+02  0.15560341936E+03  0.12500000000E+03 0.  0.
         25    1    1    2    0    0  0.22933982309E+02 -0.88923466019E+02  0.10216034826E+03  0.18572853068E+03  0.12500000000E+03 0.  0.
</event>
<event>
 4    0  0.2239279E-002  0.2658717E+03  0.7546771E-02  0.1103666E+00
         21   -1    0    0  502  501  0.00000000000E+00  0.00000000000E+00  0.64960673710E+02  0.64960673710E+02  0.00000000000E+00 0.  1.
         21   -1    0    0  501  502 -0.00000000000E+00 -0.00000000000E+00 -0.10881627763E+04  0.10881627763E+04  0.00000000000E+00 0.  1.
         25    1    1    2    0    0 -0.23041718839E+03 -0.43983629258E+02 -0.52463896098E+03  0.58813066552E+03  0.12500000000E+03 0.  0.
         25    1    1    2    0    0  0.23041718839E+03  0.43983629258E+02 -0.49856314157E+03  0.56499278445E+03  0.12500000000E+03 0.  0.
</event>
<event>
 4    0  0.2239279E-002  0.1960485E+03  0.7546771E-02  0.1153116E+00
         21   -1    0    0  502  501  0.00000000000E+00  0.00000000000E+00  0.41650443428E+03  0.41650443428E+03  0.00000000000E+00 0. -1.
         21   -1    0    0  501  502 -0.00000000000E+00 -0.00000000000E+00 -0.92279977246E+02  0.92279977246E+02  0.00000000000E+00 0. -1.
         25    1    1    2    0    0  0.91775657799E+02 -0.11349775180E+03  0.21246018871E+03  0.28647660081E+03  0.12500000000E+03 0.  0.
         25    1    1    2    0    0 -0.91775657799E+02  0.11349775180E+03  0.11176426832E+03  0.22230781071E+03  0.12500000000E+03 0.  0.
</event>
<event>
 4    0  0.2239279E-002  0.1791658E+03  0.7546771E-02  0.1168613E+00
         21   -1    0    0  502  501  0.00000000000E+00  0.00000000000E+00  0.27836676164E+03  0.27836676164E+03  0.00000000000E+00 0. -1.
         21   -1    0    0  501  502 -0.00000000000E+00 -0.00000000000E+00 -0.11531692120E+03  0.11531692120E+03  0.00000000000E+00 0. -1.
         25    1    1    2    0    0 -0.92243468530E+02 -0.88082048849E+02  0.65676314795E+02  0.19027791028E+03  0.12500000000E+03 0.  0.
         25    1    1    2    0    0  0.92243468530E+02  0.88082048849E+02  0.97373525643E+02  0.20340577256E+03  0.12500000000E+03 0.  0.
</event>
<event>
 4    0  0.2239279E-002  0.2290443E+03  0.7546771E-02  0.1127314E+00
         21   -1    0    0  502  501  0.00000000000E+00  0.00000000000E+00  0.13860014895E+03  0.13860014895E+03  0.00000000000E+00 0.  1.
         21   -1    0    0  501  502 -0.00000000000E+00 -0.00000000000E+00 -0.37850832644E+03  0.37850832644E+03  0.00000000000E+00 0.  1.
         25    1    1    2    0    0  0.38666257122E+02  0.16227808868E+03 -0.12821043432E+02  0.20885075211E+03  0.12500000000E+03 0.  0.
         25    1    1    2    0    0 -0.38666257122E+02 -0.16227808868E+03 -0.22708713405E+03  0.30825772327E+03  0.12500000000E+03 0.  0.
</event>
<event>
 4    0  0.2239279E-002  0.2291592E+03  0.7546771E-02  0.1127233E+00
         21   -1    0    0  502  501  0.00000000000E+00  0.00000000000E+00  0.44754567203E+02  0.44754567203E+02  0.00000000000E+00 0.  1.
         21   -1    0    0  501  502 -0.00000000000E+00 -0.00000000000E+00 -0.11733764550E+04  0.11733764550E+04  0.00000000000E+00 0.  1.
         25    1    1    2    0    0 -0.16001157333E+03  0.61823934983E+02 -0.33470406158E+03  0.39633030590E+03  0.12500000000E+03 0.  0.
         25    1    1    2    0    0  0.16001157333E+03 -0.61823934983E+02 -0.79391782623E+03  0.82180071632E+03  0.12500000000E+03 0.  0.
</event>
<event>
 4    0  0.2239279E-002  0.2973266E+03  0.7546771E-02  0.1086585E+00
         21   -1    0    0  502  501  0.00000000000E+00  0.00000000000E+00  0.15731931451E+03  0.15731931451E+03  0.00000000000E+00 0.  1.
         21   -1    0    0  501  502 -0.00000000000E+00 -0.00000000000E+00 -0.56193426811E+03  0.56193426811E+03  0.00000000000E+00 0.  1.
         25    1    1    2    0    0 -0.16858953559E+03 -0.18251297933E+03 -0.32942198309E+03  0.43113485371E+03  0.12500000000E+03 0.  0.
         25    1    1    2    0    0  0.16858953559E+03  0.18251297933E+03 -0.75192970512E+02  0.28811872891E+03  0.12500000000E+03 0.  0.
</event>
<event>
 4    0  0.2239279E-002  0.2420151E+03  0.7546771E-02  0.1118458E+00
         21   -1    0    0  502  501  0.00000000000E+00  0.00000000000E+00  0.74141637193E+02  0.74141637193E+02  0.00000000000E+00 0. -1.
         21   -1    0    0  501  502 -0.00000000000E+00 -0.00000000000E+00 -0.78999198104E+03  0.78999198104E+03  0.00000000000E+00 0. -1.
         25    1    1    2    0    0  0.12104415131E+03  0.10838202538E+02 -0.58245712536E+02  0.18381163246E+03  0.12500000000E+03 0.  0.
         25    1    1    2    0    0 -0.12104415131E+03 -0.10838202538E+02 -0.65760463131E+03  0.68032198577E+03  0.12500000000E+03 0.  0.
</event>
<event>
 4    0  0.2239279E-002  0.2719139E+03  0.7546771E-02  0.1100189E+00
         21   -1    0    0  502  501  0.00000000000E+00  0.00000000000E+00  0.22557791003E+03  0.22557791003E+03  0.00000000000E+00 0.  1.
         21   -1    0    0  501  502 -0.00000000000E+00 -0.00000000000E+00 -0.32776766184E+03  0.32776766184E+03  0.00000000000E+00 0.  1.
         25    1    1    2    0    0  0.47398910354E+02  0.22229673309E+03 -0.13406743732E+03  0.29199584243E+03  0.12500000000E+03 0.  0.
         25    1    1    2    0    0 -0.47398910354E+02 -0.22229673309E+03  0.31877685512E+02  0.26134972944E+03  0.12500000000E+03 0.  0.
</event>
<event>
 4    0  0.2239279E-002  0.2700078E+03  0.7546771E-02  0.1101275E+00
         21   -1    0    0  502  501  0.00000000000E+00  0.00000000000E+00  0.10212881244E+03  0.10212881244E+03  0.00000000000E+00 0.  1.
         21   -1    0    0  501  502 -0.00000000000E+00 -0.00000000000E+00 -0.71384572445E+03  0.71384572445E+03  0.00000000000E+00 0.  1.
         25    1    1    2    0    0  0.16159817731E+03 -0.52578929058E+02 -0.51213650477E+02  0.21708604904E+03  0.12500000000E+03 0.  0.
         25    1    1    2    0    0 -0.16159817731E+03  0.52578929058E+02 -0.56050326154E+03  0.59888848785E+03  0.12500000000E+03 0.  0.
</event>
<event>
 4    0  0.2239279E-002  0.1735171E+03  0.7546771E-02  0.1174229E+00
         21   -1    0    0  502  501  0.00000000000E+00  0.00000000000E+00  0.24409162422E+02  0.24409162422E+02  0.00000000000E+00 0.  1.
         21   -1    0    0  501  502 -0.00000000000E+00 -0.00000000000E+00 -0.12334788644E+04  0.12334788644E+04  0.00000000000E+00 0.  1.
         25    1    1    2    0    0 -0.59706152509E+02  0.77353744520E+02 -0.34990888530E+03  0.38420001880E+03  0.12500000000E+03 0.  0.
         25    1    1    2    0    0  0.59706152509E+02 -0.77353744520E+02 -0.85916081673E+03  0.87368800807E+03  0.12500000000E+03 0.  0.
</event>
<event>
 4    0  0.2239279E-002  0.2020217E+03  0.7546771E-02  0.1148044E+00
         21   -1    0    0  502  501  0.00000000000E+00  0.00000000000E+00  0.98581004181E+02  0.98581004181E+02  0.00000000000E+00 0.  1.
         21   -1    0    0  501  502 -0.00000000000E+00 -0.00000000000E+00 -0.41400231044E+03  0.41400231044E+03  0.00000000000E+00 0.  1.
         25    1    1    2    0    0  0.82838273699E+01  0.14272856985E+03 -0.70297262222E+02  0.20250128771E+03  0.12500000000E+03 0.  0.
         25    1    1    2    0    0 -0.82838273699E+01 -0.14272856985E+03 -0.24512404403E+03  0.31008202691E+03  0.12500000000E+03 0.  0.
</event>
<event>
 4    0  0.2239279E-002  0.1459634E+03  0.7546771E-02  0.1205523E+00
         21   -1    0    0  502  501  0.00000000000E+00  0.00000000000E+00  0.29207500732E+02  0.29207500732E+02  0.00000000000E+00 0.  1.
         21   -1    0    0  501  502 -0.00000000000E+00 -0.00000000000E+00 -0.72944644534E+03  0.72944644534E+03  0.00000000000E+00 0.  1.
         25    1    1    2    0    0  0.71774300417E+02  0.22900056919E+02 -0.34470253662E+03  0.37432713174E+03  0.12500000000E+03 0.  0.
         25    1    1    2    0    0 -0.71774300417E+02 -0.22900056919E+02 -0.35553640799E+03  0.38432681433E+03  0.12500000000E+03 0.  0.
</event>
<event>
 4    0  0.2239279E-002  0.2071709E+03  0.7546771E-02  0.1143826E+00
         21   -1    0    0  502  501  0.00000000000E+00  0.00000000000E+00  0.31212166241E+03  0.31212166241E+03  0.00000000000E+00 0.  1.
         21   -1    0    0  501  502 -0.00000000000E+00 -0.00000000000E+00 -0.13750975417E+03  0.13750975417E+03  0.00000000000E+00 0.  1.
         25    1    1    2    0    0  0.15295235910E+03  0.34845816205E+02  0.14354791950E+03  0.24665696879E+03  0.12500000000E+03 0.  0.
         25    1    1    2    0    0 -0.15295235910E+03 -0.34845816205E+02  0.31063988736E+02  0.20297444779E+03  0.12500000000E+03 0.  0.
</event>
<event>
 4    0  0.2239279E-002  0.1447012E+03  0.7546771E-02  0.1207140E+00
         21   -1    0    0  502  501  0.00000000000E+00  0.00000000000E+00  0.70782936646E+02  0.70782936646E+02  0.00000000000E+00 0.  1.
         21   -1    0    0  501  502 -0.00000000000E+00 -0.00000000000E+00 -0.29581206662E+03  0.29581206662E+03  0.00000000000E+00 0.  1.
         25    1    1    2    0    0  0.36690486554E+02  0.62897813116E+02 -0.10829042673E+03  0.18070457443E+03  0.12500000000E+03 0.  0.
         25    1    1    2    0    0 -0.36690486554E+02 -0.62897813116E+02 -0.11673870325E+03  0.18589042884E+03  0.12500000000E+03 0.  0.
</event>
<event>
 4    0  0.2239279E-002  0.2657211E+03  0.7546771E-02  0.1103754E+00
         21   -1    0    0  502  501  0.00000000000E+00  0.00000000000E+00  0.73789249564E+02  0.73789249564E+02  0.00000000000E+00 0. -1.
         21   -1    0    0  501  502 -0.00000000000E+00 -0.00000000000E+00 -0.95688308367E+03  0.95688308367E+03  0.00000000000E+00 0. -1.
         25    1    1    2    0    0  0.14710719069E+03  0.59398820219E+02 -0.77641543384E+03  0.80225598864E+03  0.12500000000E+03 0.  0.
         25    1    1    2    0    0 -0.14710719069E+03 -0.59398820219E+02 -0.10667840027E+03  0.22841634460E+03  0.12500000000E+03 0.  0.
</event>
<event>
 4    0  0.2239279E-002  0.3656880E+03  0.7546771E-02  0.1056354E+00
         21   -1    0    0  502  501  0.00000000000E+00  0.00000000000E+00  0.12862048881E+04  0.12862048881E+04  0.00000000000E+00 0. -1.
         21   -1    0    0  501  502 -0.00000000000E+00 -0.00000000000E+00 -0.10397076046E+03  0.10397076046E+03  0.00000000000E+00 0. -1.
         25    1    1    2    0    0  0.28251358155E+03  0.18410518290E+03  0.71711455418E+03  0.80223869636E+03  0.12500000000E+03 0.  0.
         25    1    1    2    0    0 -0.28251358155E+03 -0.18410518290E+03  0.46511957347E+03  0.58793695220E+03  0.12500000000E+03 0.  0.
</event>
<event>
 4    0  0.2239279E-002  0.2611731E+03  0.7546771E-02  0.1106440E+00
         21   -1    0    0  502  501  0.00000000000E+00  0.00000000000E+00  0.22345213603E+04  0.22345213603E+04  0.00000000000E+00 0.  1.
         21   -1    0    0  501  502 -0.00000000000E+00 -0.00000000000E+00 -0.30526167444E+02  0.30526167444E+02  0.00000000000E+00 0.  1.
         25    1    1    2    0    0  0.34595164836E+02 -0.97741657205E+02  0.19889383442E+04  0.19955578152E+04  0.12500000000E+03 0.  0.
         25    1    1    2    0    0 -0.34595164836E+02  0.97741657205E+02  0.21505684864E+03  0.26948971248E+03  0.12500000000E+03 0.  0.
</event>
<event>
 4    0  0.2239279E-002  0.2206918E+03  0.7546771E-02  0.1133368E+00
         21   -1    0    0  502  501  0.00000000000E+00  0.00000000000E+00  0.39657664432E+02  0.39657664432E+02  0.00000000000E+00 0.  1.
         21   -1    0    0  501  502 -0.00000000000E+00 -0.00000000000E+00 -0.12281322197E+04  0.12281322197E+04  0.00000000000E+00 0.  1.
         25    1    1    2    0    0  0.17396250866E+03 -0.52136112332E+02 -0.62277693275E+03  0.66064910247E+03  0.12500000000E+03 0.  0.
         25    1    1    2    0    0 -0.17396250866E+03  0.52136112332E+02 -0.56569762248E+03  0.60714078162E+03  0.12500000000E+03 0.  0.
</event>
<event>
 4    0  0.2239279E-002  0.2043562E+03  0.7546771E-02  0.1146115E+00
         21   -1    0    0  502  501  0.00000000000E+00  0.00000000000E+00  0.43589644200E+03  0.43589644200E+03  0.00000000000E+00 0. -1.
         21   -1    0    0  501  502 -0.00000000000E+00 -0.00000000000E+00 -0.95805950825E+02  0.95805950825E+02  0.00000000000E+00 0. -1.
         25    1    1    2    0    0  0.18142862251E+02  0.15236289187E+03  0.23628826950E+03  0.30822193396E+03  0.12500000000E+03 0.  0.
         25    1    1    2    0    0 -0.18142862251E+02 -0.15236289187E+03  0.10380222168E+03  0.22348045887E+03  0.12500000000E+03 0.  0.
</event>
<event>
 4    0  0.2239279E-002  0.1846460E+03  0.7546771E-02  0.1163381E+00
         21   -1    0    0  502  501  0.00000000000E+00  0.00000000000E+00  0.48644579569E+02  0.48644579569E+02  0.00000000000E+00 0. -1.
         21   -1    0    0  501  502 -0.00000000000E+00 -0.00000000000E+00 -0.70088285167E+03  0.70088285167E+03  0.00000000000E+00 0. -1.
         25    1    1    2    0    0 -0.88393239539E+02 -0.95418831364E+00 -0.11661538680E+03  0.19245369238E+03  0.12500000000E+03 0.  0.
         25    1    1    2    0    0  0.88393239539E+02  0.95418831364E+00 -0.53562288530E+03  0.55707373886E+03  0.12500000000E+03 0.  0.
</event>
<event>
 4    0  0.2239279E-002  0.2108986E+03  0.7546771E-02  0.1140856E+00
         21   -1    0    0  502  501  0.00000000000E+00  0.00000000000E+00  0.50687482852E+03  0.50687482852E+03  0.00000000000E+00 0. -1.
         21   -1    0    0  501  502 -0.00000000000E+00 -0.00000000000E+00 -0.87749877724E+02  0.87749877724E+02  0.00000000000E+00 0.  1.
         25    1    1    2    0    0 -0.53248840053E+02  0.16122494938E+03  0.21650907427E+03  0.30220870688E+03  0.12500000000E+03 0.  0.
         25    1    1    2    0    0  0.53248840053E+02 -0.16122494938E+03  0.20261587653E+03  0.29241599937E+03  0.12500000000E+03 0.  0.
</event>
<event>
 4    0  0.2239279E-002  0.1903912E+03  0.7546771E-02  0.1158109E+00
         21   -1    0    0  502  501  0.00000000000E+00  0.00000000000E+00  0.11140893686E+03  0.11140893686E+03  0.00000000000E+00 0. -1.
         21   -1    0    0  501  502 -0.00000000000E+00 -0.00000000000E+00 -0.32536707480E+03  0.32536707480E+03  0.00000000000E+00 0. -1.
         25    1    1    2    0    0  0.28924467794E+02  0.12613025464E+03 -0.17841300255E+03  0.25338047567E+03  0.12500000000E+03 0.  0.
         25    1    1    2    0    0 -0.28924467794E+02 -0.12613025464E+03 -0.35545135394E+02  0.18339553599E+03  0.12500000000E+03 0.  0.
</event>
<event>
 4    0  0.2239279E-002  0.1811928E+03  0.7546771E-02  0.1166654E+00
         21   -1    0    0  502  501  0.00000000000E+00  0.00000000000E+00  0.26872065520E+03  0.26872065520E+03  0.00000000000E+00 0.  1.
         21   -1    0    0  501  502 -0.00000000000E+00 -0.00000000000E+00 -0.12217457617E+03  0.12217457617E+03  0.00000000000E+00 0.  1.
         25    1    1    2    0    0  0.96767018041E+02  0.38605322080E+02 -0.12693845162E+02  0.16321875008E+03  0.12500000000E+03 0.  0.
         25    1    1    2    0    0 -0.96767018041E+02 -0.38605322080E+02  0.15923992419E+03  0.22767648129E+03  0.12500000000E+03 0.  0.
</event>
<event>
 4    0  0.2239279E-002  0.2494685E+03  0.7546771E-02  0.1113641E+00
         21   -1    0    0  502  501  0.00000000000E+00  0.00000000000E+00  0.98850839352E+02  0.98850839352E+02  0.00000000000E+00 0. -1.
         21   -1    0    0  501  502 -0.00000000000E+00 -0.00000000000E+00 -0.62958018794E+03  0.62958018794E+03  0.00000000000E+00 0. -1.
         25    1    1    2    0    0 -0.70541463630E+02 -0.64807301053E+02 -0.54783487319E+03  0.57002116860E+03  0.12500000000E+03 0.  0.
         25    1    1    2    0    0  0.70541463630E+02  0.64807301053E+02  0.17105524604E+02  0.15840985870E+03  0.12500000000E+03 0.  0.
</event>
<event>
 4    0  0.2239279E-002  0.2395163E+03  0.7546771E-02  0.1120115E+00
         21   -1    0    0  502  501  0.00000000000E+00  0.00000000000E+00  0.20288259659E+03  0.20288259659E+03  0.00000000000E+00 0. -1.
         21   -1    0    0  501  502 -0.00000000000E+00 -0.00000000000E+00 -0.28276474292E+03  0.28276474292E+03  0.00000000000E+00 0. -1.
         25    1    1    2    0    0 -0.16566945653E+03  0.33355219438E+02  0.76466525798E+02  0.22367625949E+03  0.12500000000E+03 0.  0.
         25    1    1    2    0    0  0.16566945653E+03 -0.33355219438E+02 -0.15634867212E+03  0.26197108002E+03  0.12500000000E+03 0.  0.
</event>
<event>
 4    0  0.2239279E-002  0.1740515E+03  0.7546771E-02  0.1173687E+00
         21   -1    0    0  502  501  0.00000000000E+00  0.00000000000E+00  0.38374944723E+03  0.38374944723E+03  0.00000000000E+00 0.  1.
         21   -1    0    0  501  502 -0.00000000000E+00 -0.00000000000E+00 -0.78941950524E+02  0.78941950524E+02  0.00000000000E+00 0.  1.
         25    1    1    2    0    0 -0.10211699617E+03 -0.46349722563E+02  0.91598295931E+02  0.19128885358E+03  0.12500000000E+03 0.  0.
         25    1    1    2    0    0  0.10211699617E+03  0.46349722563E+02  0.21320920077E+03  0.27140254417E+03  0.12500000000E+03 0.  0.
</event>
<event>
 4    0  0.2239279E-002  0.2039030E+03  0.7546771E-02  0.1146487E+00
         21   -1    0    0  502  501  0.00000000000E+00  0.00000000000E+00  0.21473224928E+03  0.21473224928E+03  0.00000000000E+00 0.  1.
         21   -1    0    0  501  502 -0.00000000000E+00 -0.00000000000E+00 -0.19361997129E+03  0.19361997129E+03  0.00000000000E+00 0.  1.
         25    1    1    2    0    0  0.12562803646E+03  0.95913874055E+02 -0.20623594681E+02  0.20256408230E+03  0.12500000000E+03 0.  0.
         25    1    1    2    0    0 -0.12562803646E+03 -0.95913874055E+02  0.41735872668E+02  0.20578813826E+03  0.12500000000E+03 0.  0.
</event>
<event>
 4    0  0.2239279E-002  0.2416799E+03  0.7546771E-02  0.1118679E+00
         21   -1    0    0  502  501  0.00000000000E+00  0.00000000000E+00  0.11289600912E+04  0.11289600912E+04  0.00000000000E+00 0.  1.
         21   -1    0    0  501  502 -0.00000000000E+00 -0.00000000000E+00 -0.51737155329E+02  0.51737155329E+02  0.00000000000E+00 0.  1.
         25    1    1    2    0    0 -0.10668281919E+03 -0.28841891837E+02  0.96570555102E+03  0.98001290293E+03  0.12500000000E+03 0.  0.
         25    1    1    2    0    0  0.10668281919E+03  0.28841891837E+02  0.11151738481E+03  0.20068434356E+03  0.12500000000E+03 0.  0.
</event>
<event>
 4    0  0.2239279E-002  0.2945743E+03  0.7546771E-02  0.1087985E+00
         21   -1    0    0  502  501  0.00000000000E+00  0.00000000000E+00  0.54955277656E+03  0.54955277656E+03  0.00000000000E+00 0.  1.
         21   -1    0    0  501  502 -0.00000000000E+00 -0.00000000000E+00 -0.15789930807E+03  0.15789930807E+03  0.00000000000E+00 0.  1.
         25    1    1    2    0    0  0.19054107866E+02 -0.82796782643E+02 -0.10779071960E+03  0.18563998889E+03  0.12500000000E+03 0.  0.
         25    1    1    2    0    0 -0.19054107866E+02  0.82796782643E+02  0.49944418809E+03  0.52181209574E+03  0.12500000000E+03 0.  0.
</event>
<event>
 4    0  0.2239279E-002  0.3981662E+03  0.7546771E-02  0.1044416E+00
         21   -1    0    0  502  501  0.00000000000E+00  0.00000000000E+00  0.95721258494E+03  0.95721258494E+03  0.00000000000E+00 0.  1.
         21   -1    0    0  501  502 -0.00000000000E+00 -0.00000000000E+00 -0.16562293161E+03  0.16562293161E+03  0.00000000000E+00 0.  1.
         25    1    1    2    0    0  0.18168269504E+03 -0.20967391882E+03  0.33722887425E+02  0.30616006769E+03  0.12500000000E+03 0.  0.
         25    1    1    2    0    0 -0.18168269504E+03  0.20967391882E+03  0.75786676591E+03  0.81667544887E+03  0.12500000000E+03 0.  0.
</event>
<event>
 4    0  0.2239279E-002  0.3794044E+03  0.7546771E-02  0.1051154E+00
         21   -1    0    0  502  501  0.00000000000E+00  0.00000000000E+00  0.82594218138E+03  0.82594218138E+03  0.00000000000E+00 0.  1.
         21   -1    0    0  501  502 -0.00000000000E+00 -0.00000000000E+00 -0.17428301668E+03  0.17428301668E+03  0.00000000000E+00 0.  1.
         25    1    1    2    0    0  0.29547051092E+03  0.53312384822E+02  0.58338465102E+03  0.66791293163E+03  0.12500000000E+03 0.  0.
         25    1    1    2    0    0 -0.29547051092E+03 -0.53312384822E+02  0.68274513690E+02  0.33231226643E+03  0.12500000000E+03 0.  0.
</event>
<event>
 4    0  0.2239279E-002  0.2022981E+03  0.7546771E-02  0.1147814E+00
         21   -1    0    0  502  501  0.00000000000E+00  0.00000000000E+00  0.53661667950E+03  0.53661667950E+03  0.00000000000E+00 0. -1.
         21   -1    0    0  501  502 -0.00000000000E+00 -0.00000000000E+00 -0.76264008230E+02  0.76264008230E+02  0.00000000000E+00 0. -1.
         25    1    1    2    0    0  0.32615491276E+02 -0.10425615941E+03  0.40530677005E+03  0.43798595285E+03  0.12500000000E+03 0.  0.
         25    1    1    2    0    0 -0.32615491276E+02  0.10425615941E+03  0.55045901212E+02  0.17489473487E+03  0.12500000000E+03 0.  0.
</event>
<event>
 4    0  0.2239279E-002  0.3423276E+03  0.7546771E-02  0.1065809E+00
         21   -1    0    0  502  501  0.00000000000E+00  0.00000000000E+00  0.14319102016E+03  0.14319102016E+03  0.00000000000E+00 0.  1.
         21   -1    0    0  501  502 -0.00000000000E+00 -0.00000000000E+00 -0.81840449655E+03  0.81840449655E+03  0.00000000000E+00 0.  1.
         25    1    1    2    0    0  0.31168624661E+03 -0.71646355199E+01 -0.43038352874E+03  0.54594379760E+03  0.12500000000E+03 0.  0.
         25    1    1    2    0    0 -0.31168624661E+03  0.71646355199E+01 -0.24482994765E+03  0.41565171911E+03  0.12500000000E+03 0.  0.
</event>
<event>
 4    0  0.2239279E-002  0.2267088E+03  0.7546771E-02  0.1128978E+00
         21   -1    0    0  502  501  0.00000000000E+00  0.00000000000E+00  0.68848146570E+02  0.68848146570E+02  0.00000000000E+00 0. -1.
         21   -1    0    0  501  502 -0.00000000000E+00 -0.00000000000E+00 -0.74652501215E+03  0.74652501215E+03  0.00000000000E+00 0. -1.
         25    1    1    2    0    0 -0.65235879411E+02 -0.21604074920E+02 -0.65571108947E+03  0.67104730748E+03  0.12500000000E+03 0.  0.
         25    1    1    2    0    0  0.65235879411E+02  0.21604074920E+02 -0.21965776103E+02  0.14432585124E+03  0.12500000000E+03 0.  0.
</event>
<event>
 4    0  0.2239279E-002  0.2276322E+03  0.7546771E-02  0.1128317E+00
         21   -1    0    0  502  501  0.00000000000E+00  0.00000000000E+00  0.23325873634E+03  0.23325873634E+03  0.00000000000E+00 0. -1.
         21   -1    0    0  501  502 -0.00000000000E+00 -0.00000000000E+00 -0.22214145545E+03  0.22214145545E+03  0.00000000000E+00 0. -1.
         25    1    1    2    0    0 -0.17337308272E+03  0.69860134675E+02  0.40963696542E+02  0.22856440813E+03  0.12500000000E+03 0.  0.
         25    1    1    2    0    0  0.17337308272E+03 -0.69860134675E+02 -0.29846415651E+02  0.22683578367E+03  0.12500000000E+03 0.  0.
</event>
<event>
 4    0  0.2239279E-002  0.1887226E+03  0.7546771E-02  0.1159619E+00
         21   -1    0    0  502  501  0.00000000000E+00  0.00000000000E+00  0.12615553168E+03  0.12615553168E+03  0.00000000000E+00 0. -1.
         21   -1    0    0  501  502 -0.00000000000E+00 -0.00000000000E+00 -0.28231993378E+03  0.28231993378E+03  0.00000000000E+00 0. -1.
         25    1    1    2    0    0  0.10535722435E+03  0.92119374272E+01  0.23474070289E+02  0.16541171811E+03  0.12500000000E+03 0.  0.
         25    1    1    2    0    0 -0.10535722435E+03 -0.92119374272E+01 -0.17963847239E+03  0.24306374735E+03  0.12500000000E+03 0.  0.
</event>
<event>
 4    0  0.2239279E-002  0.2445129E+03  0.7546771E-02  0.1116822E+00
         21   -1    0    0  502  501  0.00000000000E+00  0.00000000000E+00  0.10632729786E+03  0.10632729786E+03  0.00000000000E+00 0. -1.
         21   -1    0    0  501  502 -0.00000000000E+00 -0.00000000000E+00 -0.56228803753E+03  0.56228803753E+03  0.00000000000E+00 0. -1.
         25    1    1    2    0    0  0.36488231169E+02 -0.11838591712E+03 -0.46006878972E+03  0.49257984902E+03  0.12500000000E+03 0.  0.
         25    1    1    2    0    0 -0.36488231169E+02  0.11838591712E+03  0.41080500581E+01  0.17603548637E+03  0.12500000000E+03 0.  0.
</event>
<event>
 4    0  0.2239279E-002  0.2950459E+03  0.7546771E-02  0.1087744E+00
         21   -1    0    0  502  501  0.00000000000E+00  0.00000000000E+00  0.29610289940E+03  0.29610289940E+03  0.00000000000E+00 0.  1.
         21   -1    0    0  501  502 -0.00000000000E+00 -0.00000000000E+00 -0.29399275684E+03  0.29399275684E+03  0.00000000000E+00 0.  1.
         25    1    1    2    0    0  0.16562386348E+03  0.14340528603E+03 -0.15201702647E+03  0.29450045255E+03  0.12500000000E+03 0.  0.
         25    1    1    2    0    0 -0.16562386348E+03 -0.14340528603E+03  0.15412716902E+03  0.29559520369E+03  0.12500000000E+03 0.  0.
</event>
<event>
 4    0  0.2239279E-002  0.1642989E+03  0.7546771E-02  0.1183927E+00
         21   -1    0    0  502  501  0.00000000000E+00  0.00000000000E+00  0.42314159319E+03  0.42314159319E+03  0.00000000000E+00 0. -1.
         21   -1    0    0  501  502 -0.00000000000E+00 -0.00000000000E+00 -0.63794558188E+02  0.63794558188E+02  0.00000000000E+00 0. -1.
         25    1    1    2    0    0 -0.83329522295E+02 -0.50979686293E+02  0.24300278998E+03  0.29020353829E+03  0.12500000000E+03 0.  0.
         25    1    1    2    0    0  0.83329522295E+02  0.50979686293E+02  0.11634424502E+03  0.19673261308E+03  0.12500000000E+03 0.  0.
</event>
<event>
 4    0  0.2239279E-002  0.3578168E+03  0.7546771E-02  0.1059452E+00
         21   -1    0    0  502  501  0.00000000000E+00  0.00000000000E+00  0.93091992764E+02  0.93091992764E+02  0.00000000000E+00 0.  1.
         21   -1    0    0  501  502 -0.00000000000E+00 -0.00000000000E+00 -0.13753367832E+04  0.13753367832E+04  0.00000000000E+00 0.  1.
         25    1    1    2    0    0 -0.45653303053E+02  0.29783910688E+03 -0.94280111915E+03  0.99764287595E+03  0.12500000000E+03 0.  0.
         25    1    1    2    0    0  0.45653303053E+02 -0.29783910688E+03 -0.33944367127E+03  0.47078589999E+03  0.12500000000E+03 0.  0.
</event>
<event>
 4    0  0.2239279E-002  0.2525132E+03  0.7546771E-02  0.1111727E+00
         21   -1    0    0  502  501  0.00000000000E+00  0.00000000000E+00  0.51850923714E+03  0.51850923714E+03  0.00000000000E+00 0. -1.
         21   -1    0    0  501  502 -0.00000000000E+00 -0.00000000000E+00 -0.12297355989E+03  0.12297355989E+03  0.00000000000E+00 0. -1.
         25    1    1    2    0    0  0.87432317991E+02  0.15731407510E+03  0.38380713018E+02  0.22246394671E+03  0.12500000000E+03 0.  0.
         25    1    1    2    0    0 -0.87432317991E+02 -0.15731407510E+03  0.35715496423E+03  0.41901885033E+03  0.12500000000E+03 0.  0.
</event>
<event>
 4    0  0.2239279E-002  0.1901901E+03  0.7546771E-02  0.1158290E+00
         21   -1    0    0  502  501  0.00000000000E+00  0.00000000000E+00  0.28660984248E+03  0.28660984248E+03  0.00000000000E+00 0. -1.
         21   -1    0    0  501  502 -0.00000000000E+00 -0.00000000000E+00 -0.12620739102E+03  0.12620739102E+03  0.00000000000E+00 0. -1.
         25    1    1    2    0    0  0.85050072956E+02  0.58031211349E+02  0.18843610855E+03  0.24846388753E+03  0.12500000000E+03 0.  0.
         25    1    1    2    0    0 -0.85050072956E+02 -0.58031211349E+02 -0.28033657093E+02  0.16435334597E+03  0.12500000000E+03 0.  0.
</event>
<event>
 4    0  0.2239279E-002  0.2232482E+03  0.7546771E-02  0.1131484E+00
         21   -1    0    0  502  501  0.00000000000E+00  0.00000000000E+00  0.26430251238E+03  0.26430251238E+03  0.00000000000E+00 0.  1.
         21   -1    0    0  501  502 -0.00000000000E+00 -0.00000000000E+00 -0.18857091475E+03  0.18857091475E+03  0.00000000000E+00 0.  1.
         25    1    1    2    0    0 -0.10778222187E+02  0.92422474320E+02  0.20001360751E+03  0.25355182315E+03  0.12500000000E+03 0.  0.
         25    1    1    2    0    0  0.10778222187E+02 -0.92422474320E+02 -0.12428200989E+03  0.19932160398E+03  0.12500000000E+03 0.  0.
</event>
<event>
 4    0  0.2239279E-002  0.3903222E+03  0.7546771E-02  0.1047183E+00
         21   -1    0    0  502  501  0.00000000000E+00  0.00000000000E+00  0.28327712062E+03  0.28327712062E+03  0.00000000000E+00 0. -1.
         21   -1    0    0  501  502 -0.00000000000E+00 -0.00000000000E+00 -0.53781761765E+03  0.53781761765E+03  0.00000000000E+00 0. -1.
         25    1    1    2    0    0 -0.23747049486E+03  0.28342160651E+03 -0.12992765894E+03  0.41137117002E+03  0.12500000000E+03 0.  0.
         25    1    1    2    0    0  0.23747049486E+03 -0.28342160651E+03 -0.12461283808E+03  0.40972356825E+03  0.12500000000E+03 0.  0.
</event>
<event>
 4    0  0.2239279E-002  0.2737029E+03  0.7546771E-02  0.1099179E+00
         21   -1    0    0  502  501  0.00000000000E+00  0.00000000000E+00  0.11861990220E+03  0.11861990220E+03  0.00000000000E+00 0.  1.
         21   -1    0    0  501  502 -0.00000000000E+00 -0.00000000000E+00 -0.63154059983E+03  0.63154059983E+03  0.00000000000E+00 0.  1.
         25    1    1    2    0    0 -0.22003964141E+02  0.21630205759E+03 -0.40668886591E+03  0.47779869005E+03  0.12500000000E+03 0.  0.
         25    1    1    2    0    0  0.22003964141E+02 -0.21630205759E+03 -0.10623183172E+03  0.27236181198E+03  0.12500000000E+03 0.  0.
</event>
<event>
 4    0  0.2239279E-002  0.2427877E+03  0.7546771E-02  0.1117950E+00
         21   -1    0    0  502  501  0.00000000000E+00  0.00000000000E+00  0.31284886780E+02  0.31284886780E+02  0.00000000000E+00 0. -1.
         21   -1    0    0  501  502 -0.00000000000E+00 -0.00000000000E+00 -0.18841648441E+04  0.18841648441E+04  0.00000000000E+00 0. -1.
         25    1    1    2    0    0  0.11751313417E+03  0.17096001239E+03 -0.85993681281E+03  0.89339408134E+03  0.12500000000E+03 0.  0.
         25    1    1    2    0    0 -0.11751313417E+03 -0.17096001239E+03 -0.99294314452E+03  0.10220556496E+04  0.12500000000E+03 0.  0.
</event>
<event>
 4    0  0.2239279E-002  0.3700727E+03  0.7546771E-02  0.1054665E+00
         21   -1    0    0  502  501  0.00000000000E+00  0.00000000000E+00  0.46707661485E+03  0.46707661485E+03  0.00000000000E+00 0.  1.
         21   -1    0    0  501  502 -0.00000000000E+00 -0.00000000000E+00 -0.29321482091E+03  0.29321482091E+03  0.00000000000E+00 0.  1.
         25    1    1    2    0    0  0.62754201332E+02  0.24454050067E+03 -0.15958165231E+03  0.32377376361E+03  0.12500000000E+03 0.  0.
         25    1    1    2    0    0 -0.62754201332E+02 -0.24454050067E+03  0.33344344624E+03  0.43651767215E+03  0.12500000000E+03 0.  0.
</event>
<event>
 4    0  0.2239279E-002  0.1908507E+03  0.7546771E-02  0.1157696E+00
         21   -1    0    0  502  501  0.00000000000E+00  0.00000000000E+00  0.74394758961E+03  0.74394758961E+03  0.00000000000E+00 0.  1.
         21   -1    0    0  501  502 -0.00000000000E+00 -0.00000000000E+00 -0.48960416285E+02  0.48960416285E+02  0.00000000000E+00 0.  1.
         25    1    1    2    0    0 -0.40637568742E+02 -0.12152454401E+03  0.21002475066E+03  0.27596199499E+03  0.12500000000E+03 0.  0.
         25    1    1    2    0    0  0.40637568742E+02  0.12152454401E+03  0.48496242267E+03  0.51694601091E+03  0.12500000000E+03 0.  0.
</event>
<event>
 4    0  0.2239279E-002  0.2425886E+03  0.7546771E-02  0.1118080E+00
         21   -1    0    0  502  501  0.00000000000E+00  0.00000000000E+00  0.13965814677E+03  0.13965814677E+03  0.00000000000E+00 0.  1.
         21   -1    0    0  501  502 -0.00000000000E+00 -0.00000000000E+00 -0.42138042710E+03  0.42138042710E+03  0.00000000000E+00 0.  1.
         25    1    1    2    0    0  0.19964934330E+03 -0.49787427937E+02 -0.17527249067E+03  0.29779874789E+03  0.12500000000E+03 0.  0.
         25    1    1    2    0    0 -0.19964934330E+03  0.49787427937E+02 -0.10644978965E+03  0.26323982597E+03  0.12500000000E+03 0.  0.
</event>
<event>
 4    0  0.2239279E-002  0.1676603E+03  0.7546771E-02  0.1180310E+00
         21   -1    0    0  502  501  0.00000000000E+00  0.00000000000E+00  0.84049276888E+03  0.84049276888E+03  0.00000000000E+00 0.  1.
         21   -1    0    0  501  502 -0.00000000000E+00 -0.00000000000E+00 -0.33444620394E+02  0.33444620394E+02  0.00000000000E+00 0.  1.
         25    1    1    2    0    0  0.72724301564E+02  0.72409392629E+02  0.28834508670E+03  0.33060525283E+03  0.12500000000E+03 0.  0.
         25    1    1    2    0    0 -0.72724301564E+02 -0.72409392629E+02  0.51870306179E+03  0.54333213644E+03  0.12500000000E+03 0.  0.
</event>
<event>
 4    0  0.2239279E-002  0.2377114E+03  0.7546771E-02  0.1121327E+00
         21   -1    0    0  502  501  0.00000000000E+00  0.00000000000E+00  0.13437364876E+03  0.13437364876E+03  0.00000000000E+00 0.  1.
         21   -1    0    0  501  502 -0.00000000000E+00 -0.00000000000E+00 -0.42051926122E+03  0.42051926122E+03  0.00000000000E+00 0.  1.
         25    1    1    2    0    0  0.19894746678E+03 -0.23981032750E+02 -0.11161315723E+03  0.26122343183E+03  0.12500000000E+03 0.  0.
         25    1    1    2    0    0 -0.19894746678E+03  0.23981032750E+02 -0.17453245524E+03  0.29366947816E+03  0.12500000000E+03 0.  0.
</event>
<event>
 4    0  0.2239279E-002  0.2111005E+03  0.7546771E-02  0.1140697E+00
         21   -1    0    0  502  501  0.00000000000E+00  0.00000000000E+00  0.21201075669E+03  0.21201075669E+03  0.00000000000E+00 0. -1.
         21   -1    0    0  501  502 -0.00000000000E+00 -0.00000000000E+00 -0.21019410507E+03  0.21019410507E+03  0.00000000000E+00 0. -1.
         25    1    1    2    0    0 -0.11072054067E+03 -0.40452910845E+02  0.12355910508E+03  0.21163016933E+03  0.12500000000E+03 0.  0.
         25    1    1    2    0    0  0.11072054067E+03  0.40452910845E+02 -0.12174245345E+03  0.21057469244E+03  0.12500000000E+03 0.  0.
</event>
<event>
 4    0  0.2239279E-002  0.2755566E+03  0.7546771E-02  0.1098141E+00
         21   -1    0    0  502  501  0.00000000000E+00  0.00000000000E+00  0.10150789197E+03  0.10150789197E+03  0.00000000000E+00 0. -1.
         21   -1    0    0  501  502 -0.00000000000E+00 -0.00000000000E+00 -0.74803500000E+03  0.74803500000E+03  0.00000000000E+00 0. -1.
         25    1    1    2    0    0  0.80536853722E+02  0.12771341767E+03 -0.62181240353E+03  0.65197589453E+03  0.12500000000E+03 0.  0.
         25    1    1    2    0    0 -0.80536853722E+02 -0.12771341767E+03 -0.24714704495E+02  0.19756699744E+03  0.12500000000E+03 0.  0.
</event>
<event>
 4    0  0.2239279E-002  0.2206500E+03  0.7546771E-02  0.1133399E+00
         21   -1    0    0  502  501  0.00000000000E+00  0.00000000000E+00  0.93224812038E+03  0.93224812038E+03  0.00000000000E+00 0.  1.
         21   -1    0    0  501  502 -0.00000000000E+00 -0.00000000000E+00 -0.52224762749E+02  0.52224762749E+02  0.00000000000E+00 0.  1.
         25    1    1    2    0    0 -0.38047891229E+02 -0.61980506053E+01  0.43602179707E+02  0.13788476324E+03  0.12500000000E+03 0.  0.
         25    1    1    2    0    0  0.38047891229E+02  0.61980506053E+01  0.83642117792E+03  0.84658811989E+03  0.12500000000E+03 0.  0.
</event>
<event>
 4    0  0.2239279E-002  0.2373326E+03  0.7546771E-02  0.1121583E+00
         21   -1    0    0  502  501  0.00000000000E+00  0.00000000000E+00  0.35148196255E+03  0.35148196255E+03  0.00000000000E+00 0.  1.
         21   -1    0    0  501  502 -0.00000000000E+00 -0.00000000000E+00 -0.16025505830E+03  0.16025505830E+03  0.00000000000E+00 0.  1.
         25    1    1    2    0    0  0.19537996232E+03  0.10245817458E+02  0.42540039788E+02  0.23603593251E+03  0.12500000000E+03 0.  0.
         25    1    1    2    0    0 -0.19537996232E+03 -0.10245817458E+02  0.14868686446E+03  0.27570108834E+03  0.12500000000E+03 0.  0.
</event>
<event>
 4    0  0.2239279E-002  0.2401647E+03  0.7546771E-02  0.1119683E+00
         21   -1    0    0  502  501  0.00000000000E+00  0.00000000000E+00  0.14837535613E+03  0.14837535613E+03  0.00000000000E+00 0. -1.
         21   -1    0    0  501  502 -0.00000000000E+00 -0.00000000000E+00 -0.38873775374E+03  0.38873775374E+03  0.00000000000E+00 0. -1.
         25    1    1    2    0    0 -0.19860782033E+01 -0.19430771612E+03 -0.19346219906E+03  0.30135038662E+03  0.12500000000E+03 0.  0.
         25    1    1    2    0    0  0.19860782033E+01  0.19430771612E+03 -0.46900198552E+02  0.23576272325E+03  0.12500000000E+03 0.  0.
</event>
<event>
 4    0  0.2239279E-002  0.1895854E+03  0.7546771E-02  0.1158836E+00
         21   -1    0    0  502  501  0.00000000000E+00  0.00000000000E+00  0.74105430388E+03  0.74105430388E+03  0.00000000000E+00 0.  1.
         21   -1    0    0  501  502 -0.00000000000E+00 -0.00000000000E+00 -0.48502002200E+02  0.48502002200E+02  0.00000000000E+00 0.  1.
         25    1    1    2    0    0  0.13513689013E+03  0.23795033732E+02  0.26591262090E+03  0.32428799648E+03  0.12500000000E+03 0.  0.
         25    1    1    2    0    0 -0.13513689013E+03 -0.23795033732E+02  0.42663968078E+03  0.46526830960E+03  0.12500000000E+03 0.  0.
</event>
<event>
 4    0  0.2239279E-002  0.3764435E+03  0.7546771E-02  0.1052256E+00
         21   -1    0    0  502  501  0.00000000000E+00  0.00000000000E+00  0.24542808112E+03  0.24542808112E+03  0.00000000000E+00 0.  1.
         21   -1    0    0  501  502 -0.00000000000E+00 -0.00000000000E+00 -0.57739812431E+03  0.57739812431E+03  0.00000000000E+00 0. -1.
         25    1    1    2    0    0 -0.22685989539E+03  0.27307931876E+03 -0.17347651143E+03  0.41443555167E+03  0.12500000000E+03 0.  0.
         25    1    1    2    0    0  0.22685989539E+03 -0.27307931876E+03 -0.15849353176E+03  0.40839065376E+03  0.12500000000E+03 0.  0.
</event>
<event>
 4    0  0.2239279E-002  0.2810168E+03  0.7546771E-02  0.1095135E+00
         21   -1    0    0  502  501  0.00000000000E+00  0.00000000000E+00  0.25283509437E+03  0.25283509437E+03  0.00000000000E+00 0. -1.
         21   -1    0    0  501  502 -0.00000000000E+00 -0.00000000000E+00 -0.31233961132E+03  0.31233961132E+03  0.00000000000E+00 0. -1.
         25    1    1    2    0    0  0.21665293974E+03 -0.12170619091E+03 -0.69906900157E+02  0.28681504126E+03  0.12500000000E+03 0.  0.
         25    1    1    2    0    0 -0.21665293974E+03  0.12170619091E+03  0.10402383209E+02  0.27835966442E+03  0.12500000000E+03 0.  0.
</event>
<event>
 4    0  0.2239279E-002  0.2355390E+03  0.7546771E-02  0.1122801E+00
         21   -1    0    0  502  501  0.00000000000E+00  0.00000000000E+00  0.46389063671E+03  0.46389063671E+03  0.00000000000E+00 0.  1.
         21   -1    0    0  501  502 -0.00000000000E+00 -0.00000000000E+00 -0.11959416012E+03  0.11959416012E+03  0.00000000000E+00 0.  1.
         25    1    1    2    0    0  0.96639449237E+02  0.15124891587E+03  0.28039927989E+03  0.35561801679E+03  0.12500000000E+03 0.  0.
         25    1    1    2    0    0 -0.96639449237E+02 -0.15124891587E+03  0.63897196697E+02  0.22786678004E+03  0.12500000000E+03 0.  0.
</event>
<event>
 4    0  0.2239279E-002  0.3521072E+03  0.7546771E-02  0.1061753E+00
         21   -1    0    0  502  501  0.00000000000E+00  0.00000000000E+00  0.16806698429E+04  0.16806698429E+04  0.00000000000E+00 0.  1.
         21   -1    0    0  501  502 -0.00000000000E+00 -0.00000000000E+00 -0.73767912820E+02  0.73767912820E+02  0.00000000000E+00 0.  1.
         25    1    1    2    0    0 -0.14133482834E+03 -0.24311645835E+03  0.12297057896E+04  0.12676286818E+04  0.12500000000E+03 0.  0.
         25    1    1    2    0    0  0.14133482834E+03  0.24311645835E+03  0.37719614046E+03  0.48680907387E+03  0.12500000000E+03 0.  0.
</event>
<event>
 4    0  0.2239279E-002  0.1899720E+03  0.7546771E-02  0.1158487E+00
         21   -1    0    0  502  501  0.00000000000E+00  0.00000000000E+00  0.14065232653E+03  0.14065232653E+03  0.00000000000E+00 0.  1.
         21   -1    0    0  501  502 -0.00000000000E+00 -0.00000000000E+00 -0.25658567117E+03  0.25658567117E+03  0.00000000000E+00 0.  1.
         25    1    1    2    0    0  0.22865993289E+02  0.12428163585E+03  0.12134393160E+02  0.17816010259E+03  0.12500000000E+03 0.  0.
         25    1    1    2    0    0 -0.22865993289E+02 -0.12428163585E+03 -0.12806773780E+03  0.21907789510E+03  0.12500000000E+03 0.  0.
</event>
<event>
 4    0  0.2239279E-002  0.2735149E+03  0.7546771E-02  0.1099285E+00
         21   -1    0    0  502  501  0.00000000000E+00  0.00000000000E+00  0.12982778836E+04  0.12982778836E+04  0.00000000000E+00 0.  1.
         21   -1    0    0  501  502 -0.00000000000E+00 -0.00000000000E+00 -0.57622785379E+02  0.57622785379E+02  0.00000000000E+00 0.  1.
         25    1    1    2    0    0  0.10755248059E+03  0.48617654851E+02  0.93041532604E+02  0.19548130150E+03  0.12500000000E+03 0.  0.
         25    1    1    2    0    0 -0.10755248059E+03 -0.48617654851E+02  0.11476135656E+04  0.11604193675E+04  0.12500000000E+03 0.  0.
</event>
<event>
 4    0  0.2239279E-002  0.2095692E+03  0.7546771E-02  0.1141908E+00
         21   -1    0    0  502  501  0.00000000000E+00  0.00000000000E+00  0.74620939244E+02  0.74620939244E+02  0.00000000000E+00 0. -1.
         21   -1    0    0  501  502 -0.00000000000E+00 -0.00000000000E+00 -0.58856480334E+03  0.58856480334E+03  0.00000000000E+00 0. -1.
         25    1    1    2    0    0  0.74878767803E+02 -0.12290339092E+03 -0.11919551824E+03  0.22482136228E+03  0.12500000000E+03 0.  0.
         25    1    1    2    0    0 -0.74878767803E+02  0.12290339092E+03 -0.39474834586E+03  0.43836438031E+03  0.12500000000E+03 0.  0.
</event>
<event>
 4    0  0.2239279E-002  0.2049425E+03  0.7546771E-02  0.1145635E+00
         21   -1    0    0  502  501  0.00000000000E+00  0.00000000000E+00  0.60163086012E+03  0.60163086012E+03  0.00000000000E+00 0. -1.
         21   -1    0    0  501  502 -0.00000000000E+00 -0.00000000000E+00 -0.69812610689E+02  0.69812610689E+02  0.00000000000E+00 0. -1.
         25    1    1    2    0    0 -0.70165686698E+02 -0.10151871367E+03  0.43886262467E+03  0.47270992812E+03  0.12500000000E+03 0.  0.
         25    1    1    2    0    0  0.70165686698E+02  0.10151871367E+03  0.92955624765E+02  0.19873354269E+03  0.12500000000E+03 0.  0.
</event>
<event>
 4    0  0.2239279E-002  0.7354063E+03  0.7546771E-02  0.9658528E-01
         21   -1    0    0  502  501  0.00000000000E+00  0.00000000000E+00  0.15958952896E+04  0.15958952896E+04  0.00000000000E+00 0.  1.
         21   -1    0    0  501  502 -0.00000000000E+00 -0.00000000000E+00 -0.33888342911E+03  0.33888342911E+03  0.00000000000E+00 0.  1.
         25    1    1    2    0    0 -0.43491813394E+03 -0.30824507049E+02 -0.13297138064E+03  0.47266301054E+03  0.12500000000E+03 0.  0.
         25    1    1    2    0    0  0.43491813394E+03  0.30824507049E+02  0.13899832411E+04  0.14621157082E+04  0.12500000000E+03 0.  0.
</event>
<event>
 4    0  0.2239279E-002  0.2135973E+03  0.7546771E-02  0.1138749E+00
         21   -1    0    0  502  501  0.00000000000E+00  0.00000000000E+00  0.11349918962E+03  0.11349918962E+03  0.00000000000E+00 0.  1.
         21   -1    0    0  501  502 -0.00000000000E+00 -0.00000000000E+00 -0.40197456226E+03  0.40197456226E+03  0.00000000000E+00 0. -1.
         25    1    1    2    0    0 -0.16319000730E+03 -0.37144955830E+02 -0.19803935298E+03  0.28784598583E+03  0.12500000000E+03 0.  0.
         25    1    1    2    0    0  0.16319000730E+03  0.37144955830E+02 -0.90436019665E+02  0.22762776606E+03  0.12500000000E+03 0.  0.
</event>
<event>
 4    0  0.2239279E-002  0.2400276E+03  0.7546771E-02  0.1119774E+00
         21   -1    0    0  502  501  0.00000000000E+00  0.00000000000E+00  0.13847325907E+03  0.13847325907E+03  0.00000000000E+00 0.  1.
         21   -1    0    0  501  502 -0.00000000000E+00 -0.00000000000E+00 -0.41606037021E+03  0.41606037021E+03  0.00000000000E+00 0.  1.
         25    1    1    2    0    0 -0.18235921554E+03  0.89321228220E+02 -0.10705183926E+03  0.26137762259E+03  0.12500000000E+03 0.  0.
         25    1    1    2    0    0  0.18235921554E+03 -0.89321228220E+02 -0.17053527188E+03  0.29315600669E+03  0.12500000000E+03 0.  0.
</event>
<event>
 4    0  0.2239279E-002  0.1604419E+03  0.7546771E-02  0.1188199E+00
         21   -1    0    0  502  501  0.00000000000E+00  0.00000000000E+00  0.35683318714E+03  0.35683318714E+03  0.00000000000E+00 0. -1.
         21   -1    0    0  501  502 -0.00000000000E+00 -0.00000000000E+00 -0.72139002840E+02  0.72139002840E+02  0.00000000000E+00 0. -1.
         25    1    1    2    0    0  0.93212925606E+02  0.32313508556E+02  0.11615793790E+03  0.19710524821E+03  0.12500000000E+03 0.  0.
         25    1    1    2    0    0 -0.93212925606E+02 -0.32313508556E+02  0.16853624640E+03  0.23186694177E+03  0.12500000000E+03 0.  0.
</event>
<event>
 4    0  0.2239279E-002  0.2029068E+03  0.7546771E-02  0.1147309E+00
         21   -1    0    0  502  501  0.00000000000E+00  0.00000000000E+00  0.75075911233E+02  0.75075911233E+02  0.00000000000E+00 0.  1.
         21   -1    0    0  501  502 -0.00000000000E+00 -0.00000000000E+00 -0.54839408236E+03  0.54839408236E+03  0.00000000000E+00 0.  1.
         25    1    1    2    0    0  0.10811075740E+03 -0.59472995793E+02 -0.39274159242E+03  0.43022776702E+03  0.12500000000E+03 0.  0.
         25    1    1    2    0    0 -0.10811075740E+03  0.59472995793E+02 -0.80576578699E+02  0.19324222657E+03  0.12500000000E+03 0.  0.
</event>
<event>
 4    0  0.2239279E-002  0.1831543E+03  0.7546771E-02  0.1164785E+00
         21   -1    0    0  502  501  0.00000000000E+00  0.00000000000E+00  0.11022945218E+04  0.11022945218E+04  0.00000000000E+00 0. -1.
         21   -1    0    0  501  502 -0.00000000000E+00 -0.00000000000E+00 -0.30432436418E+02  0.30432436418E+02  0.00000000000E+00 0. -1.
         25    1    1    2    0    0 -0.12616666132E+03  0.10049111943E+02  0.40108883264E+03  0.43876675210E+03  0.12500000000E+03 0.  0.
         25    1    1    2    0    0  0.12616666132E+03 -0.10049111943E+02  0.67077325276E+03  0.69396020614E+03  0.12500000000E+03 0.  0.
</event>
<event>
 4    0  0.2239279E-002  0.2538961E+03  0.7546771E-02  0.1110867E+00
         21   -1    0    0  502  501  0.00000000000E+00  0.00000000000E+00  0.74805189329E+02  0.74805189329E+02  0.00000000000E+00 0. -1.
         21   -1    0    0  501  502 -0.00000000000E+00 -0.00000000000E+00 -0.86174829284E+03  0.86174829284E+03  0.00000000000E+00 0. -1.
         25    1    1    2    0    0  0.13685483849E+03 -0.11914057885E+03 -0.16080000424E+03  0.27277346958E+03  0.12500000000E+03 0.  0.
         25    1    1    2    0    0 -0.13685483849E+03  0.11914057885E+03 -0.62614309927E+03  0.66378001259E+03  0.12500000000E+03 0.  0.
</event>
<event>
 4    0  0.2239279E-002  0.2268989E+03  0.7546771E-02  0.1128842E+00
         21   -1    0    0  502  501  0.00000000000E+00  0.00000000000E+00  0.95219424275E+02  0.95219424275E+02  0.00000000000E+00 0.  1.
         21   -1    0    0  501  502 -0.00000000000E+00 -0.00000000000E+00 -0.54067881704E+03  0.54067881704E+03  0.00000000000E+00 0.  1.
         25    1    1    2    0    0  0.18580234176E+03 -0.32198538143E+02 -0.24695482309E+03  0.33491930477E+03  0.12500000000E+03 0.  0.
         25    1    1    2    0    0 -0.18580234176E+03  0.32198538143E+02 -0.19850456967E+03  0.30097893654E+03  0.12500000000E+03 0.  0.
</event>
<event>
 4    0  0.2239279E-002  0.1998820E+03  0.7546771E-02  0.1149839E+00
         21   -1    0    0  502  501  0.00000000000E+00  0.00000000000E+00  0.38757633951E+03  0.38757633951E+03  0.00000000000E+00 0. -1.
         21   -1    0    0  501  502 -0.00000000000E+00 -0.00000000000E+00 -0.10308372875E+03  0.10308372875E+03  0.00000000000E+00 0. -1.
         25    1    1    2    0    0 -0.40096506166E+02  0.97575644183E+02  0.28325595407E+03  0.32708969972E+03  0.12500000000E+03 0.  0.
         25    1    1    2    0    0  0.40096506166E+02 -0.97575644183E+02  0.12366566928E+01  0.16357036854E+03  0.12500000000E+03 0.  0.
</event>
<event>
 4    0  0.2239279E-002  0.2568745E+03  0.7546771E-02  0.1109036E+00
         21   -1    0    0  502  501  0.00000000000E+00  0.00000000000E+00  0.31997192432E+03  0.31997192432E+03  0.00000000000E+00 0.  1.
         21   -1    0    0  501  502 -0.00000000000E+00 -0.00000000000E+00 -0.20621960630E+03  0.20621960630E+03  0.00000000000E+00 0.  1.
         25    1    1    2    0    0  0.20550646369E+03 -0.73421045981E+02  0.11044907046E+03  0.27467718102E+03  0.12500000000E+03 0.  0.
         25    1    1    2    0    0 -0.20550646369E+03  0.73421045981E+02  0.33032475542E+01  0.25151434960E+03  0.12500000000E+03 0.  0.
</event>
<event>
 4    0  0.2239279E-002  0.1911704E+03  0.7546771E-02  0.1157410E+00
         21   -1    0    0  502  501  0.00000000000E+00  0.00000000000E+00  0.31374085620E+03  0.31374085620E+03  0.00000000000E+00 0. -1.
         21   -1    0    0  501  502 -0.00000000000E+00 -0.00000000000E+00 -0.11648511468E+03  0.11648511468E+03  0.00000000000E+00 0. -1.
         25    1    1    2    0    0 -0.26256265768E+02 -0.12688080000E+03  0.26287765132E+02  0.18194552893E+03  0.12500000000E+03 0.  0.
         25    1    1    2    0    0  0.26256265768E+02  0.12688080000E+03  0.17096797639E+03  0.24828044194E+03  0.12500000000E+03 0.  0.
</event>
<event>
 4    0  0.2239279E-002  0.2223442E+03  0.7546771E-02  0.1132147E+00
         21   -1    0    0  502  501  0.00000000000E+00  0.00000000000E+00  0.16417562920E+03  0.16417562920E+03  0.00000000000E+00 0.  1.
         21   -1    0    0  501  502 -0.00000000000E+00 -0.00000000000E+00 -0.30112227457E+03  0.30112227457E+03  0.00000000000E+00 0.  1.
         25    1    1    2    0    0 -0.16743924076E+03 -0.72136224418E+02 -0.93507129722E+02  0.24001691092E+03  0.12500000000E+03 0.  0.
         25    1    1    2    0    0  0.16743924076E+03  0.72136224418E+02 -0.43439515645E+02  0.22528099285E+03  0.12500000000E+03 0.  0.
</event>
<event>
 4    0  0.2239279E-002  0.2267034E+03  0.7546771E-02  0.1128982E+00
         21   -1    0    0  502  501  0.00000000000E+00  0.00000000000E+00  0.81018036544E+03  0.81018036544E+03  0.00000000000E+00 0.  1.
         21   -1    0    0  501  502 -0.00000000000E+00 -0.00000000000E+00 -0.63435800606E+02  0.63435800606E+02  0.00000000000E+00 0.  1.
         25    1    1    2    0    0  0.16493901834E+03  0.88581816961E+02  0.32174954927E+03  0.39268230227E+03  0.12500000000E+03 0.  0.
         25    1    1    2    0    0 -0.16493901834E+03 -0.88581816961E+02  0.42499501557E+03  0.48093386377E+03  0.12500000000E+03 0.  0.
</event>
<event>
 4    0  0.2239279E-002  0.2528038E+03  0.7546771E-02  0.1111546E+00
         21   -1    0    0  502  501  0.00000000000E+00  0.00000000000E+00  0.77435102068E+02  0.77435102068E+02  0.00000000000E+00 0. -1.
         21   -1    0    0  501  502 -0.00000000000E+00 -0.00000000000E+00 -0.82533319299E+03  0.82533319299E+03  0.00000000000E+00 0. -1.
         25    1    1    2    0    0  0.14587194339E+03 -0.55210003618E+02 -0.97580944662E+02  0.22242708722E+03  0.12500000000E+03 0.  0.
         25    1    1    2    0    0 -0.14587194339E+03  0.55210003618E+02 -0.65031714626E+03  0.68034120784E+03  0.12500000000E+03 0.  0.
</event>
<event>
 4    0  0.2239279E-002  0.2040696E+03  0.7546771E-02  0.1146350E+00
         21   -1    0    0  502  501  0.00000000000E+00  0.00000000000E+00  0.28741494675E+03  0.28741494675E+03  0.00000000000E+00 0. -1.
         21   -1    0    0  501  502 -0.00000000000E+00 -0.00000000000E+00 -0.14489293839E+03  0.14489293839E+03  0.00000000000E+00 0. -1.
         25    1    1    2    0    0  0.88312033116E+02 -0.58420310705E+02  0.20015271516E+03  0.25864658761E+03  0.12500000000E+03 0.  0.
         25    1    1    2    0    0 -0.88312033116E+02  0.58420310705E+02 -0.57630706796E+02  0.17366129754E+03  0.12500000000E+03 0.  0.
</event>
<event>
 4    0  0.2239279E-002  0.2241872E+03  0.7546771E-02  0.1130799E+00
         21   -1    0    0  502  501  0.00000000000E+00  0.00000000000E+00  0.27502861588E+03  0.27502861588E+03  0.00000000000E+00 0.  1.
         21   -1    0    0  501  502 -0.00000000000E+00 -0.00000000000E+00 -0.18274424004E+03  0.18274424004E+03  0.00000000000E+00 0.  1.
         25    1    1    2    0    0 -0.11835496216E+03  0.13007766235E+03 -0.16017501204E+02  0.21635539201E+03  0.12500000000E+03 0.  0.
         25    1    1    2    0    0  0.11835496216E+03 -0.13007766235E+03  0.10830187704E+03  0.24141746391E+03  0.12500000000E+03 0.  0.
</event>
<event>
 4    0  0.2239279E-002  0.1557910E+03  0.7546771E-02  0.1193532E+00
         21   -1    0    0  502  501  0.00000000000E+00  0.00000000000E+00  0.24808425892E+03  0.24808425892E+03  0.00000000000E+00 0. -1.
         21   -1    0    0  501  502 -0.00000000000E+00 -0.00000000000E+00 -0.97833060172E+02  0.97833060172E+02  0.00000000000E+00 0. -1.
         25    1    1    2    0    0 -0.88814513205E+02 -0.18839578989E+02  0.97409729472E+02  0.18263790102E+03  0.12500000000E+03 0.  0.
         25    1    1    2    0    0  0.88814513205E+02  0.18839578989E+02  0.52841469280E+02  0.16327941808E+03  0.12500000000E+03 0.  0.
</event>
<event>
 4    0  0.2239279E-002  0.2148008E+03  0.7546771E-02  0.1137820E+00
         21   -1    0    0  502  501  0.00000000000E+00  0.00000000000E+00  0.22967007890E+04  0.22967007890E+04  0.00000000000E+00 0.  1.
         21   -1    0    0  501  502 -0.00000000000E+00 -0.00000000000E+00 -0.20089417233E+02  0.20089417233E+02  0.00000000000E+00 0.  1.
         25    1    1    2    0    0  0.14853793098E+03 -0.76942931885E+02  0.14095975470E+04  0.14249820968E+04  0.12500000000E+03 0.  0.
         25    1    1    2    0    0 -0.14853793098E+03  0.76942931885E+02  0.86701382485E+03  0.89180810951E+03  0.12500000000E+03 0.  0.
</event>
<event>
 4    0  0.2239279E-002  0.1919054E+03  0.7546771E-02  0.1156754E+00
         21   -1    0    0  502  501  0.00000000000E+00  0.00000000000E+00  0.26010570525E+03  0.26010570525E+03  0.00000000000E+00 0.  1.
         21   -1    0    0  501  502 -0.00000000000E+00 -0.00000000000E+00 -0.14158740153E+03  0.14158740153E+03  0.00000000000E+00 0.  1.
         25    1    1    2    0    0  0.17055819430E+02  0.13196469482E+03  0.12115075614E+03  0.21910747903E+03  0.12500000000E+03 0.  0.
         25    1    1    2    0    0 -0.17055819430E+02 -0.13196469482E+03 -0.26324524118E+01  0.18258562775E+03  0.12500000000E+03 0.  0.
</event>
<event>
 4    0  0.2239279E-002  0.3713558E+03  0.7546771E-02  0.1054176E+00
         21   -1    0    0  502  501  0.00000000000E+00  0.00000000000E+00  0.20917211613E+03  0.20917211613E+03  0.00000000000E+00 0.  1.
         21   -1    0    0  501  502 -0.00000000000E+00 -0.00000000000E+00 -0.65929023978E+03  0.65929023978E+03  0.00000000000E+00 0.  1.
         25    1    1    2    0    0  0.82238610257E+02  0.27682445784E+03  0.55215346288E+01  0.31472282539E+03  0.12500000000E+03 0.  0.
         25    1    1    2    0    0 -0.82238610257E+02 -0.27682445784E+03 -0.45563965827E+03  0.55373953053E+03  0.12500000000E+03 0.  0.
</event>
<event>
 4    0  0.2239279E-002  0.1873329E+03  0.7546771E-02  0.1160889E+00
         21   -1    0    0  502  501  0.00000000000E+00  0.00000000000E+00  0.51276565200E+03  0.51276565200E+03  0.00000000000E+00 0.  1.
         21   -1    0    0  501  502 -0.00000000000E+00 -0.00000000000E+00 -0.68439902388E+02  0.68439902388E+02  0.00000000000E+00 0.  1.
         25    1    1    2    0    0 -0.11522225696E+03 -0.69539628880E+02  0.16502449137E+03  0.24692106277E+03  0.12500000000E+03 0.  0.
         25    1    1    2    0    0  0.11522225696E+03  0.69539628880E+02  0.27930125824E+03  0.33428449162E+03  0.12500000000E+03 0.  0.
</event>
<event>
 4    0  0.2239279E-002  0.2690472E+03  0.7546771E-02  0.1101826E+00
         21   -1    0    0  502  501  0.00000000000E+00  0.00000000000E+00  0.10278337783E+03  0.10278337783E+03  0.00000000000E+00 0.  1.
         21   -1    0    0  501  502 -0.00000000000E+00 -0.00000000000E+00 -0.70426189471E+03  0.70426189471E+03  0.00000000000E+00 0.  1.
         25    1    1    2    0    0  0.20784607678E+03  0.82762689183E+02 -0.42361259166E+03  0.49509825507E+03  0.12500000000E+03 0.  0.
         25    1    1    2    0    0 -0.20784607678E+03 -0.82762689183E+02 -0.17786592521E+03  0.31194701747E+03  0.12500000000E+03 0.  0.
</event>
<event>
 4    0  0.2239279E-002  0.1739383E+03  0.7546771E-02  0.1173802E+00
         21   -1    0    0  502  501  0.00000000000E+00  0.00000000000E+00  0.78571903046E+02  0.78571903046E+02  0.00000000000E+00 0.  1.
         21   -1    0    0  501  502 -0.00000000000E+00 -0.00000000000E+00 -0.38505542169E+03  0.38505542169E+03  0.00000000000E+00 0.  1.
         25    1    1    2    0    0 -0.39301101025E+02 -0.62204805850E+02 -0.25302520951E+02  0.14723869050E+03  0.12500000000E+03 0.  0.
         25    1    1    2    0    0  0.39301101025E+02  0.62204805850E+02 -0.28118099770E+03  0.31638863424E+03  0.12500000000E+03 0.  0.
</event>
<event>
 4    0  0.2239279E-002  0.4434690E+03  0.7546771E-02  0.1029688E+00
         21   -1    0    0  502  501  0.00000000000E+00  0.00000000000E+00  0.54905477243E+03  0.54905477243E+03  0.00000000000E+00 0. -1.
         21   -1    0    0  501  502 -0.00000000000E+00 -0.00000000000E+00 -0.35818782402E+03  0.35818782402E+03  0.00000000000E+00 0.  1.
         25    1    1    2    0    0 -0.30775409005E+03  0.19008329776E+03  0.32460600434E+03  0.50183493112E+03  0.12500000000E+03 0.  0.
         25    1    1    2    0    0  0.30775409005E+03 -0.19008329776E+03 -0.13373905594E+03  0.40540766534E+03  0.12500000000E+03 0.  0.
</event>
<event>
 4    0  0.2239279E-002  0.2904652E+03  0.7546771E-02  0.1090107E+00
         21   -1    0    0  502  501  0.00000000000E+00  0.00000000000E+00  0.36955043371E+03  0.36955043371E+03  0.00000000000E+00 0.  1.
         21   -1    0    0  501  502 -0.00000000000E+00 -0.00000000000E+00 -0.22830447067E+03  0.22830447067E+03  0.00000000000E+00 0.  1.
         25    1    1    2    0    0 -0.10456373886E+03  0.24038508560E+03  0.65330063449E+02  0.29767697602E+03  0.12500000000E+03 0.  0.
         25    1    1    2    0    0  0.10456373886E+03 -0.24038508560E+03  0.75915899595E+02  0.30017792836E+03  0.12500000000E+03 0.  0.
</event>
<event>
 4    0  0.2239279E-002  0.2198910E+03  0.7546771E-02  0.1133964E+00
         21   -1    0    0  502  501  0.00000000000E+00  0.00000000000E+00  0.37265063163E+03  0.37265063163E+03  0.00000000000E+00 0. -1.
         21   -1    0    0  501  502 -0.00000000000E+00 -0.00000000000E+00 -0.12975171092E+03  0.12975171092E+03  0.00000000000E+00 0. -1.
         25    1    1    2    0    0 -0.29735877721E+02 -0.13891313060E+03 -0.65082386562E+01  0.18933683595E+03  0.12500000000E+03 0.  0.
         25    1    1    2    0    0  0.29735877721E+02  0.13891313060E+03  0.24940715936E+03  0.31306550659E+03  0.12500000000E+03 0.  0.
</event>
<event>
 4    0  0.2239279E-002  0.2413676E+03  0.7546771E-02  0.1118885E+00
         21   -1    0    0  502  501  0.00000000000E+00  0.00000000000E+00  0.77439059635E+02  0.77439059635E+02  0.00000000000E+00 0. -1.
         21   -1    0    0  501  502 -0.00000000000E+00 -0.00000000000E+00 -0.75231186886E+03  0.75231186886E+03  0.00000000000E+00 0. -1.
         25    1    1    2    0    0  0.15045839095E+03 -0.13582182290E+03 -0.40506467222E+03  0.46988049934E+03  0.12500000000E+03 0.  0.
         25    1    1    2    0    0 -0.15045839095E+03  0.13582182290E+03 -0.26980813701E+03  0.35987042916E+03  0.12500000000E+03 0.  0.
</event>
<event>
 4    0  0.2239279E-002  0.1803975E+03  0.7546771E-02  0.1167419E+00
         21   -1    0    0  502  501  0.00000000000E+00  0.00000000000E+00  0.18473469368E+03  0.18473469368E+03  0.00000000000E+00 0. -1.
         21   -1    0    0  501  502 -0.00000000000E+00 -0.00000000000E+00 -0.17616209289E+03  0.17616209289E+03  0.00000000000E+00 0. -1.
         25    1    1    2    0    0 -0.12234167416E+03 -0.90344898388E+01 -0.38959488457E+02  0.17942114977E+03  0.12500000000E+03 0.  0.
         25    1    1    2    0    0  0.12234167416E+03  0.90344898388E+01  0.47532089250E+02  0.18147563680E+03  0.12500000000E+03 0.  0.
</event>
<event>
 4    0  0.2239279E-002  0.1962287E+03  0.7546771E-02  0.1152960E+00
         21   -1    0    0  502  501  0.00000000000E+00  0.00000000000E+00  0.37213174221E+02  0.37213174221E+02  0.00000000000E+00 0. -1.
         21   -1    0    0  501  502 -0.00000000000E+00 -0.00000000000E+00 -0.10347334241E+04  0.10347334241E+04  0.00000000000E+00 0. -1.
         25    1    1    2    0    0  0.81860442207E+02 -0.80617711258E+02 -0.76749652013E+03  0.78605105164E+03  0.12500000000E+03 0.  0.
         25    1    1    2    0    0 -0.81860442207E+02  0.80617711258E+02 -0.23002372975E+03  0.28589554669E+03  0.12500000000E+03 0.  0.
</event>
