<event>
 6    0  0.3643696E+002  0.7540579E+02  0.7546771E-02  0.1342619E+00
         21   -1    0    0  505  502  0.00000000000E+00  0.00000000000E+00  0.53455059900E+02  0.53455059900E+02  0.00000000000E+00 0. -1.
          1   -1    0    0  503    0 -0.00000000000E+00 -0.00000000000E+00 -0.62851141372E+03  0.62851141372E+03  0.00000000000E+00 0. -1.
         21    1    1    2  503  504  0.31158722616E+02 -0.64689559869E+01 -0.15599210336E+03  0.15920505550E+03  0.00000000000E+00 0. -1.
         21    1    1    2  504  502 -0.19194954187E+02  0.40520086525E+02 -0.10064986347E+03  0.11018492953E+03  0.00000000000E+00 0. -1.
         21    1    1    2  505  501  0.26719764145E+01  0.72150371610E+02  0.44916436150E+01  0.72339411414E+02  0.00000000000E+00 0. -1.
          1    1    1    2  501    0 -0.14635744843E+02 -0.10620150215E+03 -0.32290603061E+03  0.34023707718E+03  0.00000000000E+00 0. -1.
<scales pt_clust_3="31.82316" pt_clust_4="40.93828" pt_clust_5="14000.00000" pt_clust_6="75.40579"></scales>
<clustering>
<clus scale="   31.823">  2  3  1 -1</clus>
<clus scale="   40.938">  2  4  1 -1</clus>
<clus scale="   75.406">  2  6  1 -1</clus>
<clus scale="   75.406">  1  3  2 -1</clus>
</clustering>
</event>
<event>
 6    0  0.3643696E+002  0.1220005E+03  0.7546771E-02  0.1239833E+00
          2   -1    0    0  504    0 -0.00000000000E+00  0.00000000000E+00  0.27321656134E+04  0.27321656134E+04  0.00000000000E+00 0. -1.
         21   -1    0    0  503  502  0.00000000000E+00 -0.00000000000E+00 -0.44858922520E+03  0.44858922520E+03  0.00000000000E+00 0. -1.
         21    1    1    2  503  501 -0.14036185755E+02 -0.12135287638E+03 -0.43431816290E+03  0.45117158791E+03  0.00000000000E+00 0. -1.
         21    1    1    2  504  505  0.40220637581E+02 -0.40402075549E+01  0.12100510587E+03  0.12757844101E+03  0.00000000000E+00 0. -1.
         21    1    1    2  505  502 -0.37048528425E+01  0.44730518838E+02  0.27767075094E+03  0.28127493877E+03  0.00000000000E+00 0. -1.
          2    1    1    2  501    0 -0.22479598983E+02  0.80662565093E+02  0.23192186943E+04  0.23207298709E+04  0.00000000000E+00 0. -1.
<scales pt_clust_3="122.00050" pt_clust_4="40.42305" pt_clust_5="44.30169" pt_clust_6="14000.00000"></scales>
<clustering>
<clus scale="   40.423">  1  4  2 -1</clus>
<clus scale="   44.302">  1  5  2 -1</clus>
<clus scale="  122.001">  2  3  1 -1</clus>
<clus scale="  122.001">  2  3  1 -1</clus>
</clustering>
</event>
<event>
 6    0  0.3643696E+002  0.2251012E+03  0.7546771E-02  0.1130136E+00
         21   -1    0    0  503  502  0.00000000000E+00  0.00000000000E+00  0.15448254987E+04  0.15448254987E+04  0.00000000000E+00 0. -1.
         -4   -1    0    0    0  501 -0.00000000000E+00 -0.00000000000E+00 -0.22522064484E+03  0.22522064484E+03  0.00000000000E+00 0. -1.
         21    1    1    2  503  505  0.64586634570E+02 -0.70152353108E+02  0.80684337395E+03  0.81245862423E+03  0.00000000000E+00 0. -1.
         21    1    1    2  504  502 -0.13083445008E+03 -0.20583978260E+03  0.20775815628E+03  0.32039213619E+03  0.00000000000E+00 0. -1.
         21    1    1    2  505  501  0.16662014911E+03  0.14270658329E+03  0.39185992359E+03  0.44908979360E+03  0.00000000000E+00 0. -1.
         -4    1    1    2    0  504 -0.10037233360E+03  0.13328555242E+03 -0.86856599977E+02  0.18810558949E+03  0.00000000000E+00 0. -1.
<scales pt_clust_3="95.35610" pt_clust_4="225.10119" pt_clust_5="14000.00000" pt_clust_6="160.31912"></scales>
<clustering>
<clus scale="   95.356">  1  3  2 -1</clus>
<clus scale="  160.319">  2  6  1 -1</clus>
<clus scale="  225.101">  2  4  1 -1</clus>
<clus scale="   95.356">  1  3  2 -1</clus>
</clustering>
</event>
<event>
 6    0  0.3643696E+002  0.9472305E+02  0.7546771E-02  0.1291801E+00
          3   -1    0    0  505    0 -0.00000000000E+00  0.00000000000E+00  0.23930885089E+03  0.23930885089E+03  0.00000000000E+00 0.  1.
         21   -1    0    0  503  502  0.00000000000E+00 -0.00000000000E+00 -0.30024740224E+03  0.30024740224E+03  0.00000000000E+00 0. -1.
         21    1    1    2  503  501  0.51958441021E+02 -0.75618250293E+02 -0.22536024797E+03  0.24332085964E+03  0.00000000000E+00 0. -1.
         21    1    1    2  504  502 -0.15953245006E+02 -0.48230012942E+02  0.65768971176E+02  0.83103536292E+02  0.00000000000E+00 0.  1.
         21    1    1    2  505  504 -0.12289137961E+02 -0.28779476874E+02  0.29622607782E+01  0.31433361098E+02  0.00000000000E+00 0. -1.
          3    1    1    2  501    0 -0.23716058054E+02  0.15262774011E+03  0.95690464662E+02  0.18169849611E+03  0.00000000000E+00 0.  1.
<scales pt_clust_3="94.72305" pt_clust_4="61.25666" pt_clust_5="31.29347" pt_clust_6="14000.00000"></scales>
<clustering>
<clus scale="   31.293">  1  5  2 -1</clus>
<clus scale="   61.257">  1  4  2 -1</clus>
<clus scale="   94.723">  2  3  1 -1</clus>
<clus scale="   94.723">  2  3  1 -1</clus>
</clustering>
</event>
<event>
 6    0  0.3643696E+002  0.1310083E+03  0.7546771E-02  0.1225967E+00
          2   -1    0    0  503    0 -0.00000000000E+00  0.00000000000E+00  0.45768389713E+03  0.45768389713E+03  0.00000000000E+00 0.  1.
         21   -1    0    0  501  502  0.00000000000E+00 -0.00000000000E+00 -0.92939707726E+03  0.92939707726E+03  0.00000000000E+00 0.  1.
         21    1    1    2  503  505  0.16074996950E+02 -0.88801990244E+02  0.54767381988E+02  0.10556355966E+03  0.00000000000E+00 0.  1.
         21    1    1    2  504  502 -0.14158841483E+02  0.31664859155E+02 -0.86167158367E+03  0.86236944183E+03  0.00000000000E+00 0.  1.
         21    1    1    2  505  504  0.23088447837E+02 -0.56172889094E+02 -0.37958910250E+01  0.60851283318E+02  0.00000000000E+00 0.  1.
          2    1    1    2  501    0 -0.25004603304E+02  0.11331002018E+03  0.33898691258E+03  0.35829668958E+03  0.00000000000E+00 0.  1.
<scales pt_clust_3="38.02370" pt_clust_4="34.68625" pt_clust_5="38.02370" pt_clust_6="120.90843"></scales>
<clustering>
<clus scale="   34.686">  2  4  1 -1</clus>
<clus scale="   38.024">  3  5 -1 -1</clus>
<clus scale="  120.908">  1  6  2 -1</clus>
<clus scale="   34.686">  2  3  1 -1</clus>
</clustering>
</event>
<event>
 6    0  0.3643696E+002  0.1104815E+03  0.7546771E-02  0.1259681E+00
          1   -1    0    0  504    0 -0.00000000000E+00  0.00000000000E+00  0.70017147891E+03  0.70017147891E+03  0.00000000000E+00 0. -1.
         21   -1    0    0  503  502  0.00000000000E+00 -0.00000000000E+00 -0.12008762099E+03  0.12008762099E+03  0.00000000000E+00 0.  1.
         21    1    1    2  503  501  0.59436081611E+02  0.99401402895E+02 -0.79133430560E+02  0.14026897920E+03  0.00000000000E+00 0.  1.
         21    1    1    2  504  505 -0.33349192367E+02 -0.35391569939E+02  0.12653737635E+03  0.13555972657E+03  0.00000000000E+00 0. -1.
         21    1    1    2  505  502  0.22013448167E+02 -0.44118672091E+02  0.14239164526E+03  0.15068652816E+03  0.00000000000E+00 0.  1.
          1    1    1    2  501    0 -0.48100337411E+02 -0.19891160865E+02  0.39028826687E+03  0.39374386598E+03  0.00000000000E+00 0. -1.
<scales pt_clust_3="14000.00000" pt_clust_4="48.62851" pt_clust_5="54.89857" pt_clust_6="110.48154"></scales>
<clustering>
<clus scale="   48.629">  1  4  2 -1</clus>
<clus scale="   54.899">  1  5  2 -1</clus>
<clus scale="  110.482">  1  6  2 -1</clus>
<clus scale="  110.482">  2  3  1 -1</clus>
</clustering>
</event>
<event>
 6    0  0.3643696E+002  0.1368319E+03  0.7546771E-02  0.1217657E+00
          2   -1    0    0  504    0 -0.00000000000E+00  0.00000000000E+00  0.92374638896E+03  0.92374638896E+03  0.00000000000E+00 0. -1.
         21   -1    0    0  505  502  0.00000000000E+00 -0.00000000000E+00 -0.79971910404E+03  0.79971910404E+03  0.00000000000E+00 0. -1.
         21    1    1    2  503  502 -0.77944324827E+02 -0.35244969458E+02  0.13267934370E+03  0.15786492292E+03  0.00000000000E+00 0.  1.
         21    1    1    2  504  503  0.25073072404E+02  0.18792140845E+02  0.28186095333E+02  0.42145693581E+02  0.00000000000E+00 0.  1.
         21    1    1    2  505  501 -0.10043408013E+03  0.92596151408E+02 -0.76415372408E+03  0.77626797289E+03  0.00000000000E+00 0. -1.
          2    1    1    2  501    0  0.15330533256E+03 -0.76143322796E+02  0.72731556997E+03  0.74718690361E+03  0.00000000000E+00 0. -1.
<scales pt_clust_3="80.54932" pt_clust_4="31.33374" pt_clust_5="136.83190" pt_clust_6="14000.00000"></scales>
<clustering>
<clus scale="   31.334">  1  4  2 -1</clus>
<clus scale="   80.549">  1  3  2 -1</clus>
<clus scale="  136.832">  2  5  1 -1</clus>
<clus scale="  136.832">  2  3  1 -1</clus>
</clustering>
</event>
<event>
 6    0  0.3643696E+002  0.8571658E+02  0.7546771E-02  0.1313569E+00
         21   -1    0    0  503  502  0.00000000000E+00  0.00000000000E+00  0.12307583676E+04  0.12307583676E+04  0.00000000000E+00 0.  1.
         -2   -1    0    0    0  501 -0.00000000000E+00 -0.00000000000E+00 -0.34056794323E+02  0.34056794323E+02  0.00000000000E+00 0.  1.
         21    1    1    2  503  501 -0.28772823571E+02 -0.22641444177E+02  0.23856329738E+03  0.24135649406E+03  0.00000000000E+00 0.  1.
         21    1    1    2  504  505  0.19474627290E+02  0.75946831228E+02  0.19580006106E+03  0.21091431007E+03  0.00000000000E+00 0.  1.
         21    1    1    2  505  502 -0.41268647159E+02  0.30355109172E+02  0.68756448630E+03  0.68947041758E+03  0.00000000000E+00 0.  1.
         -2    1    1    2    0  504  0.50566843441E+02 -0.83660496224E+02  0.74773728579E+02  0.12307394025E+03  0.00000000000E+00 0.  1.
<scales pt_clust_3="36.61298" pt_clust_4="14000.00000" pt_clust_5="62.98384" pt_clust_6="85.71658"></scales>
<clustering>
<clus scale="   36.613">  1  3  2 -1</clus>
<clus scale="   62.984">  1  5  2 -1</clus>
<clus scale="   85.717">  2  6  1 -1</clus>
<clus scale="   36.613">  1  3  2 -1</clus>
</clustering>
</event>
<event>
 6    0  0.3643696E+002  0.2574177E+03  0.7546771E-02  0.1108705E+00
         21   -1    0    0  505  502  0.00000000000E+00  0.00000000000E+00  0.77728651282E+03  0.77728651282E+03  0.00000000000E+00 0.  1.
          1   -1    0    0  503    0 -0.00000000000E+00 -0.00000000000E+00 -0.18117419142E+03  0.18117419142E+03  0.00000000000E+00 0. -1.
         21    1    1    2  503  504 -0.43558713366E+02 -0.35232499805E+02 -0.79335221294E+02  0.97122437626E+02  0.00000000000E+00 0.  1.
         21    1    1    2  504  502  0.92912213065E+02  0.25320820399E+03  0.51700765512E+03  0.58313290882E+03  0.00000000000E+00 0.  1.
         21    1    1    2  505  501 -0.12651874376E+02 -0.62033795871E+02  0.73047590499E+02  0.96665465566E+02  0.00000000000E+00 0.  1.
          1    1    1    2  501    0 -0.36701625322E+02 -0.15594190831E+03  0.85392297080E+02  0.18153989223E+03  0.00000000000E+00 0. -1.
<scales pt_clust_3="56.02402" pt_clust_4="252.82018" pt_clust_5="30.44767" pt_clust_6="30.44767"></scales>
<clustering>
<clus scale="   30.448">  5  6 -1 -1</clus>
<clus scale="   56.024">  2  3  1 -1</clus>
<clus scale="  252.820">  1  4  2 -1</clus>
<clus scale="  252.820">  1  3  2 -1</clus>
</clustering>
</event>
<event>
 6    0  0.3643696E+002  0.8476213E+02  0.7546771E-02  0.1316056E+00
          2   -1    0    0  505    0 -0.00000000000E+00  0.00000000000E+00  0.31650348282E+04  0.31650348282E+04  0.00000000000E+00 0.  1.
         21   -1    0    0  501  502  0.00000000000E+00 -0.00000000000E+00 -0.47564882729E+03  0.47564882729E+03  0.00000000000E+00 0. -1.
         21    1    1    2  503  504 -0.51870997045E+02 -0.36128427180E+02  0.77632879491E+03  0.77889810720E+03  0.00000000000E+00 0.  1.
         21    1    1    2  504  502 -0.26403545438E+02 -0.46957989883E+02 -0.47023280657E+03  0.47330866504E+03  0.00000000000E+00 0. -1.
         21    1    1    2  505  503 -0.24956505692E+02  0.33079631264E+02  0.77002853364E+03  0.77114267928E+03  0.00000000000E+00 0. -1.
          2    1    1    2  501    0  0.10323104818E+03  0.50006785799E+02  0.16132614790E+04  0.16173342040E+04  0.00000000000E+00 0.  1.
<scales pt_clust_3="84.76213" pt_clust_4="53.86141" pt_clust_5="41.43777" pt_clust_6="14000.00000"></scales>
<clustering>
<clus scale="   41.438">  1  5  2 -1</clus>
<clus scale="   53.861">  2  4  1 -1</clus>
<clus scale="   84.762">  1  3  2 -1</clus>
<clus scale="   53.861">  2  3  1 -1</clus>
</clustering>
</event>
<event>
 6    0  0.3643696E+002  0.1362775E+03  0.7546771E-02  0.1218428E+00
         21   -1    0    0  504  502  0.00000000000E+00  0.00000000000E+00  0.77944262627E+02  0.77944262627E+02  0.00000000000E+00 0. -1.
          2   -1    0    0  503    0 -0.00000000000E+00 -0.00000000000E+00 -0.10228136589E+04  0.10228136589E+04  0.00000000000E+00 0. -1.
         21    1    1    2  503  502 -0.59590980764E+02 -0.36779103039E+02  0.12770696451E+02  0.71182006832E+02  0.00000000000E+00 0. -1.
         21    1    1    2  504  505 -0.16673571916E+02  0.42515548094E+02 -0.61833822459E+02  0.76870029466E+02  0.00000000000E+00 0.  1.
         21    1    1    2  505  501 -0.44404335568E+02 -0.95038488286E+02 -0.10737940736E+03  0.15011461087E+03  0.00000000000E+00 0. -1.
          2    1    1    2  501    0  0.12066888825E+03  0.89302043231E+02 -0.78842686288E+03  0.80259127433E+03  0.00000000000E+00 0. -1.
<scales pt_clust_3="70.46359" pt_clust_4="45.66815" pt_clust_5="136.27745" pt_clust_6="14000.00000"></scales>
<clustering>
<clus scale="   45.668">  1  4  2 -1</clus>
<clus scale="   70.464">  1  3  2 -1</clus>
<clus scale="  136.277">  1  5  2 -1</clus>
<clus scale="   45.668">  1  3  2 -1</clus>
</clustering>
</event>
<event>
 6    0  0.3643696E+002  0.1291425E+03  0.7546771E-02  0.1228734E+00
         21   -1    0    0  503  502  0.00000000000E+00  0.00000000000E+00  0.64317003101E+02  0.64317003101E+02  0.00000000000E+00 0.  1.
          4   -1    0    0  505    0 -0.00000000000E+00 -0.00000000000E+00 -0.67068560756E+03  0.67068560756E+03  0.00000000000E+00 0.  1.
         21    1    1    2  503  501  0.57725909888E+02  0.50910631616E+02 -0.45424269590E+02  0.89373023625E+02  0.00000000000E+00 0.  1.
         21    1    1    2  504  502 -0.57380836575E+02 -0.76720288399E+02 -0.19271685720E+03  0.21521698378E+03  0.00000000000E+00 0.  1.
         21    1    1    2  505  504 -0.46579270600E+02 -0.14919246043E+02 -0.36547778842E+03  0.36873598439E+03  0.00000000000E+00 0.  1.
          4    1    1    2  501    0  0.46234197286E+02  0.40728902827E+02 -0.27496892459E+01  0.61676618869E+02  0.00000000000E+00 0.  1.
<scales pt_clust_3="32.13225" pt_clust_4="124.04850" pt_clust_5="48.91025" pt_clust_6="32.13225"></scales>
<clustering>
<clus scale="   32.132">  3  6 -1 -1</clus>
<clus scale="   48.910">  2  5  1 -1</clus>
<clus scale="  124.049">  2  4  1 -1</clus>
<clus scale="  129.143">  1  3  2 -1</clus>
</clustering>
</event>
<event>
 6    0  0.3643696E+002  0.8813569E+02  0.7546771E-02  0.1307430E+00
         21   -1    0    0  501  502  0.00000000000E+00  0.00000000000E+00  0.53631138394E+03  0.53631138394E+03  0.00000000000E+00 0.  1.
          2   -1    0    0  504    0 -0.00000000000E+00 -0.00000000000E+00 -0.11031529879E+03  0.11031529879E+03  0.00000000000E+00 0.  1.
         21    1    1    2  503  505  0.99351118167E+02 -0.17245093867E+02  0.19097528282E+02  0.10262920408E+03  0.00000000000E+00 0.  1.
         21    1    1    2  504  503 -0.17441037645E+02 -0.47360550596E+02  0.34389145202E+02  0.61072292036E+02  0.00000000000E+00 0.  1.
         21    1    1    2  505  502 -0.14877534639E+02  0.89191010890E+02  0.39721163967E+03  0.40737386287E+03  0.00000000000E+00 0.  1.
          2    1    1    2  501    0 -0.67032545883E+02 -0.24585366428E+02 -0.24702228008E+02  0.75551323738E+02  0.00000000000E+00 0.  1.
<scales pt_clust_3="83.83231" pt_clust_4="50.46991" pt_clust_5="88.13569" pt_clust_6="14000.00000"></scales>
<clustering>
<clus scale="   50.470">  2  4  1 -1</clus>
<clus scale="   88.136">  1  5  2 -1</clus>
<clus scale="   83.832">  1  3  2 -1</clus>
<clus scale="   88.136">  1  3  2 -1</clus>
</clustering>
</event>
<event>
 6    0  0.3643696E+002  0.1179519E+03  0.7546771E-02  0.1246515E+00
         21   -1    0    0  501  502  0.00000000000E+00  0.00000000000E+00  0.29747448909E+04  0.29747448909E+04  0.00000000000E+00 0.  1.
          2   -1    0    0  505    0 -0.00000000000E+00 -0.00000000000E+00 -0.27797567539E+03  0.27797567539E+03  0.00000000000E+00 0. -1.
         21    1    1    2  503  504  0.62947322945E+01  0.17388745534E+03  0.26235741789E+03  0.31481404908E+03  0.00000000000E+00 0.  1.
         21    1    1    2  504  502  0.15755992313E+02 -0.59164261068E+02  0.26603660494E+04  0.26610704947E+04  0.00000000000E+00 0.  1.
         21    1    1    2  505  503 -0.33809120129E+02 -0.42185191520E+02 -0.19132157793E+02  0.57347070102E+02  0.00000000000E+00 0. -1.
          2    1    1    2  501    0  0.11758395521E+02 -0.72538002750E+02 -0.20682209392E+03  0.21948895244E+03  0.00000000000E+00 0. -1.
<scales pt_clust_3="14000.00000" pt_clust_4="61.27345" pt_clust_5="54.06151" pt_clust_6="117.95191"></scales>
<clustering>
<clus scale="   54.062">  2  5  1 -1</clus>
<clus scale="   61.273">  1  4  2 -1</clus>
<clus scale="  117.952">  2  6  1 -1</clus>
<clus scale="   61.273">  1  3  2 -1</clus>
</clustering>
</event>
<event>
 6    0  0.3643696E+002  0.1122686E+03  0.7546771E-02  0.1256425E+00
         -3   -1    0    0    0  501 -0.00000000000E+00  0.00000000000E+00  0.13446338864E+04  0.13446338864E+04  0.00000000000E+00 0.  1.
         21   -1    0    0  505  502  0.00000000000E+00 -0.00000000000E+00 -0.20589663042E+03  0.20589663042E+03  0.00000000000E+00 0. -1.
         21    1    1    2  503  501 -0.38603684314E+02 -0.11775277228E+02  0.34815539947E+03  0.35048692383E+03  0.00000000000E+00 0.  1.
         21    1    1    2  504  502  0.25514861758E+02  0.22987699623E+02  0.32523886857E+02  0.47299531930E+02  0.00000000000E+00 0.  1.
         21    1    1    2  505  503  0.76899270185E+02 -0.73370275185E+02 -0.18076913888E+03  0.20970020650E+03  0.00000000000E+00 0. -1.
         -3    1    1    2    0  504 -0.63810447629E+02  0.62157852790E+02  0.93882710857E+03  0.94304385459E+03  0.00000000000E+00 0.  1.
<scales pt_clust_3="40.17704" pt_clust_4="34.34301" pt_clust_5="14000.00000" pt_clust_6="112.26864"></scales>
<clustering>
<clus scale="   34.343">  2  4  1 -1</clus>
<clus scale="   40.177">  1  3  2 -1</clus>
<clus scale="  112.269">  1  6  2 -1</clus>
<clus scale="   34.343">  2  3  1 -1</clus>
</clustering>
</event>
<event>
 6    0  0.3643696E+002  0.1954903E+03  0.7546771E-02  0.1153601E+00
         21   -1    0    0  504  502  0.00000000000E+00  0.00000000000E+00  0.10679138383E+03  0.10679138383E+03  0.00000000000E+00 0. -1.
          2   -1    0    0  503    0 -0.00000000000E+00 -0.00000000000E+00 -0.17145797658E+04  0.17145797658E+04  0.00000000000E+00 0. -1.
         21    1    1    2  503  505 -0.31362395668E+03  0.34717208575E+02 -0.68568470416E+03  0.75480380517E+03  0.00000000000E+00 0. -1.
         21    1    1    2  504  501  0.16211896734E+03 -0.15917915450E+02 -0.16176016538E+03  0.22956979485E+03  0.00000000000E+00 0.  1.
         21    1    1    2  505  502 -0.11902682589E+02 -0.53016029700E+02  0.41430987484E+01  0.54493472317E+02  0.00000000000E+00 0. -1.
          2    1    1    2  501    0  0.16340767193E+03  0.34216736575E+02 -0.76448661119E+03  0.78250407730E+03  0.00000000000E+00 0. -1.
<scales pt_clust_3="195.49027" pt_clust_4="161.71292" pt_clust_5="54.33575" pt_clust_6="14000.00000"></scales>
<clustering>
<clus scale="   54.336">  1  5  2 -1</clus>
<clus scale="  161.713">  1  4  2 -1</clus>
<clus scale="  195.490">  1  3  2 -1</clus>
<clus scale="   54.336">  1  3  2 -1</clus>
</clustering>
</event>
<event>
 6    0  0.3643696E+002  0.9793826E+02  0.7546771E-02  0.1284692E+00
          3   -1    0    0  504    0 -0.00000000000E+00  0.00000000000E+00  0.30510321918E+04  0.30510321918E+04  0.00000000000E+00 0.  1.
         21   -1    0    0  503  502  0.00000000000E+00 -0.00000000000E+00 -0.25892790737E+02  0.25892790737E+02  0.00000000000E+00 0.  1.
         21    1    1    2  503  501  0.63616923975E+02  0.29973994342E+02  0.56619607800E+03  0.57054671334E+03  0.00000000000E+00 0.  1.
         21    1    1    2  504  505 -0.61098104152E+02  0.11269558883E+03  0.13234390542E+04  0.13296331089E+04  0.00000000000E+00 0.  1.
         21    1    1    2  505  502 -0.17794171169E+02 -0.59947310181E+02  0.32380815237E+02  0.70418958534E+02  0.00000000000E+00 0.  1.
          3    1    1    2  501    0  0.15275351346E+02 -0.82722272989E+02  0.11031234536E+04  0.11063262018E+04  0.00000000000E+00 0.  1.
<scales pt_clust_3="59.02024" pt_clust_4="14000.00000" pt_clust_5="62.53249" pt_clust_6="97.93826"></scales>
<clustering>
<clus scale="   62.532">  2  5  1 -1</clus>
<clus scale="   59.020">  2  3  1 -1</clus>
<clus scale="   97.938">  1  6  2 -1</clus>
<clus scale="   62.532">  2  3  1 -1</clus>
</clustering>
</event>
<event>
 6    0  0.3643696E+002  0.9118913E+02  0.7546771E-02  0.1299997E+00
          2   -1    0    0  505    0 -0.00000000000E+00  0.00000000000E+00  0.17273843946E+04  0.17273843946E+04  0.00000000000E+00 0.  1.
         21   -1    0    0  503  502  0.00000000000E+00 -0.00000000000E+00 -0.11353983327E+03  0.11353983327E+03  0.00000000000E+00 0.  1.
         21    1    1    2  503  501  0.76988955983E+02  0.49884421087E+02 -0.87832593237E+02  0.12700519377E+03  0.00000000000E+00 0.  1.
         21    1    1    2  504  502  0.18140722508E+02 -0.72821119810E+02  0.48754214034E+03  0.49328423846E+03  0.00000000000E+00 0. -1.
         21    1    1    2  505  504 -0.22623198123E+02  0.22032985126E+02  0.11954961005E+03  0.12365019527E+03  0.00000000000E+00 0. -1.
          2    1    1    2  501    0 -0.72506480368E+02  0.90371359720E+00  0.10945854042E+04  0.10969846004E+04  0.00000000000E+00 0.  1.
<scales pt_clust_3="14000.00000" pt_clust_4="67.03969" pt_clust_5="31.57945" pt_clust_6="91.18913"></scales>
<clustering>
<clus scale="   31.579">  1  5  2 -1</clus>
<clus scale="   67.040">  1  4  2 -1</clus>
<clus scale="   91.189">  1  6  2 -1</clus>
<clus scale="   91.189">  2  3  1 -1</clus>
</clustering>
</event>
<event>
 6    0  0.3643696E+002  0.1032820E+03  0.7546771E-02  0.1273542E+00
          2   -1    0    0  504    0 -0.00000000000E+00  0.00000000000E+00  0.10749750153E+04  0.10749750153E+04  0.00000000000E+00 0. -1.
         21   -1    0    0  501  502  0.00000000000E+00 -0.00000000000E+00 -0.44474284642E+02  0.44474284642E+02  0.00000000000E+00 0.  1.
         21    1    1    2  503  502  0.17912562704E+01  0.43559358023E+02 -0.68613404004E+01  0.44132802568E+02  0.00000000000E+00 0.  1.
         21    1    1    2  504  505  0.34430092137E+02  0.58319777263E+02  0.14505355904E+03  0.16008486079E+03  0.00000000000E+00 0.  1.
         21    1    1    2  505  503  0.55805208042E+02 -0.91015748035E+01  0.12942612152E+03  0.14123802901E+03  0.00000000000E+00 0.  1.
          2    1    1    2  501    0 -0.92026556450E+02 -0.92777560482E+02  0.76288239050E+03  0.77399360757E+03  0.00000000000E+00 0. -1.
<scales pt_clust_3="43.59617" pt_clust_4="14000.00000" pt_clust_5="56.53843" pt_clust_6="103.28204"></scales>
<clustering>
<clus scale="   43.596">  2  3  1 -1</clus>
<clus scale="   56.538">  2  5  1 -1</clus>
<clus scale="  103.282">  1  6  2 -1</clus>
<clus scale="   43.596">  2  3  1 -1</clus>
</clustering>
</event>
<event>
 6    0  0.3643696E+002  0.1036389E+03  0.7546771E-02  0.1272825E+00
          1   -1    0    0  503    0 -0.00000000000E+00  0.00000000000E+00  0.14393738147E+04  0.14393738147E+04  0.00000000000E+00 0. -1.
         21   -1    0    0  505  502  0.00000000000E+00 -0.00000000000E+00 -0.79301555169E+03  0.79301555169E+03  0.00000000000E+00 0.  1.
         21    1    1    2  503  504  0.12690146921E+02  0.40101151333E+02  0.49297196297E+02  0.64802436142E+02  0.00000000000E+00 0. -1.
         21    1    1    2  504  502  0.78036387772E+02 -0.21841642039E+02 -0.77163365493E+03  0.77587707310E+03  0.00000000000E+00 0.  1.
         21    1    1    2  505  501 -0.85134315503E+02 -0.96360804161E+02  0.40689296782E+03  0.42672607550E+03  0.00000000000E+00 0. -1.
          1    1    1    2  501    0 -0.55922191900E+01  0.78101294867E+02  0.96180175384E+03  0.96498378166E+03  0.00000000000E+00 0. -1.
<scales pt_clust_3="42.06117" pt_clust_4="81.03759" pt_clust_5="14000.00000" pt_clust_6="103.63893"></scales>
<clustering>
<clus scale="   42.061">  1  3  2 -1</clus>
<clus scale="   81.038">  2  4  1 -1</clus>
<clus scale="  103.639">  1  6  2 -1</clus>
<clus scale="   81.038">  2  3  1 -1</clus>
</clustering>
</event>
<event>
 6    0  0.3643696E+002  0.1034443E+03  0.7546771E-02  0.1273215E+00
         21   -1    0    0  505  502  0.00000000000E+00  0.00000000000E+00  0.96180973003E+03  0.96180973003E+03  0.00000000000E+00 0.  1.
         -1   -1    0    0    0  501 -0.00000000000E+00 -0.00000000000E+00 -0.19852612608E+03  0.19852612608E+03  0.00000000000E+00 0.  1.
         21    1    1    2  503  504  0.86870909827E+02  0.97951475707E+01  0.18623130985E+03  0.20572943557E+03  0.00000000000E+00 0. -1.
         21    1    1    2  504  502  0.95933077349E+01  0.41978537762E+02  0.72233626945E+03  0.72361862562E+03  0.00000000000E+00 0.  1.
         21    1    1    2  505  501 -0.32678094287E+02  0.31717721620E+02  0.68972498596E+01  0.46059133368E+02  0.00000000000E+00 0. -1.
         -1    1    1    2    0  503 -0.63786123274E+02 -0.83491406953E+02 -0.15218122521E+03  0.18492866155E+03  0.00000000000E+00 0.  1.
<scales pt_clust_3="103.44427" pt_clust_4="43.06076" pt_clust_5="48.19105" pt_clust_6="14000.00000"></scales>
<clustering>
<clus scale="   43.061">  1  4  2 -1</clus>
<clus scale="   48.191">  2  5  1 -1</clus>
<clus scale="  103.444">  1  3  2 -1</clus>
<clus scale="   43.061">  1  3  2 -1</clus>
</clustering>
</event>
<event>
 6    0  0.3643696E+002  0.1397514E+03  0.7546771E-02  0.1213664E+00
          2   -1    0    0  505    0 -0.00000000000E+00  0.00000000000E+00  0.14867990611E+04  0.14867990611E+04  0.00000000000E+00 0. -1.
         21   -1    0    0  504  502  0.00000000000E+00 -0.00000000000E+00 -0.16486847769E+03  0.16486847769E+03  0.00000000000E+00 0. -1.
         21    1    1    2  503  502  0.17086468934E+03 -0.75353768757E+02  0.63550979965E+02  0.19726038523E+03  0.00000000000E+00 0. -1.
         21    1    1    2  504  501 -0.23315469192E+02  0.28974824988E+02  0.30239678592E+02  0.47933180033E+02  0.00000000000E+00 0. -1.
         21    1    1    2  505  503 -0.33677684389E+02  0.89781351890E+02  0.12730076478E+04  0.12766140172E+04  0.00000000000E+00 0. -1.
          2    1    1    2  501    0 -0.11387153576E+03 -0.43402408122E+02 -0.44867722964E+02  0.12985995630E+03  0.00000000000E+00 0. -1.
<scales pt_clust_3="139.75136" pt_clust_4="37.19075" pt_clust_5="96.29819" pt_clust_6="14000.00000"></scales>
<clustering>
<clus scale="   37.191">  2  4  1 -1</clus>
<clus scale="   96.298">  1  5  2 -1</clus>
<clus scale="  139.751">  1  3  2 -1</clus>
<clus scale="   37.191">  2  3  1 -1</clus>
</clustering>
</event>
<event>
 6    0  0.3643696E+002  0.1699527E+03  0.7546771E-02  0.1177897E+00
         21   -1    0    0  505  502  0.00000000000E+00  0.00000000000E+00  0.60653882688E+03  0.60653882688E+03  0.00000000000E+00 0. -1.
          1   -1    0    0  503    0 -0.00000000000E+00 -0.00000000000E+00 -0.25886153542E+04  0.25886153542E+04  0.00000000000E+00 0. -1.
         21    1    1    2  503  502  0.52543973252E+02  0.10324110419E+02 -0.47360172555E+02  0.71487357802E+02  0.00000000000E+00 0.  1.
         21    1    1    2  504  501 -0.70879235902E+00 -0.15682716510E+03 -0.71171265000E+03  0.72878677147E+03  0.00000000000E+00 0.  1.
         21    1    1    2  505  504  0.85102349774E+02  0.14777772931E+03  0.57086516534E+03  0.59579166175E+03  0.00000000000E+00 0. -1.
          1    1    1    2  501    0 -0.13693753067E+03 -0.12746746232E+01 -0.17938688701E+04  0.17990883901E+04  0.00000000000E+00 0. -1.
<scales pt_clust_3="53.54864" pt_clust_4="169.95269" pt_clust_5="14000.00000" pt_clust_6="99.79974"></scales>
<clustering>
<clus scale="   53.549">  2  3  1 -1</clus>
<clus scale="   99.800">  2  6  1 -1</clus>
<clus scale="  169.953">  2  4  1 -1</clus>
<clus scale="  169.953">  1  3  2 -1</clus>
</clustering>
</event>
<event>
 6    0  0.3643696E+002  0.8855488E+02  0.7546771E-02  0.1306389E+00
         21   -1    0    0  504  502  0.00000000000E+00  0.00000000000E+00  0.98707478639E+02  0.98707478639E+02  0.00000000000E+00 0.  1.
          2   -1    0    0  505    0 -0.00000000000E+00 -0.00000000000E+00 -0.17197523277E+04  0.17197523277E+04  0.00000000000E+00 0.  1.
         21    1    1    2  503  501 -0.63639480434E+02 -0.45978170345E+02 -0.10744672116E+04  0.10773317801E+04  0.00000000000E+00 0.  1.
         21    1    1    2  504  503  0.47426613043E+01  0.89216388772E+02  0.69678367080E+02  0.11330106663E+03  0.00000000000E+00 0.  1.
         21    1    1    2  505  502 -0.25814499538E+02 -0.16988399077E+02 -0.13799939359E+03  0.14141720801E+03  0.00000000000E+00 0. -1.
          2    1    1    2  501    0  0.84711318667E+02 -0.26249819350E+02 -0.47825661099E+03  0.48640975164E+03  0.00000000000E+00 0.  1.
<scales pt_clust_3="88.55488" pt_clust_4="14000.00000" pt_clust_5="30.90298" pt_clust_6="83.01336"></scales>
<clustering>
<clus scale="   30.903">  2  5  1 -1</clus>
<clus scale="   83.013">  2  6  1 -1</clus>
<clus scale="   88.555">  2  3  1 -1</clus>
<clus scale="   88.555">  1  3  2 -1</clus>
</clustering>
</event>
<event>
 6    0  0.3643696E+002  0.1422137E+03  0.7546771E-02  0.1210381E+00
         21   -1    0    0  501  502  0.00000000000E+00  0.00000000000E+00  0.16927322610E+03  0.16927322610E+03  0.00000000000E+00 0. -1.
          2   -1    0    0  503    0 -0.00000000000E+00 -0.00000000000E+00 -0.15913096746E+04  0.15913096746E+04  0.00000000000E+00 0.  1.
         21    1    1    2  503  505 -0.15973469769E+02  0.60904142926E+02 -0.27796926958E+03  0.28501119485E+03  0.00000000000E+00 0. -1.
         21    1    1    2  504  502  0.49192835816E+02  0.10600030507E+02  0.13799782118E+03  0.14688667194E+03  0.00000000000E+00 0. -1.
         21    1    1    2  505  504  0.93347084849E+02  0.59278701557E+02 -0.88518517862E+03  0.89206526844E+03  0.00000000000E+00 0.  1.
          2    1    1    2  501    0 -0.12656645090E+03 -0.13078287499E+03 -0.39687982145E+03  0.43661976543E+03  0.00000000000E+00 0.  1.
<scales pt_clust_3="63.01809" pt_clust_4="50.32192" pt_clust_5="142.21371" pt_clust_6="14000.00000"></scales>
<clustering>
<clus scale="   50.322">  1  4  2 -1</clus>
<clus scale="   63.018">  2  3  1 -1</clus>
<clus scale="  142.214">  2  5  1 -1</clus>
<clus scale="   50.322">  1  3  2 -1</clus>
</clustering>
</event>
<event>
 6    0  0.3643696E+002  0.1138348E+03  0.7546771E-02  0.1253629E+00
          1   -1    0    0  502    0 -0.00000000000E+00  0.00000000000E+00  0.32650655676E+03  0.32650655676E+03  0.00000000000E+00 0. -1.
         21   -1    0    0  504  502  0.00000000000E+00 -0.00000000000E+00 -0.77753166245E+03  0.77753166245E+03  0.00000000000E+00 0. -1.
         21    1    1    2  503  501  0.39858416658E+02  0.89531769341E+01  0.84095268602E+02  0.93492603755E+02  0.00000000000E+00 0. -1.
         21    1    1    2  504  505 -0.27314169496E+02  0.95788682970E+02 -0.73392799635E+03  0.74065635721E+03  0.00000000000E+00 0. -1.
         21    1    1    2  505  503  0.67818140668E+02 -0.51962810983E+02  0.10729216203E+03  0.13715335199E+03  0.00000000000E+00 0. -1.
          1    1    1    2  501    0 -0.80362387830E+02 -0.52779048921E+02  0.91515460029E+02  0.13273590625E+03  0.00000000000E+00 0. -1.
<scales pt_clust_3="38.65105" pt_clust_4="99.16669" pt_clust_5="38.65105" pt_clust_6="96.14438"></scales>
<clustering>
<clus scale="   38.651">  3  5 -1 -1</clus>
<clus scale="   96.144">  1  6  2 -1</clus>
<clus scale="   99.167">  2  4  1 -1</clus>
<clus scale="   99.167">  2  3  1 -1</clus>
</clustering>
</event>
<event>
 6    0  0.3643696E+002  0.1083193E+03  0.7546771E-02  0.1263714E+00
         21   -1    0    0  501  502  0.00000000000E+00  0.00000000000E+00  0.12521220891E+03  0.12521220891E+03  0.00000000000E+00 0.  1.
          2   -1    0    0  504    0 -0.00000000000E+00 -0.00000000000E+00 -0.37446045832E+03  0.37446045832E+03  0.00000000000E+00 0. -1.
         21    1    1    2  503  502  0.43965290459E+02  0.11571814845E+03  0.22569589876E+02  0.12582934090E+03  0.00000000000E+00 0.  1.
         21    1    1    2  504  505  0.20969940197E+02  0.21489333690E+02 -0.72573032425E+02  0.78539002347E+02  0.00000000000E+00 0.  1.
         21    1    1    2  505  503 -0.35370141763E+02 -0.12045222050E+03 -0.22155700418E+03  0.25465131150E+03  0.00000000000E+00 0. -1.
          2    1    1    2  501    0 -0.29565088894E+02 -0.16755261640E+02  0.22312197321E+02  0.40653012474E+02  0.00000000000E+00 0. -1.
<scales pt_clust_3="108.31933" pt_clust_4="30.02549" pt_clust_5="14000.00000" pt_clust_6="33.09904"></scales>
<clustering>
<clus scale="   30.025">  2  4  1 -1</clus>
<clus scale="   33.099">  1  6  2 -1</clus>
<clus scale="  108.319">  1  3  2 -1</clus>
<clus scale="   33.099">  1  3  2 -1</clus>
</clustering>
</event>
<event>
 6    0  0.3643696E+002  0.1399451E+03  0.7546771E-02  0.1213403E+00
         21   -1    0    0  505  502  0.00000000000E+00  0.00000000000E+00  0.33326271132E+03  0.33326271132E+03  0.00000000000E+00 0. -1.
         -2   -1    0    0    0  501 -0.00000000000E+00 -0.00000000000E+00 -0.56075783458E+03  0.56075783458E+03  0.00000000000E+00 0. -1.
         21    1    1    2  503  504 -0.10240384606E+03 -0.61613918959E+02 -0.98643990686E+02  0.15496276842E+03  0.00000000000E+00 0. -1.
         21    1    1    2  504  501 -0.18644361910E+02 -0.35520687245E+02 -0.37334975447E+03  0.37549882905E+03  0.00000000000E+00 0. -1.
         21    1    1    2  505  503  0.48627052739E+02 -0.37827587383E+02  0.19200668314E+03  0.20164841431E+03  0.00000000000E+00 0. -1.
         -2    1    1    2    0  502  0.72421155233E+02  0.13496219359E+03  0.52491938755E+02  0.16191053412E+03  0.00000000000E+00 0. -1.
<scales pt_clust_3="139.94509" pt_clust_4="40.11647" pt_clust_5="61.79974" pt_clust_6="14000.00000"></scales>
<clustering>
<clus scale="   40.116">  2  4  1 -1</clus>
<clus scale="   61.800">  1  5  2 -1</clus>
<clus scale="  139.945">  2  3  1 -1</clus>
<clus scale="   61.800">  1  3  2 -1</clus>
</clustering>
</event>
<event>
 6    0  0.3643696E+002  0.7212718E+02  0.7546771E-02  0.1353005E+00
          1   -1    0    0  504    0 -0.00000000000E+00  0.00000000000E+00  0.74925459698E+03  0.74925459698E+03  0.00000000000E+00 0. -1.
         21   -1    0    0  501  502  0.00000000000E+00 -0.00000000000E+00 -0.19929197585E+03  0.19929197585E+03  0.00000000000E+00 0. -1.
         21    1    1    2  503  502 -0.33584973002E+01 -0.71157788531E+02 -0.16387571031E+03  0.17868955985E+03  0.00000000000E+00 0. -1.
         21    1    1    2  504  505 -0.60998513840E+02  0.45549825884E+01  0.19162097159E+03  0.20114711857E+03  0.00000000000E+00 0.  1.
         21    1    1    2  505  503  0.15084588547E+02 -0.60141033283E+02  0.57702942460E+02  0.84700166851E+02  0.00000000000E+00 0.  1.
          1    1    1    2  501    0  0.49272422593E+02  0.12674383923E+03  0.46451441738E+03  0.48400972755E+03  0.00000000000E+00 0. -1.
<scales pt_clust_3="72.12718" pt_clust_4="61.16835" pt_clust_5="59.99155" pt_clust_6="14000.00000"></scales>
<clustering>
<clus scale="   61.168">  1  4  2 -1</clus>
<clus scale="   59.992">  1  5  2 -1</clus>
<clus scale="   72.127">  2  3  1 -1</clus>
<clus scale="   72.127">  2  3  1 -1</clus>
</clustering>
</event>
<event>
 6    0  0.3643696E+002  0.9104950E+02  0.7546771E-02  0.1300330E+00
          2   -1    0    0  503    0 -0.00000000000E+00  0.00000000000E+00  0.12714502733E+04  0.12714502733E+04  0.00000000000E+00 0. -1.
         21   -1    0    0  505  502  0.00000000000E+00 -0.00000000000E+00 -0.57800862102E+02  0.57800862102E+02  0.00000000000E+00 0. -1.
         21    1    1    2  503  502  0.88601395571E+02 -0.84603486282E+02  0.48151717313E+03  0.49685686591E+03  0.00000000000E+00 0. -1.
         21    1    1    2  504  501 -0.38858101868E+02  0.58703766433E+02  0.17097566926E+03  0.18490203826E+03  0.00000000000E+00 0. -1.
         21    1    1    2  505  504 -0.30430962087E+02  0.50566875749E+00 -0.37325117734E+02  0.48160809465E+02  0.00000000000E+00 0. -1.
          2    1    1    2  501    0 -0.19312331616E+02  0.25394051092E+02  0.59848168651E+03  0.59933142173E+03  0.00000000000E+00 0. -1.
<scales pt_clust_3="91.04950" pt_clust_4="14000.00000" pt_clust_5="30.43516" pt_clust_6="32.44149"></scales>
<clustering>
<clus scale="   30.435">  2  5  1 -1</clus>
<clus scale="   32.441">  1  6  2 -1</clus>
<clus scale="   91.050">  1  3  2 -1</clus>
<clus scale="   30.435">  2  3  1 -1</clus>
</clustering>
</event>
<event>
 6    0  0.3643696E+002  0.1138604E+03  0.7546771E-02  0.1253584E+00
         21   -1    0    0  501  502  0.00000000000E+00  0.00000000000E+00  0.37290628642E+03  0.37290628642E+03  0.00000000000E+00 0. -1.
          2   -1    0    0  504    0 -0.00000000000E+00 -0.00000000000E+00 -0.14650412464E+04  0.14650412464E+04  0.00000000000E+00 0.  1.
         21    1    1    2  503  502  0.60753293827E+02  0.13479534868E+02  0.34622018198E+03  0.35176849629E+03  0.00000000000E+00 0. -1.
         21    1    1    2  504  505  0.51360029785E+02  0.15735249520E+01 -0.17493178948E+03  0.18232240568E+03  0.00000000000E+00 0. -1.
         21    1    1    2  505  503 -0.95485198550E+02  0.96131106138E+02 -0.25122251154E+03  0.28543188857E+03  0.00000000000E+00 0. -1.
          2    1    1    2  501    0 -0.16628125062E+02 -0.11118416596E+03 -0.10122008410E+04  0.10184247423E+04  0.00000000000E+00 0.  1.
<scales pt_clust_3="62.33957" pt_clust_4="51.38413" pt_clust_5="113.86037" pt_clust_6="14000.00000"></scales>
<clustering>
<clus scale="   51.384">  2  4  1 -1</clus>
<clus scale="   62.340">  1  3  2 -1</clus>
<clus scale="  113.860">  1  5  2 -1</clus>
<clus scale="   62.340">  1  3  2 -1</clus>
</clustering>
</event>
<event>
 6    0  0.3643696E+002  0.8627583E+02  0.7546771E-02  0.1312129E+00
          2   -1    0    0  504    0 -0.00000000000E+00  0.00000000000E+00  0.73508499269E+02  0.73508499269E+02  0.00000000000E+00 0. -1.
         21   -1    0    0  503  502  0.00000000000E+00 -0.00000000000E+00 -0.51814569148E+03  0.51814569148E+03  0.00000000000E+00 0. -1.
         21    1    1    2  503  501 -0.86191254674E+01 -0.81364666763E+02 -0.29727757622E+03  0.30833172987E+03  0.00000000000E+00 0. -1.
         21    1    1    2  504  505 -0.27613031060E+02  0.14994728958E+02  0.51273404464E+00  0.31425853640E+02  0.00000000000E+00 0. -1.
         21    1    1    2  505  502  0.55926451970E+02 -0.33264798405E+02  0.83058903872E+01  0.65599562941E+02  0.00000000000E+00 0.  1.
          2    1    1    2  501    0 -0.19694295443E+02  0.99634736210E+02 -0.15617824042E+03  0.18629704430E+03  0.00000000000E+00 0. -1.
<scales pt_clust_3="86.27583" pt_clust_4="31.42167" pt_clust_5="44.91440" pt_clust_6="14000.00000"></scales>
<clustering>
<clus scale="   31.422">  1  4  2 -1</clus>
<clus scale="   44.914">  1  5  2 -1</clus>
<clus scale="   86.276">  2  3  1 -1</clus>
<clus scale="   86.276">  2  3  1 -1</clus>
</clustering>
</event>
<event>
 6    0  0.3643696E+002  0.2393375E+03  0.7546771E-02  0.1120235E+00
         21   -1    0    0  504  502  0.00000000000E+00  0.00000000000E+00  0.25408148947E+03  0.25408148947E+03  0.00000000000E+00 0. -1.
          2   -1    0    0  505    0 -0.00000000000E+00 -0.00000000000E+00 -0.12874258581E+04  0.12874258581E+04  0.00000000000E+00 0. -1.
         21    1    1    2  503  502 -0.53369771266E+02 -0.26031474280E+02  0.18338523357E+03  0.19275921256E+03  0.00000000000E+00 0. -1.
         21    1    1    2  504  501 -0.52493243122E+02 -0.90672168544E+00 -0.44310256942E+02  0.68700521017E+02  0.00000000000E+00 0. -1.
         21    1    1    2  505  503  0.29460226945E+03 -0.62057283157E+02 -0.61211785523E+03  0.68215091604E+03  0.00000000000E+00 0. -1.
          2    1    1    2  501    0 -0.18873925506E+03  0.88995479122E+02 -0.56030149000E+03  0.59789669793E+03  0.00000000000E+00 0. -1.
<scales pt_clust_3="97.90585" pt_clust_4="52.50107" pt_clust_5="239.33752" pt_clust_6="14000.00000"></scales>
<clustering>
<clus scale="   52.501">  1  4  2 -1</clus>
<clus scale="   97.906">  1  3  2 -1</clus>
<clus scale="  239.338">  1  5  2 -1</clus>
<clus scale="   52.501">  1  3  2 -1</clus>
</clustering>
</event>
<event>
 6    0  0.3643696E+002  0.1776250E+03  0.7546771E-02  0.1170122E+00
         21   -1    0    0  504  502  0.00000000000E+00  0.00000000000E+00  0.22373562735E+03  0.22373562735E+03  0.00000000000E+00 0.  1.
          1   -1    0    0  505    0 -0.00000000000E+00 -0.00000000000E+00 -0.79383160965E+03  0.79383160965E+03  0.00000000000E+00 0.  1.
         21    1    1    2  503  502 -0.16512474409E+03 -0.90976946536E+02  0.15649360941E+03  0.24501680697E+03  0.00000000000E+00 0.  1.
         21    1    1    2  504  501  0.36711648782E+02 -0.23412271189E+02 -0.27770980685E+03  0.28110250162E+03  0.00000000000E+00 0.  1.
         21    1    1    2  505  503  0.70284574557E+02  0.11100520869E+03 -0.22924463373E+03  0.26422562303E+03  0.00000000000E+00 0.  1.
          1    1    1    2  501    0  0.58128520747E+02  0.33840090392E+01 -0.21963515114E+03  0.22722230537E+03  0.00000000000E+00 0.  1.
<scales pt_clust_3="14000.00000" pt_clust_4="35.08706" pt_clust_5="177.62500" pt_clust_6="105.08141"></scales>
<clustering>
<clus scale="   35.087">  4  6 -1 -1</clus>
<clus scale="  105.081">  2  4  1 -1</clus>
<clus scale="  177.625">  2  5  1 -1</clus>
<clus scale="  177.625">  1  3  2 -1</clus>
</clustering>
</event>
<event>
 6    0  0.3643696E+002  0.7600072E+02  0.7546771E-02  0.1340800E+00
         21   -1    0    0  505  502  0.00000000000E+00  0.00000000000E+00  0.90082717875E+03  0.90082717875E+03  0.00000000000E+00 0. -1.
         -2   -1    0    0    0  501 -0.00000000000E+00 -0.00000000000E+00 -0.54938697724E+03  0.54938697724E+03  0.00000000000E+00 0.  1.
         21    1    1    2  503  501  0.32583107689E+02  0.28732872350E+02 -0.27601873128E+03  0.27941649356E+03  0.00000000000E+00 0. -1.
         21    1    1    2  504  503  0.43539655848E+02 -0.49892549472E+02 -0.94567266122E+01  0.66890939614E+02  0.00000000000E+00 0.  1.
         21    1    1    2  505  504  0.36172502999E+02  0.45964356427E+02  0.85519106288E+03  0.85718896753E+03  0.00000000000E+00 0. -1.
         -2    1    1    2    0  502 -0.11229526654E+03 -0.24804679306E+02 -0.21827540348E+03  0.24671775528E+03  0.00000000000E+00 0.  1.
<scales pt_clust_3="43.44234" pt_clust_4="14000.00000" pt_clust_5="58.64791" pt_clust_6="76.00072"></scales>
<clustering>
<clus scale="   43.442">  2  3  1 -1</clus>
<clus scale="   58.648">  1  5  2 -1</clus>
<clus scale="   76.001">  2  6  1 -1</clus>
<clus scale="   58.648">  1  3  2 -1</clus>
</clustering>
</event>
<event>
 6    0  0.3643696E+002  0.8652028E+02  0.7546771E-02  0.1311504E+00
         21   -1    0    0  503  502  0.00000000000E+00  0.00000000000E+00  0.66333174971E+03  0.66333174971E+03  0.00000000000E+00 0. -1.
         -4   -1    0    0    0  501 -0.00000000000E+00 -0.00000000000E+00 -0.11685842830E+04  0.11685842830E+04  0.00000000000E+00 0.  1.
         21    1    1    2  503  505  0.59311662068E+01  0.44173865464E+02 -0.82203982836E+02  0.93509378763E+02  0.00000000000E+00 0. -1.
         21    1    1    2  504  502  0.37693417022E+02 -0.77881622660E+02  0.65097291829E+03  0.65669786141E+03  0.00000000000E+00 0. -1.
         21    1    1    2  505  501 -0.44504490788E+01 -0.42464434813E+02 -0.31922788748E+03  0.32207061161E+03  0.00000000000E+00 0.  1.
         -4    1    1    2    0  504 -0.39174134150E+02  0.76172192009E+02 -0.75479358125E+03  0.75963818092E+03  0.00000000000E+00 0.  1.
<scales pt_clust_3="40.14840" pt_clust_4="14000.00000" pt_clust_5="42.69701" pt_clust_6="86.52028"></scales>
<clustering>
<clus scale="   42.697">  2  5  1 -1</clus>
<clus scale="   40.148">  2  3  1 -1</clus>
<clus scale="   86.520">  2  6  1 -1</clus>
<clus scale="   86.520">  1  3  2 -1</clus>
</clustering>
</event>
<event>
 6    0  0.3643696E+002  0.2521504E+03  0.7546771E-02  0.1111953E+00
         21   -1    0    0  501  502  0.00000000000E+00  0.00000000000E+00  0.14308923679E+03  0.14308923679E+03  0.00000000000E+00 0. -1.
          2   -1    0    0  503    0 -0.00000000000E+00 -0.00000000000E+00 -0.17123903648E+04  0.17123903648E+04  0.00000000000E+00 0. -1.
         21    1    1    2  503  505  0.27638159276E+03 -0.77060338388E+02 -0.76603898228E+03  0.81801027068E+03  0.00000000000E+00 0. -1.
         21    1    1    2  504  502  0.36804404143E+02 -0.65489636571E+02  0.54608499384E+02  0.92873811527E+02  0.00000000000E+00 0. -1.
         21    1    1    2  505  504 -0.91319310040E+02  0.86760488793E+02 -0.12747813971E+03  0.17921293175E+03  0.00000000000E+00 0.  1.
          2    1    1    2  501    0 -0.22186668686E+03  0.55789486167E+02 -0.73039250541E+03  0.76538258764E+03  0.00000000000E+00 0. -1.
<scales pt_clust_3="252.15045" pt_clust_4="75.12294" pt_clust_5="99.52727" pt_clust_6="14000.00000"></scales>
<clustering>
<clus scale="   75.123">  1  4  2 -1</clus>
<clus scale="   99.527">  1  5  2 -1</clus>
<clus scale="  252.150">  1  3  2 -1</clus>
<clus scale="   75.123">  1  3  2 -1</clus>
</clustering>
</event>
<event>
 6    0  0.3643696E+002  0.1367561E+03  0.7546771E-02  0.1217762E+00
          2   -1    0    0  505    0 -0.00000000000E+00  0.00000000000E+00  0.98898469642E+03  0.98898469642E+03  0.00000000000E+00 0. -1.
         21   -1    0    0  504  502  0.00000000000E+00 -0.00000000000E+00 -0.13711021408E+04  0.13711021408E+04  0.00000000000E+00 0.  1.
         21    1    1    2  503  501 -0.92380824505E+02 -0.84959641725E+01  0.48289894475E+03  0.49172938592E+03  0.00000000000E+00 0. -1.
         21    1    1    2  504  503  0.13258984474E+03  0.34785383626E+02 -0.13557641450E+04  0.13626762296E+04  0.00000000000E+00 0.  1.
         21    1    1    2  505  502 -0.17895258070E+02 -0.47617819155E+02  0.87188675516E+02  0.10094336086E+03  0.00000000000E+00 0. -1.
          2    1    1    2  501    0 -0.22313762167E+02  0.21328399702E+02  0.40355908039E+03  0.40473786082E+03  0.00000000000E+00 0. -1.
<scales pt_clust_3="14000.00000" pt_clust_4="136.75612" pt_clust_5="49.13341" pt_clust_6="30.86753"></scales>
<clustering>
<clus scale="   30.868">  1  6  2 -1</clus>
<clus scale="   49.133">  1  5  2 -1</clus>
<clus scale="  136.756">  2  4  1 -1</clus>
<clus scale="  136.756">  2  3  1 -1</clus>
</clustering>
</event>
<event>
 6    0  0.3643696E+002  0.9211250E+02  0.7546771E-02  0.1297815E+00
         21   -1    0    0  504  502  0.00000000000E+00  0.00000000000E+00  0.13602168845E+03  0.13602168845E+03  0.00000000000E+00 0.  1.
          2   -1    0    0  503    0 -0.00000000000E+00 -0.00000000000E+00 -0.26386522701E+03  0.26386522701E+03  0.00000000000E+00 0.  1.
         21    1    1    2  503  505  0.21203405949E+02 -0.48272216206E+02 -0.31995235729E+02  0.61672411908E+02  0.00000000000E+00 0. -1.
         21    1    1    2  504  501 -0.63376131098E+02  0.28006337287E+02 -0.51388578802E+01  0.69478750575E+02  0.00000000000E+00 0.  1.
         21    1    1    2  505  502  0.34718272423E+02  0.82753133416E+02  0.58277605974E+02  0.10700335924E+03  0.00000000000E+00 0.  1.
          2    1    1    2  501    0  0.74544527246E+01 -0.62487254497E+02 -0.14898705093E+03  0.16173239374E+03  0.00000000000E+00 0.  1.
<scales pt_clust_3="52.72373" pt_clust_4="62.89849" pt_clust_5="14000.00000" pt_clust_6="92.11250"></scales>
<clustering>
<clus scale="   52.724">  2  3  1 -1</clus>
<clus scale="   62.898">  1  4  2 -1</clus>
<clus scale="   92.113">  2  6  1 -1</clus>
<clus scale="   62.898">  1  3  2 -1</clus>
</clustering>
</event>
<event>
 6    0  0.3643696E+002  0.1552987E+03  0.7546771E-02  0.1194109E+00
          2   -1    0    0  504    0 -0.00000000000E+00  0.00000000000E+00  0.63033252519E+03  0.63033252519E+03  0.00000000000E+00 0.  1.
         21   -1    0    0  501  502  0.00000000000E+00 -0.00000000000E+00 -0.10324457623E+03  0.10324457623E+03  0.00000000000E+00 0.  1.
         21    1    1    2  503  505 -0.33878795048E+02 -0.19826028708E+02  0.38302322120E+02  0.54844434978E+02  0.00000000000E+00 0.  1.
         21    1    1    2  504  503 -0.21446695048E+02 -0.23260972350E+02  0.20428820035E+03  0.20672373440E+03  0.00000000000E+00 0. -1.
         21    1    1    2  505  502 -0.85252134352E+02  0.13040479178E+03  0.16013060735E+02  0.15661977604E+03  0.00000000000E+00 0.  1.
          2    1    1    2  501    0  0.14057762445E+03 -0.87317790725E+02  0.26848436575E+03  0.31538915600E+03  0.00000000000E+00 0.  1.
<scales pt_clust_3="42.58288" pt_clust_4="31.63911" pt_clust_5="14000.00000" pt_clust_6="155.29866"></scales>
<clustering>
<clus scale="   31.639">  1  4  2 -1</clus>
<clus scale="   42.583">  1  3  2 -1</clus>
<clus scale="  155.299">  1  6  2 -1</clus>
<clus scale="  155.299">  2  3  1 -1</clus>
</clustering>
</event>
<event>
 6    0  0.3643696E+002  0.1222019E+03  0.7546771E-02  0.1239508E+00
          1   -1    0    0  504    0 -0.00000000000E+00  0.00000000000E+00  0.23124509265E+04  0.23124509265E+04  0.00000000000E+00 0. -1.
         21   -1    0    0  505  502  0.00000000000E+00 -0.00000000000E+00 -0.39421610802E+02  0.39421610802E+02  0.00000000000E+00 0. -1.
         21    1    1    2  503  502 -0.39741967387E+02  0.45473838104E+02  0.15781928895E+01  0.60413447316E+02  0.00000000000E+00 0. -1.
         21    1    1    2  504  503 -0.10901601960E+03  0.27584230907E+02  0.70018539746E+03  0.70915793244E+03  0.00000000000E+00 0. -1.
         21    1    1    2  505  501  0.38081083558E+02 -0.27016461200E+01  0.14237386804E+03  0.14740348068E+03  0.00000000000E+00 0. -1.
          1    1    1    2  501    0  0.11067690343E+03 -0.70356422892E+02  0.14288918573E+04  0.14348976769E+04  0.00000000000E+00 0. -1.
<scales pt_clust_3="44.32606" pt_clust_4="122.20191" pt_clust_5="38.17680" pt_clust_6="14000.00000"></scales>
<clustering>
<clus scale="   38.177">  2  5  1 -1</clus>
<clus scale="   44.326">  2  3  1 -1</clus>
<clus scale="  122.202">  2  4  1 -1</clus>
<clus scale="   38.177">  2  3  1 -1</clus>
</clustering>
</event>
<event>
 6    0  0.3643696E+002  0.2001633E+03  0.7546771E-02  0.1149601E+00
         21   -1    0    0  503  502  0.00000000000E+00  0.00000000000E+00  0.18121025730E+03  0.18121025730E+03  0.00000000000E+00 0.  1.
          2   -1    0    0  504    0 -0.00000000000E+00 -0.00000000000E+00 -0.10270324191E+04  0.10270324191E+04  0.00000000000E+00 0. -1.
         21    1    1    2  503  505 -0.11014316749E+03 -0.15586683659E+03  0.95873162304E+02  0.21358289104E+03  0.00000000000E+00 0.  1.
         21    1    1    2  504  502 -0.79756977992E+02  0.31329723613E+02 -0.22086317459E+03  0.23690350147E+03  0.00000000000E+00 0. -1.
         21    1    1    2  505  501  0.12822576800E+03  0.53766833846E+02 -0.45946444994E+03  0.48004197812E+03  0.00000000000E+00 0. -1.
          2    1    1    2  501    0  0.61674377477E+02  0.70770279131E+02 -0.26136769956E+03  0.27771430575E+03  0.00000000000E+00 0. -1.
<scales pt_clust_3="192.46114" pt_clust_4="85.68971" pt_clust_5="45.18467" pt_clust_6="45.18467"></scales>
<clustering>
<clus scale="   45.185">  5  6 -1 -1</clus>
<clus scale="   85.690">  2  4  1 -1</clus>
<clus scale="  192.461">  1  3  2 -1</clus>
<clus scale="  192.461">  1  3  2 -1</clus>
</clustering>
</event>
<event>
 6    0  0.3643696E+002  0.2132110E+03  0.7546771E-02  0.1139048E+00
          1   -1    0    0  503    0 -0.00000000000E+00  0.00000000000E+00  0.26740068756E+04  0.26740068756E+04  0.00000000000E+00 0. -1.
         21   -1    0    0  504  502  0.00000000000E+00 -0.00000000000E+00 -0.29404102232E+03  0.29404102232E+03  0.00000000000E+00 0. -1.
         21    1    1    2  503  505  0.26330604399E+02  0.29783410530E+02  0.33528195964E+03  0.33763048549E+03  0.00000000000E+00 0.  1.
         21    1    1    2  504  501  0.11869588012E+03  0.12391331076E+03  0.43111955583E+03  0.46401216791E+03  0.00000000000E+00 0.  1.
         21    1    1    2  505  502  0.12340668325E+02  0.53601308384E+02 -0.26461901823E+03  0.27027507685E+03  0.00000000000E+00 0. -1.
          1    1    1    2  501    0 -0.15736715284E+03 -0.20729802968E+03  0.18781833560E+04  0.18961301676E+04  0.00000000000E+00 0. -1.
<scales pt_clust_3="39.75364" pt_clust_4="213.21103" pt_clust_5="55.04583" pt_clust_6="14000.00000"></scales>
<clustering>
<clus scale="   39.754">  1  3  2 -1</clus>
<clus scale="   55.046">  2  5  1 -1</clus>
<clus scale="  213.211">  2  4  1 -1</clus>
<clus scale="   55.046">  2  3  1 -1</clus>
</clustering>
</event>
<event>
 6    0  0.3643696E+002  0.1009841E+03  0.7546771E-02  0.1278240E+00
          2   -1    0    0  505    0 -0.00000000000E+00  0.00000000000E+00  0.14915381174E+04  0.14915381174E+04  0.00000000000E+00 0. -1.
         21   -1    0    0  501  502  0.00000000000E+00 -0.00000000000E+00 -0.24390935046E+02  0.24390935046E+02  0.00000000000E+00 0.  1.
         21    1    1    2  503  502 -0.77697519460E+02  0.15617942203E+00  0.15378791870E+03  0.17230105299E+03  0.00000000000E+00 0.  1.
         21    1    1    2  504  503  0.93585029723E+01  0.99296649251E+02  0.24400831201E+03  0.26360474666E+03  0.00000000000E+00 0.  1.
         21    1    1    2  505  504  0.53023069363E+02 -0.56220806120E+01  0.28639845377E+03  0.29131963201E+03  0.00000000000E+00 0.  1.
          2    1    1    2  501    0  0.15315947124E+02 -0.93830748061E+02  0.78295249787E+03  0.78870362079E+03  0.00000000000E+00 0. -1.
<scales pt_clust_3="70.51191" pt_clust_4="14000.00000" pt_clust_5="53.32029" pt_clust_6="100.98413"></scales>
<clustering>
<clus scale="   53.320">  1  5  2 -1</clus>
<clus scale="   70.512">  2  3  1 -1</clus>
<clus scale="  100.984">  1  6  2 -1</clus>
<clus scale="   70.512">  2  3  1 -1</clus>
</clustering>
</event>
<event>
 6    0  0.3643696E+002  0.2326205E+03  0.7546771E-02  0.1124809E+00
          2   -1    0    0  504    0 -0.00000000000E+00  0.00000000000E+00  0.13255628965E+04  0.13255628965E+04  0.00000000000E+00 0. -1.
         21   -1    0    0  505  502  0.00000000000E+00 -0.00000000000E+00 -0.34774340154E+03  0.34774340154E+03  0.00000000000E+00 0.  1.
         21    1    1    2  503  501  0.77790419060E+02 -0.64277832858E+02  0.30212174435E+03  0.31852870751E+03  0.00000000000E+00 0. -1.
         21    1    1    2  504  502 -0.16096889382E+03  0.15618372090E+03  0.66240567158E+03  0.69934656158E+03  0.00000000000E+00 0. -1.
         21    1    1    2  505  503 -0.38641435678E+02 -0.25648899687E+02 -0.30486160378E+03  0.30836929819E+03  0.00000000000E+00 0.  1.
          2    1    1    2  501    0  0.12181991043E+03 -0.66256988356E+02  0.31815368281E+03  0.34706173078E+03  0.00000000000E+00 0. -1.
<scales pt_clust_3="31.75131" pt_clust_4="229.62337" pt_clust_5="46.37916" pt_clust_6="31.75131"></scales>
<clustering>
<clus scale="   31.751">  3  6 -1 -1</clus>
<clus scale="   46.379">  2  5  1 -1</clus>
<clus scale="  229.623">  1  4  2 -1</clus>
<clus scale="   46.379">  2  3  1 -1</clus>
</clustering>
</event>
<event>
 6    0  0.3643696E+002  0.1627705E+03  0.7546771E-02  0.1185604E+00
         21   -1    0    0  501  502  0.00000000000E+00  0.00000000000E+00  0.42628424172E+03  0.42628424172E+03  0.00000000000E+00 0.  1.
          2   -1    0    0  505    0 -0.00000000000E+00 -0.00000000000E+00 -0.69322649449E+03  0.69322649449E+03  0.00000000000E+00 0. -1.
         21    1    1    2  503  504 -0.88653940050E+01  0.79504562440E+02 -0.91658286336E+02  0.12165858833E+03  0.00000000000E+00 0. -1.
         21    1    1    2  504  502 -0.12587015108E+03 -0.10816008064E+03  0.38166275212E+03  0.41618307790E+03  0.00000000000E+00 0.  1.
         21    1    1    2  505  503  0.10317086421E+02  0.41127243971E+02 -0.15754119618E+03  0.16314754353E+03  0.00000000000E+00 0. -1.
          2    1    1    2  501    0  0.12441845867E+03 -0.12471725772E+02 -0.39940552238E+03  0.41852152645E+03  0.00000000000E+00 0. -1.
<scales pt_clust_3="87.99949" pt_clust_4="14000.00000" pt_clust_5="42.40156" pt_clust_6="162.77049"></scales>
<clustering>
<clus scale="   42.402">  2  5  1 -1</clus>
<clus scale="   87.999">  2  3  1 -1</clus>
<clus scale="  162.770">  2  6  1 -1</clus>
<clus scale="  162.770">  1  3  2 -1</clus>
</clustering>
</event>
<event>
 6    0  0.3643696E+002  0.3032080E+03  0.7546771E-02  0.1083648E+00
          2   -1    0    0  504    0 -0.00000000000E+00  0.00000000000E+00  0.12341419843E+04  0.12341419843E+04  0.00000000000E+00 0.  1.
         21   -1    0    0  503  502  0.00000000000E+00 -0.00000000000E+00 -0.38434941826E+03  0.38434941826E+03  0.00000000000E+00 0.  1.
         21    1    1    2  503  501 -0.28804750392E+02  0.69837372043E+02  0.20852239481E+03  0.22178494384E+03  0.00000000000E+00 0.  1.
         21    1    1    2  504  505 -0.44091569978E+02 -0.56540533410E+01  0.35271684277E+03  0.35550697045E+03  0.00000000000E+00 0.  1.
         21    1    1    2  505  502  0.52111751072E+02 -0.29198660988E+03 -0.29260612640E+03  0.41664152476E+03  0.00000000000E+00 0.  1.
          2    1    1    2  501    0  0.20784569298E+02  0.22780329118E+03  0.58115945491E+03  0.62455796354E+03  0.00000000000E+00 0.  1.
<scales pt_clust_3="36.54765" pt_clust_4="44.45261" pt_clust_5="296.46327" pt_clust_6="36.54765"></scales>
<clustering>
<clus scale="   36.548">  3  6 -1 -1</clus>
<clus scale="   44.453">  1  4  2 -1</clus>
<clus scale="  296.463">  2  5  1 -1</clus>
<clus scale="  296.463">  2  3  1 -1</clus>
</clustering>
</event>
<event>
 6    0  0.3643696E+002  0.8059397E+02  0.7546771E-02  0.1327374E+00
         21   -1    0    0  505  502  0.00000000000E+00  0.00000000000E+00  0.93592004841E+02  0.93592004841E+02  0.00000000000E+00 0. -1.
          1   -1    0    0  503    0 -0.00000000000E+00 -0.00000000000E+00 -0.18448451371E+04  0.18448451371E+04  0.00000000000E+00 0.  1.
         21    1    1    2  503  504 -0.20671021365E+02 -0.25189616436E+02 -0.71930281896E+02  0.78966913034E+02  0.00000000000E+00 0.  1.
         21    1    1    2  504  502  0.68258521606E+02 -0.42152529118E+02  0.68373672701E+02  0.10540882601E+03  0.00000000000E+00 0. -1.
         21    1    1    2  505  501 -0.68301524039E+02  0.93574733124E+02 -0.13451295167E+04  0.13501091606E+04  0.00000000000E+00 0.  1.
          1    1    1    2  501    0  0.20714023798E+02 -0.26232587569E+02 -0.40256700646E+03  0.40395224238E+03  0.00000000000E+00 0.  1.
<scales pt_clust_3="32.58539" pt_clust_4="80.59397" pt_clust_5="14000.00000" pt_clust_6="35.75470"></scales>
<clustering>
<clus scale="   32.585">  2  3  1 -1</clus>
<clus scale="   35.755">  2  6  1 -1</clus>
<clus scale="   80.594">  1  4  2 -1</clus>
<clus scale="   80.594">  1  3  2 -1</clus>
</clustering>
</event>
<event>
 6    0  0.3643696E+002  0.1641256E+03  0.7546771E-02  0.1184116E+00
         -2   -1    0    0    0  501 -0.00000000000E+00  0.00000000000E+00  0.73551521132E+03  0.73551521132E+03  0.00000000000E+00 0. -1.
         21   -1    0    0  504  502  0.00000000000E+00 -0.00000000000E+00 -0.14023768670E+03  0.14023768670E+03  0.00000000000E+00 0. -1.
         21    1    1    2  503  505 -0.12612086194E+03  0.73605777562E+02  0.17875042967E+03  0.23081594055E+03  0.00000000000E+00 0. -1.
         21    1    1    2  504  503  0.14678961613E+03 -0.85542750586E+02 -0.45210696138E+02  0.17580887528E+03  0.00000000000E+00 0. -1.
         21    1    1    2  505  501  0.19768296461E+02  0.32139676252E+02  0.21300269016E+03  0.21631895513E+03  0.00000000000E+00 0. -1.
         -2    1    1    2    0  502 -0.40437050659E+02 -0.20202703227E+02  0.24873510093E+03  0.25280912705E+03  0.00000000000E+00 0. -1.
<scales pt_clust_3="14000.00000" pt_clust_4="164.12563" pt_clust_5="37.73254" pt_clust_6="31.27884"></scales>
<clustering>
<clus scale="   37.733">  1  5  2 -1</clus>
<clus scale="   31.279">  1  6  2 -1</clus>
<clus scale="  164.126">  2  4  1 -1</clus>
<clus scale="  164.126">  2  3  1 -1</clus>
</clustering>
</event>
<event>
 6    0  0.3643696E+002  0.1786278E+03  0.7546771E-02  0.1169138E+00
         -2   -1    0    0    0  501 -0.00000000000E+00  0.00000000000E+00  0.17006893897E+03  0.17006893897E+03  0.00000000000E+00 0. -1.
         21   -1    0    0  504  502  0.00000000000E+00 -0.00000000000E+00 -0.30876049293E+04  0.30876049293E+04  0.00000000000E+00 0. -1.
         21    1    1    2  503  501  0.34038774774E+02  0.23182334235E+02 -0.22851737442E+02  0.47098415183E+02  0.00000000000E+00 0.  1.
         21    1    1    2  504  503  0.37142629310E+02 -0.10518786984E+03 -0.28120096360E+04  0.28142214297E+04  0.00000000000E+00 0. -1.
         21    1    1    2  505  502 -0.37048645322E+02 -0.77315310628E+02 -0.18503582499E+03  0.20393262591E+03  0.00000000000E+00 0.  1.
         -2    1    1    2    0  505 -0.34132758761E+02  0.15932084623E+03  0.10236120808E+03  0.19242139742E+03  0.00000000000E+00 0. -1.
<scales pt_clust_3="41.18323" pt_clust_4="14000.00000" pt_clust_5="83.61227" pt_clust_6="178.62776"></scales>
<clustering>
<clus scale="   41.183">  1  3  2 -1</clus>
<clus scale="   83.612">  2  5  1 -1</clus>
<clus scale="  178.628">  1  6  2 -1</clus>
<clus scale="   83.612">  2  3  1 -1</clus>
</clustering>
</event>
<event>
 6    0  0.3643696E+002  0.8291061E+02  0.7546771E-02  0.1320989E+00
         21   -1    0    0  505  502  0.00000000000E+00  0.00000000000E+00  0.51052567085E+03  0.51052567085E+03  0.00000000000E+00 0.  1.
          2   -1    0    0  503    0 -0.00000000000E+00 -0.00000000000E+00 -0.36878728781E+04  0.36878728781E+04  0.00000000000E+00 0. -1.
         21    1    1    2  503  504  0.21119360458E+02  0.83100090443E+02 -0.47333175791E+03  0.48103493165E+03  0.00000000000E+00 0. -1.
         21    1    1    2  504  502 -0.81332841253E+02  0.16937409958E+02  0.50169291868E+03  0.50852501568E+03  0.00000000000E+00 0.  1.
         21    1    1    2  505  501  0.37689280087E+02 -0.47306634316E+02 -0.74137010636E+03  0.74383333758E+03  0.00000000000E+00 0.  1.
          2    1    1    2  501    0  0.22524200707E+02 -0.52730866085E+02 -0.24643382617E+04  0.24650052641E+04  0.00000000000E+00 0. -1.
<scales pt_clust_3="69.31299" pt_clust_4="82.91061" pt_clust_5="14000.00000" pt_clust_6="57.34007"></scales>
<clustering>
<clus scale="   57.340">  2  6  1 -1</clus>
<clus scale="   69.313">  2  3  1 -1</clus>
<clus scale="   82.911">  1  4  2 -1</clus>
<clus scale="   82.911">  1  3  2 -1</clus>
</clustering>
</event>
<event>
 6    0  0.3643696E+002  0.1333224E+03  0.7546771E-02  0.1222608E+00
         -4   -1    0    0    0  501 -0.00000000000E+00  0.00000000000E+00  0.76558603186E+03  0.76558603186E+03  0.00000000000E+00 0.  1.
         21   -1    0    0  504  502  0.00000000000E+00 -0.00000000000E+00 -0.31358554401E+03  0.31358554401E+03  0.00000000000E+00 0.  1.
         21    1    1    2  503  502  0.11999372421E+03  0.14781133433E+03  0.36758927972E+03  0.41396686217E+03  0.00000000000E+00 0.  1.
         21    1    1    2  504  505 -0.31713601812E+01 -0.13248408689E+03 -0.25530353528E+03  0.28764906732E+03  0.00000000000E+00 0.  1.
         21    1    1    2  505  501 -0.33184067130E+02 -0.39814225444E+02  0.40122289981E+02  0.65545045673E+02  0.00000000000E+00 0. -1.
         -4    1    1    2    0  503 -0.83638296903E+02  0.24486978000E+02  0.29959245343E+03  0.31201060070E+03  0.00000000000E+00 0.  1.
<scales pt_clust_3="133.32240" pt_clust_4="14000.00000" pt_clust_5="51.83006" pt_clust_6="98.15541"></scales>
<clustering>
<clus scale="   51.830">  1  5  2 -1</clus>
<clus scale="   98.155">  1  6  2 -1</clus>
<clus scale="  133.322">  1  3  2 -1</clus>
<clus scale="  133.322">  2  3  1 -1</clus>
</clustering>
</event>
<event>
 6    0  0.3643696E+002  0.1848641E+03  0.7546771E-02  0.1163177E+00
          2   -1    0    0  503    0 -0.00000000000E+00  0.00000000000E+00  0.21596611630E+03  0.21596611630E+03  0.00000000000E+00 0.  1.
         21   -1    0    0  504  502  0.00000000000E+00 -0.00000000000E+00 -0.76740241830E+03  0.76740241830E+03  0.00000000000E+00 0. -1.
         21    1    1    2  503  505 -0.10437736881E+03 -0.87158736355E+02 -0.33989985764E+02  0.14016632825E+03  0.00000000000E+00 0.  1.
         21    1    1    2  504  501  0.77728211301E+02 -0.73607713879E+01  0.18895840429E+02  0.80329997965E+02  0.00000000000E+00 0. -1.
         21    1    1    2  505  502 -0.12433398437E+03 -0.57641071017E+02 -0.53105211461E+03  0.54845034521E+03  0.00000000000E+00 0. -1.
          2    1    1    2  501    0  0.15098314188E+03  0.15216057876E+03 -0.52900420659E+01  0.21442186317E+03  0.00000000000E+00 0.  1.
<scales pt_clust_3="135.98265" pt_clust_4="69.90832" pt_clust_5="144.07312" pt_clust_6="69.90832"></scales>
<clustering>
<clus scale="   69.908">  4  6 -1 -1</clus>
<clus scale="  135.983">  1  3  2 -1</clus>
<clus scale="  144.073">  2  5  1 -1</clus>
<clus scale="  144.073">  2  3  1 -1</clus>
</clustering>
</event>
<event>
 6    0  0.3643696E+002  0.1671995E+03  0.7546771E-02  0.1180800E+00
         21   -1    0    0  504  502  0.00000000000E+00  0.00000000000E+00  0.12534448106E+04  0.12534448106E+04  0.00000000000E+00 0. -1.
         -4   -1    0    0    0  501 -0.00000000000E+00 -0.00000000000E+00 -0.32274244089E+02  0.32274244089E+02  0.00000000000E+00 0. -1.
         21    1    1    2  503  505 -0.33775824893E+02  0.33491741486E+02  0.90454992626E+02  0.10219886881E+03  0.00000000000E+00 0. -1.
         21    1    1    2  504  501  0.16517898234E+03 -0.57299076110E+01  0.44284397549E+03  0.47268140927E+03  0.00000000000E+00 0. -1.
         21    1    1    2  505  502 -0.10028856284E+03  0.34946904395E+02  0.47592385876E+03  0.48762957385E+03  0.00000000000E+00 0. -1.
         -4    1    1    2    0  503 -0.31114594609E+02 -0.62708738270E+02  0.21194773965E+03  0.22320920275E+03  0.00000000000E+00 0. -1.
<scales pt_clust_3="44.67105" pt_clust_4="153.29774" pt_clust_5="44.67105" pt_clust_6="70.00360"></scales>
<clustering>
<clus scale="   44.671">  3  5 -1 -1</clus>
<clus scale="   70.004">  2  6  1 -1</clus>
<clus scale="  153.298">  2  4  1 -1</clus>
<clus scale="  167.200">  1  3  2 -1</clus>
</clustering>
</event>
<event>
 6    0  0.3643696E+002  0.1009105E+03  0.7546771E-02  0.1278393E+00
          2   -1    0    0  505    0 -0.00000000000E+00  0.00000000000E+00  0.34872273777E+04  0.34872273777E+04  0.00000000000E+00 0.  1.
         21   -1    0    0  504  502  0.00000000000E+00 -0.00000000000E+00 -0.17569122800E+03  0.17569122800E+03  0.00000000000E+00 0. -1.
         21    1    1    2  503  501 -0.84267203117E+02 -0.35442460554E+02  0.13098426235E+03  0.15973104431E+03  0.00000000000E+00 0.  1.
         21    1    1    2  504  503  0.42074507140E+02 -0.74133262648E+02 -0.14121934010E+03  0.16495122552E+03  0.00000000000E+00 0. -1.
         21    1    1    2  505  502  0.79421935481E+02 -0.40025659185E+02  0.25318751560E+04  0.25334367375E+04  0.00000000000E+00 0.  1.
          2    1    1    2  501    0 -0.37229239504E+02  0.14960138239E+03  0.78989607143E+03  0.80479959838E+03  0.00000000000E+00 0.  1.
<scales pt_clust_3="100.91054" pt_clust_4="85.24086" pt_clust_5="91.40225" pt_clust_6="14000.00000"></scales>
<clustering>
<clus scale="   85.241">  2  4  1 -1</clus>
<clus scale="   91.402">  1  5  2 -1</clus>
<clus scale="  100.911">  2  3  1 -1</clus>
<clus scale="   85.241">  2  3  1 -1</clus>
</clustering>
</event>
<event>
 6    0  0.3643696E+002  0.8921919E+02  0.7546771E-02  0.1304754E+00
          1   -1    0    0  505    0 -0.00000000000E+00  0.00000000000E+00  0.11078256723E+04  0.11078256723E+04  0.00000000000E+00 0.  1.
         21   -1    0    0  504  502  0.00000000000E+00 -0.00000000000E+00 -0.63144779236E+02  0.63144779236E+02  0.00000000000E+00 0.  1.
         21    1    1    2  503  502  0.83155151563E+02  0.31202865639E+02 -0.16502594687E+02  0.90336779259E+02  0.00000000000E+00 0.  1.
         21    1    1    2  504  501 -0.77341654664E+02 -0.65850165421E+02  0.61065512524E+03  0.61904576391E+03  0.00000000000E+00 0.  1.
         21    1    1    2  505  503  0.31312224262E+02 -0.17537757972E+02  0.18460457077E+03  0.18806083030E+03  0.00000000000E+00 0.  1.
          1    1    1    2  501    0 -0.37125721160E+02  0.52185057753E+02  0.26592379177E+03  0.27352707810E+03  0.00000000000E+00 0.  1.
<scales pt_clust_3="89.21919" pt_clust_4="14000.00000" pt_clust_5="35.88911" pt_clust_6="54.73252"></scales>
<clustering>
<clus scale="   35.889">  1  5  2 -1</clus>
<clus scale="   54.733">  1  6  2 -1</clus>
<clus scale="   89.219">  2  3  1 -1</clus>
<clus scale="   89.219">  2  3  1 -1</clus>
</clustering>
</event>
<event>
 6    0  0.3643696E+002  0.7800461E+02  0.7546771E-02  0.1334811E+00
          2   -1    0    0  505    0 -0.00000000000E+00  0.00000000000E+00  0.51100187043E+03  0.51100187043E+03  0.00000000000E+00 0. -1.
         21   -1    0    0  503  502  0.00000000000E+00 -0.00000000000E+00 -0.11912137508E+03  0.11912137508E+03  0.00000000000E+00 0.  1.
         21    1    1    2  503  501  0.82539231078E+02  0.67136123231E+02  0.12324569022E+03  0.16281733282E+03  0.00000000000E+00 0. -1.
         21    1    1    2  504  502 -0.40975390020E+02 -0.53061079855E+01 -0.83735105878E+02  0.93374007763E+02  0.00000000000E+00 0.  1.
         21    1    1    2  505  504 -0.46760571839E+02  0.10265099876E+02  0.91945345825E+02  0.10366228809E+03  0.00000000000E+00 0. -1.
          2    1    1    2  501    0  0.51967307812E+01 -0.72095115121E+02  0.26042456517E+03  0.27026961683E+03  0.00000000000E+00 0. -1.
<scales pt_clust_3="14000.00000" pt_clust_4="41.31752" pt_clust_5="55.39145" pt_clust_6="78.00461"></scales>
<clustering>
<clus scale="   41.318">  2  4  1 -1</clus>
<clus scale="   55.391">  1  5  2 -1</clus>
<clus scale="   78.005">  1  6  2 -1</clus>
<clus scale="   41.318">  2  3  1 -1</clus>
</clustering>
</event>
<event>
 6    0  0.3643696E+002  0.1767102E+03  0.7546771E-02  0.1171025E+00
         21   -1    0    0  501  502  0.00000000000E+00  0.00000000000E+00  0.13218573174E+03  0.13218573174E+03  0.00000000000E+00 0.  1.
          2   -1    0    0  503    0 -0.00000000000E+00 -0.00000000000E+00 -0.92182115809E+03  0.92182115809E+03  0.00000000000E+00 0. -1.
         21    1    1    2  503  504  0.36237817904E+02 -0.78587471697E+01 -0.81999291249E+02  0.89993461534E+02  0.00000000000E+00 0.  1.
         21    1    1    2  504  505  0.69847936669E+02  0.13865893753E+03 -0.12970779702E+03  0.20230953468E+03  0.00000000000E+00 0.  1.
         21    1    1    2  505  502 -0.32511830825E+00  0.31267729992E+02  0.74703535807E+02  0.80983917557E+02  0.00000000000E+00 0.  1.
          2    1    1    2  501    0 -0.10576063627E+03 -0.16206792036E+03 -0.65263187388E+03  0.68071997605E+03  0.00000000000E+00 0. -1.
<scales pt_clust_3="36.63807" pt_clust_4="176.71021" pt_clust_5="31.26942" pt_clust_6="14000.00000"></scales>
<clustering>
<clus scale="   31.269">  1  5  2 -1</clus>
<clus scale="   36.638">  2  3  1 -1</clus>
<clus scale="  176.710">  1  4  2 -1</clus>
<clus scale="   31.269">  1  3  2 -1</clus>
</clustering>
</event>
<event>
 6    0  0.3643696E+002  0.9253150E+02  0.7546771E-02  0.1296835E+00
         21   -1    0    0  504  502  0.00000000000E+00  0.00000000000E+00  0.45849912154E+02  0.45849912154E+02  0.00000000000E+00 0. -1.
          2   -1    0    0  505    0 -0.00000000000E+00 -0.00000000000E+00 -0.92957694637E+03  0.92957694637E+03  0.00000000000E+00 0.  1.
         21    1    1    2  503  502 -0.24965095292E+02 -0.23212570553E+02 -0.48041278583E+02  0.58907078204E+02  0.00000000000E+00 0.  1.
         21    1    1    2  504  501 -0.68047737546E+02  0.31917596191E+01 -0.53593353852E+01  0.68333040254E+02  0.00000000000E+00 0. -1.
         21    1    1    2  505  503 -0.12214650285E+02 -0.46539747874E+02 -0.20316023847E+03  0.20878033506E+03  0.00000000000E+00 0.  1.
          2    1    1    2  501    0  0.10522748312E+03  0.66560558808E+02 -0.62716618178E+03  0.63940640500E+03  0.00000000000E+00 0.  1.
<scales pt_clust_3="34.08929" pt_clust_4="92.53150" pt_clust_5="50.13368" pt_clust_6="14000.00000"></scales>
<clustering>
<clus scale="   34.089">  1  3  2 -1</clus>
<clus scale="   50.134">  2  5  1 -1</clus>
<clus scale="   92.532">  1  4  2 -1</clus>
<clus scale="   34.089">  1  3  2 -1</clus>
</clustering>
</event>
<event>
 6    0  0.3643696E+002  0.1029146E+03  0.7546771E-02  0.1274284E+00
          1   -1    0    0  505    0 -0.00000000000E+00  0.00000000000E+00  0.60370525556E+03  0.60370525556E+03  0.00000000000E+00 0.  1.
         21   -1    0    0  504  502  0.00000000000E+00 -0.00000000000E+00 -0.16934506525E+03  0.16934506525E+03  0.00000000000E+00 0. -1.
         21    1    1    2  503  502 -0.24512443930E+02  0.99340525236E+02 -0.11957001743E+03  0.15737340604E+03  0.00000000000E+00 0. -1.
         21    1    1    2  504  501  0.17900712239E+02 -0.30351403512E+02  0.23489476975E+02  0.42348538610E+02  0.00000000000E+00 0. -1.
         21    1    1    2  505  503  0.76261708684E+02  0.40057686142E+02  0.17462190390E+03  0.19471331683E+03  0.00000000000E+00 0. -1.
          1    1    1    2  501    0 -0.69649976993E+02 -0.10904680787E+03  0.35581882686E+03  0.37861505933E+03  0.00000000000E+00 0.  1.
<scales pt_clust_3="73.61283" pt_clust_4="35.23696" pt_clust_5="102.91460" pt_clust_6="14000.00000"></scales>
<clustering>
<clus scale="   35.237">  2  4  1 -1</clus>
<clus scale="   73.613">  2  3  1 -1</clus>
<clus scale="  102.915">  1  5  2 -1</clus>
<clus scale="   35.237">  2  3  1 -1</clus>
</clustering>
</event>
<event>
 6    0  0.3643696E+002  0.1784586E+03  0.7546771E-02  0.1169303E+00
         21   -1    0    0  504  502  0.00000000000E+00  0.00000000000E+00  0.15570014100E+03  0.15570014100E+03  0.00000000000E+00 0. -1.
          2   -1    0    0  505    0 -0.00000000000E+00 -0.00000000000E+00 -0.10371190565E+04  0.10371190565E+04  0.00000000000E+00 0.  1.
         21    1    1    2  503  502  0.50878477328E+02  0.56896233444E+02 -0.26403121063E+03  0.27484228390E+03  0.00000000000E+00 0. -1.
         21    1    1    2  504  501 -0.17374993841E+03  0.62584812562E+02  0.72734409446E+02  0.19848474545E+03  0.00000000000E+00 0. -1.
         21    1    1    2  505  503  0.37387749992E+02 -0.22031701689E+02 -0.49250557189E+02  0.65641885349E+02  0.00000000000E+00 0. -1.
          2    1    1    2  501    0  0.85483711088E+02 -0.97449344318E+02 -0.64087155715E+03  0.65385028281E+03  0.00000000000E+00 0.  1.
<scales pt_clust_3="79.53034" pt_clust_4="178.45858" pt_clust_5="43.39631" pt_clust_6="14000.00000"></scales>
<clustering>
<clus scale="   43.396">  2  5  1 -1</clus>
<clus scale="   79.530">  2  3  1 -1</clus>
<clus scale="  178.459">  1  4  2 -1</clus>
<clus scale="  178.459">  1  3  2 -1</clus>
</clustering>
</event>
<event>
 6    0  0.3643696E+002  0.1376751E+03  0.7546771E-02  0.1216492E+00
          2   -1    0    0  505    0 -0.00000000000E+00  0.00000000000E+00  0.20461620562E+03  0.20461620562E+03  0.00000000000E+00 0. -1.
         21   -1    0    0  501  502  0.00000000000E+00 -0.00000000000E+00 -0.15547516244E+03  0.15547516244E+03  0.00000000000E+00 0. -1.
         21    1    1    2  503  502  0.65710484532E+02  0.14250392248E+03  0.16814492420E+02  0.15782256763E+03  0.00000000000E+00 0. -1.
         21    1    1    2  504  503 -0.38429030312E+02  0.22267061162E+01  0.94588960978E+01  0.39638608783E+02  0.00000000000E+00 0. -1.
         21    1    1    2  505  504  0.16298955196E+02 -0.28775408258E+02  0.20149995941E+02  0.38725991237E+02  0.00000000000E+00 0.  1.
          2    1    1    2  501    0 -0.43580409416E+02 -0.11595522033E+03  0.27176587208E+01  0.12390420040E+03  0.00000000000E+00 0. -1.
<scales pt_clust_3="14000.00000" pt_clust_4="36.19004" pt_clust_5="33.07083" pt_clust_6="137.67510"></scales>
<clustering>
<clus scale="   33.071">  1  5  2 -1</clus>
<clus scale="   36.190">  1  4  2 -1</clus>
<clus scale="  137.675">  2  6  1 -1</clus>
<clus scale="  137.675">  2  3  1 -1</clus>
</clustering>
</event>
<event>
 6    0  0.3643696E+002  0.2031229E+03  0.7546771E-02  0.1147131E+00
         21   -1    0    0  503  502  0.00000000000E+00  0.00000000000E+00  0.27077100893E+03  0.27077100893E+03  0.00000000000E+00 0. -1.
          2   -1    0    0  504    0 -0.00000000000E+00 -0.00000000000E+00 -0.29791070625E+04  0.29791070625E+04  0.00000000000E+00 0.  1.
         21    1    1    2  503  501  0.56218590988E+02 -0.65517019473E+02  0.23988582449E+03  0.25494748205E+03  0.00000000000E+00 0. -1.
         21    1    1    2  504  505 -0.35439985204E+02 -0.16811604766E+02 -0.15432341881E+03  0.15923046254E+03  0.00000000000E+00 0.  1.
         21    1    1    2  505  502 -0.26285847723E+02  0.25604194575E+03 -0.97097764250E+03  0.10045128202E+04  0.00000000000E+00 0. -1.
          2    1    1    2  501    0  0.55072419391E+01 -0.17371332151E+03 -0.18229208168E+04  0.18311873066E+04  0.00000000000E+00 0.  1.
<scales pt_clust_3="86.30334" pt_clust_4="39.22528" pt_clust_5="203.12289" pt_clust_6="14000.00000"></scales>
<clustering>
<clus scale="   39.225">  2  4  1 -1</clus>
<clus scale="   86.303">  1  3  2 -1</clus>
<clus scale="  203.123">  1  5  2 -1</clus>
<clus scale="   86.303">  1  3  2 -1</clus>
</clustering>
</event>
<event>
 6    0  0.3643696E+002  0.1831908E+03  0.7546771E-02  0.1164750E+00
          2   -1    0    0  503    0 -0.00000000000E+00  0.00000000000E+00  0.94145462873E+03  0.94145462873E+03  0.00000000000E+00 0.  1.
         21   -1    0    0  505  502  0.00000000000E+00 -0.00000000000E+00 -0.12830204483E+03  0.12830204483E+03  0.00000000000E+00 0.  1.
         21    1    1    2  503  504 -0.15798595343E+02  0.11245849994E+03  0.45306901760E+03  0.46708462245E+03  0.00000000000E+00 0.  1.
         21    1    1    2  504  502  0.18023832196E+03  0.52796430829E+02  0.21391815394E+03  0.28466522864E+03  0.00000000000E+00 0.  1.
         21    1    1    2  505  501 -0.81313765167E+02  0.13065718512E+02  0.66071813489E+02  0.10558468612E+03  0.00000000000E+00 0.  1.
          2    1    1    2  501    0 -0.83125961455E+02 -0.17832064928E+03  0.80093598871E+02  0.21242213634E+03  0.00000000000E+00 0.  1.
<scales pt_clust_3="115.24054" pt_clust_4="183.19079" pt_clust_5="82.35679" pt_clust_6="14000.00000"></scales>
<clustering>
<clus scale="   82.357">  2  5  1 -1</clus>
<clus scale="  115.241">  1  3  2 -1</clus>
<clus scale="  183.191">  1  4  2 -1</clus>
<clus scale="   82.357">  2  3  1 -1</clus>
</clustering>
</event>
<event>
 6    0  0.3643696E+002  0.2165194E+03  0.7546771E-02  0.1136505E+00
         21   -1    0    0  503  502  0.00000000000E+00  0.00000000000E+00  0.10260310606E+03  0.10260310606E+03  0.00000000000E+00 0.  1.
          1   -1    0    0  505    0 -0.00000000000E+00 -0.00000000000E+00 -0.12728951149E+04  0.12728951149E+04  0.00000000000E+00 0.  1.
         21    1    1    2  503  504 -0.24324692471E+03  0.49655213929E+02 -0.98751536380E+02  0.26718265772E+03  0.00000000000E+00 0.  1.
         21    1    1    2  504  501  0.93304668341E+02 -0.24133676337E+02 -0.38901357840E+03  0.40077395081E+03  0.00000000000E+00 0.  1.
         21    1    1    2  505  502  0.42100924368E+02  0.93777550090E+01 -0.55181786126E+02  0.70038986584E+02  0.00000000000E+00 0. -1.
          1    1    1    2  501    0  0.10784133200E+03 -0.34899292600E+02 -0.62734510793E+03  0.63750262585E+03  0.00000000000E+00 0.  1.
<scales pt_clust_3="213.99063" pt_clust_4="30.42451" pt_clust_5="43.13270" pt_clust_6="30.42451"></scales>
<clustering>
<clus scale="   30.425">  4  6 -1 -1</clus>
<clus scale="   43.133">  1  5  2 -1</clus>
<clus scale="  213.991">  1  3  2 -1</clus>
<clus scale="   43.133">  1  3  2 -1</clus>
</clustering>
</event>
<event>
 6    0  0.3643696E+002  0.7065077E+02  0.7546771E-02  0.1357894E+00
          2   -1    0    0  503    0 -0.00000000000E+00  0.00000000000E+00  0.29156671187E+04  0.29156671187E+04  0.00000000000E+00 0. -1.
         21   -1    0    0  501  502  0.00000000000E+00 -0.00000000000E+00 -0.13943638792E+03  0.13943638792E+03  0.00000000000E+00 0.  1.
         21    1    1    2  503  504  0.32395401961E+02 -0.41351301376E+01  0.13910810800E+03  0.14289026238E+03  0.00000000000E+00 0. -1.
         21    1    1    2  504  505  0.10013252489E+01  0.61146678827E+02  0.17788171234E+04  0.17798680505E+04  0.00000000000E+00 0. -1.
         21    1    1    2  505  502 -0.66503991906E+02  0.24167606907E+02 -0.12580407367E+03  0.14433821086E+03  0.00000000000E+00 0.  1.
          2    1    1    2  501    0  0.33107264696E+02 -0.81179155596E+02  0.98410957308E+03  0.98800698283E+03  0.00000000000E+00 0. -1.
<scales pt_clust_3="32.65825" pt_clust_4="62.41668" pt_clust_5="14000.00000" pt_clust_6="70.65077"></scales>
<clustering>
<clus scale="   32.658">  1  3  2 -1</clus>
<clus scale="   62.417">  1  4  2 -1</clus>
<clus scale="   70.651">  1  6  2 -1</clus>
<clus scale="   70.651">  2  3  1 -1</clus>
</clustering>
</event>
<event>
 6    0  0.3643696E+002  0.1436304E+03  0.7546771E-02  0.1208526E+00
         21   -1    0    0  501  502  0.00000000000E+00  0.00000000000E+00  0.17516691832E+03  0.17516691832E+03  0.00000000000E+00 0.  1.
          2   -1    0    0  503    0 -0.00000000000E+00 -0.00000000000E+00 -0.15594994909E+04  0.15594994909E+04  0.00000000000E+00 0. -1.
         21    1    1    2  503  505 -0.31024432021E+02 -0.46062988732E+02 -0.19455747888E+03  0.20232875946E+03  0.00000000000E+00 0.  1.
         21    1    1    2  504  502  0.11063279153E+03  0.23631503617E+02  0.14094803524E+03  0.18073298305E+03  0.00000000000E+00 0.  1.
         21    1    1    2  505  504 -0.22737886767E+02 -0.97047784835E+02 -0.70765848325E+03  0.71464383644E+03  0.00000000000E+00 0. -1.
          2    1    1    2  501    0 -0.56870472741E+02  0.11947926995E+03 -0.62306464567E+03  0.63696083027E+03  0.00000000000E+00 0. -1.
<scales pt_clust_3="43.99574" pt_clust_4="113.12852" pt_clust_5="43.99574" pt_clust_6="130.97966"></scales>
<clustering>
<clus scale="   43.996">  3  5 -1 -1</clus>
<clus scale="  113.129">  1  4  2 -1</clus>
<clus scale="  130.980">  1  6  2 -1</clus>
<clus scale="  113.129">  1  3  2 -1</clus>
</clustering>
</event>
<event>
 6    0  0.3643696E+002  0.1308455E+03  0.7546771E-02  0.1226207E+00
          3   -1    0    0  505    0 -0.00000000000E+00  0.00000000000E+00  0.87058538081E+03  0.87058538081E+03  0.00000000000E+00 0. -1.
         21   -1    0    0  503  502  0.00000000000E+00 -0.00000000000E+00 -0.10911272178E+03  0.10911272178E+03  0.00000000000E+00 0. -1.
         21    1    1    2  503  501 -0.13027556728E+03  0.12209146186E+02 -0.51189229022E+02  0.14050310975E+03  0.00000000000E+00 0. -1.
         21    1    1    2  504  502  0.28407393589E+02  0.25647198894E+02  0.93136408821E+02  0.10069334372E+03  0.00000000000E+00 0.  1.
         21    1    1    2  505  504 -0.27932696370E+02 -0.20798302527E+02  0.12722206174E+03  0.13190245604E+03  0.00000000000E+00 0. -1.
          3    1    1    2  501    0  0.12980087006E+03 -0.17058042552E+02  0.59230341749E+03  0.60659919308E+03  0.00000000000E+00 0. -1.
<scales pt_clust_3="130.84546" pt_clust_4="33.74051" pt_clust_5="34.82535" pt_clust_6="14000.00000"></scales>
<clustering>
<clus scale="   34.825">  1  5  2 -1</clus>
<clus scale="   33.741">  1  4  2 -1</clus>
<clus scale="  130.845">  2  3  1 -1</clus>
<clus scale="  130.845">  2  3  1 -1</clus>
</clustering>
</event>
<event>
 6    0  0.3643696E+002  0.1569961E+03  0.7546771E-02  0.1192131E+00
          2   -1    0    0  505    0 -0.00000000000E+00  0.00000000000E+00  0.11111032215E+04  0.11111032215E+04  0.00000000000E+00 0. -1.
         21   -1    0    0  504  502  0.00000000000E+00 -0.00000000000E+00 -0.28001659553E+03  0.28001659553E+03  0.00000000000E+00 0. -1.
         21    1    1    2  503  501  0.49430679456E+02  0.11822636481E+02  0.20918996995E+03  0.21527566127E+03  0.00000000000E+00 0. -1.
         21    1    1    2  504  503 -0.14411148251E+03 -0.17141689828E+02 -0.24612285273E+03  0.28572436990E+03  0.00000000000E+00 0. -1.
         21    1    1    2  505  502 -0.10499712952E+02  0.38276396491E+02  0.46055147732E+02  0.60798052050E+02  0.00000000000E+00 0.  1.
          2    1    1    2  501    0  0.10518051601E+03 -0.32957343144E+02  0.82196436102E+03  0.82932173383E+03  0.00000000000E+00 0. -1.
<scales pt_clust_3="43.29320" pt_clust_4="145.23979" pt_clust_5="39.69038" pt_clust_6="43.29320"></scales>
<clustering>
<clus scale="   39.690">  1  5  2 -1</clus>
<clus scale="   43.293">  3  6 -1 -1</clus>
<clus scale="  145.240">  2  4  1 -1</clus>
<clus scale="  145.240">  2  3  1 -1</clus>
</clustering>
</event>
<event>
 6    0  0.3643696E+002  0.1046164E+03  0.7546771E-02  0.1270877E+00
          2   -1    0    0  504    0 -0.00000000000E+00  0.00000000000E+00  0.18032888858E+04  0.18032888858E+04  0.00000000000E+00 0.  1.
         21   -1    0    0  501  502  0.00000000000E+00 -0.00000000000E+00 -0.72239420997E+03  0.72239420997E+03  0.00000000000E+00 0.  1.
         21    1    1    2  503  502  0.84546399567E+02 -0.61951239869E+02 -0.70680618197E+03  0.71453553353E+03  0.00000000000E+00 0.  1.
         21    1    1    2  504  505 -0.29896207897E+02 -0.16062644578E+02  0.47170161620E+03  0.47292093052E+03  0.00000000000E+00 0.  1.
         21    1    1    2  505  503 -0.52655617264E+02  0.12632400600E+02  0.61172659044E+02  0.81696302174E+02  0.00000000000E+00 0. -1.
          2    1    1    2  501    0 -0.19945744059E+01  0.65381483846E+02  0.12548265826E+04  0.12565303296E+04  0.00000000000E+00 0.  1.
<scales pt_clust_3="14000.00000" pt_clust_4="33.93806" pt_clust_5="55.52212" pt_clust_6="104.61638"></scales>
<clustering>
<clus scale="   33.938">  1  4  2 -1</clus>
<clus scale="   55.522">  1  5  2 -1</clus>
<clus scale="  104.616">  1  6  2 -1</clus>
<clus scale="  104.616">  2  3  1 -1</clus>
</clustering>
</event>
<event>
 6    0  0.3643696E+002  0.1064602E+03  0.7546771E-02  0.1267269E+00
          2   -1    0    0  503    0 -0.00000000000E+00  0.00000000000E+00  0.34261580864E+03  0.34261580864E+03  0.00000000000E+00 0.  1.
         21   -1    0    0  501  502  0.00000000000E+00 -0.00000000000E+00 -0.44409771061E+03  0.44409771061E+03  0.00000000000E+00 0. -1.
         21    1    1    2  503  504 -0.39604031127E+02  0.16199981518E+02 -0.38611466643E+01  0.42963090395E+02  0.00000000000E+00 0.  1.
         21    1    1    2  504  505  0.52496274326E+02  0.20109249159E+02  0.47671343003E+02  0.73707514295E+02  0.00000000000E+00 0.  1.
         21    1    1    2  505  502 -0.86966248398E+01 -0.10712504014E+03 -0.39556710880E+03  0.40990821299E+03  0.00000000000E+00 0. -1.
          2    1    1    2  501    0 -0.41956183587E+01  0.70815809459E+02  0.25027501050E+03  0.26013470157E+03  0.00000000000E+00 0.  1.
<scales pt_clust_3="42.78924" pt_clust_4="50.65690" pt_clust_5="106.46025" pt_clust_6="14000.00000"></scales>
<clustering>
<clus scale="   42.789">  1  3  2 -1</clus>
<clus scale="   50.657">  1  4  2 -1</clus>
<clus scale="  106.460">  2  5  1 -1</clus>
<clus scale="  106.460">  2  3  1 -1</clus>
</clustering>
</event>
<event>
 6    0  0.3643696E+002  0.9988876E+02  0.7546771E-02  0.1280530E+00
          1   -1    0    0  505    0 -0.00000000000E+00  0.00000000000E+00  0.23630714089E+04  0.23630714089E+04  0.00000000000E+00 0. -1.
         21   -1    0    0  501  502  0.00000000000E+00 -0.00000000000E+00 -0.22157561582E+02  0.22157561582E+02  0.00000000000E+00 0. -1.
         21    1    1    2  503  504 -0.10396908385E+03  0.41955784326E+02  0.42105773853E+03  0.43572867407E+03  0.00000000000E+00 0. -1.
         21    1    1    2  504  502  0.96657714750E+02  0.41064257375E+02  0.26987155010E+03  0.28958529073E+03  0.00000000000E+00 0. -1.
         21    1    1    2  505  503  0.70509389402E+02 -0.52297626048E+02  0.48984129184E+03  0.49764556351E+03  0.00000000000E+00 0. -1.
          1    1    1    2  501    0 -0.63198020306E+02 -0.30722415653E+02  0.11601432668E+04  0.11622694422E+04  0.00000000000E+00 0. -1.
<scales pt_clust_3="99.88876" pt_clust_4="14000.00000" pt_clust_5="78.73288" pt_clust_6="70.26988"></scales>
<clustering>
<clus scale="   70.270">  1  6  2 -1</clus>
<clus scale="   78.733">  1  5  2 -1</clus>
<clus scale="   99.889">  1  3  2 -1</clus>
<clus scale="   99.889">  2  3  1 -1</clus>
</clustering>
</event>
<event>
 6    0  0.3643696E+002  0.7701237E+02  0.7546771E-02  0.1337750E+00
         21   -1    0    0  501  502  0.00000000000E+00  0.00000000000E+00  0.13166278171E+02  0.13166278171E+02  0.00000000000E+00 0. -1.
          2   -1    0    0  504    0 -0.00000000000E+00 -0.00000000000E+00 -0.14861234832E+04  0.14861234832E+04  0.00000000000E+00 0. -1.
         21    1    1    2  503  502 -0.69527481519E+02 -0.33007106822E+02 -0.24002780165E+03  0.25206524027E+03  0.00000000000E+00 0. -1.
         21    1    1    2  504  505 -0.18542655994E+02  0.45080353023E+02 -0.55150880121E+03  0.55365876326E+03  0.00000000000E+00 0. -1.
         21    1    1    2  505  503  0.19865055490E+02 -0.48106386352E+02 -0.26596941158E+03  0.27101397147E+03  0.00000000000E+00 0. -1.
          2    1    1    2  501    0  0.68205082023E+02  0.36033140151E+02 -0.41545119061E+03  0.42255178639E+03  0.00000000000E+00 0. -1.
<scales pt_clust_3="14000.00000" pt_clust_4="48.74493" pt_clust_5="38.02724" pt_clust_6="77.01237"></scales>
<clustering>
<clus scale="   48.745">  2  4  1 -1</clus>
<clus scale="   38.027">  2  5  1 -1</clus>
<clus scale="   77.012">  2  6  1 -1</clus>
<clus scale="   77.012">  1  3  2 -1</clus>
</clustering>
</event>
<event>
 6    0  0.3643696E+002  0.1163448E+03  0.7546771E-02  0.1249252E+00
          1   -1    0    0  503    0 -0.00000000000E+00  0.00000000000E+00  0.20450133256E+04  0.20450133256E+04  0.00000000000E+00 0. -1.
         21   -1    0    0  501  502  0.00000000000E+00 -0.00000000000E+00 -0.11077473342E+03  0.11077473342E+03  0.00000000000E+00 0. -1.
         21    1    1    2  503  505  0.66154211971E+01 -0.10055624699E+03  0.71686407132E+03  0.72391257715E+03  0.00000000000E+00 0.  1.
         21    1    1    2  504  502 -0.75755871117E+02  0.25925051762E+02 -0.73282105794E+02  0.10854182303E+03  0.00000000000E+00 0. -1.
         21    1    1    2  505  504 -0.40666567799E+02  0.13544040782E+03  0.94641642221E+03  0.95692315158E+03  0.00000000000E+00 0. -1.
          1    1    1    2  501    0  0.10980701772E+03 -0.60809212592E+02  0.34424020444E+03  0.36641050726E+03  0.00000000000E+00 0. -1.
<scales pt_clust_3="116.34479" pt_clust_4="80.06910" pt_clust_5="14000.00000" pt_clust_6="81.89986"></scales>
<clustering>
<clus scale="   80.069">  2  4  1 -1</clus>
<clus scale="   81.900">  2  6  1 -1</clus>
<clus scale="  116.345">  1  3  2 -1</clus>
<clus scale="   80.069">  2  3  1 -1</clus>
</clustering>
</event>
<event>
 6    0  0.3643696E+002  0.1522643E+03  0.7546771E-02  0.1197718E+00
         21   -1    0    0  505  502  0.00000000000E+00  0.00000000000E+00  0.71183068055E+02  0.71183068055E+02  0.00000000000E+00 0. -1.
         -2   -1    0    0    0  501 -0.00000000000E+00 -0.00000000000E+00 -0.14374126898E+04  0.14374126898E+04  0.00000000000E+00 0.  1.
         21    1    1    2  503  502  0.36343335637E+02  0.11852836228E+02  0.38529134438E+02  0.54275426966E+02  0.00000000000E+00 0. -1.
         21    1    1    2  504  503 -0.35082422037E+02 -0.57021586077E+02 -0.44325144402E+03  0.44827902052E+03  0.00000000000E+00 0.  1.
         21    1    1    2  505  501  0.82883475639E+02  0.77771580377E+02 -0.14343680126E+03  0.18300875718E+03  0.00000000000E+00 0. -1.
         -2    1    1    2    0  504 -0.84144389239E+02 -0.32602830528E+02 -0.81807051089E+03  0.82303255317E+03  0.00000000000E+00 0.  1.
<scales pt_clust_3="38.22732" pt_clust_4="47.56176" pt_clust_5="141.88708" pt_clust_6="47.56176"></scales>
<clustering>
<clus scale="   38.227">  1  3  2 -1</clus>
<clus scale="   47.562">  4  6 -1 -1</clus>
<clus scale="  141.887">  1  5  2 -1</clus>
<clus scale="   38.227">  1  3  2 -1</clus>
</clustering>
</event>
<event>
 6    0  0.3643696E+002  0.1053712E+03  0.7546771E-02  0.1269390E+00
          1   -1    0    0  505    0 -0.00000000000E+00  0.00000000000E+00  0.23717962326E+04  0.23717962326E+04  0.00000000000E+00 0. -1.
         21   -1    0    0  504  502  0.00000000000E+00 -0.00000000000E+00 -0.11502152479E+03  0.11502152479E+03  0.00000000000E+00 0.  1.
         21    1    1    2  503  501 -0.59138379078E+02  0.17443508295E+02  0.15535334072E+03  0.16714150991E+03  0.00000000000E+00 0. -1.
         21    1    1    2  504  503 -0.31474476671E+02 -0.11100560509E+02 -0.10250172828E+03  0.10779828118E+03  0.00000000000E+00 0.  1.
         21    1    1    2  505  502 -0.15756990953E+02  0.48492393870E+02  0.30889491692E+03  0.31307485483E+03  0.00000000000E+00 0.  1.
          1    1    1    2  501    0  0.10636984670E+03 -0.54835341656E+02  0.18950281784E+04  0.18988031114E+04  0.00000000000E+00 0. -1.
<scales pt_clust_3="105.37116" pt_clust_4="33.37462" pt_clust_5="51.30098" pt_clust_6="14000.00000"></scales>
<clustering>
<clus scale="   33.375">  2  4  1 -1</clus>
<clus scale="   51.301">  2  5  1 -1</clus>
<clus scale="  105.371">  2  3  1 -1</clus>
<clus scale="   33.375">  2  3  1 -1</clus>
</clustering>
</event>
<event>
 6    0  0.3643696E+002  0.1755482E+03  0.7546771E-02  0.1172182E+00
          2   -1    0    0  503    0 -0.00000000000E+00  0.00000000000E+00  0.20889410334E+04  0.20889410334E+04  0.00000000000E+00 0. -1.
         21   -1    0    0  505  502  0.00000000000E+00 -0.00000000000E+00 -0.12296919645E+03  0.12296919645E+03  0.00000000000E+00 0.  1.
         21    1    1    2  503  504 -0.33681937603E+02  0.54719186345E+01  0.18535032590E+04  0.18538173443E+04  0.00000000000E+00 0. -1.
         21    1    1    2  504  502  0.16426686410E+03  0.60299754939E+02  0.31813666298E+02  0.17785323290E+03  0.00000000000E+00 0.  1.
         21    1    1    2  505  501 -0.47824977133E+02 -0.41924778097E+02  0.68137791674E+02  0.93207693408E+02  0.00000000000E+00 0.  1.
          2    1    1    2  501    0 -0.82759949367E+02 -0.23846895476E+02  0.12517119996E+02  0.87031959280E+02  0.00000000000E+00 0. -1.
<scales pt_clust_3="34.12352" pt_clust_4="161.90854" pt_clust_5="59.63068" pt_clust_6="59.63068"></scales>
<clustering>
<clus scale="   34.124">  1  3  2 -1</clus>
<clus scale="   59.631">  5  6 -1 -1</clus>
<clus scale="  161.909">  2  4  1 -1</clus>
<clus scale="  161.909">  2  3  1 -1</clus>
</clustering>
</event>
<event>
 6    0  0.3643696E+002  0.8296188E+02  0.7546771E-02  0.1320850E+00
         21   -1    0    0  501  502  0.00000000000E+00  0.00000000000E+00  0.27490218985E+03  0.27490218985E+03  0.00000000000E+00 0.  1.
          2   -1    0    0  505    0 -0.00000000000E+00 -0.00000000000E+00 -0.14411541790E+03  0.14411541790E+03  0.00000000000E+00 0.  1.
         21    1    1    2  503  504  0.86846599671E+02 -0.51561198204E+02 -0.57195938776E+01  0.10116127119E+03  0.00000000000E+00 0.  1.
         21    1    1    2  504  502 -0.15896550107E+02 -0.40945807519E+02  0.15550412970E+03  0.16158834677E+03  0.00000000000E+00 0.  1.
         21    1    1    2  505  503 -0.15784485047E+02  0.83456469663E+02 -0.43270289153E+02  0.95322873541E+02  0.00000000000E+00 0. -1.
          2    1    1    2  501    0 -0.55165564516E+02  0.90505360601E+01  0.24272525281E+02  0.60945116251E+02  0.00000000000E+00 0.  1.
<scales pt_clust_3="82.96188" pt_clust_4="43.92334" pt_clust_5="14000.00000" pt_clust_6="61.27572"></scales>
<clustering>
<clus scale="   43.923">  1  4  2 -1</clus>
<clus scale="   61.276">  1  6  2 -1</clus>
<clus scale="   82.962">  1  3  2 -1</clus>
<clus scale="   43.923">  1  3  2 -1</clus>
</clustering>
</event>
<event>
 6    0  0.3643696E+002  0.1166923E+03  0.7546771E-02  0.1248656E+00
         21   -1    0    0  505  502  0.00000000000E+00  0.00000000000E+00  0.68368709842E+03  0.68368709842E+03  0.00000000000E+00 0.  1.
          4   -1    0    0  504    0 -0.00000000000E+00 -0.00000000000E+00 -0.23197290284E+03  0.23197290284E+03  0.00000000000E+00 0.  1.
         21    1    1    2  503  502 -0.59263052549E+02 -0.28641047332E+02  0.56956405659E+03  0.57335471878E+03  0.00000000000E+00 0.  1.
         21    1    1    2  504  503 -0.14027762375E+02 -0.29252197627E+02  0.62198964139E+01  0.33032654974E+02  0.00000000000E+00 0.  1.
         21    1    1    2  505  501 -0.58891825590E+02  0.15354158095E+02  0.55438702421E+02  0.82325251401E+02  0.00000000000E+00 0.  1.
          4    1    1    2  501    0  0.13218264051E+03  0.42539086864E+02 -0.17950845984E+03  0.22694737610E+03  0.00000000000E+00 0.  1.
<scales pt_clust_3="14000.00000" pt_clust_4="32.44178" pt_clust_5="61.27277" pt_clust_6="116.69226"></scales>
<clustering>
<clus scale="   32.442">  2  4  1 -1</clus>
<clus scale="   61.273">  1  5  2 -1</clus>
<clus scale="  116.692">  2  6  1 -1</clus>
<clus scale="   61.273">  1  3  2 -1</clus>
</clustering>
</event>
<event>
 6    0  0.3643696E+002  0.1559869E+03  0.7546771E-02  0.1193303E+00
          1   -1    0    0  503    0 -0.00000000000E+00  0.00000000000E+00  0.28659304403E+03  0.28659304403E+03  0.00000000000E+00 0.  1.
         21   -1    0    0  501  502  0.00000000000E+00 -0.00000000000E+00 -0.84591513361E+03  0.84591513361E+03  0.00000000000E+00 0.  1.
         21    1    1    2  503  505 -0.30132308084E+02  0.34980421747E+02  0.70878071560E+02  0.84588929087E+02  0.00000000000E+00 0. -1.
         21    1    1    2  504  502 -0.15048058998E+03 -0.36176332005E+02 -0.75451697670E+03  0.77022659204E+03  0.00000000000E+00 0.  1.
         21    1    1    2  505  504  0.27638110538E+01 -0.47360141025E+02 -0.11370476313E+02  0.48784314498E+02  0.00000000000E+00 0. -1.
          1    1    1    2  501    0  0.17784908701E+03  0.48556051283E+02  0.13568729188E+03  0.22890834202E+03  0.00000000000E+00 0.  1.
<scales pt_clust_3="46.16910" pt_clust_4="14000.00000" pt_clust_5="44.22710" pt_clust_6="155.98693"></scales>
<clustering>
<clus scale="   46.169">  1  3  2 -1</clus>
<clus scale="   44.227">  1  5  2 -1</clus>
<clus scale="  155.987">  1  6  2 -1</clus>
<clus scale="  155.987">  2  3  1 -1</clus>
</clustering>
</event>
<event>
 6    0  0.3643696E+002  0.1212990E+03  0.7546771E-02  0.1240969E+00
          2   -1    0    0  502    0 -0.00000000000E+00  0.00000000000E+00  0.38740832097E+04  0.38740832097E+04  0.00000000000E+00 0.  1.
         21   -1    0    0  503  502  0.00000000000E+00 -0.00000000000E+00 -0.77195118106E+02  0.77195118106E+02  0.00000000000E+00 0.  1.
         21    1    1    2  503  504  0.59882691115E+02  0.17780309638E+02 -0.54693811765E+02  0.83027038676E+02  0.00000000000E+00 0.  1.
         21    1    1    2  504  505  0.94935438464E+01  0.80592272060E+02  0.22087290701E+03  0.23530848421E+03  0.00000000000E+00 0.  1.
         21    1    1    2  505  501 -0.20302324025E+02 -0.37627624732E+02  0.78585825518E+03  0.78702046971E+03  0.00000000000E+00 0.  1.
          2    1    1    2  501    0 -0.49073910936E+02 -0.60744956966E+02  0.28448507411E+04  0.28459223352E+04  0.00000000000E+00 0.  1.
<scales pt_clust_3="62.46660" pt_clust_4="113.92135" pt_clust_5="30.82424" pt_clust_6="30.82424"></scales>
<clustering>
<clus scale="   30.824">  5  6 -1 -1</clus>
<clus scale="   62.467">  2  3  1 -1</clus>
<clus scale="  113.921">  2  4  1 -1</clus>
<clus scale="   62.467">  2  3  1 -1</clus>
</clustering>
</event>
<event>
 6    0  0.3643696E+002  0.1178848E+03  0.7546771E-02  0.1246628E+00
         21   -1    0    0  501  502  0.00000000000E+00  0.00000000000E+00  0.96156935229E+02  0.96156935229E+02  0.00000000000E+00 0.  1.
          2   -1    0    0  504    0 -0.00000000000E+00 -0.00000000000E+00 -0.80687587259E+03  0.80687587259E+03  0.00000000000E+00 0. -1.
         21    1    1    2  503  505 -0.43779661195E+02 -0.30720776882E+02 -0.15336859567E+03  0.16242644799E+03  0.00000000000E+00 0.  1.
         21    1    1    2  504  503  0.11294691165E+02 -0.40023637662E+02 -0.85329516906E+02  0.94924117460E+02  0.00000000000E+00 0. -1.
         21    1    1    2  505  502 -0.47543104676E+02  0.11236893570E+03  0.37962822730E+02  0.12778223829E+03  0.00000000000E+00 0.  1.
          2    1    1    2  501    0  0.80028074706E+02 -0.41624521151E+02 -0.50998364751E+03  0.51790000409E+03  0.00000000000E+00 0. -1.
<scales pt_clust_3="57.16842" pt_clust_4="41.58680" pt_clust_5="14000.00000" pt_clust_6="117.88483"></scales>
<clustering>
<clus scale="   41.587">  2  4  1 -1</clus>
<clus scale="   57.168">  2  3  1 -1</clus>
<clus scale="  117.885">  2  6  1 -1</clus>
<clus scale="  117.885">  1  3  2 -1</clus>
</clustering>
</event>
<event>
 6    0  0.3643696E+002  0.2853939E+03  0.7546771E-02  0.1092779E+00
         -3   -1    0    0    0  501 -0.00000000000E+00  0.00000000000E+00  0.62374068966E+03  0.62374068966E+03  0.00000000000E+00 0. -1.
         21   -1    0    0  503  502  0.00000000000E+00 -0.00000000000E+00 -0.69626872991E+03  0.69626872991E+03  0.00000000000E+00 0. -1.
         21    1    1    2  503  505 -0.27118684864E+03  0.73870621716E+02 -0.59208469926E+03  0.65541091441E+03  0.00000000000E+00 0. -1.
         21    1    1    2  504  502  0.63916376547E+02  0.27111595400E+01  0.33040545824E+02  0.72002300278E+02  0.00000000000E+00 0. -1.
         21    1    1    2  505  501  0.33272162660E+02  0.21188310662E+02  0.34663630690E+03  0.34887348793E+03  0.00000000000E+00 0. -1.
         -3    1    1    2    0  504  0.17399830943E+03 -0.97770091918E+02  0.13987980629E+03  0.24372271697E+03  0.00000000000E+00 0. -1.
<scales pt_clust_3="278.04394" pt_clust_4="36.43358" pt_clust_5="39.44593" pt_clust_6="36.43358"></scales>
<clustering>
<clus scale="   36.434">  4  6 -1 -1</clus>
<clus scale="   39.446">  1  5  2 -1</clus>
<clus scale="  278.044">  2  3  1 -1</clus>
<clus scale="  278.044">  2  3  1 -1</clus>
</clustering>
</event>
<event>
 6    0  0.3643696E+002  0.1000631E+03  0.7546771E-02  0.1280163E+00
         21   -1    0    0  504  502  0.00000000000E+00  0.00000000000E+00  0.32066048059E+03  0.32066048059E+03  0.00000000000E+00 0. -1.
          2   -1    0    0  503    0 -0.00000000000E+00 -0.00000000000E+00 -0.79201294685E+03  0.79201294685E+03  0.00000000000E+00 0. -1.
         21    1    1    2  503  505 -0.58942447731E+02  0.10588140956E+03 -0.38449127130E+03  0.40313598542E+03  0.00000000000E+00 0. -1.
         21    1    1    2  504  501  0.26184619207E+02  0.17541574216E+02 -0.10039103003E+02  0.33077555806E+02  0.00000000000E+00 0. -1.
         21    1    1    2  505  502  0.17444624553E+02 -0.34673037030E+02  0.29313749001E+03  0.29569599671E+03  0.00000000000E+00 0. -1.
          2    1    1    2  501    0  0.15313203971E+02 -0.88749946746E+02 -0.36995958197E+03  0.38076388951E+03  0.00000000000E+00 0. -1.
<scales pt_clust_3="100.06310" pt_clust_4="31.51731" pt_clust_5="46.03315" pt_clust_6="14000.00000"></scales>
<clustering>
<clus scale="   31.517">  1  4  2 -1</clus>
<clus scale="   46.033">  1  5  2 -1</clus>
<clus scale="  100.063">  1  3  2 -1</clus>
<clus scale="   31.517">  1  3  2 -1</clus>
</clustering>
</event>
<event>
 6    0  0.3643696E+002  0.1366248E+03  0.7546771E-02  0.1217944E+00
         -2   -1    0    0    0  501 -0.00000000000E+00  0.00000000000E+00  0.86764748698E+03  0.86764748698E+03  0.00000000000E+00 0.  1.
         21   -1    0    0  505  502  0.00000000000E+00 -0.00000000000E+00 -0.69125347639E+03  0.69125347639E+03  0.00000000000E+00 0.  1.
         21    1    1    2  503  504 -0.36592253411E+02 -0.12896501908E+02  0.11524022057E+03  0.12159613978E+03  0.00000000000E+00 0.  1.
         21    1    1    2  504  502  0.11350423607E+03 -0.65025239978E+02 -0.67521386234E+03  0.68776831371E+03  0.00000000000E+00 0.  1.
         21    1    1    2  505  501 -0.29469176342E+02  0.45797018009E+02  0.58757726594E+03  0.59009562163E+03  0.00000000000E+00 0.  1.
         -2    1    1    2    0  503 -0.47442806320E+02  0.32124723877E+02  0.14879038643E+03  0.15944088826E+03  0.00000000000E+00 0.  1.
<scales pt_clust_3="35.27945" pt_clust_4="129.72389" pt_clust_5="54.45915" pt_clust_6="35.27945"></scales>
<clustering>
<clus scale="   35.279">  3  6 -1 -1</clus>
<clus scale="   54.459">  1  5  2 -1</clus>
<clus scale="  129.724">  2  4  1 -1</clus>
<clus scale="  129.724">  2  3  1 -1</clus>
</clustering>
</event>
<event>
 6    0  0.3643696E+002  0.1586669E+03  0.7546771E-02  0.1190210E+00
         21   -1    0    0  504  502  0.00000000000E+00  0.00000000000E+00  0.38470299232E+03  0.38470299232E+03  0.00000000000E+00 0.  1.
          2   -1    0    0  503    0 -0.00000000000E+00 -0.00000000000E+00 -0.29315614883E+04  0.29315614883E+04  0.00000000000E+00 0.  1.
         21    1    1    2  503  502  0.67804013141E+02  0.87086249825E+01 -0.90977422414E+02  0.11379857528E+03  0.00000000000E+00 0. -1.
         21    1    1    2  504  505  0.13856712421E+03  0.61498170964E+02  0.35330927082E+03  0.38446106928E+03  0.00000000000E+00 0.  1.
         21    1    1    2  505  501 -0.76325780291E+02 -0.39022606071E+01 -0.10376654242E+04  0.10404760377E+04  0.00000000000E+00 0.  1.
          2    1    1    2  501    0 -0.13004535706E+03 -0.66304535339E+02 -0.17715249201E+04  0.17775287984E+04  0.00000000000E+00 0.  1.
<scales pt_clust_3="68.36099" pt_clust_4="151.96172" pt_clust_5="33.02245" pt_clust_6="33.02245"></scales>
<clustering>
<clus scale="   33.022">  5  6 -1 -1</clus>
<clus scale="   68.361">  2  3  1 -1</clus>
<clus scale="  151.962">  1  4  2 -1</clus>
<clus scale="  151.962">  1  3  2 -1</clus>
</clustering>
</event>
<event>
 6    0  0.3643696E+002  0.1046660E+03  0.7546771E-02  0.1270779E+00
          2   -1    0    0  503    0 -0.00000000000E+00  0.00000000000E+00  0.50803645326E+03  0.50803645326E+03  0.00000000000E+00 0.  1.
         21   -1    0    0  504  502  0.00000000000E+00 -0.00000000000E+00 -0.80427436434E+02  0.80427436434E+02  0.00000000000E+00 0.  1.
         21    1    1    2  503  505  0.48408929998E+01  0.90017248938E+02  0.35336935810E+03  0.36468677326E+03  0.00000000000E+00 0.  1.
         21    1    1    2  504  501  0.15321306088E+02 -0.68334764605E+02  0.33539005507E+02  0.77648228340E+02  0.00000000000E+00 0.  1.
         21    1    1    2  505  502 -0.16652375490E+02  0.36219704872E+02 -0.33411294768E+02  0.52014260050E+02  0.00000000000E+00 0.  1.
          2    1    1    2  501    0 -0.35098235981E+01 -0.57902189205E+02  0.74111947989E+02  0.94114628040E+02  0.00000000000E+00 0.  1.
<scales pt_clust_3="95.48039" pt_clust_4="39.02367" pt_clust_5="39.86438" pt_clust_6="39.02367"></scales>
<clustering>
<clus scale="   39.024">  4  6 -1 -1</clus>
<clus scale="   39.864">  2  5  1 -1</clus>
<clus scale="   95.480">  1  3  2 -1</clus>
<clus scale="   39.864">  2  3  1 -1</clus>
</clustering>
</event>
<event>
 6    0  0.3643696E+002  0.2431716E+03  0.7546771E-02  0.1117698E+00
         21   -1    0    0  503  502  0.00000000000E+00  0.00000000000E+00  0.24337517351E+03  0.24337517351E+03  0.00000000000E+00 0. -1.
          2   -1    0    0  504    0 -0.00000000000E+00 -0.00000000000E+00 -0.86702433572E+03  0.86702433572E+03  0.00000000000E+00 0.  1.
         21    1    1    2  503  501  0.18838879140E+03 -0.16687119895E+03 -0.20128818468E+03  0.32226272986E+03  0.00000000000E+00 0. -1.
         21    1    1    2  504  505 -0.28721329171E+02 -0.92878111762E+01 -0.81087709903E+02  0.86523955544E+02  0.00000000000E+00 0. -1.
         21    1    1    2  505  502 -0.16986812672E+03 -0.10288469219E+03  0.64710830870E+02  0.20887300447E+03  0.00000000000E+00 0. -1.
          2    1    1    2  501    0  0.10200664489E+02  0.27904370231E+03 -0.40598409849E+03  0.49273981936E+03  0.00000000000E+00 0.  1.
<scales pt_clust_3="243.17155" pt_clust_4="30.18573" pt_clust_5="201.30092" pt_clust_6="14000.00000"></scales>
<clustering>
<clus scale="   30.186">  2  4  1 -1</clus>
<clus scale="  201.301">  1  5  2 -1</clus>
<clus scale="  243.172">  1  3  2 -1</clus>
<clus scale="  201.301">  1  3  2 -1</clus>
</clustering>
</event>
<event>
 6    0  0.3643696E+002  0.1786742E+03  0.7546771E-02  0.1169092E+00
         -2   -1    0    0    0  501 -0.00000000000E+00  0.00000000000E+00  0.56129186037E+03  0.56129186037E+03  0.00000000000E+00 0. -1.
         21   -1    0    0  504  502  0.00000000000E+00 -0.00000000000E+00 -0.24345253135E+03  0.24345253135E+03  0.00000000000E+00 0.  1.
         21    1    1    2  503  501 -0.32900898324E+02 -0.20674818522E+02  0.31138437108E+03  0.31379952802E+03  0.00000000000E+00 0. -1.
         21    1    1    2  504  503 -0.16206606087E+03 -0.20287504996E+02 -0.15683777958E+03  0.22644001424E+03  0.00000000000E+00 0.  1.
         21    1    1    2  505  502  0.77851468066E+02  0.46203335675E+02  0.78458000556E+02  0.11979673267E+03  0.00000000000E+00 0.  1.
         -2    1    1    2    0  505  0.11711549113E+03 -0.52410121573E+01  0.84834736967E+02  0.14470811679E+03  0.00000000000E+00 0. -1.
<scales pt_clust_3="38.85765" pt_clust_4="168.27422" pt_clust_5="51.27464" pt_clust_6="51.27464"></scales>
<clustering>
<clus scale="   38.858">  1  3  2 -1</clus>
<clus scale="   51.275">  5  6 -1 -1</clus>
<clus scale="  168.274">  2  4  1 -1</clus>
<clus scale="  168.274">  2  3  1 -1</clus>
</clustering>
</event>
<event>
 6    0  0.3643696E+002  0.1382506E+03  0.7546771E-02  0.1215703E+00
         21   -1    0    0  503  502  0.00000000000E+00  0.00000000000E+00  0.16145454049E+04  0.16145454049E+04  0.00000000000E+00 0. -1.
          2   -1    0    0  504    0 -0.00000000000E+00 -0.00000000000E+00 -0.21081946042E+03  0.21081946042E+03  0.00000000000E+00 0. -1.
         21    1    1    2  503  501 -0.17745818456E+03  0.11320200731E+03  0.78268148337E+02  0.22457071218E+03  0.00000000000E+00 0.  1.
         21    1    1    2  504  505  0.34237144865E+02 -0.61490005487E+02  0.31218362887E+02  0.76992136252E+02  0.00000000000E+00 0.  1.
         21    1    1    2  505  502  0.13141215012E+03  0.43019472974E+02  0.13851149064E+04  0.13919996883E+04  0.00000000000E+00 0. -1.
          2    1    1    2  501    0  0.11808889572E+02 -0.94731474800E+02 -0.90875473182E+02  0.13180232857E+03  0.00000000000E+00 0. -1.
<scales pt_clust_3="138.25058" pt_clust_4="70.37899" pt_clust_5="14000.00000" pt_clust_6="135.02977"></scales>
<clustering>
<clus scale="   70.379">  2  4  1 -1</clus>
<clus scale="  135.030">  2  6  1 -1</clus>
<clus scale="  138.251">  2  3  1 -1</clus>
<clus scale="  138.251">  1  3  2 -1</clus>
</clustering>
</event>
<event>
 6    0  0.3643696E+002  0.8317999E+02  0.7546771E-02  0.1320262E+00
          2   -1    0    0  505    0 -0.00000000000E+00  0.00000000000E+00  0.79285042592E+02  0.79285042592E+02  0.00000000000E+00 0. -1.
         21   -1    0    0  503  502  0.00000000000E+00 -0.00000000000E+00 -0.52620590275E+03  0.52620590275E+03  0.00000000000E+00 0. -1.
         21    1    1    2  503  504 -0.64980653755E+02  0.53587281727E+02 -0.39020368025E+03  0.39919042349E+03  0.00000000000E+00 0. -1.
         21    1    1    2  504  501  0.78053719725E+02 -0.23906598463E+02 -0.25508775486E+02  0.85525471292E+02  0.00000000000E+00 0. -1.
         21    1    1    2  505  502  0.16680074381E+02  0.32407744914E+02 -0.36678535306E+02  0.51708817081E+02  0.00000000000E+00 0.  1.
          2    1    1    2  501    0 -0.29753140350E+02 -0.62088428178E+02  0.54701308890E+01  0.69066233474E+02  0.00000000000E+00 0. -1.
<scales pt_clust_3="14000.00000" pt_clust_4="83.17999" pt_clust_5="36.44841" pt_clust_6="49.93316"></scales>
<clustering>
<clus scale="   36.448">  1  5  2 -1</clus>
<clus scale="   49.933">  1  6  2 -1</clus>
<clus scale="   83.180">  1  4  2 -1</clus>
<clus scale="   83.180">  2  3  1 -1</clus>
</clustering>
</event>
<event>
 6    0  0.3643696E+002  0.1704820E+03  0.7546771E-02  0.1177346E+00
         21   -1    0    0  504  502  0.00000000000E+00  0.00000000000E+00  0.60420999638E+03  0.60420999638E+03  0.00000000000E+00 0.  1.
          1   -1    0    0  503    0 -0.00000000000E+00 -0.00000000000E+00 -0.85393156592E+02  0.85393156592E+02  0.00000000000E+00 0.  1.
         21    1    1    2  503  505  0.28603971435E+02 -0.22582949059E+02  0.18970093779E+02  0.41085778903E+02  0.00000000000E+00 0.  1.
         21    1    1    2  504  501 -0.46336204000E+02  0.70228861952E+01  0.52208091546E+02  0.70157320035E+02  0.00000000000E+00 0. -1.
         21    1    1    2  505  502  0.15552084793E+03  0.14427175821E+02  0.40507361782E+03  0.43414227322E+03  0.00000000000E+00 0.  1.
          1    1    1    2  501    0 -0.13778861537E+03  0.11328870424E+01  0.42565036638E+02  0.14421778081E+03  0.00000000000E+00 0.  1.
<scales pt_clust_3="36.44416" pt_clust_4="31.97616" pt_clust_5="161.42437" pt_clust_6="31.97616"></scales>
<clustering>
<clus scale="   31.976">  4  6 -1 -1</clus>
<clus scale="   36.444">  2  3  1 -1</clus>
<clus scale="  161.424">  1  5  2 -1</clus>
<clus scale="  161.424">  1  3  2 -1</clus>
</clustering>
</event>
<event>
 6    0  0.3643696E+002  0.1261141E+03  0.7546771E-02  0.1233338E+00
          1   -1    0    0  504    0 -0.00000000000E+00  0.00000000000E+00  0.13853012660E+04  0.13853012660E+04  0.00000000000E+00 0. -1.
         21   -1    0    0  503  502  0.00000000000E+00 -0.00000000000E+00 -0.88725948450E+02  0.88725948450E+02  0.00000000000E+00 0. -1.
         21    1    1    2  503  501 -0.93663271466E+01  0.65273615168E+02 -0.44278866683E+02  0.79429156839E+02  0.00000000000E+00 0. -1.
         21    1    1    2  504  505  0.15622616728E+02  0.10450661350E+03  0.14723765139E+03  0.18123085942E+03  0.00000000000E+00 0. -1.
         21    1    1    2  505  502 -0.53012230008E+01 -0.38959222288E+02  0.56993526661E+02  0.69240061004E+02  0.00000000000E+00 0. -1.
          1    1    1    2  501    0 -0.95506658090E+00 -0.13082100638E+03  0.11366230061E+04  0.11441271372E+04  0.00000000000E+00 0. -1.
<scales pt_clust_3="38.48491" pt_clust_4="126.11407" pt_clust_5="39.31824" pt_clust_6="14000.00000"></scales>
<clustering>
<clus scale="   39.318">  2  5  1 -1</clus>
<clus scale="   38.485">  2  3  1 -1</clus>
<clus scale="  126.114">  2  4  1 -1</clus>
<clus scale="   39.318">  2  3  1 -1</clus>
</clustering>
</event>
<event>
 6    0  0.3643696E+002  0.1054202E+03  0.7546771E-02  0.1269294E+00
          1   -1    0    0  503    0 -0.00000000000E+00  0.00000000000E+00  0.76683785129E+03  0.76683785129E+03  0.00000000000E+00 0. -1.
         21   -1    0    0  504  502  0.00000000000E+00 -0.00000000000E+00 -0.68420007864E+03  0.68420007864E+03  0.00000000000E+00 0. -1.
         21    1    1    2  503  505 -0.41485973451E+02 -0.66408789591E+02  0.17188544139E+03  0.18888043384E+03  0.00000000000E+00 0. -1.
         21    1    1    2  504  501 -0.68606959090E+01 -0.78760269769E+02 -0.64111095922E+03  0.64596711315E+03  0.00000000000E+00 0. -1.
         21    1    1    2  505  502  0.10913701829E+03  0.11200922956E+03  0.18226573061E+03  0.24016193042E+03  0.00000000000E+00 0. -1.
          1    1    1    2  501    0 -0.60790348934E+02  0.33159829796E+02  0.36959755988E+03  0.37602845252E+03  0.00000000000E+00 0. -1.
<scales pt_clust_3="14000.00000" pt_clust_4="78.88843" pt_clust_5="105.42021" pt_clust_6="69.24623"></scales>
<clustering>
<clus scale="   69.246">  1  6  2 -1</clus>
<clus scale="   78.888">  2  4  1 -1</clus>
<clus scale="  105.420">  2  5  1 -1</clus>
<clus scale="   78.888">  2  3  1 -1</clus>
</clustering>
</event>
<event>
 6    0  0.3643696E+002  0.1480535E+03  0.7546771E-02  0.1202885E+00
         -4   -1    0    0    0  501 -0.00000000000E+00  0.00000000000E+00  0.24127499423E+03  0.24127499423E+03  0.00000000000E+00 0. -1.
         21   -1    0    0  504  502  0.00000000000E+00 -0.00000000000E+00 -0.22325282315E+04  0.22325282315E+04  0.00000000000E+00 0. -1.
         21    1    1    2  503  502 -0.11749767858E+03  0.91570452257E+02 -0.21542368480E+04  0.21593812191E+04  0.00000000000E+00 0. -1.
         21    1    1    2  504  505 -0.25610026665E+02 -0.39401131726E+02 -0.19722677126E+02  0.50963777726E+02  0.00000000000E+00 0. -1.
         21    1    1    2  505  501  0.22348399318E+02 -0.24706983147E+02  0.12020774687E+03  0.12473888077E+03  0.00000000000E+00 0. -1.
         -4    1    1    2    0  503  0.12075930593E+03 -0.27462337385E+02  0.62498540919E+02  0.13871934818E+03  0.00000000000E+00 0. -1.
<scales pt_clust_3="148.05349" pt_clust_4="48.30111" pt_clust_5="33.31495" pt_clust_6="14000.00000"></scales>
<clustering>
<clus scale="   33.315">  1  5  2 -1</clus>
<clus scale="   48.301">  1  4  2 -1</clus>
<clus scale="  148.053">  2  3  1 -1</clus>
<clus scale="  148.053">  2  3  1 -1</clus>
</clustering>
</event>
<event>
 6    0  0.3643696E+002  0.1139017E+03  0.7546771E-02  0.1253510E+00
         21   -1    0    0  505  502  0.00000000000E+00  0.00000000000E+00  0.17085683421E+03  0.17085683421E+03  0.00000000000E+00 0. -1.
          2   -1    0    0  504    0 -0.00000000000E+00 -0.00000000000E+00 -0.57576582796E+03  0.57576582796E+03  0.00000000000E+00 0. -1.
         21    1    1    2  503  501 -0.17913640359E+02 -0.97690335911E+02 -0.19904129171E+02  0.10129400081E+03  0.00000000000E+00 0. -1.
         21    1    1    2  504  502  0.25399133963E+02  0.54063240764E+02 -0.12823835697E+03  0.14146740333E+03  0.00000000000E+00 0.  1.
         21    1    1    2  505  503  0.11749349437E+02 -0.34778473363E+02  0.11640549081E+03  0.12205665779E+03  0.00000000000E+00 0. -1.
          2    1    1    2  501    0 -0.19234843041E+02  0.78405568511E+02 -0.37317199842E+03  0.38180460024E+03  0.00000000000E+00 0. -1.
<scales pt_clust_3="113.90172" pt_clust_4="56.43345" pt_clust_5="36.70953" pt_clust_6="14000.00000"></scales>
<clustering>
<clus scale="   36.710">  1  5  2 -1</clus>
<clus scale="   56.433">  2  4  1 -1</clus>
<clus scale="  113.902">  1  3  2 -1</clus>
<clus scale="   36.710">  1  3  2 -1</clus>
</clustering>
</event>
<event>
 6    0  0.3643696E+002  0.3004679E+03  0.7546771E-02  0.1085007E+00
         21   -1    0    0  504  502  0.00000000000E+00  0.00000000000E+00  0.92744832935E+02  0.92744832935E+02  0.00000000000E+00 0. -1.
          1   -1    0    0  503    0 -0.00000000000E+00 -0.00000000000E+00 -0.13585358326E+04  0.13585358326E+04  0.00000000000E+00 0.  1.
         21    1    1    2  503  502  0.43435608236E+02 -0.69912253713E+01 -0.31605344654E+03  0.31910078403E+03  0.00000000000E+00 0.  1.
         21    1    1    2  504  505 -0.21411843911E+03 -0.21542130259E+03 -0.32491990031E+03  0.44477633165E+03  0.00000000000E+00 0. -1.
         21    1    1    2  505  501  0.12800711019E+03  0.12418033028E+03 -0.41932135764E+03  0.45567200447E+03  0.00000000000E+00 0.  1.
          1    1    1    2  501    0  0.42675720688E+02  0.98232197688E+02 -0.20549629519E+03  0.23173154540E+03  0.00000000000E+00 0.  1.
<scales pt_clust_3="43.99465" pt_clust_4="294.54100" pt_clust_5="45.13738" pt_clust_6="45.13738"></scales>
<clustering>
<clus scale="   43.995">  2  3  1 -1</clus>
<clus scale="   45.137">  5  6 -1 -1</clus>
<clus scale="  294.541">  1  4  2 -1</clus>
<clus scale="  294.541">  1  3  2 -1</clus>
</clustering>
</event>
<event>
 6    0  0.3643696E+002  0.9749648E+02  0.7546771E-02  0.1285650E+00
         21   -1    0    0  503  502  0.00000000000E+00  0.00000000000E+00  0.57128279988E+03  0.57128279988E+03  0.00000000000E+00 0. -1.
          3   -1    0    0  505    0 -0.00000000000E+00 -0.00000000000E+00 -0.92114896750E+02  0.92114896750E+02  0.00000000000E+00 0.  1.
         21    1    1    2  503  501 -0.94980286140E+02  0.16908419152E+02  0.44540915330E+03  0.45573727436E+03  0.00000000000E+00 0. -1.
         21    1    1    2  504  502  0.85641154658E+01 -0.47994659994E+02 -0.21782742116E+02  0.53397746355E+02  0.00000000000E+00 0. -1.
         21    1    1    2  505  504 -0.21974870847E+02  0.23508308399E+02  0.26778866638E+02  0.41864581819E+02  0.00000000000E+00 0. -1.
          3    1    1    2  501    0  0.10839104152E+03  0.75779324440E+01  0.28762625303E+02  0.11239809410E+03  0.00000000000E+00 0.  1.
<scales pt_clust_3="97.49648" pt_clust_4="37.56505" pt_clust_5="32.17974" pt_clust_6="14000.00000"></scales>
<clustering>
<clus scale="   32.180">  2  5  1 -1</clus>
<clus scale="   37.565">  2  4  1 -1</clus>
<clus scale="   97.496">  1  3  2 -1</clus>
<clus scale="   97.496">  1  3  2 -1</clus>
</clustering>
</event>
<event>
 6    0  0.3643696E+002  0.1567332E+03  0.7546771E-02  0.1192435E+00
         21   -1    0    0  504  502  0.00000000000E+00  0.00000000000E+00  0.28374306152E+03  0.28374306152E+03  0.00000000000E+00 0. -1.
          2   -1    0    0  505    0 -0.00000000000E+00 -0.00000000000E+00 -0.21400332738E+04  0.21400332738E+04  0.00000000000E+00 0.  1.
         21    1    1    2  503  502  0.47113920081E+02  0.55405201294E+02 -0.52782431716E+02  0.89863468071E+02  0.00000000000E+00 0. -1.
         21    1    1    2  504  501 -0.69606400404E+02  0.10131004058E+03  0.24337540668E+03  0.27265429371E+03  0.00000000000E+00 0. -1.
         21    1    1    2  505  503  0.38037690515E+02 -0.12646348710E+01 -0.84602525191E+02  0.92768811945E+02  0.00000000000E+00 0.  1.
          2    1    1    2  501    0 -0.15545210192E+02 -0.15545060701E+03 -0.19622806620E+04  0.19684897616E+04  0.00000000000E+00 0.  1.
<scales pt_clust_3="73.55920" pt_clust_4="14000.00000" pt_clust_5="38.05871" pt_clust_6="156.73318"></scales>
<clustering>
<clus scale="   38.059">  2  5  1 -1</clus>
<clus scale="   73.559">  1  3  2 -1</clus>
<clus scale="  156.733">  2  6  1 -1</clus>
<clus scale="   73.559">  1  3  2 -1</clus>
</clustering>
</event>
<event>
 6    0  0.3643696E+002  0.8753443E+02  0.7546771E-02  0.1308935E+00
          1   -1    0    0  503    0 -0.00000000000E+00  0.00000000000E+00  0.92569727841E+03  0.92569727841E+03  0.00000000000E+00 0.  1.
         21   -1    0    0  505  502  0.00000000000E+00 -0.00000000000E+00 -0.14129317448E+04  0.14129317448E+04  0.00000000000E+00 0.  1.
         21    1    1    2  503  502 -0.81889962190E+02  0.14006559214E+02  0.21786372671E+03  0.23316679229E+03  0.00000000000E+00 0.  1.
         21    1    1    2  504  501  0.94680559586E+02 -0.69303854813E+01  0.38535303966E+03  0.39687454413E+03  0.00000000000E+00 0.  1.
         21    1    1    2  505  504  0.63290251397E+01  0.40114167055E+02 -0.13971253925E+04  0.13977154808E+04  0.00000000000E+00 0.  1.
          1    1    1    2  501    0 -0.19119622536E+02 -0.47190340788E+02  0.30667415972E+03  0.31087220601E+03  0.00000000000E+00 0.  1.
<scales pt_clust_3="87.53443" pt_clust_4="14000.00000" pt_clust_5="40.61038" pt_clust_6="45.58079"></scales>
<clustering>
<clus scale="   40.610">  2  5  1 -1</clus>
<clus scale="   45.581">  1  6  2 -1</clus>
<clus scale="   87.534">  2  3  1 -1</clus>
<clus scale="   40.610">  2  3  1 -1</clus>
</clustering>
</event>
<event>
 6    0  0.3643696E+002  0.2838565E+03  0.7546771E-02  0.1093601E+00
          2   -1    0    0  505    0 -0.00000000000E+00  0.00000000000E+00  0.11969059981E+04  0.11969059981E+04  0.00000000000E+00 0. -1.
         21   -1    0    0  504  502  0.00000000000E+00 -0.00000000000E+00 -0.41937434319E+03  0.41937434319E+03  0.00000000000E+00 0.  1.
         21    1    1    2  503  501  0.30679848135E+00  0.40026615776E+02  0.90852118259E+02  0.99279058658E+02  0.00000000000E+00 0.  1.
         21    1    1    2  504  503 -0.29404889772E+02  0.39899223693E+02  0.23953499998E+02  0.55048757988E+02  0.00000000000E+00 0. -1.
         21    1    1    2  505  502  0.14676365299E+03 -0.28445547309E+03 -0.31921781280E+03  0.45205585719E+03  0.00000000000E+00 0.  1.
          2    1    1    2  501    0 -0.11766556170E+03  0.20452963362E+03  0.98194384947E+03  0.10098966675E+04  0.00000000000E+00 0. -1.
<scales pt_clust_3="31.36379" pt_clust_4="49.56406" pt_clust_5="273.45154" pt_clust_6="31.36379"></scales>
<clustering>
<clus scale="   31.364">  3  6 -1 -1</clus>
<clus scale="   49.564">  2  4  1 -1</clus>
<clus scale="  273.452">  2  5  1 -1</clus>
<clus scale="   49.564">  2  3  1 -1</clus>
</clustering>
</event>
<event>
 6    0  0.3643696E+002  0.7989635E+02  0.7546771E-02  0.1329346E+00
         21   -1    0    0  501  502  0.00000000000E+00  0.00000000000E+00  0.54144102942E+03  0.54144102942E+03  0.00000000000E+00 0.  1.
          2   -1    0    0  503    0 -0.00000000000E+00 -0.00000000000E+00 -0.58754654849E+03  0.58754654849E+03  0.00000000000E+00 0.  1.
         21    1    1    2  503  505 -0.49238827949E+02  0.92877152998E+01 -0.18371494509E+03  0.19042558884E+03  0.00000000000E+00 0.  1.
         21    1    1    2  504  502 -0.78844313676E+02  0.60317869136E+01  0.49192668703E+03  0.49824158163E+03  0.00000000000E+00 0.  1.
         21    1    1    2  505  504 -0.47711671533E+02 -0.25205515574E+02 -0.11856233801E+02  0.55247551038E+02  0.00000000000E+00 0. -1.
          2    1    1    2  501    0  0.17579481316E+03  0.98860133603E+01 -0.34246102721E+03  0.38507285641E+03  0.00000000000E+00 0.  1.
<scales pt_clust_3="50.10712" pt_clust_4="79.89635" pt_clust_5="57.30411" pt_clust_6="14000.00000"></scales>
<clustering>
<clus scale="   50.107">  2  3  1 -1</clus>
<clus scale="   57.304">  2  5  1 -1</clus>
<clus scale="   79.896">  1  4  2 -1</clus>
<clus scale="   79.896">  1  3  2 -1</clus>
</clustering>
</event>
<event>
 6    0  0.3643696E+002  0.2080958E+03  0.7546771E-02  0.1143083E+00
         21   -1    0    0  504  502  0.00000000000E+00  0.00000000000E+00  0.50594936882E+02  0.50594936882E+02  0.00000000000E+00 0.  1.
         -2   -1    0    0    0  501 -0.00000000000E+00 -0.00000000000E+00 -0.10149783646E+04  0.10149783646E+04  0.00000000000E+00 0.  1.
         21    1    1    2  503  501 -0.29542462564E+01 -0.42227691451E+02 -0.97477435149E+02  0.10627208410E+03  0.00000000000E+00 0.  1.
         21    1    1    2  504  503 -0.72594746744E+02 -0.14097034451E+03 -0.17214032933E+03  0.23404044152E+03  0.00000000000E+00 0.  1.
         21    1    1    2  505  502  0.40722895645E+02  0.71779632791E+02 -0.18958505601E+03  0.20676838098E+03  0.00000000000E+00 0.  1.
         -2    1    1    2    0  505  0.34826097356E+02  0.11141840317E+03 -0.50518060720E+03  0.51849239484E+03  0.00000000000E+00 0.  1.
<scales pt_clust_3="32.05825" pt_clust_4="207.65085" pt_clust_5="53.40765" pt_clust_6="53.40765"></scales>
<clustering>
<clus scale="   32.058">  3  4 -1 -1</clus>
<clus scale="   53.408">  5  6 -1 -1</clus>
<clus scale="  207.651">  1  3  2 -1</clus>
<clus scale="  207.651">  1  3  2 -1</clus>
</clustering>
</event>
<event>
 6    0  0.3643696E+002  0.2564414E+03  0.7546771E-02  0.1109300E+00
          2   -1    0    0  504    0 -0.00000000000E+00  0.00000000000E+00  0.23509803223E+04  0.23509803223E+04  0.00000000000E+00 0.  1.
         21   -1    0    0  505  502  0.00000000000E+00 -0.00000000000E+00 -0.22962271823E+03  0.22962271823E+03  0.00000000000E+00 0. -1.
         21    1    1    2  503  501  0.13201089536E+03  0.19533628681E+03  0.78991768508E+03  0.82435010198E+03  0.00000000000E+00 0.  1.
         21    1    1    2  504  502  0.19253200614E+02  0.25631994369E+02 -0.19190225949E+03  0.19456146090E+03  0.00000000000E+00 0. -1.
         21    1    1    2  505  503 -0.38412821039E+02  0.28076841439E+02  0.83378939131E+02  0.95999486123E+02  0.00000000000E+00 0.  1.
          2    1    1    2  501    0 -0.11285127493E+03 -0.24904512262E+03  0.14399632393E+04  0.14656919915E+04  0.00000000000E+00 0.  1.
<scales pt_clust_3="14000.00000" pt_clust_4="32.05752" pt_clust_5="47.83149" pt_clust_6="256.44141"></scales>
<clustering>
<clus scale="   32.058">  2  4  1 -1</clus>
<clus scale="   47.831">  2  5  1 -1</clus>
<clus scale="  256.441">  1  6  2 -1</clus>
<clus scale="   32.058">  2  3  1 -1</clus>
</clustering>
</event>
<event>
 6    0  0.3643696E+002  0.2118668E+03  0.7546771E-02  0.1140096E+00
         21   -1    0    0  504  502  0.00000000000E+00  0.00000000000E+00  0.88793820848E+03  0.88793820848E+03  0.00000000000E+00 0.  1.
          2   -1    0    0  503    0 -0.00000000000E+00 -0.00000000000E+00 -0.16204402881E+03  0.16204402881E+03  0.00000000000E+00 0.  1.
         21    1    1    2  503  505 -0.26872686049E+02 -0.25593810591E+02 -0.17645014035E+02  0.41091737812E+02  0.00000000000E+00 0.  1.
         21    1    1    2  504  501 -0.27572846085E+02 -0.12571699298E+02  0.33756138405E+03  0.33891886561E+03  0.00000000000E+00 0. -1.
         21    1    1    2  505  502 -0.18520722542E+03  0.30088410248E+02  0.38619982935E+03  0.42936853281E+03  0.00000000000E+00 0.  1.
          2    1    1    2  501    0  0.23965275755E+03  0.80770996420E+01  0.19777980312E+02  0.24060310107E+03  0.00000000000E+00 0.  1.
<scales pt_clust_3="37.72176" pt_clust_4="30.30362" pt_clust_5="211.86678" pt_clust_6="14000.00000"></scales>
<clustering>
<clus scale="   30.304">  1  4  2 -1</clus>
<clus scale="   37.722">  2  3  1 -1</clus>
<clus scale="  211.867">  1  5  2 -1</clus>
<clus scale="   30.304">  1  3  2 -1</clus>
</clustering>
</event>
<event>
 6    0  0.3643696E+002  0.9960860E+02  0.7546771E-02  0.1281121E+00
         21   -1    0    0  501  502  0.00000000000E+00  0.00000000000E+00  0.79583081362E+03  0.79583081362E+03  0.00000000000E+00 0.  1.
          1   -1    0    0  504    0 -0.00000000000E+00 -0.00000000000E+00 -0.60013712302E+03  0.60013712302E+03  0.00000000000E+00 0.  1.
         21    1    1    2  503  502 -0.15159608336E+02 -0.26798274061E+02  0.70284014840E+03  0.70351420414E+03  0.00000000000E+00 0.  1.
         21    1    1    2  504  505 -0.69077059710E+02 -0.75709892745E+01 -0.14538888982E+03  0.16114245046E+03  0.00000000000E+00 0.  1.
         21    1    1    2  505  503  0.23468766007E+02 -0.76882265709E+02  0.53880461808E+02  0.96771741346E+02  0.00000000000E+00 0.  1.
          1    1    1    2  501    0  0.60767902039E+02  0.11125152904E+03 -0.41563802979E+03  0.43453954071E+03  0.00000000000E+00 0.  1.
<scales pt_clust_3="30.78898" pt_clust_4="71.05179" pt_clust_5="14000.00000" pt_clust_6="99.60860"></scales>
<clustering>
<clus scale="   30.789">  1  3  2 -1</clus>
<clus scale="   71.052">  2  4  1 -1</clus>
<clus scale="   99.609">  2  6  1 -1</clus>
<clus scale="   30.789">  1  3  2 -1</clus>
</clustering>
</event>
<event>
 6    0  0.3643696E+002  0.8745166E+02  0.7546771E-02  0.1309143E+00
          2   -1    0    0  504    0 -0.00000000000E+00  0.00000000000E+00  0.13953055599E+04  0.13953055599E+04  0.00000000000E+00 0. -1.
         21   -1    0    0  503  502  0.00000000000E+00 -0.00000000000E+00 -0.17676217810E+02  0.17676217810E+02  0.00000000000E+00 0. -1.
         21    1    1    2  503  505 -0.45739893293E+02 -0.47723263084E+01  0.80451637592E+02  0.92668111711E+02  0.00000000000E+00 0. -1.
         21    1    1    2  504  502  0.93955549798E+02 -0.25587552003E+02  0.47323545979E+03  0.48315025464E+03  0.00000000000E+00 0. -1.
         21    1    1    2  505  501 -0.90750244705E+02 -0.69751027488E+01  0.47126365800E+03  0.47997259748E+03  0.00000000000E+00 0. -1.
          2    1    1    2  501    0  0.42534588200E+02  0.37334981060E+02  0.35267858675E+03  0.35719081393E+03  0.00000000000E+00 0. -1.
<scales pt_clust_3="45.98818" pt_clust_4="14000.00000" pt_clust_5="87.45166" pt_clust_6="49.54959"></scales>
<clustering>
<clus scale="   45.988">  2  3  1 -1</clus>
<clus scale="   49.550">  1  6  2 -1</clus>
<clus scale="   87.452">  1  5  2 -1</clus>
<clus scale="   45.988">  2  3  1 -1</clus>
</clustering>
</event>
<event>
 6    0  0.3643696E+002  0.1265009E+03  0.7546771E-02  0.1232742E+00
          2   -1    0    0  505    0 -0.00000000000E+00  0.00000000000E+00  0.13794081853E+04  0.13794081853E+04  0.00000000000E+00 0.  1.
         21   -1    0    0  503  502  0.00000000000E+00 -0.00000000000E+00 -0.71659102276E+02  0.71659102276E+02  0.00000000000E+00 0.  1.
         21    1    1    2  503  501  0.46761788468E+02  0.35140378221E+02 -0.28807455145E+02  0.65202611253E+02  0.00000000000E+00 0.  1.
         21    1    1    2  504  502  0.56005076613E+02  0.92194356721E+02  0.14862710035E+03  0.18364744207E+03  0.00000000000E+00 0. -1.
         21    1    1    2  505  504 -0.70246670549E+02 -0.45758782255E+02  0.35949180599E+03  0.36913794096E+03  0.00000000000E+00 0.  1.
          2    1    1    2  501    0 -0.32520194532E+02 -0.81575952686E+02  0.82843763179E+03  0.83307929327E+03  0.00000000000E+00 0.  1.
<scales pt_clust_3="58.49368" pt_clust_4="14000.00000" pt_clust_5="72.42262" pt_clust_6="126.50091"></scales>
<clustering>
<clus scale="   58.494">  2  3  1 -1</clus>
<clus scale="   72.423">  1  5  2 -1</clus>
<clus scale="  126.501">  1  6  2 -1</clus>
<clus scale="   58.494">  2  3  1 -1</clus>
</clustering>
</event>
<event>
 6    0  0.3643696E+002  0.6139523E+02  0.7546771E-02  0.1392068E+00
          1   -1    0    0  503    0 -0.00000000000E+00  0.00000000000E+00  0.47465367599E+03  0.47465367599E+03  0.00000000000E+00 0.  1.
         21   -1    0    0  504  502  0.00000000000E+00 -0.00000000000E+00 -0.12476859215E+04  0.12476859215E+04  0.00000000000E+00 0. -1.
         21    1    1    2  503  505 -0.38193461803E+02  0.57961964904E+02  0.15175179749E+03  0.16687401818E+03  0.00000000000E+00 0. -1.
         21    1    1    2  504  501  0.24487819068E+02 -0.78847497746E+02  0.11248093576E+03  0.13952971760E+03  0.00000000000E+00 0.  1.
         21    1    1    2  505  502  0.25673267988E+02  0.55768753708E+02 -0.12240278888E+04  0.12255666213E+04  0.00000000000E+00 0. -1.
          1    1    1    2  501    0 -0.11967625253E+02 -0.34883220865E+02  0.18676291003E+03  0.19036924046E+03  0.00000000000E+00 0.  1.
<scales pt_clust_3="59.13796" pt_clust_4="61.39523" pt_clust_5="14000.00000" pt_clust_6="36.87903"></scales>
<clustering>
<clus scale="   36.879">  1  6  2 -1</clus>
<clus scale="   59.138">  1  3  2 -1</clus>
<clus scale="   61.395">  1  4  2 -1</clus>
<clus scale="   61.395">  2  3  1 -1</clus>
</clustering>
</event>
<event>
 6    0  0.3643696E+002  0.1138677E+03  0.7546771E-02  0.1253571E+00
         21   -1    0    0  501  502  0.00000000000E+00  0.00000000000E+00  0.95919463515E+02  0.95919463515E+02  0.00000000000E+00 0.  1.
          1   -1    0    0  503    0 -0.00000000000E+00 -0.00000000000E+00 -0.10365847927E+04  0.10365847927E+04  0.00000000000E+00 0.  1.
         21    1    1    2  503  505  0.26277094715E+02 -0.46274315391E+02 -0.58099676893E+03  0.58342869614E+03  0.00000000000E+00 0.  1.
         21    1    1    2  504  502 -0.33197564726E+02 -0.23115585760E+02  0.55639031434E+02  0.68790336732E+02  0.00000000000E+00 0.  1.
         21    1    1    2  505  504 -0.60599881347E+02  0.12362789945E+03 -0.16212106534E+03  0.21269565808E+03  0.00000000000E+00 0.  1.
          1    1    1    2  501    0  0.67520351358E+02 -0.54237998303E+02 -0.25318652631E+03  0.26758956522E+03  0.00000000000E+00 0.  1.
<scales pt_clust_3="53.36821" pt_clust_4="40.45255" pt_clust_5="14000.00000" pt_clust_6="113.86766"></scales>
<clustering>
<clus scale="   40.453">  1  4  2 -1</clus>
<clus scale="   53.368">  2  3  1 -1</clus>
<clus scale="  113.868">  2  6  1 -1</clus>
<clus scale="   40.453">  1  3  2 -1</clus>
</clustering>
</event>
<event>
 6    0  0.3643696E+002  0.7436747E+02  0.7546771E-02  0.1345841E+00
          2   -1    0    0  505    0 -0.00000000000E+00  0.00000000000E+00  0.45048159232E+03  0.45048159232E+03  0.00000000000E+00 0. -1.
         21   -1    0    0  504  502  0.00000000000E+00 -0.00000000000E+00 -0.34702491196E+03  0.34702491196E+03  0.00000000000E+00 0. -1.
         21    1    1    2  503  502 -0.63045919907E+02  0.55556149715E+02 -0.31182913595E+03  0.32295306751E+03  0.00000000000E+00 0. -1.
         21    1    1    2  504  501  0.32604227134E+02  0.11906948326E+02 -0.22630562212E+01  0.34784083557E+02  0.00000000000E+00 0.  1.
         21    1    1    2  505  503 -0.42913508613E+02 -0.16365418917E+02  0.10325958281E+03  0.11301299748E+03  0.00000000000E+00 0. -1.
          2    1    1    2  501    0  0.73355201386E+02 -0.51097679124E+02  0.31428928971E+03  0.32675635573E+03  0.00000000000E+00 0. -1.
<scales pt_clust_3="74.36747" pt_clust_4="34.71039" pt_clust_5="45.41293" pt_clust_6="14000.00000"></scales>
<clustering>
<clus scale="   34.710">  2  4  1 -1</clus>
<clus scale="   45.413">  1  5  2 -1</clus>
<clus scale="   74.367">  2  3  1 -1</clus>
<clus scale="   34.710">  2  3  1 -1</clus>
</clustering>
</event>
<event>
 6    0  0.3643696E+002  0.1046075E+03  0.7546771E-02  0.1270895E+00
          2   -1    0    0  503    0 -0.00000000000E+00  0.00000000000E+00  0.16045901516E+04  0.16045901516E+04  0.00000000000E+00 0. -1.
         21   -1    0    0  504  502  0.00000000000E+00 -0.00000000000E+00 -0.11836373436E+04  0.11836373436E+04  0.00000000000E+00 0. -1.
         21    1    1    2  503  505 -0.25543106173E+01  0.35906264912E+02  0.10242383593E+03  0.10856530997E+03  0.00000000000E+00 0.  1.
         21    1    1    2  504  501  0.24710408783E+02 -0.10164935547E+03 -0.11711967238E+04  0.11758592440E+04  0.00000000000E+00 0. -1.
         21    1    1    2  505  502  0.31893077797E+02 -0.27372183168E+02  0.83684207364E+02  0.93645348976E+02  0.00000000000E+00 0.  1.
          2    1    1    2  501    0 -0.54049175962E+02  0.93115273724E+02  0.14060414885E+04  0.14101575923E+04  0.00000000000E+00 0. -1.
<scales pt_clust_3="35.99700" pt_clust_4="104.60749" pt_clust_5="40.55910" pt_clust_6="14000.00000"></scales>
<clustering>
<clus scale="   35.997">  1  3  2 -1</clus>
<clus scale="   40.559">  1  5  2 -1</clus>
<clus scale="  104.607">  2  4  1 -1</clus>
<clus scale="  104.607">  2  3  1 -1</clus>
</clustering>
</event>
<event>
 6    0  0.3643696E+002  0.6254023E+02  0.7546771E-02  0.1387470E+00
         21   -1    0    0  503  502  0.00000000000E+00  0.00000000000E+00  0.12298655177E+04  0.12298655177E+04  0.00000000000E+00 0. -1.
         -3   -1    0    0    0  501 -0.00000000000E+00 -0.00000000000E+00 -0.21587438583E+03  0.21587438583E+03  0.00000000000E+00 0.  1.
         21    1    1    2  503  504  0.48261035014E+02  0.32283085812E+02 -0.25710955988E+02  0.63501010921E+02  0.00000000000E+00 0. -1.
         21    1    1    2  504  501  0.18363801153E+02 -0.43954810222E+02  0.44019599462E+01  0.47839646590E+02  0.00000000000E+00 0. -1.
         21    1    1    2  505  502  0.53818681159E+02  0.31284367685E+02  0.11589809868E+04  0.11606515798E+04  0.00000000000E+00 0. -1.
         -3    1    1    2    0  505 -0.12044351733E+03 -0.19612643275E+02 -0.12368085888E+03  0.17374766616E+03  0.00000000000E+00 0.  1.
<scales pt_clust_3="56.97643" pt_clust_4="47.63669" pt_clust_5="62.54023" pt_clust_6="14000.00000"></scales>
<clustering>
<clus scale="   47.637">  2  4  1 -1</clus>
<clus scale="   56.976">  2  3  1 -1</clus>
<clus scale="   62.540">  1  5  2 -1</clus>
<clus scale="   62.540">  1  3  2 -1</clus>
</clustering>
</event>
<event>
 6    0  0.3643696E+002  0.3305801E+03  0.7546771E-02  0.1070880E+00
          2   -1    0    0  505    0 -0.00000000000E+00  0.00000000000E+00  0.15971757369E+04  0.15971757369E+04  0.00000000000E+00 0. -1.
         21   -1    0    0  503  502  0.00000000000E+00 -0.00000000000E+00 -0.27422790751E+03  0.27422790751E+03  0.00000000000E+00 0. -1.
         21    1    1    2  503  504 -0.12999354084E+03  0.71794080063E+01  0.43841553522E+03  0.45733799982E+03  0.00000000000E+00 0.  1.
         21    1    1    2  504  501 -0.38290595619E+02 -0.21688269153E+02  0.24024484027E+03  0.24424195792E+03  0.00000000000E+00 0. -1.
         21    1    1    2  505  502  0.26418994678E+03 -0.96972163524E+02 -0.17898518048E+03  0.33352004933E+03  0.00000000000E+00 0. -1.
          2    1    1    2  501    0 -0.95905810315E+02  0.11148102467E+03  0.82327263434E+03  0.83630363730E+03  0.00000000000E+00 0. -1.
<scales pt_clust_3="142.70610" pt_clust_4="32.39364" pt_clust_5="281.42482" pt_clust_6="142.70610"></scales>
<clustering>
<clus scale="   32.394">  3  4 -1 -1</clus>
<clus scale="  142.706">  3  6 -1 -1</clus>
<clus scale="  281.425">  2  5  1 -1</clus>
<clus scale="  281.425">  2  3  1 -1</clus>
</clustering>
</event>
<event>
 6    0  0.3643696E+002  0.8861580E+02  0.7546771E-02  0.1306239E+00
         21   -1    0    0  503  502  0.00000000000E+00  0.00000000000E+00  0.29899006173E+02  0.29899006173E+02  0.00000000000E+00 0. -1.
          2   -1    0    0  505    0 -0.00000000000E+00 -0.00000000000E+00 -0.24497879110E+04  0.24497879110E+04  0.00000000000E+00 0.  1.
         21    1    1    2  503  501 -0.90386683951E+02 -0.12744154354E+01 -0.59818523191E+02  0.10839572172E+03  0.00000000000E+00 0. -1.
         21    1    1    2  504  502 -0.12019509134E+02  0.74668166566E+02 -0.58203777948E+03  0.58693081402E+03  0.00000000000E+00 0.  1.
         21    1    1    2  505  504  0.41958775221E+02  0.13687027925E+02 -0.51994732535E+03  0.52181710847E+03  0.00000000000E+00 0.  1.
          2    1    1    2  501    0  0.60447417864E+02 -0.87080779056E+02 -0.12580852768E+04  0.12625432730E+04  0.00000000000E+00 0.  1.
<scales pt_clust_3="88.61580" pt_clust_4="78.81858" pt_clust_5="44.13472" pt_clust_6="14000.00000"></scales>
<clustering>
<clus scale="   44.135">  2  5  1 -1</clus>
<clus scale="   78.819">  2  4  1 -1</clus>
<clus scale="   88.616">  1  3  2 -1</clus>
<clus scale="   88.616">  1  3  2 -1</clus>
</clustering>
</event>
<event>
 6    0  0.3643696E+002  0.1088017E+03  0.7546771E-02  0.1262805E+00
          1   -1    0    0  503    0 -0.00000000000E+00  0.00000000000E+00  0.19448690088E+03  0.19448690088E+03  0.00000000000E+00 0.  1.
         21   -1    0    0  504  502  0.00000000000E+00 -0.00000000000E+00 -0.15838941087E+04  0.15838941087E+04  0.00000000000E+00 0.  1.
         21    1    1    2  503  502 -0.44276226354E+02 -0.18691939734E+02  0.17863309730E+02  0.51272513745E+02  0.00000000000E+00 0.  1.
         21    1    1    2  504  505  0.11250726375E+03 -0.71507157326E+01 -0.15330323211E+04  0.15371717909E+04  0.00000000000E+00 0.  1.
         21    1    1    2  505  501 -0.27574393315E+02  0.49078654360E+02  0.59573767377E+00  0.56297569964E+02  0.00000000000E+00 0.  1.
          1    1    1    2  501    0 -0.40656644083E+02 -0.23235998893E+02  0.12516606588E+03  0.13363913499E+03  0.00000000000E+00 0.  1.
<scales pt_clust_3="108.80168" pt_clust_4="14000.00000" pt_clust_5="59.75864" pt_clust_6="46.82814"></scales>
<clustering>
<clus scale="   46.828">  1  6  2 -1</clus>
<clus scale="   59.759">  1  5  2 -1</clus>
<clus scale="  108.802">  1  3  2 -1</clus>
<clus scale="  108.802">  2  3  1 -1</clus>
</clustering>
</event>
<event>
 6    0  0.3643696E+002  0.1257891E+03  0.7546771E-02  0.1233841E+00
         21   -1    0    0  504  502  0.00000000000E+00  0.00000000000E+00  0.11539738643E+04  0.11539738643E+04  0.00000000000E+00 0. -1.
          3   -1    0    0  502    0 -0.00000000000E+00 -0.00000000000E+00 -0.76718260876E+03  0.76718260876E+03  0.00000000000E+00 0. -1.
         21    1    1    2  503  501  0.14681517337E+03  0.11168178001E+03  0.26320471188E+02  0.18633379276E+03  0.00000000000E+00 0. -1.
         21    1    1    2  504  505 -0.48998528647E+02 -0.41484189764E+02  0.10052192908E+04  0.10072674007E+04  0.00000000000E+00 0. -1.
         21    1    1    2  505  503  0.23798469945E+02 -0.10467222290E+03 -0.48037245075E+02  0.11760194868E+03  0.00000000000E+00 0. -1.
          3    1    1    2  501    0 -0.12161511467E+03  0.34474632650E+02 -0.59671126141E+03  0.60995333093E+03  0.00000000000E+00 0. -1.
<scales pt_clust_3="125.78909" pt_clust_4="64.20120" pt_clust_5="115.09451" pt_clust_6="14000.00000"></scales>
<clustering>
<clus scale="   64.201">  1  4  2 -1</clus>
<clus scale="  115.095">  1  5  2 -1</clus>
<clus scale="  125.789">  1  3  2 -1</clus>
<clus scale="   64.201">  1  3  2 -1</clus>
</clustering>
</event>
<event>
 6    0  0.3643696E+002  0.8218791E+02  0.7546771E-02  0.1322955E+00
          2   -1    0    0  504    0 -0.00000000000E+00  0.00000000000E+00  0.40500716322E+03  0.40500716322E+03  0.00000000000E+00 0. -1.
         21   -1    0    0  503  502  0.00000000000E+00 -0.00000000000E+00 -0.24820926099E+03  0.24820926099E+03  0.00000000000E+00 0. -1.
         21    1    1    2  503  505 -0.24992039341E+02 -0.55430537716E+02 -0.17296799140E+03  0.18334413705E+03  0.00000000000E+00 0. -1.
         21    1    1    2  504  502  0.67611803926E+02  0.41044524838E+02  0.37502186888E+02  0.87535267582E+02  0.00000000000E+00 0.  1.
         21    1    1    2  505  501 -0.87626566617E+02  0.77199233887E+02  0.48209848988E+02  0.12634210078E+03  0.00000000000E+00 0. -1.
          2    1    1    2  501    0  0.45006802032E+02 -0.62813221009E+02  0.24405385775E+03  0.25599491879E+03  0.00000000000E+00 0. -1.
<scales pt_clust_3="60.80417" pt_clust_4="62.41566" pt_clust_5="14000.00000" pt_clust_6="82.18791"></scales>
<clustering>
<clus scale="   60.804">  2  3  1 -1</clus>
<clus scale="   62.416">  2  4  1 -1</clus>
<clus scale="   82.188">  1  6  2 -1</clus>
<clus scale="   60.804">  2  3  1 -1</clus>
</clustering>
</event>
<event>
 6    0  0.3643696E+002  0.1440006E+03  0.7546771E-02  0.1208045E+00
         21   -1    0    0  503  502  0.00000000000E+00  0.00000000000E+00  0.28291066027E+03  0.28291066027E+03  0.00000000000E+00 0. -1.
          2   -1    0    0  504    0 -0.00000000000E+00 -0.00000000000E+00 -0.94617722729E+03  0.94617722729E+03  0.00000000000E+00 0. -1.
         21    1    1    2  503  501 -0.67860028904E+02  0.33383368082E+02 -0.33760854890E+03  0.34597538218E+03  0.00000000000E+00 0.  1.
         21    1    1    2  504  505  0.84549003713E+02 -0.89629788445E+02 -0.36897119739E+03  0.38900099937E+03  0.00000000000E+00 0. -1.
         21    1    1    2  505  502  0.50225130086E+02  0.86553171325E+01  0.25866405157E+03  0.26363719347E+03  0.00000000000E+00 0. -1.
          2    1    1    2  501    0 -0.66914104895E+02  0.47591103231E+02 -0.21535087229E+03  0.23047431253E+03  0.00000000000E+00 0. -1.
<scales pt_clust_3="40.82041" pt_clust_4="137.57536" pt_clust_5="50.96546" pt_clust_6="40.82041"></scales>
<clustering>
<clus scale="   40.820">  3  6 -1 -1</clus>
<clus scale="   50.965">  1  5  2 -1</clus>
<clus scale="  137.575">  2  4  1 -1</clus>
<clus scale="   50.965">  1  3  2 -1</clus>
</clustering>
</event>
<event>
 6    0  0.3643696E+002  0.1058870E+03  0.7546771E-02  0.1268382E+00
         21   -1    0    0  504  502  0.00000000000E+00  0.00000000000E+00  0.15519112116E+04  0.15519112116E+04  0.00000000000E+00 0.  1.
          1   -1    0    0  505    0 -0.00000000000E+00 -0.00000000000E+00 -0.22630772798E+04  0.22630772798E+04  0.00000000000E+00 0.  1.
         21    1    1    2  503  501 -0.13734929549E+02 -0.87750033231E+02 -0.25596001402E+03  0.27093217860E+03  0.00000000000E+00 0.  1.
         21    1    1    2  504  503 -0.46699467746E+02  0.59535595668E+02  0.15404024293E+04  0.15422596965E+04  0.00000000000E+00 0.  1.
         21    1    1    2  505  502  0.49667443924E+02  0.73750366997E+02 -0.17158304148E+04  0.17181327027E+04  0.00000000000E+00 0.  1.
          1    1    1    2  501    0  0.10766953371E+02 -0.45535929435E+02 -0.27977806860E+03  0.28366391350E+03  0.00000000000E+00 0.  1.
<scales pt_clust_3="38.32176" pt_clust_4="75.66589" pt_clust_5="91.78496" pt_clust_6="38.32176"></scales>
<clustering>
<clus scale="   38.322">  3  6 -1 -1</clus>
<clus scale="   75.666">  1  4  2 -1</clus>
<clus scale="   91.785">  2  5  1 -1</clus>
<clus scale="   75.666">  1  3  2 -1</clus>
</clustering>
</event>
<event>
 6    0  0.3643696E+002  0.1257411E+03  0.7546771E-02  0.1233916E+00
          1   -1    0    0  503    0 -0.00000000000E+00  0.00000000000E+00  0.57350139545E+03  0.57350139545E+03  0.00000000000E+00 0. -1.
         21   -1    0    0  505  502  0.00000000000E+00 -0.00000000000E+00 -0.41981137731E+03  0.41981137731E+03  0.00000000000E+00 0.  1.
         21    1    1    2  503  504 -0.60228895614E+01  0.50707348666E+02  0.93866606827E+02  0.10685714896E+03  0.00000000000E+00 0. -1.
         21    1    1    2  504  502 -0.38441801968E+02 -0.81642400066E+02 -0.38554962871E+03  0.39596940516E+03  0.00000000000E+00 0.  1.
         21    1    1    2  505  501 -0.27877713189E+01 -0.41780338334E+02  0.56018363040E+01  0.42246288715E+02  0.00000000000E+00 0.  1.
          1    1    1    2  501    0  0.47252462848E+02  0.72715389734E+02  0.43977120372E+03  0.44823992992E+03  0.00000000000E+00 0. -1.
<scales pt_clust_3="50.39806" pt_clust_4="125.74113" pt_clust_5="41.87324" pt_clust_6="14000.00000"></scales>
<clustering>
<clus scale="   41.873">  2  5  1 -1</clus>
<clus scale="   50.398">  1  3  2 -1</clus>
<clus scale="  125.741">  2  4  1 -1</clus>
<clus scale="   41.873">  2  3  1 -1</clus>
</clustering>
</event>
<event>
 6    0  0.3643696E+002  0.2750065E+03  0.7546771E-02  0.1098448E+00
          4   -1    0    0  503    0 -0.00000000000E+00  0.00000000000E+00  0.31873180277E+03  0.31873180277E+03  0.00000000000E+00 0.  1.
         21   -1    0    0  505  502  0.00000000000E+00 -0.00000000000E+00 -0.10621262791E+04  0.10621262791E+04  0.00000000000E+00 0.  1.
         21    1    1    2  503  504  0.17063986356E+02 -0.12704496385E+03 -0.43168322810E+02  0.13525940472E+03  0.00000000000E+00 0.  1.
         21    1    1    2  504  502 -0.26620276909E+03 -0.23880804732E+02 -0.86443055157E+03  0.90480626965E+03  0.00000000000E+00 0.  1.
         21    1    1    2  505  501  0.79889536824E+02  0.71854823630E+02  0.88588351573E+02  0.13926000792E+03  0.00000000000E+00 0. -1.
          4    1    1    2  501    0  0.16924924591E+03  0.79070944953E+02  0.75616046506E+02  0.20153239954E+03  0.00000000000E+00 0.  1.
<scales pt_clust_3="128.18581" pt_clust_4="267.02229" pt_clust_5="49.89197" pt_clust_6="49.89197"></scales>
<clustering>
<clus scale="   49.892">  5  6 -1 -1</clus>
<clus scale="  128.186">  1  3  2 -1</clus>
<clus scale="  267.022">  2  4  1 -1</clus>
<clus scale="  267.022">  2  3  1 -1</clus>
</clustering>
</event>
<event>
 6    0  0.3643696E+002  0.6850465E+02  0.7546771E-02  0.1365253E+00
         21   -1    0    0  504  502  0.00000000000E+00  0.00000000000E+00  0.40773667157E+02  0.40773667157E+02  0.00000000000E+00 0.  1.
          3   -1    0    0  505    0 -0.00000000000E+00 -0.00000000000E+00 -0.26260346309E+04  0.26260346309E+04  0.00000000000E+00 0.  1.
         21    1    1    2  503  502 -0.30075075929E+02 -0.15491110384E+02  0.15333643416E+02  0.37143038560E+02  0.00000000000E+00 0.  1.
         21    1    1    2  504  501  0.19337870702E+02 -0.53988962954E+02 -0.11887620583E+03  0.13198603592E+03  0.00000000000E+00 0.  1.
         21    1    1    2  505  503  0.15372920922E+02  0.13308309824E+03 -0.59550584766E+03  0.61038893529E+03  0.00000000000E+00 0.  1.
          3    1    1    2  501    0 -0.46357156947E+01 -0.63603024899E+02 -0.18862125537E+04  0.18872902883E+04  0.00000000000E+00 0.  1.
<scales pt_clust_3="33.83023" pt_clust_4="61.24778" pt_clust_5="14000.00000" pt_clust_6="68.50465"></scales>
<clustering>
<clus scale="   33.830">  1  3  2 -1</clus>
<clus scale="   61.248">  1  4  2 -1</clus>
<clus scale="   68.505">  2  6  1 -1</clus>
<clus scale="   33.830">  1  3  2 -1</clus>
</clustering>
</event>
<event>
 6    0  0.3643696E+002  0.8889682E+02  0.7546771E-02  0.1305545E+00
         21   -1    0    0  504  502  0.00000000000E+00  0.00000000000E+00  0.13408293859E+04  0.13408293859E+04  0.00000000000E+00 0.  1.
          2   -1    0    0  505    0 -0.00000000000E+00 -0.00000000000E+00 -0.13073623900E+04  0.13073623900E+04  0.00000000000E+00 0.  1.
         21    1    1    2  503  502 -0.48225175729E+02  0.60510161835E+02 -0.89829088417E+02  0.11855974184E+03  0.00000000000E+00 0. -1.
         21    1    1    2  504  501 -0.11903232081E+02  0.44728913182E+02  0.13179323255E+04  0.13187448492E+04  0.00000000000E+00 0.  1.
         21    1    1    2  505  503 -0.32602335019E+00 -0.40235874574E+02 -0.94641831060E+03  0.94727327131E+03  0.00000000000E+00 0.  1.
          2    1    1    2  501    0  0.60454431161E+02 -0.65003200443E+02 -0.24821793065E+03  0.26361391353E+03  0.00000000000E+00 0.  1.
<scales pt_clust_3="88.89682" pt_clust_4="46.24194" pt_clust_5="40.23720" pt_clust_6="14000.00000"></scales>
<clustering>
<clus scale="   40.237">  2  5  1 -1</clus>
<clus scale="   46.242">  1  4  2 -1</clus>
<clus scale="   88.897">  2  3  1 -1</clus>
<clus scale="   46.242">  1  3  2 -1</clus>
</clustering>
</event>
<event>
 6    0  0.3643696E+002  0.1123287E+03  0.7546771E-02  0.1256317E+00
         21   -1    0    0  505  502  0.00000000000E+00  0.00000000000E+00  0.61028579713E+02  0.61028579713E+02  0.00000000000E+00 0. -1.
          2   -1    0    0  503    0 -0.00000000000E+00 -0.00000000000E+00 -0.20683314674E+04  0.20683314674E+04  0.00000000000E+00 0.  1.
         21    1    1    2  503  504  0.42109913502E+02 -0.32545717941E+02 -0.15050474747E+03  0.15963755067E+03  0.00000000000E+00 0.  1.
         21    1    1    2  504  502  0.11907324058E+03  0.13110738190E+02 -0.13918671123E+04  0.13970126651E+04  0.00000000000E+00 0.  1.
         21    1    1    2  505  501 -0.70596291730E+02  0.40578504483E+02  0.15898329293E+02  0.82965102944E+02  0.00000000000E+00 0. -1.
          2    1    1    2  501    0 -0.90586862356E+02 -0.21143524733E+02 -0.48082935725E+03  0.48974472847E+03  0.00000000000E+00 0.  1.
<scales pt_clust_3="53.22094" pt_clust_4="112.32865" pt_clust_5="80.50354" pt_clust_6="14000.00000"></scales>
<clustering>
<clus scale="   53.221">  2  3  1 -1</clus>
<clus scale="   80.504">  1  5  2 -1</clus>
<clus scale="  112.329">  2  4  1 -1</clus>
<clus scale="   80.504">  1  3  2 -1</clus>
</clustering>
</event>
<event>
 6    0  0.3643696E+002  0.1954225E+03  0.7546771E-02  0.1153660E+00
         21   -1    0    0  504  502  0.00000000000E+00  0.00000000000E+00  0.15666996055E+03  0.15666996055E+03  0.00000000000E+00 0.  1.
          2   -1    0    0  505    0 -0.00000000000E+00 -0.00000000000E+00 -0.23414428875E+04  0.23414428875E+04  0.00000000000E+00 0. -1.
         21    1    1    2  503  502  0.75260310553E+02 -0.15050333144E+03 -0.95605222496E+03  0.97074776537E+03  0.00000000000E+00 0.  1.
         21    1    1    2  504  501  0.40743380727E+02 -0.26792758660E+02  0.13227896959E+03  0.14098085255E+03  0.00000000000E+00 0.  1.
         21    1    1    2  505  503 -0.18386498944E+02 -0.28330683682E+02 -0.11905896437E+03  0.12375672902E+03  0.00000000000E+00 0. -1.
          2    1    1    2  501    0 -0.97617192336E+02  0.20562677378E+03 -0.12419407072E+04  0.12626275011E+04  0.00000000000E+00 0. -1.
<scales pt_clust_3="195.42249" pt_clust_4="48.76390" pt_clust_5="33.77412" pt_clust_6="14000.00000"></scales>
<clustering>
<clus scale="   33.774">  2  5  1 -1</clus>
<clus scale="   48.764">  1  4  2 -1</clus>
<clus scale="  195.422">  2  3  1 -1</clus>
<clus scale="   48.764">  1  3  2 -1</clus>
</clustering>
</event>
<event>
 6    0  0.3643696E+002  0.1620109E+03  0.7546771E-02  0.1186445E+00
         -1   -1    0    0    0  501 -0.00000000000E+00  0.00000000000E+00  0.26905850609E+03  0.26905850609E+03  0.00000000000E+00 0.  1.
         21   -1    0    0  503  502  0.00000000000E+00 -0.00000000000E+00 -0.47104718544E+03  0.47104718544E+03  0.00000000000E+00 0.  1.
         21    1    1    2  503  505 -0.47294255218E+02 -0.16268980058E+03 -0.40576175788E+03  0.43971277210E+03  0.00000000000E+00 0.  1.
         21    1    1    2  504  501  0.33872001311E+02  0.57282293549E+01  0.15835278429E+02  0.37826989403E+02  0.00000000000E+00 0.  1.
         21    1    1    2  505  504  0.28911629727E+02  0.36438560382E+02  0.10669723382E+03  0.11639566453E+03  0.00000000000E+00 0.  1.
         -1    1    1    2    0  502 -0.15489375821E+02  0.12052301084E+03  0.81240566276E+02  0.14617026550E+03  0.00000000000E+00 0.  1.
<scales pt_clust_3="14000.00000" pt_clust_4="34.35295" pt_clust_5="59.22912" pt_clust_6="162.01094"></scales>
<clustering>
<clus scale="   34.353">  1  4  2 -1</clus>
<clus scale="   59.229">  1  5  2 -1</clus>
<clus scale="  162.011">  1  6  2 -1</clus>
<clus scale="  162.011">  2  3  1 -1</clus>
</clustering>
</event>
<event>
 6    0  0.3643696E+002  0.1137366E+03  0.7546771E-02  0.1253803E+00
         21   -1    0    0  503  502  0.00000000000E+00  0.00000000000E+00  0.47587713044E+03  0.47587713044E+03  0.00000000000E+00 0.  1.
          2   -1    0    0  505    0 -0.00000000000E+00 -0.00000000000E+00 -0.83258658282E+03  0.83258658282E+03  0.00000000000E+00 0.  1.
         21    1    1    2  503  501  0.54168850748E+02 -0.26259120734E+02  0.25934079744E+00  0.60198613529E+02  0.00000000000E+00 0.  1.
         21    1    1    2  504  502  0.30982733997E+02 -0.51946129990E+02  0.43521574502E+03  0.43939853771E+03  0.00000000000E+00 0.  1.
         21    1    1    2  505  504 -0.29812883464E+02 -0.72790490034E+01 -0.43198937700E+02  0.52990006541E+02  0.00000000000E+00 0. -1.
          2    1    1    2  501    0 -0.55338701281E+02  0.85484299727E+02 -0.74898560051E+03  0.75587655548E+03  0.00000000000E+00 0.  1.
<scales pt_clust_3="59.29920" pt_clust_4="113.73657" pt_clust_5="30.68864" pt_clust_6="14000.00000"></scales>
<clustering>
<clus scale="   30.689">  2  5  1 -1</clus>
<clus scale="   59.299">  1  3  2 -1</clus>
<clus scale="  113.737">  1  4  2 -1</clus>
<clus scale="   59.299">  1  3  2 -1</clus>
</clustering>
</event>
<event>
 6    0  0.4337312E+002  0.1047326E+03  0.7546771E-02  0.1270647E+00
         21   -1    0    0  503  502  0.00000000000E+00  0.00000000000E+00  0.11247473801E+04  0.11247473801E+04  0.00000000000E+00 0. -1.
          2   -1    0    0  504    0 -0.00000000000E+00 -0.00000000000E+00 -0.16550251724E+04  0.16550251724E+04  0.00000000000E+00 0. -1.
         21    1    1    2  503  505  0.48984864635E+02  0.58015234335E+01  0.10908488252E+04  0.10919635224E+04  0.00000000000E+00 0. -1.
         21    1    1    2  504  502  0.37606943757E+02 -0.17031274351E+01 -0.27354535768E+02  0.46534433368E+02  0.00000000000E+00 0. -1.
         21    1    1    2  505  501 -0.12823961382E+02  0.98568241920E+02 -0.96040263976E+02  0.13821680290E+03  0.00000000000E+00 0. -1.
          2    1    1    2  501    0 -0.73767847010E+02 -0.10266663792E+03 -0.14977318178E+04  0.15030577939E+04  0.00000000000E+00 0. -1.
<scales pt_clust_3="49.34001" pt_clust_4="37.64549" pt_clust_5="14000.00000" pt_clust_6="104.73255"></scales>
<clustering>
<clus scale="   37.645">  2  4  1 -1</clus>
<clus scale="   49.340">  1  3  2 -1</clus>
<clus scale="  104.733">  2  6  1 -1</clus>
<clus scale="   49.340">  1  3  2 -1</clus>
</clustering>
</event>
<event>
 6    0  0.3643696E+002  0.9577333E+02  0.7546771E-02  0.1289444E+00
          2   -1    0    0  504    0 -0.00000000000E+00  0.00000000000E+00  0.29963355077E+03  0.29963355077E+03  0.00000000000E+00 0.  1.
         21   -1    0    0  503  502  0.00000000000E+00 -0.00000000000E+00 -0.25640944758E+03  0.25640944758E+03  0.00000000000E+00 0. -1.
         21    1    1    2  503  505  0.53958491152E+02  0.30435420633E+02 -0.19394027386E+03  0.20359435999E+03  0.00000000000E+00 0. -1.
         21    1    1    2  504  502  0.31801591832E+02 -0.16363654399E+02  0.17757362616E+02  0.39930368836E+02  0.00000000000E+00 0.  1.
         21    1    1    2  505  501 -0.52276366993E+02  0.81592704054E+02  0.36774399690E+02  0.10364624631E+03  0.00000000000E+00 0.  1.
          2    1    1    2  501    0 -0.33483715991E+02 -0.95664470288E+02  0.18263261475E+03  0.20887202322E+03  0.00000000000E+00 0.  1.
<scales pt_clust_3="62.30298" pt_clust_4="35.76465" pt_clust_5="14000.00000" pt_clust_6="95.77333"></scales>
<clustering>
<clus scale="   35.765">  1  4  2 -1</clus>
<clus scale="   62.303">  2  3  1 -1</clus>
<clus scale="   95.773">  1  6  2 -1</clus>
<clus scale="   62.303">  2  3  1 -1</clus>
</clustering>
</event>
<event>
 6    0  0.3643696E+002  0.1796336E+03  0.7546771E-02  0.1168158E+00
          2   -1    0    0  505    0 -0.00000000000E+00  0.00000000000E+00  0.28030809560E+03  0.28030809560E+03  0.00000000000E+00 0. -1.
         21   -1    0    0  504  502  0.00000000000E+00 -0.00000000000E+00 -0.43162857798E+03  0.43162857798E+03  0.00000000000E+00 0. -1.
         21    1    1    2  503  502  0.14250394146E+03  0.75136280447E+02 -0.35913458228E+03  0.39361209606E+03  0.00000000000E+00 0. -1.
         21    1    1    2  504  501 -0.93630994156E+02 -0.14189507389E+02  0.53553541775E+02  0.10879378210E+03  0.00000000000E+00 0.  1.
         21    1    1    2  505  503  0.30948636084E+02 -0.14661309015E+02  0.58010574166E+01  0.34733619515E+02  0.00000000000E+00 0.  1.
          2    1    1    2  501    0 -0.79821583387E+02 -0.46285464043E+02  0.14845950071E+03  0.17479717591E+03  0.00000000000E+00 0. -1.
<scales pt_clust_3="162.47053" pt_clust_4="74.84793" pt_clust_5="34.24576" pt_clust_6="74.84793"></scales>
<clustering>
<clus scale="   34.246">  1  5  2 -1</clus>
<clus scale="   74.848">  4  6 -1 -1</clus>
<clus scale="  162.471">  2  3  1 -1</clus>
<clus scale="  162.471">  2  3  1 -1</clus>
</clustering>
</event>
<event>
 6    0  0.3643696E+002  0.1116107E+03  0.7546771E-02  0.1257616E+00
          1   -1    0    0  503    0 -0.00000000000E+00  0.00000000000E+00  0.11563439696E+04  0.11563439696E+04  0.00000000000E+00 0.  1.
         21   -1    0    0  505  502  0.00000000000E+00 -0.00000000000E+00 -0.17591571368E+03  0.17591571368E+03  0.00000000000E+00 0. -1.
         21    1    1    2  503  504  0.52683099905E+02 -0.79965099361E+02  0.53807724808E+03  0.54653183899E+03  0.00000000000E+00 0.  1.
         21    1    1    2  504  502  0.30209089957E+02  0.64384831682E+02 -0.13993321474E+03  0.15696910605E+03  0.00000000000E+00 0. -1.
         21    1    1    2  505  501  0.25278528561E+02  0.39918893293E+02  0.13318891603E+02  0.49090884301E+02  0.00000000000E+00 0. -1.
          1    1    1    2  501    0 -0.10817071842E+03 -0.24338625613E+02  0.56896533099E+03  0.57966785394E+03  0.00000000000E+00 0.  1.
<scales pt_clust_3="95.24702" pt_clust_4="14000.00000" pt_clust_5="47.24957" pt_clust_6="111.61065"></scales>
<clustering>
<clus scale="   47.250">  2  5  1 -1</clus>
<clus scale="   95.247">  1  3  2 -1</clus>
<clus scale="  111.611">  1  6  2 -1</clus>
<clus scale="   47.250">  2  3  1 -1</clus>
</clustering>
</event>
<event>
 6    0  0.3643696E+002  0.1138824E+03  0.7546771E-02  0.1253545E+00
         21   -1    0    0  501  502  0.00000000000E+00  0.00000000000E+00  0.42487002942E+03  0.42487002942E+03  0.00000000000E+00 0.  1.
          2   -1    0    0  503    0 -0.00000000000E+00 -0.00000000000E+00 -0.89942433312E+03  0.89942433312E+03  0.00000000000E+00 0. -1.
         21    1    1    2  503  505 -0.53686176436E+02 -0.14989148992E+02 -0.85670099878E+02  0.10220687913E+03  0.00000000000E+00 0.  1.
         21    1    1    2  504  502  0.85708614798E+02 -0.76048282252E+02  0.39459357542E+03  0.41089341397E+03  0.00000000000E+00 0.  1.
         21    1    1    2  505  504  0.44858726217E+02  0.83825268765E+02 -0.18741971867E+03  0.21015501885E+03  0.00000000000E+00 0. -1.
          2    1    1    2  501    0 -0.76881164578E+02  0.72121624792E+01 -0.59605806058E+03  0.60103905059E+03  0.00000000000E+00 0. -1.
<scales pt_clust_3="55.73939" pt_clust_4="14000.00000" pt_clust_5="86.13560" pt_clust_6="113.88243"></scales>
<clustering>
<clus scale="   55.739">  2  3  1 -1</clus>
<clus scale="   86.136">  2  5  1 -1</clus>
<clus scale="  113.882">  2  6  1 -1</clus>
<clus scale="  113.882">  1  3  2 -1</clus>
</clustering>
</event>
<event>
 6    0  0.3643696E+002  0.6907827E+02  0.7546771E-02  0.1363256E+00
         21   -1    0    0  503  502  0.00000000000E+00  0.00000000000E+00  0.24665589367E+03  0.24665589367E+03  0.00000000000E+00 0. -1.
          2   -1    0    0  505    0 -0.00000000000E+00 -0.00000000000E+00 -0.15211283416E+04  0.15211283416E+04  0.00000000000E+00 0. -1.
         21    1    1    2  503  504 -0.32199941457E+02 -0.41466408970E+02  0.21690671199E+03  0.22316993751E+03  0.00000000000E+00 0. -1.
         21    1    1    2  504  501 -0.42883303121E+02 -0.23492917642E+02 -0.28963264112E+03  0.29373110435E+03  0.00000000000E+00 0. -1.
         21    1    1    2  505  502  0.10392300327E+03  0.30394104715E+02 -0.97457160230E+02  0.14567666351E+03  0.00000000000E+00 0.  1.
          2    1    1    2  501    0 -0.28839758695E+02  0.34565221897E+02 -0.11042893586E+04  0.11052065299E+04  0.00000000000E+00 0. -1.
<scales pt_clust_3="52.42922" pt_clust_4="14000.00000" pt_clust_5="69.07827" pt_clust_6="45.01651"></scales>
<clustering>
<clus scale="   45.017">  2  6  1 -1</clus>
<clus scale="   52.429">  1  3  2 -1</clus>
<clus scale="   69.078">  1  5  2 -1</clus>
<clus scale="   52.429">  1  3  2 -1</clus>
</clustering>
</event>
<event>
 6    0  0.3643696E+002  0.7379948E+02  0.7546771E-02  0.1347629E+00
         -3   -1    0    0    0  501 -0.00000000000E+00  0.00000000000E+00  0.24573713146E+03  0.24573713146E+03  0.00000000000E+00 0. -1.
         21   -1    0    0  504  502  0.00000000000E+00 -0.00000000000E+00 -0.17021477749E+04  0.17021477749E+04  0.00000000000E+00 0. -1.
         21    1    1    2  503  501  0.35169365389E+02  0.38984443469E+02 -0.35001024603E+02  0.63101052429E+02  0.00000000000E+00 0.  1.
         21    1    1    2  504  503  0.41909329220E+02  0.41041190656E+02  0.47497017731E+02  0.75476737473E+02  0.00000000000E+00 0.  1.
         21    1    1    2  505  502  0.48472759093E+02  0.54916256381E+02 -0.15881132171E+04  0.15898015580E+04  0.00000000000E+00 0. -1.
         -3    1    1    2    0  505 -0.12555145370E+03 -0.13494189051E+03  0.11920658053E+03  0.21950555843E+03  0.00000000000E+00 0. -1.
<scales pt_clust_3="52.50401" pt_clust_4="72.57045" pt_clust_5="73.79948" pt_clust_6="14000.00000"></scales>
<clustering>
<clus scale="   52.504">  1  3  2 -1</clus>
<clus scale="   72.570">  1  4  2 -1</clus>
<clus scale="   73.799">  2  5  1 -1</clus>
<clus scale="   73.799">  2  3  1 -1</clus>
</clustering>
</event>
<event>
 6    0  0.3643696E+002  0.3014671E+03  0.7546771E-02  0.1084510E+00
          1   -1    0    0  502    0 -0.00000000000E+00  0.00000000000E+00  0.19871344348E+04  0.19871344348E+04  0.00000000000E+00 0.  1.
         21   -1    0    0  503  502  0.00000000000E+00 -0.00000000000E+00 -0.33202695326E+03  0.33202695326E+03  0.00000000000E+00 0. -1.
         21    1    1    2  503  505 -0.98194840114E+01 -0.29085732049E+02 -0.21900845968E+03  0.22114951387E+03  0.00000000000E+00 0. -1.
         21    1    1    2  504  501  0.49407766201E+02  0.92223810401E+02  0.55853075763E+03  0.56824551541E+03  0.00000000000E+00 0.  1.
         21    1    1    2  505  504 -0.15770316339E+02 -0.26100872702E+03  0.73255720827E+02  0.27155231373E+03  0.00000000000E+00 0. -1.
          1    1    1    2  501    0 -0.23817965850E+02  0.19787064867E+03  0.12423294627E+04  0.12582140450E+04  0.00000000000E+00 0.  1.
<scales pt_clust_3="30.69857" pt_clust_4="64.90797" pt_clust_5="287.81079" pt_clust_6="64.90797"></scales>
<clustering>
<clus scale="   30.699">  2  3  1 -1</clus>
<clus scale="   64.908">  4  6 -1 -1</clus>
<clus scale="  287.811">  2  5  1 -1</clus>
<clus scale="   30.699">  2  3  1 -1</clus>
</clustering>
</event>
<event>
 6    0  0.3643696E+002  0.1136472E+03  0.7546771E-02  0.1253961E+00
         21   -1    0    0  504  502  0.00000000000E+00  0.00000000000E+00  0.50337533926E+02  0.50337533926E+02  0.00000000000E+00 0.  1.
          1   -1    0    0  505    0 -0.00000000000E+00 -0.00000000000E+00 -0.66542487101E+03  0.66542487101E+03  0.00000000000E+00 0.  1.
         21    1    1    2  503  501 -0.55915608487E+02 -0.54190426062E+02 -0.17660604894E+03  0.19300998439E+03  0.00000000000E+00 0.  1.
         21    1    1    2  504  503  0.94281699632E+02  0.41157267940E+02 -0.31347597572E+02  0.10754362586E+03  0.00000000000E+00 0.  1.
         21    1    1    2  505  502 -0.19543994847E+02  0.42119989657E+02 -0.21227764192E+03  0.21729670620E+03  0.00000000000E+00 0. -1.
          1    1    1    2  501    0 -0.18822096299E+02 -0.29086831536E+02 -0.19485604865E+03  0.19791208849E+03  0.00000000000E+00 0.  1.
<scales pt_clust_3="32.09510" pt_clust_4="102.95891" pt_clust_5="46.43341" pt_clust_6="32.09510"></scales>
<clustering>
<clus scale="   32.095">  3  6 -1 -1</clus>
<clus scale="   46.433">  2  5  1 -1</clus>
<clus scale="  102.959">  1  4  2 -1</clus>
<clus scale="  102.959">  1  3  2 -1</clus>
</clustering>
</event>
<event>
 6    0  0.3643696E+002  0.1547760E+03  0.7546771E-02  0.1194724E+00
         21   -1    0    0  505  502  0.00000000000E+00  0.00000000000E+00  0.59936037831E+03  0.59936037831E+03  0.00000000000E+00 0. -1.
          2   -1    0    0  504    0 -0.00000000000E+00 -0.00000000000E+00 -0.20844401858E+04  0.20844401858E+04  0.00000000000E+00 0. -1.
         21    1    1    2  503  502  0.68283133549E+02  0.42662503563E+02  0.56267499011E+03  0.56840638634E+03  0.00000000000E+00 0. -1.
         21    1    1    2  504  503  0.82415478169E+02  0.17322245831E+03 -0.63569809904E+03  0.66401084647E+03  0.00000000000E+00 0. -1.
         21    1    1    2  505  501 -0.49202732831E+02 -0.15463473258E+03 -0.38912212186E+03  0.42160269823E+03  0.00000000000E+00 0. -1.
          2    1    1    2  501    0 -0.10149587889E+03 -0.61250229293E+02 -0.10229345767E+04  0.10297806330E+04  0.00000000000E+00 0. -1.
<scales pt_clust_3="80.51506" pt_clust_4="154.77604" pt_clust_5="14000.00000" pt_clust_6="110.39716"></scales>
<clustering>
<clus scale="   80.515">  1  3  2 -1</clus>
<clus scale="  110.397">  2  6  1 -1</clus>
<clus scale="  154.776">  2  4  1 -1</clus>
<clus scale="   80.515">  1  3  2 -1</clus>
</clustering>
</event>
<event>
 6    0  0.3643696E+002  0.8531987E+02  0.7546771E-02  0.1314598E+00
         21   -1    0    0  503  502  0.00000000000E+00  0.00000000000E+00  0.14042208324E+03  0.14042208324E+03  0.00000000000E+00 0.  1.
          1   -1    0    0  504    0 -0.00000000000E+00 -0.00000000000E+00 -0.55831280015E+03  0.55831280015E+03  0.00000000000E+00 0. -1.
         21    1    1    2  503  501 -0.14105748736E+02  0.57425514794E+02  0.69877809945E+02  0.91539992460E+02  0.00000000000E+00 0.  1.
         21    1    1    2  504  505 -0.56368784370E+02  0.19626628304E+02 -0.28136277361E+03  0.28762415539E+03  0.00000000000E+00 0. -1.
         21    1    1    2  505  502 -0.45260249843E+02  0.42325623182E+01  0.22328039531E+02  0.50645297401E+02  0.00000000000E+00 0.  1.
          1    1    1    2  501    0  0.11573478295E+03 -0.81284705417E+02 -0.22873379277E+03  0.26892543813E+03  0.00000000000E+00 0. -1.
<scales pt_clust_3="85.31987" pt_clust_4="61.01819" pt_clust_5="45.45773" pt_clust_6="14000.00000"></scales>
<clustering>
<clus scale="   45.458">  1  5  2 -1</clus>
<clus scale="   61.018">  2  4  1 -1</clus>
<clus scale="   85.320">  1  3  2 -1</clus>
<clus scale="   45.458">  1  3  2 -1</clus>
</clustering>
</event>
<event>
 6    0  0.3643696E+002  0.1764271E+03  0.7546771E-02  0.1171306E+00
          2   -1    0    0  505    0 -0.00000000000E+00  0.00000000000E+00  0.11950441133E+04  0.11950441133E+04  0.00000000000E+00 0. -1.
         21   -1    0    0  501  502  0.00000000000E+00 -0.00000000000E+00 -0.83972973410E+03  0.83972973410E+03  0.00000000000E+00 0. -1.
         21    1    1    2  503  502  0.16882805397E+03  0.50437049705E+02 -0.81084540351E+03  0.82976929094E+03  0.00000000000E+00 0. -1.
         21    1    1    2  504  503 -0.66837882096E+01  0.42112883359E+02  0.44508872887E+03  0.44712654198E+03  0.00000000000E+00 0. -1.
         21    1    1    2  505  504  0.19366449226E+02 -0.26920846806E+02  0.53319876133E+02  0.62791723493E+02  0.00000000000E+00 0. -1.
          2    1    1    2  501    0 -0.18151071499E+03 -0.65629086258E+02  0.66775117765E+03  0.69508629095E+03  0.00000000000E+00 0. -1.
<scales pt_clust_3="176.42709" pt_clust_4="31.56351" pt_clust_5="33.16310" pt_clust_6="14000.00000"></scales>
<clustering>
<clus scale="   33.163">  1  5  2 -1</clus>
<clus scale="   31.564">  1  4  2 -1</clus>
<clus scale="  176.427">  2  3  1 -1</clus>
<clus scale="  176.427">  2  3  1 -1</clus>
</clustering>
</event>
<event>
 6    0  0.3643696E+002  0.9366890E+02  0.7546771E-02  0.1294203E+00
          2   -1    0    0  504    0 -0.00000000000E+00  0.00000000000E+00  0.24588198683E+04  0.24588198683E+04  0.00000000000E+00 0.  1.
         21   -1    0    0  503  502  0.00000000000E+00 -0.00000000000E+00 -0.37892468984E+03  0.37892468984E+03  0.00000000000E+00 0.  1.
         21    1    1    2  503  505  0.38969328080E+02  0.36067495343E+01 -0.36046687516E+03  0.36258514209E+03  0.00000000000E+00 0.  1.
         21    1    1    2  504  502  0.69737909086E+02 -0.44390267851E+02  0.10827759369E+03  0.13622741699E+03  0.00000000000E+00 0.  1.
         21    1    1    2  505  501 -0.43648016699E+02  0.61176296220E+02  0.50356237019E+03  0.50913922384E+03  0.00000000000E+00 0. -1.
          2    1    1    2  501    0 -0.65059220467E+02 -0.20392777904E+02  0.18285220898E+04  0.18297927752E+04  0.00000000000E+00 0.  1.
<scales pt_clust_3="39.13588" pt_clust_4="93.66890" pt_clust_5="14000.00000" pt_clust_6="66.78380"></scales>
<clustering>
<clus scale="   39.136">  2  3  1 -1</clus>
<clus scale="   66.784">  1  6  2 -1</clus>
<clus scale="   93.669">  2  4  1 -1</clus>
<clus scale="   39.136">  2  3  1 -1</clus>
</clustering>
</event>
<event>
 6    0  0.3643696E+002  0.1315410E+03  0.7546771E-02  0.1225187E+00
          1   -1    0    0  503    0 -0.00000000000E+00  0.00000000000E+00  0.45866154126E+03  0.45866154126E+03  0.00000000000E+00 0. -1.
         21   -1    0    0  504  502  0.00000000000E+00 -0.00000000000E+00 -0.12061341405E+03  0.12061341405E+03  0.00000000000E+00 0.  1.
         21    1    1    2  503  502 -0.65296661490E+02  0.88040253267E+02  0.23625185357E+03  0.26044131491E+03  0.00000000000E+00 0. -1.
         21    1    1    2  504  505 -0.32976266989E+02  0.60604575227E+02 -0.46424937121E+02  0.83160227932E+02  0.00000000000E+00 0.  1.
         21    1    1    2  505  501  0.66607250843E+02 -0.86547036064E+02  0.64897390362E+02  0.12703773688E+03  0.00000000000E+00 0. -1.
          1    1    1    2  501    0  0.31665677637E+02 -0.62097792430E+02  0.83323820387E+02  0.10863567558E+03  0.00000000000E+00 0. -1.
<scales pt_clust_3="124.43256" pt_clust_4="68.99528" pt_clust_5="34.07897" pt_clust_6="34.07897"></scales>
<clustering>
<clus scale="   34.079">  5  6 -1 -1</clus>
<clus scale="   68.995">  2  4  1 -1</clus>
<clus scale="  124.433">  1  3  2 -1</clus>
<clus scale="   68.995">  2  3  1 -1</clus>
</clustering>
</event>
<event>
 6    0  0.3643696E+002  0.7929222E+02  0.7546771E-02  0.1331072E+00
         -1   -1    0    0    0  501 -0.00000000000E+00  0.00000000000E+00  0.15282924222E+03  0.15282924222E+03  0.00000000000E+00 0.  1.
         21   -1    0    0  505  502  0.00000000000E+00 -0.00000000000E+00 -0.68355947793E+03  0.68355947793E+03  0.00000000000E+00 0.  1.
         21    1    1    2  503  504  0.17633468374E+02 -0.60378188885E+02 -0.22284405303E+02  0.66731249199E+02  0.00000000000E+00 0.  1.
         21    1    1    2  504  501  0.32804204926E+02 -0.15001876736E+02  0.92529271115E+02  0.99311822959E+02  0.00000000000E+00 0.  1.
         21    1    1    2  505  503 -0.43769000022E+02 -0.25496585421E+02 -0.55832907434E+03  0.56062211559E+03  0.00000000000E+00 0.  1.
         -1    1    1    2    0  502 -0.66686732773E+01  0.10087665104E+03 -0.42646027183E+02  0.10972353240E+03  0.00000000000E+00 0.  1.
<scales pt_clust_3="79.29222" pt_clust_4="36.07176" pt_clust_5="50.23831" pt_clust_6="14000.00000"></scales>
<clustering>
<clus scale="   36.072">  1  4  2 -1</clus>
<clus scale="   50.238">  2  5  1 -1</clus>
<clus scale="   79.292">  1  3  2 -1</clus>
<clus scale="   50.238">  2  3  1 -1</clus>
</clustering>
</event>
<event>
 6    0  0.3643696E+002  0.1197449E+03  0.7546771E-02  0.1243518E+00
         21   -1    0    0  505  502  0.00000000000E+00  0.00000000000E+00  0.50937012278E+03  0.50937012278E+03  0.00000000000E+00 0. -1.
          1   -1    0    0  503    0 -0.00000000000E+00 -0.00000000000E+00 -0.14685706086E+04  0.14685706086E+04  0.00000000000E+00 0. -1.
         21    1    1    2  503  504  0.13790124801E+02 -0.50630680525E+02 -0.11436237134E+03  0.12582680688E+03  0.00000000000E+00 0.  1.
         21    1    1    2  504  502 -0.10190248217E+03 -0.26434931006E+02 -0.28116492658E+03  0.30022764261E+03  0.00000000000E+00 0. -1.
         21    1    1    2  505  501 -0.69816680905E+02  0.97378754621E+02  0.48071835206E+03  0.49542620519E+03  0.00000000000E+00 0. -1.
          1    1    1    2  501    0  0.15792903827E+03 -0.20313143090E+02 -0.10443915399E+04  0.10564600767E+04  0.00000000000E+00 0. -1.
<scales pt_clust_3="52.47507" pt_clust_4="105.74533" pt_clust_5="119.74491" pt_clust_6="14000.00000"></scales>
<clustering>
<clus scale="   52.475">  2  3  1 -1</clus>
<clus scale="  105.745">  2  4  1 -1</clus>
<clus scale="  119.745">  1  5  2 -1</clus>
<clus scale="  119.745">  1  3  2 -1</clus>
</clustering>
</event>
<event>
 6    0  0.3643696E+002  0.7493002E+02  0.7546771E-02  0.1344088E+00
          2   -1    0    0  505    0 -0.00000000000E+00  0.00000000000E+00  0.85965291653E+03  0.85965291653E+03  0.00000000000E+00 0. -1.
         21   -1    0    0  503  502  0.00000000000E+00 -0.00000000000E+00 -0.26829106239E+02  0.26829106239E+02  0.00000000000E+00 0. -1.
         21    1    1    2  503  501  0.31549055194E+02  0.10485091737E+02  0.60161979157E+02  0.68736771589E+02  0.00000000000E+00 0. -1.
         21    1    1    2  504  502 -0.44185938003E+01 -0.66269289846E+02  0.16302958023E+03  0.17603916263E+03  0.00000000000E+00 0. -1.
         21    1    1    2  505  504  0.52608059129E+02 -0.37010955408E+02  0.33403397049E+03  0.34017071030E+03  0.00000000000E+00 0. -1.
          2    1    1    2  501    0 -0.79738520523E+02  0.92795153518E+02  0.27559828041E+03  0.30153537825E+03  0.00000000000E+00 0. -1.
<scales pt_clust_3="33.24575" pt_clust_4="63.41696" pt_clust_5="14000.00000" pt_clust_6="74.93002"></scales>
<clustering>
<clus scale="   33.246">  2  3  1 -1</clus>
<clus scale="   63.417">  2  4  1 -1</clus>
<clus scale="   74.930">  2  6  1 -1</clus>
<clus scale="   33.246">  2  3  1 -1</clus>
</clustering>
</event>
<event>
 6    0  0.3643696E+002  0.9177146E+02  0.7546771E-02  0.1298618E+00
         21   -1    0    0  505  502  0.00000000000E+00  0.00000000000E+00  0.14204156425E+03  0.14204156425E+03  0.00000000000E+00 0.  1.
         -2   -1    0    0    0  501 -0.00000000000E+00 -0.00000000000E+00 -0.44247295511E+03  0.44247295511E+03  0.00000000000E+00 0.  1.
         21    1    1    2  503  501  0.46954876708E+02  0.70056595414E+01 -0.78540474258E+02  0.91773884133E+02  0.00000000000E+00 0.  1.
         21    1    1    2  504  502 -0.21082673005E+02  0.37088525577E+02 -0.16916420548E+02  0.45893388573E+02  0.00000000000E+00 0.  1.
         21    1    1    2  505  503 -0.37985049937E+02 -0.11169842670E+03  0.87200601298E+02  0.14670837540E+03  0.00000000000E+00 0.  1.
         -2    1    1    2    0  504  0.12112846234E+02  0.67604241584E+02 -0.29217509735E+03  0.30013887125E+03  0.00000000000E+00 0.  1.
<scales pt_clust_3="46.72248" pt_clust_4="42.66190" pt_clust_5="14000.00000" pt_clust_6="91.77146"></scales>
<clustering>
<clus scale="   42.662">  1  4  2 -1</clus>
<clus scale="   46.722">  2  3  1 -1</clus>
<clus scale="   91.771">  2  6  1 -1</clus>
<clus scale="   42.662">  1  3  2 -1</clus>
</clustering>
</event>
<event>
 6    0  0.3643696E+002  0.2013372E+03  0.7546771E-02  0.1148616E+00
          1   -1    0    0  504    0 -0.00000000000E+00  0.00000000000E+00  0.62997183507E+03  0.62997183507E+03  0.00000000000E+00 0.  1.
         21   -1    0    0  501  502  0.00000000000E+00 -0.00000000000E+00 -0.13120457837E+04  0.13120457837E+04  0.00000000000E+00 0.  1.
         21    1    1    2  503  502  0.67578664884E+02  0.19029459769E+03 -0.12717458526E+04  0.12876786957E+04  0.00000000000E+00 0.  1.
         21    1    1    2  504  505 -0.32309927768E+02  0.17850719230E+02  0.17008192450E+03  0.17404149118E+03  0.00000000000E+00 0.  1.
         21    1    1    2  505  503  0.17247848893E+02 -0.45270739419E+02  0.36291427318E+02  0.60530949405E+02  0.00000000000E+00 0. -1.
          1    1    1    2  501    0 -0.52516586010E+02 -0.16287457750E+03  0.38329855209E+03  0.41976648250E+03  0.00000000000E+00 0.  1.
<scales pt_clust_3="14000.00000" pt_clust_4="36.91314" pt_clust_5="45.53519" pt_clust_6="201.33718"></scales>
<clustering>
<clus scale="   36.913">  1  4  2 -1</clus>
<clus scale="   45.535">  1  5  2 -1</clus>
<clus scale="  201.337">  1  6  2 -1</clus>
<clus scale="  201.337">  2  3  1 -1</clus>
</clustering>
</event>
<event>
 6    0  0.3643696E+002  0.2372156E+03  0.7546771E-02  0.1121662E+00
          2   -1    0    0  505    0 -0.00000000000E+00  0.00000000000E+00  0.12863870117E+04  0.12863870117E+04  0.00000000000E+00 0. -1.
         21   -1    0    0  504  502  0.00000000000E+00 -0.00000000000E+00 -0.22900648179E+03  0.22900648179E+03  0.00000000000E+00 0. -1.
         21    1    1    2  503  502 -0.61331327312E+02 -0.23564205655E+03  0.47821835879E+03  0.53663908655E+03  0.00000000000E+00 0. -1.
         21    1    1    2  504  501  0.16151782815E+03  0.17746174733E+03 -0.11022252544E+03  0.26406379095E+03  0.00000000000E+00 0. -1.
         21    1    1    2  505  503  0.14030649560E+02 -0.31079401419E+02  0.24244034846E+03  0.24482669560E+03  0.00000000000E+00 0. -1.
          2    1    1    2  501    0 -0.11421715040E+03  0.89259710641E+02  0.44694434810E+03  0.46986392039E+03  0.00000000000E+00 0. -1.
<scales pt_clust_3="237.21563" pt_clust_4="14000.00000" pt_clust_5="34.09968" pt_clust_6="131.86930"></scales>
<clustering>
<clus scale="   34.100">  1  5  2 -1</clus>
<clus scale="  131.869">  1  6  2 -1</clus>
<clus scale="  237.216">  1  3  2 -1</clus>
<clus scale="  237.216">  2  3  1 -1</clus>
</clustering>
</event>
<event>
 6    0  0.3643696E+002  0.1427443E+03  0.7546771E-02  0.1209683E+00
         21   -1    0    0  503  502  0.00000000000E+00  0.00000000000E+00  0.40222786251E+02  0.40222786251E+02  0.00000000000E+00 0. -1.
          2   -1    0    0  505    0 -0.00000000000E+00 -0.00000000000E+00 -0.25113993487E+04  0.25113993487E+04  0.00000000000E+00 0. -1.
         21    1    1    2  503  501  0.53856783487E+02  0.30499526925E+02 -0.50708988417E+03  0.51085313438E+03  0.00000000000E+00 0. -1.
         21    1    1    2  504  502 -0.85915706897E+02 -0.97204120840E+02 -0.82544802124E+02  0.15376538673E+03  0.00000000000E+00 0. -1.
         21    1    1    2  505  504 -0.33753200945E+02 -0.14601881889E+02 -0.36117654734E+03  0.36304406327E+03  0.00000000000E+00 0. -1.
          2    1    1    2  501    0  0.65812124355E+02  0.81306475805E+02 -0.15203653288E+04  0.15239595506E+04  0.00000000000E+00 0. -1.
<scales pt_clust_3="44.51086" pt_clust_4="131.56419" pt_clust_5="36.77626" pt_clust_6="44.51086"></scales>
<clustering>
<clus scale="   36.776">  2  5  1 -1</clus>
<clus scale="   44.511">  3  6 -1 -1</clus>
<clus scale="  131.564">  1  4  2 -1</clus>
<clus scale="  131.564">  1  3  2 -1</clus>
</clustering>
</event>
<event>
 6    0  0.3643696E+002  0.9897462E+02  0.7546771E-02  0.1282467E+00
          1   -1    0    0  502    0 -0.00000000000E+00  0.00000000000E+00  0.74881561316E+03  0.74881561316E+03  0.00000000000E+00 0. -1.
         21   -1    0    0  504  502  0.00000000000E+00 -0.00000000000E+00 -0.97595036480E+02  0.97595036480E+02  0.00000000000E+00 0. -1.
         21    1    1    2  503  505 -0.77021109454E+02 -0.34680189675E+02  0.12019537745E+03  0.14690777929E+03  0.00000000000E+00 0. -1.
         21    1    1    2  504  503 -0.55850674040E+02  0.80417174424E+01 -0.63355076600E+02  0.84840042085E+02  0.00000000000E+00 0. -1.
         21    1    1    2  505  501  0.98675089961E+02 -0.16192663800E+02  0.42637314180E+03  0.43794181324E+03  0.00000000000E+00 0. -1.
          1    1    1    2  501    0  0.34196693532E+02  0.42831136033E+02  0.16800713404E+03  0.17672101502E+03  0.00000000000E+00 0. -1.
<scales pt_clust_3="98.97462" pt_clust_4="55.91658" pt_clust_5="14000.00000" pt_clust_6="54.80803"></scales>
<clustering>
<clus scale="   54.808">  1  6  2 -1</clus>
<clus scale="   55.917">  2  4  1 -1</clus>
<clus scale="   98.975">  2  3  1 -1</clus>
<clus scale="   55.917">  2  3  1 -1</clus>
</clustering>
</event>
<event>
 6    0  0.3643696E+002  0.6583245E+02  0.7546771E-02  0.1374867E+00
         21   -1    0    0  501  502  0.00000000000E+00  0.00000000000E+00  0.10620055274E+03  0.10620055274E+03  0.00000000000E+00 0.  1.
          1   -1    0    0  504    0 -0.00000000000E+00 -0.00000000000E+00 -0.61784032230E+03  0.61784032230E+03  0.00000000000E+00 0.  1.
         21    1    1    2  503  505 -0.88497424706E+02  0.74607509746E+01 -0.17033858875E+03  0.19210073348E+03  0.00000000000E+00 0.  1.
         21    1    1    2  504  503  0.44226975608E+02  0.50425094195E+02 -0.35850333710E+03  0.36472367377E+03  0.00000000000E+00 0.  1.
         21    1    1    2  505  502  0.42359188780E+02  0.84766031039E+01  0.70091644224E+02  0.82334635873E+02  0.00000000000E+00 0.  1.
          1    1    1    2  501    0  0.19112603173E+01 -0.66362448273E+02 -0.52889487922E+02  0.84881831916E+02  0.00000000000E+00 0.  1.
<scales pt_clust_3="14000.00000" pt_clust_4="65.83245" pt_clust_5="43.19900" pt_clust_6="66.51970"></scales>
<clustering>
<clus scale="   43.199">  1  5  2 -1</clus>
<clus scale="   66.520">  1  6  2 -1</clus>
<clus scale="   65.832">  2  4  1 -1</clus>
<clus scale="   43.199">  1  3  2 -1</clus>
</clustering>
</event>
<event>
 6    0  0.3884250E+002  0.1073957E+03  0.7546771E-02  0.1265470E+00
          2   -1    0    0  505    0 -0.00000000000E+00  0.00000000000E+00  0.28824918116E+04  0.28824918116E+04  0.00000000000E+00 0. -1.
         21   -1    0    0  501  502  0.00000000000E+00 -0.00000000000E+00 -0.51753181616E+03  0.51753181616E+03  0.00000000000E+00 0. -1.
         21    1    1    2  503  504 -0.27588513016E+02 -0.36213212656E+02  0.76645239771E+02  0.89146035250E+02  0.00000000000E+00 0. -1.
         21    1    1    2  504  502 -0.10415686146E+03  0.26397275075E+02 -0.50245623206E+03  0.51381682831E+03  0.00000000000E+00 0. -1.
         21    1    1    2  505  503  0.41679838707E+02 -0.92060091549E+01  0.19319216511E+03  0.19785138922E+03  0.00000000000E+00 0.  1.
          2    1    1    2  501    0  0.90065535766E+02  0.19021946736E+02  0.25975788226E+04  0.25992093749E+04  0.00000000000E+00 0. -1.
<scales pt_clust_3="44.98752" pt_clust_4="14000.00000" pt_clust_5="42.68442" pt_clust_6="107.39574"></scales>
<clustering>
<clus scale="   42.684">  1  5  2 -1</clus>
<clus scale="   44.988">  1  3  2 -1</clus>
<clus scale="  107.396">  1  6  2 -1</clus>
<clus scale="  107.396">  2  3  1 -1</clus>
</clustering>
</event>
<event>
 6    0  0.3643696E+002  0.1444964E+03  0.7546771E-02  0.1207404E+00
         -1   -1    0    0    0  501 -0.00000000000E+00  0.00000000000E+00  0.65206679630E+03  0.65206679630E+03  0.00000000000E+00 0. -1.
         21   -1    0    0  504  502  0.00000000000E+00 -0.00000000000E+00 -0.13714895546E+03  0.13714895546E+03  0.00000000000E+00 0.  1.
         21    1    1    2  503  505  0.29968864618E+02 -0.56135868486E+02 -0.23272760345E+02  0.67756844313E+02  0.00000000000E+00 0.  1.
         21    1    1    2  504  501  0.46256059019E+01  0.39117238810E+02  0.19166124144E+03  0.19566702858E+03  0.00000000000E+00 0. -1.
         21    1    1    2  505  502  0.65565066397E+02 -0.47773217351E+02 -0.60784272887E+02  0.10136955193E+03  0.00000000000E+00 0.  1.
         -1    1    1    2    0  503 -0.10015953692E+03  0.64791847027E+02  0.40731363263E+03  0.42442232694E+03  0.00000000000E+00 0. -1.
<scales pt_clust_3="35.58509" pt_clust_4="39.38978" pt_clust_5="35.58509" pt_clust_6="138.79802"></scales>
<clustering>
<clus scale="   35.585">  3  5 -1 -1</clus>
<clus scale="   39.390">  1  4  2 -1</clus>
<clus scale="  138.798">  1  6  2 -1</clus>
<clus scale="  144.496">  2  3  1 -1</clus>
</clustering>
</event>
<event>
 6    0  0.3643696E+002  0.5744971E+02  0.7546771E-02  0.1408857E+00
          2   -1    0    0  505    0 -0.00000000000E+00  0.00000000000E+00  0.12095113128E+04  0.12095113128E+04  0.00000000000E+00 0.  1.
         21   -1    0    0  501  502  0.00000000000E+00 -0.00000000000E+00 -0.68700584526E+02  0.68700584526E+02  0.00000000000E+00 0. -1.
         21    1    1    2  503  504 -0.39128535583E+02 -0.79484770249E+01  0.59962700211E+03  0.60095487538E+03  0.00000000000E+00 0.  1.
         21    1    1    2  504  502 -0.24305585044E+02 -0.50251531337E+02 -0.42975757469E+02  0.70447807603E+02  0.00000000000E+00 0. -1.
         21    1    1    2  505  503 -0.14061282282E+02 -0.34975441783E+02  0.82269069876E+02  0.90494204486E+02  0.00000000000E+00 0. -1.
          2    1    1    2  501    0  0.77495402909E+02  0.93175450144E+02  0.50189041373E+03  0.51631500983E+03  0.00000000000E+00 0.  1.
<scales pt_clust_3="53.71657" pt_clust_4="14000.00000" pt_clust_5="37.69617" pt_clust_6="57.44971"></scales>
<clustering>
<clus scale="   37.696">  1  5  2 -1</clus>
<clus scale="   53.717">  1  3  2 -1</clus>
<clus scale="   57.450">  1  6  2 -1</clus>
<clus scale="   57.450">  2  3  1 -1</clus>
</clustering>
</event>
<event>
 6    0  0.3643696E+002  0.8819159E+02  0.7546771E-02  0.1307291E+00
         21   -1    0    0  503  502  0.00000000000E+00  0.00000000000E+00  0.12503375294E+03  0.12503375294E+03  0.00000000000E+00 0. -1.
         -2   -1    0    0    0  501 -0.00000000000E+00 -0.00000000000E+00 -0.20022337506E+04  0.20022337506E+04  0.00000000000E+00 0. -1.
         21    1    1    2  503  504  0.69579225439E+02 -0.22078179244E+02 -0.46483218589E+03  0.47052914432E+03  0.00000000000E+00 0.  1.
         21    1    1    2  504  501 -0.33460320105E+02 -0.22375931732E+02 -0.13148833439E+03  0.13751166287E+03  0.00000000000E+00 0.  1.
         21    1    1    2  505  502  0.51794622799E+02  0.96058399598E+01  0.11166926392E+03  0.12347056174E+03  0.00000000000E+00 0. -1.
         -2    1    1    2    0  505 -0.87913528133E+02  0.34848271016E+02 -0.13925487413E+04  0.13957561346E+04  0.00000000000E+00 0. -1.
<scales pt_clust_3="14000.00000" pt_clust_4="40.25264" pt_clust_5="52.56104" pt_clust_6="88.19159"></scales>
<clustering>
<clus scale="   40.253">  2  4  1 -1</clus>
<clus scale="   52.561">  1  5  2 -1</clus>
<clus scale="   88.192">  2  6  1 -1</clus>
<clus scale="   52.561">  1  3  2 -1</clus>
</clustering>
</event>
<event>
 6    0  0.3643696E+002  0.1418499E+03  0.7546771E-02  0.1210861E+00
         21   -1    0    0  504  502  0.00000000000E+00  0.00000000000E+00  0.77562743690E+02  0.77562743690E+02  0.00000000000E+00 0.  1.
          1   -1    0    0  505    0 -0.00000000000E+00 -0.00000000000E+00 -0.19288711848E+04  0.19288711848E+04  0.00000000000E+00 0.  1.
         21    1    1    2  503  502  0.76024656685E+02  0.35033997756E+02 -0.23576615480E+03  0.25018554949E+03  0.00000000000E+00 0.  1.
         21    1    1    2  504  501  0.20504513898E+02 -0.13868437554E+03 -0.20332637046E+02  0.14165877043E+03  0.00000000000E+00 0.  1.
         21    1    1    2  505  503  0.20800082370E+02 -0.48813870864E+02 -0.24019925480E+03  0.24599007993E+03  0.00000000000E+00 0.  1.
          1    1    1    2  501    0 -0.11732925295E+03  0.15246424865E+03 -0.13550103945E+04  0.13685995287E+04  0.00000000000E+00 0.  1.
<scales pt_clust_3="83.83604" pt_clust_4="14000.00000" pt_clust_5="53.06070" pt_clust_6="141.84994"></scales>
<clustering>
<clus scale="   53.061">  2  5  1 -1</clus>
<clus scale="   83.836">  2  3  1 -1</clus>
<clus scale="  141.850">  2  6  1 -1</clus>
<clus scale="  141.850">  1  3  2 -1</clus>
</clustering>
</event>
<event>
 6    0  0.3643696E+002  0.1630627E+03  0.7546771E-02  0.1185282E+00
         21   -1    0    0  505  502  0.00000000000E+00  0.00000000000E+00  0.10064404415E+03  0.10064404415E+03  0.00000000000E+00 0.  1.
          2   -1    0    0  503    0 -0.00000000000E+00 -0.00000000000E+00 -0.17062053631E+04  0.17062053631E+04  0.00000000000E+00 0. -1.
         21    1    1    2  503  502  0.22107011799E+02  0.26206969883E+02  0.79314302791E+02  0.86407660936E+02  0.00000000000E+00 0.  1.
         21    1    1    2  504  501 -0.71228619449E+02 -0.54105439206E+02 -0.84062531048E+03  0.84537082242E+03  0.00000000000E+00 0. -1.
         21    1    1    2  505  504  0.67310823586E+02  0.10646463388E+03 -0.30752231043E+03  0.33231827613E+03  0.00000000000E+00 0. -1.
          2    1    1    2  501    0 -0.18189215937E+02 -0.78566164553E+02 -0.53672800086E+03  0.54275264780E+03  0.00000000000E+00 0. -1.
<scales pt_clust_3="34.28593" pt_clust_4="60.99849" pt_clust_5="149.67339" pt_clust_6="60.99849"></scales>
<clustering>
<clus scale="   34.286">  1  3  2 -1</clus>
<clus scale="   60.998">  4  6 -1 -1</clus>
<clus scale="  149.673">  1  5  2 -1</clus>
<clus scale="   34.286">  1  3  2 -1</clus>
</clustering>
</event>
<event>
 6    0  0.3643696E+002  0.1115224E+03  0.7546771E-02  0.1257776E+00
         21   -1    0    0  505  502  0.00000000000E+00  0.00000000000E+00  0.28899099770E+03  0.28899099770E+03  0.00000000000E+00 0. -1.
         -3   -1    0    0    0  501 -0.00000000000E+00 -0.00000000000E+00 -0.54319428701E+03  0.54319428701E+03  0.00000000000E+00 0. -1.
         21    1    1    2  503  501 -0.93359841356E+01 -0.12527961674E+03 -0.32707060874E+03  0.35036741582E+03  0.00000000000E+00 0. -1.
         21    1    1    2  504  503  0.71125018967E+02  0.51832319356E+02 -0.16821746537E+02  0.89600942012E+02  0.00000000000E+00 0. -1.
         21    1    1    2  505  504 -0.12001035865E+01  0.60622147349E+02  0.23052483078E+03  0.23836564896E+03  0.00000000000E+00 0. -1.
         -3    1    1    2    0  502 -0.60588931245E+02  0.12825150039E+02 -0.14083576482E+03  0.15385127791E+03  0.00000000000E+00 0. -1.
<scales pt_clust_3="14000.00000" pt_clust_4="111.52240" pt_clust_5="60.63403" pt_clust_6="63.95864"></scales>
<clustering>
<clus scale="   60.634">  1  5  2 -1</clus>
<clus scale="   63.959">  2  6  1 -1</clus>
<clus scale="  111.522">  1  4  2 -1</clus>
<clus scale="   60.634">  1  3  2 -1</clus>
</clustering>
</event>
<event>
 6    0  0.3643696E+002  0.1844519E+03  0.7546771E-02  0.1163563E+00
         21   -1    0    0  503  502  0.00000000000E+00  0.00000000000E+00  0.19658438362E+03  0.19658438362E+03  0.00000000000E+00 0. -1.
          2   -1    0    0  505    0 -0.00000000000E+00 -0.00000000000E+00 -0.94063550027E+03  0.94063550027E+03  0.00000000000E+00 0. -1.
         21    1    1    2  503  501  0.42004309053E+02  0.27321185393E+01 -0.52913058222E+02  0.67613742546E+02  0.00000000000E+00 0. -1.
         21    1    1    2  504  502 -0.10410009954E+03  0.31092653986E+02  0.13754917938E+03  0.17528080501E+03  0.00000000000E+00 0. -1.
         21    1    1    2  505  504 -0.82695830732E+02 -0.13537048680E+03 -0.42301382277E+03  0.45177921972E+03  0.00000000000E+00 0. -1.
          2    1    1    2  501    0  0.14479162122E+03  0.10154571427E+03 -0.40567341503E+03  0.44254611661E+03  0.00000000000E+00 0. -1.
<scales pt_clust_3="31.59839" pt_clust_4="108.64430" pt_clust_5="172.70661" pt_clust_6="31.59839"></scales>
<clustering>
<clus scale="   31.598">  3  6 -1 -1</clus>
<clus scale="  108.644">  1  4  2 -1</clus>
<clus scale="  172.707">  2  5  1 -1</clus>
<clus scale="  108.644">  1  3  2 -1</clus>
</clustering>
</event>
<event>
 6    0  0.3643696E+002  0.1768822E+03  0.7546771E-02  0.1170855E+00
         21   -1    0    0  501  502  0.00000000000E+00  0.00000000000E+00  0.13674128096E+03  0.13674128096E+03  0.00000000000E+00 0. -1.
          2   -1    0    0  505    0 -0.00000000000E+00 -0.00000000000E+00 -0.11589653225E+04  0.11589653225E+04  0.00000000000E+00 0.  1.
         21    1    1    2  503  502 -0.85522500828E+02 -0.16514900978E+03  0.40142824563E+02  0.19026229249E+03  0.00000000000E+00 0. -1.
         21    1    1    2  504  503 -0.26980808419E+02  0.65528087851E+02 -0.64246867548E+03  0.64636513929E+03  0.00000000000E+00 0.  1.
         21    1    1    2  505  504  0.44522337324E+02 -0.13984431702E+02 -0.62887077242E+02  0.78310837915E+02  0.00000000000E+00 0.  1.
          2    1    1    2  501    0  0.67980971922E+02  0.11360535363E+03 -0.35701111341E+03  0.38076833379E+03  0.00000000000E+00 0.  1.
<scales pt_clust_3="176.88224" pt_clust_4="57.25132" pt_clust_5="46.66694" pt_clust_6="14000.00000"></scales>
<clustering>
<clus scale="   46.667">  2  5  1 -1</clus>
<clus scale="   57.251">  2  4  1 -1</clus>
<clus scale="  176.882">  1  3  2 -1</clus>
<clus scale="  176.882">  1  3  2 -1</clus>
</clustering>
</event>
<event>
 6    0  0.3643696E+002  0.1295041E+03  0.7546771E-02  0.1228193E+00
          2   -1    0    0  505    0 -0.00000000000E+00  0.00000000000E+00  0.28416367945E+04  0.28416367945E+04  0.00000000000E+00 0.  1.
         21   -1    0    0  503  502  0.00000000000E+00 -0.00000000000E+00 -0.15013485093E+03  0.15013485093E+03  0.00000000000E+00 0.  1.
         21    1    1    2  503  501  0.70381034254E+02 -0.88584160375E+02  0.14759962295E+03  0.18597390179E+03  0.00000000000E+00 0.  1.
         21    1    1    2  504  502 -0.35177971932E+02  0.81905156265E+01 -0.12023809067E+03  0.12554589879E+03  0.00000000000E+00 0.  1.
         21    1    1    2  505  504  0.10449900115E+03 -0.33822388362E+02  0.12051139728E+04  0.12101089549E+04  0.00000000000E+00 0. -1.
          2    1    1    2  501    0 -0.13970206347E+03  0.11421603311E+03  0.14590264384E+04  0.14701428899E+04  0.00000000000E+00 0.  1.
<scales pt_clust_3="94.54234" pt_clust_4="36.11889" pt_clust_5="129.50406" pt_clust_6="14000.00000"></scales>
<clustering>
<clus scale="   36.119">  2  4  1 -1</clus>
<clus scale="   94.542">  2  3  1 -1</clus>
<clus scale="  129.504">  1  5  2 -1</clus>
<clus scale="   36.119">  2  3  1 -1</clus>
</clustering>
</event>
<event>
 6    0  0.3643696E+002  0.5347340E+02  0.7546771E-02  0.1427459E+00
         21   -1    0    0  501  502  0.00000000000E+00  0.00000000000E+00  0.29436088627E+03  0.29436088627E+03  0.00000000000E+00 0. -1.
          1   -1    0    0  503    0 -0.00000000000E+00 -0.00000000000E+00 -0.19150771153E+04  0.19150771153E+04  0.00000000000E+00 0. -1.
         21    1    1    2  503  504 -0.38998028611E+02 -0.31237479313E+02 -0.26843117664E+03  0.27304198018E+03  0.00000000000E+00 0. -1.
         21    1    1    2  504  505 -0.37371455470E+02  0.34622225526E+02 -0.21592062772E+03  0.22184914167E+03  0.00000000000E+00 0. -1.
         21    1    1    2  505  502 -0.17913884706E+02  0.50330051786E+02  0.28453666915E+03  0.28950844110E+03  0.00000000000E+00 0. -1.
          1    1    1    2  501    0  0.94283368786E+02 -0.53714797998E+02 -0.14209010938E+04  0.14250384386E+04  0.00000000000E+00 0. -1.
<scales pt_clust_3="49.96625" pt_clust_4="52.34156" pt_clust_5="53.47340" pt_clust_6="14000.00000"></scales>
<clustering>
<clus scale="   49.966">  2  3  1 -1</clus>
<clus scale="   52.342">  2  4  1 -1</clus>
<clus scale="   53.473">  1  5  2 -1</clus>
<clus scale="   53.473">  1  3  2 -1</clus>
</clustering>
</event>
<event>
 6    0  0.3643696E+002  0.9740189E+02  0.7546771E-02  0.1285856E+00
          2   -1    0    0  503    0 -0.00000000000E+00  0.00000000000E+00  0.45546924187E+03  0.45546924187E+03  0.00000000000E+00 0. -1.
         21   -1    0    0  505  502  0.00000000000E+00 -0.00000000000E+00 -0.12179639249E+04  0.12179639249E+04  0.00000000000E+00 0.  1.
         21    1    1    2  503  504 -0.18554491575E+02  0.58019479053E+02  0.85323333878E+02  0.10483606446E+03  0.00000000000E+00 0. -1.
         21    1    1    2  504  502  0.21632859594E+02  0.84831837479E+02  0.11123676480E+01  0.87553747070E+02  0.00000000000E+00 0. -1.
         21    1    1    2  505  501  0.34583463480E+02 -0.74792519022E+01 -0.11490836165E+04  0.11496282498E+04  0.00000000000E+00 0.  1.
          2    1    1    2  501    0 -0.37661831499E+02 -0.13537206463E+03  0.30015323195E+03  0.33141510539E+03  0.00000000000E+00 0. -1.
<scales pt_clust_3="58.56560" pt_clust_4="14000.00000" pt_clust_5="35.38298" pt_clust_6="97.40189"></scales>
<clustering>
<clus scale="   35.383">  2  5  1 -1</clus>
<clus scale="   58.566">  1  3  2 -1</clus>
<clus scale="   97.402">  1  6  2 -1</clus>
<clus scale="   35.383">  2  3  1 -1</clus>
</clustering>
</event>
<event>
 6    0  0.3643696E+002  0.1111041E+03  0.7546771E-02  0.1258539E+00
          1   -1    0    0  503    0 -0.00000000000E+00  0.00000000000E+00  0.75537481859E+03  0.75537481859E+03  0.00000000000E+00 0.  1.
         21   -1    0    0  504  502  0.00000000000E+00 -0.00000000000E+00 -0.19208227164E+03  0.19208227164E+03  0.00000000000E+00 0.  1.
         21    1    1    2  503  502  0.31197840615E+02 -0.11604751552E+02  0.37385490807E+02  0.50056472513E+02  0.00000000000E+00 0. -1.
         21    1    1    2  504  505 -0.58705273398E+02 -0.32918018092E+02 -0.14113020078E+03  0.15635740664E+03  0.00000000000E+00 0.  1.
         21    1    1    2  505  501 -0.69516056630E+02  0.35535879059E+02  0.12228136996E+02  0.79024098630E+02  0.00000000000E+00 0.  1.
          1    1    1    2  501    0  0.97023489414E+02  0.89868905853E+01  0.65480911993E+03  0.66201911244E+03  0.00000000000E+00 0.  1.
<scales pt_clust_3="33.28627" pt_clust_4="67.07472" pt_clust_5="111.10407" pt_clust_6="14000.00000"></scales>
<clustering>
<clus scale="   33.286">  1  3  2 -1</clus>
<clus scale="   67.075">  2  4  1 -1</clus>
<clus scale="  111.104">  2  5  1 -1</clus>
<clus scale="   67.075">  2  3  1 -1</clus>
</clustering>
</event>
<event>
 6    0  0.3643696E+002  0.8433364E+02  0.7546771E-02  0.1317184E+00
         21   -1    0    0  504  502  0.00000000000E+00  0.00000000000E+00  0.97112315075E+03  0.97112315075E+03  0.00000000000E+00 0. -1.
          2   -1    0    0  505    0 -0.00000000000E+00 -0.00000000000E+00 -0.83500710387E+03  0.83500710387E+03  0.00000000000E+00 0. -1.
         21    1    1    2  503  502 -0.33623736444E+02  0.55524515682E+02 -0.32364024604E+02  0.72532458822E+02  0.00000000000E+00 0. -1.
         21    1    1    2  504  501  0.46147649097E+02 -0.36116988305E+02  0.94085740940E+03  0.94268059658E+03  0.00000000000E+00 0. -1.
         21    1    1    2  505  503 -0.70531308957E+02  0.44914931513E+02 -0.37489854595E+03  0.38411057831E+03  0.00000000000E+00 0. -1.
          2    1    1    2  501    0  0.58007396304E+02 -0.64322458890E+02 -0.39747879196E+03  0.40680662089E+03  0.00000000000E+00 0. -1.
<scales pt_clust_3="30.88121" pt_clust_4="58.60070" pt_clust_5="14000.00000" pt_clust_6="84.33364"></scales>
<clustering>
<clus scale="   58.601">  1  4  2 -1</clus>
<clus scale="   30.881">  1  3  2 -1</clus>
<clus scale="   84.334">  1  6  2 -1</clus>
<clus scale="   58.601">  1  3  2 -1</clus>
</clustering>
</event>
<event>
 6    0  0.3643696E+002  0.1391148E+03  0.7546771E-02  0.1214525E+00
         21   -1    0    0  501  502  0.00000000000E+00  0.00000000000E+00  0.79511811017E+02  0.79511811017E+02  0.00000000000E+00 0. -1.
         -2   -1    0    0    0  501 -0.00000000000E+00 -0.00000000000E+00 -0.11910215344E+04  0.11910215344E+04  0.00000000000E+00 0. -1.
         21    1    1    2  503  505  0.57651071696E+02  0.27805577500E+02 -0.34100631792E+03  0.34696124433E+03  0.00000000000E+00 0. -1.
         21    1    1    2  504  502 -0.33321793240E+02  0.26845854354E+02  0.24590626077E+02  0.49353223720E+02  0.00000000000E+00 0. -1.
         21    1    1    2  505  504 -0.89997503676E+02 -0.76153247373E+02 -0.53589510028E+02  0.12950175033E+03  0.00000000000E+00 0. -1.
         -2    1    1    2    0  503  0.65668225221E+02  0.21501815519E+02 -0.74150452146E+03  0.74471712698E+03  0.00000000000E+00 0. -1.
<scales pt_clust_3="45.93323" pt_clust_4="42.79067" pt_clust_5="130.61330" pt_clust_6="45.93323"></scales>
<clustering>
<clus scale="   42.791">  1  4  2 -1</clus>
<clus scale="   45.933">  3  6 -1 -1</clus>
<clus scale="  130.613">  1  5  2 -1</clus>
<clus scale="   42.791">  1  3  2 -1</clus>
</clustering>
</event>
<event>
 6    0  0.3643696E+002  0.1460078E+03  0.7546771E-02  0.1205466E+00
         21   -1    0    0  504  502  0.00000000000E+00  0.00000000000E+00  0.16990078919E+03  0.16990078919E+03  0.00000000000E+00 0. -1.
          2   -1    0    0  505    0 -0.00000000000E+00 -0.00000000000E+00 -0.86107215661E+03  0.86107215661E+03  0.00000000000E+00 0. -1.
         21    1    1    2  503  502 -0.28720895254E+02  0.40462845108E+02  0.12738725358E+03  0.13671007290E+03  0.00000000000E+00 0. -1.
         21    1    1    2  504  501  0.75713766885E+02  0.10724661168E+03 -0.20066845950E+03  0.23979624861E+03  0.00000000000E+00 0.  1.
         21    1    1    2  505  503 -0.25260599715E+02  0.19074981889E+02 -0.32396733231E+02  0.45293500153E+02  0.00000000000E+00 0. -1.
          2    1    1    2  501    0 -0.21732271916E+02 -0.16678443867E+03 -0.58549342826E+03  0.60917312413E+03  0.00000000000E+00 0. -1.
<scales pt_clust_3="49.79098" pt_clust_4="146.00778" pt_clust_5="31.65364" pt_clust_6="14000.00000"></scales>
<clustering>
<clus scale="   31.654">  2  5  1 -1</clus>
<clus scale="   49.791">  1  3  2 -1</clus>
<clus scale="  146.008">  1  4  2 -1</clus>
<clus scale="   49.791">  1  3  2 -1</clus>
</clustering>
</event>
<event>
 6    0  0.3643696E+002  0.7762236E+02  0.7546771E-02  0.1335938E+00
         21   -1    0    0  503  502  0.00000000000E+00  0.00000000000E+00  0.25770050808E+03  0.25770050808E+03  0.00000000000E+00 0.  1.
         -1   -1    0    0    0  501 -0.00000000000E+00 -0.00000000000E+00 -0.37495582280E+03  0.37495582280E+03  0.00000000000E+00 0.  1.
         21    1    1    2  503  505 -0.23054886303E+02  0.74905453776E+02  0.22241262834E+03  0.23581715805E+03  0.00000000000E+00 0.  1.
         21    1    1    2  504  501  0.39925987631E+02  0.76434886850E+00 -0.11306048992E+03  0.11990555908E+03  0.00000000000E+00 0. -1.
         21    1    1    2  505  504  0.41576570773E+02 -0.38585491313E+01 -0.12377777726E+02  0.43551222946E+02  0.00000000000E+00 0. -1.
         -1    1    1    2    0  502 -0.58447672101E+02 -0.71811253513E+02 -0.21422967542E+03  0.23338239080E+03  0.00000000000E+00 0.  1.
<scales pt_clust_3="14000.00000" pt_clust_4="39.93330" pt_clust_5="46.05127" pt_clust_6="77.62236"></scales>
<clustering>
<clus scale="   39.933">  2  4  1 -1</clus>
<clus scale="   46.051">  2  5  1 -1</clus>
<clus scale="   77.622">  2  6  1 -1</clus>
<clus scale="   77.622">  1  3  2 -1</clus>
</clustering>
</event>
<event>
 6    0  0.3643696E+002  0.7731101E+02  0.7546771E-02  0.1336860E+00
         21   -1    0    0  504  502  0.00000000000E+00  0.00000000000E+00  0.21175464537E+04  0.21175464537E+04  0.00000000000E+00 0.  1.
          1   -1    0    0  503    0 -0.00000000000E+00 -0.00000000000E+00 -0.60233321420E+03  0.60233321420E+03  0.00000000000E+00 0. -1.
         21    1    1    2  503  505 -0.31586051630E+02  0.12482776314E+02 -0.65247250100E+01  0.34584250730E+02  0.00000000000E+00 0.  1.
         21    1    1    2  504  501 -0.63573214562E+02 -0.46732451164E+02 -0.14549122033E+03  0.16550882392E+03  0.00000000000E+00 0.  1.
         21    1    1    2  505  502 -0.59789029144E+01  0.48836566586E+02  0.20870900378E+04  0.20876698933E+04  0.00000000000E+00 0.  1.
          1    1    1    2  501    0  0.10113816911E+03 -0.14586891736E+02 -0.41986085288E+03  0.43211670003E+03  0.00000000000E+00 0. -1.
<scales pt_clust_3="33.96319" pt_clust_4="14000.00000" pt_clust_5="49.20928" pt_clust_6="77.31101"></scales>
<clustering>
<clus scale="   33.963">  2  3  1 -1</clus>
<clus scale="   49.209">  1  5  2 -1</clus>
<clus scale="   77.311">  2  6  1 -1</clus>
<clus scale="   49.209">  1  3  2 -1</clus>
</clustering>
</event>
<event>
 6    0  0.3643696E+002  0.8495848E+02  0.7546771E-02  0.1315541E+00
         21   -1    0    0  504  502  0.00000000000E+00  0.00000000000E+00  0.27591569059E+02  0.27591569059E+02  0.00000000000E+00 0.  1.
          2   -1    0    0  505    0 -0.00000000000E+00 -0.00000000000E+00 -0.19009412265E+04  0.19009412265E+04  0.00000000000E+00 0.  1.
         21    1    1    2  503  502 -0.43651790370E+01  0.47646034222E+02 -0.23189810461E+03  0.23678245350E+03  0.00000000000E+00 0. -1.
         21    1    1    2  504  501 -0.33390846180E+02 -0.71527503395E+01  0.59513453029E+01  0.34663077719E+02  0.00000000000E+00 0.  1.
         21    1    1    2  505  503 -0.66075775233E+02 -0.31612537636E+02 -0.57925825253E+03  0.58387111911E+03  0.00000000000E+00 0. -1.
          2    1    1    2  501    0  0.10383180045E+03 -0.88807462465E+01 -0.10681446456E+04  0.10732161452E+04  0.00000000000E+00 0.  1.
<scales pt_clust_3="47.84862" pt_clust_4="34.14836" pt_clust_5="14000.00000" pt_clust_6="84.95848"></scales>
<clustering>
<clus scale="   34.148">  1  4  2 -1</clus>
<clus scale="   47.849">  1  3  2 -1</clus>
<clus scale="   84.958">  1  6  2 -1</clus>
<clus scale="   34.148">  1  3  2 -1</clus>
</clustering>
</event>
<event>
 6    0  0.3643696E+002  0.8346021E+02  0.7546771E-02  0.1319509E+00
         21   -1    0    0  504  502  0.00000000000E+00  0.00000000000E+00  0.23150137647E+03  0.23150137647E+03  0.00000000000E+00 0. -1.
         -2   -1    0    0    0  501 -0.00000000000E+00 -0.00000000000E+00 -0.41491429463E+03  0.41491429463E+03  0.00000000000E+00 0.  1.
         21    1    1    2  503  502 -0.40208963401E+02 -0.40582828882E+02  0.18181136586E+03  0.19057570541E+03  0.00000000000E+00 0. -1.
         21    1    1    2  504  501  0.14762775618E+02  0.11139211613E+03 -0.13732046761E+03  0.17743464685E+03  0.00000000000E+00 0. -1.
         21    1    1    2  505  503 -0.30628657989E+02 -0.49149846270E+02 -0.18884056085E+02  0.60913296190E+02  0.00000000000E+00 0. -1.
         -2    1    1    2    0  505  0.56074845772E+02 -0.21659440976E+02 -0.20901976032E+03  0.21749202265E+03  0.00000000000E+00 0.  1.
<scales pt_clust_3="57.12904" pt_clust_4="14000.00000" pt_clust_5="83.46021" pt_clust_6="58.17905"></scales>
<clustering>
<clus scale="   57.129">  1  3  2 -1</clus>
<clus scale="   58.179">  2  6  1 -1</clus>
<clus scale="   83.460">  1  5  2 -1</clus>
<clus scale="   57.129">  1  3  2 -1</clus>
</clustering>
</event>
<event>
 6    0  0.3643696E+002  0.8915417E+02  0.7546771E-02  0.1304913E+00
         21   -1    0    0  501  502  0.00000000000E+00  0.00000000000E+00  0.47751803248E+03  0.47751803248E+03  0.00000000000E+00 0. -1.
          1   -1    0    0  503    0 -0.00000000000E+00 -0.00000000000E+00 -0.11499703339E+04  0.11499703339E+04  0.00000000000E+00 0. -1.
         21    1    1    2  503  504  0.41892387407E+02  0.18061315241E+00 -0.12632314953E+03  0.13308847753E+03  0.00000000000E+00 0. -1.
         21    1    1    2  504  505 -0.42314610560E+02  0.66131181356E+02 -0.48736045349E+03  0.49364366808E+03  0.00000000000E+00 0. -1.
         21    1    1    2  505  502 -0.57499965191E+02 -0.68665721266E+02  0.46512289698E+03  0.47366711578E+03  0.00000000000E+00 0. -1.
          1    1    1    2  501    0  0.57922188344E+02  0.23539267574E+01 -0.52389159542E+03  0.52708910502E+03  0.00000000000E+00 0. -1.
<scales pt_clust_3="41.89278" pt_clust_4="69.83216" pt_clust_5="89.15417" pt_clust_6="14000.00000"></scales>
<clustering>
<clus scale="   41.893">  2  3  1 -1</clus>
<clus scale="   69.832">  2  4  1 -1</clus>
<clus scale="   89.154">  1  5  2 -1</clus>
<clus scale="   89.154">  1  3  2 -1</clus>
</clustering>
</event>
<event>
 6    0  0.3643696E+002  0.1283422E+03  0.7546771E-02  0.1229937E+00
         21   -1    0    0  504  502  0.00000000000E+00  0.00000000000E+00  0.30720660139E+02  0.30720660139E+02  0.00000000000E+00 0. -1.
          2   -1    0    0  505    0 -0.00000000000E+00 -0.00000000000E+00 -0.37599660263E+04  0.37599660263E+04  0.00000000000E+00 0.  1.
         21    1    1    2  503  501  0.33473625351E+02 -0.12886037086E+02 -0.12378024456E+04  0.12383220211E+04  0.00000000000E+00 0.  1.
         21    1    1    2  504  503 -0.91299787491E+02 -0.11257531915E+03 -0.17955111445E+04  0.18013520266E+04  0.00000000000E+00 0.  1.
         21    1    1    2  505  502  0.19791551574E+02  0.12692940754E+03 -0.12643709826E+03  0.18024738508E+03  0.00000000000E+00 0. -1.
          2    1    1    2  501    0  0.38034610565E+02 -0.14680513073E+01 -0.56949467779E+03  0.57076525368E+03  0.00000000000E+00 0.  1.
<scales pt_clust_3="32.98252" pt_clust_4="128.34216" pt_clust_5="14000.00000" pt_clust_6="80.46040"></scales>
<clustering>
<clus scale="   32.983">  3  6 -1 -1</clus>
<clus scale="   80.460">  2  3  1 -1</clus>
<clus scale="  128.342">  2  4  1 -1</clus>
<clus scale="  128.342">  1  3  2 -1</clus>
</clustering>
</event>
<event>
 6    0  0.3643696E+002  0.2708096E+03  0.7546771E-02  0.1100817E+00
          1   -1    0    0  504    0 -0.00000000000E+00  0.00000000000E+00  0.11028333712E+04  0.11028333712E+04  0.00000000000E+00 0.  1.
         21   -1    0    0  501  502  0.00000000000E+00 -0.00000000000E+00 -0.15615231506E+03  0.15615231506E+03  0.00000000000E+00 0.  1.
         21    1    1    2  503  505 -0.19648191250E+03 -0.23812547997E+03  0.23924457252E+03  0.39057246655E+03  0.00000000000E+00 0.  1.
         21    1    1    2  504  503 -0.72435928034E+02  0.57675722780E+01  0.14511120915E+03  0.16228829773E+03  0.00000000000E+00 0.  1.
         21    1    1    2  505  502  0.65067388712E+02  0.41907332701E+02 -0.11148389660E+01  0.77403052096E+02  0.00000000000E+00 0.  1.
          1    1    1    2  501    0  0.20385045182E+03  0.19045057499E+03  0.56344011345E+03  0.62872186988E+03  0.00000000000E+00 0.  1.
<scales pt_clust_3="270.80962" pt_clust_4="72.66518" pt_clust_5="75.09402" pt_clust_6="14000.00000"></scales>
<clustering>
<clus scale="   72.665">  1  4  2 -1</clus>
<clus scale="   75.094">  2  5  1 -1</clus>
<clus scale="  270.810">  2  3  1 -1</clus>
<clus scale="   75.094">  2  3  1 -1</clus>
</clustering>
</event>
<event>
 6    0  0.3643696E+002  0.1591077E+03  0.7546771E-02  0.1189708E+00
          1   -1    0    0  503    0 -0.00000000000E+00  0.00000000000E+00  0.15574654514E+04  0.15574654514E+04  0.00000000000E+00 0. -1.
         21   -1    0    0  504  502  0.00000000000E+00 -0.00000000000E+00 -0.49616970597E+02  0.49616970597E+02  0.00000000000E+00 0. -1.
         21    1    1    2  503  502 -0.26704286379E+02 -0.20761530485E+02  0.47627871658E+03  0.47747835126E+03  0.00000000000E+00 0.  1.
         21    1    1    2  504  505 -0.10776387760E+03 -0.10540840993E+03  0.10376599062E+03  0.18300646712E+03  0.00000000000E+00 0. -1.
         21    1    1    2  505  501  0.56394702583E+02  0.76013427382E+02  0.44435137640E+03  0.45431987557E+03  0.00000000000E+00 0. -1.
          1    1    1    2  501    0  0.78073461395E+02  0.50156513031E+02  0.48345239725E+03  0.49227772810E+03  0.00000000000E+00 0. -1.
<scales pt_clust_3="33.82544" pt_clust_4="155.20512" pt_clust_5="34.24062" pt_clust_6="34.24062"></scales>
<clustering>
<clus scale="   33.825">  1  3  2 -1</clus>
<clus scale="   34.241">  5  6 -1 -1</clus>
<clus scale="  155.205">  2  4  1 -1</clus>
<clus scale="  155.205">  2  3  1 -1</clus>
</clustering>
</event>
<event>
 6    0  0.3643696E+002  0.1411755E+03  0.7546771E-02  0.1211756E+00
          1   -1    0    0  503    0 -0.00000000000E+00  0.00000000000E+00  0.35287232952E+04  0.35287232952E+04  0.00000000000E+00 0.  1.
         21   -1    0    0  505  502  0.00000000000E+00 -0.00000000000E+00 -0.72533720496E+02  0.72533720496E+02  0.00000000000E+00 0. -1.
         21    1    1    2  503  502  0.44693551323E+02 -0.30365222178E+02  0.12788860620E+04  0.12800269996E+04  0.00000000000E+00 0.  1.
         21    1    1    2  504  501 -0.91246161097E+02 -0.47169583069E+02  0.10989999770E+03  0.15042885686E+03  0.00000000000E+00 0. -1.
         21    1    1    2  505  504 -0.29811006573E+02 -0.40201618767E+02 -0.36675197475E+02  0.62047855517E+02  0.00000000000E+00 0. -1.
          1    1    1    2  501    0  0.76363616347E+02  0.11773642401E+03  0.21040787126E+04  0.21087533038E+04  0.00000000000E+00 0.  1.
<scales pt_clust_3="53.99613" pt_clust_4="141.17546" pt_clust_5="50.04864" pt_clust_6="14000.00000"></scales>
<clustering>
<clus scale="   50.049">  2  5  1 -1</clus>
<clus scale="   53.996">  1  3  2 -1</clus>
<clus scale="  141.175">  2  4  1 -1</clus>
<clus scale="   50.049">  2  3  1 -1</clus>
</clustering>
</event>
<event>
 6    0  0.3643696E+002  0.7226667E+02  0.7546771E-02  0.1352550E+00
         21   -1    0    0  503  502  0.00000000000E+00  0.00000000000E+00  0.15188087579E+03  0.15188087579E+03  0.00000000000E+00 0.  1.
          2   -1    0    0  504    0 -0.00000000000E+00 -0.00000000000E+00 -0.22905354419E+04  0.22905354419E+04  0.00000000000E+00 0. -1.
         21    1    1    2  503  505 -0.54365228707E+02 -0.47125750394E+02  0.13539925704E+03  0.15332766629E+03  0.00000000000E+00 0.  1.
         21    1    1    2  504  502 -0.31035317461E+02 -0.44983164660E+02 -0.16645883662E+03  0.17520051462E+03  0.00000000000E+00 0.  1.
         21    1    1    2  505  501  0.90557085292E+02  0.61582021033E+02 -0.10217826446E+04  0.10276345186E+04  0.00000000000E+00 0.  1.
          2    1    1    2  501    0 -0.51565391250E+01  0.30526894021E+02 -0.10858123419E+04  0.10862536182E+04  0.00000000000E+00 0. -1.
<scales pt_clust_3="14000.00000" pt_clust_4="51.59302" pt_clust_5="72.26667" pt_clust_6="30.95935"></scales>
<clustering>
<clus scale="   30.959">  2  6  1 -1</clus>
<clus scale="   51.593">  2  4  1 -1</clus>
<clus scale="   72.267">  2  5  1 -1</clus>
<clus scale="   72.267">  1  3  2 -1</clus>
</clustering>
</event>
<event>
 6    0  0.3643696E+002  0.1595608E+03  0.7546771E-02  0.1189194E+00
         21   -1    0    0  504  502  0.00000000000E+00  0.00000000000E+00  0.39911033369E+02  0.39911033369E+02  0.00000000000E+00 0.  1.
          1   -1    0    0  505    0 -0.00000000000E+00 -0.00000000000E+00 -0.15330605231E+04  0.15330605231E+04  0.00000000000E+00 0.  1.
         21    1    1    2  503  502  0.12911423051E+03  0.72841211188E+02 -0.59986033411E+03  0.61790674620E+03  0.00000000000E+00 0.  1.
         21    1    1    2  504  501 -0.27909851676E+02  0.13115200136E+02 -0.17698136915E+02  0.35555482635E+02  0.00000000000E+00 0.  1.
         21    1    1    2  505  503  0.31618735424E+02 -0.14148624362E+01 -0.60954217464E+03  0.61036334173E+03  0.00000000000E+00 0. -1.
          1    1    1    2  501    0 -0.13282311426E+03 -0.84541548887E+02 -0.26604884411E+03  0.30914598594E+03  0.00000000000E+00 0.  1.
<scales pt_clust_3="14000.00000" pt_clust_4="30.83777" pt_clust_5="31.27350" pt_clust_6="159.56077"></scales>
<clustering>
<clus scale="   30.838">  1  4  2 -1</clus>
<clus scale="   31.274">  2  5  1 -1</clus>
<clus scale="  159.561">  1  6  2 -1</clus>
<clus scale="   30.838">  1  3  2 -1</clus>
</clustering>
</event>
<event>
 6    0  0.3643696E+002  0.9250441E+02  0.7546771E-02  0.1296898E+00
          2   -1    0    0  504    0 -0.00000000000E+00  0.00000000000E+00  0.31033888376E+04  0.31033888376E+04  0.00000000000E+00 0. -1.
         21   -1    0    0  505  502  0.00000000000E+00 -0.00000000000E+00 -0.15542382028E+02  0.15542382028E+02  0.00000000000E+00 0. -1.
         21    1    1    2  503  502 -0.19538833015E+02  0.31319087172E+02  0.35563176363E+02  0.51258079655E+02  0.00000000000E+00 0.  1.
         21    1    1    2  504  503 -0.78369247403E+00  0.39020050721E+02  0.76635420506E+03  0.76734734387E+03  0.00000000000E+00 0. -1.
         21    1    1    2  505  501 -0.57001339252E+02 -0.90007523131E+02  0.44152849443E+03  0.45420030635E+03  0.00000000000E+00 0. -1.
          2    1    1    2  501    0  0.77323864741E+02  0.19668385238E+02  0.18444005797E+04  0.18461254897E+04  0.00000000000E+00 0. -1.
<scales pt_clust_3="36.91411" pt_clust_4="41.09203" pt_clust_5="92.50441" pt_clust_6="14000.00000"></scales>
<clustering>
<clus scale="   36.914">  2  3  1 -1</clus>
<clus scale="   41.092">  1  4  2 -1</clus>
<clus scale="   92.504">  2  5  1 -1</clus>
<clus scale="   36.914">  2  3  1 -1</clus>
</clustering>
</event>
<event>
 6    0  0.3643696E+002  0.1015341E+03  0.7546771E-02  0.1277103E+00
          2   -1    0    0  505    0 -0.00000000000E+00  0.00000000000E+00  0.74841490824E+03  0.74841490824E+03  0.00000000000E+00 0.  1.
         21   -1    0    0  503  502  0.00000000000E+00 -0.00000000000E+00 -0.13142540317E+03  0.13142540317E+03  0.00000000000E+00 0. -1.
         21    1    1    2  503  501 -0.24824434712E+02  0.34671702733E+02 -0.98657513987E+02  0.10747876346E+03  0.00000000000E+00 0. -1.
         21    1    1    2  504  502 -0.84752771049E+02 -0.42086828319E+01  0.76262567777E+02  0.11409086053E+03  0.00000000000E+00 0. -1.
         21    1    1    2  505  504  0.18654357037E+02  0.30425734645E+02  0.71190308776E+02  0.79635233589E+02  0.00000000000E+00 0.  1.
          2    1    1    2  501    0  0.90922848724E+02 -0.60888754546E+02  0.56819414251E+03  0.57863545383E+03  0.00000000000E+00 0.  1.
<scales pt_clust_3="42.73396" pt_clust_4="101.53409" pt_clust_5="35.68908" pt_clust_6="14000.00000"></scales>
<clustering>
<clus scale="   35.689">  1  5  2 -1</clus>
<clus scale="   42.734">  2  3  1 -1</clus>
<clus scale="  101.534">  2  4  1 -1</clus>
<clus scale="   42.734">  2  3  1 -1</clus>
</clustering>
</event>
<event>
 6    0  0.3643696E+002  0.7589391E+02  0.7546771E-02  0.1341125E+00
         21   -1    0    0  503  502  0.00000000000E+00  0.00000000000E+00  0.39652149430E+02  0.39652149430E+02  0.00000000000E+00 0.  1.
          1   -1    0    0  504    0 -0.00000000000E+00 -0.00000000000E+00 -0.88208984535E+03  0.88208984535E+03  0.00000000000E+00 0. -1.
         21    1    1    2  503  501  0.47428535866E+02 -0.15201981231E+01 -0.95297586718E+02  0.10645847571E+03  0.00000000000E+00 0. -1.
         21    1    1    2  504  505  0.58944512359E+01  0.51914800029E+02 -0.25898903726E+03  0.26420676078E+03  0.00000000000E+00 0. -1.
         21    1    1    2  505  502 -0.11171685602E+03 -0.44578265530E+02 -0.94200888850E+02  0.15277985841E+03  0.00000000000E+00 0.  1.
          1    1    1    2  501    0  0.58393868919E+02 -0.58163363760E+01 -0.39395018309E+03  0.39829689988E+03  0.00000000000E+00 0. -1.
<scales pt_clust_3="47.45289" pt_clust_4="52.66706" pt_clust_5="14000.00000" pt_clust_6="75.89391"></scales>
<clustering>
<clus scale="   47.453">  1  3  2 -1</clus>
<clus scale="   52.667">  2  4  1 -1</clus>
<clus scale="   75.894">  2  6  1 -1</clus>
<clus scale="   47.453">  1  3  2 -1</clus>
</clustering>
</event>
<event>
 6    0  0.3643696E+002  0.7544763E+02  0.7546771E-02  0.1342490E+00
         -4   -1    0    0    0  501 -0.00000000000E+00  0.00000000000E+00  0.62908919262E+03  0.62908919262E+03  0.00000000000E+00 0.  1.
         21   -1    0    0  503  502  0.00000000000E+00 -0.00000000000E+00 -0.41874121447E+03  0.41874121447E+03  0.00000000000E+00 0. -1.
         21    1    1    2  503  504  0.18545359701E+02  0.28719724508E+02 -0.39349942940E+03  0.39498171335E+03  0.00000000000E+00 0. -1.
         21    1    1    2  504  505  0.22357750206E+02 -0.47749539749E+02  0.46497159728E+02  0.70298459466E+02  0.00000000000E+00 0.  1.
         21    1    1    2  505  501  0.22657111333E+02 -0.60828089121E+02  0.26722401224E+03  0.27499467965E+03  0.00000000000E+00 0.  1.
         -4    1    1    2    0  502 -0.63560221239E+02  0.79857904363E+02  0.29012623558E+03  0.30755555463E+03  0.00000000000E+00 0.  1.
<scales pt_clust_3="34.18703" pt_clust_4="46.11096" pt_clust_5="14000.00000" pt_clust_6="75.44763"></scales>
<clustering>
<clus scale="   34.187">  2  3  1 -1</clus>
<clus scale="   46.111">  2  4  1 -1</clus>
<clus scale="   75.448">  2  6  1 -1</clus>
<clus scale="   34.187">  2  3  1 -1</clus>
</clustering>
</event>
<event>
 6    0  0.3643696E+002  0.2062796E+03  0.7546771E-02  0.1144546E+00
         21   -1    0    0  503  502  0.00000000000E+00  0.00000000000E+00  0.26426584919E+03  0.26426584919E+03  0.00000000000E+00 0. -1.
         -2   -1    0    0    0  501 -0.00000000000E+00 -0.00000000000E+00 -0.21437467100E+04  0.21437467100E+04  0.00000000000E+00 0.  1.
         21    1    1    2  503  504 -0.10252279340E+03 -0.33046390486E+02  0.22074468858E+03  0.24562411247E+03  0.00000000000E+00 0. -1.
         21    1    1    2  504  501  0.39509051106E+02 -0.56100847312E+02 -0.23744937837E+03  0.24716487913E+03  0.00000000000E+00 0.  1.
         21    1    1    2  505  502 -0.99941027998E+02 -0.31790116066E+02 -0.11474065912E+03  0.15544851048E+03  0.00000000000E+00 0. -1.
         -2    1    1    2    0  505  0.16295477029E+03  0.12093735387E+03 -0.17480355119E+04  0.17597750571E+04  0.00000000000E+00 0.  1.
<scales pt_clust_3="206.27962" pt_clust_4="68.61684" pt_clust_5="103.51294" pt_clust_6="14000.00000"></scales>
<clustering>
<clus scale="   68.617">  2  4  1 -1</clus>
<clus scale="  103.513">  1  5  2 -1</clus>
<clus scale="  206.280">  1  3  2 -1</clus>
<clus scale="  103.513">  1  3  2 -1</clus>
</clustering>
</event>
<event>
 6    0  0.3643696E+002  0.2653468E+03  0.7546771E-02  0.1103973E+00
         21   -1    0    0  504  502  0.00000000000E+00  0.00000000000E+00  0.10305762461E+04  0.10305762461E+04  0.00000000000E+00 0. -1.
          2   -1    0    0  505    0 -0.00000000000E+00 -0.00000000000E+00 -0.41504725153E+03  0.41504725153E+03  0.00000000000E+00 0. -1.
         21    1    1    2  503  501  0.11042790524E+03 -0.16028799534E+03  0.56886976141E+02  0.20278730670E+03  0.00000000000E+00 0. -1.
         21    1    1    2  504  503  0.21151147191E+02 -0.60607989615E+02  0.55327447170E+02  0.84745653830E+02  0.00000000000E+00 0. -1.
         21    1    1    2  505  502  0.55153531909E+02  0.40315552778E+02  0.77743993558E+03  0.78043584574E+03  0.00000000000E+00 0. -1.
          2    1    1    2  501    0 -0.18673258434E+03  0.18058043217E+03 -0.27412536432E+03  0.37765469136E+03  0.00000000000E+00 0. -1.
<scales pt_clust_3="36.20699" pt_clust_4="36.20699" pt_clust_5="68.31732" pt_clust_6="257.74769"></scales>
<clustering>
<clus scale="   36.207">  3  4 -1 -1</clus>
<clus scale="   68.317">  1  5  2 -1</clus>
<clus scale="  257.748">  2  6  1 -1</clus>
<clus scale="   68.317">  1  3  2 -1</clus>
</clustering>
</event>
<event>
 6    0  0.3643696E+002  0.1414041E+03  0.7546771E-02  0.1211452E+00
          3   -1    0    0  505    0 -0.00000000000E+00  0.00000000000E+00  0.24999783866E+03  0.24999783866E+03  0.00000000000E+00 0.  1.
         21   -1    0    0  501  502  0.00000000000E+00 -0.00000000000E+00 -0.34148933998E+03  0.34148933998E+03  0.00000000000E+00 0. -1.
         21    1    1    2  503  504 -0.87979407814E+02  0.63312462146E+02 -0.10629074724E+03  0.15181095814E+03  0.00000000000E+00 0. -1.
         21    1    1    2  504  502 -0.29530906773E+02  0.48725826183E+02 -0.16298156970E+03  0.17265362045E+03  0.00000000000E+00 0. -1.
         21    1    1    2  505  503  0.58249420027E+02  0.10752848396E+02  0.31633672200E+02  0.67151380470E+02  0.00000000000E+00 0.  1.
          3    1    1    2  501    0  0.59260894560E+02 -0.12279113673E+03  0.14614714343E+03  0.19987121958E+03  0.00000000000E+00 0.  1.
<scales pt_clust_3="141.40409" pt_clust_4="56.97614" pt_clust_5="57.42755" pt_clust_6="14000.00000"></scales>
<clustering>
<clus scale="   56.976">  2  4  1 -1</clus>
<clus scale="   57.428">  1  5  2 -1</clus>
<clus scale="  141.404">  2  3  1 -1</clus>
<clus scale="   56.976">  2  3  1 -1</clus>
</clustering>
</event>
<event>
 6    0  0.3643696E+002  0.1173504E+03  0.7546771E-02  0.1247533E+00
         21   -1    0    0  501  502  0.00000000000E+00  0.00000000000E+00  0.22258957433E+03  0.22258957433E+03  0.00000000000E+00 0.  1.
          2   -1    0    0  504    0 -0.00000000000E+00 -0.00000000000E+00 -0.45530301869E+03  0.45530301869E+03  0.00000000000E+00 0.  1.
         21    1    1    2  503  505 -0.54088660286E+02 -0.72229851825E+02 -0.64065666754E+02  0.11066681672E+03  0.00000000000E+00 0.  1.
         21    1    1    2  504  503 -0.27426231691E+02 -0.19266010476E+02 -0.19945161794E+03  0.20224817735E+03  0.00000000000E+00 0.  1.
         21    1    1    2  505  502 -0.72690514859E+01 -0.32786886670E+02  0.16088570618E+03  0.16435336778E+03  0.00000000000E+00 0.  1.
          2    1    1    2  501    0  0.88783943463E+02  0.12428274897E+03 -0.13008186585E+03  0.20062423117E+03  0.00000000000E+00 0.  1.
<scales pt_clust_3="117.35040" pt_clust_4="33.51682" pt_clust_5="33.75198" pt_clust_6="14000.00000"></scales>
<clustering>
<clus scale="   33.517">  2  4  1 -1</clus>
<clus scale="   33.752">  1  5  2 -1</clus>
<clus scale="  117.350">  1  3  2 -1</clus>
<clus scale="   33.752">  1  3  2 -1</clus>
</clustering>
</event>
<event>
 6    0  0.3643696E+002  0.6167648E+02  0.7546771E-02  0.1390928E+00
         21   -1    0    0  504  502  0.00000000000E+00  0.00000000000E+00  0.29147393541E+02  0.29147393541E+02  0.00000000000E+00 0. -1.
          2   -1    0    0  505    0 -0.00000000000E+00 -0.00000000000E+00 -0.12102974974E+04  0.12102974974E+04  0.00000000000E+00 0. -1.
         21    1    1    2  503  501  0.83551153981E+02  0.32230690610E+02 -0.26552392092E+03  0.28021878118E+03  0.00000000000E+00 0. -1.
         21    1    1    2  504  503  0.12567689806E+02  0.42612566100E+02 -0.68160524125E+02  0.81361137318E+02  0.00000000000E+00 0.  1.
         21    1    1    2  505  502 -0.41844451108E+02 -0.55473157563E+02 -0.71284611692E+02  0.99547602495E+02  0.00000000000E+00 0. -1.
          2    1    1    2  501    0 -0.54274392679E+02 -0.19370099147E+02 -0.77618104713E+03  0.77831736995E+03  0.00000000000E+00 0. -1.
<scales pt_clust_3="61.67648" pt_clust_4="44.42722" pt_clust_5="44.51127" pt_clust_6="14000.00000"></scales>
<clustering>
<clus scale="   44.427">  1  4  2 -1</clus>
<clus scale="   44.511">  1  5  2 -1</clus>
<clus scale="   61.676">  1  3  2 -1</clus>
<clus scale="   44.427">  1  3  2 -1</clus>
</clustering>
</event>
<event>
 6    0  0.3643696E+002  0.1475520E+03  0.7546771E-02  0.1203514E+00
         21   -1    0    0  501  502  0.00000000000E+00  0.00000000000E+00  0.93228446466E+03  0.93228446466E+03  0.00000000000E+00 0.  1.
          2   -1    0    0  504    0 -0.00000000000E+00 -0.00000000000E+00 -0.11899958175E+03  0.11899958175E+03  0.00000000000E+00 0. -1.
         21    1    1    2  503  502 -0.12765490028E+03 -0.69426427241E+02  0.73384434945E+03  0.74809313029E+03  0.00000000000E+00 0.  1.
         21    1    1    2  504  505  0.20836101464E+02 -0.48272101528E+02 -0.39671833799E+01  0.52726439802E+02  0.00000000000E+00 0. -1.
         21    1    1    2  505  503 -0.42172179856E+02  0.35355930157E+02  0.55137944141E+02  0.77902037426E+02  0.00000000000E+00 0.  1.
          2    1    1    2  501    0  0.14899097867E+03  0.82342598612E+02  0.28269772695E+02  0.17256243890E+03  0.00000000000E+00 0. -1.
<scales pt_clust_3="147.55197" pt_clust_4="52.57698" pt_clust_5="49.22279" pt_clust_6="14000.00000"></scales>
<clustering>
<clus scale="   52.577">  2  4  1 -1</clus>
<clus scale="   49.223">  2  5  1 -1</clus>
<clus scale="  147.552">  1  3  2 -1</clus>
<clus scale="  147.552">  1  3  2 -1</clus>
</clustering>
</event>
<event>
 6    0  0.3643696E+002  0.9229586E+02  0.7546771E-02  0.1297385E+00
         21   -1    0    0  503  502  0.00000000000E+00  0.00000000000E+00  0.23661250818E+03  0.23661250818E+03  0.00000000000E+00 0.  1.
          1   -1    0    0  505    0 -0.00000000000E+00 -0.00000000000E+00 -0.69943149168E+03  0.69943149168E+03  0.00000000000E+00 0. -1.
         21    1    1    2  503  501  0.10693597529E+02  0.91891018976E+02  0.21707408054E+03  0.23596497375E+03  0.00000000000E+00 0.  1.
         21    1    1    2  504  502 -0.28893402180E+02 -0.16769787068E+02 -0.10022595543E+03  0.10564703777E+03  0.00000000000E+00 0. -1.
         21    1    1    2  505  504 -0.26938188685E+02  0.13468994189E+02 -0.18488059498E+03  0.18731768260E+03  0.00000000000E+00 0.  1.
          1    1    1    2  501    0  0.45137993335E+02 -0.88590226097E+02 -0.39478651362E+03  0.40711430574E+03  0.00000000000E+00 0. -1.
<scales pt_clust_3="92.29586" pt_clust_4="37.06879" pt_clust_5="30.11777" pt_clust_6="14000.00000"></scales>
<clustering>
<clus scale="   30.118">  2  5  1 -1</clus>
<clus scale="   37.069">  2  4  1 -1</clus>
<clus scale="   92.296">  1  3  2 -1</clus>
<clus scale="   92.296">  1  3  2 -1</clus>
</clustering>
</event>
<event>
 6    0  0.3643696E+002  0.1066089E+03  0.7546771E-02  0.1266982E+00
         21   -1    0    0  504  502  0.00000000000E+00  0.00000000000E+00  0.92245740913E+02  0.92245740913E+02  0.00000000000E+00 0. -1.
          4   -1    0    0  503    0 -0.00000000000E+00 -0.00000000000E+00 -0.30485875494E+03  0.30485875494E+03  0.00000000000E+00 0. -1.
         21    1    1    2  503  505 -0.23211918193E+02 -0.22749059189E+02 -0.11147971853E+03  0.11612080125E+03  0.00000000000E+00 0.  1.
         21    1    1    2  504  501  0.14935294441E+02  0.28111312550E+02  0.12970265727E+02  0.34373488423E+02  0.00000000000E+00 0. -1.
         21    1    1    2  505  502 -0.90871941173E+02 -0.56522351876E+02 -0.58198609533E+02  0.12181774955E+03  0.00000000000E+00 0. -1.
          4    1    1    2  501    0  0.99148564926E+02  0.51160098515E+02 -0.55904951690E+02  0.12479245662E+03  0.00000000000E+00 0. -1.
<scales pt_clust_3="31.47584" pt_clust_4="31.83251" pt_clust_5="14000.00000" pt_clust_6="106.60890"></scales>
<clustering>
<clus scale="   31.833">  1  4  2 -1</clus>
<clus scale="   31.476">  2  3  1 -1</clus>
<clus scale="  106.609">  2  6  1 -1</clus>
<clus scale="   31.833">  1  3  2 -1</clus>
</clustering>
</event>
<event>
 6    0  0.3643696E+002  0.1149923E+03  0.7546771E-02  0.1251594E+00
         21   -1    0    0  503  502  0.00000000000E+00  0.00000000000E+00  0.20044191794E+02  0.20044191794E+02  0.00000000000E+00 0.  1.
          2   -1    0    0  504    0 -0.00000000000E+00 -0.00000000000E+00 -0.21135490677E+04  0.21135490677E+04  0.00000000000E+00 0.  1.
         21    1    1    2  503  505  0.38969309182E+02  0.77433583243E+01 -0.32261966970E+02  0.51180085669E+02  0.00000000000E+00 0.  1.
         21    1    1    2  504  502  0.24596208767E+02  0.41414399456E+02 -0.25164487773E+03  0.25621332998E+03  0.00000000000E+00 0.  1.
         21    1    1    2  505  501  0.77739630920E+02 -0.43937896610E+02 -0.41773820393E+03  0.42717583733E+03  0.00000000000E+00 0.  1.
          2    1    1    2  501    0 -0.14130514887E+03 -0.52198611700E+01 -0.13918598273E+04  0.13990240066E+04  0.00000000000E+00 0.  1.
<scales pt_clust_3="39.73118" pt_clust_4="54.27450" pt_clust_5="114.99233" pt_clust_6="14000.00000"></scales>
<clustering>
<clus scale="   39.731">  1  3  2 -1</clus>
<clus scale="   54.274">  1  4  2 -1</clus>
<clus scale="  114.992">  1  5  2 -1</clus>
<clus scale="   39.731">  1  3  2 -1</clus>
</clustering>
</event>
<event>
 6    0  0.3643696E+002  0.8577845E+02  0.7546771E-02  0.1313409E+00
         21   -1    0    0  505  502  0.00000000000E+00  0.00000000000E+00  0.24733346275E+02  0.24733346275E+02  0.00000000000E+00 0.  1.
          2   -1    0    0  503    0 -0.00000000000E+00 -0.00000000000E+00 -0.16593108227E+04  0.16593108227E+04  0.00000000000E+00 0.  1.
         21    1    1    2  503  504  0.49997510379E+02 -0.35931055584E+02 -0.27988988329E+03  0.28658181828E+03  0.00000000000E+00 0. -1.
         21    1    1    2  504  502  0.31493102207E+02 -0.63872371091E+02 -0.53191396916E+02  0.88886556809E+02  0.00000000000E+00 0.  1.
         21    1    1    2  505  501 -0.31320925188E+02  0.59328274025E+02 -0.82773813290E+03  0.83045244362E+03  0.00000000000E+00 0.  1.
          2    1    1    2  501    0 -0.50169687398E+02  0.40475152649E+02 -0.47375806337E+03  0.47812335032E+03  0.00000000000E+00 0.  1.
<scales pt_clust_3="61.56941" pt_clust_4="74.03463" pt_clust_5="42.46550" pt_clust_6="42.46550"></scales>
<clustering>
<clus scale="   42.465">  5  6 -1 -1</clus>
<clus scale="   61.569">  2  3  1 -1</clus>
<clus scale="   74.035">  1  4  2 -1</clus>
<clus scale="   74.035">  1  3  2 -1</clus>
</clustering>
</event>
<event>
 6    0  0.3643696E+002  0.6886892E+02  0.7546771E-02  0.1363982E+00
          2   -1    0    0  504    0 -0.00000000000E+00  0.00000000000E+00  0.18451533852E+04  0.18451533852E+04  0.00000000000E+00 0. -1.
         21   -1    0    0  503  502  0.00000000000E+00 -0.00000000000E+00 -0.16122222441E+03  0.16122222441E+03  0.00000000000E+00 0. -1.
         21    1    1    2  503  501  0.44488245696E+02 -0.19475600343E+02  0.12487873214E+03  0.13398955465E+03  0.00000000000E+00 0. -1.
         21    1    1    2  504  505 -0.16605412576E+02 -0.88395945395E+02  0.62771529835E+03  0.63412623244E+03  0.00000000000E+00 0. -1.
         21    1    1    2  505  502 -0.14312422969E+02  0.45212418173E+02 -0.14882422498E+03  0.15619749726E+03  0.00000000000E+00 0. -1.
          2    1    1    2  501    0 -0.13570410150E+02  0.62659127566E+02  0.10801613553E+04  0.10820623253E+04  0.00000000000E+00 0. -1.
<scales pt_clust_3="37.23779" pt_clust_4="14000.00000" pt_clust_5="47.42371" pt_clust_6="68.86892"></scales>
<clustering>
<clus scale="   47.424">  2  5  1 -1</clus>
<clus scale="   37.238">  2  3  1 -1</clus>
<clus scale="   68.869">  1  6  2 -1</clus>
<clus scale="   47.424">  2  3  1 -1</clus>
</clustering>
</event>
<event>
 6    0  0.3643696E+002  0.9543134E+02  0.7546771E-02  0.1290208E+00
         21   -1    0    0  501  502  0.00000000000E+00  0.00000000000E+00  0.10334391475E+03  0.10334391475E+03  0.00000000000E+00 0. -1.
          1   -1    0    0  503    0 -0.00000000000E+00 -0.00000000000E+00 -0.28311286312E+03  0.28311286312E+03  0.00000000000E+00 0. -1.
         21    1    1    2  503  504  0.27532508412E+02  0.16968640602E+02 -0.13224496896E+03  0.13614222562E+03  0.00000000000E+00 0. -1.
         21    1    1    2  504  505  0.82154036300E+02  0.34834183010E+02 -0.20310157480E+02  0.91516165147E+02  0.00000000000E+00 0. -1.
         21    1    1    2  505  502 -0.26304464774E+02  0.22351757834E+02  0.17361107222E+02  0.38638503973E+02  0.00000000000E+00 0. -1.
          1    1    1    2  501    0 -0.83382079938E+02 -0.74154581447E+02 -0.44574929148E+02  0.12015988313E+03  0.00000000000E+00 0. -1.
<scales pt_clust_3="32.34152" pt_clust_4="14000.00000" pt_clust_5="33.87592" pt_clust_6="95.43134"></scales>
<clustering>
<clus scale="   32.342">  2  3  1 -1</clus>
<clus scale="   33.876">  1  5  2 -1</clus>
<clus scale="   95.431">  2  6  1 -1</clus>
<clus scale="   33.876">  1  3  2 -1</clus>
</clustering>
</event>
<event>
 6    0  0.3643696E+002  0.1040649E+03  0.7546771E-02  0.1271973E+00
          1   -1    0    0  505    0 -0.00000000000E+00  0.00000000000E+00  0.81914505691E+03  0.81914505691E+03  0.00000000000E+00 0. -1.
         21   -1    0    0  501  502  0.00000000000E+00 -0.00000000000E+00 -0.48119064005E+03  0.48119064005E+03  0.00000000000E+00 0.  1.
         21    1    1    2  503  504 -0.76240408561E+02  0.43449149226E+02  0.15510020600E+03  0.17820354196E+03  0.00000000000E+00 0.  1.
         21    1    1    2  504  502  0.25748455534E+02 -0.78160542443E+02 -0.45929542610E+03  0.46660941031E+03  0.00000000000E+00 0.  1.
         21    1    1    2  505  503 -0.37380328478E+02  0.14732262475E+02  0.15596453950E+03  0.16105671702E+03  0.00000000000E+00 0.  1.
          1    1    1    2  501    0  0.87872281505E+02  0.19979130742E+02  0.48618509746E+03  0.49446602767E+03  0.00000000000E+00 0. -1.
<scales pt_clust_3="30.57341" pt_clust_4="82.29249" pt_clust_5="30.57341" pt_clust_6="93.74438"></scales>
<clustering>
<clus scale="   30.573">  3  5 -1 -1</clus>
<clus scale="   82.292">  2  4  1 -1</clus>
<clus scale="   93.744">  1  6  2 -1</clus>
<clus scale="   82.292">  2  3  1 -1</clus>
</clustering>
</event>
<event>
 6    0  0.3643696E+002  0.1605182E+03  0.7546771E-02  0.1188113E+00
         21   -1    0    0  503  502  0.00000000000E+00  0.00000000000E+00  0.26656158236E+03  0.26656158236E+03  0.00000000000E+00 0.  1.
          2   -1    0    0  505    0 -0.00000000000E+00 -0.00000000000E+00 -0.38413242115E+03  0.38413242115E+03  0.00000000000E+00 0. -1.
         21    1    1    2  503  501  0.16039249569E+03  0.29370090302E+02 -0.15187051370E+02  0.16376507994E+03  0.00000000000E+00 0.  1.
         21    1    1    2  504  502 -0.29318592792E+02 -0.11405245240E+02  0.13169850298E+03  0.13540367495E+03  0.00000000000E+00 0.  1.
         21    1    1    2  505  504  0.25150463509E+02 -0.72609682276E+02 -0.17264269340E+02  0.78757645793E+02  0.00000000000E+00 0.  1.
          2    1    1    2  501    0 -0.15622436641E+03  0.54644837215E+02 -0.21681802106E+03  0.27276760283E+03  0.00000000000E+00 0. -1.
<scales pt_clust_3="14000.00000" pt_clust_4="31.45885" pt_clust_5="77.45677" pt_clust_6="160.51823"></scales>
<clustering>
<clus scale="   31.459">  1  4  2 -1</clus>
<clus scale="   77.457">  1  5  2 -1</clus>
<clus scale="  160.518">  2  6  1 -1</clus>
<clus scale="   31.459">  1  3  2 -1</clus>
</clustering>
</event>
<event>
 6    0  0.3643696E+002  0.1229891E+03  0.7546771E-02  0.1238246E+00
         21   -1    0    0  504  502  0.00000000000E+00  0.00000000000E+00  0.16463562418E+03  0.16463562418E+03  0.00000000000E+00 0.  1.
          2   -1    0    0  503    0 -0.00000000000E+00 -0.00000000000E+00 -0.15391547204E+04  0.15391547204E+04  0.00000000000E+00 0. -1.
         21    1    1    2  503  505  0.11408259604E+03 -0.14911174859E+02 -0.71360394623E+03  0.72281932315E+03  0.00000000000E+00 0. -1.
         21    1    1    2  504  501  0.17696490672E+02 -0.13205040617E+03  0.10541626685E+03  0.16989133253E+03  0.00000000000E+00 0.  1.
         21    1    1    2  505  502 -0.45473636901E+02  0.12181000416E+02 -0.26270196776E+02  0.53910589524E+02  0.00000000000E+00 0. -1.
          2    1    1    2  501    0 -0.86305449815E+02  0.13478058062E+03 -0.74006122010E+03  0.75716909939E+03  0.00000000000E+00 0. -1.
<scales pt_clust_3="113.62729" pt_clust_4="14000.00000" pt_clust_5="47.07684" pt_clust_6="122.98910"></scales>
<clustering>
<clus scale="   47.077">  1  5  2 -1</clus>
<clus scale="  113.627">  2  3  1 -1</clus>
<clus scale="  122.989">  2  6  1 -1</clus>
<clus scale="   47.077">  1  3  2 -1</clus>
</clustering>
</event>
<event>
 6    0  0.3643696E+002  0.1867318E+03  0.7546771E-02  0.1161443E+00
         21   -1    0    0  504  502  0.00000000000E+00  0.00000000000E+00  0.12631386000E+03  0.12631386000E+03  0.00000000000E+00 0.  1.
          2   -1    0    0  505    0 -0.00000000000E+00 -0.00000000000E+00 -0.79730101559E+03  0.79730101559E+03  0.00000000000E+00 0. -1.
         21    1    1    2  503  501 -0.12208890302E+01 -0.36945878546E+02 -0.43658404409E+02  0.57206160395E+02  0.00000000000E+00 0. -1.
         21    1    1    2  504  503  0.30146146407E+02 -0.16530535842E+01  0.81966885681E+02  0.87350403992E+02  0.00000000000E+00 0.  1.
         21    1    1    2  505  502  0.95729327324E+02  0.13390141009E+03 -0.38903034806E+03  0.42241958222E+03  0.00000000000E+00 0. -1.
          2    1    1    2  501    0 -0.12465458470E+03 -0.95302477962E+02 -0.32026528880E+03  0.35663872897E+03  0.00000000000E+00 0. -1.
<scales pt_clust_3="37.36315" pt_clust_4="30.19143" pt_clust_5="171.39395" pt_clust_6="37.36315"></scales>
<clustering>
<clus scale="   30.191">  1  4  2 -1</clus>
<clus scale="   37.363">  3  6 -1 -1</clus>
<clus scale="  171.394">  2  5  1 -1</clus>
<clus scale="   30.191">  1  3  2 -1</clus>
</clustering>
</event>
<event>
 6    0  0.3643696E+002  0.1080860E+03  0.7546771E-02  0.1264156E+00
         21   -1    0    0  501  502  0.00000000000E+00  0.00000000000E+00  0.19751761987E+02  0.19751761987E+02  0.00000000000E+00 0.  1.
          2   -1    0    0  504    0 -0.00000000000E+00 -0.00000000000E+00 -0.25149773468E+04  0.25149773468E+04  0.00000000000E+00 0. -1.
         21    1    1    2  503  505  0.74120539577E+02 -0.59549905479E+02 -0.17514539860E+03  0.19928862557E+03  0.00000000000E+00 0.  1.
         21    1    1    2  504  503 -0.32917107777E+02  0.31660164807E+01 -0.72936319760E+03  0.73011248014E+03  0.00000000000E+00 0. -1.
         21    1    1    2  505  502 -0.23004950519E+02 -0.44966779336E+02 -0.11008312492E+03  0.12111784916E+03  0.00000000000E+00 0. -1.
          2    1    1    2  501    0 -0.18198481282E+02  0.10135066833E+03 -0.14806338637E+04  0.14842101540E+04  0.00000000000E+00 0. -1.
<scales pt_clust_3="14000.00000" pt_clust_4="33.06901" pt_clust_5="51.33670" pt_clust_6="108.08599"></scales>
<clustering>
<clus scale="   33.069">  2  4  1 -1</clus>
<clus scale="   51.337">  1  5  2 -1</clus>
<clus scale="  108.086">  2  6  1 -1</clus>
<clus scale="   51.337">  1  3  2 -1</clus>
</clustering>
</event>
<event>
 6    0  0.3643696E+002  0.1232418E+03  0.7546771E-02  0.1237843E+00
         21   -1    0    0  504  502  0.00000000000E+00  0.00000000000E+00  0.24025919418E+03  0.24025919418E+03  0.00000000000E+00 0. -1.
          4   -1    0    0  503    0 -0.00000000000E+00 -0.00000000000E+00 -0.67283229833E+03  0.67283229833E+03  0.00000000000E+00 0. -1.
         21    1    1    2  503  505  0.17020974924E+02  0.31571404453E+02 -0.40377016296E+02  0.54007134821E+02  0.00000000000E+00 0.  1.
         21    1    1    2  504  501 -0.56224135274E+02 -0.37619469882E+02 -0.28121507053E+02  0.73261156559E+02  0.00000000000E+00 0. -1.
         21    1    1    2  505  502 -0.71268494684E+02  0.46088404154E+02  0.19598327418E+03  0.21357149409E+03  0.00000000000E+00 0. -1.
          4    1    1    2  501    0  0.11047165503E+03 -0.40040338726E+02 -0.56005785497E+03  0.57225170704E+03  0.00000000000E+00 0. -1.
<scales pt_clust_3="35.86736" pt_clust_4="65.09443" pt_clust_5="123.24176" pt_clust_6="14000.00000"></scales>
<clustering>
<clus scale="   35.867">  2  3  1 -1</clus>
<clus scale="   65.094">  1  4  2 -1</clus>
<clus scale="  123.242">  1  5  2 -1</clus>
<clus scale="   65.094">  1  3  2 -1</clus>
</clustering>
</event>
<event>
 6    0  0.3643696E+002  0.1156528E+03  0.7546771E-02  0.1250446E+00
         21   -1    0    0  505  502  0.00000000000E+00  0.00000000000E+00  0.69600804906E+02  0.69600804906E+02  0.00000000000E+00 0. -1.
         -3   -1    0    0    0  501 -0.00000000000E+00 -0.00000000000E+00 -0.14732796818E+04  0.14732796818E+04  0.00000000000E+00 0. -1.
         21    1    1    2  503  504 -0.42595164636E+02 -0.48356287039E+02 -0.37575580877E+03  0.38124153285E+03  0.00000000000E+00 0. -1.
         21    1    1    2  504  501  0.44101470581E+02 -0.37775724588E+01 -0.10795469949E+03  0.11667659107E+03  0.00000000000E+00 0.  1.
         21    1    1    2  505  503  0.10596353814E+03  0.49186339493E+02  0.19078007115E+01  0.11683838030E+03  0.00000000000E+00 0. -1.
         -3    1    1    2    0  502 -0.10746984408E+03  0.29475200050E+01 -0.92187616934E+03  0.92812398248E+03  0.00000000000E+00 0. -1.
<scales pt_clust_3="57.97372" pt_clust_4="44.26296" pt_clust_5="115.65281" pt_clust_6="14000.00000"></scales>
<clustering>
<clus scale="   44.263">  2  4  1 -1</clus>
<clus scale="   57.974">  2  3  1 -1</clus>
<clus scale="  115.653">  1  5  2 -1</clus>
<clus scale="  115.653">  1  3  2 -1</clus>
</clustering>
</event>
<event>
 6    0  0.3643696E+002  0.1315693E+03  0.7546771E-02  0.1225146E+00
         21   -1    0    0  504  502  0.00000000000E+00  0.00000000000E+00  0.98902746185E+02  0.98902746185E+02  0.00000000000E+00 0.  1.
          1   -1    0    0  505    0 -0.00000000000E+00 -0.00000000000E+00 -0.15327322528E+04  0.15327322528E+04  0.00000000000E+00 0. -1.
         21    1    1    2  503  502  0.26872684191E+02  0.33415581201E+02  0.79993436506E+02  0.90761732612E+02  0.00000000000E+00 0.  1.
         21    1    1    2  504  501 -0.40616652012E+02 -0.48414780134E+02 -0.45601930919E+03  0.46037736012E+03  0.00000000000E+00 0. -1.
         21    1    1    2  505  503  0.25347996135E+02  0.90765941892E+02 -0.22185756586E+03  0.24104305974E+03  0.00000000000E+00 0. -1.
          1    1    1    2  501    0 -0.11604028314E+02 -0.75766742959E+02 -0.83594606810E+03  0.83945284655E+03  0.00000000000E+00 0. -1.
<scales pt_clust_3="42.88056" pt_clust_4="41.84049" pt_clust_5="122.77823" pt_clust_6="41.84049"></scales>
<clustering>
<clus scale="   42.881">  1  3  2 -1</clus>
<clus scale="   41.840">  4  6 -1 -1</clus>
<clus scale="  122.778">  1  5  2 -1</clus>
<clus scale="   42.881">  1  3  2 -1</clus>
</clustering>
</event>
<event>
 6    0  0.3643696E+002  0.1986257E+03  0.7546771E-02  0.1150904E+00
         -1   -1    0    0    0  501 -0.00000000000E+00  0.00000000000E+00  0.69854760246E+03  0.69854760246E+03  0.00000000000E+00 0. -1.
         21   -1    0    0  505  502  0.00000000000E+00 -0.00000000000E+00 -0.10180425324E+04  0.10180425324E+04  0.00000000000E+00 0.  1.
         21    1    1    2  503  501  0.30467289733E+02 -0.23139572405E+01  0.20295964894E+02  0.36681553031E+02  0.00000000000E+00 0.  1.
         21    1    1    2  504  502 -0.16481254378E+03  0.11170434009E+03 -0.98215227123E+03  0.10021297910E+04  0.00000000000E+00 0.  1.
         21    1    1    2  505  503 -0.20626941234E+02 -0.33339631641E+02  0.73510293613E+02  0.83311253800E+02  0.00000000000E+00 0. -1.
         -1    1    1    2    0  504  0.15497219528E+03 -0.76050751207E+02  0.56885108283E+03  0.59446753696E+03  0.00000000000E+00 0. -1.
<scales pt_clust_3="30.55503" pt_clust_4="198.62574" pt_clust_5="37.69296" pt_clust_6="14000.00000"></scales>
<clustering>
<clus scale="   30.555">  1  3  2 -1</clus>
<clus scale="   37.693">  1  5  2 -1</clus>
<clus scale="  198.626">  2  4  1 -1</clus>
<clus scale="  198.626">  2  3  1 -1</clus>
</clustering>
</event>
<event>
 6    0  0.3643696E+002  0.8943375E+02  0.7546771E-02  0.1304229E+00
         21   -1    0    0  503  502  0.00000000000E+00  0.00000000000E+00  0.27624998952E+03  0.27624998952E+03  0.00000000000E+00 0.  1.
          2   -1    0    0  505    0 -0.00000000000E+00 -0.00000000000E+00 -0.58837114063E+03  0.58837114063E+03  0.00000000000E+00 0.  1.
         21    1    1    2  503  501  0.11543863650E+02 -0.50986973878E+02  0.21352631784E+03  0.21983271072E+03  0.00000000000E+00 0.  1.
         21    1    1    2  504  502 -0.85611945594E+02  0.49671501017E+01 -0.29412330032E+01  0.85806343939E+02  0.00000000000E+00 0. -1.
         21    1    1    2  505  504 -0.46059342952E+02  0.30451006269E+02 -0.30397801106E+03  0.30895203198E+03  0.00000000000E+00 0.  1.
          2    1    1    2  501    0  0.12012742490E+03  0.15568817507E+02 -0.21872822489E+03  0.25003004350E+03  0.00000000000E+00 0.  1.
<scales pt_clust_3="52.27745" pt_clust_4="89.43375" pt_clust_5="53.66055" pt_clust_6="14000.00000"></scales>
<clustering>
<clus scale="   52.277">  1  3  2 -1</clus>
<clus scale="   53.661">  2  5  1 -1</clus>
<clus scale="   89.434">  1  4  2 -1</clus>
<clus scale="   52.277">  1  3  2 -1</clus>
</clustering>
</event>
<event>
 6    0  0.3643696E+002  0.1483952E+03  0.7546771E-02  0.1202459E+00
         21   -1    0    0  504  502  0.00000000000E+00  0.00000000000E+00  0.13136461221E+03  0.13136461221E+03  0.00000000000E+00 0. -1.
         -2   -1    0    0    0  501 -0.00000000000E+00 -0.00000000000E+00 -0.45535060184E+03  0.45535060184E+03  0.00000000000E+00 0. -1.
         21    1    1    2  503  501  0.32717778473E+02  0.20978273264E+01 -0.79844528781E+02  0.86313398056E+02  0.00000000000E+00 0. -1.
         21    1    1    2  504  503  0.22267202622E+02  0.12887440600E+03 -0.17496135941E+03  0.21843973568E+03  0.00000000000E+00 0. -1.
         21    1    1    2  505  502 -0.19490812466E+01  0.35390195989E+02  0.56587997158E+02  0.66771747859E+02  0.00000000000E+00 0. -1.
         -2    1    1    2    0  505 -0.53035899848E+02 -0.16636242932E+03 -0.12576809859E+03  0.21519033246E+03  0.00000000000E+00 0. -1.
<scales pt_clust_3="32.78496" pt_clust_4="148.39516" pt_clust_5="35.45070" pt_clust_6="14000.00000"></scales>
<clustering>
<clus scale="   32.785">  2  3  1 -1</clus>
<clus scale="   35.451">  1  5  2 -1</clus>
<clus scale="  148.395">  2  4  1 -1</clus>
<clus scale="   35.451">  1  3  2 -1</clus>
</clustering>
</event>
<event>
 6    0  0.3643696E+002  0.1978641E+03  0.7546771E-02  0.1151554E+00
         21   -1    0    0  505  502  0.00000000000E+00  0.00000000000E+00  0.14078737820E+04  0.14078737820E+04  0.00000000000E+00 0. -1.
          2   -1    0    0  503    0 -0.00000000000E+00 -0.00000000000E+00 -0.35510850130E+03  0.35510850130E+03  0.00000000000E+00 0. -1.
         21    1    1    2  503  502  0.36487115468E+02  0.43867152040E+01 -0.26784834558E+03  0.27035770581E+03  0.00000000000E+00 0. -1.
         21    1    1    2  504  501  0.94308179938E+02  0.52828700316E+02  0.29819290759E+02  0.11213426988E+03  0.00000000000E+00 0. -1.
         21    1    1    2  505  504 -0.18024642636E+03 -0.44336440571E+02  0.13120719613E+04  0.13251367196E+04  0.00000000000E+00 0. -1.
          2    1    1    2  501    0  0.49451130959E+02 -0.12878974949E+02 -0.21277625717E+02  0.55353588005E+02  0.00000000000E+00 0. -1.
<scales pt_clust_3="36.74987" pt_clust_4="55.29433" pt_clust_5="182.84886" pt_clust_6="55.29433"></scales>
<clustering>
<clus scale="   36.750">  2  3  1 -1</clus>
<clus scale="   55.294">  4  6 -1 -1</clus>
<clus scale="  182.849">  1  5  2 -1</clus>
<clus scale="  182.849">  1  3  2 -1</clus>
</clustering>
</event>
<event>
 6    0  0.3643696E+002  0.1265432E+03  0.7546771E-02  0.1232677E+00
         21   -1    0    0  505  502  0.00000000000E+00  0.00000000000E+00  0.16436225515E+02  0.16436225515E+02  0.00000000000E+00 0.  1.
          2   -1    0    0  503    0 -0.00000000000E+00 -0.00000000000E+00 -0.30650474220E+04  0.30650474220E+04  0.00000000000E+00 0.  1.
         21    1    1    2  503  504 -0.34330274750E+02 -0.10954987704E+02 -0.64905476023E+03  0.65005435257E+03  0.00000000000E+00 0. -1.
         21    1    1    2  504  502 -0.90632007236E+02 -0.58557934147E+02 -0.20751155532E+03  0.23388937124E+03  0.00000000000E+00 0.  1.
         21    1    1    2  505  501  0.31954236400E+02 -0.88659741687E+01 -0.40006734678E+03  0.40143936115E+03  0.00000000000E+00 0.  1.
          2    1    1    2  501    0  0.93008045586E+02  0.78378896020E+02 -0.17919775341E+04  0.17961005625E+04  0.00000000000E+00 0.  1.
<scales pt_clust_3="36.03581" pt_clust_4="111.08480" pt_clust_5="31.64662" pt_clust_6="31.64662"></scales>
<clustering>
<clus scale="   31.647">  5  6 -1 -1</clus>
<clus scale="   36.036">  2  3  1 -1</clus>
<clus scale="  111.085">  1  4  2 -1</clus>
<clus scale="  111.085">  1  3  2 -1</clus>
</clustering>
</event>
<event>
 6    0  0.3643696E+002  0.1204383E+03  0.7546771E-02  0.1242376E+00
          1   -1    0    0  504    0 -0.00000000000E+00  0.00000000000E+00  0.69111194650E+03  0.69111194650E+03  0.00000000000E+00 0.  1.
         21   -1    0    0  503  502  0.00000000000E+00 -0.00000000000E+00 -0.19627560209E+03  0.19627560209E+03  0.00000000000E+00 0. -1.
         21    1    1    2  503  501  0.28767379942E+01 -0.67884233859E+02 -0.12781481485E+03  0.14475210438E+03  0.00000000000E+00 0. -1.
         21    1    1    2  504  505  0.66543986121E+02  0.11966768091E+03  0.42951749838E+03  0.45081452657E+03  0.00000000000E+00 0. -1.
         21    1    1    2  505  502  0.52340565714E+02 -0.30067952146E+02 -0.24492892420E+01  0.60412048329E+02  0.00000000000E+00 0. -1.
          1    1    1    2  501    0 -0.12176128983E+03 -0.21715494909E+02  0.19558295011E+03  0.23140886931E+03  0.00000000000E+00 0.  1.
<scales pt_clust_3="103.58993" pt_clust_4="120.43829" pt_clust_5="60.36238" pt_clust_6="14000.00000"></scales>
<clustering>
<clus scale="   60.362">  2  5  1 -1</clus>
<clus scale="  103.590">  2  3  1 -1</clus>
<clus scale="  120.438">  1  4  2 -1</clus>
<clus scale="   60.362">  2  3  1 -1</clus>
</clustering>
</event>
<event>
 6    0  0.3643696E+002  0.1426357E+03  0.7546771E-02  0.1209826E+00
         21   -1    0    0  501  502  0.00000000000E+00  0.00000000000E+00  0.17345711189E+03  0.17345711189E+03  0.00000000000E+00 0. -1.
          2   -1    0    0  504    0 -0.00000000000E+00 -0.00000000000E+00 -0.59579861693E+03  0.59579861693E+03  0.00000000000E+00 0. -1.
         21    1    1    2  503  505  0.14089491161E+03 -0.57810048208E+02 -0.18654035330E+03  0.24081254369E+03  0.00000000000E+00 0. -1.
         21    1    1    2  504  503  0.86979897670E+01  0.46532186609E+02 -0.15333144529E+03  0.16047252578E+03  0.00000000000E+00 0. -1.
         21    1    1    2  505  502 -0.25557753306E+02 -0.37948393772E+02  0.11833287587E+03  0.12686981065E+03  0.00000000000E+00 0. -1.
          2    1    1    2  501    0 -0.12403514807E+03  0.49226255370E+02 -0.20080258233E+03  0.24110084870E+03  0.00000000000E+00 0. -1.
<scales pt_clust_3="14000.00000" pt_clust_4="44.40776" pt_clust_5="45.75237" pt_clust_6="142.63569"></scales>
<clustering>
<clus scale="   45.752">  1  5  2 -1</clus>
<clus scale="   44.408">  2  4  1 -1</clus>
<clus scale="  142.636">  2  6  1 -1</clus>
<clus scale="   45.752">  1  3  2 -1</clus>
</clustering>
</event>
<event>
 6    0  0.3643696E+002  0.2516243E+03  0.7546771E-02  0.1112283E+00
          1   -1    0    0  505    0 -0.00000000000E+00  0.00000000000E+00  0.36412872976E+04  0.36412872976E+04  0.00000000000E+00 0.  1.
         21   -1    0    0  504  502  0.00000000000E+00 -0.00000000000E+00 -0.20651105812E+03  0.20651105812E+03  0.00000000000E+00 0.  1.
         21    1    1    2  503  502 -0.20260749996E+03 -0.12078180551E+02  0.20484961331E+04  0.20585266792E+04  0.00000000000E+00 0.  1.
         21    1    1    2  504  501  0.96082350715E+02  0.12850087094E+02 -0.10438690304E+03  0.14245549615E+03  0.00000000000E+00 0.  1.
         21    1    1    2  505  503 -0.30372310483E+02  0.48296108709E+01  0.15083538071E+04  0.15086672959E+04  0.00000000000E+00 0.  1.
          1    1    1    2  501    0  0.13689745973E+03 -0.56015174139E+01 -0.17686797667E+02  0.13814888450E+03  0.00000000000E+00 0.  1.
<scales pt_clust_3="231.96997" pt_clust_4="82.15198" pt_clust_5="30.75390" pt_clust_6="82.15198"></scales>
<clustering>
<clus scale="   30.754">  1  5  2 -1</clus>
<clus scale="   82.152">  4  6 -1 -1</clus>
<clus scale="  231.970">  1  3  2 -1</clus>
<clus scale="  251.624">  2  3  1 -1</clus>
</clustering>
</event>
<event>
 6    0  0.3643696E+002  0.9592942E+02  0.7546771E-02  0.1289096E+00
         21   -1    0    0  501  502  0.00000000000E+00  0.00000000000E+00  0.26793948553E+03  0.26793948553E+03  0.00000000000E+00 0.  1.
          1   -1    0    0  504    0 -0.00000000000E+00 -0.00000000000E+00 -0.61890611218E+03  0.61890611218E+03  0.00000000000E+00 0. -1.
         21    1    1    2  503  505 -0.10901947605E+03  0.10264033770E+02 -0.10404898537E+03  0.15105226878E+03  0.00000000000E+00 0. -1.
         21    1    1    2  504  503  0.97186815523E+01 -0.29601668098E+02 -0.39972355540E+02  0.50680378182E+02  0.00000000000E+00 0.  1.
         21    1    1    2  505  502  0.17736517059E+02 -0.30459563567E+02  0.23262217288E+03  0.23527737750E+03  0.00000000000E+00 0.  1.
          1    1    1    2  501    0  0.81564277441E+02  0.49797197895E+02 -0.43956745863E+03  0.44983557325E+03  0.00000000000E+00 0. -1.
<scales pt_clust_3="95.92942" pt_clust_4="31.15624" pt_clust_5="35.31779" pt_clust_6="14000.00000"></scales>
<clustering>
<clus scale="   31.156">  2  4  1 -1</clus>
<clus scale="   35.318">  1  5  2 -1</clus>
<clus scale="   95.929">  1  3  2 -1</clus>
<clus scale="   35.318">  1  3  2 -1</clus>
</clustering>
</event>
<event>
 6    0  0.3643696E+002  0.8287193E+02  0.7546771E-02  0.1321093E+00
          1   -1    0    0  503    0 -0.00000000000E+00  0.00000000000E+00  0.11060377152E+03  0.11060377152E+03  0.00000000000E+00 0. -1.
         21   -1    0    0  504  502  0.00000000000E+00 -0.00000000000E+00 -0.11271438593E+04  0.11271438593E+04  0.00000000000E+00 0.  1.
         21    1    1    2  503  505  0.84984492741E+02 -0.94352252676E+01 -0.32071087415E+01  0.85566775262E+02  0.00000000000E+00 0.  1.
         21    1    1    2  504  501  0.33282163592E+02 -0.30884916631E+02 -0.10033070869E+04  0.10043339540E+04  0.00000000000E+00 0.  1.
         21    1    1    2  505  502 -0.64682029202E+02  0.61994693003E+02 -0.33026480040E+01  0.89654973906E+02  0.00000000000E+00 0. -1.
          1    1    1    2  501    0 -0.53584627131E+02 -0.21674551104E+02 -0.67232440880E+01  0.58191927630E+02  0.00000000000E+00 0. -1.
<scales pt_clust_3="14000.00000" pt_clust_4="45.40463" pt_clust_5="82.87193" pt_clust_6="53.82858"></scales>
<clustering>
<clus scale="   45.405">  2  4  1 -1</clus>
<clus scale="   53.829">  2  6  1 -1</clus>
<clus scale="   82.872">  2  5  1 -1</clus>
<clus scale="   45.405">  2  3  1 -1</clus>
</clustering>
</event>
<event>
 6    0  0.3643696E+002  0.1423457E+03  0.7546771E-02  0.1210207E+00
         21   -1    0    0  503  502  0.00000000000E+00  0.00000000000E+00  0.36904895026E+03  0.36904895026E+03  0.00000000000E+00 0. -1.
         -4   -1    0    0    0  501 -0.00000000000E+00 -0.00000000000E+00 -0.84262138630E+03  0.84262138630E+03  0.00000000000E+00 0.  1.
         21    1    1    2  503  504  0.62094947865E+02  0.24202331030E+02 -0.86028173370E+02  0.10882270899E+03  0.00000000000E+00 0. -1.
         21    1    1    2  504  501 -0.41831374410E+02  0.20017536984E+02 -0.40305006957E+03  0.40570916215E+03  0.00000000000E+00 0.  1.
         21    1    1    2  505  502  0.10911808643E+03 -0.92276239719E+02  0.32676754933E+03  0.35664925697E+03  0.00000000000E+00 0. -1.
         -4    1    1    2    0  505 -0.12938165989E+03  0.48056371704E+02 -0.31126174243E+03  0.34048920846E+03  0.00000000000E+00 0.  1.
<scales pt_clust_3="60.06928" pt_clust_4="46.37419" pt_clust_5="14000.00000" pt_clust_6="142.34575"></scales>
<clustering>
<clus scale="   46.374">  2  4  1 -1</clus>
<clus scale="   60.069">  2  3  1 -1</clus>
<clus scale="  142.346">  2  6  1 -1</clus>
<clus scale="  142.346">  1  3  2 -1</clus>
</clustering>
</event>
<event>
 6    0  0.3643696E+002  0.1429563E+03  0.7546771E-02  0.1209406E+00
         21   -1    0    0  503  502  0.00000000000E+00  0.00000000000E+00  0.21874147245E+03  0.21874147245E+03  0.00000000000E+00 0. -1.
         -1   -1    0    0    0  501 -0.00000000000E+00 -0.00000000000E+00 -0.56967678339E+03  0.56967678339E+03  0.00000000000E+00 0.  1.
         21    1    1    2  503  504 -0.10244186598E+03  0.11669368595E+03  0.14970272421E+03  0.21569111683E+03  0.00000000000E+00 0. -1.
         21    1    1    2  504  501 -0.25841568392E+02  0.17799702668E+02 -0.62128191693E+02  0.69602645604E+02  0.00000000000E+00 0.  1.
         21    1    1    2  505  502  0.10204015464E+03 -0.39538025173E+02 -0.92264664096E+02  0.14313705612E+03  0.00000000000E+00 0.  1.
         -1    1    1    2    0  505  0.26243279726E+02 -0.94955363442E+02 -0.34624517935E+03  0.35998743728E+03  0.00000000000E+00 0.  1.
<scales pt_clust_3="142.95630" pt_clust_4="31.37859" pt_clust_5="14000.00000" pt_clust_6="82.87956"></scales>
<clustering>
<clus scale="   31.379">  2  4  1 -1</clus>
<clus scale="   82.880">  2  6  1 -1</clus>
<clus scale="  142.956">  1  3  2 -1</clus>
<clus scale="  142.956">  1  3  2 -1</clus>
</clustering>
</event>
<event>
 6    0  0.3643696E+002  0.1223615E+03  0.7546771E-02  0.1239251E+00
         21   -1    0    0  504  502  0.00000000000E+00  0.00000000000E+00  0.70517888353E+02  0.70517888353E+02  0.00000000000E+00 0.  1.
          2   -1    0    0  505    0 -0.00000000000E+00 -0.00000000000E+00 -0.13888995601E+04  0.13888995601E+04  0.00000000000E+00 0.  1.
         21    1    1    2  503  502 -0.90481301408E-01  0.40407725759E+02  0.47132596352E+02  0.62082800571E+02  0.00000000000E+00 0.  1.
         21    1    1    2  504  501 -0.44838237978E+02 -0.13931869641E+02 -0.29053467907E+03  0.29430420371E+03  0.00000000000E+00 0. -1.
         21    1    1    2  505  503  0.99567857451E+02  0.22178564512E+02 -0.19549820380E+03  0.22051121207E+03  0.00000000000E+00 0.  1.
          2    1    1    2  501    0 -0.54639138172E+02 -0.48654420630E+02 -0.87948138523E+03  0.88251923210E+03  0.00000000000E+00 0.  1.
<scales pt_clust_3="40.40783" pt_clust_4="37.25783" pt_clust_5="113.17826" pt_clust_6="37.25783"></scales>
<clustering>
<clus scale="   37.258">  4  6 -1 -1</clus>
<clus scale="   40.408">  1  3  2 -1</clus>
<clus scale="  113.178">  1  5  2 -1</clus>
<clus scale="   40.408">  1  3  2 -1</clus>
</clustering>
</event>
<event>
 6    0  0.3643696E+002  0.6953755E+02  0.7546771E-02  0.1361673E+00
         21   -1    0    0  503  502  0.00000000000E+00  0.00000000000E+00  0.11664106179E+03  0.11664106179E+03  0.00000000000E+00 0. -1.
          1   -1    0    0  505    0 -0.00000000000E+00 -0.00000000000E+00 -0.10467740636E+04  0.10467740636E+04  0.00000000000E+00 0. -1.
         21    1    1    2  503  501  0.69122200726E+02  0.88432615557E+00  0.90687734398E+02  0.11403037243E+03  0.00000000000E+00 0. -1.
         21    1    1    2  504  502 -0.16604538815E+02 -0.54294768248E+02 -0.17360284212E+03  0.18265152439E+03  0.00000000000E+00 0. -1.
         21    1    1    2  505  504  0.31274718384E+02 -0.32222950438E+02 -0.43917673754E+03  0.44146645778E+03  0.00000000000E+00 0. -1.
          1    1    1    2  501    0 -0.83792380296E+02  0.85633392530E+02 -0.40804115654E+03  0.42526677080E+03  0.00000000000E+00 0. -1.
<scales pt_clust_3="69.53755" pt_clust_4="64.18942" pt_clust_5="44.90464" pt_clust_6="14000.00000"></scales>
<clustering>
<clus scale="   44.905">  2  5  1 -1</clus>
<clus scale="   64.189">  2  4  1 -1</clus>
<clus scale="   69.538">  1  3  2 -1</clus>
<clus scale="   69.538">  1  3  2 -1</clus>
</clustering>
</event>
<event>
 6    0  0.3643696E+002  0.9397794E+02  0.7546771E-02  0.1293495E+00
         21   -1    0    0  505  502  0.00000000000E+00  0.00000000000E+00  0.46235273310E+03  0.46235273310E+03  0.00000000000E+00 0.  1.
         -2   -1    0    0    0  501 -0.00000000000E+00 -0.00000000000E+00 -0.17351300769E+03  0.17351300769E+03  0.00000000000E+00 0.  1.
         21    1    1    2  503  501 -0.38137529428E+02  0.11960264220E+02 -0.15849547875E+02  0.42996828243E+02  0.00000000000E+00 0.  1.
         21    1    1    2  504  502  0.26815851607E+02 -0.16679953777E+02  0.25704472049E+02  0.40718922367E+02  0.00000000000E+00 0.  1.
         21    1    1    2  505  503 -0.81099309091E+02 -0.58166845926E+02  0.38521796131E+03  0.39793637383E+03  0.00000000000E+00 0.  1.
         -2    1    1    2    0  504  0.92420986912E+02  0.62886535483E+02 -0.10623316007E+03  0.15421361634E+03  0.00000000000E+00 0.  1.
<scales pt_clust_3="39.00259" pt_clust_4="31.58023" pt_clust_5="93.97794" pt_clust_6="14000.00000"></scales>
<clustering>
<clus scale="   31.580">  1  4  2 -1</clus>
<clus scale="   39.003">  2  3  1 -1</clus>
<clus scale="   93.978">  1  5  2 -1</clus>
<clus scale="   31.580">  1  3  2 -1</clus>
</clustering>
</event>
<event>
 6    0  0.3643696E+002  0.1881956E+03  0.7546771E-02  0.1160099E+00
          2   -1    0    0  505    0 -0.00000000000E+00  0.00000000000E+00  0.19232056130E+03  0.19232056130E+03  0.00000000000E+00 0.  1.
         21   -1    0    0  503  502  0.00000000000E+00 -0.00000000000E+00 -0.32119643384E+03  0.32119643384E+03  0.00000000000E+00 0.  1.
         21    1    1    2  503  501  0.88399838358E+00  0.52833945225E+02 -0.45357656879E+02  0.69638525678E+02  0.00000000000E+00 0.  1.
         21    1    1    2  504  502 -0.88154020894E+02 -0.13534316296E+03 -0.99936115395E+02  0.18993717466E+03  0.00000000000E+00 0.  1.
         21    1    1    2  505  504  0.38412434123E+02 -0.70778523468E+02  0.42337362079E+02  0.90981133799E+02  0.00000000000E+00 0.  1.
          2    1    1    2  501    0  0.48857588388E+02  0.15328774120E+03 -0.25919462349E+02  0.16296016100E+03  0.00000000000E+00 0.  1.
<scales pt_clust_3="36.52273" pt_clust_4="177.07695" pt_clust_5="80.53021" pt_clust_6="36.52273"></scales>
<clustering>
<clus scale="   36.523">  3  6 -1 -1</clus>
<clus scale="   80.530">  1  5  2 -1</clus>
<clus scale="  177.077">  2  4  1 -1</clus>
<clus scale="  177.077">  2  3  1 -1</clus>
</clustering>
</event>
<event>
 6    0  0.3643696E+002  0.9318737E+02  0.7546771E-02  0.1295312E+00
         21   -1    0    0  505  502  0.00000000000E+00  0.00000000000E+00  0.21345623165E+03  0.21345623165E+03  0.00000000000E+00 0. -1.
         -3   -1    0    0    0  501 -0.00000000000E+00 -0.00000000000E+00 -0.55759640566E+03  0.55759640566E+03  0.00000000000E+00 0.  1.
         21    1    1    2  503  502 -0.28721365750E+02  0.15727869713E+02  0.16883479992E+03  0.17198102337E+03  0.00000000000E+00 0. -1.
         21    1    1    2  504  503 -0.74618729878E-01  0.86027316183E+02 -0.25945351114E+02  0.89854693489E+02  0.00000000000E+00 0.  1.
         21    1    1    2  505  501  0.38337940327E+02 -0.78379332060E+01 -0.58282441707E+02  0.70200241287E+02  0.00000000000E+00 0. -1.
         -3    1    1    2    0  504 -0.95419558476E+01 -0.93917252690E+02 -0.42874718111E+03  0.43901667917E+03  0.00000000000E+00 0.  1.
<scales pt_clust_3="32.74573" pt_clust_4="14000.00000" pt_clust_5="34.82539" pt_clust_6="93.18737"></scales>
<clustering>
<clus scale="   32.746">  1  3  2 -1</clus>
<clus scale="   34.825">  1  5  2 -1</clus>
<clus scale="   93.187">  2  6  1 -1</clus>
<clus scale="   32.746">  1  3  2 -1</clus>
</clustering>
</event>
<event>
 6    0  0.3643696E+002  0.2280902E+03  0.7546771E-02  0.1127991E+00
          1   -1    0    0  503    0 -0.00000000000E+00  0.00000000000E+00  0.21126154367E+04  0.21126154367E+04  0.00000000000E+00 0.  1.
         21   -1    0    0  504  502  0.00000000000E+00 -0.00000000000E+00 -0.69197610912E+02  0.69197610912E+02  0.00000000000E+00 0. -1.
         21    1    1    2  503  502 -0.18178811966E+03  0.23515095863E+03  0.44738211080E+03  0.53711604599E+03  0.00000000000E+00 0. -1.
         21    1    1    2  504  505  0.61261938078E+02 -0.85751198611E+02  0.15231216752E+03  0.18521687151E+03  0.00000000000E+00 0. -1.
         21    1    1    2  505  501  0.93410220407E+02 -0.52658410372E+02  0.56995969738E+03  0.57995899346E+03  0.00000000000E+00 0.  1.
          1    1    1    2  501    0  0.27115961175E+02 -0.96741349648E+02  0.87376385012E+03  0.87952113667E+03  0.00000000000E+00 0.  1.
<scales pt_clust_3="207.67147" pt_clust_4="105.38640" pt_clust_5="91.30568" pt_clust_6="91.30568"></scales>
<clustering>
<clus scale="   91.306">  5  6 -1 -1</clus>
<clus scale="  105.386">  2  4  1 -1</clus>
<clus scale="  207.671">  2  3  1 -1</clus>
<clus scale="  105.386">  2  3  1 -1</clus>
</clustering>
</event>
<event>
 6    0  0.3643696E+002  0.1780707E+03  0.7546771E-02  0.1169683E+00
          2   -1    0    0  504    0 -0.00000000000E+00  0.00000000000E+00  0.37690409314E+03  0.37690409314E+03  0.00000000000E+00 0. -1.
         21   -1    0    0  505  502  0.00000000000E+00 -0.00000000000E+00 -0.16053746845E+04  0.16053746845E+04  0.00000000000E+00 0.  1.
         21    1    1    2  503  502  0.35426972463E+02  0.15906252345E+02 -0.13905048247E+04  0.13910469966E+04  0.00000000000E+00 0.  1.
         21    1    1    2  504  503 -0.42996701373E+02  0.32364240555E+02  0.17742390555E+02  0.56665269948E+02  0.00000000000E+00 0. -1.
         21    1    1    2  505  501  0.11010559653E+03 -0.13544896734E+03 -0.13755070469E+03  0.22223829891E+03  0.00000000000E+00 0.  1.
          2    1    1    2  501    0 -0.10253586762E+03  0.87178474436E+02  0.28184254748E+03  0.31232821218E+03  0.00000000000E+00 0. -1.
<scales pt_clust_3="38.83400" pt_clust_4="52.20781" pt_clust_5="178.07066" pt_clust_6="14000.00000"></scales>
<clustering>
<clus scale="   38.834">  2  3  1 -1</clus>
<clus scale="   52.208">  1  4  2 -1</clus>
<clus scale="  178.071">  2  5  1 -1</clus>
<clus scale="   38.834">  2  3  1 -1</clus>
</clustering>
</event>
<event>
 6    0  0.3643696E+002  0.9120536E+02  0.7546771E-02  0.1299959E+00
         21   -1    0    0  505  502  0.00000000000E+00  0.00000000000E+00  0.91423252594E+02  0.91423252594E+02  0.00000000000E+00 0.  1.
         -2   -1    0    0    0  501 -0.00000000000E+00 -0.00000000000E+00 -0.87665820643E+03  0.87665820643E+03  0.00000000000E+00 0. -1.
         21    1    1    2  503  502  0.68514909247E+01 -0.97130303667E+02  0.21139805801E+02  0.99640003050E+02  0.00000000000E+00 0.  1.
         21    1    1    2  504  501 -0.46688700427E+02 -0.32407368006E+01 -0.64834951656E+03  0.65003648570E+03  0.00000000000E+00 0. -1.
         21    1    1    2  505  504 -0.35698882405E+02  0.33054790261E+02 -0.40304361211E+02  0.63178088739E+02  0.00000000000E+00 0.  1.
         -2    1    1    2    0  503  0.75536091907E+02  0.67316250207E+02 -0.11772088187E+03  0.15522688153E+03  0.00000000000E+00 0. -1.
<scales pt_clust_3="14000.00000" pt_clust_4="46.80104" pt_clust_5="56.47909" pt_clust_6="91.20536"></scales>
<clustering>
<clus scale="   46.801">  2  4  1 -1</clus>
<clus scale="   56.479">  2  5  1 -1</clus>
<clus scale="   91.205">  2  6  1 -1</clus>
<clus scale="   91.205">  1  3  2 -1</clus>
</clustering>
</event>
<event>
 6    0  0.3643696E+002  0.1313577E+03  0.7546771E-02  0.1225455E+00
         21   -1    0    0  505  502  0.00000000000E+00  0.00000000000E+00  0.22345880015E+04  0.22345880015E+04  0.00000000000E+00 0. -1.
          2   -1    0    0  502    0 -0.00000000000E+00 -0.00000000000E+00 -0.15662310746E+03  0.15662310746E+03  0.00000000000E+00 0.  1.
         21    1    1    2  503  504 -0.22633276813E+02  0.38736766693E+02  0.10330456619E+02  0.46038251999E+02  0.00000000000E+00 0.  1.
         21    1    1    2  504  501  0.11262767364E+03 -0.95612828389E+01  0.15779523405E+03  0.19410241340E+03  0.00000000000E+00 0.  1.
         21    1    1    2  505  503  0.40157682265E+02  0.14098380742E+02  0.19911617367E+04  0.19916165458E+04  0.00000000000E+00 0. -1.
          2    1    1    2  501    0 -0.13015207909E+03 -0.43273864596E+02 -0.81322533398E+02  0.15945389769E+03  0.00000000000E+00 0.  1.
<scales pt_clust_3="44.19329" pt_clust_4="14000.00000" pt_clust_5="42.56059" pt_clust_6="131.35774"></scales>
<clustering>
<clus scale="   42.561">  1  5  2 -1</clus>
<clus scale="   44.193">  1  3  2 -1</clus>
<clus scale="  131.358">  2  6  1 -1</clus>
<clus scale="   42.561">  1  3  2 -1</clus>
</clustering>
</event>
<event>
 6    0  0.3643696E+002  0.2820909E+03  0.7546771E-02  0.1094552E+00
         21   -1    0    0  503  502  0.00000000000E+00  0.00000000000E+00  0.19001284595E+03  0.19001284595E+03  0.00000000000E+00 0. -1.
          2   -1    0    0  504    0 -0.00000000000E+00 -0.00000000000E+00 -0.17597507258E+04  0.17597507258E+04  0.00000000000E+00 0. -1.
         21    1    1    2  503  505 -0.22902143622E+01 -0.33475017660E+02  0.10828149287E+03  0.11336094383E+03  0.00000000000E+00 0. -1.
         21    1    1    2  504  502 -0.26538815468E+03  0.22346963287E+02 -0.20385652865E+03  0.33539192549E+03  0.00000000000E+00 0. -1.
         21    1    1    2  505  501  0.40431766597E+02 -0.28150163997E+02 -0.18871207641E+03  0.19503693821E+03  0.00000000000E+00 0. -1.
          2    1    1    2  501    0  0.22724660245E+03  0.39278218370E+02 -0.12854507677E+04  0.13059737642E+04  0.00000000000E+00 0. -1.
<scales pt_clust_3="33.55327" pt_clust_4="267.34578" pt_clust_5="41.98760" pt_clust_6="41.98760"></scales>
<clustering>
<clus scale="   33.553">  1  3  2 -1</clus>
<clus scale="   41.988">  5  6 -1 -1</clus>
<clus scale="  267.346">  1  4  2 -1</clus>
<clus scale="   33.553">  1  3  2 -1</clus>
</clustering>
</event>
<event>
 6    0  0.3643696E+002  0.2200171E+03  0.7546771E-02  0.1133870E+00
          2   -1    0    0  505    0 -0.00000000000E+00  0.00000000000E+00  0.65101439322E+03  0.65101439322E+03  0.00000000000E+00 0. -1.
         21   -1    0    0  503  502  0.00000000000E+00 -0.00000000000E+00 -0.15771345012E+04  0.15771345012E+04  0.00000000000E+00 0.  1.
         21    1    1    2  503  504 -0.10273492472E+03 -0.42309044711E+02 -0.14058109883E+04  0.14101946869E+04  0.00000000000E+00 0.  1.
         21    1    1    2  504  501 -0.26228705109E+02 -0.15564478676E+03 -0.20844472333E+01  0.15785306312E+03  0.00000000000E+00 0.  1.
         21    1    1    2  505  502  0.16336238532E+03  0.26951420814E+03  0.21436644873E+03  0.38115371134E+03  0.00000000000E+00 0.  1.
          2    1    1    2  501    0 -0.34398755492E+02 -0.71560376670E+02  0.26740887888E+03  0.27894743303E+03  0.00000000000E+00 0. -1.
<scales pt_clust_3="111.44891" pt_clust_4="14000.00000" pt_clust_5="220.01712" pt_clust_6="79.39875"></scales>
<clustering>
<clus scale="   79.399">  1  6  2 -1</clus>
<clus scale="  111.449">  2  3  1 -1</clus>
<clus scale="  220.017">  1  5  2 -1</clus>
<clus scale="  111.449">  2  3  1 -1</clus>
</clustering>
</event>
<event>
 6    0  0.3643696E+002  0.8622706E+02  0.7546771E-02  0.1312254E+00
         -1   -1    0    0    0  501 -0.00000000000E+00  0.00000000000E+00  0.50734071614E+03  0.50734071614E+03  0.00000000000E+00 0. -1.
         21   -1    0    0  503  502  0.00000000000E+00 -0.00000000000E+00 -0.11979802925E+04  0.11979802925E+04  0.00000000000E+00 0.  1.
         21    1    1    2  503  504  0.24076621536E+02 -0.82526054965E+02 -0.11594652464E+04  0.11626477932E+04  0.00000000000E+00 0.  1.
         21    1    1    2  504  505 -0.72060146044E+01  0.12007112913E+03  0.17079828760E+03  0.20890442251E+03  0.00000000000E+00 0.  1.
         21    1    1    2  505  501 -0.51019164321E+02  0.17200330323E+02  0.38112542096E+02  0.65964932777E+02  0.00000000000E+00 0. -1.
         -1    1    1    2    0  502  0.34148557390E+02 -0.54745404488E+02  0.25991484034E+03  0.26780386016E+03  0.00000000000E+00 0. -1.
<scales pt_clust_3="14000.00000" pt_clust_4="86.22706" pt_clust_5="53.84057" pt_clust_6="45.01115"></scales>
<clustering>
<clus scale="   53.841">  1  5  2 -1</clus>
<clus scale="   45.011">  1  6  2 -1</clus>
<clus scale="   86.227">  1  4  2 -1</clus>
<clus scale="   86.227">  2  3  1 -1</clus>
</clustering>
</event>
<event>
 6    0  0.3643696E+002  0.1161758E+03  0.7546771E-02  0.1249543E+00
         21   -1    0    0  504  502  0.00000000000E+00  0.00000000000E+00  0.97366598843E+02  0.97366598843E+02  0.00000000000E+00 0. -1.
          1   -1    0    0  503    0 -0.00000000000E+00 -0.00000000000E+00 -0.10308139097E+04  0.10308139097E+04  0.00000000000E+00 0. -1.
         21    1    1    2  503  505  0.10623178565E+03 -0.67897584202E+02 -0.15764349628E+03  0.20185823278E+03  0.00000000000E+00 0. -1.
         21    1    1    2  504  501  0.14392109631E+02  0.90121584809E+02 -0.15817339766E+03  0.18261395509E+03  0.00000000000E+00 0. -1.
         21    1    1    2  505  502 -0.16550580210E+02  0.72236112951E+02  0.30775845848E+02  0.80244192358E+02  0.00000000000E+00 0. -1.
          1    1    1    2  501    0 -0.10407331507E+03 -0.94460113557E+02 -0.64840626280E+03  0.66346412835E+03  0.00000000000E+00 0. -1.
<scales pt_clust_3="101.92693" pt_clust_4="14000.00000" pt_clust_5="74.10788" pt_clust_6="116.17579"></scales>
<clustering>
<clus scale="   74.108">  1  5  2 -1</clus>
<clus scale="  101.927">  1  3  2 -1</clus>
<clus scale="  116.176">  2  6  1 -1</clus>
<clus scale="   74.108">  1  3  2 -1</clus>
</clustering>
</event>
<event>
 6    0  0.3643696E+002  0.1792102E+03  0.7546771E-02  0.1168570E+00
          2   -1    0    0  505    0 -0.00000000000E+00  0.00000000000E+00  0.21286414225E+04  0.21286414225E+04  0.00000000000E+00 0. -1.
         21   -1    0    0  504  502  0.00000000000E+00 -0.00000000000E+00 -0.99811492311E+02  0.99811492311E+02  0.00000000000E+00 0. -1.
         21    1    1    2  503  502  0.42539377542E+02  0.54907755165E+02  0.23593442808E+03  0.24594616194E+03  0.00000000000E+00 0. -1.
         21    1    1    2  504  501  0.14756461646E+03 -0.10555143547E+03  0.74994097811E+01  0.18158376223E+03  0.00000000000E+00 0. -1.
         21    1    1    2  505  503 -0.94890291062E+01  0.47365833223E+02  0.58750536840E+03  0.58948801661E+03  0.00000000000E+00 0. -1.
          2    1    1    2  501    0 -0.18061496489E+03  0.32778470817E+01  0.11978907239E+04  0.12114349740E+04  0.00000000000E+00 0. -1.
<scales pt_clust_3="74.62572" pt_clust_4="179.21019" pt_clust_5="48.30697" pt_clust_6="14000.00000"></scales>
<clustering>
<clus scale="   48.307">  1  5  2 -1</clus>
<clus scale="   74.626">  1  3  2 -1</clus>
<clus scale="  179.210">  2  4  1 -1</clus>
<clus scale="  179.210">  2  3  1 -1</clus>
</clustering>
</event>
<event>
 6    0  0.3643696E+002  0.1034835E+03  0.7546771E-02  0.1273137E+00
         -1   -1    0    0    0  501 -0.00000000000E+00  0.00000000000E+00  0.82428442506E+02  0.82428442506E+02  0.00000000000E+00 0.  1.
         21   -1    0    0  503  502  0.00000000000E+00 -0.00000000000E+00 -0.11515283437E+04  0.11515283437E+04  0.00000000000E+00 0.  1.
         21    1    1    2  503  504  0.15603613375E+02  0.69857700209E+02 -0.11545463520E+03  0.13584308528E+03  0.00000000000E+00 0.  1.
         21    1    1    2  504  501  0.10526732372E+03 -0.28779261873E+01  0.36781473132E+01  0.10537087202E+03  0.00000000000E+00 0.  1.
         21    1    1    2  505  502 -0.30140242013E+02  0.19319158388E+02 -0.74777851855E+03  0.74863500912E+03  0.00000000000E+00 0.  1.
         -1    1    1    2    0  505 -0.90730695086E+02 -0.86298932410E+02 -0.20954489479E+03  0.24410781982E+03  0.00000000000E+00 0.  1.
<scales pt_clust_3="76.13031" pt_clust_4="14000.00000" pt_clust_5="35.80034" pt_clust_6="103.48346"></scales>
<clustering>
<clus scale="   35.800">  2  5  1 -1</clus>
<clus scale="   76.130">  2  3  1 -1</clus>
<clus scale="  103.483">  2  6  1 -1</clus>
<clus scale="   35.800">  2  3  1 -1</clus>
</clustering>
</event>
<event>
 6    0  0.3643696E+002  0.1260513E+03  0.7546771E-02  0.1233435E+00
         21   -1    0    0  505  502  0.00000000000E+00  0.00000000000E+00  0.23660577373E+03  0.23660577373E+03  0.00000000000E+00 0.  1.
          2   -1    0    0  504    0 -0.00000000000E+00 -0.00000000000E+00 -0.27301728522E+04  0.27301728522E+04  0.00000000000E+00 0. -1.
         21    1    1    2  503  502  0.88797883091E+02  0.54256328065E+02 -0.21025453715E+03  0.23459706641E+03  0.00000000000E+00 0.  1.
         21    1    1    2  504  503  0.26317940349E+02 -0.22487062653E+02 -0.17513519102E+04  0.17516939845E+04  0.00000000000E+00 0.  1.
         21    1    1    2  505  501 -0.21285348600E+02  0.73363590751E+02  0.21093731850E+03  0.22434311857E+03  0.00000000000E+00 0.  1.
          2    1    1    2  501    0 -0.93830474840E+02 -0.10513285616E+03 -0.74289794962E+03  0.75614445644E+03  0.00000000000E+00 0. -1.
<scales pt_clust_3="14000.00000" pt_clust_4="34.61650" pt_clust_5="76.19099" pt_clust_6="126.05132"></scales>
<clustering>
<clus scale="   34.616">  2  4  1 -1</clus>
<clus scale="   76.191">  1  5  2 -1</clus>
<clus scale="  126.051">  2  6  1 -1</clus>
<clus scale="   76.191">  1  3  2 -1</clus>
</clustering>
</event>
<event>
 6    0  0.3643696E+002  0.1086293E+03  0.7546771E-02  0.1263129E+00
         21   -1    0    0  504  502  0.00000000000E+00  0.00000000000E+00  0.10957048897E+04  0.10957048897E+04  0.00000000000E+00 0.  1.
          2   -1    0    0  505    0 -0.00000000000E+00 -0.00000000000E+00 -0.45894146328E+03  0.45894146328E+03  0.00000000000E+00 0.  1.
         21    1    1    2  503  502  0.51298644616E+02  0.98391010894E+01  0.99211673752E+03  0.99349080505E+03  0.00000000000E+00 0.  1.
         21    1    1    2  504  501  0.48403413688E+02 -0.70148968765E+02  0.48755917941E+02  0.98188124585E+02  0.00000000000E+00 0. -1.
         21    1    1    2  505  503 -0.62667417954E+02 -0.45068904821E+02 -0.50761999433E+02  0.92386103074E+02  0.00000000000E+00 0.  1.
          2    1    1    2  501    0 -0.37034640350E+02  0.10537877250E+03 -0.35334722960E+03  0.37058132028E+03  0.00000000000E+00 0.  1.
<scales pt_clust_3="52.23369" pt_clust_4="108.62934" pt_clust_5="67.75145" pt_clust_6="14000.00000"></scales>
<clustering>
<clus scale="   52.234">  1  3  2 -1</clus>
<clus scale="   67.751">  1  5  2 -1</clus>
<clus scale="  108.629">  1  4  2 -1</clus>
<clus scale="   52.234">  1  3  2 -1</clus>
</clustering>
</event>
<event>
 6    0  0.3643696E+002  0.2520493E+03  0.7546771E-02  0.1112017E+00
         21   -1    0    0  503  502  0.00000000000E+00  0.00000000000E+00  0.58184810048E+02  0.58184810048E+02  0.00000000000E+00 0.  1.
          2   -1    0    0  505    0 -0.00000000000E+00 -0.00000000000E+00 -0.22823779049E+04  0.22823779049E+04  0.00000000000E+00 0. -1.
         21    1    1    2  503  504  0.37198286726E+01  0.72065093388E+02 -0.24963680767E+02  0.76357057092E+02  0.00000000000E+00 0.  1.
         21    1    1    2  504  501 -0.56797906694E+02 -0.14514127191E+03 -0.54576639866E+03  0.56758519441E+03  0.00000000000E+00 0. -1.
         21    1    1    2  505  502  0.15040988844E+03  0.16733243278E+03 -0.12734988444E+04  0.12932217847E+04  0.00000000000E+00 0.  1.
          2    1    1    2  501    0 -0.97331810422E+02 -0.94256254260E+02 -0.37996417103E+03  0.40339867879E+03  0.00000000000E+00 0. -1.
<scales pt_clust_3="72.16103" pt_clust_4="64.36368" pt_clust_5="242.41165" pt_clust_6="64.36368"></scales>
<clustering>
<clus scale="   64.364">  4  6 -1 -1</clus>
<clus scale="   72.161">  1  3  2 -1</clus>
<clus scale="  242.412">  2  5  1 -1</clus>
<clus scale="   72.161">  1  3  2 -1</clus>
</clustering>
</event>
<event>
 6    0  0.3643696E+002  0.9000991E+02  0.7546771E-02  0.1302828E+00
          1   -1    0    0  504    0 -0.00000000000E+00  0.00000000000E+00  0.26349338904E+04  0.26349338904E+04  0.00000000000E+00 0. -1.
         21   -1    0    0  503  502  0.00000000000E+00 -0.00000000000E+00 -0.45022154925E+03  0.45022154925E+03  0.00000000000E+00 0. -1.
         21    1    1    2  503  505 -0.22461141612E+02  0.25640602368E+02 -0.41693521989E+03  0.41832633309E+03  0.00000000000E+00 0. -1.
         21    1    1    2  504  502 -0.94407802700E+02  0.26746982185E+02  0.97871207676E+02  0.13858934865E+03  0.00000000000E+00 0. -1.
         21    1    1    2  505  501  0.68151739825E+02 -0.51013806838E+02  0.13924452959E+03  0.16320572034E+03  0.00000000000E+00 0.  1.
          1    1    1    2  501    0  0.48717204487E+02 -0.13737777160E+01  0.23645318237E+04  0.23650340376E+04  0.00000000000E+00 0. -1.
<scales pt_clust_3="34.08729" pt_clust_4="14000.00000" pt_clust_5="90.00991" pt_clust_6="48.55839"></scales>
<clustering>
<clus scale="   34.087">  2  3  1 -1</clus>
<clus scale="   48.558">  1  6  2 -1</clus>
<clus scale="   90.010">  2  5  1 -1</clus>
<clus scale="   34.087">  2  3  1 -1</clus>
</clustering>
</event>
<event>
 6    0  0.3643696E+002  0.9577088E+02  0.7546771E-02  0.1289449E+00
          3   -1    0    0  503    0 -0.00000000000E+00  0.00000000000E+00  0.70837173263E+03  0.70837173263E+03  0.00000000000E+00 0.  1.
         21   -1    0    0  505  502  0.00000000000E+00 -0.00000000000E+00 -0.88459109088E+02  0.88459109088E+02  0.00000000000E+00 0. -1.
         21    1    1    2  503  504 -0.86851548625E+02 -0.64079376946E+02  0.11425464043E+03  0.15717341031E+03  0.00000000000E+00 0. -1.
         21    1    1    2  504  502 -0.41468408314E+02 -0.40134835853E+02 -0.34504544979E+02  0.67238363761E+02  0.00000000000E+00 0. -1.
         21    1    1    2  505  501  0.87434937996E+02  0.18464527922E+02  0.19645593594E+03  0.21582572122E+03  0.00000000000E+00 0.  1.
          3    1    1    2  501    0  0.40885018942E+02  0.85749684877E+02  0.34370659215E+03  0.35659334642E+03  0.00000000000E+00 0.  1.
<scales pt_clust_3="95.77088" pt_clust_4="57.70991" pt_clust_5="77.17882" pt_clust_6="14000.00000"></scales>
<clustering>
<clus scale="   57.710">  2  4  1 -1</clus>
<clus scale="   77.179">  2  5  1 -1</clus>
<clus scale="   95.771">  2  3  1 -1</clus>
<clus scale="   57.710">  2  3  1 -1</clus>
</clustering>
</event>
<event>
 6    0  0.3643696E+002  0.8346199E+02  0.7546771E-02  0.1319504E+00
         21   -1    0    0  505  502  0.00000000000E+00  0.00000000000E+00  0.10126560771E+04  0.10126560771E+04  0.00000000000E+00 0. -1.
          2   -1    0    0  503    0 -0.00000000000E+00 -0.00000000000E+00 -0.12476592731E+03  0.12476592731E+03  0.00000000000E+00 0. -1.
         21    1    1    2  503  504  0.57052523033E+02 -0.29585715803E+02  0.12123319543E+02  0.65400916207E+02  0.00000000000E+00 0. -1.
         21    1    1    2  504  502  0.35789134653E+02 -0.59856546404E+02  0.92450138635E+03  0.92712808266E+03  0.00000000000E+00 0. -1.
         21    1    1    2  505  501 -0.40486104822E+02  0.18056229483E+02 -0.10552564064E+01  0.44342594341E+02  0.00000000000E+00 0.  1.
          2    1    1    2  501    0 -0.52355552865E+02  0.71386032724E+02 -0.47679299653E+02  0.10055041123E+03  0.00000000000E+00 0. -1.
<scales pt_clust_3="64.26745" pt_clust_4="70.47318" pt_clust_5="31.64202" pt_clust_6="31.64202"></scales>
<clustering>
<clus scale="   31.642">  5  6 -1 -1</clus>
<clus scale="   64.267">  2  3  1 -1</clus>
<clus scale="   70.473">  1  4  2 -1</clus>
<clus scale="   70.473">  1  3  2 -1</clus>
</clustering>
</event>
<event>
 6    0  0.3643696E+002  0.1713148E+03  0.7546771E-02  0.1176484E+00
         21   -1    0    0  503  502  0.00000000000E+00  0.00000000000E+00  0.86218019762E+02  0.86218019762E+02  0.00000000000E+00 0.  1.
          1   -1    0    0  505    0 -0.00000000000E+00 -0.00000000000E+00 -0.18033927653E+04  0.18033927653E+04  0.00000000000E+00 0. -1.
         21    1    1    2  503  504 -0.33633142016E+02  0.50593632700E+01  0.28930223945E+02  0.44651352231E+02  0.00000000000E+00 0.  1.
         21    1    1    2  504  501  0.15154193392E+03  0.26861273935E+02 -0.31921481896E+03  0.35437915630E+03  0.00000000000E+00 0. -1.
         21    1    1    2  505  502 -0.21472045100E+03  0.94582285684E+02 -0.52941571596E+03  0.57907830312E+03  0.00000000000E+00 0.  1.
          1    1    1    2  501    0  0.96811659091E+02 -0.12650292289E+03 -0.89747443454E+03  0.91150197338E+03  0.00000000000E+00 0. -1.
<scales pt_clust_3="34.01155" pt_clust_4="142.49026" pt_clust_5="171.31484" pt_clust_6="14000.00000"></scales>
<clustering>
<clus scale="   34.012">  1  3  2 -1</clus>
<clus scale="  142.490">  1  4  2 -1</clus>
<clus scale="  171.315">  1  5  2 -1</clus>
<clus scale="   34.012">  1  3  2 -1</clus>
</clustering>
</event>
<event>
 6    0  0.3643696E+002  0.9366745E+02  0.7546771E-02  0.1294206E+00
         21   -1    0    0  505  502  0.00000000000E+00  0.00000000000E+00  0.50686770201E+03  0.50686770201E+03  0.00000000000E+00 0. -1.
          2   -1    0    0  504    0 -0.00000000000E+00 -0.00000000000E+00 -0.71209799597E+03  0.71209799597E+03  0.00000000000E+00 0.  1.
         21    1    1    2  503  501 -0.88422079307E+02 -0.39030202906E+02 -0.20127323891E+02  0.98726541592E+02  0.00000000000E+00 0.  1.
         21    1    1    2  504  502 -0.18220781902E+01  0.30495745823E+02 -0.15011954937E+02  0.34039231385E+02  0.00000000000E+00 0. -1.
         21    1    1    2  505  503 -0.57193119025E+01  0.32384050708E+02  0.45356393599E+03  0.45475452862E+03  0.00000000000E+00 0. -1.
          2    1    1    2  501    0  0.95963469399E+02 -0.23849593625E+02 -0.62365495112E+03  0.63144539639E+03  0.00000000000E+00 0.  1.
<scales pt_clust_3="14000.00000" pt_clust_4="30.55013" pt_clust_5="32.91149" pt_clust_6="93.66745"></scales>
<clustering>
<clus scale="   30.550">  2  4  1 -1</clus>
<clus scale="   32.911">  1  5  2 -1</clus>
<clus scale="   93.667">  2  6  1 -1</clus>
<clus scale="   32.911">  1  3  2 -1</clus>
</clustering>
</event>
<event>
 6    0  0.3643696E+002  0.2531183E+03  0.7546771E-02  0.1111350E+00
          2   -1    0    0  503    0 -0.00000000000E+00  0.00000000000E+00  0.19709194547E+03  0.19709194547E+03  0.00000000000E+00 0. -1.
         21   -1    0    0  504  502  0.00000000000E+00 -0.00000000000E+00 -0.78572255826E+03  0.78572255826E+03  0.00000000000E+00 0. -1.
         21    1    1    2  503  505  0.11546089259E+03  0.18118270577E+03 -0.73692696913E+02  0.22713212931E+03  0.00000000000E+00 0. -1.
         21    1    1    2  504  501 -0.60527991880E+02 -0.91402666451E+02 -0.38797001214E+02  0.11628969231E+03  0.00000000000E+00 0. -1.
         21    1    1    2  505  502 -0.39074190312E+02  0.89565420702E+02 -0.44632309660E+03  0.45689502459E+03  0.00000000000E+00 0. -1.
          2    1    1    2  501    0 -0.15858710401E+02 -0.17934546002E+03 -0.29817818066E+02  0.18249765751E+03  0.00000000000E+00 0. -1.
<scales pt_clust_3="242.16202" pt_clust_4="57.48100" pt_clust_5="97.71774" pt_clust_6="57.48100"></scales>
<clustering>
<clus scale="   57.481">  4  6 -1 -1</clus>
<clus scale="   97.718">  2  5  1 -1</clus>
<clus scale="  242.162">  1  3  2 -1</clus>
<clus scale="   97.718">  2  3  1 -1</clus>
</clustering>
</event>
<event>
 6    0  0.3643696E+002  0.1291036E+03  0.7546771E-02  0.1228792E+00
         -4   -1    0    0    0  501 -0.00000000000E+00  0.00000000000E+00  0.70677400620E+03  0.70677400620E+03  0.00000000000E+00 0. -1.
         21   -1    0    0  503  502  0.00000000000E+00 -0.00000000000E+00 -0.23046221292E+03  0.23046221292E+03  0.00000000000E+00 0.  1.
         21    1    1    2  503  504 -0.38273796554E+02 -0.28264199785E+02 -0.19505096229E+03  0.20077008338E+03  0.00000000000E+00 0.  1.
         21    1    1    2  504  501 -0.84561201081E+02  0.59828734492E+02  0.83056036789E+02  0.13277190759E+03  0.00000000000E+00 0.  1.
         21    1    1    2  505  502  0.29831605992E+02 -0.29976312270E+02  0.17207183619E+03  0.17719260939E+03  0.00000000000E+00 0.  1.
         -4    1    1    2    0  505  0.93003391644E+02 -0.15882224368E+01  0.41623488260E+03  0.42650161875E+03  0.00000000000E+00 0. -1.
<scales pt_clust_3="47.57887" pt_clust_4="120.04401" pt_clust_5="32.03491" pt_clust_6="32.03491"></scales>
<clustering>
<clus scale="   32.035">  5  6 -1 -1</clus>
<clus scale="   47.579">  2  3  1 -1</clus>
<clus scale="  120.044">  2  4  1 -1</clus>
<clus scale="   47.579">  2  3  1 -1</clus>
</clustering>
</event>
<event>
 6    0  0.3643696E+002  0.2050372E+03  0.7546771E-02  0.1145557E+00
         21   -1    0    0  504  502  0.00000000000E+00  0.00000000000E+00  0.24193495253E+02  0.24193495253E+02  0.00000000000E+00 0.  1.
          2   -1    0    0  505    0 -0.00000000000E+00 -0.00000000000E+00 -0.28445173272E+04  0.28445173272E+04  0.00000000000E+00 0.  1.
         21    1    1    2  503  502  0.89729314228E+02 -0.22850872513E+02 -0.38093134167E+03  0.39202321267E+03  0.00000000000E+00 0.  1.
         21    1    1    2  504  501  0.43239063948E+02  0.73161355615E+02 -0.44374383829E+03  0.45180836051E+03  0.00000000000E+00 0.  1.
         21    1    1    2  505  503 -0.20535513778E+03 -0.11761199497E+03 -0.11997577781E+04  0.12228744989E+04  0.00000000000E+00 0.  1.
          2    1    1    2  501    0  0.72386759604E+02  0.67301511866E+02 -0.79589087395E+03  0.80200475043E+03  0.00000000000E+00 0.  1.
<scales pt_clust_3="92.59326" pt_clust_4="44.02235" pt_clust_5="199.46505" pt_clust_6="44.02235"></scales>
<clustering>
<clus scale="   44.022">  4  6 -1 -1</clus>
<clus scale="   92.593">  1  3  2 -1</clus>
<clus scale="  199.465">  1  5  2 -1</clus>
<clus scale="   92.593">  1  3  2 -1</clus>
</clustering>
</event>
<event>
 6    0  0.3643696E+002  0.1029093E+03  0.7546771E-02  0.1274294E+00
         21   -1    0    0  503  502  0.00000000000E+00  0.00000000000E+00  0.12841316216E+03  0.12841316216E+03  0.00000000000E+00 0. -1.
          2   -1    0    0  504    0 -0.00000000000E+00 -0.00000000000E+00 -0.33628939986E+04  0.33628939986E+04  0.00000000000E+00 0.  1.
         21    1    1    2  503  501 -0.53844669992E+02  0.31129334658E+02  0.98709177827E+02  0.11666955794E+03  0.00000000000E+00 0. -1.
         21    1    1    2  504  505 -0.21690469740E+02 -0.89599441546E+02 -0.48879448733E+03  0.49741188893E+03  0.00000000000E+00 0. -1.
         21    1    1    2  505  502 -0.13299241861E+02  0.60622099996E+02 -0.45587305929E+02  0.77007215921E+02  0.00000000000E+00 0. -1.
          2    1    1    2  501    0  0.88834381593E+02 -0.21519931081E+01 -0.27988082210E+04  0.28002184980E+04  0.00000000000E+00 0.  1.
<scales pt_clust_3="14000.00000" pt_clust_4="102.90933" pt_clust_5="62.06375" pt_clust_6="88.76888"></scales>
<clustering>
<clus scale="   62.064">  1  5  2 -1</clus>
<clus scale="   88.769">  2  6  1 -1</clus>
<clus scale="  102.909">  2  4  1 -1</clus>
<clus scale="   62.064">  1  3  2 -1</clus>
</clustering>
</event>
<event>
 6    0  0.3643696E+002  0.1042711E+03  0.7546771E-02  0.1271562E+00
         -1   -1    0    0    0  501 -0.00000000000E+00  0.00000000000E+00  0.54516607704E+03  0.54516607704E+03  0.00000000000E+00 0.  1.
         21   -1    0    0  504  502  0.00000000000E+00 -0.00000000000E+00 -0.21553886720E+04  0.21553886720E+04  0.00000000000E+00 0.  1.
         21    1    1    2  503  502  0.84843016680E+02 -0.19364952902E+02  0.21476350023E+03  0.23172548395E+03  0.00000000000E+00 0.  1.
         21    1    1    2  504  505  0.30718636649E+02  0.65309852472E+02 -0.21070258573E+04  0.21082616002E+04  0.00000000000E+00 0.  1.
         21    1    1    2  505  501  0.11892221653E+02 -0.37066281608E+02 -0.11365121743E+02  0.40552437169E+02  0.00000000000E+00 0.  1.
         -1    1    1    2    0  503 -0.12745387498E+03 -0.88786179617E+01  0.29340488386E+03  0.32001522773E+03  0.00000000000E+00 0.  1.
<scales pt_clust_3="14000.00000" pt_clust_4="72.14032" pt_clust_5="38.92729" pt_clust_6="104.27109"></scales>
<clustering>
<clus scale="   38.927">  1  5  2 -1</clus>
<clus scale="   72.140">  2  4  1 -1</clus>
<clus scale="  104.271">  1  6  2 -1</clus>
<clus scale="   72.140">  2  3  1 -1</clus>
</clustering>
</event>
<event>
 6    0  0.3643696E+002  0.1761206E+03  0.7546771E-02  0.1171611E+00
         21   -1    0    0  503  502  0.00000000000E+00  0.00000000000E+00  0.21963977204E+03  0.21963977204E+03  0.00000000000E+00 0. -1.
         -1   -1    0    0    0  501 -0.00000000000E+00 -0.00000000000E+00 -0.66782479314E+03  0.66782479314E+03  0.00000000000E+00 0. -1.
         21    1    1    2  503  501  0.19326406595E+03  0.11006625018E+03 -0.15252653427E+03  0.26968485733E+03  0.00000000000E+00 0. -1.
         21    1    1    2  504  505 -0.11186663325E+03 -0.10011588719E+03 -0.15933574040E+03  0.21891827852E+03  0.00000000000E+00 0. -1.
         21    1    1    2  505  502 -0.30181067864E+02 -0.83478462690E+02  0.10731387015E+03  0.13926886701E+03  0.00000000000E+00 0. -1.
         -1    1    1    2    0  504 -0.51216364839E+02  0.73528099697E+02 -0.24363661658E+03  0.25959256232E+03  0.00000000000E+00 0. -1.
<scales pt_clust_3="14000.00000" pt_clust_4="176.12065" pt_clust_5="88.76683" pt_clust_6="85.57462"></scales>
<clustering>
<clus scale="   88.767">  1  5  2 -1</clus>
<clus scale="   85.575">  2  6  1 -1</clus>
<clus scale="  176.121">  2  4  1 -1</clus>
<clus scale="   88.767">  1  3  2 -1</clus>
</clustering>
</event>
<event>
 6    0  0.3643696E+002  0.6810961E+02  0.7546771E-02  0.1366642E+00
          1   -1    0    0  503    0 -0.00000000000E+00  0.00000000000E+00  0.11599790308E+04  0.11599790308E+04  0.00000000000E+00 0. -1.
         21   -1    0    0  505  502  0.00000000000E+00 -0.00000000000E+00 -0.13053483859E+03  0.13053483859E+03  0.00000000000E+00 0. -1.
         21    1    1    2  503  504  0.11618563207E+03 -0.83124290923E+01  0.46020522376E+03  0.47471785890E+03  0.00000000000E+00 0. -1.
         21    1    1    2  504  502 -0.61847282285E+02  0.26326331878E+02 -0.10458517064E+03  0.12432304691E+03  0.00000000000E+00 0. -1.
         21    1    1    2  505  501 -0.22117540677E+02 -0.75036799555E+02  0.23232431229E+03  0.24514137344E+03  0.00000000000E+00 0. -1.
          1    1    1    2  501    0 -0.32220809107E+02  0.57022896770E+02  0.44149982683E+03  0.44633159017E+03  0.00000000000E+00 0. -1.
<scales pt_clust_3="14000.00000" pt_clust_4="68.10961" pt_clust_5="64.95102" pt_clust_6="65.49650"></scales>
<clustering>
<clus scale="   65.496">  1  6  2 -1</clus>
<clus scale="   64.951">  1  5  2 -1</clus>
<clus scale="   68.110">  2  4  1 -1</clus>
<clus scale="   68.110">  2  3  1 -1</clus>
</clustering>
</event>
<event>
 6    0  0.3643696E+002  0.1022339E+03  0.7546771E-02  0.1275667E+00
          2   -1    0    0  503    0 -0.00000000000E+00  0.00000000000E+00  0.18431336448E+04  0.18431336448E+04  0.00000000000E+00 0. -1.
         21   -1    0    0  504  502  0.00000000000E+00 -0.00000000000E+00 -0.50860071713E+02  0.50860071713E+02  0.00000000000E+00 0. -1.
         21    1    1    2  503  505 -0.33703867289E+02  0.23664640831E+02  0.28471403442E+03  0.28767698430E+03  0.00000000000E+00 0. -1.
         21    1    1    2  504  501  0.37660597535E+02 -0.67542246118E+02 -0.74223328192E+01  0.77687622192E+02  0.00000000000E+00 0. -1.
         21    1    1    2  505  502 -0.25863456720E+02 -0.39030993654E+02  0.93554173001E+02  0.10461701652E+03  0.00000000000E+00 0.  1.
          2    1    1    2  501    0  0.21906726474E+02  0.82908598942E+02  0.14214276985E+04  0.14240120935E+04  0.00000000000E+00 0. -1.
<scales pt_clust_3="41.18211" pt_clust_4="102.23390" pt_clust_5="46.82513" pt_clust_6="14000.00000"></scales>
<clustering>
<clus scale="   41.182">  1  3  2 -1</clus>
<clus scale="   46.825">  2  5  1 -1</clus>
<clus scale="  102.234">  2  4  1 -1</clus>
<clus scale="   46.825">  2  3  1 -1</clus>
</clustering>
</event>
<event>
 6    0  0.3643696E+002  0.1421340E+03  0.7546771E-02  0.1210486E+00
         -3   -1    0    0    0  501 -0.00000000000E+00  0.00000000000E+00  0.32682507774E+03  0.32682507774E+03  0.00000000000E+00 0. -1.
         21   -1    0    0  504  502  0.00000000000E+00 -0.00000000000E+00 -0.18044037510E+03  0.18044037510E+03  0.00000000000E+00 0. -1.
         21    1    1    2  503  502 -0.79189039920E+02 -0.80687099445E+02  0.14837048880E+03  0.18653448477E+03  0.00000000000E+00 0. -1.
         21    1    1    2  504  505  0.99727520911E+02  0.82604769665E+02 -0.11095066669E+03  0.17052617640E+03  0.00000000000E+00 0. -1.
         21    1    1    2  505  501  0.39001898862E+02  0.93684689546E+01  0.27337337783E+02  0.48541182129E+02  0.00000000000E+00 0. -1.
         -3    1    1    2    0  503 -0.59540379853E+02 -0.11286139175E+02  0.81627542754E+02  0.10166360955E+03  0.00000000000E+00 0. -1.
<scales pt_clust_3="36.26957" pt_clust_4="133.22144" pt_clust_5="40.11130" pt_clust_6="36.26957"></scales>
<clustering>
<clus scale="   36.270">  3  6 -1 -1</clus>
<clus scale="   40.111">  1  5  2 -1</clus>
<clus scale="  133.221">  2  4  1 -1</clus>
<clus scale="  133.221">  2  3  1 -1</clus>
</clustering>
</event>
<event>
 6    0  0.3643696E+002  0.9391280E+02  0.7546771E-02  0.1293644E+00
          2   -1    0    0  503    0 -0.00000000000E+00  0.00000000000E+00  0.13254187342E+04  0.13254187342E+04  0.00000000000E+00 0. -1.
         21   -1    0    0  505  502  0.00000000000E+00 -0.00000000000E+00 -0.16213720000E+03  0.16213720000E+03  0.00000000000E+00 0. -1.
         21    1    1    2  503  502 -0.24130371265E+02  0.27490510576E+02  0.63254782248E+02  0.73069627523E+02  0.00000000000E+00 0. -1.
         21    1    1    2  504  501 -0.10474154488E+02  0.74158524906E+02  0.40532155173E+03  0.41218291452E+03  0.00000000000E+00 0.  1.
         21    1    1    2  505  504  0.71633907966E+02 -0.62770699690E+02 -0.13810546658E+03  0.16776381436E+03  0.00000000000E+00 0. -1.
          2    1    1    2  501    0 -0.37029382214E+02 -0.38878335792E+02  0.83281066682E+03  0.83453957780E+03  0.00000000000E+00 0. -1.
<scales pt_clust_3="36.57872" pt_clust_4="93.91280" pt_clust_5="14000.00000" pt_clust_6="56.90860"></scales>
<clustering>
<clus scale="   36.579">  1  3  2 -1</clus>
<clus scale="   56.909">  1  6  2 -1</clus>
<clus scale="   93.913">  1  4  2 -1</clus>
<clus scale="   93.913">  2  3  1 -1</clus>
</clustering>
</event>
<event>
 6    0  0.3643696E+002  0.1377424E+03  0.7546771E-02  0.1216399E+00
          2   -1    0    0  504    0 -0.00000000000E+00  0.00000000000E+00  0.30142260800E+04  0.30142260800E+04  0.00000000000E+00 0.  1.
         21   -1    0    0  503  502  0.00000000000E+00 -0.00000000000E+00 -0.20795825515E+02  0.20795825515E+02  0.00000000000E+00 0.  1.
         21    1    1    2  503  501 -0.50281926592E+02 -0.74935804731E+02  0.10530230391E+04  0.10568827597E+04  0.00000000000E+00 0.  1.
         21    1    1    2  504  505  0.58344821434E+02  0.16374345774E+02  0.47555851951E+03  0.47940394540E+03  0.00000000000E+00 0.  1.
         21    1    1    2  505  502  0.68470242759E+02  0.10728919955E+03  0.25028713648E+03  0.28078959591E+03  0.00000000000E+00 0.  1.
          2    1    1    2  501    0 -0.76533137600E+02 -0.48727740597E+02  0.12145615594E+04  0.12179456044E+04  0.00000000000E+00 0.  1.
<scales pt_clust_3="39.00306" pt_clust_4="60.59899" pt_clust_5="132.07391" pt_clust_6="39.00306"></scales>
<clustering>
<clus scale="   39.003">  3  6 -1 -1</clus>
<clus scale="   60.599">  1  4  2 -1</clus>
<clus scale="  132.074">  2  5  1 -1</clus>
<clus scale="  132.074">  2  3  1 -1</clus>
</clustering>
</event>
<event>
 6    0  0.3643696E+002  0.7746329E+02  0.7546771E-02  0.1336408E+00
         21   -1    0    0  503  502  0.00000000000E+00  0.00000000000E+00  0.41738158987E+03  0.41738158987E+03  0.00000000000E+00 0.  1.
         -2   -1    0    0    0  501 -0.00000000000E+00 -0.00000000000E+00 -0.15304155142E+04  0.15304155142E+04  0.00000000000E+00 0. -1.
         21    1    1    2  503  505  0.37568287242E+01  0.77211008002E+02  0.40159177711E+03  0.40896406806E+03  0.00000000000E+00 0.  1.
         21    1    1    2  504  501  0.22844439656E+01  0.52872292260E+02 -0.27427927495E+03  0.27933817970E+03  0.00000000000E+00 0. -1.
         21    1    1    2  505  504  0.64675959869E+02 -0.10980419501E+02 -0.21358960202E+03  0.22343694298E+03  0.00000000000E+00 0. -1.
         -2    1    1    2    0  502 -0.70717232559E+02 -0.11910288076E+03 -0.10267568245E+04  0.10360579133E+04  0.00000000000E+00 0. -1.
<scales pt_clust_3="77.46329" pt_clust_4="52.92162" pt_clust_5="65.09807" pt_clust_6="14000.00000"></scales>
<clustering>
<clus scale="   52.922">  2  4  1 -1</clus>
<clus scale="   65.098">  2  5  1 -1</clus>
<clus scale="   77.463">  1  3  2 -1</clus>
<clus scale="   77.463">  1  3  2 -1</clus>
</clustering>
</event>
<event>
 6    0  0.3643696E+002  0.1142853E+03  0.7546771E-02  0.1252834E+00
          2   -1    0    0  505    0 -0.00000000000E+00  0.00000000000E+00  0.13328698245E+04  0.13328698245E+04  0.00000000000E+00 0.  1.
         21   -1    0    0  501  502  0.00000000000E+00 -0.00000000000E+00 -0.34027248263E+02  0.34027248263E+02  0.00000000000E+00 0.  1.
         21    1    1    2  503  504 -0.81981630853E+02  0.15096221674E+02  0.30117046490E+03  0.31249405216E+03  0.00000000000E+00 0.  1.
         21    1    1    2  504  502  0.11476178799E+03  0.30236847331E+02  0.14554668922E+03  0.18779875842E+03  0.00000000000E+00 0.  1.
         21    1    1    2  505  503  0.54314523826E+02  0.84647874551E+01  0.26859933075E+03  0.27416659280E+03  0.00000000000E+00 0.  1.
          2    1    1    2  501    0 -0.87094680965E+02 -0.53797856461E+02  0.58352609138E+03  0.59243766941E+03  0.00000000000E+00 0.  1.
<scales pt_clust_3="68.56384" pt_clust_4="14000.00000" pt_clust_5="54.97017" pt_clust_6="114.28527"></scales>
<clustering>
<clus scale="   54.970">  1  5  2 -1</clus>
<clus scale="   68.564">  1  3  2 -1</clus>
<clus scale="  114.285">  1  6  2 -1</clus>
<clus scale="  114.285">  2  3  1 -1</clus>
</clustering>
</event>
<event>
 6    0  0.3643696E+002  0.1548910E+03  0.7546771E-02  0.1194589E+00
          2   -1    0    0  504    0 -0.00000000000E+00  0.00000000000E+00  0.14418695546E+04  0.14418695546E+04  0.00000000000E+00 0.  1.
         21   -1    0    0  503  502  0.00000000000E+00 -0.00000000000E+00 -0.10213043368E+03  0.10213043368E+03  0.00000000000E+00 0. -1.
         21    1    1    2  503  501  0.10438323802E+03 -0.21046826661E+02  0.66416784068E+03  0.67264979736E+03  0.00000000000E+00 0.  1.
         21    1    1    2  504  505 -0.26137392757E+02  0.52646901879E+02  0.15722584984E+03  0.16785358928E+03  0.00000000000E+00 0.  1.
         21    1    1    2  505  502 -0.13736118390E+03  0.32850273803E+02 -0.33180409039E+02  0.14507989135E+03  0.00000000000E+00 0. -1.
          2    1    1    2  501    0  0.59115338637E+02 -0.64450349021E+02  0.55152583942E+03  0.55841671026E+03  0.00000000000E+00 0.  1.
<scales pt_clust_3="54.16411" pt_clust_4="58.77805" pt_clust_5="142.89557" pt_clust_6="54.16411"></scales>
<clustering>
<clus scale="   54.164">  3  6 -1 -1</clus>
<clus scale="   58.778">  1  4  2 -1</clus>
<clus scale="  142.896">  2  5  1 -1</clus>
<clus scale="  142.896">  2  3  1 -1</clus>
</clustering>
</event>
<event>
 6    0  0.3643696E+002  0.1369417E+03  0.7546771E-02  0.1217504E+00
         21   -1    0    0  503  502  0.00000000000E+00  0.00000000000E+00  0.10923064020E+04  0.10923064020E+04  0.00000000000E+00 0. -1.
          2   -1    0    0  505    0 -0.00000000000E+00 -0.00000000000E+00 -0.83175681951E+03  0.83175681951E+03  0.00000000000E+00 0.  1.
         21    1    1    2  503  504 -0.76563348724E+02 -0.38653637979E+02 -0.30496626484E+02  0.91027986487E+02  0.00000000000E+00 0.  1.
         21    1    1    2  504  501  0.19635914923E+02  0.44238278311E+02 -0.18116342327E+03  0.18751741346E+03  0.00000000000E+00 0.  1.
         21    1    1    2  505  502 -0.27652134695E+02 -0.42643096507E+02  0.10546142042E+04  0.10558381476E+04  0.00000000000E+00 0. -1.
          2    1    1    2  501    0  0.84579568496E+02  0.37058456176E+02 -0.58240457189E+03  0.58967967401E+03  0.00000000000E+00 0.  1.
<scales pt_clust_3="123.38486" pt_clust_4="43.00938" pt_clust_5="50.82395" pt_clust_6="43.00938"></scales>
<clustering>
<clus scale="   43.009">  4  6 -1 -1</clus>
<clus scale="   50.824">  1  5  2 -1</clus>
<clus scale="  123.385">  1  3  2 -1</clus>
<clus scale="   50.824">  1  3  2 -1</clus>
</clustering>
</event>
<event>
 6    0  0.3643696E+002  0.1297492E+03  0.7546771E-02  0.1227828E+00
         21   -1    0    0  504  502  0.00000000000E+00  0.00000000000E+00  0.12877326485E+03  0.12877326485E+03  0.00000000000E+00 0.  1.
          1   -1    0    0  505    0 -0.00000000000E+00 -0.00000000000E+00 -0.23176782421E+04  0.23176782421E+04  0.00000000000E+00 0.  1.
         21    1    1    2  503  502  0.41763475705E+02  0.12849014391E+03  0.85513164726E+02  0.15989498531E+03  0.00000000000E+00 0.  1.
         21    1    1    2  504  501  0.12800300988E+02 -0.82903752530E+02 -0.37273601197E+03  0.38205891497E+03  0.00000000000E+00 0.  1.
         21    1    1    2  505  503 -0.34893273740E+02  0.93884618506E+01 -0.38499203341E+03  0.38668404358E+03  0.00000000000E+00 0. -1.
          1    1    1    2  501    0 -0.19670502952E+02 -0.54974853230E+02 -0.15166900966E+04  0.15178135631E+04  0.00000000000E+00 0.  1.
<scales pt_clust_3="129.74924" pt_clust_4="14000.00000" pt_clust_5="36.13425" pt_clust_6="66.94752"></scales>
<clustering>
<clus scale="   36.134">  2  5  1 -1</clus>
<clus scale="   66.948">  2  6  1 -1</clus>
<clus scale="  129.749">  1  3  2 -1</clus>
<clus scale="  129.749">  1  3  2 -1</clus>
</clustering>
</event>
<event>
 6    0  0.3643696E+002  0.7706522E+02  0.7546771E-02  0.1337592E+00
         21   -1    0    0  504  502  0.00000000000E+00  0.00000000000E+00  0.10498090014E+04  0.10498090014E+04  0.00000000000E+00 0. -1.
          2   -1    0    0  503    0 -0.00000000000E+00 -0.00000000000E+00 -0.49904527988E+03  0.49904527988E+03  0.00000000000E+00 0. -1.
         21    1    1    2  503  505  0.51372268813E+02  0.34898872675E+02 -0.31482261279E+03  0.32088988585E+03  0.00000000000E+00 0. -1.
         21    1    1    2  504  501 -0.43971178679E+02 -0.63499051464E+02  0.10054986788E+04  0.10084608010E+04  0.00000000000E+00 0. -1.
         21    1    1    2  505  502  0.16154372506E+02 -0.61613996486E+02 -0.18321880044E+02  0.66279254691E+02  0.00000000000E+00 0.  1.
          2    1    1    2  501    0 -0.23555462640E+02  0.90214175275E+02 -0.12159046445E+03  0.15322433973E+03  0.00000000000E+00 0. -1.
<scales pt_clust_3="62.10508" pt_clust_4="14000.00000" pt_clust_5="60.42319" pt_clust_6="77.06522"></scales>
<clustering>
<clus scale="   62.105">  2  3  1 -1</clus>
<clus scale="   60.423">  2  5  1 -1</clus>
<clus scale="   77.065">  2  6  1 -1</clus>
<clus scale="   77.065">  1  3  2 -1</clus>
</clustering>
</event>
<event>
 6    0  0.3643696E+002  0.1543573E+03  0.7546771E-02  0.1195219E+00
          2   -1    0    0  504    0 -0.00000000000E+00  0.00000000000E+00  0.58483716462E+03  0.58483716462E+03  0.00000000000E+00 0.  1.
         21   -1    0    0  501  502  0.00000000000E+00 -0.00000000000E+00 -0.47449880630E+03  0.47449880630E+03  0.00000000000E+00 0.  1.
         21    1    1    2  503  505 -0.88878011171E+02  0.13750348019E+03  0.16151757286E+03  0.22998790028E+03  0.00000000000E+00 0.  1.
         21    1    1    2  504  503  0.49299005394E+02 -0.14212721460E+03  0.25428707893E+03  0.29545296677E+03  0.00000000000E+00 0.  1.
         21    1    1    2  505  502 -0.87642153945E+02 -0.24159045790E+02 -0.37515245060E+03  0.38601057995E+03  0.00000000000E+00 0.  1.
          2    1    1    2  501    0  0.12722115972E+03  0.28782780201E+02  0.69686157129E+02  0.14788452391E+03  0.00000000000E+00 0.  1.
<scales pt_clust_3="154.35728" pt_clust_4="14000.00000" pt_clust_5="90.91098" pt_clust_6="92.64642"></scales>
<clustering>
<clus scale="   90.911">  2  5  1 -1</clus>
<clus scale="   92.646">  2  6  1 -1</clus>
<clus scale="  154.357">  2  3  1 -1</clus>
<clus scale="   90.911">  2  3  1 -1</clus>
</clustering>
</event>
<event>
 6    0  0.3643696E+002  0.1197167E+03  0.7546771E-02  0.1243565E+00
         21   -1    0    0  504  502  0.00000000000E+00  0.00000000000E+00  0.53070907202E+03  0.53070907202E+03  0.00000000000E+00 0.  1.
          2   -1    0    0  503    0 -0.00000000000E+00 -0.00000000000E+00 -0.10442906494E+04  0.10442906494E+04  0.00000000000E+00 0. -1.
         21    1    1    2  503  502  0.23582220967E+02 -0.58148987270E+02 -0.46441961407E+03  0.46863952437E+03  0.00000000000E+00 0. -1.
         21    1    1    2  504  505  0.11361922870E+02  0.36931618919E+02  0.49597322520E+03  0.49747610785E+03  0.00000000000E+00 0.  1.
         21    1    1    2  505  501  0.63138534156E+02 -0.95366093663E+02 -0.18031657330E+03  0.21353040281E+03  0.00000000000E+00 0. -1.
          2    1    1    2  501    0 -0.98082677993E+02  0.11658346201E+03 -0.36481861518E+03  0.39535368636E+03  0.00000000000E+00 0. -1.
<scales pt_clust_3="60.90803" pt_clust_4="38.63985" pt_clust_5="119.71668" pt_clust_6="14000.00000"></scales>
<clustering>
<clus scale="   38.640">  1  4  2 -1</clus>
<clus scale="   60.908">  2  3  1 -1</clus>
<clus scale="  119.717">  1  5  2 -1</clus>
<clus scale="   38.640">  1  3  2 -1</clus>
</clustering>
</event>
<event>
 6    0  0.3643696E+002  0.8595496E+02  0.7546771E-02  0.1312954E+00
         21   -1    0    0  505  502  0.00000000000E+00  0.00000000000E+00  0.48106569008E+03  0.48106569008E+03  0.00000000000E+00 0.  1.
          2   -1    0    0  502    0 -0.00000000000E+00 -0.00000000000E+00 -0.12008086686E+04  0.12008086686E+04  0.00000000000E+00 0. -1.
         21    1    1    2  503  504 -0.11600457322E+02  0.52982397101E+02 -0.13510450515E+03  0.14558479428E+03  0.00000000000E+00 0. -1.
         21    1    1    2  504  501  0.87267324255E+02 -0.78256547910E+02 -0.69523072989E+02  0.13628327429E+03  0.00000000000E+00 0. -1.
         21    1    1    2  505  503 -0.20526386883E+02 -0.38445091661E+02  0.43951179103E+03  0.44166726399E+03  0.00000000000E+00 0.  1.
          2    1    1    2  501    0 -0.55140480050E+02  0.63719242470E+02 -0.95462719139E+03  0.95833902610E+03  0.00000000000E+00 0. -1.
<scales pt_clust_3="50.07780" pt_clust_4="14000.00000" pt_clust_5="43.58162" pt_clust_6="85.95496"></scales>
<clustering>
<clus scale="   43.582">  1  5  2 -1</clus>
<clus scale="   50.078">  1  3  2 -1</clus>
<clus scale="   85.955">  2  6  1 -1</clus>
<clus scale="   43.582">  1  3  2 -1</clus>
</clustering>
</event>
<event>
 6    0  0.3643696E+002  0.6865806E+03  0.7546771E-02  0.9740460E-01
          2   -1    0    0  505    0 -0.00000000000E+00  0.00000000000E+00  0.77384070066E+03  0.77384070066E+03  0.00000000000E+00 0.  1.
         21   -1    0    0  503  502  0.00000000000E+00 -0.00000000000E+00 -0.90367871399E+03  0.90367871399E+03  0.00000000000E+00 0.  1.
         21    1    1    2  503  504 -0.36045999407E+01 -0.14754424950E+03 -0.26979712574E+03  0.30752688949E+03  0.00000000000E+00 0.  1.
         21    1    1    2  504  501  0.10231871142E+03  0.18478211533E+03 -0.90632295730E+02  0.22984290697E+03  0.00000000000E+00 0.  1.
         21    1    1    2  505  502 -0.43170896342E+03 -0.42473497697E+03  0.11968337419E+03  0.61733017083E+03  0.00000000000E+00 0.  1.
          2    1    1    2  501    0  0.33299485194E+03  0.38749711113E+03  0.11090803396E+03  0.52281944737E+03  0.00000000000E+00 0.  1.
<scales pt_clust_3="147.58827" pt_clust_4="142.45517" pt_clust_5="649.84984" pt_clust_6="142.45517"></scales>
<clustering>
<clus scale="  142.455">  4  6 -1 -1</clus>
<clus scale="  147.588">  2  3  1 -1</clus>
<clus scale="  649.850">  1  5  2 -1</clus>
<clus scale="  147.588">  2  3  1 -1</clus>
</clustering>
</event>
<event>
 6    0  0.3643696E+002  0.1112271E+03  0.7546771E-02  0.1258314E+00
         21   -1    0    0  504  502  0.00000000000E+00  0.00000000000E+00  0.11604409493E+02  0.11604409493E+02  0.00000000000E+00 0. -1.
          2   -1    0    0  503    0 -0.00000000000E+00 -0.00000000000E+00 -0.33413462007E+04  0.33413462007E+04  0.00000000000E+00 0. -1.
         21    1    1    2  503  505  0.16281713841E+02 -0.37461934157E+02 -0.33567136351E+03  0.33814753437E+03  0.00000000000E+00 0. -1.
         21    1    1    2  504  501  0.92653951917E+02 -0.91070642757E+01 -0.26126060421E+03  0.27735319854E+03  0.00000000000E+00 0. -1.
         21    1    1    2  505  502  0.44367464214E+01  0.32713612849E+02 -0.27284543008E+03  0.27483539419E+03  0.00000000000E+00 0. -1.
          2    1    1    2  501    0 -0.11337241218E+03  0.13855385584E+02 -0.24599643934E+04  0.24626144831E+04  0.00000000000E+00 0. -1.
<scales pt_clust_3="37.60539" pt_clust_4="111.22709" pt_clust_5="33.01311" pt_clust_6="14000.00000"></scales>
<clustering>
<clus scale="   33.013">  1  5  2 -1</clus>
<clus scale="   37.605">  1  3  2 -1</clus>
<clus scale="  111.227">  1  4  2 -1</clus>
<clus scale="   33.013">  1  3  2 -1</clus>
</clustering>
</event>
<event>
 6    0  0.3643696E+002  0.7130206E+02  0.7546771E-02  0.1355720E+00
          2   -1    0    0  503    0 -0.00000000000E+00  0.00000000000E+00  0.35369585221E+04  0.35369585221E+04  0.00000000000E+00 0. -1.
         21   -1    0    0  501  502  0.00000000000E+00 -0.00000000000E+00 -0.14483894505E+02  0.14483894505E+02  0.00000000000E+00 0.  1.
         21    1    1    2  503  504 -0.25836448480E+02  0.63552767079E+02  0.92292478863E+03  0.92547103776E+03  0.00000000000E+00 0. -1.
         21    1    1    2  504  505  0.23047505012E+02 -0.11862615436E+03  0.20300082596E+04  0.20336019488E+04  0.00000000000E+00 0. -1.
         21    1    1    2  505  502  0.72182502875E+02  0.18166156070E+02  0.17661661381E+03  0.19166051033E+03  0.00000000000E+00 0.  1.
          2    1    1    2  501    0 -0.69393559406E+02  0.36907231211E+02  0.39292496559E+03  0.40070891977E+03  0.00000000000E+00 0. -1.
<scales pt_clust_3="68.60376" pt_clust_4="69.26764" pt_clust_5="71.30206" pt_clust_6="14000.00000"></scales>
<clustering>
<clus scale="   68.604">  1  3  2 -1</clus>
<clus scale="   69.268">  1  4  2 -1</clus>
<clus scale="   71.302">  2  5  1 -1</clus>
<clus scale="   71.302">  2  3  1 -1</clus>
</clustering>
</event>
<event>
 6    0  0.3643696E+002  0.7261379E+02  0.7546771E-02  0.1351424E+00
         21   -1    0    0  503  502  0.00000000000E+00  0.00000000000E+00  0.29035405937E+02  0.29035405937E+02  0.00000000000E+00 0. -1.
          1   -1    0    0  505    0 -0.00000000000E+00 -0.00000000000E+00 -0.96658092954E+03  0.96658092954E+03  0.00000000000E+00 0.  1.
         21    1    1    2  503  501  0.73118369000E+02 -0.37305787683E+01 -0.56775964386E+02  0.92648384957E+02  0.00000000000E+00 0. -1.
         21    1    1    2  504  502 -0.64816513435E+02  0.49575715864E+02 -0.27818696181E+03  0.28990846441E+03  0.00000000000E+00 0. -1.
         21    1    1    2  505  504  0.24744384538E+02  0.22600801112E+02 -0.25973515513E+03  0.26188820437E+03  0.00000000000E+00 0.  1.
          1    1    1    2  501    0 -0.33046240103E+02 -0.68445938208E+02 -0.34284744227E+03  0.35117128173E+03  0.00000000000E+00 0.  1.
<scales pt_clust_3="72.61379" pt_clust_4="14000.00000" pt_clust_5="33.51240" pt_clust_6="61.01743"></scales>
<clustering>
<clus scale="   33.512">  2  5  1 -1</clus>
<clus scale="   61.017">  2  6  1 -1</clus>
<clus scale="   72.614">  1  3  2 -1</clus>
<clus scale="   72.614">  1  3  2 -1</clus>
</clustering>
</event>
<event>
 6    0  0.3643696E+002  0.1288149E+03  0.7546771E-02  0.1229225E+00
          2   -1    0    0  504    0 -0.00000000000E+00  0.00000000000E+00  0.93441827651E+03  0.93441827651E+03  0.00000000000E+00 0.  1.
         21   -1    0    0  505  502  0.00000000000E+00 -0.00000000000E+00 -0.44020239650E+02  0.44020239650E+02  0.00000000000E+00 0.  1.
         21    1    1    2  503  502  0.83966956654E+02  0.26264512583E+02  0.11108219449E+03  0.14170225250E+03  0.00000000000E+00 0.  1.
         21    1    1    2  504  503  0.53389680365E+02  0.36203790902E+02  0.54898725582E+03  0.55276412646E+03  0.00000000000E+00 0.  1.
         21    1    1    2  505  501 -0.79726082414E+02 -0.60127595196E+02  0.99375511745E+02  0.14087962328E+03  0.00000000000E+00 0.  1.
          2    1    1    2  501    0 -0.57630554606E+02 -0.23407082890E+01  0.13095307480E+03  0.14309251392E+03  0.00000000000E+00 0.  1.
<scales pt_clust_3="108.50570" pt_clust_4="64.50715" pt_clust_5="52.76283" pt_clust_6="52.76283"></scales>
<clustering>
<clus scale="   52.763">  5  6 -1 -1</clus>
<clus scale="   64.507">  1  4  2 -1</clus>
<clus scale="  108.506">  2  3  1 -1</clus>
<clus scale="  108.506">  2  3  1 -1</clus>
</clustering>
</event>
<event>
 6    0  0.3643696E+002  0.2778410E+03  0.7546771E-02  0.1096874E+00
          2   -1    0    0  502    0 -0.00000000000E+00  0.00000000000E+00  0.29628207238E+04  0.29628207238E+04  0.00000000000E+00 0.  1.
         21   -1    0    0  503  502  0.00000000000E+00 -0.00000000000E+00 -0.44344984214E+02  0.44344984214E+02  0.00000000000E+00 0.  1.
         21    1    1    2  503  505 -0.22461763145E+03  0.10939304575E+03  0.38798474362E+03  0.46146731206E+03  0.00000000000E+00 0.  1.
         21    1    1    2  504  501  0.13252015395E+03 -0.52083294971E+02  0.96723757358E+03  0.97766189686E+03  0.00000000000E+00 0.  1.
         21    1    1    2  505  504  0.13590450871E+02 -0.36814873174E+02  0.38579321055E+03  0.38778400759E+03  0.00000000000E+00 0.  1.
          2    1    1    2  501    0  0.78507026632E+02 -0.20494877609E+02  0.11774602119E+04  0.11802524915E+04  0.00000000000E+00 0.  1.
<scales pt_clust_3="249.83979" pt_clust_4="57.50112" pt_clust_5="35.21320" pt_clust_6="57.50112"></scales>
<clustering>
<clus scale="   35.213">  4  5 -1 -1</clus>
<clus scale="   57.501">  4  6 -1 -1</clus>
<clus scale="  249.840">  2  3  1 -1</clus>
<clus scale="  249.840">  2  3  1 -1</clus>
</clustering>
</event>
<event>
 6    0  0.3643696E+002  0.9337890E+02  0.7546771E-02  0.1294870E+00
          3   -1    0    0  504    0 -0.00000000000E+00  0.00000000000E+00  0.11906934927E+03  0.11906934927E+03  0.00000000000E+00 0. -1.
         21   -1    0    0  503  502  0.00000000000E+00 -0.00000000000E+00 -0.62018134472E+03  0.62018134472E+03  0.00000000000E+00 0. -1.
         21    1    1    2  503  501  0.40016073348E+02  0.53328383931E+02 -0.28180268713E+01  0.66731880944E+02  0.00000000000E+00 0. -1.
         21    1    1    2  504  505 -0.12699620538E+03 -0.52994958566E+02 -0.68654263354E+02  0.15378527137E+03  0.00000000000E+00 0. -1.
         21    1    1    2  505  502  0.44843688261E+02 -0.58356875554E+01 -0.46269316323E+03  0.46489781127E+03  0.00000000000E+00 0. -1.
          3    1    1    2  501    0  0.42136443772E+02  0.55022621905E+01  0.33053457998E+02  0.53835730408E+02  0.00000000000E+00 0. -1.
<scales pt_clust_3="14000.00000" pt_clust_4="93.37890" pt_clust_5="45.82079" pt_clust_6="42.49417"></scales>
<clustering>
<clus scale="   42.494">  1  6  2 -1</clus>
<clus scale="   45.821">  2  5  1 -1</clus>
<clus scale="   93.379">  2  4  1 -1</clus>
<clus scale="   45.821">  2  3  1 -1</clus>
</clustering>
</event>
<event>
 6    0  0.3643696E+002  0.1328687E+03  0.7546771E-02  0.1223260E+00
          1   -1    0    0  504    0 -0.00000000000E+00  0.00000000000E+00  0.60408263607E+03  0.60408263607E+03  0.00000000000E+00 0.  1.
         21   -1    0    0  503  502  0.00000000000E+00 -0.00000000000E+00 -0.31200850271E+03  0.31200850271E+03  0.00000000000E+00 0.  1.
         21    1    1    2  503  501 -0.10509628628E+03  0.18985755885E+02  0.86161943647E+02  0.13722087615E+03  0.00000000000E+00 0.  1.
         21    1    1    2  504  505  0.50039683963E+02 -0.38167962680E+02  0.41009129665E+02  0.75116656356E+02  0.00000000000E+00 0. -1.
         21    1    1    2  505  502 -0.77630279123E+02  0.67753454390E+00 -0.25313544208E+03  0.26477248975E+03  0.00000000000E+00 0.  1.
          1    1    1    2  501    0  0.13268688144E+03  0.18504672251E+02  0.41803850213E+03  0.43898111652E+03  0.00000000000E+00 0.  1.
<scales pt_clust_3="14000.00000" pt_clust_4="62.93460" pt_clust_5="77.09752" pt_clust_6="132.86870"></scales>
<clustering>
<clus scale="   62.935">  1  4  2 -1</clus>
<clus scale="   77.098">  2  5  1 -1</clus>
<clus scale="  132.869">  1  6  2 -1</clus>
<clus scale="   77.098">  2  3  1 -1</clus>
</clustering>
</event>
<event>
 6    0  0.3643696E+002  0.8270466E+02  0.7546771E-02  0.1321547E+00
         -1   -1    0    0    0  501 -0.00000000000E+00  0.00000000000E+00  0.61975340893E+03  0.61975340893E+03  0.00000000000E+00 0. -1.
         21   -1    0    0  505  502  0.00000000000E+00 -0.00000000000E+00 -0.72041230344E+02  0.72041230344E+02  0.00000000000E+00 0. -1.
         21    1    1    2  503  501 -0.16917430118E+02  0.50288817451E+02  0.79838325742E+02  0.95860955867E+02  0.00000000000E+00 0. -1.
         21    1    1    2  504  502 -0.28925243522E+02 -0.50907958117E+02  0.14004105875E+03  0.15178862951E+03  0.00000000000E+00 0. -1.
         21    1    1    2  505  503  0.95207440765E+02  0.84156955714E+01 -0.15818449018E+02  0.96878811090E+02  0.00000000000E+00 0. -1.
         -1    1    1    2    0  504 -0.49364767125E+02 -0.77965549054E+01  0.34365124312E+03  0.34726624281E+03  0.00000000000E+00 0. -1.
<scales pt_clust_3="57.92372" pt_clust_4="82.70466" pt_clust_5="14000.00000" pt_clust_6="49.97666"></scales>
<clustering>
<clus scale="   49.977">  1  6  2 -1</clus>
<clus scale="   57.924">  1  3  2 -1</clus>
<clus scale="   82.705">  1  4  2 -1</clus>
<clus scale="   82.705">  2  3  1 -1</clus>
</clustering>
</event>
<event>
 6    0  0.3643696E+002  0.1191244E+03  0.7546771E-02  0.1244549E+00
         -1   -1    0    0    0  501 -0.00000000000E+00  0.00000000000E+00  0.10000506635E+04  0.10000506635E+04  0.00000000000E+00 0. -1.
         21   -1    0    0  505  502  0.00000000000E+00 -0.00000000000E+00 -0.11807524124E+03  0.11807524124E+03  0.00000000000E+00 0. -1.
         21    1    1    2  503  501  0.42695311845E+02 -0.26001703239E+02  0.10655163410E+03  0.11769549250E+03  0.00000000000E+00 0. -1.
         21    1    1    2  504  502  0.89974031089E+02  0.78738029627E+02 -0.60365060760E+02  0.13393634361E+03  0.00000000000E+00 0. -1.
         21    1    1    2  505  503 -0.78217177685E+02  0.54154481670E+02  0.22924816557E+03  0.24820426303E+03  0.00000000000E+00 0. -1.
         -1    1    1    2    0  504 -0.54452165249E+02 -0.10689080806E+03  0.60654068333E+03  0.61828980558E+03  0.00000000000E+00 0. -1.
<scales pt_clust_3="49.98978" pt_clust_4="14000.00000" pt_clust_5="81.72151" pt_clust_6="119.12436"></scales>
<clustering>
<clus scale="   49.990">  1  3  2 -1</clus>
<clus scale="   81.722">  1  5  2 -1</clus>
<clus scale="  119.124">  1  6  2 -1</clus>
<clus scale="  119.124">  2  3  1 -1</clus>
</clustering>
</event>
<event>
 6    0  0.3643696E+002  0.8683701E+02  0.7546771E-02  0.1310697E+00
         21   -1    0    0  503  502  0.00000000000E+00  0.00000000000E+00  0.80224072626E+02  0.80224072626E+02  0.00000000000E+00 0.  1.
          2   -1    0    0  504    0 -0.00000000000E+00 -0.00000000000E+00 -0.18219664008E+04  0.18219664008E+04  0.00000000000E+00 0.  1.
         21    1    1    2  503  501 -0.54751803547E+01 -0.86008938214E+02  0.44374058951E+02  0.96935917803E+02  0.00000000000E+00 0.  1.
         21    1    1    2  504  505 -0.30246854937E+02  0.31886762132E+02 -0.22785997441E+03  0.23205991849E+03  0.00000000000E+00 0.  1.
         21    1    1    2  505  502  0.13082251036E+02 -0.64718073348E+02 -0.22574706780E+03  0.23520483186E+03  0.00000000000E+00 0.  1.
          2    1    1    2  501    0  0.22639784256E+02  0.11884024943E+03 -0.13325093449E+04  0.13379898052E+04  0.00000000000E+00 0.  1.
<scales pt_clust_3="86.83701" pt_clust_4="43.95040" pt_clust_5="60.72871" pt_clust_6="14000.00000"></scales>
<clustering>
<clus scale="   43.950">  2  4  1 -1</clus>
<clus scale="   60.729">  2  5  1 -1</clus>
<clus scale="   86.837">  1  3  2 -1</clus>
<clus scale="   86.837">  1  3  2 -1</clus>
</clustering>
</event>
<event>
 6    0  0.1956166E+003  0.6914160E+02  0.7546771E-02  0.1363037E+00
          2   -1    0    0  505    0 -0.00000000000E+00  0.00000000000E+00  0.17891393034E+04  0.17891393034E+04  0.00000000000E+00 0. -1.
         21   -1    0    0  501  502  0.00000000000E+00 -0.00000000000E+00 -0.22709421724E+04  0.22709421724E+04  0.00000000000E+00 0.  1.
         21    1    1    2  503  502 -0.34183048023E+02  0.59932157039E+02 -0.22215068347E+04  0.22225779989E+04  0.00000000000E+00 0.  1.
         21    1    1    2  504  503  0.68237988201E+02 -0.54283705873E+02 -0.15941359283E-01  0.87196009147E+02  0.00000000000E+00 0. -1.
         21    1    1    2  505  504 -0.53864624464E+01 -0.54933279255E+02  0.15452211188E+03  0.16408461905E+03  0.00000000000E+00 0. -1.
          2    1    1    2  501    0 -0.28668477732E+02  0.49284828089E+02  0.15851977952E+04  0.15862228488E+04  0.00000000000E+00 0. -1.
<scales pt_clust_3="14000.00000" pt_clust_4="69.14160" pt_clust_5="55.19673" pt_clust_6="34.16348"></scales>
<clustering>
<clus scale="   55.197">  1  5  2 -1</clus>
<clus scale="   34.163">  1  6  2 -1</clus>
<clus scale="   69.142">  1  4  2 -1</clus>
<clus scale="   69.142">  2  3  1 -1</clus>
</clustering>
</event>
<event>
 6    0  0.3643696E+002  0.7872512E+02  0.7546771E-02  0.1332709E+00
         21   -1    0    0  503  502  0.00000000000E+00  0.00000000000E+00  0.17051316730E+03  0.17051316730E+03  0.00000000000E+00 0. -1.
         -3   -1    0    0    0  501 -0.00000000000E+00 -0.00000000000E+00 -0.36382262138E+03  0.36382262138E+03  0.00000000000E+00 0.  1.
         21    1    1    2  503  501  0.32615749048E+02 -0.43838704953E+02 -0.53430328529E+02  0.76422635028E+02  0.00000000000E+00 0.  1.
         21    1    1    2  504  502 -0.73728519829E+02  0.33753597771E+02  0.12117382295E+03  0.14580224747E+03  0.00000000000E+00 0. -1.
         21    1    1    2  505  504  0.69403893972E+02  0.68200168943E+02 -0.20349464028E+03  0.22556203617E+03  0.00000000000E+00 0.  1.
         -3    1    1    2    0  505 -0.28291123191E+02 -0.58115061760E+02 -0.57558308220E+02  0.86548870010E+02  0.00000000000E+00 0.  1.
<scales pt_clust_3="54.64082" pt_clust_4="78.72512" pt_clust_5="14000.00000" pt_clust_6="71.65676"></scales>
<clustering>
<clus scale="   54.641">  2  3  1 -1</clus>
<clus scale="   71.657">  2  6  1 -1</clus>
<clus scale="   78.725">  1  4  2 -1</clus>
<clus scale="   78.725">  1  3  2 -1</clus>
</clustering>
</event>
<event>
 6    0  0.3643696E+002  0.8440195E+02  0.7546771E-02  0.1317004E+00
          2   -1    0    0  503    0 -0.00000000000E+00  0.00000000000E+00  0.80965645631E+02  0.80965645631E+02  0.00000000000E+00 0. -1.
         21   -1    0    0  504  502  0.00000000000E+00 -0.00000000000E+00 -0.45452482117E+03  0.45452482117E+03  0.00000000000E+00 0. -1.
         21    1    1    2  503  502  0.12855732827E+03 -0.83720462567E+02 -0.10278885628E+03  0.18466632471E+03  0.00000000000E+00 0. -1.
         21    1    1    2  504  505 -0.57447743007E+02  0.47979012531E+02 -0.23838805880E+03  0.24986215279E+03  0.00000000000E+00 0. -1.
         21    1    1    2  505  501 -0.53832122965E+02  0.76851988408E+00 -0.30571517651E+02  0.61912081028E+02  0.00000000000E+00 0. -1.
          2    1    1    2  501    0 -0.17277462299E+02  0.34972930152E+02 -0.18107428091E+01  0.39049908277E+02  0.00000000000E+00 0. -1.
<scales pt_clust_3="84.40195" pt_clust_4="14000.00000" pt_clust_5="58.95477" pt_clust_6="39.00790"></scales>
<clustering>
<clus scale="   39.008">  1  6  2 -1</clus>
<clus scale="   58.955">  1  5  2 -1</clus>
<clus scale="   84.402">  1  3  2 -1</clus>
<clus scale="   84.402">  2  3  1 -1</clus>
</clustering>
</event>
<event>
 6    0  0.3643696E+002  0.1218903E+03  0.7546771E-02  0.1240011E+00
          2   -1    0    0  505    0 -0.00000000000E+00  0.00000000000E+00  0.19037228572E+04  0.19037228572E+04  0.00000000000E+00 0.  1.
         21   -1    0    0  503  502  0.00000000000E+00 -0.00000000000E+00 -0.79227737652E+03  0.79227737652E+03  0.00000000000E+00 0.  1.
         21    1    1    2  503  501  0.39108649646E+02 -0.34920551001E+02  0.53014255383E+03  0.53272887920E+03  0.00000000000E+00 0. -1.
         21    1    1    2  504  502 -0.51984461787E+02 -0.38848043245E+02 -0.77912642183E+03  0.78182449177E+03  0.00000000000E+00 0.  1.
         21    1    1    2  505  504 -0.58200550109E+02  0.91318065444E+02  0.30813865552E+03  0.32661249844E+03  0.00000000000E+00 0. -1.
          2    1    1    2  501    0  0.71076362249E+02 -0.17549471197E+02  0.10522906932E+04  0.10548343643E+04  0.00000000000E+00 0.  1.
<scales pt_clust_3="31.30278" pt_clust_4="64.89649" pt_clust_5="116.14224" pt_clust_6="31.30278"></scales>
<clustering>
<clus scale="   31.303">  3  6 -1 -1</clus>
<clus scale="   64.896">  2  4  1 -1</clus>
<clus scale="  116.142">  2  5  1 -1</clus>
<clus scale="   64.896">  2  3  1 -1</clus>
</clustering>
</event>
<event>
 6    0  0.3643696E+002  0.9460768E+02  0.7546771E-02  0.1292062E+00
          3   -1    0    0  502    0 -0.00000000000E+00  0.00000000000E+00  0.34752848112E+03  0.34752848112E+03  0.00000000000E+00 0.  1.
         21   -1    0    0  503  502  0.00000000000E+00 -0.00000000000E+00 -0.68134449673E+02  0.68134449673E+02  0.00000000000E+00 0.  1.
         21    1    1    2  503  505 -0.48578332041E+02  0.80696058983E+02  0.12888936924E+02  0.95067517977E+02  0.00000000000E+00 0.  1.
         21    1    1    2  504  501 -0.21110034139E+02 -0.42085624871E+02  0.69090735306E+02  0.83608391129E+02  0.00000000000E+00 0.  1.
         21    1    1    2  505  504  0.14591981047E+01 -0.41095322178E+02  0.17752109378E+02  0.44789420083E+02  0.00000000000E+00 0.  1.
          3    1    1    2  501    0  0.68229168075E+02  0.24848880653E+01  0.17966224984E+03  0.19219760161E+03  0.00000000000E+00 0.  1.
<scales pt_clust_3="85.50743" pt_clust_4="37.83568" pt_clust_5="37.83568" pt_clust_6="68.27440"></scales>
<clustering>
<clus scale="   37.836">  4  5 -1 -1</clus>
<clus scale="   68.274">  1  6  2 -1</clus>
<clus scale="   85.507">  2  3  1 -1</clus>
<clus scale="   85.507">  2  3  1 -1</clus>
</clustering>
</event>
<event>
 6    0  0.3643696E+002  0.1615875E+03  0.7546771E-02  0.1186916E+00
         21   -1    0    0  501  502  0.00000000000E+00  0.00000000000E+00  0.47771201432E+03  0.47771201432E+03  0.00000000000E+00 0.  1.
          1   -1    0    0  503    0 -0.00000000000E+00 -0.00000000000E+00 -0.68265724807E+03  0.68265724807E+03  0.00000000000E+00 0.  1.
         21    1    1    2  503  505  0.91190757724E+01 -0.69327719345E+02 -0.13473362866E+03  0.15179802668E+03  0.00000000000E+00 0. -1.
         21    1    1    2  504  502  0.13936796659E+03  0.88082371326E+02  0.42156927734E+03  0.45266167261E+03  0.00000000000E+00 0.  1.
         21    1    1    2  505  504 -0.71534337595E+02 -0.25716573072E+02 -0.21046848692E+02  0.78876317267E+02  0.00000000000E+00 0. -1.
          1    1    1    2  501    0 -0.76952704770E+02  0.69619210901E+01 -0.47073403374E+03  0.47703324584E+03  0.00000000000E+00 0.  1.
<scales pt_clust_3="69.92489" pt_clust_4="161.58754" pt_clust_5="77.65236" pt_clust_6="14000.00000"></scales>
<clustering>
<clus scale="   69.925">  2  3  1 -1</clus>
<clus scale="   77.652">  2  5  1 -1</clus>
<clus scale="  161.588">  1  4  2 -1</clus>
<clus scale="  161.588">  1  3  2 -1</clus>
</clustering>
</event>
<event>
 6    0  0.3643696E+002  0.5540956E+02  0.7546771E-02  0.1418172E+00
          2   -1    0    0  505    0 -0.00000000000E+00  0.00000000000E+00  0.21326718499E+04  0.21326718499E+04  0.00000000000E+00 0.  1.
         21   -1    0    0  503  502  0.00000000000E+00 -0.00000000000E+00 -0.16507900593E+02  0.16507900593E+02  0.00000000000E+00 0. -1.
         21    1    1    2  503  501  0.37005045652E+02  0.16439791213E+02  0.21424809421E+03  0.21804101910E+03  0.00000000000E+00 0. -1.
         21    1    1    2  504  502 -0.60660885249E+02 -0.49744516975E+02  0.12373541443E+03  0.14650840506E+03  0.00000000000E+00 0. -1.
         21    1    1    2  505  504 -0.35633934029E+02 -0.36682263481E+02  0.37729166648E+03  0.38074186440E+03  0.00000000000E+00 0. -1.
          2    1    1    2  501    0  0.59289773625E+02  0.69986989243E+02  0.14008887742E+04  0.14038884619E+04  0.00000000000E+00 0.  1.
<scales pt_clust_3="40.49247" pt_clust_4="14000.00000" pt_clust_5="46.73814" pt_clust_6="55.40956"></scales>
<clustering>
<clus scale="   40.492">  2  3  1 -1</clus>
<clus scale="   46.738">  1  5  2 -1</clus>
<clus scale="   55.410">  1  6  2 -1</clus>
<clus scale="   40.492">  2  3  1 -1</clus>
</clustering>
</event>
<event>
 6    0  0.3643696E+002  0.9181448E+02  0.7546771E-02  0.1298516E+00
         21   -1    0    0  501  502  0.00000000000E+00  0.00000000000E+00  0.95456435627E+02  0.95456435627E+02  0.00000000000E+00 0. -1.
          2   -1    0    0  504    0 -0.00000000000E+00 -0.00000000000E+00 -0.42474841102E+04  0.42474841102E+04  0.00000000000E+00 0.  1.
         21    1    1    2  503  505 -0.77986404656E+02 -0.47889843499E+01 -0.73117610122E+03  0.73533890464E+03  0.00000000000E+00 0.  1.
         21    1    1    2  504  503  0.29365338318E+02  0.11223698530E+02 -0.24052214908E+03  0.24256792596E+03  0.00000000000E+00 0.  1.
         21    1    1    2  505  502  0.54927433095E+02 -0.73871707930E+02  0.68971711528E+02  0.11502673224E+03  0.00000000000E+00 0. -1.
          2    1    1    2  501    0 -0.63063667579E+01  0.67436993749E+02 -0.32493011358E+04  0.32500069830E+04  0.00000000000E+00 0.  1.
<scales pt_clust_3="72.66277" pt_clust_4="31.43715" pt_clust_5="14000.00000" pt_clust_6="91.81448"></scales>
<clustering>
<clus scale="   31.437">  2  4  1 -1</clus>
<clus scale="   72.663">  2  3  1 -1</clus>
<clus scale="   91.814">  2  6  1 -1</clus>
<clus scale="   91.814">  1  3  2 -1</clus>
</clustering>
</event>
<event>
 6    0  0.3643696E+002  0.1395739E+03  0.7546771E-02  0.1213904E+00
          1   -1    0    0  504    0 -0.00000000000E+00  0.00000000000E+00  0.25299191307E+03  0.25299191307E+03  0.00000000000E+00 0.  1.
         21   -1    0    0  505  502  0.00000000000E+00 -0.00000000000E+00 -0.20914599936E+03  0.20914599936E+03  0.00000000000E+00 0. -1.
         21    1    1    2  503  501 -0.77576777259E+02  0.14167794223E+01  0.79310020264E+02  0.11095153423E+03  0.00000000000E+00 0.  1.
         21    1    1    2  504  502  0.40419359010E+02 -0.27713223276E+02 -0.10842610417E+03  0.11898725727E+03  0.00000000000E+00 0. -1.
         21    1    1    2  505  503  0.10151875259E+03  0.55865153867E+02 -0.17626686828E+02  0.11720781814E+03  0.00000000000E+00 0. -1.
          1    1    1    2  501    0 -0.64361334341E+02 -0.29568710014E+02  0.90588684445E+02  0.11499130280E+03  0.00000000000E+00 0.  1.
<scales pt_clust_3="33.72081" pt_clust_4="49.00763" pt_clust_5="135.03786" pt_clust_6="33.72081"></scales>
<clustering>
<clus scale="   33.721">  3  6 -1 -1</clus>
<clus scale="   49.008">  2  4  1 -1</clus>
<clus scale="  135.038">  2  5  1 -1</clus>
<clus scale="   49.008">  2  3  1 -1</clus>
</clustering>
</event>
<event>
 6    0  0.3643696E+002  0.7925795E+02  0.7546771E-02  0.1331171E+00
          2   -1    0    0  503    0 -0.00000000000E+00  0.00000000000E+00  0.10532598559E+04  0.10532598559E+04  0.00000000000E+00 0. -1.
         21   -1    0    0  501  502  0.00000000000E+00 -0.00000000000E+00 -0.32818079314E+03  0.32818079314E+03  0.00000000000E+00 0. -1.
         21    1    1    2  503  504 -0.14384952837E+02  0.44208316425E+02  0.44110831380E+03  0.44355140245E+03  0.00000000000E+00 0. -1.
         21    1    1    2  504  505  0.45167905593E+02  0.32650348205E+02  0.32713718530E+02  0.64624858326E+02  0.00000000000E+00 0.  1.
         21    1    1    2  505  502  0.78968462621E+02 -0.18094248766E+01 -0.29792421308E+03  0.30821766472E+03  0.00000000000E+00 0. -1.
          2    1    1    2  501    0 -0.10975141538E+03 -0.75049239753E+02  0.54918124348E+03  0.56504672351E+03  0.00000000000E+00 0. -1.
<scales pt_clust_3="46.48981" pt_clust_4="56.97681" pt_clust_5="14000.00000" pt_clust_6="79.25795"></scales>
<clustering>
<clus scale="   46.490">  1  3  2 -1</clus>
<clus scale="   56.977">  1  4  2 -1</clus>
<clus scale="   79.258">  1  6  2 -1</clus>
<clus scale="   79.258">  2  3  1 -1</clus>
</clustering>
</event>
<event>
 6    0  0.3643696E+002  0.7256097E+02  0.7546771E-02  0.1351595E+00
         21   -1    0    0  501  502  0.00000000000E+00  0.00000000000E+00  0.39982935788E+02  0.39982935788E+02  0.00000000000E+00 0.  1.
          1   -1    0    0  505    0 -0.00000000000E+00 -0.00000000000E+00 -0.25100254074E+04  0.25100254074E+04  0.00000000000E+00 0. -1.
         21    1    1    2  503  504  0.51406770540E+02  0.22111911339E+02 -0.10386131485E+03  0.11797781742E+03  0.00000000000E+00 0. -1.
         21    1    1    2  504  502 -0.10679556453E+01  0.46137589864E+02  0.12751244292E+02  0.47879139076E+02  0.00000000000E+00 0.  1.
         21    1    1    2  505  503 -0.84261267436E+02 -0.37121723333E+01 -0.11894819669E+04  0.11924684863E+04  0.00000000000E+00 0.  1.
          1    1    1    2  501    0  0.33922452541E+02 -0.64537328870E+02 -0.11894504341E+04  0.11916829003E+04  0.00000000000E+00 0. -1.
<scales pt_clust_3="72.56097" pt_clust_4="46.14995" pt_clust_5="14000.00000" pt_clust_6="68.17802"></scales>
<clustering>
<clus scale="   46.150">  1  4  2 -1</clus>
<clus scale="   68.178">  2  6  1 -1</clus>
<clus scale="   72.561">  1  3  2 -1</clus>
<clus scale="   46.150">  1  3  2 -1</clus>
</clustering>
</event>
<event>
 6    0  0.3643696E+002  0.8735534E+02  0.7546771E-02  0.1309385E+00
         21   -1    0    0  504  502  0.00000000000E+00  0.00000000000E+00  0.29074779189E+02  0.29074779189E+02  0.00000000000E+00 0.  1.
          2   -1    0    0  503    0 -0.00000000000E+00 -0.00000000000E+00 -0.19239718781E+04  0.19239718781E+04  0.00000000000E+00 0. -1.
         21    1    1    2  503  502  0.24415250921E+02 -0.44713746199E+02 -0.83116304197E+02  0.97487145819E+02  0.00000000000E+00 0. -1.
         21    1    1    2  504  505 -0.25843137124E+02  0.21010115839E+02 -0.55675784732E+01  0.33768189677E+02  0.00000000000E+00 0.  1.
         21    1    1    2  505  501  0.75059039138E+02  0.66479653743E+02 -0.37896183730E+03  0.39200188500E+03  0.00000000000E+00 0. -1.
          2    1    1    2  501    0 -0.73631152934E+02 -0.42776023383E+02 -0.14272513790E+04  0.14297894368E+04  0.00000000000E+00 0. -1.
<scales pt_clust_3="36.65700" pt_clust_4="33.30605" pt_clust_5="14000.00000" pt_clust_6="87.35534"></scales>
<clustering>
<clus scale="   33.306">  1  4  2 -1</clus>
<clus scale="   36.657">  1  3  2 -1</clus>
<clus scale="   87.355">  2  6  1 -1</clus>
<clus scale="   33.306">  1  3  2 -1</clus>
</clustering>
</event>
<event>
 6    0  0.3643696E+002  0.8368140E+02  0.7546771E-02  0.1318917E+00
          1   -1    0    0  504    0 -0.00000000000E+00  0.00000000000E+00  0.24940259227E+03  0.24940259227E+03  0.00000000000E+00 0. -1.
         21   -1    0    0  503  502  0.00000000000E+00 -0.00000000000E+00 -0.20254688745E+03  0.20254688745E+03  0.00000000000E+00 0. -1.
         21    1    1    2  503  501  0.42337503599E+02 -0.32976565030E+02 -0.14559382890E+03  0.15516920141E+03  0.00000000000E+00 0. -1.
         21    1    1    2  504  505  0.31347263021E+02  0.69300328947E+02  0.65424193744E+02  0.10032702337E+03  0.00000000000E+00 0. -1.
         21    1    1    2  505  502 -0.52071617247E+02 -0.73256224104E+02  0.37810567960E+02  0.97506752291E+02  0.00000000000E+00 0. -1.
          1    1    1    2  501    0 -0.21613149372E+02  0.36932460187E+02  0.89214772018E+02  0.98946502654E+02  0.00000000000E+00 0. -1.
<scales pt_clust_3="52.44201" pt_clust_4="83.68140" pt_clust_5="14000.00000" pt_clust_6="42.79176"></scales>
<clustering>
<clus scale="   42.792">  1  6  2 -1</clus>
<clus scale="   52.442">  2  3  1 -1</clus>
<clus scale="   83.681">  1  4  2 -1</clus>
<clus scale="   52.442">  2  3  1 -1</clus>
</clustering>
</event>
<event>
 6    0  0.3643696E+002  0.8778010E+02  0.7546771E-02  0.1308318E+00
          3   -1    0    0  503    0 -0.00000000000E+00  0.00000000000E+00  0.14666141900E+04  0.14666141900E+04  0.00000000000E+00 0. -1.
         21   -1    0    0  501  502  0.00000000000E+00 -0.00000000000E+00 -0.65776700735E+03  0.65776700735E+03  0.00000000000E+00 0. -1.
         21    1    1    2  503  504  0.41425737568E+02  0.16417753341E+01  0.48949407957E+02  0.64146953932E+02  0.00000000000E+00 0. -1.
         21    1    1    2  504  505 -0.20811933884E+02 -0.63580342748E+02  0.14841776741E+03  0.16279874158E+03  0.00000000000E+00 0. -1.
         21    1    1    2  505  502 -0.83827367383E+02 -0.26054581451E+02 -0.63762558685E+03  0.64363985096E+03  0.00000000000E+00 0. -1.
          3    1    1    2  501    0  0.63213563698E+02  0.87993148865E+02  0.12491055942E+04  0.12537956509E+04  0.00000000000E+00 0. -1.
<scales pt_clust_3="41.45826" pt_clust_4="65.44619" pt_clust_5="87.78010" pt_clust_6="14000.00000"></scales>
<clustering>
<clus scale="   41.458">  1  3  2 -1</clus>
<clus scale="   65.446">  1  4  2 -1</clus>
<clus scale="   87.780">  2  5  1 -1</clus>
<clus scale="   87.780">  2  3  1 -1</clus>
</clustering>
</event>
<event>
 6    0  0.3643696E+002  0.2136032E+03  0.7546771E-02  0.1138744E+00
          1   -1    0    0  504    0 -0.00000000000E+00  0.00000000000E+00  0.13642099131E+04  0.13642099131E+04  0.00000000000E+00 0. -1.
         21   -1    0    0  505  502  0.00000000000E+00 -0.00000000000E+00 -0.67065578480E+03  0.67065578480E+03  0.00000000000E+00 0.  1.
         21    1    1    2  503  502 -0.95896526170E+02  0.10505635972E+03  0.24748794531E+02  0.14437965674E+03  0.00000000000E+00 0.  1.
         21    1    1    2  504  503  0.31062347154E+02 -0.38426955503E+02  0.12665277625E+03  0.13595008662E+03  0.00000000000E+00 0. -1.
         21    1    1    2  505  501 -0.12233034963E+03 -0.10467826757E+03 -0.58734066767E+03  0.60900846795E+03  0.00000000000E+00 0.  1.
          1    1    1    2  501    0  0.18716452865E+03  0.38048863348E+02  0.11294932251E+04  0.11455274865E+04  0.00000000000E+00 0. -1.
<scales pt_clust_3="138.85984" pt_clust_4="49.41154" pt_clust_5="213.60316" pt_clust_6="14000.00000"></scales>
<clustering>
<clus scale="   49.412">  1  4  2 -1</clus>
<clus scale="  138.860">  2  3  1 -1</clus>
<clus scale="  213.603">  2  5  1 -1</clus>
<clus scale="  138.860">  2  3  1 -1</clus>
</clustering>
</event>
<event>
 6    0  0.3643696E+002  0.1514178E+03  0.7546771E-02  0.1198742E+00
          1   -1    0    0  503    0 -0.00000000000E+00  0.00000000000E+00  0.15756666276E+04  0.15756666276E+04  0.00000000000E+00 0.  1.
         21   -1    0    0  504  502  0.00000000000E+00 -0.00000000000E+00 -0.55730140572E+02  0.55730140572E+02  0.00000000000E+00 0.  1.
         21    1    1    2  503  505  0.36832881471E+02 -0.66433376278E+01  0.16633263723E+03  0.17049146987E+03  0.00000000000E+00 0. -1.
         21    1    1    2  504  501  0.26697324368E+02 -0.34557491351E+02  0.39081138637E+03  0.39324357217E+03  0.00000000000E+00 0.  1.
         21    1    1    2  505  502 -0.13616453722E+03  0.17115539597E+02  0.41750425300E+02  0.14344623001E+03  0.00000000000E+00 0.  1.
          1    1    1    2  501    0  0.72634331380E+02  0.24085289382E+02  0.92104203815E+03  0.92421549614E+03  0.00000000000E+00 0.  1.
<scales pt_clust_3="37.42720" pt_clust_4="50.01455" pt_clust_5="134.77685" pt_clust_6="50.01455"></scales>
<clustering>
<clus scale="   37.427">  1  3  2 -1</clus>
<clus scale="   50.015">  4  6 -1 -1</clus>
<clus scale="  134.777">  2  5  1 -1</clus>
<clus scale="  134.777">  2  3  1 -1</clus>
</clustering>
</event>
<event>
 6    0  0.3643696E+002  0.8369374E+02  0.7546771E-02  0.1318884E+00
         21   -1    0    0  505  502  0.00000000000E+00  0.00000000000E+00  0.96702425825E+02  0.96702425825E+02  0.00000000000E+00 0. -1.
          1   -1    0    0  503    0 -0.00000000000E+00 -0.00000000000E+00 -0.72059930167E+03  0.72059930167E+03  0.00000000000E+00 0. -1.
         21    1    1    2  503  504  0.41575656446E+02  0.14912679713E+02 -0.81725214128E+02  0.92897437260E+02  0.00000000000E+00 0.  1.
         21    1    1    2  504  502  0.44706875024E+02 -0.35316023794E+02 -0.17173425037E+03  0.18093805283E+03  0.00000000000E+00 0.  1.
         21    1    1    2  505  501 -0.18099025477E+02  0.83536578524E+02  0.59148808480E+02  0.10394477485E+03  0.00000000000E+00 0. -1.
          1    1    1    2  501    0 -0.68183505992E+02 -0.63133234443E+02 -0.42958621983E+03  0.43952146256E+03  0.00000000000E+00 0. -1.
<scales pt_clust_3="44.16926" pt_clust_4="64.33504" pt_clust_5="83.69374" pt_clust_6="14000.00000"></scales>
<clustering>
<clus scale="   44.169">  2  3  1 -1</clus>
<clus scale="   64.335">  2  4  1 -1</clus>
<clus scale="   83.694">  1  5  2 -1</clus>
<clus scale="   83.694">  1  3  2 -1</clus>
</clustering>
</event>
<event>
 6    0  0.3643696E+002  0.1090895E+03  0.7546771E-02  0.1262265E+00
         -1   -1    0    0    0  501 -0.00000000000E+00  0.00000000000E+00  0.10381781997E+03  0.10381781997E+03  0.00000000000E+00 0.  1.
         21   -1    0    0  503  502  0.00000000000E+00 -0.00000000000E+00 -0.32230630884E+03  0.32230630884E+03  0.00000000000E+00 0.  1.
         21    1    1    2  503  505 -0.25649128397E+02  0.35903612205E+02 -0.34050729477E+02  0.55735081724E+02  0.00000000000E+00 0.  1.
         21    1    1    2  504  502  0.10517281998E+03  0.32368608291E+02 -0.19598786372E+03  0.22476719420E+03  0.00000000000E+00 0.  1.
         21    1    1    2  505  501  0.20202330742E+02 -0.33894719217E+02  0.67158723305E+01  0.40026105223E+02  0.00000000000E+00 0.  1.
         -1    1    1    2    0  504 -0.99726022324E+02 -0.34377501280E+02  0.48342319958E+01  0.10559574765E+03  0.00000000000E+00 0.  1.
<scales pt_clust_3="38.82693" pt_clust_4="14000.00000" pt_clust_5="39.45866" pt_clust_6="109.08949"></scales>
<clustering>
<clus scale="   39.459">  1  5  2 -1</clus>
<clus scale="   38.827">  1  3  2 -1</clus>
<clus scale="  109.089">  1  6  2 -1</clus>
<clus scale="  109.089">  2  3  1 -1</clus>
</clustering>
</event>
<event>
 6    0  0.3643696E+002  0.1463055E+03  0.7546771E-02  0.1205088E+00
         21   -1    0    0  503  502  0.00000000000E+00  0.00000000000E+00  0.64221278530E+02  0.64221278530E+02  0.00000000000E+00 0.  1.
          2   -1    0    0  505    0 -0.00000000000E+00 -0.00000000000E+00 -0.63650136781E+03  0.63650136781E+03  0.00000000000E+00 0.  1.
         21    1    1    2  503  504 -0.12079503125E+03 -0.15786879587E+02 -0.35602873032E+02  0.12691820086E+03  0.00000000000E+00 0.  1.
         21    1    1    2  504  501  0.49455472418E+02  0.24388371395E+02 -0.25810107368E+03  0.26392574836E+03  0.00000000000E+00 0.  1.
         21    1    1    2  505  502 -0.14835363390E+02 -0.36141431134E+02 -0.46146272370E+02  0.60462959777E+02  0.00000000000E+00 0.  1.
          2    1    1    2  501    0  0.86174922217E+02  0.27539939326E+02 -0.23242987020E+03  0.24941573735E+03  0.00000000000E+00 0.  1.
<scales pt_clust_3="139.99489" pt_clust_4="33.18469" pt_clust_5="39.06778" pt_clust_6="33.18469"></scales>
<clustering>
<clus scale="   33.185">  4  6 -1 -1</clus>
<clus scale="   39.068">  1  5  2 -1</clus>
<clus scale="  139.995">  1  3  2 -1</clus>
<clus scale="   39.068">  1  3  2 -1</clus>
</clustering>
</event>
<event>
 6    0  0.3643696E+002  0.2977532E+03  0.7546771E-02  0.1086369E+00
         21   -1    0    0  504  502  0.00000000000E+00  0.00000000000E+00  0.56138457572E+03  0.56138457572E+03  0.00000000000E+00 0.  1.
         -3   -1    0    0    0  501 -0.00000000000E+00 -0.00000000000E+00 -0.39724720235E+03  0.39724720235E+03  0.00000000000E+00 0.  1.
         21    1    1    2  503  501 -0.55211995870E+02 -0.54585621136E+02 -0.36418286090E+02  0.85756901090E+02  0.00000000000E+00 0.  1.
         21    1    1    2  504  505  0.19105789306E+02  0.23752611706E+02  0.15897280029E+03  0.16186898709E+03  0.00000000000E+00 0.  1.
         21    1    1    2  505  503  0.25392379106E+03 -0.15813591407E+03  0.22051954756E+03  0.37163574887E+03  0.00000000000E+00 0.  1.
         -3    1    1    2    0  502 -0.21781758450E+03  0.18896892350E+03 -0.17893668839E+03  0.33937014102E+03  0.00000000000E+00 0.  1.
<scales pt_clust_3="75.77684" pt_clust_4="30.48307" pt_clust_5="14000.00000" pt_clust_6="297.75323"></scales>
<clustering>
<clus scale="   30.483">  1  4  2 -1</clus>
<clus scale="   75.777">  2  3  1 -1</clus>
<clus scale="  297.753">  2  6  1 -1</clus>
<clus scale="   30.483">  1  3  2 -1</clus>
</clustering>
</event>
<event>
 6    0  0.3643696E+002  0.1267639E+03  0.7546771E-02  0.1232338E+00
          2   -1    0    0  504    0 -0.00000000000E+00  0.00000000000E+00  0.21885656326E+04  0.21885656326E+04  0.00000000000E+00 0.  1.
         21   -1    0    0  503  502  0.00000000000E+00 -0.00000000000E+00 -0.88171316425E+03  0.88171316425E+03  0.00000000000E+00 0. -1.
         21    1    1    2  503  505 -0.55491787509E+02 -0.19515271832E+02 -0.84985078076E+03  0.85188410824E+03  0.00000000000E+00 0. -1.
         21    1    1    2  504  502 -0.12473557292E+02 -0.47896072141E+02  0.23506191701E+03  0.24021600318E+03  0.00000000000E+00 0. -1.
         21    1    1    2  505  501 -0.55773762597E+02 -0.56799470612E+02  0.41298822211E+02  0.89679903947E+02  0.00000000000E+00 0. -1.
          2    1    1    2  501    0  0.12373910740E+03  0.12421081458E+03  0.18803425099E+04  0.18884987815E+04  0.00000000000E+00 0.  1.
<scales pt_clust_3="58.83775" pt_clust_4="49.49367" pt_clust_5="14000.00000" pt_clust_6="126.76393"></scales>
<clustering>
<clus scale="   49.494">  1  4  2 -1</clus>
<clus scale="   58.838">  2  3  1 -1</clus>
<clus scale="  126.764">  1  6  2 -1</clus>
<clus scale="   58.838">  2  3  1 -1</clus>
</clustering>
</event>
<event>
 6    0  0.3643696E+002  0.6309496E+02  0.7546771E-02  0.1385284E+00
         21   -1    0    0  503  502  0.00000000000E+00  0.00000000000E+00  0.27067186940E+03  0.27067186940E+03  0.00000000000E+00 0. -1.
          1   -1    0    0  505    0 -0.00000000000E+00 -0.00000000000E+00 -0.66699157973E+03  0.66699157973E+03  0.00000000000E+00 0. -1.
         21    1    1    2  503  501  0.62180822718E+02  0.75932402360E+01  0.24478571808E+03  0.25267401882E+03  0.00000000000E+00 0. -1.
         21    1    1    2  504  502 -0.96860975068E+01 -0.62194861749E+02 -0.59933236123E+02  0.86913831494E+02  0.00000000000E+00 0. -1.
         21    1    1    2  505  504 -0.75006765758E+02 -0.70631614681E+01 -0.32642999651E+03  0.33501111293E+03  0.00000000000E+00 0. -1.
          1    1    1    2  501    0  0.22512040547E+02  0.61664782981E+02 -0.25474219577E+03  0.26306448589E+03  0.00000000000E+00 0. -1.
<scales pt_clust_3="62.64273" pt_clust_4="14000.00000" pt_clust_5="63.09496" pt_clust_6="60.32720"></scales>
<clustering>
<clus scale="   62.643">  1  3  2 -1</clus>
<clus scale="   63.095">  2  5  1 -1</clus>
<clus scale="   60.327">  2  6  1 -1</clus>
<clus scale="   62.643">  1  3  2 -1</clus>
</clustering>
</event>
<event>
 6    0  0.3643696E+002  0.8899378E+02  0.7546771E-02  0.1305307E+00
         21   -1    0    0  504  502  0.00000000000E+00  0.00000000000E+00  0.53398342785E+02  0.53398342785E+02  0.00000000000E+00 0.  1.
         -2   -1    0    0    0  501 -0.00000000000E+00 -0.00000000000E+00 -0.25201051006E+04  0.25201051006E+04  0.00000000000E+00 0.  1.
         21    1    1    2  503  505 -0.39260702320E+02 -0.45639816700E+01 -0.32273087596E+03  0.32514220115E+03  0.00000000000E+00 0.  1.
         21    1    1    2  504  503 -0.60331728946E+01 -0.89216042245E+02  0.94980534585E+01  0.89922824625E+02  0.00000000000E+00 0.  1.
         21    1    1    2  505  501 -0.14821266500E+02  0.29925495123E+02 -0.18354093502E+03  0.18655422811E+03  0.00000000000E+00 0. -1.
         -2    1    1    2    0  502  0.60115141715E+02  0.63854528792E+02 -0.19699330003E+04  0.19718841895E+04  0.00000000000E+00 0.  1.
<scales pt_clust_3="41.31888" pt_clust_4="14000.00000" pt_clust_5="33.39469" pt_clust_6="88.99378"></scales>
<clustering>
<clus scale="   33.395">  2  5  1 -1</clus>
<clus scale="   41.319">  2  3  1 -1</clus>
<clus scale="   88.994">  2  6  1 -1</clus>
<clus scale="   88.994">  1  3  2 -1</clus>
</clustering>
</event>
<event>
 6    0  0.3643696E+002  0.1295017E+03  0.7546771E-02  0.1228197E+00
         21   -1    0    0  504  502  0.00000000000E+00  0.00000000000E+00  0.10368040788E+02  0.10368040788E+02  0.00000000000E+00 0.  1.
          1   -1    0    0  503    0 -0.00000000000E+00 -0.00000000000E+00 -0.22774597025E+04  0.22774597025E+04  0.00000000000E+00 0.  1.
         21    1    1    2  503  505  0.42243150844E+02 -0.10777896950E+02 -0.50308643715E+03  0.50497189040E+03  0.00000000000E+00 0.  1.
         21    1    1    2  504  501 -0.30301399014E+01  0.74339133221E+02 -0.45450167208E+03  0.46055103778E+03  0.00000000000E+00 0.  1.
         21    1    1    2  505  502 -0.50386154328E+02 -0.11371666221E+03 -0.72929153015E+03  0.73982185677E+03  0.00000000000E+00 0.  1.
          1    1    1    2  501    0  0.11173143385E+02  0.50155425940E+02 -0.58021202233E+03  0.58248295833E+03  0.00000000000E+00 0.  1.
<scales pt_clust_3="43.59641" pt_clust_4="34.48904" pt_clust_5="122.67195" pt_clust_6="34.48904"></scales>
<clustering>
<clus scale="   34.489">  4  6 -1 -1</clus>
<clus scale="   43.596">  2  3  1 -1</clus>
<clus scale="  122.672">  1  5  2 -1</clus>
<clus scale="  122.672">  1  3  2 -1</clus>
</clustering>
</event>
<event>
 6    0  0.3643696E+002  0.1606012E+03  0.7546771E-02  0.1188020E+00
          2   -1    0    0  505    0 -0.00000000000E+00  0.00000000000E+00  0.83921426073E+03  0.83921426073E+03  0.00000000000E+00 0. -1.
         21   -1    0    0  503  502  0.00000000000E+00 -0.00000000000E+00 -0.12328301623E+03  0.12328301623E+03  0.00000000000E+00 0. -1.
         21    1    1    2  503  501  0.23047142646E+02  0.48815221524E+02  0.22771266858E+03  0.23402383654E+03  0.00000000000E+00 0.  1.
         21    1    1    2  504  502 -0.11542578091E+03 -0.92216457442E+02 -0.56282192968E+02  0.15809703086E+03  0.00000000000E+00 0. -1.
         21    1    1    2  505  504 -0.27886102601E+02 -0.14373767692E+02  0.58349176738E+02  0.66248519545E+02  0.00000000000E+00 0.  1.
          2    1    1    2  501    0  0.12026474086E+03  0.57775003610E+02  0.48615159215E+03  0.50412789001E+03  0.00000000000E+00 0. -1.
<scales pt_clust_3="37.31519" pt_clust_4="149.75560" pt_clust_5="31.37260" pt_clust_6="37.31519"></scales>
<clustering>
<clus scale="   31.373">  1  5  2 -1</clus>
<clus scale="   37.315">  3  6 -1 -1</clus>
<clus scale="  149.756">  2  4  1 -1</clus>
<clus scale="  149.756">  2  3  1 -1</clus>
</clustering>
</event>
<event>
 6    0  0.3643696E+002  0.9455896E+02  0.7546771E-02  0.1292173E+00
         21   -1    0    0  503  502  0.00000000000E+00  0.00000000000E+00  0.96897917895E+03  0.96897917895E+03  0.00000000000E+00 0. -1.
          3   -1    0    0  504    0 -0.00000000000E+00 -0.00000000000E+00 -0.46249082381E+03  0.46249082381E+03  0.00000000000E+00 0. -1.
         21    1    1    2  503  501  0.88758344253E+02  0.35845345218E+02  0.92794733978E+03  0.93287147982E+03  0.00000000000E+00 0. -1.
         21    1    1    2  504  505 -0.33680217620E+02 -0.75783632739E+01 -0.10921320594E+03  0.11453956959E+03  0.00000000000E+00 0. -1.
         21    1    1    2  505  502 -0.41505882357E+02 -0.76718357433E+02 -0.22642741089E+02  0.90117358824E+02  0.00000000000E+00 0. -1.
          3    1    1    2  501    0 -0.13572244276E+02  0.48451375489E+02 -0.28960303761E+03  0.29394159453E+03  0.00000000000E+00 0. -1.
<scales pt_clust_3="14000.00000" pt_clust_4="34.52229" pt_clust_5="94.55896" pt_clust_6="59.21785"></scales>
<clustering>
<clus scale="   34.522">  2  4  1 -1</clus>
<clus scale="   59.218">  2  6  1 -1</clus>
<clus scale="   94.559">  2  5  1 -1</clus>
<clus scale="   94.559">  1  3  2 -1</clus>
</clustering>
</event>
<event>
 6    0  0.3643696E+002  0.1067612E+03  0.7546771E-02  0.1266688E+00
         21   -1    0    0  505  502  0.00000000000E+00  0.00000000000E+00  0.94028765179E+02  0.94028765179E+02  0.00000000000E+00 0.  1.
         -2   -1    0    0    0  501 -0.00000000000E+00 -0.00000000000E+00 -0.22605896505E+03  0.22605896505E+03  0.00000000000E+00 0. -1.
         21    1    1    2  503  502  0.42506899250E+02 -0.15927095492E+02  0.26634158013E+02  0.52629718104E+02  0.00000000000E+00 0.  1.
         21    1    1    2  504  503 -0.26543837389E+02  0.43698174248E+02 -0.29348702864E+02  0.58952965115E+02  0.00000000000E+00 0. -1.
         21    1    1    2  505  501  0.66047377155E+02 -0.42918408381E+02 -0.76425525039E+02  0.10975020130E+03  0.00000000000E+00 0.  1.
         -2    1    1    2    0  504 -0.82010439016E+02  0.15147329624E+02 -0.52890129976E+02  0.98754845710E+02  0.00000000000E+00 0. -1.
<scales pt_clust_3="45.39283" pt_clust_4="41.88576" pt_clust_5="92.39188" pt_clust_6="41.88576"></scales>
<clustering>
<clus scale="   41.886">  4  6 -1 -1</clus>
<clus scale="   45.393">  1  3  2 -1</clus>
<clus scale="   92.392">  2  5  1 -1</clus>
<clus scale="   45.393">  1  3  2 -1</clus>
</clustering>
</event>
<event>
 6    0  0.3643696E+002  0.7688198E+02  0.7546771E-02  0.1338140E+00
          2   -1    0    0  503    0 -0.00000000000E+00  0.00000000000E+00  0.10620078831E+04  0.10620078831E+04  0.00000000000E+00 0.  1.
         21   -1    0    0  505  502  0.00000000000E+00 -0.00000000000E+00 -0.37429420217E+02  0.37429420217E+02  0.00000000000E+00 0.  1.
         21    1    1    2  503  504  0.75375153984E+02  0.39380905736E+02  0.24053665270E+03  0.25512771482E+03  0.00000000000E+00 0.  1.
         21    1    1    2  504  502  0.44437053141E+02  0.46007519115E+02  0.30556004188E+02  0.70887325376E+02  0.00000000000E+00 0.  1.
         21    1    1    2  505  501 -0.83959119434E+02 -0.27216541975E+02  0.24594652535E+03  0.26130359206E+03  0.00000000000E+00 0.  1.
          2    1    1    2  501    0 -0.35853087691E+02 -0.58171882875E+02  0.50753928067E+03  0.51211867108E+03  0.00000000000E+00 0.  1.
<scales pt_clust_3="76.88198" pt_clust_4="63.96361" pt_clust_5="14000.00000" pt_clust_6="60.07362"></scales>
<clustering>
<clus scale="   63.964">  2  4  1 -1</clus>
<clus scale="   60.074">  1  6  2 -1</clus>
<clus scale="   76.882">  1  3  2 -1</clus>
<clus scale="   63.964">  2  3  1 -1</clus>
</clustering>
</event>
<event>
 6    0  0.3643696E+002  0.7743274E+02  0.7546771E-02  0.1336499E+00
          1   -1    0    0  503    0 -0.00000000000E+00  0.00000000000E+00  0.15228248201E+03  0.15228248201E+03  0.00000000000E+00 0. -1.
         21   -1    0    0  504  502  0.00000000000E+00 -0.00000000000E+00 -0.28522541148E+04  0.28522541148E+04  0.00000000000E+00 0. -1.
         21    1    1    2  503  502 -0.41823308509E+02  0.72724992862E+02 -0.50219089609E+02  0.97775613946E+02  0.00000000000E+00 0. -1.
         21    1    1    2  504  505 -0.28462168509E+02  0.59234487150E+02 -0.27035774967E+04  0.27043761018E+04  0.00000000000E+00 0. -1.
         21    1    1    2  505  501  0.46515975073E+02 -0.59257052567E+02 -0.36761615186E+02  0.83824522468E+02  0.00000000000E+00 0. -1.
          1    1    1    2  501    0  0.23769501945E+02 -0.72702427445E+02  0.90586568743E+02  0.11856035853E+03  0.00000000000E+00 0. -1.
<scales pt_clust_3="14000.00000" pt_clust_4="65.71773" pt_clust_5="49.57799" pt_clust_6="77.43274"></scales>
<clustering>
<clus scale="   65.718">  2  4  1 -1</clus>
<clus scale="   49.578">  2  5  1 -1</clus>
<clus scale="   77.433">  1  6  2 -1</clus>
<clus scale="   65.718">  2  3  1 -1</clus>
</clustering>
</event>
<event>
 6    0  0.3643696E+002  0.7878033E+02  0.7546771E-02  0.1332549E+00
         21   -1    0    0  503  502  0.00000000000E+00  0.00000000000E+00  0.24311717063E+03  0.24311717063E+03  0.00000000000E+00 0.  1.
          2   -1    0    0  504    0 -0.00000000000E+00 -0.00000000000E+00 -0.75446633946E+03  0.75446633946E+03  0.00000000000E+00 0.  1.
         21    1    1    2  503  501  0.89511568002E+02  0.12347653624E+02 -0.20887191518E+03  0.22757913416E+03  0.00000000000E+00 0.  1.
         21    1    1    2  504  505 -0.30888601477E+02 -0.12822622271E+02 -0.10727187236E+03  0.11236449592E+03  0.00000000000E+00 0.  1.
         21    1    1    2  505  502 -0.57016584824E+02  0.55373311995E+02  0.22253602211E+03  0.23630356697E+03  0.00000000000E+00 0.  1.
          2    1    1    2  501    0 -0.16063817010E+01 -0.54898343347E+02 -0.41774140340E+03  0.42133631303E+03  0.00000000000E+00 0.  1.
<scales pt_clust_3="78.78033" pt_clust_4="33.44436" pt_clust_5="14000.00000" pt_clust_6="66.86547"></scales>
<clustering>
<clus scale="   33.444">  2  4  1 -1</clus>
<clus scale="   66.865">  2  6  1 -1</clus>
<clus scale="   78.780">  2  3  1 -1</clus>
<clus scale="   78.780">  1  3  2 -1</clus>
</clustering>
</event>
<event>
 6    0  0.3643696E+002  0.9852815E+02  0.7546771E-02  0.1283422E+00
          1   -1    0    0  505    0 -0.00000000000E+00  0.00000000000E+00  0.11131068782E+04  0.11131068782E+04  0.00000000000E+00 0.  1.
         21   -1    0    0  504  502  0.00000000000E+00 -0.00000000000E+00 -0.51056265290E+02  0.51056265290E+02  0.00000000000E+00 0.  1.
         21    1    1    2  503  502  0.28740959023E+02 -0.10340848583E+03  0.49736871293E+03  0.50881725036E+03  0.00000000000E+00 0. -1.
         21    1    1    2  504  501  0.42385025328E+02  0.66879164250E+01 -0.25050060979E+02  0.49686257186E+02  0.00000000000E+00 0.  1.
         21    1    1    2  505  503 -0.32322181817E+02  0.95327317529E+01  0.26685556685E+03  0.26897488725E+03  0.00000000000E+00 0.  1.
          1    1    1    2  501    0 -0.38803802533E+02  0.87187837653E+02  0.32287639406E+03  0.33668474864E+03  0.00000000000E+00 0.  1.
<scales pt_clust_3="14000.00000" pt_clust_4="42.46628" pt_clust_5="33.69861" pt_clust_6="98.52815"></scales>
<clustering>
<clus scale="   33.699">  1  5  2 -1</clus>
<clus scale="   42.466">  2  4  1 -1</clus>
<clus scale="   98.528">  2  6  1 -1</clus>
<clus scale="   42.466">  2  3  1 -1</clus>
</clustering>
</event>
<event>
 6    0  0.3643696E+002  0.1514038E+03  0.7546771E-02  0.1198759E+00
         21   -1    0    0  505  502  0.00000000000E+00  0.00000000000E+00  0.70145530831E+02  0.70145530831E+02  0.00000000000E+00 0. -1.
          1   -1    0    0  504    0 -0.00000000000E+00 -0.00000000000E+00 -0.28918730375E+04  0.28918730375E+04  0.00000000000E+00 0.  1.
         21    1    1    2  503  501  0.20690955565E+01 -0.46974834161E+02 -0.10979184310E+04  0.10989248370E+04  0.00000000000E+00 0. -1.
         21    1    1    2  504  502 -0.10022608578E+02  0.59371544634E+02  0.46653631519E+02  0.76170823343E+02  0.00000000000E+00 0. -1.
         21    1    1    2  505  503 -0.72362959390E+02  0.66920396267E+02 -0.40574833219E+03  0.41754813663E+03  0.00000000000E+00 0. -1.
          1    1    1    2  501    0  0.80316472411E+02 -0.79317106740E+02 -0.13647143750E+04  0.13693747714E+04  0.00000000000E+00 0.  1.
<scales pt_clust_3="46.56600" pt_clust_4="60.21157" pt_clust_5="133.10716" pt_clust_6="46.56600"></scales>
<clustering>
<clus scale="   46.566">  3  6 -1 -1</clus>
<clus scale="   60.212">  1  4  2 -1</clus>
<clus scale="  133.107">  1  5  2 -1</clus>
<clus scale="   60.212">  1  3  2 -1</clus>
</clustering>
</event>
<event>
 6    0  0.3643696E+002  0.1161808E+03  0.7546771E-02  0.1249534E+00
         -2   -1    0    0    0  501 -0.00000000000E+00  0.00000000000E+00  0.99432517762E+02  0.99432517762E+02  0.00000000000E+00 0.  1.
         21   -1    0    0  505  502  0.00000000000E+00 -0.00000000000E+00 -0.75338948690E+03  0.75338948690E+03  0.00000000000E+00 0. -1.
         21    1    1    2  503  504  0.19966523181E+02 -0.10620170933E+03 -0.74881776908E+02  0.13147146316E+03  0.00000000000E+00 0. -1.
         21    1    1    2  504  502 -0.58691210845E+01 -0.47730847276E+02 -0.54113138772E+03  0.54326407864E+03  0.00000000000E+00 0. -1.
         21    1    1    2  505  501  0.31045309519E+02  0.39878583897E+02 -0.18886993534E+02  0.53952119713E+02  0.00000000000E+00 0. -1.
         -2    1    1    2    0  503 -0.45142711616E+02  0.11405397271E+03 -0.19056810976E+02  0.12413434315E+03  0.00000000000E+00 0.  1.
<scales pt_clust_3="116.18081" pt_clust_4="48.09034" pt_clust_5="43.62977" pt_clust_6="14000.00000"></scales>
<clustering>
<clus scale="   48.090">  2  4  1 -1</clus>
<clus scale="   43.630">  2  5  1 -1</clus>
<clus scale="  116.181">  2  3  1 -1</clus>
<clus scale="   48.090">  2  3  1 -1</clus>
</clustering>
</event>
<event>
 6    0  0.3643696E+002  0.9499988E+02  0.7546771E-02  0.1291176E+00
          2   -1    0    0  504    0 -0.00000000000E+00  0.00000000000E+00  0.23114964700E+04  0.23114964700E+04  0.00000000000E+00 0.  1.
         21   -1    0    0  501  502  0.00000000000E+00 -0.00000000000E+00 -0.52531486400E+02  0.52531486400E+02  0.00000000000E+00 0. -1.
         21    1    1    2  503  505 -0.42305185623E+02 -0.48526925593E+02  0.18956316458E+03  0.20019686462E+03  0.00000000000E+00 0.  1.
         21    1    1    2  504  503 -0.27949584156E+02 -0.16804492891E+02  0.11796207778E+04  0.11800715019E+04  0.00000000000E+00 0. -1.
         21    1    1    2  505  502 -0.30612168830E+02 -0.24396523990E+02 -0.32973726025E+02  0.51181655613E+02  0.00000000000E+00 0. -1.
          2    1    1    2  501    0  0.10086693861E+03  0.89727942474E+02  0.92275476727E+03  0.93257793427E+03  0.00000000000E+00 0.  1.
<scales pt_clust_3="94.99988" pt_clust_4="32.61242" pt_clust_5="39.40465" pt_clust_6="14000.00000"></scales>
<clustering>
<clus scale="   32.612">  1  4  2 -1</clus>
<clus scale="   39.405">  2  5  1 -1</clus>
<clus scale="   95.000">  2  3  1 -1</clus>
<clus scale="   39.405">  2  3  1 -1</clus>
</clustering>
</event>
<event>
 6    0  0.3643696E+002  0.8565169E+02  0.7546771E-02  0.1313737E+00
          2   -1    0    0  505    0 -0.00000000000E+00  0.00000000000E+00  0.79247094151E+03  0.79247094151E+03  0.00000000000E+00 0.  1.
         21   -1    0    0  504  502  0.00000000000E+00 -0.00000000000E+00 -0.49995004048E+02  0.49995004048E+02  0.00000000000E+00 0.  1.
         21    1    1    2  503  501  0.47011621840E+02 -0.41745995460E+02  0.19387354212E+03  0.20381307872E+03  0.00000000000E+00 0.  1.
         21    1    1    2  504  503 -0.90560691532E+02  0.64772985479E+02  0.20530312842E+03  0.23355117862E+03  0.00000000000E+00 0.  1.
         21    1    1    2  505  502  0.29607969568E+02  0.19376101060E+02 -0.18931849955E+02  0.40130787395E+02  0.00000000000E+00 0.  1.
          2    1    1    2  501    0  0.13941100125E+02 -0.42403091079E+02  0.36223111689E+03  0.36497090082E+03  0.00000000000E+00 0.  1.
<scales pt_clust_3="85.65169" pt_clust_4="14000.00000" pt_clust_5="35.38453" pt_clust_6="44.08231"></scales>
<clustering>
<clus scale="   35.385">  2  5  1 -1</clus>
<clus scale="   44.082">  1  6  2 -1</clus>
<clus scale="   85.652">  1  3  2 -1</clus>
<clus scale="   35.385">  2  3  1 -1</clus>
</clustering>
</event>
<event>
 6    0  0.3643696E+002  0.1828508E+03  0.7546771E-02  0.1165072E+00
          2   -1    0    0  505    0 -0.00000000000E+00  0.00000000000E+00  0.16447215674E+04  0.16447215674E+04  0.00000000000E+00 0. -1.
         21   -1    0    0  504  502  0.00000000000E+00 -0.00000000000E+00 -0.17556146626E+03  0.17556146626E+03  0.00000000000E+00 0.  1.
         21    1    1    2  503  502 -0.88820836256E+02 -0.62476133623E+02 -0.12264468449E+03  0.16381125376E+03  0.00000000000E+00 0.  1.
         21    1    1    2  504  501  0.36078785799E+02  0.19593613371E+02  0.35874842664E+02  0.54521489395E+02  0.00000000000E+00 0. -1.
         21    1    1    2  505  503 -0.35568187670E+02 -0.14360029852E+03  0.37493982566E+03  0.40307073148E+03  0.00000000000E+00 0.  1.
          2    1    1    2  501    0  0.88310238127E+02  0.18648281878E+03  0.11809901174E+04  0.11988795591E+04  0.00000000000E+00 0. -1.
<scales pt_clust_3="73.56840" pt_clust_4="41.05592" pt_clust_5="182.85079" pt_clust_6="14000.00000"></scales>
<clustering>
<clus scale="   41.056">  2  4  1 -1</clus>
<clus scale="   73.568">  2  3  1 -1</clus>
<clus scale="  182.851">  2  5  1 -1</clus>
<clus scale="   41.056">  2  3  1 -1</clus>
</clustering>
</event>
<event>
 6    0  0.3643696E+002  0.1391908E+03  0.7546771E-02  0.1214422E+00
         21   -1    0    0  505  502  0.00000000000E+00  0.00000000000E+00  0.22827654825E+03  0.22827654825E+03  0.00000000000E+00 0. -1.
          1   -1    0    0  503    0 -0.00000000000E+00 -0.00000000000E+00 -0.30552254380E+03  0.30552254380E+03  0.00000000000E+00 0.  1.
         21    1    1    2  503  504  0.38747464991E+02 -0.65757830568E+01 -0.27302201251E+02  0.47854123743E+02  0.00000000000E+00 0.  1.
         21    1    1    2  504  502  0.52476958143E+02 -0.11703988181E+03  0.17009108024E+03  0.21303319142E+03  0.00000000000E+00 0. -1.
         21    1    1    2  505  501 -0.65542736600E+02  0.58768056892E+02 -0.93454619752E+02  0.12838730772E+03  0.00000000000E+00 0. -1.
          1    1    1    2  501    0 -0.25681686534E+02  0.64847607977E+02 -0.12658025479E+03  0.14452446916E+03  0.00000000000E+00 0.  1.
<scales pt_clust_3="39.30149" pt_clust_4="130.04346" pt_clust_5="45.12252" pt_clust_6="45.12252"></scales>
<clustering>
<clus scale="   39.301">  2  3  1 -1</clus>
<clus scale="   45.123">  5  6 -1 -1</clus>
<clus scale="  130.043">  1  4  2 -1</clus>
<clus scale="  130.043">  1  3  2 -1</clus>
</clustering>
</event>
<event>
 6    0  0.3643696E+002  0.1536146E+03  0.7546771E-02  0.1196100E+00
          1   -1    0    0  505    0 -0.00000000000E+00  0.00000000000E+00  0.15699569403E+04  0.15699569403E+04  0.00000000000E+00 0. -1.
         21   -1    0    0  503  502  0.00000000000E+00 -0.00000000000E+00 -0.72660616055E+03  0.72660616055E+03  0.00000000000E+00 0.  1.
         21    1    1    2  503  501  0.14267502441E+03  0.57256486488E+02 -0.70895812178E+03  0.72543510135E+03  0.00000000000E+00 0.  1.
         21    1    1    2  504  502 -0.43640603259E+01 -0.41430867220E+02  0.16478726626E+03  0.16997177678E+03  0.00000000000E+00 0. -1.
         21    1    1    2  505  504  0.17195137879E+02 -0.31772996904E+02  0.36053221072E+03  0.36233778586E+03  0.00000000000E+00 0. -1.
          1    1    1    2  501    0 -0.15550610197E+03  0.15947377636E+02  0.10269894246E+04  0.10388184369E+04  0.00000000000E+00 0. -1.
<scales pt_clust_3="153.61463" pt_clust_4="45.87427" pt_clust_5="36.12750" pt_clust_6="14000.00000"></scales>
<clustering>
<clus scale="   36.127">  1  5  2 -1</clus>
<clus scale="   45.874">  1  4  2 -1</clus>
<clus scale="  153.615">  2  3  1 -1</clus>
<clus scale="  153.615">  2  3  1 -1</clus>
</clustering>
</event>
<event>
 6    0  0.3643696E+002  0.1358772E+03  0.7546771E-02  0.1218987E+00
          2   -1    0    0  504    0 -0.00000000000E+00  0.00000000000E+00  0.18268423771E+04  0.18268423771E+04  0.00000000000E+00 0. -1.
         21   -1    0    0  505  502  0.00000000000E+00 -0.00000000000E+00 -0.25732212882E+03  0.25732212882E+03  0.00000000000E+00 0. -1.
         21    1    1    2  503  502  0.78404387530E+02 -0.10750831727E+03  0.21091221441E+03  0.24937772245E+03  0.00000000000E+00 0. -1.
         21    1    1    2  504  503  0.17350067379E+02  0.16414051808E+03  0.13304540623E+04  0.13406532536E+04  0.00000000000E+00 0. -1.
         21    1    1    2  505  501 -0.68729638305E+02 -0.28588160970E+02 -0.22551988713E+03  0.23748740098E+03  0.00000000000E+00 0. -1.
          2    1    1    2  501    0 -0.27024816604E+02 -0.28044039842E+02  0.25367385876E+03  0.25664612894E+03  0.00000000000E+00 0. -1.
<scales pt_clust_3="14000.00000" pt_clust_4="135.87725" pt_clust_5="74.57423" pt_clust_6="38.94623"></scales>
<clustering>
<clus scale="   38.946">  1  6  2 -1</clus>
<clus scale="   74.574">  2  5  1 -1</clus>
<clus scale="  135.877">  1  4  2 -1</clus>
<clus scale="   74.574">  2  3  1 -1</clus>
</clustering>
</event>
<event>
 6    0  0.3643696E+002  0.9503754E+02  0.7546771E-02  0.1291092E+00
         21   -1    0    0  504  502  0.00000000000E+00  0.00000000000E+00  0.28628749224E+03  0.28628749224E+03  0.00000000000E+00 0. -1.
          1   -1    0    0  503    0 -0.00000000000E+00 -0.00000000000E+00 -0.99614418570E+03  0.99614418570E+03  0.00000000000E+00 0.  1.
         21    1    1    2  503  502 -0.33156946134E+02 -0.58045157266E+01 -0.10502666500E+03  0.11028905586E+03  0.00000000000E+00 0.  1.
         21    1    1    2  504  505 -0.83778846575E+02  0.45620915362E+02  0.26926397780E+03  0.28566283061E+03  0.00000000000E+00 0. -1.
         21    1    1    2  505  501  0.88833588661E+02  0.17897355348E+01 -0.40081415593E+03  0.41054426950E+03  0.00000000000E+00 0.  1.
          1    1    1    2  501    0  0.28102204048E+02 -0.41606135170E+02 -0.47327985033E+03  0.47593552198E+03  0.00000000000E+00 0.  1.
<scales pt_clust_3="33.66119" pt_clust_4="95.03754" pt_clust_5="14000.00000" pt_clust_6="45.89835"></scales>
<clustering>
<clus scale="   33.661">  2  3  1 -1</clus>
<clus scale="   45.898">  2  6  1 -1</clus>
<clus scale="   95.038">  1  4  2 -1</clus>
<clus scale="   95.038">  1  3  2 -1</clus>
</clustering>
</event>
<event>
 6    0  0.3643696E+002  0.1742309E+03  0.7546771E-02  0.1173506E+00
          2   -1    0    0  504    0 -0.00000000000E+00  0.00000000000E+00  0.43246248110E+04  0.43246248110E+04  0.00000000000E+00 0.  1.
         21   -1    0    0  505  502  0.00000000000E+00 -0.00000000000E+00 -0.25534065920E+02  0.25534065920E+02  0.00000000000E+00 0.  1.
         21    1    1    2  503  502 -0.16190067443E+03  0.47520639208E+01  0.31992125711E+03  0.35858614201E+03  0.00000000000E+00 0.  1.
         21    1    1    2  504  503  0.98804801207E+02  0.69280583997E+02  0.18606408882E+04  0.18645500001E+04  0.00000000000E+00 0.  1.
         21    1    1    2  505  501 -0.47325895634E+02 -0.21610612150E+01  0.29895992809E+03  0.30269035199E+03  0.00000000000E+00 0.  1.
          2    1    1    2  501    0  0.11042176886E+03 -0.71871586702E+02  0.18195686717E+04  0.18243323828E+04  0.00000000000E+00 0.  1.
<scales pt_clust_3="14000.00000" pt_clust_4="117.39029" pt_clust_5="47.37521" pt_clust_6="174.23092"></scales>
<clustering>
<clus scale="   47.375">  2  5  1 -1</clus>
<clus scale="  117.390">  1  4  2 -1</clus>
<clus scale="  174.231">  1  6  2 -1</clus>
<clus scale="   47.375">  2  3  1 -1</clus>
</clustering>
</event>
<event>
 6    0  0.3643696E+002  0.2237949E+03  0.7546771E-02  0.1131085E+00
         21   -1    0    0  501  502  0.00000000000E+00  0.00000000000E+00  0.35894979190E+03  0.35894979190E+03  0.00000000000E+00 0. -1.
          2   -1    0    0  505    0 -0.00000000000E+00 -0.00000000000E+00 -0.27014248461E+04  0.27014248461E+04  0.00000000000E+00 0.  1.
         21    1    1    2  503  502 -0.24702583547E+02  0.40368864383E+02  0.33321499640E+03  0.33655920233E+03  0.00000000000E+00 0. -1.
         21    1    1    2  504  503 -0.51440805657E+01 -0.48083593683E+02 -0.14090962903E+03  0.14897656561E+03  0.00000000000E+00 0.  1.
         21    1    1    2  505  504  0.22366835401E+03  0.89856308137E+02 -0.12732570357E+04  0.12958723578E+04  0.00000000000E+00 0.  1.
          2    1    1    2  501    0 -0.19382168990E+03 -0.82141578837E+02 -0.12615233859E+04  0.12789665123E+04  0.00000000000E+00 0.  1.
<scales pt_clust_3="47.32719" pt_clust_4="42.34723" pt_clust_5="223.79491" pt_clust_6="14000.00000"></scales>
<clustering>
<clus scale="   47.327">  1  3  2 -1</clus>
<clus scale="   42.347">  1  4  2 -1</clus>
<clus scale="  223.795">  1  5  2 -1</clus>
<clus scale="   47.327">  1  3  2 -1</clus>
</clustering>
</event>
<event>
 6    0  0.3787049E+002  0.1233918E+03  0.7546771E-02  0.1237604E+00
         21   -1    0    0  501  502  0.00000000000E+00  0.00000000000E+00  0.48732785774E+03  0.48732785774E+03  0.00000000000E+00 0.  1.
          1   -1    0    0  504    0 -0.00000000000E+00 -0.00000000000E+00 -0.27112081264E+04  0.27112081264E+04  0.00000000000E+00 0. -1.
         21    1    1    2  503  502 -0.54755453082E+01  0.43244902245E+02  0.46904557544E+03  0.47106672034E+03  0.00000000000E+00 0.  1.
         21    1    1    2  504  505  0.94604682734E+01 -0.28954840662E+02 -0.11351459317E+03  0.11753061780E+03  0.00000000000E+00 0.  1.
         21    1    1    2  505  503  0.90235641189E+02  0.55784143480E+02 -0.18973456549E+03  0.21737880979E+03  0.00000000000E+00 0.  1.
          1    1    1    2  501    0 -0.94220564155E+02 -0.70074205063E+02 -0.23896766854E+04  0.23925598362E+04  0.00000000000E+00 0. -1.
<scales pt_clust_3="43.57853" pt_clust_4="30.46118" pt_clust_5="123.39179" pt_clust_6="14000.00000"></scales>
<clustering>
<clus scale="   30.461">  2  4  1 -1</clus>
<clus scale="   43.579">  1  3  2 -1</clus>
<clus scale="  123.392">  1  5  2 -1</clus>
<clus scale="   43.579">  1  3  2 -1</clus>
</clustering>
</event>
<event>
 6    0  0.3643696E+002  0.9358815E+02  0.7546771E-02  0.1294388E+00
         21   -1    0    0  505  502  0.00000000000E+00  0.00000000000E+00  0.77486199264E+02  0.77486199264E+02  0.00000000000E+00 0. -1.
          2   -1    0    0  504    0 -0.00000000000E+00 -0.00000000000E+00 -0.46038065223E+03  0.46038065223E+03  0.00000000000E+00 0.  1.
         21    1    1    2  503  502 -0.10327999302E+03 -0.51873390729E+02 -0.19128057981E+02  0.11714729287E+03  0.00000000000E+00 0. -1.
         21    1    1    2  504  503 -0.33505595592E+02  0.28641947869E+02 -0.16523651932E+03  0.17101489242E+03  0.00000000000E+00 0.  1.
         21    1    1    2  505  501  0.31854411473E+02  0.13595839510E+02 -0.14303458327E+02  0.37471846797E+02  0.00000000000E+00 0.  1.
          2    1    1    2  501    0  0.10493117714E+03  0.96356033496E+01 -0.18422641734E+03  0.21223281940E+03  0.00000000000E+00 0.  1.
<scales pt_clust_3="93.58815" pt_clust_4="43.42641" pt_clust_5="34.63453" pt_clust_6="14000.00000"></scales>
<clustering>
<clus scale="   34.635">  1  5  2 -1</clus>
<clus scale="   43.426">  2  4  1 -1</clus>
<clus scale="   93.588">  1  3  2 -1</clus>
<clus scale="   34.635">  1  3  2 -1</clus>
</clustering>
</event>
<event>
 6    0  0.3643696E+002  0.1535808E+03  0.7546771E-02  0.1196141E+00
         21   -1    0    0  504  502  0.00000000000E+00  0.00000000000E+00  0.59964302113E+03  0.59964302113E+03  0.00000000000E+00 0.  1.
          1   -1    0    0  505    0 -0.00000000000E+00 -0.00000000000E+00 -0.83068663858E+03  0.83068663858E+03  0.00000000000E+00 0.  1.
         21    1    1    2  503  501 -0.10382447650E+03 -0.18392714319E+03 -0.38878875676E+03  0.44245385444E+03  0.00000000000E+00 0. -1.
         21    1    1    2  504  503  0.15109443605E+03  0.29510559160E+02  0.54300570252E+03  0.56440729502E+03  0.00000000000E+00 0.  1.
         21    1    1    2  505  502 -0.44731230127E+01  0.31342953899E+02 -0.24917172905E+02  0.40289640035E+02  0.00000000000E+00 0.  1.
          1    1    1    2  501    0 -0.42796836539E+02  0.12307363013E+03 -0.36034339029E+03  0.38317887022E+03  0.00000000000E+00 0.  1.
<scales pt_clust_3="14000.00000" pt_clust_4="153.58075" pt_clust_5="31.66054" pt_clust_6="144.80440"></scales>
<clustering>
<clus scale="   31.661">  2  5  1 -1</clus>
<clus scale="  144.804">  2  6  1 -1</clus>
<clus scale="  153.581">  1  4  2 -1</clus>
<clus scale="  153.581">  1  3  2 -1</clus>
</clustering>
</event>
<event>
 6    0  0.3643696E+002  0.1024900E+03  0.7546771E-02  0.1275145E+00
         21   -1    0    0  505  502  0.00000000000E+00  0.00000000000E+00  0.29222888200E+03  0.29222888200E+03  0.00000000000E+00 0.  1.
         -2   -1    0    0    0  501 -0.00000000000E+00 -0.00000000000E+00 -0.85144434681E+03  0.85144434681E+03  0.00000000000E+00 0.  1.
         21    1    1    2  503  501 -0.49514817962E+02 -0.36217815736E+02 -0.50162488248E+02  0.79244700780E+02  0.00000000000E+00 0.  1.
         21    1    1    2  504  502  0.14579958549E+03  0.82867174748E+02 -0.23838775594E+03  0.29146733944E+03  0.00000000000E+00 0.  1.
         21    1    1    2  505  503 -0.64034873538E+02 -0.88821217123E+01  0.24577670352E+03  0.25413686294E+03  0.00000000000E+00 0.  1.
         -2    1    1    2    0  504 -0.32249893985E+02 -0.37767237299E+02 -0.51644192413E+03  0.51882432564E+03  0.00000000000E+00 0.  1.
<scales pt_clust_3="14000.00000" pt_clust_4="102.49001" pt_clust_5="65.11425" pt_clust_6="49.66306"></scales>
<clustering>
<clus scale="   49.663">  2  6  1 -1</clus>
<clus scale="   65.114">  1  5  2 -1</clus>
<clus scale="  102.490">  2  4  1 -1</clus>
<clus scale="   65.114">  1  3  2 -1</clus>
</clustering>
</event>
<event>
 6    0  0.3643696E+002  0.8925759E+02  0.7546771E-02  0.1304660E+00
         21   -1    0    0  501  502  0.00000000000E+00  0.00000000000E+00  0.41029879577E+02  0.41029879577E+02  0.00000000000E+00 0.  1.
          2   -1    0    0  504    0 -0.00000000000E+00 -0.00000000000E+00 -0.19735839866E+04  0.19735839866E+04  0.00000000000E+00 0. -1.
         21    1    1    2  503  505  0.10917164754E+02 -0.39616908973E+02 -0.40206439807E+03  0.40415895903E+03  0.00000000000E+00 0. -1.
         21    1    1    2  504  503 -0.19828991235E+02  0.30840386711E+02 -0.26345685696E+03  0.26599592821E+03  0.00000000000E+00 0. -1.
         21    1    1    2  505  502 -0.88890759525E+02  0.61088545755E+00 -0.16906713533E+02  0.90486337490E+02  0.00000000000E+00 0.  1.
          2    1    1    2  501    0  0.97802586006E+02  0.81656368050E+01 -0.12501261385E+04  0.12539726415E+04  0.00000000000E+00 0. -1.
<scales pt_clust_3="32.93820" pt_clust_4="36.66495" pt_clust_5="89.25759" pt_clust_6="14000.00000"></scales>
<clustering>
<clus scale="   36.665">  2  4  1 -1</clus>
<clus scale="   32.938">  2  3  1 -1</clus>
<clus scale="   89.258">  1  5  2 -1</clus>
<clus scale="   89.258">  1  3  2 -1</clus>
</clustering>
</event>
<event>
 6    0  0.3643696E+002  0.1048681E+03  0.7546771E-02  0.1270380E+00
         21   -1    0    0  504  502  0.00000000000E+00  0.00000000000E+00  0.11659453195E+03  0.11659453195E+03  0.00000000000E+00 0.  1.
          1   -1    0    0  505    0 -0.00000000000E+00 -0.00000000000E+00 -0.49556801668E+03  0.49556801668E+03  0.00000000000E+00 0. -1.
         21    1    1    2  503  502  0.27520601572E+02  0.61949897957E+02  0.63859967028E+02  0.93130385786E+02  0.00000000000E+00 0.  1.
         21    1    1    2  504  501  0.84287558539E+02 -0.47625188715E+02 -0.19251694647E+03  0.21548857464E+03  0.00000000000E+00 0.  1.
         21    1    1    2  505  503 -0.10211138899E+03  0.44479775794E+02 -0.14949455407E+03  0.18642373216E+03  0.00000000000E+00 0. -1.
          1    1    1    2  501    0 -0.96967711211E+01 -0.58804485037E+02 -0.10082195122E+03  0.11711985604E+03  0.00000000000E+00 0. -1.
<scales pt_clust_3="65.60672" pt_clust_4="14000.00000" pt_clust_5="104.86813" pt_clust_6="59.59861"></scales>
<clustering>
<clus scale="   59.599">  2  6  1 -1</clus>
<clus scale="   65.607">  1  3  2 -1</clus>
<clus scale="  104.868">  1  5  2 -1</clus>
<clus scale="   65.607">  1  3  2 -1</clus>
</clustering>
</event>
<event>
 6    0  0.1297587E+003  0.1128822E+03  0.7546771E-02  0.1255324E+00
          2   -1    0    0  503    0 -0.00000000000E+00  0.00000000000E+00  0.10452365602E+04  0.10452365602E+04  0.00000000000E+00 0.  1.
         21   -1    0    0  504  502  0.00000000000E+00 -0.00000000000E+00 -0.21187912393E+04  0.21187912393E+04  0.00000000000E+00 0.  1.
         21    1    1    2  503  502  0.30349954575E+02  0.79353131386E+01 -0.10201379723E+02  0.32987226097E+02  0.00000000000E+00 0. -1.
         21    1    1    2  504  505  0.43352693808E+00  0.49876103054E+02 -0.20687140351E+04  0.20693152424E+04  0.00000000000E+00 0.  1.
         21    1    1    2  505  501 -0.10938389408E+03 -0.71899804075E+02  0.13620093519E+03  0.18890503661E+03  0.00000000000E+00 0.  1.
          2    1    1    2  501    0  0.78600412571E+02  0.14088387883E+02  0.86915980051E+03  0.87282029442E+03  0.00000000000E+00 0.  1.
<scales pt_clust_3="31.37019" pt_clust_4="49.88037" pt_clust_5="14000.00000" pt_clust_6="112.88217"></scales>
<clustering>
<clus scale="   31.370">  1  3  2 -1</clus>
<clus scale="   49.880">  2  4  1 -1</clus>
<clus scale="  112.882">  1  6  2 -1</clus>
<clus scale="   49.880">  2  3  1 -1</clus>
</clustering>
</event>
<event>
 6    0  0.3643696E+002  0.1382452E+03  0.7546771E-02  0.1215710E+00
         21   -1    0    0  505  502  0.00000000000E+00  0.00000000000E+00  0.10734565117E+03  0.10734565117E+03  0.00000000000E+00 0.  1.
         -2   -1    0    0    0  501 -0.00000000000E+00 -0.00000000000E+00 -0.15693661389E+04  0.15693661389E+04  0.00000000000E+00 0.  1.
         21    1    1    2  503  502  0.26930401273E+02  0.24275793996E+02  0.70210205128E+02  0.79019197610E+02  0.00000000000E+00 0.  1.
         21    1    1    2  504  501 -0.33514358117E+02  0.15183361362E+03 -0.44605161067E+03  0.47237558977E+03  0.00000000000E+00 0.  1.
         21    1    1    2  505  504 -0.10438584568E+03 -0.11837960459E+03 -0.44784871073E+03  0.47484587316E+03  0.00000000000E+00 0. -1.
         -2    1    1    2    0  503  0.11096980252E+03 -0.57729803034E+02 -0.63833037146E+03  0.65047112953E+03  0.00000000000E+00 0.  1.
<scales pt_clust_3="36.25687" pt_clust_4="138.24525" pt_clust_5="14000.00000" pt_clust_6="127.59668"></scales>
<clustering>
<clus scale="   36.257">  1  3  2 -1</clus>
<clus scale="  127.597">  2  6  1 -1</clus>
<clus scale="  138.245">  2  4  1 -1</clus>
<clus scale="   36.257">  1  3  2 -1</clus>
</clustering>
</event>
<event>
 6    0  0.3643696E+002  0.1090394E+03  0.7546771E-02  0.1262359E+00
         -2   -1    0    0    0  501 -0.00000000000E+00  0.00000000000E+00  0.57029723312E+03  0.57029723312E+03  0.00000000000E+00 0.  1.
         21   -1    0    0  505  502  0.00000000000E+00 -0.00000000000E+00 -0.14933652941E+03  0.14933652941E+03  0.00000000000E+00 0.  1.
         21    1    1    2  503  502  0.19623041389E+02  0.63120122315E+02 -0.59180062613E+02  0.88721437124E+02  0.00000000000E+00 0. -1.
         21    1    1    2  504  501  0.96372492634E+02  0.32181375602E+02  0.37478005012E+03  0.38830836231E+03  0.00000000000E+00 0.  1.
         21    1    1    2  505  504  0.22555107660E+02  0.25963156216E+02  0.15533357565E+02  0.37737296664E+02  0.00000000000E+00 0.  1.
         -2    1    1    2    0  503 -0.13855064168E+03 -0.12126465413E+03  0.89827358641E+02  0.20486666643E+03  0.00000000000E+00 0.  1.
<scales pt_clust_3="83.27470" pt_clust_4="109.03944" pt_clust_5="34.39213" pt_clust_6="14000.00000"></scales>
<clustering>
<clus scale="   34.392">  2  5  1 -1</clus>
<clus scale="   83.275">  2  3  1 -1</clus>
<clus scale="  109.039">  1  4  2 -1</clus>
<clus scale="   34.392">  2  3  1 -1</clus>
</clustering>
</event>
<event>
 6    0  0.3643696E+002  0.1025083E+03  0.7546771E-02  0.1275108E+00
         21   -1    0    0  504  502  0.00000000000E+00  0.00000000000E+00  0.25202319775E+03  0.25202319775E+03  0.00000000000E+00 0.  1.
          2   -1    0    0  503    0 -0.00000000000E+00 -0.00000000000E+00 -0.34326146482E+04  0.34326146482E+04  0.00000000000E+00 0. -1.
         21    1    1    2  503  502  0.19888971854E+02 -0.25904133560E+02 -0.18452447460E+03  0.18739230791E+03  0.00000000000E+00 0.  1.
         21    1    1    2  504  505 -0.31245700899E+02 -0.93757105371E+02  0.23282906238E+03  0.25293489463E+03  0.00000000000E+00 0.  1.
         21    1    1    2  505  501 -0.71405287025E+02  0.12467987458E+03 -0.72813355129E+03  0.74217400565E+03  0.00000000000E+00 0.  1.
          2    1    1    2  501    0  0.82762016070E+02 -0.50186356472E+01 -0.25007624869E+04  0.25021366377E+04  0.00000000000E+00 0. -1.
<scales pt_clust_3="32.65877" pt_clust_4="98.88322" pt_clust_5="102.50830" pt_clust_6="14000.00000"></scales>
<clustering>
<clus scale="   32.659">  2  3  1 -1</clus>
<clus scale="   98.883">  1  4  2 -1</clus>
<clus scale="  102.508">  1  5  2 -1</clus>
<clus scale="   98.883">  1  3  2 -1</clus>
</clustering>
</event>
<event>
 6    0  0.3643696E+002  0.1420567E+03  0.7546771E-02  0.1210588E+00
         21   -1    0    0  504  502  0.00000000000E+00  0.00000000000E+00  0.65664760444E+02  0.65664760444E+02  0.00000000000E+00 0.  1.
          1   -1    0    0  503    0 -0.00000000000E+00 -0.00000000000E+00 -0.89666283124E+03  0.89666283124E+03  0.00000000000E+00 0. -1.
         21    1    1    2  503  505  0.24187612941E+02  0.23256744792E+02 -0.10817842647E+03  0.11326291870E+03  0.00000000000E+00 0.  1.
         21    1    1    2  504  501  0.18261633122E+02 -0.32823910385E+02  0.18809992326E+02  0.42008477104E+02  0.00000000000E+00 0.  1.
         21    1    1    2  505  502 -0.13275155236E+03  0.10251174550E+03 -0.26919848139E+03  0.31717417140E+03  0.00000000000E+00 0.  1.
          1    1    1    2  501    0  0.90302306295E+02 -0.92944579902E+02 -0.47243115526E+03  0.48988202449E+03  0.00000000000E+00 0. -1.
<scales pt_clust_3="33.55468" pt_clust_4="37.43857" pt_clust_5="142.05675" pt_clust_6="14000.00000"></scales>
<clustering>
<clus scale="   33.555">  2  3  1 -1</clus>
<clus scale="   37.439">  1  4  2 -1</clus>
<clus scale="  142.057">  1  5  2 -1</clus>
<clus scale="   37.439">  1  3  2 -1</clus>
</clustering>
</event>
<event>
 6    0  0.3643696E+002  0.1291949E+03  0.7546771E-02  0.1228655E+00
          2   -1    0    0  504    0 -0.00000000000E+00  0.00000000000E+00  0.27653650077E+04  0.27653650077E+04  0.00000000000E+00 0. -1.
         21   -1    0    0  505  502  0.00000000000E+00 -0.00000000000E+00 -0.12979811032E+03  0.12979811032E+03  0.00000000000E+00 0. -1.
         21    1    1    2  503  501 -0.61563817043E+02 -0.36150129079E+02  0.55485041563E+03  0.55942463222E+03  0.00000000000E+00 0. -1.
         21    1    1    2  504  502 -0.66080114013E+02  0.32627839224E+02  0.14855625813E+04  0.14873894380E+04  0.00000000000E+00 0. -1.
         21    1    1    2  505  503  0.12312129759E+03 -0.43169475514E+02 -0.91968866177E+02  0.15962684574E+03  0.00000000000E+00 0. -1.
          2    1    1    2  501    0  0.45226334704E+01  0.46691765369E+02  0.68712276670E+03  0.68872220211E+03  0.00000000000E+00 0. -1.
<scales pt_clust_3="64.81143" pt_clust_4="129.19492" pt_clust_5="14000.00000" pt_clust_6="46.91029"></scales>
<clustering>
<clus scale="   46.910">  1  6  2 -1</clus>
<clus scale="   64.811">  1  3  2 -1</clus>
<clus scale="  129.195">  1  4  2 -1</clus>
<clus scale="  129.195">  2  3  1 -1</clus>
</clustering>
</event>
<event>
 6    0  0.3643696E+002  0.9878604E+02  0.7546771E-02  0.1282870E+00
          2   -1    0    0  504    0 -0.00000000000E+00  0.00000000000E+00  0.63543996953E+03  0.63543996953E+03  0.00000000000E+00 0. -1.
         21   -1    0    0  501  502  0.00000000000E+00 -0.00000000000E+00 -0.78845565081E+03  0.78845565081E+03  0.00000000000E+00 0.  1.
         21    1    1    2  503  502 -0.46718825462E+02 -0.86701516594E+02 -0.74030569932E+03  0.74682817976E+03  0.00000000000E+00 0.  1.
         21    1    1    2  504  505  0.41362888102E+02 -0.66639982986E+01  0.10541231935E+03  0.11343303953E+03  0.00000000000E+00 0.  1.
         21    1    1    2  505  503 -0.27217602182E+02 -0.52506030786E+02  0.33491047238E-01  0.59141206101E+02  0.00000000000E+00 0.  1.
          2    1    1    2  501    0  0.32573539543E+02  0.14587154568E+03  0.48184420764E+03  0.50449319496E+03  0.00000000000E+00 0. -1.
<scales pt_clust_3="98.78604" pt_clust_4="41.89627" pt_clust_5="58.44612" pt_clust_6="14000.00000"></scales>
<clustering>
<clus scale="   41.896">  1  4  2 -1</clus>
<clus scale="   58.446">  1  5  2 -1</clus>
<clus scale="   98.786">  2  3  1 -1</clus>
<clus scale="   98.786">  2  3  1 -1</clus>
</clustering>
</event>
<event>
 6    0  0.3643696E+002  0.8925288E+02  0.7546771E-02  0.1304671E+00
          3   -1    0    0  505    0 -0.00000000000E+00  0.00000000000E+00  0.22492096413E+04  0.22492096413E+04  0.00000000000E+00 0. -1.
         21   -1    0    0  503  502  0.00000000000E+00 -0.00000000000E+00 -0.24582350208E+02  0.24582350208E+02  0.00000000000E+00 0.  1.
         21    1    1    2  503  501 -0.23211685892E+02  0.86754153624E+02  0.93180991082E+02  0.12941314706E+03  0.00000000000E+00 0.  1.
         21    1    1    2  504  502  0.56328191239E+02  0.42761888944E+02  0.36589700121E+03  0.37266883391E+03  0.00000000000E+00 0.  1.
         21    1    1    2  505  504 -0.14524124069E+02 -0.40515582559E+02  0.27089681615E+03  0.27429463649E+03  0.00000000000E+00 0. -1.
          3    1    1    2  501    0 -0.18592381278E+02 -0.89000460009E+02  0.14946524827E+04  0.14974153741E+04  0.00000000000E+00 0. -1.
<scales pt_clust_3="89.25288" pt_clust_4="64.13307" pt_clust_5="43.04024" pt_clust_6="14000.00000"></scales>
<clustering>
<clus scale="   43.040">  1  5  2 -1</clus>
<clus scale="   64.133">  1  4  2 -1</clus>
<clus scale="   89.253">  2  3  1 -1</clus>
<clus scale="   89.253">  2  3  1 -1</clus>
</clustering>
</event>
<event>
 6    0  0.3643696E+002  0.1019945E+03  0.7546771E-02  0.1276157E+00
         -2   -1    0    0    0  501 -0.00000000000E+00  0.00000000000E+00  0.23773254789E+03  0.23773254789E+03  0.00000000000E+00 0.  1.
         21   -1    0    0  503  502  0.00000000000E+00 -0.00000000000E+00 -0.60752307027E+03  0.60752307027E+03  0.00000000000E+00 0. -1.
         21    1    1    2  503  504  0.14216878180E+02  0.61221882561E+02 -0.48031418303E+03  0.48440886960E+03  0.00000000000E+00 0. -1.
         21    1    1    2  504  505 -0.63903051734E+02  0.50044174888E+02 -0.66025258363E+02  0.10462960481E+03  0.00000000000E+00 0.  1.
         21    1    1    2  505  501  0.37714217623E+02 -0.21001222627E+02 -0.13709673618E+02  0.45292038080E+02  0.00000000000E+00 0.  1.
         -2    1    1    2    0  502  0.11971955930E+02 -0.90264834822E+02  0.19025859263E+03  0.21092510567E+03  0.00000000000E+00 0.  1.
<scales pt_clust_3="62.74208" pt_clust_4="14000.00000" pt_clust_5="43.16727" pt_clust_6="101.99448"></scales>
<clustering>
<clus scale="   43.167">  1  5  2 -1</clus>
<clus scale="   62.742">  2  3  1 -1</clus>
<clus scale="  101.994">  1  6  2 -1</clus>
<clus scale="   62.742">  2  3  1 -1</clus>
</clustering>
</event>
<event>
 6    0  0.3643696E+002  0.1253841E+03  0.7546771E-02  0.1234470E+00
         21   -1    0    0  505  502  0.00000000000E+00  0.00000000000E+00  0.64789158260E+03  0.64789158260E+03  0.00000000000E+00 0. -1.
          1   -1    0    0  504    0 -0.00000000000E+00 -0.00000000000E+00 -0.93902814970E+03  0.93902814970E+03  0.00000000000E+00 0. -1.
         21    1    1    2  503  502  0.23928888612E+02  0.28330854623E+02  0.56232139613E+03  0.56354288353E+03  0.00000000000E+00 0. -1.
         21    1    1    2  504  503 -0.75253074097E+02 -0.12618046445E+02 -0.25910101529E+03  0.27010289962E+03  0.00000000000E+00 0.  1.
         21    1    1    2  505  501  0.83111619552E+02  0.52781971347E+02  0.45864937689E+02  0.10861431910E+03  0.00000000000E+00 0.  1.
          1    1    1    2  501    0 -0.31787434066E+02 -0.68494779526E+02 -0.64022188563E+03  0.64465963005E+03  0.00000000000E+00 0. -1.
<scales pt_clust_3="37.08408" pt_clust_4="74.48844" pt_clust_5="14000.00000" pt_clust_6="125.38412"></scales>
<clustering>
<clus scale="   37.084">  1  3  2 -1</clus>
<clus scale="   74.488">  2  4  1 -1</clus>
<clus scale="  125.384">  2  6  1 -1</clus>
<clus scale="   37.084">  1  3  2 -1</clus>
</clustering>
</event>
<event>
 6    0  0.3643696E+002  0.1013939E+03  0.7546771E-02  0.1277392E+00
         21   -1    0    0  505  502  0.00000000000E+00  0.00000000000E+00  0.19121016823E+02  0.19121016823E+02  0.00000000000E+00 0. -1.
          1   -1    0    0  504    0 -0.00000000000E+00 -0.00000000000E+00 -0.26245049743E+04  0.26245049743E+04  0.00000000000E+00 0. -1.
         21    1    1    2  503  502  0.54634329463E+02 -0.33402630248E+02 -0.68106729694E+02  0.93483540225E+02  0.00000000000E+00 0. -1.
         21    1    1    2  504  503  0.62504658678E+02 -0.52961255979E+02 -0.59997203584E+03  0.60553956995E+03  0.00000000000E+00 0.  1.
         21    1    1    2  505  501 -0.12594026378E+02  0.35547206320E+02 -0.20769689863E+03  0.21109290627E+03  0.00000000000E+00 0.  1.
          1    1    1    2  501    0 -0.10454496176E+03  0.50816679908E+02 -0.17296082933E+04  0.17335099747E+04  0.00000000000E+00 0. -1.
<scales pt_clust_3="46.07962" pt_clust_4="101.39393" pt_clust_5="37.71224" pt_clust_6="14000.00000"></scales>
<clustering>
<clus scale="   37.712">  1  5  2 -1</clus>
<clus scale="   46.080">  1  3  2 -1</clus>
<clus scale="  101.394">  1  4  2 -1</clus>
<clus scale="   37.712">  1  3  2 -1</clus>
</clustering>
</event>
<event>
 6    0  0.3643696E+002  0.8814799E+02  0.7546771E-02  0.1307400E+00
         21   -1    0    0  504  502  0.00000000000E+00  0.00000000000E+00  0.16346398309E+04  0.16346398309E+04  0.00000000000E+00 0.  1.
         -1   -1    0    0    0  501 -0.00000000000E+00 -0.00000000000E+00 -0.58724762470E+02  0.58724762470E+02  0.00000000000E+00 0. -1.
         21    1    1    2  503  501  0.35762254186E+02  0.72482995642E+01  0.46130014191E+01  0.36779837590E+02  0.00000000000E+00 0. -1.
         21    1    1    2  504  505 -0.24125365318E+02  0.65050696799E+02  0.12860995324E+04  0.12879695779E+04  0.00000000000E+00 0.  1.
         21    1    1    2  505  503 -0.10221061203E+03  0.25594004381E+01  0.71583080017E+02  0.12481064492E+03  0.00000000000E+00 0.  1.
         -1    1    1    2    0  502  0.90573723158E+02 -0.74858396801E+02  0.21361945456E+03  0.24380453290E+03  0.00000000000E+00 0. -1.
<scales pt_clust_3="36.48940" pt_clust_4="69.26115" pt_clust_5="88.14799" pt_clust_6="14000.00000"></scales>
<clustering>
<clus scale="   36.489">  2  3  1 -1</clus>
<clus scale="   69.261">  1  4  2 -1</clus>
<clus scale="   88.148">  2  5  1 -1</clus>
<clus scale="   69.261">  1  3  2 -1</clus>
</clustering>
</event>
<event>
 6    0  0.3643696E+002  0.1908457E+03  0.7546771E-02  0.1157701E+00
          1   -1    0    0  504    0 -0.00000000000E+00  0.00000000000E+00  0.99200247721E+03  0.99200247721E+03  0.00000000000E+00 0. -1.
         21   -1    0    0  503  502  0.00000000000E+00 -0.00000000000E+00 -0.96782764364E+02  0.96782764364E+02  0.00000000000E+00 0. -1.
         21    1    1    2  503  501 -0.80429795221E+02 -0.13545119261E+02  0.29770276903E+03  0.30867355070E+03  0.00000000000E+00 0. -1.
         21    1    1    2  504  505  0.14026958091E+03 -0.86081677945E+02  0.36940443304E+03  0.40440727708E+03  0.00000000000E+00 0. -1.
         21    1    1    2  505  502  0.34435820657E+02  0.33658608114E+02 -0.53207925070E+02  0.71762183180E+02  0.00000000000E+00 0. -1.
          1    1    1    2  501    0 -0.94275606346E+02  0.65968189092E+02  0.28132043585E+03  0.30394223061E+03  0.00000000000E+00 0. -1.
<scales pt_clust_3="67.08593" pt_clust_4="172.22666" pt_clust_5="48.15317" pt_clust_6="67.08593"></scales>
<clustering>
<clus scale="   48.153">  2  5  1 -1</clus>
<clus scale="   67.086">  3  6 -1 -1</clus>
<clus scale="  172.227">  2  4  1 -1</clus>
<clus scale="   48.153">  2  3  1 -1</clus>
</clustering>
</event>
<event>
 6    0  0.3643696E+002  0.9856484E+02  0.7546771E-02  0.1283343E+00
          2   -1    0    0  503    0 -0.00000000000E+00  0.00000000000E+00  0.16460263794E+04  0.16460263794E+04  0.00000000000E+00 0. -1.
         21   -1    0    0  505  502  0.00000000000E+00 -0.00000000000E+00 -0.19720429438E+02  0.19720429438E+02  0.00000000000E+00 0. -1.
         21    1    1    2  503  504  0.25420520245E+02 -0.23192004470E+02  0.25668663318E+03  0.25898281714E+03  0.00000000000E+00 0. -1.
         21    1    1    2  504  502  0.11421626890E+03  0.50891479418E+02  0.66761642218E+03  0.67922528363E+03  0.00000000000E+00 0. -1.
         21    1    1    2  505  501 -0.74732642513E+02 -0.52286461183E+02  0.18894010183E+03  0.20980277396E+03  0.00000000000E+00 0. -1.
          2    1    1    2  501    0 -0.64904146630E+02  0.24586986235E+02  0.51306279273E+03  0.51773593407E+03  0.00000000000E+00 0. -1.
<scales pt_clust_3="34.41035" pt_clust_4="14000.00000" pt_clust_5="98.56484" pt_clust_6="57.72124"></scales>
<clustering>
<clus scale="   34.410">  1  3  2 -1</clus>
<clus scale="   57.721">  1  6  2 -1</clus>
<clus scale="   98.565">  2  5  1 -1</clus>
<clus scale="   98.565">  2  3  1 -1</clus>
</clustering>
</event>
<event>
 6    0  0.3643696E+002  0.1075572E+03  0.7546771E-02  0.1265162E+00
          1   -1    0    0  505    0 -0.00000000000E+00  0.00000000000E+00  0.29712157610E+03  0.29712157610E+03  0.00000000000E+00 0.  1.
         21   -1    0    0  501  502  0.00000000000E+00 -0.00000000000E+00 -0.45653140375E+03  0.45653140375E+03  0.00000000000E+00 0.  1.
         21    1    1    2  503  502 -0.17925951236E+02  0.30141392317E+02 -0.24465394887E+03  0.24715460335E+03  0.00000000000E+00 0.  1.
         21    1    1    2  504  503 -0.50927557456E+02  0.50901102078E+02 -0.68439938569E+02  0.99340643709E+02  0.00000000000E+00 0.  1.
         21    1    1    2  505  504  0.32916290801E+02  0.96381877132E+02  0.19632994841E+03  0.22117503720E+03  0.00000000000E+00 0.  1.
          1    1    1    2  501    0  0.35937217891E+02 -0.17742437153E+03 -0.42645888613E+02  0.18598269559E+03  0.00000000000E+00 0.  1.
<scales pt_clust_3="35.06912" pt_clust_4="85.60945" pt_clust_5="107.55719" pt_clust_6="14000.00000"></scales>
<clustering>
<clus scale="   35.069">  2  3  1 -1</clus>
<clus scale="   85.609">  2  4  1 -1</clus>
<clus scale="  107.557">  1  5  2 -1</clus>
<clus scale="   35.069">  2  3  1 -1</clus>
</clustering>
</event>
<event>
 6    0  0.3643696E+002  0.1303911E+03  0.7546771E-02  0.1226877E+00
          1   -1    0    0  505    0 -0.00000000000E+00  0.00000000000E+00  0.42817820619E+03  0.42817820619E+03  0.00000000000E+00 0. -1.
         21   -1    0    0  501  502  0.00000000000E+00 -0.00000000000E+00 -0.33042752390E+03  0.33042752390E+03  0.00000000000E+00 0. -1.
         21    1    1    2  503  502  0.59010328988E+02 -0.12324789173E+02 -0.78938679505E+02  0.99324893544E+02  0.00000000000E+00 0. -1.
         21    1    1    2  504  503  0.44372579358E+02  0.97864482041E+02 -0.20667689824E+03  0.23294145811E+03  0.00000000000E+00 0. -1.
         21    1    1    2  505  504  0.20011297120E+02 -0.34679905618E+02  0.34634334153E+02  0.52940390708E+02  0.00000000000E+00 0. -1.
          1    1    1    2  501    0 -0.12339420547E+03 -0.50859787250E+02  0.34873192588E+03  0.37339898772E+03  0.00000000000E+00 0. -1.
<scales pt_clust_3="60.99625" pt_clust_4="14000.00000" pt_clust_5="40.03933" pt_clust_6="130.39112"></scales>
<clustering>
<clus scale="   40.039">  1  5  2 -1</clus>
<clus scale="   60.996">  2  3  1 -1</clus>
<clus scale="  130.391">  1  6  2 -1</clus>
<clus scale="   60.996">  2  3  1 -1</clus>
</clustering>
</event>
<event>
 6    0  0.3643696E+002  0.1189280E+03  0.7546771E-02  0.1244876E+00
         21   -1    0    0  501  502  0.00000000000E+00  0.00000000000E+00  0.11173642973E+03  0.11173642973E+03  0.00000000000E+00 0. -1.
          2   -1    0    0  503    0 -0.00000000000E+00 -0.00000000000E+00 -0.21517934353E+03  0.21517934353E+03  0.00000000000E+00 0. -1.
         21    1    1    2  503  504  0.11278829225E+03 -0.64278576842E+02 -0.88530547713E+02  0.15713240337E+03  0.00000000000E+00 0. -1.
         21    1    1    2  504  505 -0.32816768050E+02  0.25487121692E+02 -0.19155866049E+02  0.45754571809E+02  0.00000000000E+00 0. -1.
         21    1    1    2  505  502 -0.17356905869E+02  0.56147653993E+02  0.56311471557E+01  0.59038386229E+02  0.00000000000E+00 0. -1.
          2    1    1    2  501    0 -0.62614618336E+02 -0.17356198843E+02 -0.13876471879E+01  0.64990411850E+02  0.00000000000E+00 0. -1.
<scales pt_clust_3="111.92347" pt_clust_4="33.81235" pt_clust_5="33.81235" pt_clust_6="64.97560"></scales>
<clustering>
<clus scale="   33.812">  4  5 -1 -1</clus>
<clus scale="   64.976">  1  6  2 -1</clus>
<clus scale="  111.923">  2  3  1 -1</clus>
<clus scale="   64.976">  1  3  2 -1</clus>
</clustering>
</event>
<event>
 6    0  0.3643696E+002  0.8610545E+02  0.7546771E-02  0.1312567E+00
         -2   -1    0    0    0  501 -0.00000000000E+00  0.00000000000E+00  0.33058695695E+03  0.33058695695E+03  0.00000000000E+00 0. -1.
         21   -1    0    0  505  502  0.00000000000E+00 -0.00000000000E+00 -0.27032793921E+03  0.27032793921E+03  0.00000000000E+00 0. -1.
         21    1    1    2  503  501 -0.87604925505E+02 -0.55942506674E+00  0.20693614965E+03  0.22471650131E+03  0.00000000000E+00 0. -1.
         21    1    1    2  504  502  0.17224001596E+02 -0.50545256908E+02  0.91418562585E+01  0.54176219531E+02  0.00000000000E+00 0. -1.
         21    1    1    2  505  503  0.34749411302E+02  0.80878224722E+02 -0.22334828682E+03  0.24006929426E+03  0.00000000000E+00 0. -1.
         -2    1    1    2    0  504  0.35631512608E+02 -0.29773542747E+02  0.67529298644E+02  0.81952881059E+02  0.00000000000E+00 0. -1.
<scales pt_clust_3="14000.00000" pt_clust_4="58.38521" pt_clust_5="86.10545" pt_clust_6="46.43349"></scales>
<clustering>
<clus scale="   46.433">  1  6  2 -1</clus>
<clus scale="   58.385">  1  4  2 -1</clus>
<clus scale="   86.105">  2  5  1 -1</clus>
<clus scale="   86.105">  2  3  1 -1</clus>
</clustering>
</event>
<event>
 6    0  0.3643696E+002  0.1604846E+03  0.7546771E-02  0.1188151E+00
         21   -1    0    0  504  502  0.00000000000E+00  0.00000000000E+00  0.52119723168E+03  0.52119723168E+03  0.00000000000E+00 0.  1.
         -2   -1    0    0    0  501 -0.00000000000E+00 -0.00000000000E+00 -0.55144986620E+03  0.55144986620E+03  0.00000000000E+00 0. -1.
         21    1    1    2  503  502 -0.15738190814E+03 -0.28264075084E+00 -0.28616142462E+02  0.15996258470E+03  0.00000000000E+00 0. -1.
         21    1    1    2  504  505  0.15689979333E+03 -0.39615834472E+02  0.35719991257E+03  0.39214632094E+03  0.00000000000E+00 0.  1.
         21    1    1    2  505  501  0.70530551982E+02  0.16711808165E+03 -0.64848938460E+02  0.19263539861E+03  0.00000000000E+00 0. -1.
         -2    1    1    2    0  503 -0.70048437169E+02 -0.12721960643E+03 -0.29398746617E+03  0.32790279363E+03  0.00000000000E+00 0. -1.
<scales pt_clust_3="160.48457" pt_clust_4="14000.00000" pt_clust_5="104.38234" pt_clust_6="145.22951"></scales>
<clustering>
<clus scale="  145.230">  2  6  1 -1</clus>
<clus scale="  104.382">  2  5  1 -1</clus>
<clus scale="  160.485">  2  3  1 -1</clus>
<clus scale="  160.485">  1  3  2 -1</clus>
</clustering>
</event>
<event>
 6    0  0.3643696E+002  0.9882527E+02  0.7546771E-02  0.1282786E+00
         21   -1    0    0  504  502  0.00000000000E+00  0.00000000000E+00  0.62083608310E+03  0.62083608310E+03  0.00000000000E+00 0. -1.
          2   -1    0    0  505    0 -0.00000000000E+00 -0.00000000000E+00 -0.59559648615E+03  0.59559648615E+03  0.00000000000E+00 0. -1.
         21    1    1    2  503  501  0.38055643242E+00  0.86681470483E+02 -0.12214182361E+03  0.14977465481E+03  0.00000000000E+00 0.  1.
         21    1    1    2  504  503  0.70340132927E+02 -0.71030646237E+02  0.59102356216E+03  0.59941799942E+03  0.00000000000E+00 0. -1.
         21    1    1    2  505  502  0.87711934853E+00 -0.37045635598E+02 -0.32275326091E+02  0.49141073752E+02  0.00000000000E+00 0.  1.
          2    1    1    2  501    0 -0.71597808708E+02  0.21394811352E+02 -0.41136681551E+03  0.41809884126E+03  0.00000000000E+00 0. -1.
<scales pt_clust_3="14000.00000" pt_clust_4="98.82527" pt_clust_5="37.05602" pt_clust_6="71.22086"></scales>
<clustering>
<clus scale="   37.056">  2  5  1 -1</clus>
<clus scale="   71.221">  2  6  1 -1</clus>
<clus scale="   98.825">  1  4  2 -1</clus>
<clus scale="   98.825">  1  3  2 -1</clus>
</clustering>
</event>
<event>
 6    0  0.3643696E+002  0.1119090E+03  0.7546771E-02  0.1257075E+00
         21   -1    0    0  501  502  0.00000000000E+00  0.00000000000E+00  0.14050899866E+03  0.14050899866E+03  0.00000000000E+00 0.  1.
          2   -1    0    0  503    0 -0.00000000000E+00 -0.00000000000E+00 -0.98887684154E+03  0.98887684154E+03  0.00000000000E+00 0. -1.
         21    1    1    2  503  504  0.31497038512E+02 -0.75545492602E+01 -0.43585784275E+03  0.43705971415E+03  0.00000000000E+00 0. -1.
         21    1    1    2  504  505 -0.16269185221E+02 -0.28980138372E+02 -0.12112046529E+03  0.12559738023E+03  0.00000000000E+00 0. -1.
         21    1    1    2  505  502 -0.97166996886E+02  0.59064746921E+02  0.10894311580E+03  0.15747594132E+03  0.00000000000E+00 0.  1.
          2    1    1    2  501    0  0.81939143595E+02 -0.22530059289E+02 -0.40033265064E+03  0.40925280450E+03  0.00000000000E+00 0. -1.
<scales pt_clust_3="32.39035" pt_clust_4="32.02765" pt_clust_5="111.90898" pt_clust_6="14000.00000"></scales>
<clustering>
<clus scale="   32.390">  2  3  1 -1</clus>
<clus scale="   32.028">  2  4  1 -1</clus>
<clus scale="  111.909">  1  5  2 -1</clus>
<clus scale="  111.909">  1  3  2 -1</clus>
</clustering>
</event>
<event>
 6    0  0.3643696E+002  0.1318572E+03  0.7546771E-02  0.1224726E+00
         21   -1    0    0  501  502  0.00000000000E+00  0.00000000000E+00  0.50802035542E+03  0.50802035542E+03  0.00000000000E+00 0.  1.
          1   -1    0    0  505    0 -0.00000000000E+00 -0.00000000000E+00 -0.18073009080E+03  0.18073009080E+03  0.00000000000E+00 0. -1.
         21    1    1    2  503  502  0.48233500176E+02 -0.12625720065E+03  0.39026551451E+03  0.41300668647E+03  0.00000000000E+00 0.  1.
         21    1    1    2  504  503 -0.72730987990E+02  0.30612550574E+02  0.48397358051E+02  0.92570130890E+02  0.00000000000E+00 0.  1.
         21    1    1    2  505  504  0.41609453341E+02 -0.62748250388E+01 -0.32152535345E+02  0.52957582702E+02  0.00000000000E+00 0. -1.
          1    1    1    2  501    0 -0.17111965527E+02  0.10191947511E+03 -0.79220072600E+02  0.13021604615E+03  0.00000000000E+00 0. -1.
<scales pt_clust_3="131.85719" pt_clust_4="72.41057" pt_clust_5="42.07992" pt_clust_6="14000.00000"></scales>
<clustering>
<clus scale="   42.080">  2  5  1 -1</clus>
<clus scale="   72.411">  2  4  1 -1</clus>
<clus scale="  131.857">  1  3  2 -1</clus>
<clus scale="  131.857">  1  3  2 -1</clus>
</clustering>
</event>
<event>
 6    0  0.3643696E+002  0.1075868E+03  0.7546771E-02  0.1265105E+00
          2   -1    0    0  505    0 -0.00000000000E+00  0.00000000000E+00  0.68548055052E+03  0.68548055052E+03  0.00000000000E+00 0. -1.
         21   -1    0    0  501  502  0.00000000000E+00 -0.00000000000E+00 -0.16227096906E+03  0.16227096906E+03  0.00000000000E+00 0.  1.
         21    1    1    2  503  502 -0.44724802379E+02  0.93629625315E+02 -0.10403028415E+03  0.14693234737E+03  0.00000000000E+00 0.  1.
         21    1    1    2  504  503 -0.78921607540E+02 -0.27924882963E+02  0.22605733640E+03  0.24106086071E+03  0.00000000000E+00 0. -1.
         21    1    1    2  505  504  0.14915853040E+02  0.46030366253E+02  0.19701741288E+03  0.20287222153E+03  0.00000000000E+00 0. -1.
          2    1    1    2  501    0  0.10873055688E+03 -0.11173510861E+03  0.20416511633E+03  0.25688608997E+03  0.00000000000E+00 0. -1.
<scales pt_clust_3="107.58676" pt_clust_4="71.97924" pt_clust_5="48.38675" pt_clust_6="14000.00000"></scales>
<clustering>
<clus scale="   48.387">  1  5  2 -1</clus>
<clus scale="   71.979">  1  4  2 -1</clus>
<clus scale="  107.587">  2  3  1 -1</clus>
<clus scale="  107.587">  2  3  1 -1</clus>
</clustering>
</event>
<event>
 6    0  0.3643696E+002  0.6211100E+02  0.7546771E-02  0.1389180E+00
         -2   -1    0    0    0  501 -0.00000000000E+00  0.00000000000E+00  0.76007079371E+03  0.76007079371E+03  0.00000000000E+00 0.  1.
         21   -1    0    0  504  502  0.00000000000E+00 -0.00000000000E+00 -0.49035318764E+03  0.49035318764E+03  0.00000000000E+00 0.  1.
         21    1    1    2  503  505 -0.79898710994E+02  0.31644139215E+02  0.61333108654E+02  0.10557890785E+03  0.00000000000E+00 0.  1.
         21    1    1    2  504  501  0.67342470356E+02 -0.12335630461E+02  0.55843978985E+03  0.56262080923E+03  0.00000000000E+00 0.  1.
         21    1    1    2  505  502  0.53544413109E+02 -0.30345635981E+02 -0.46014072251E+03  0.46423845846E+03  0.00000000000E+00 0.  1.
         -2    1    1    2    0  503 -0.40988172471E+02  0.11037127226E+02  0.11008543007E+03  0.11798580582E+03  0.00000000000E+00 0.  1.
<scales pt_clust_3="62.11100" pt_clust_4="31.89878" pt_clust_5="14000.00000" pt_clust_6="42.44819"></scales>
<clustering>
<clus scale="   42.448">  1  6  2 -1</clus>
<clus scale="   31.899">  1  4  2 -1</clus>
<clus scale="   62.111">  1  3  2 -1</clus>
<clus scale="   62.111">  2  3  1 -1</clus>
</clustering>
</event>
<event>
 6    0  0.3643696E+002  0.8340384E+02  0.7546771E-02  0.1319660E+00
         21   -1    0    0  505  502  0.00000000000E+00  0.00000000000E+00  0.33602083997E+02  0.33602083997E+02  0.00000000000E+00 0. -1.
          2   -1    0    0  503    0 -0.00000000000E+00 -0.00000000000E+00 -0.19509538412E+04  0.19509538412E+04  0.00000000000E+00 0. -1.
         21    1    1    2  503  502 -0.69279872339E+02  0.33768127487E+02 -0.49181236254E+03  0.49781461117E+03  0.00000000000E+00 0. -1.
         21    1    1    2  504  501  0.30445999665E+02  0.55472783953E+02 -0.22972263566E+03  0.23827857224E+03  0.00000000000E+00 0. -1.
         21    1    1    2  505  504 -0.22382050233E+02 -0.25194179209E+02  0.13208087430E+02  0.36196082829E+02  0.00000000000E+00 0. -1.
          2    1    1    2  501    0  0.61215922907E+02 -0.64046732231E+02 -0.12090248464E+04  0.12122666589E+04  0.00000000000E+00 0. -1.
<scales pt_clust_3="14000.00000" pt_clust_4="47.62272" pt_clust_5="33.70019" pt_clust_6="83.40384"></scales>
<clustering>
<clus scale="   33.700">  1  5  2 -1</clus>
<clus scale="   47.623">  1  4  2 -1</clus>
<clus scale="   83.404">  2  6  1 -1</clus>
<clus scale="   33.700">  1  3  2 -1</clus>
</clustering>
</event>
<event>
 6    0  0.3643696E+002  0.1136756E+03  0.7546771E-02  0.1253911E+00
          1   -1    0    0  504    0 -0.00000000000E+00  0.00000000000E+00  0.56082585828E+03  0.56082585828E+03  0.00000000000E+00 0.  1.
         21   -1    0    0  503  502  0.00000000000E+00 -0.00000000000E+00 -0.10456972052E+03  0.10456972052E+03  0.00000000000E+00 0.  1.
         21    1    1    2  503  501  0.58645938490E+02 -0.10861578540E+03 -0.19783879669E+02  0.12501254671E+03  0.00000000000E+00 0.  1.
         21    1    1    2  504  505 -0.39551427822E+02 -0.24520217507E+02  0.27519664247E+03  0.27910347281E+03  0.00000000000E+00 0. -1.
         21    1    1    2  505  502  0.25601951527E+02  0.30625623673E+02  0.11781711804E+02  0.41619676601E+02  0.00000000000E+00 0.  1.
          1    1    1    2  501    0 -0.44696462195E+02  0.10251037923E+03  0.18906166316E+03  0.21965988269E+03  0.00000000000E+00 0.  1.
<scales pt_clust_3="113.67564" pt_clust_4="45.71062" pt_clust_5="39.91727" pt_clust_6="14000.00000"></scales>
<clustering>
<clus scale="   39.917">  2  5  1 -1</clus>
<clus scale="   45.711">  1  4  2 -1</clus>
<clus scale="  113.676">  2  3  1 -1</clus>
<clus scale="   39.917">  2  3  1 -1</clus>
</clustering>
</event>
<event>
 6    0  0.3643696E+002  0.1356611E+03  0.7546771E-02  0.1219289E+00
         -1   -1    0    0    0  501 -0.00000000000E+00  0.00000000000E+00  0.19383877691E+02  0.19383877691E+02  0.00000000000E+00 0. -1.
         21   -1    0    0  503  502  0.00000000000E+00 -0.00000000000E+00 -0.32644330963E+04  0.32644330963E+04  0.00000000000E+00 0. -1.
         21    1    1    2  503  501 -0.13290928921E+01  0.38054964208E+02 -0.23534331457E+03  0.23840390622E+03  0.00000000000E+00 0.  1.
         21    1    1    2  504  502  0.10120263243E+03  0.80163547755E+02 -0.26395284266E+04  0.26426839542E+04  0.00000000000E+00 0. -1.
         21    1    1    2  505  504 -0.39392325894E+02 -0.71113892872E+02 -0.17211507332E+03  0.19034846877E+03  0.00000000000E+00 0. -1.
         -1    1    1    2    0  505 -0.60481213644E+02 -0.47104619090E+02 -0.19806240421E+03  0.21238064484E+03  0.00000000000E+00 0. -1.
<scales pt_clust_3="38.07817" pt_clust_4="131.12932" pt_clust_5="33.76540" pt_clust_6="33.76540"></scales>
<clustering>
<clus scale="   33.765">  5  6 -1 -1</clus>
<clus scale="   38.078">  1  3  2 -1</clus>
<clus scale="  131.129">  2  4  1 -1</clus>
<clus scale="  131.129">  2  3  1 -1</clus>
</clustering>
</event>
<event>
 6    0  0.3643696E+002  0.1536401E+03  0.7546771E-02  0.1196070E+00
          2   -1    0    0  505    0 -0.00000000000E+00  0.00000000000E+00  0.16781760569E+04  0.16781760569E+04  0.00000000000E+00 0. -1.
         21   -1    0    0  504  502  0.00000000000E+00 -0.00000000000E+00 -0.66108587152E+02  0.66108587152E+02  0.00000000000E+00 0. -1.
         21    1    1    2  503  501  0.48436612284E+02  0.90698109391E+01  0.15564009419E+03  0.16325503300E+03  0.00000000000E+00 0. -1.
         21    1    1    2  504  503 -0.12872224926E+03 -0.29895044376E+02  0.36161647427E+02  0.13700655414E+03  0.00000000000E+00 0. -1.
         21    1    1    2  505  502 -0.76748435008E+02 -0.35607843997E+02  0.31210467973E+03  0.32336909552E+03  0.00000000000E+00 0.  1.
          2    1    1    2  501    0  0.15703407198E+03  0.56433077433E+02  0.11081610484E+04  0.11206539614E+04  0.00000000000E+00 0. -1.
<scales pt_clust_3="37.33550" pt_clust_4="137.42320" pt_clust_5="84.60639" pt_clust_6="37.33550"></scales>
<clustering>
<clus scale="   37.335">  3  6 -1 -1</clus>
<clus scale="   84.606">  1  5  2 -1</clus>
<clus scale="  137.423">  2  4  1 -1</clus>
<clus scale="  137.423">  2  3  1 -1</clus>
</clustering>
</event>
<event>
 6    0  0.3643696E+002  0.1400975E+03  0.7546771E-02  0.1213198E+00
         21   -1    0    0  501  502  0.00000000000E+00  0.00000000000E+00  0.20629191289E+03  0.20629191289E+03  0.00000000000E+00 0. -1.
          1   -1    0    0  504    0 -0.00000000000E+00 -0.00000000000E+00 -0.69343321782E+03  0.69343321782E+03  0.00000000000E+00 0. -1.
         21    1    1    2  503  505  0.29201011220E+02  0.17391579747E+02 -0.54032752705E+02  0.63833411841E+02  0.00000000000E+00 0.  1.
         21    1    1    2  504  503  0.78160829709E+02 -0.30258585106E+02 -0.19625150100E+03  0.21339950543E+03  0.00000000000E+00 0. -1.
         21    1    1    2  505  502  0.13114453744E+03 -0.22138384235E+02  0.12839479668E+03  0.18486271007E+03  0.00000000000E+00 0. -1.
          1    1    1    2  501    0 -0.23850637837E+03  0.35005389594E+02 -0.36525184790E+03  0.43762950337E+03  0.00000000000E+00 0. -1.
<scales pt_clust_3="31.99102" pt_clust_4="119.23038" pt_clust_5="14000.00000" pt_clust_6="140.09748"></scales>
<clustering>
<clus scale="   31.991">  3  4 -1 -1</clus>
<clus scale="  119.230">  2  3  1 -1</clus>
<clus scale="  140.097">  2  6  1 -1</clus>
<clus scale="  140.097">  1  3  2 -1</clus>
</clustering>
</event>
<event>
 6    0  0.3643696E+002  0.1235569E+03  0.7546771E-02  0.1237342E+00
          2   -1    0    0  503    0 -0.00000000000E+00  0.00000000000E+00  0.25175161288E+04  0.25175161288E+04  0.00000000000E+00 0.  1.
         21   -1    0    0  501  502  0.00000000000E+00 -0.00000000000E+00 -0.33843142133E+02  0.33843142133E+02  0.00000000000E+00 0. -1.
         21    1    1    2  503  504 -0.47671472465E+02  0.28052995982E+02  0.29478207402E+03  0.29992667610E+03  0.00000000000E+00 0. -1.
         21    1    1    2  504  505 -0.17317377404E+02  0.32971234130E+02  0.87798497600E+02  0.95370697916E+02  0.00000000000E+00 0. -1.
         21    1    1    2  505  502  0.10661308171E+02  0.50936082980E+02  0.75939793967E+00  0.52045410235E+02  0.00000000000E+00 0. -1.
          2    1    1    2  501    0  0.54327541699E+02 -0.11196031309E+03  0.21003330171E+04  0.21040164867E+04  0.00000000000E+00 0.  1.
<scales pt_clust_3="36.18438" pt_clust_4="36.18438" pt_clust_5="52.03987" pt_clust_6="115.41965"></scales>
<clustering>
<clus scale="   36.184">  3  4 -1 -1</clus>
<clus scale="   52.040">  2  5  1 -1</clus>
<clus scale="  115.420">  1  6  2 -1</clus>
<clus scale="   52.040">  2  3  1 -1</clus>
</clustering>
</event>
<event>
 6    0  0.3643696E+002  0.8269371E+02  0.7546771E-02  0.1321576E+00
         21   -1    0    0  505  502  0.00000000000E+00  0.00000000000E+00  0.69749840906E+02  0.69749840906E+02  0.00000000000E+00 0.  1.
         -3   -1    0    0    0  501 -0.00000000000E+00 -0.00000000000E+00 -0.54221915842E+03  0.54221915842E+03  0.00000000000E+00 0.  1.
         21    1    1    2  503  501  0.47986267408E+02 -0.44117796310E+01 -0.19784356295E+03  0.20362765299E+03  0.00000000000E+00 0.  1.
         21    1    1    2  504  502  0.21485323539E+02 -0.35515742431E+02 -0.35166011485E+01  0.41657575201E+02  0.00000000000E+00 0. -1.
         21    1    1    2  505  503 -0.47930995492E+02 -0.50508968114E+02  0.10233241837E+02  0.70379367909E+02  0.00000000000E+00 0.  1.
         -3    1    1    2    0  504 -0.21540595455E+02  0.90436490176E+02 -0.28134239525E+03  0.29630440323E+03  0.00000000000E+00 0.  1.
<scales pt_clust_3="49.63173" pt_clust_4="41.50888" pt_clust_5="14000.00000" pt_clust_6="82.69371"></scales>
<clustering>
<clus scale="   41.509">  1  4  2 -1</clus>
<clus scale="   49.632">  2  3  1 -1</clus>
<clus scale="   82.694">  2  6  1 -1</clus>
<clus scale="   41.509">  1  3  2 -1</clus>
</clustering>
</event>
<event>
 6    0  0.3643696E+002  0.1291571E+03  0.7546771E-02  0.1228712E+00
          2   -1    0    0  505    0 -0.00000000000E+00  0.00000000000E+00  0.20667346769E+04  0.20667346769E+04  0.00000000000E+00 0. -1.
         21   -1    0    0  504  502  0.00000000000E+00 -0.00000000000E+00 -0.86781855325E+02  0.86781855325E+02  0.00000000000E+00 0. -1.
         21    1    1    2  503  502 -0.91268334886E+02 -0.13025627960E+03  0.76040317154E+03  0.77685879709E+03  0.00000000000E+00 0. -1.
         21    1    1    2  504  501  0.56211233966E+02  0.20800639722E+01 -0.63085260605E+02  0.84520882602E+02  0.00000000000E+00 0. -1.
         21    1    1    2  505  503  0.39568781632E+02  0.13803401722E+02  0.33020671176E+03  0.33285536630E+03  0.00000000000E+00 0. -1.
          2    1    1    2  501    0 -0.45116807123E+01  0.11437281390E+03  0.95242819890E+03  0.95928148626E+03  0.00000000000E+00 0. -1.
<scales pt_clust_3="14000.00000" pt_clust_4="56.49715" pt_clust_5="41.90731" pt_clust_6="129.15708"></scales>
<clustering>
<clus scale="   41.907">  1  5  2 -1</clus>
<clus scale="   56.497">  2  4  1 -1</clus>
<clus scale="  129.157">  1  6  2 -1</clus>
<clus scale="   56.497">  2  3  1 -1</clus>
</clustering>
</event>
<event>
 6    0  0.3643696E+002  0.9849583E+02  0.7546771E-02  0.1283491E+00
         21   -1    0    0  504  502  0.00000000000E+00  0.00000000000E+00  0.94854271410E+02  0.94854271410E+02  0.00000000000E+00 0. -1.
         -4   -1    0    0    0  501 -0.00000000000E+00 -0.00000000000E+00 -0.11722120484E+04  0.11722120484E+04  0.00000000000E+00 0. -1.
         21    1    1    2  503  505  0.44808195612E+02  0.10923931492E+03 -0.74368393591E+03  0.75299853841E+03  0.00000000000E+00 0. -1.
         21    1    1    2  504  503  0.36757099889E+02 -0.92911690885E+02  0.32657974638E+02  0.10511997908E+03  0.00000000000E+00 0. -1.
         21    1    1    2  505  501 -0.73894878625E+01 -0.82175763007E+02 -0.16059458687E+03  0.18054938906E+03  0.00000000000E+00 0.  1.
         -4    1    1    2    0  502 -0.74175807638E+02  0.65848138972E+02 -0.20573722885E+03  0.22839841326E+03  0.00000000000E+00 0. -1.
<scales pt_clust_3="61.90795" pt_clust_4="14000.00000" pt_clust_5="82.50734" pt_clust_6="98.49583"></scales>
<clustering>
<clus scale="   82.507">  2  5  1 -1</clus>
<clus scale="   61.908">  2  3  1 -1</clus>
<clus scale="   98.496">  2  6  1 -1</clus>
<clus scale="   98.496">  1  3  2 -1</clus>
</clustering>
</event>
<event>
 6    0  0.3643696E+002  0.8481661E+02  0.7546771E-02  0.1315913E+00
          1   -1    0    0  504    0 -0.00000000000E+00  0.00000000000E+00  0.98903943330E+03  0.98903943330E+03  0.00000000000E+00 0.  1.
         21   -1    0    0  505  502  0.00000000000E+00 -0.00000000000E+00 -0.14425836029E+03  0.14425836029E+03  0.00000000000E+00 0.  1.
         21    1    1    2  503  502  0.86697524387E+02 -0.41744074645E+02  0.88643425354E+01  0.96631284124E+02  0.00000000000E+00 0.  1.
         21    1    1    2  504  503 -0.32608038029E+02 -0.27228884081E+02  0.84445590131E+03  0.84552378176E+03  0.00000000000E+00 0.  1.
         21    1    1    2  505  501 -0.81669948620E+02 -0.30538610091E+02  0.29493094227E+01  0.87242682443E+02  0.00000000000E+00 0.  1.
          1    1    1    2  501    0  0.27580462262E+02  0.99511568817E+02 -0.11488480260E+02  0.10390004526E+03  0.00000000000E+00 0.  1.
<scales pt_clust_3="90.90129" pt_clust_4="42.48172" pt_clust_5="84.81661" pt_clust_6="14000.00000"></scales>
<clustering>
<clus scale="   42.482">  1  4  2 -1</clus>
<clus scale="   90.901">  1  3  2 -1</clus>
<clus scale="   84.817">  2  5  1 -1</clus>
<clus scale="   84.817">  2  3  1 -1</clus>
</clustering>
</event>
<event>
 6    0  0.3643696E+002  0.1233846E+03  0.7546771E-02  0.1237616E+00
         21   -1    0    0  503  502  0.00000000000E+00  0.00000000000E+00  0.49925186094E+03  0.49925186094E+03  0.00000000000E+00 0.  1.
          1   -1    0    0  504    0 -0.00000000000E+00 -0.00000000000E+00 -0.16837737421E+04  0.16837737421E+04  0.00000000000E+00 0. -1.
         21    1    1    2  503  501  0.10428046580E+02 -0.12314471584E+03  0.47868293190E+03  0.49437912020E+03  0.00000000000E+00 0.  1.
         21    1    1    2  504  505  0.53328333133E+02  0.84329749987E+01 -0.11710479649E+03  0.12895177216E+03  0.00000000000E+00 0.  1.
         21    1    1    2  505  502 -0.47873210109E+02  0.28459473870E+02 -0.13727559203E+03  0.14814308646E+03  0.00000000000E+00 0.  1.
          1    1    1    2  501    0 -0.15883169603E+02  0.86252266966E+02 -0.14088244246E+04  0.14115516242E+04  0.00000000000E+00 0. -1.
<scales pt_clust_3="123.38456" pt_clust_4="53.99098" pt_clust_5="51.99203" pt_clust_6="14000.00000"></scales>
<clustering>
<clus scale="   53.991">  2  4  1 -1</clus>
<clus scale="   51.992">  2  5  1 -1</clus>
<clus scale="  123.385">  1  3  2 -1</clus>
<clus scale="  123.385">  1  3  2 -1</clus>
</clustering>
</event>
<event>
 6    0  0.3643696E+002  0.6124676E+02  0.7546771E-02  0.1392673E+00
          2   -1    0    0  503    0 -0.00000000000E+00  0.00000000000E+00  0.16621477507E+03  0.16621477507E+03  0.00000000000E+00 0. -1.
         21   -1    0    0  501  502  0.00000000000E+00 -0.00000000000E+00 -0.98941356234E+03  0.98941356234E+03  0.00000000000E+00 0.  1.
         21    1    1    2  503  505 -0.43529643883E+02 -0.17455911338E+02  0.63837696053E+02  0.79213573171E+02  0.00000000000E+00 0.  1.
         21    1    1    2  504  502 -0.59555976457E+02  0.90916391761E+01 -0.84609970996E+03  0.84824188262E+03  0.00000000000E+00 0.  1.
         21    1    1    2  505  504 -0.35105305953E+02  0.36505659173E+02 -0.67781854523E+02  0.84613388186E+02  0.00000000000E+00 0.  1.
          2    1    1    2  501    0  0.13819092629E+03 -0.28141387012E+02  0.26845081165E+02  0.14355949343E+03  0.00000000000E+00 0. -1.
<scales pt_clust_3="46.89924" pt_clust_4="14000.00000" pt_clust_5="52.35246" pt_clust_6="61.24676"></scales>
<clustering>
<clus scale="   46.899">  1  3  2 -1</clus>
<clus scale="   52.352">  1  5  2 -1</clus>
<clus scale="   61.247">  1  6  2 -1</clus>
<clus scale="   61.247">  2  3  1 -1</clus>
</clustering>
</event>
<event>
 6    0  0.3643696E+002  0.1344683E+03  0.7546771E-02  0.1220972E+00
         21   -1    0    0  505  502  0.00000000000E+00  0.00000000000E+00  0.18651771290E+03  0.18651771290E+03  0.00000000000E+00 0.  1.
         -1   -1    0    0    0  501 -0.00000000000E+00 -0.00000000000E+00 -0.79181591445E+03  0.79181591445E+03  0.00000000000E+00 0.  1.
         21    1    1    2  503  504  0.61593851490E+02 -0.31206554600E+02 -0.34171475230E+03  0.34862103140E+03  0.00000000000E+00 0.  1.
         21    1    1    2  504  502 -0.44240011174E+01  0.32780298110E+02  0.70048173936E+02  0.77465259322E+02  0.00000000000E+00 0.  1.
         21    1    1    2  505  501 -0.12233349618E+03 -0.28598049320E+01  0.71621799549E+02  0.14178626500E+03  0.00000000000E+00 0.  1.
         -1    1    1    2    0  503  0.65163645811E+02  0.12860614222E+01 -0.40525342273E+03  0.41046107163E+03  0.00000000000E+00 0.  1.
<scales pt_clust_3="34.90182" pt_clust_4="33.07748" pt_clust_5="129.61576" pt_clust_6="34.90182"></scales>
<clustering>
<clus scale="   33.077">  1  4  2 -1</clus>
<clus scale="   34.902">  3  6 -1 -1</clus>
<clus scale="  129.616">  1  5  2 -1</clus>
<clus scale="   33.077">  1  3  2 -1</clus>
</clustering>
</event>
<event>
 6    0  0.3643696E+002  0.1853837E+03  0.7546771E-02  0.1162692E+00
         21   -1    0    0  503  502  0.00000000000E+00  0.00000000000E+00  0.48267674480E+03  0.48267674480E+03  0.00000000000E+00 0.  1.
          2   -1    0    0  504    0 -0.00000000000E+00 -0.00000000000E+00 -0.65057013498E+03  0.65057013498E+03  0.00000000000E+00 0. -1.
         21    1    1    2  503  505 -0.23978534476E+02  0.26162092042E+02  0.38255148450E+03  0.38419404403E+03  0.00000000000E+00 0.  1.
         21    1    1    2  504  502 -0.24161256696E+02  0.69408683457E+02 -0.75269942760E+02  0.10519931534E+03  0.00000000000E+00 0.  1.
         21    1    1    2  505  501  0.11813187710E+03  0.12399011203E+03 -0.86169616627E+02  0.19171304363E+03  0.00000000000E+00 0.  1.
          2    1    1    2  501    0 -0.69992085931E+02 -0.21956088753E+03 -0.38900531529E+03  0.45214047678E+03  0.00000000000E+00 0. -1.
<scales pt_clust_3="35.48838" pt_clust_4="78.43362" pt_clust_5="14000.00000" pt_clust_6="185.38373"></scales>
<clustering>
<clus scale="   35.488">  1  3  2 -1</clus>
<clus scale="   78.434">  2  4  1 -1</clus>
<clus scale="  185.384">  2  6  1 -1</clus>
<clus scale="   35.488">  1  3  2 -1</clus>
</clustering>
</event>
<event>
 6    0  0.3643696E+002  0.1247196E+03  0.7546771E-02  0.1235508E+00
         21   -1    0    0  504  502  0.00000000000E+00  0.00000000000E+00  0.50037338439E+03  0.50037338439E+03  0.00000000000E+00 0. -1.
         -2   -1    0    0    0  501 -0.00000000000E+00 -0.00000000000E+00 -0.27868836368E+03  0.27868836368E+03  0.00000000000E+00 0.  1.
         21    1    1    2  503  501 -0.17644197228E+01  0.37834240296E+02 -0.45214870887E+02  0.58982433529E+02  0.00000000000E+00 0.  1.
         21    1    1    2  504  505 -0.90952231007E+02  0.87143231393E+02  0.44849223041E+03  0.46584496546E+03  0.00000000000E+00 0. -1.
         21    1    1    2  505  503  0.17254179447E+02 -0.59522186817E+02 -0.21623121000E+02  0.65636550744E+02  0.00000000000E+00 0.  1.
         -2    1    1    2    0  502  0.75462471284E+02 -0.65455284872E+02 -0.15996921781E+03  0.18859779834E+03  0.00000000000E+00 0.  1.
<scales pt_clust_3="37.87536" pt_clust_4="14000.00000" pt_clust_5="54.90741" pt_clust_6="124.71959"></scales>
<clustering>
<clus scale="   37.875">  2  3  1 -1</clus>
<clus scale="   54.907">  2  5  1 -1</clus>
<clus scale="  124.720">  2  6  1 -1</clus>
<clus scale="  124.720">  1  3  2 -1</clus>
</clustering>
</event>
<event>
 6    0  0.3643696E+002  0.7396295E+02  0.7546771E-02  0.1347113E+00
         21   -1    0    0  504  502  0.00000000000E+00  0.00000000000E+00  0.93568177090E+03  0.93568177090E+03  0.00000000000E+00 0.  1.
          1   -1    0    0  503    0 -0.00000000000E+00 -0.00000000000E+00 -0.93811804364E+02  0.93811804364E+02  0.00000000000E+00 0.  1.
         21    1    1    2  503  505  0.20195813853E+02  0.22705120794E+02 -0.24617770690E+02  0.39107902541E+02  0.00000000000E+00 0.  1.
         21    1    1    2  504  501 -0.19953932213E+02 -0.69706728317E+02  0.81047558076E+03  0.81371239046E+03  0.00000000000E+00 0.  1.
         21    1    1    2  505  502  0.29978984060E+02  0.10047078500E+03  0.45785390140E+02  0.11440900347E+03  0.00000000000E+00 0.  1.
          1    1    1    2  501    0 -0.30220865700E+02 -0.53469177482E+02  0.10226766329E+02  0.62264278794E+02  0.00000000000E+00 0.  1.
<scales pt_clust_3="30.38739" pt_clust_4="14000.00000" pt_clust_5="73.96295" pt_clust_6="49.01704"></scales>
<clustering>
<clus scale="   30.387">  2  3  1 -1</clus>
<clus scale="   49.017">  2  6  1 -1</clus>
<clus scale="   73.963">  2  5  1 -1</clus>
<clus scale="   73.963">  1  3  2 -1</clus>
</clustering>
</event>
<event>
 6    0  0.3643696E+002  0.8509794E+02  0.7546771E-02  0.1315177E+00
          2   -1    0    0  503    0 -0.00000000000E+00  0.00000000000E+00  0.27852681023E+03  0.27852681023E+03  0.00000000000E+00 0. -1.
         21   -1    0    0  505  502  0.00000000000E+00 -0.00000000000E+00 -0.45573700393E+03  0.45573700393E+03  0.00000000000E+00 0. -1.
         21    1    1    2  503  502  0.11935105792E+03  0.49164937005E+02  0.45034959333E+02  0.13671142461E+03  0.00000000000E+00 0.  1.
         21    1    1    2  504  501 -0.48235671856E+02 -0.24149356796E+02 -0.96139923251E+01  0.54793250693E+02  0.00000000000E+00 0.  1.
         21    1    1    2  505  504 -0.56003998364E+02  0.17829437075E+02 -0.37221891254E+03  0.37683053952E+03  0.00000000000E+00 0. -1.
          2    1    1    2  501    0 -0.15111387696E+02 -0.42845017284E+02  0.15958775183E+03  0.16592859934E+03  0.00000000000E+00 0. -1.
<scales pt_clust_3="14000.00000" pt_clust_4="85.09794" pt_clust_5="58.80848" pt_clust_6="45.43181"></scales>
<clustering>
<clus scale="   45.432">  1  6  2 -1</clus>
<clus scale="   58.808">  2  5  1 -1</clus>
<clus scale="   85.098">  2  4  1 -1</clus>
<clus scale="   58.808">  2  3  1 -1</clus>
</clustering>
</event>
<event>
 6    0  0.3643696E+002  0.1505877E+03  0.7546771E-02  0.1199753E+00
         21   -1    0    0  505  502  0.00000000000E+00  0.00000000000E+00  0.45418531550E+02  0.45418531550E+02  0.00000000000E+00 0. -1.
          2   -1    0    0  503    0 -0.00000000000E+00 -0.00000000000E+00 -0.74447036723E+03  0.74447036723E+03  0.00000000000E+00 0. -1.
         21    1    1    2  503  502  0.13919707554E+03 -0.39080899912E+02 -0.51974940654E+03  0.53948363106E+03  0.00000000000E+00 0. -1.
         21    1    1    2  504  501 -0.45627575619E+02 -0.28921420311E+01 -0.14101591924E+02  0.47844488054E+02  0.00000000000E+00 0. -1.
         21    1    1    2  505  504 -0.20097204473E+02  0.34688368439E+02 -0.36659219463E+02  0.54323833667E+02  0.00000000000E+00 0. -1.
          2    1    1    2  501    0 -0.73472295446E+02  0.72846735040E+01 -0.12854161775E+03  0.14823694600E+03  0.00000000000E+00 0. -1.
<scales pt_clust_3="137.03974" pt_clust_4="52.23142" pt_clust_5="40.08966" pt_clust_6="52.23142"></scales>
<clustering>
<clus scale="   40.090">  1  5  2 -1</clus>
<clus scale="   52.231">  4  6 -1 -1</clus>
<clus scale="  137.040">  2  3  1 -1</clus>
<clus scale="   40.090">  1  3  2 -1</clus>
</clustering>
</event>
<event>
 6    0  0.3643696E+002  0.1208287E+03  0.7546771E-02  0.1241736E+00
         21   -1    0    0  504  502  0.00000000000E+00  0.00000000000E+00  0.19582533591E+03  0.19582533591E+03  0.00000000000E+00 0.  1.
          2   -1    0    0  505    0 -0.00000000000E+00 -0.00000000000E+00 -0.12917249217E+03  0.12917249217E+03  0.00000000000E+00 0.  1.
         21    1    1    2  503  501 -0.55035999119E+02 -0.31502157044E+02 -0.25444349069E+02  0.68328339633E+02  0.00000000000E+00 0.  1.
         21    1    1    2  504  503  0.12304979224E+02 -0.36773795910E+02  0.16943648271E+02  0.42317984310E+02  0.00000000000E+00 0.  1.
         21    1    1    2  505  502  0.98839466458E+02  0.50925444958E+02  0.10097564268E+03  0.15019561075E+03  0.00000000000E+00 0.  1.
          2    1    1    2  501    0 -0.56108446563E+02  0.17350507996E+02 -0.25822098145E+02  0.64155893385E+02  0.00000000000E+00 0.  1.
<scales pt_clust_3="45.43450" pt_clust_4="38.77789" pt_clust_5="110.58530" pt_clust_6="45.43450"></scales>
<clustering>
<clus scale="   38.778">  1  4  2 -1</clus>
<clus scale="   45.435">  3  6 -1 -1</clus>
<clus scale="  110.585">  1  5  2 -1</clus>
<clus scale="   38.778">  1  3  2 -1</clus>
</clustering>
</event>
<event>
 6    0  0.3643696E+002  0.1197696E+03  0.7546771E-02  0.1243478E+00
         21   -1    0    0  501  502  0.00000000000E+00  0.00000000000E+00  0.32277897198E+02  0.32277897198E+02  0.00000000000E+00 0. -1.
          1   -1    0    0  504    0 -0.00000000000E+00 -0.00000000000E+00 -0.20999620820E+04  0.20999620820E+04  0.00000000000E+00 0.  1.
         21    1    1    2  503  505  0.80431333153E+02 -0.10354294389E+03 -0.74752692478E+03  0.75893797102E+03  0.00000000000E+00 0. -1.
         21    1    1    2  504  503 -0.69777580165E+01 -0.38802722213E+02 -0.43659828713E+03  0.43837473089E+03  0.00000000000E+00 0. -1.
         21    1    1    2  505  502  0.27448331540E+02  0.77992534664E+02 -0.58622540386E+02  0.10135506208E+03  0.00000000000E+00 0. -1.
          1    1    1    2  501    0 -0.10090190668E+03  0.64353131436E+02 -0.82493643252E+03  0.83357221523E+03  0.00000000000E+00 0.  1.
<scales pt_clust_3="119.76961" pt_clust_4="39.42512" pt_clust_5="80.80963" pt_clust_6="14000.00000"></scales>
<clustering>
<clus scale="   39.425">  2  4  1 -1</clus>
<clus scale="   80.810">  1  5  2 -1</clus>
<clus scale="  119.770">  1  3  2 -1</clus>
<clus scale="   80.810">  1  3  2 -1</clus>
</clustering>
</event>
<event>
 6    0  0.3643696E+002  0.1907842E+03  0.7546771E-02  0.1157756E+00
         -3   -1    0    0    0  501 -0.00000000000E+00  0.00000000000E+00  0.93056140757E+03  0.93056140757E+03  0.00000000000E+00 0. -1.
         21   -1    0    0  501  502  0.00000000000E+00 -0.00000000000E+00 -0.29310380572E+03  0.29310380572E+03  0.00000000000E+00 0. -1.
         21    1    1    2  503  505  0.26092332173E+02 -0.14560100490E+03 -0.42444140151E+02  0.15388946507E+03  0.00000000000E+00 0. -1.
         21    1    1    2  504  503 -0.30129941669E+02  0.32390207981E+02  0.14750854144E+03  0.15399905440E+03  0.00000000000E+00 0. -1.
         21    1    1    2  505  502  0.22172532538E+02 -0.33637421805E+02 -0.18190574176E+03  0.18631370382E+03  0.00000000000E+00 0. -1.
         -3    1    1    2    0  504 -0.18134923041E+02  0.14684821873E+03  0.71429894233E+03  0.72946299001E+03  0.00000000000E+00 0. -1.
<scales pt_clust_3="181.82813" pt_clust_4="31.58664" pt_clust_5="40.28768" pt_clust_6="31.58664"></scales>
<clustering>
<clus scale="   31.587">  4  6 -1 -1</clus>
<clus scale="   40.288">  2  5  1 -1</clus>
<clus scale="  181.828">  2  3  1 -1</clus>
<clus scale="   40.288">  2  3  1 -1</clus>
</clustering>
</event>
<event>
 6    0  0.3643696E+002  0.1836066E+03  0.7546771E-02  0.1164358E+00
         21   -1    0    0  505  502  0.00000000000E+00  0.00000000000E+00  0.81486379220E+03  0.81486379220E+03  0.00000000000E+00 0. -1.
         -1   -1    0    0    0  501 -0.00000000000E+00 -0.00000000000E+00 -0.13514931231E+04  0.13514931231E+04  0.00000000000E+00 0.  1.
         21    1    1    2  503  502  0.24548269686E+02  0.26806642226E+02 -0.13380473871E+03  0.13865396392E+03  0.00000000000E+00 0.  1.
         21    1    1    2  504  501 -0.86997402515E+02 -0.13170446058E+03  0.71479626278E+02  0.17327420453E+03  0.00000000000E+00 0. -1.
         21    1    1    2  505  504  0.17668362764E+02 -0.26038869913E+02  0.68558848422E+03  0.68631025309E+03  0.00000000000E+00 0. -1.
         -1    1    1    2    0  503  0.44780770065E+02  0.13093668827E+03 -0.11598927027E+04  0.11681184937E+04  0.00000000000E+00 0.  1.
<scales pt_clust_3="33.66526" pt_clust_4="171.46330" pt_clust_5="31.46734" pt_clust_6="33.66526"></scales>
<clustering>
<clus scale="   31.467">  1  5  2 -1</clus>
<clus scale="   33.665">  3  6 -1 -1</clus>
<clus scale="  171.463">  1  4  2 -1</clus>
<clus scale="   31.467">  1  3  2 -1</clus>
</clustering>
</event>
<event>
 6    0  0.3643696E+002  0.1136702E+03  0.7546771E-02  0.1253920E+00
          1   -1    0    0  503    0 -0.00000000000E+00  0.00000000000E+00  0.75039524638E+03  0.75039524638E+03  0.00000000000E+00 0.  1.
         21   -1    0    0  504  502  0.00000000000E+00 -0.00000000000E+00 -0.20643428210E+03  0.20643428210E+03  0.00000000000E+00 0. -1.
         21    1    1    2  503  505 -0.29757616272E+02 -0.51942117946E+02  0.83645564139E+02  0.10285951460E+03  0.00000000000E+00 0.  1.
         21    1    1    2  504  501  0.46449289590E+02  0.52871138595E+02 -0.15366380385E+03  0.16901319006E+03  0.00000000000E+00 0. -1.
         21    1    1    2  505  502  0.80323579816E+02  0.37141286096E+01  0.19692614736E+02  0.82785695026E+02  0.00000000000E+00 0. -1.
          1    1    1    2  501    0 -0.97015253134E+02 -0.46431492589E+01  0.59428658926E+03  0.60217112879E+03  0.00000000000E+00 0.  1.
<scales pt_clust_3="59.86234" pt_clust_4="69.69183" pt_clust_5="14000.00000" pt_clust_6="113.67023"></scales>
<clustering>
<clus scale="   59.862">  1  3  2 -1</clus>
<clus scale="   69.692">  2  4  1 -1</clus>
<clus scale="  113.670">  1  6  2 -1</clus>
<clus scale="   69.692">  2  3  1 -1</clus>
</clustering>
</event>
<event>
 6    0  0.3643696E+002  0.7924084E+02  0.7546771E-02  0.1331220E+00
          2   -1    0    0  503    0 -0.00000000000E+00  0.00000000000E+00  0.16223845960E+04  0.16223845960E+04  0.00000000000E+00 0. -1.
         21   -1    0    0  501  502  0.00000000000E+00 -0.00000000000E+00 -0.84370024564E+02  0.84370024564E+02  0.00000000000E+00 0. -1.
         21    1    1    2  503  505 -0.64758687009E+01 -0.38230532690E+02  0.28712679080E+03  0.28973316086E+03  0.00000000000E+00 0. -1.
         21    1    1    2  504  502  0.76022747368E+02  0.21331507772E+02 -0.57599480677E+02  0.97735313553E+02  0.00000000000E+00 0. -1.
         21    1    1    2  505  504  0.35062064346E+02 -0.28638028993E+02  0.59653005722E+03  0.59824542976E+03  0.00000000000E+00 0. -1.
          2    1    1    2  501    0 -0.10460894301E+03  0.45537053911E+02  0.71195720404E+03  0.72104071634E+03  0.00000000000E+00 0. -1.
<scales pt_clust_3="38.77513" pt_clust_4="14000.00000" pt_clust_5="55.93092" pt_clust_6="79.24084"></scales>
<clustering>
<clus scale="   38.775">  1  3  2 -1</clus>
<clus scale="   55.931">  1  5  2 -1</clus>
<clus scale="   79.241">  1  6  2 -1</clus>
<clus scale="   79.241">  2  3  1 -1</clus>
</clustering>
</event>
<event>
 6    0  0.3643696E+002  0.1124924E+03  0.7546771E-02  0.1256023E+00
         21   -1    0    0  503  502  0.00000000000E+00  0.00000000000E+00  0.58846089908E+03  0.58846089908E+03  0.00000000000E+00 0.  1.
         -1   -1    0    0    0  501 -0.00000000000E+00 -0.00000000000E+00 -0.20370603500E+03  0.20370603500E+03  0.00000000000E+00 0.  1.
         21    1    1    2  503  504 -0.34517410782E+01 -0.89169235752E+02  0.78665805164E+02  0.11895955625E+03  0.00000000000E+00 0.  1.
         21    1    1    2  504  501 -0.31199127559E+02 -0.30464139301E+02 -0.90171785203E+02  0.10016186994E+03  0.00000000000E+00 0.  1.
         21    1    1    2  505  502  0.21237946722E+02 -0.24658238238E+02  0.42421398122E+03  0.42546043407E+03  0.00000000000E+00 0.  1.
         -1    1    1    2    0  505  0.13412921915E+02  0.14429161329E+03 -0.27953137100E+02  0.14758507382E+03  0.00000000000E+00 0.  1.
<scales pt_clust_3="14000.00000" pt_clust_4="43.67889" pt_clust_5="32.54350" pt_clust_6="112.49237"></scales>
<clustering>
<clus scale="   32.543">  1  5  2 -1</clus>
<clus scale="   43.679">  2  4  1 -1</clus>
<clus scale="  112.492">  2  6  1 -1</clus>
<clus scale="   32.543">  1  3  2 -1</clus>
</clustering>
</event>
<event>
 6    0  0.3643696E+002  0.1591081E+03  0.7546771E-02  0.1189707E+00
         21   -1    0    0  503  502  0.00000000000E+00  0.00000000000E+00  0.79952017165E+03  0.79952017165E+03  0.00000000000E+00 0.  1.
          1   -1    0    0  504    0 -0.00000000000E+00 -0.00000000000E+00 -0.44376483406E+03  0.44376483406E+03  0.00000000000E+00 0. -1.
         21    1    1    2  503  501 -0.66909743851E+02 -0.40258101395E+01  0.73191215322E+03  0.73497518393E+03  0.00000000000E+00 0.  1.
         21    1    1    2  504  505 -0.42013768456E+02  0.23239853855E+02 -0.33092563089E+02  0.58312651105E+02  0.00000000000E+00 0. -1.
         21    1    1    2  505  502 -0.61692340825E+02  0.14786564596E+02  0.20939831624E+01  0.63474185103E+02  0.00000000000E+00 0.  1.
          1    1    1    2  501    0  0.17061585313E+03 -0.34000608312E+02 -0.34515823570E+03  0.38652298557E+03  0.00000000000E+00 0. -1.
<scales pt_clust_3="67.03075" pt_clust_4="35.55311" pt_clust_5="35.55311" pt_clust_6="153.77004"></scales>
<clustering>
<clus scale="   35.553">  4  5 -1 -1</clus>
<clus scale="   67.031">  1  3  2 -1</clus>
<clus scale="  153.770">  2  6  1 -1</clus>
<clus scale="   67.031">  1  3  2 -1</clus>
</clustering>
</event>
<event>
 6    0  0.3643696E+002  0.9422270E+02  0.7546771E-02  0.1292936E+00
         -1   -1    0    0    0  501 -0.00000000000E+00  0.00000000000E+00  0.33350824399E+03  0.33350824399E+03  0.00000000000E+00 0. -1.
         21   -1    0    0  503  502  0.00000000000E+00 -0.00000000000E+00 -0.81286845127E+02  0.81286845127E+02  0.00000000000E+00 0.  1.
         21    1    1    2  503  504 -0.74775957702E+02 -0.75229253195E+01 -0.14793276479E+02  0.76595556559E+02  0.00000000000E+00 0.  1.
         21    1    1    2  504  501 -0.57797623330E+02  0.25413292492E+02  0.58544771885E+02  0.86103954689E+02  0.00000000000E+00 0.  1.
         21    1    1    2  505  502  0.51919193651E+02  0.12307538865E+02  0.58678940288E+02  0.79311387679E+02  0.00000000000E+00 0. -1.
         -1    1    1    2    0  505  0.80654387381E+02 -0.30197906037E+02  0.14979096317E+03  0.17278419019E+03  0.00000000000E+00 0. -1.
<scales pt_clust_3="81.73896" pt_clust_4="63.13795" pt_clust_5="36.89127" pt_clust_6="36.89127"></scales>
<clustering>
<clus scale="   36.891">  5  6 -1 -1</clus>
<clus scale="   63.138">  1  4  2 -1</clus>
<clus scale="   81.739">  2  3  1 -1</clus>
<clus scale="   81.739">  2  3  1 -1</clus>
</clustering>
</event>
<event>
 6    0  0.3643696E+002  0.1217301E+03  0.7546771E-02  0.1240270E+00
          2   -1    0    0  504    0 -0.00000000000E+00  0.00000000000E+00  0.11070888135E+04  0.11070888135E+04  0.00000000000E+00 0.  1.
         21   -1    0    0  503  502  0.00000000000E+00 -0.00000000000E+00 -0.11053552785E+03  0.11053552785E+03  0.00000000000E+00 0.  1.
         21    1    1    2  503  501 -0.42760169349E+02  0.20351557658E+01  0.93613139722E+02  0.10293684409E+03  0.00000000000E+00 0. -1.
         21    1    1    2  504  505  0.23134807944E+02  0.19761218010E+02  0.54746548496E+03  0.54831029746E+03  0.00000000000E+00 0.  1.
         21    1    1    2  505  502  0.11014549236E+03 -0.15932148630E+02 -0.69910436252E+02  0.13142804855E+03  0.00000000000E+00 0.  1.
          2    1    1    2  501    0 -0.90520130959E+02 -0.58642251456E+01  0.42538509718E+03  0.43494915122E+03  0.00000000000E+00 0.  1.
<scales pt_clust_3="34.11953" pt_clust_4="30.42573" pt_clust_5="112.40265" pt_clust_6="34.11953"></scales>
<clustering>
<clus scale="   30.426">  1  4  2 -1</clus>
<clus scale="   34.120">  3  6 -1 -1</clus>
<clus scale="  112.403">  2  5  1 -1</clus>
<clus scale="  112.403">  2  3  1 -1</clus>
</clustering>
</event>
<event>
 6    0  0.3643696E+002  0.2112191E+03  0.7546771E-02  0.1140604E+00
         21   -1    0    0  501  502  0.00000000000E+00  0.00000000000E+00  0.10905770999E+04  0.10905770999E+04  0.00000000000E+00 0. -1.
          1   -1    0    0  503    0 -0.00000000000E+00 -0.00000000000E+00 -0.76259609155E+03  0.76259609155E+03  0.00000000000E+00 0.  1.
         21    1    1    2  503  505 -0.57350610238E+02  0.37729641103E+02  0.65292720147E+01  0.68958318610E+02  0.00000000000E+00 0.  1.
         21    1    1    2  504  502  0.15705670578E+03  0.14180320935E+03  0.10063377719E+04  0.10283436537E+04  0.00000000000E+00 0. -1.
         21    1    1    2  505  504 -0.54399090992E+02  0.53010407721E+02 -0.10621109172E+03  0.13057626290E+03  0.00000000000E+00 0. -1.
          1    1    1    2  501    0 -0.45307004553E+02 -0.23254325818E+03 -0.57867494386E+03  0.62529495619E+03  0.00000000000E+00 0.  1.
<scales pt_clust_3="68.64851" pt_clust_4="14000.00000" pt_clust_5="86.89324" pt_clust_6="211.21906"></scales>
<clustering>
<clus scale="   68.649">  2  3  1 -1</clus>
<clus scale="   86.893">  2  5  1 -1</clus>
<clus scale="  211.219">  2  6  1 -1</clus>
<clus scale="  211.219">  1  3  2 -1</clus>
</clustering>
</event>
<event>
 6    0  0.3643696E+002  0.1020645E+03  0.7546771E-02  0.1276014E+00
         21   -1    0    0  503  502  0.00000000000E+00  0.00000000000E+00  0.89815299968E+03  0.89815299968E+03  0.00000000000E+00 0. -1.
          2   -1    0    0  504    0 -0.00000000000E+00 -0.00000000000E+00 -0.10032246428E+04  0.10032246428E+04  0.00000000000E+00 0. -1.
         21    1    1    2  503  501  0.60232577042E+01  0.75008422289E+02 -0.22456080296E+03  0.23683348005E+03  0.00000000000E+00 0. -1.
         21    1    1    2  504  505 -0.96685941853E+02 -0.11737989596E+03 -0.44121702047E+03  0.46668905117E+03  0.00000000000E+00 0. -1.
         21    1    1    2  505  502  0.30190387102E+02  0.34167969056E+02  0.87575959003E+03  0.87694570477E+03  0.00000000000E+00 0. -1.
          2    1    1    2  501    0  0.60472297047E+02  0.82035046165E+01 -0.31505340967E+03  0.32090940645E+03  0.00000000000E+00 0. -1.
<scales pt_clust_3="102.06447" pt_clust_4="14000.00000" pt_clust_5="45.59506" pt_clust_6="65.78301"></scales>
<clustering>
<clus scale="   45.595">  1  5  2 -1</clus>
<clus scale="   65.783">  2  6  1 -1</clus>
<clus scale="  102.064">  1  3  2 -1</clus>
<clus scale="   45.595">  1  3  2 -1</clus>
</clustering>
</event>
<event>
 6    0  0.5966578E+002  0.9216691E+02  0.7546771E-02  0.1297687E+00
         21   -1    0    0  504  502  0.00000000000E+00  0.00000000000E+00  0.76353573768E+03  0.76353573768E+03  0.00000000000E+00 0.  1.
          2   -1    0    0  503    0 -0.00000000000E+00 -0.00000000000E+00 -0.15107555795E+04  0.15107555795E+04  0.00000000000E+00 0. -1.
         21    1    1    2  503  502 -0.31156876473E+02  0.17986140061E+02 -0.20898582288E+02  0.41605323307E+02  0.00000000000E+00 0.  1.
         21    1    1    2  504  505  0.37291888110E+02 -0.44573997676E+02  0.73805157808E+03  0.74033617910E+03  0.00000000000E+00 0.  1.
         21    1    1    2  505  501 -0.42833958726E+02 -0.65994745242E+02 -0.11518117660E+03  0.13948748282E+03  0.00000000000E+00 0. -1.
          2    1    1    2  501    0  0.36698947089E+02  0.92582602857E+02 -0.13491916610E+04  0.13528623320E+04  0.00000000000E+00 0. -1.
<scales pt_clust_3="35.97572" pt_clust_4="58.09040" pt_clust_5="14000.00000" pt_clust_6="92.16691"></scales>
<clustering>
<clus scale="   35.976">  2  3  1 -1</clus>
<clus scale="   58.090">  1  4  2 -1</clus>
<clus scale="   92.167">  2  6  1 -1</clus>
<clus scale="   58.090">  1  3  2 -1</clus>
</clustering>
</event>
<event>
 6    0  0.3643696E+002  0.1617165E+03  0.7546771E-02  0.1186772E+00
         21   -1    0    0  501  502  0.00000000000E+00  0.00000000000E+00  0.92010905667E+02  0.92010905667E+02  0.00000000000E+00 0.  1.
          2   -1    0    0  503    0 -0.00000000000E+00 -0.00000000000E+00 -0.93061883427E+03  0.93061883427E+03  0.00000000000E+00 0. -1.
         21    1    1    2  503  505 -0.17616764279E+02  0.29586762273E+02 -0.64060753115E+02  0.72728996797E+02  0.00000000000E+00 0. -1.
         21    1    1    2  504  502  0.92934367415E+02 -0.14026064120E+03 -0.13696812783E+02  0.16881186806E+03  0.00000000000E+00 0.  1.
         21    1    1    2  505  504  0.26643249450E+02  0.39260759872E+02 -0.13823363333E+03  0.14614994831E+03  0.00000000000E+00 0. -1.
          2    1    1    2  501    0 -0.10196085259E+03  0.71413119057E+02 -0.62261672938E+03  0.63493892678E+03  0.00000000000E+00 0. -1.
<scales pt_clust_3="34.43439" pt_clust_4="14000.00000" pt_clust_5="50.11819" pt_clust_6="161.71652"></scales>
<clustering>
<clus scale="   34.434">  2  3  1 -1</clus>
<clus scale="   50.118">  2  5  1 -1</clus>
<clus scale="  161.717">  2  6  1 -1</clus>
<clus scale="  161.717">  1  3  2 -1</clus>
</clustering>
</event>
<event>
 6    0  0.3643696E+002  0.1106842E+03  0.7546771E-02  0.1259308E+00
         21   -1    0    0  504  502  0.00000000000E+00  0.00000000000E+00  0.32564829206E+02  0.32564829206E+02  0.00000000000E+00 0.  1.
         -4   -1    0    0    0  501 -0.00000000000E+00 -0.00000000000E+00 -0.11754433121E+04  0.11754433121E+04  0.00000000000E+00 0.  1.
         21    1    1    2  503  501  0.16591074628E+02 -0.25573246072E+02 -0.53306710308E+03  0.53393800301E+03  0.00000000000E+00 0.  1.
         21    1    1    2  504  503 -0.25952622335E+02 -0.10372662871E+03 -0.26184644631E+03  0.28283619562E+03  0.00000000000E+00 0.  1.
         21    1    1    2  505  502  0.31324031475E+02  0.76356211752E+01 -0.14054961898E+02  0.35171573928E+02  0.00000000000E+00 0.  1.
         -4    1    1    2    0  505 -0.21962483768E+02  0.12166425360E+03 -0.33390997160E+03  0.35606236874E+03  0.00000000000E+00 0.  1.
<scales pt_clust_3="30.48368" pt_clust_4="14000.00000" pt_clust_5="32.64571" pt_clust_6="110.68418"></scales>
<clustering>
<clus scale="   30.484">  2  3  1 -1</clus>
<clus scale="   32.646">  1  5  2 -1</clus>
<clus scale="  110.684">  2  6  1 -1</clus>
<clus scale="   32.646">  1  3  2 -1</clus>
</clustering>
</event>
<event>
 6    0  0.3643696E+002  0.8987957E+02  0.7546771E-02  0.1303144E+00
          2   -1    0    0  504    0 -0.00000000000E+00  0.00000000000E+00  0.15997937545E+04  0.15997937545E+04  0.00000000000E+00 0. -1.
         21   -1    0    0  503  502  0.00000000000E+00 -0.00000000000E+00 -0.24817888208E+03  0.24817888208E+03  0.00000000000E+00 0.  1.
         21    1    1    2  503  501 -0.25164923947E+02 -0.41896562665E+02 -0.44519338873E+01  0.49075605709E+02  0.00000000000E+00 0. -1.
         21    1    1    2  504  505  0.39076739182E+02 -0.16975549590E+02  0.28810050587E+03  0.29123369021E+03  0.00000000000E+00 0. -1.
         21    1    1    2  505  502  0.55164288495E+02  0.12592005095E+03 -0.19634751273E+03  0.23969001588E+03  0.00000000000E+00 0.  1.
          2    1    1    2  501    0 -0.69076103730E+02 -0.67047938692E+02  0.12643138131E+04  0.12679733248E+04  0.00000000000E+00 0. -1.
<scales pt_clust_3="48.78373" pt_clust_4="42.60470" pt_clust_5="89.87957" pt_clust_6="14000.00000"></scales>
<clustering>
<clus scale="   42.605">  1  4  2 -1</clus>
<clus scale="   48.784">  2  3  1 -1</clus>
<clus scale="   89.880">  2  5  1 -1</clus>
<clus scale="   48.784">  2  3  1 -1</clus>
</clustering>
</event>
<event>
 6    0  0.3643696E+002  0.1205378E+03  0.7546771E-02  0.1242212E+00
          4   -1    0    0  505    0 -0.00000000000E+00  0.00000000000E+00  0.15758861676E+03  0.15758861676E+03  0.00000000000E+00 0.  1.
         21   -1    0    0  503  502  0.00000000000E+00 -0.00000000000E+00 -0.11078625915E+04  0.11078625915E+04  0.00000000000E+00 0.  1.
         21    1    1    2  503  501 -0.51797632701E+02 -0.31144406150E+02 -0.91185763470E+03  0.91385847633E+03  0.00000000000E+00 0.  1.
         21    1    1    2  504  502 -0.10133430911E+03 -0.57163671011E+01 -0.10765089126E+03  0.14795280817E+03  0.00000000000E+00 0.  1.
         21    1    1    2  505  504  0.81615751035E+02  0.72288749108E+02  0.56576318473E+02  0.12283189275E+03  0.00000000000E+00 0.  1.
          4    1    1    2  501    0  0.71516190774E+02 -0.35427975856E+02  0.12658232778E+02  0.80808030994E+02  0.00000000000E+00 0.  1.
<scales pt_clust_3="60.43979" pt_clust_4="120.53784" pt_clust_5="14000.00000" pt_clust_6="74.64756"></scales>
<clustering>
<clus scale="   60.440">  2  3  1 -1</clus>
<clus scale="   74.648">  1  6  2 -1</clus>
<clus scale="  120.538">  2  4  1 -1</clus>
<clus scale="   60.440">  2  3  1 -1</clus>
</clustering>
</event>
<event>
 6    0  0.3643696E+002  0.8058605E+02  0.7546771E-02  0.1327396E+00
         21   -1    0    0  503  502  0.00000000000E+00  0.00000000000E+00  0.68005850366E+02  0.68005850366E+02  0.00000000000E+00 0.  1.
          2   -1    0    0  504    0 -0.00000000000E+00 -0.00000000000E+00 -0.45758309592E+03  0.45758309592E+03  0.00000000000E+00 0.  1.
         21    1    1    2  503  501 -0.62141656332E+01 -0.64880507413E+02 -0.30795576849E+02  0.72086501165E+02  0.00000000000E+00 0.  1.
         21    1    1    2  504  505  0.59731679394E+02 -0.17932406686E+02 -0.17659332681E+03  0.18728226773E+03  0.00000000000E+00 0.  1.
         21    1    1    2  505  502  0.43495626793E+02 -0.60656652510E+01 -0.31405584937E+01  0.44028683295E+02  0.00000000000E+00 0.  1.
          2    1    1    2  501    0 -0.97013140554E+02  0.88878579351E+02 -0.17904778341E+03  0.22219149410E+03  0.00000000000E+00 0.  1.
<scales pt_clust_3="14000.00000" pt_clust_4="67.24676" pt_clust_5="43.91653" pt_clust_6="80.58605"></scales>
<clustering>
<clus scale="   43.917">  1  5  2 -1</clus>
<clus scale="   67.247">  2  4  1 -1</clus>
<clus scale="   80.586">  2  6  1 -1</clus>
<clus scale="   43.917">  1  3  2 -1</clus>
</clustering>
</event>
<event>
 6    0  0.3643696E+002  0.9084223E+02  0.7546771E-02  0.1300825E+00
         21   -1    0    0  503  502  0.00000000000E+00  0.00000000000E+00  0.14357136014E+03  0.14357136014E+03  0.00000000000E+00 0.  1.
          2   -1    0    0  504    0 -0.00000000000E+00 -0.00000000000E+00 -0.22866330521E+04  0.22866330521E+04  0.00000000000E+00 0.  1.
         21    1    1    2  503  505 -0.51017351732E+02 -0.24428971332E+02 -0.68510943971E+02  0.88844213440E+02  0.00000000000E+00 0.  1.
         21    1    1    2  504  502 -0.41085334493E+02  0.47220960736E+02  0.11519501010E+03  0.13110192293E+03  0.00000000000E+00 0.  1.
         21    1    1    2  505  501  0.80579889416E+02  0.70660021395E+02 -0.30717741889E+03  0.32533663162E+03  0.00000000000E+00 0.  1.
          2    1    1    2  501    0  0.11522796809E+02 -0.93452010799E+02 -0.18825683392E+04  0.18849216442E+04  0.00000000000E+00 0.  1.
<scales pt_clust_3="56.56452" pt_clust_4="91.56639" pt_clust_5="14000.00000" pt_clust_6="90.84223"></scales>
<clustering>
<clus scale="   56.565">  1  3  2 -1</clus>
<clus scale="   91.566">  1  4  2 -1</clus>
<clus scale="   90.842">  2  6  1 -1</clus>
<clus scale="   56.565">  1  3  2 -1</clus>
</clustering>
</event>
<event>
 6    0  0.3643696E+002  0.6669745E+02  0.7546771E-02  0.1371698E+00
         21   -1    0    0  505  502  0.00000000000E+00  0.00000000000E+00  0.38481867451E+02  0.38481867451E+02  0.00000000000E+00 0.  1.
          2   -1    0    0  503    0 -0.00000000000E+00 -0.00000000000E+00 -0.20200204856E+04  0.20200204856E+04  0.00000000000E+00 0.  1.
         21    1    1    2  503  504 -0.14794686480E+02 -0.37704685238E+02 -0.14024584323E+04  0.14030431855E+04  0.00000000000E+00 0.  1.
         21    1    1    2  504  502  0.69039040626E+02 -0.39304692646E+02 -0.14552446967E+03  0.16579692176E+03  0.00000000000E+00 0.  1.
         21    1    1    2  505  501 -0.43116761949E+02 -0.11592162512E+02  0.23444825551E+01  0.44709394887E+02  0.00000000000E+00 0.  1.
          2    1    1    2  501    0 -0.11127592196E+02  0.88601540396E+02 -0.43590019877E+03  0.44495285094E+03  0.00000000000E+00 0.  1.
<scales pt_clust_3="40.50341" pt_clust_4="14000.00000" pt_clust_5="45.48784" pt_clust_6="66.69745"></scales>
<clustering>
<clus scale="   40.503">  2  3  1 -1</clus>
<clus scale="   45.488">  1  5  2 -1</clus>
<clus scale="   66.697">  2  6  1 -1</clus>
<clus scale="   45.488">  1  3  2 -1</clus>
</clustering>
</event>
<event>
 6    0  0.3643696E+002  0.2609262E+03  0.7546771E-02  0.1106588E+00
         -1   -1    0    0    0  501 -0.00000000000E+00  0.00000000000E+00  0.10753610991E+04  0.10753610991E+04  0.00000000000E+00 0. -1.
         21   -1    0    0  503  502  0.00000000000E+00 -0.00000000000E+00 -0.19473292865E+03  0.19473292865E+03  0.00000000000E+00 0. -1.
         21    1    1    2  503  504  0.95483876243E+02 -0.95959432384E+01  0.99039926136E+02  0.13790634401E+03  0.00000000000E+00 0. -1.
         21    1    1    2  504  501  0.95046944765E+02  0.70296712629E+02  0.12523410974E+03  0.17221826778E+03  0.00000000000E+00 0. -1.
         21    1    1    2  505  502  0.83195630955E+02 -0.11627902647E+02 -0.11362771045E+03  0.14130809500E+03  0.00000000000E+00 0.  1.
         -1    1    1    2    0  505 -0.27372645196E+03 -0.49072866743E+02  0.76998184507E+03  0.81866132099E+03  0.00000000000E+00 0. -1.
<scales pt_clust_3="69.15759" pt_clust_4="69.15759" pt_clust_5="84.00429" pt_clust_6="249.38044"></scales>
<clustering>
<clus scale="   69.158">  3  4 -1 -1</clus>
<clus scale="   84.004">  2  5  1 -1</clus>
<clus scale="  249.380">  1  6  2 -1</clus>
<clus scale="   84.004">  2  3  1 -1</clus>
</clustering>
</event>
<event>
 6    0  0.3643696E+002  0.1128556E+03  0.7546771E-02  0.1255371E+00
         21   -1    0    0  505  502  0.00000000000E+00  0.00000000000E+00  0.46135590870E+03  0.46135590870E+03  0.00000000000E+00 0.  1.
         -1   -1    0    0    0  501 -0.00000000000E+00 -0.00000000000E+00 -0.21659787421E+03  0.21659787421E+03  0.00000000000E+00 0. -1.
         21    1    1    2  503  502  0.49697709465E+02 -0.16658688972E+02  0.48930718776E+02  0.71704877688E+02  0.00000000000E+00 0.  1.
         21    1    1    2  504  501 -0.55088625005E+02  0.69024270819E+02  0.21169787561E+02  0.90814461802E+02  0.00000000000E+00 0.  1.
         21    1    1    2  505  504 -0.19291381718E+02  0.71986821935E+02  0.31652111715E+03  0.32517668666E+03  0.00000000000E+00 0.  1.
         -1    1    1    2    0  503  0.24682297258E+02 -0.12435240378E+03 -0.14186358900E+03  0.19025775676E+03  0.00000000000E+00 0. -1.
<scales pt_clust_3="52.41540" pt_clust_4="14000.00000" pt_clust_5="62.12788" pt_clust_6="112.85559"></scales>
<clustering>
<clus scale="   52.415">  1  3  2 -1</clus>
<clus scale="   62.128">  1  5  2 -1</clus>
<clus scale="  112.856">  2  6  1 -1</clus>
<clus scale="   52.415">  1  3  2 -1</clus>
</clustering>
</event>
<event>
 6    0  0.3643696E+002  0.2814360E+03  0.7546771E-02  0.1094907E+00
          2   -1    0    0  504    0 -0.00000000000E+00  0.00000000000E+00  0.16135603484E+04  0.16135603484E+04  0.00000000000E+00 0.  1.
         21   -1    0    0  503  502  0.00000000000E+00 -0.00000000000E+00 -0.86435393190E+02  0.86435393190E+02  0.00000000000E+00 0.  1.
         21    1    1    2  503  501  0.10853690591E+03 -0.14007139663E+03  0.20481424509E+03  0.27083044713E+03  0.00000000000E+00 0.  1.
         21    1    1    2  504  505  0.36385121475E+02 -0.90283947867E+02  0.37921427992E+03  0.39150803109E+03  0.00000000000E+00 0.  1.
         21    1    1    2  505  502 -0.21409460810E+03  0.26804185724E+03  0.84408868691E+03  0.91113591183E+03  0.00000000000E+00 0.  1.
          2    1    1    2  501    0  0.69172580722E+02 -0.37686512740E+02  0.99007743248E+02  0.12652135152E+03  0.00000000000E+00 0.  1.
<scales pt_clust_3="32.67768" pt_clust_4="97.33996" pt_clust_5="277.13552" pt_clust_6="32.67768"></scales>
<clustering>
<clus scale="   32.678">  3  6 -1 -1</clus>
<clus scale="   97.340">  1  4  2 -1</clus>
<clus scale="  277.136">  1  5  2 -1</clus>
<clus scale="  281.436">  2  3  1 -1</clus>
</clustering>
</event>
<event>
 6    0  0.3643696E+002  0.1008311E+03  0.7546771E-02  0.1278558E+00
          2   -1    0    0  503    0 -0.00000000000E+00  0.00000000000E+00  0.19646302196E+04  0.19646302196E+04  0.00000000000E+00 0. -1.
         21   -1    0    0  505  502  0.00000000000E+00 -0.00000000000E+00 -0.54429072410E+02  0.54429072410E+02  0.00000000000E+00 0.  1.
         21    1    1    2  503  504 -0.44161278282E+02 -0.33341080435E+02  0.37662407590E+03  0.38066723091E+03  0.00000000000E+00 0.  1.
         21    1    1    2  504  502  0.10505398499E+03 -0.10360346528E+02  0.27181665977E+03  0.29159556421E+03  0.00000000000E+00 0.  1.
         21    1    1    2  505  501  0.38894302070E+01  0.46260760668E+02 -0.28784870269E+02  0.54623753088E+02  0.00000000000E+00 0.  1.
          2    1    1    2  501    0 -0.64782136912E+02 -0.25593337054E+01  0.12905452818E+04  0.12921727438E+04  0.00000000000E+00 0. -1.
<scales pt_clust_3="50.71085" pt_clust_4="14000.00000" pt_clust_5="46.42398" pt_clust_6="100.83109"></scales>
<clustering>
<clus scale="   46.424">  2  5  1 -1</clus>
<clus scale="   50.711">  1  3  2 -1</clus>
<clus scale="  100.831">  1  6  2 -1</clus>
<clus scale="   46.424">  2  3  1 -1</clus>
</clustering>
</event>
<event>
 6    0  0.3643696E+002  0.2085445E+03  0.7546771E-02  0.1142724E+00
         21   -1    0    0  503  502  0.00000000000E+00  0.00000000000E+00  0.24614639439E+04  0.24614639439E+04  0.00000000000E+00 0.  1.
         -2   -1    0    0    0  501 -0.00000000000E+00 -0.00000000000E+00 -0.15391238195E+04  0.15391238195E+04  0.00000000000E+00 0. -1.
         21    1    1    2  503  505 -0.28973536402E+02  0.12982744609E+03 -0.77616430331E+03  0.78748057583E+03  0.00000000000E+00 0. -1.
         21    1    1    2  504  502 -0.17271216048E+03 -0.11796195135E+03  0.24145600649E+04  0.24236016214E+04  0.00000000000E+00 0.  1.
         21    1    1    2  505  501  0.41566027545E+02  0.27172048983E+02  0.49480572730E+01  0.49905291930E+02  0.00000000000E+00 0. -1.
         -2    1    1    2    0  504  0.16011966934E+03 -0.39037543725E+02 -0.72100369439E+03  0.73960027424E+03  0.00000000000E+00 0. -1.
<scales pt_clust_3="144.03232" pt_clust_4="14000.00000" pt_clust_5="49.65939" pt_clust_6="208.54451"></scales>
<clustering>
<clus scale="   49.659">  2  5  1 -1</clus>
<clus scale="  144.032">  2  3  1 -1</clus>
<clus scale="  208.545">  2  6  1 -1</clus>
<clus scale="  208.545">  1  3  2 -1</clus>
</clustering>
</event>
<event>
 6    0  0.3643696E+002  0.9571644E+02  0.7546771E-02  0.1289571E+00
          2   -1    0    0  505    0 -0.00000000000E+00  0.00000000000E+00  0.25608823184E+04  0.25608823184E+04  0.00000000000E+00 0.  1.
         21   -1    0    0  504  502  0.00000000000E+00 -0.00000000000E+00 -0.78956713598E+02  0.78956713598E+02  0.00000000000E+00 0.  1.
         21    1    1    2  503  502  0.32118790254E+01 -0.44906051274E+02 -0.62568152272E+02  0.77082055542E+02  0.00000000000E+00 0.  1.
         21    1    1    2  504  501 -0.16007972797E+02  0.73830879235E+02  0.28160804274E+03  0.29156533343E+03  0.00000000000E+00 0.  1.
         21    1    1    2  505  503  0.98638548860E+02  0.10932728737E+02  0.12063225735E+04  0.12103979673E+04  0.00000000000E+00 0.  1.
          2    1    1    2  501    0 -0.85842455089E+02 -0.39857556698E+02  0.10565631408E+04  0.10607936758E+04  0.00000000000E+00 0.  1.
<scales pt_clust_3="45.02077" pt_clust_4="51.36582" pt_clust_5="14000.00000" pt_clust_6="95.71644"></scales>
<clustering>
<clus scale="   45.021">  2  3  1 -1</clus>
<clus scale="   51.366">  2  4  1 -1</clus>
<clus scale="   95.716">  2  6  1 -1</clus>
<clus scale="   45.021">  2  3  1 -1</clus>
</clustering>
</event>
<event>
 6    0  0.3643696E+002  0.2140631E+03  0.7546771E-02  0.1138388E+00
          1   -1    0    0  505    0 -0.00000000000E+00  0.00000000000E+00  0.35726718349E+03  0.35726718349E+03  0.00000000000E+00 0. -1.
         21   -1    0    0  501  502  0.00000000000E+00 -0.00000000000E+00 -0.50108159225E+03  0.50108159225E+03  0.00000000000E+00 0. -1.
         21    1    1    2  503  502 -0.13344685155E+02  0.28031360393E+02 -0.12104687063E+02  0.33322083312E+02  0.00000000000E+00 0. -1.
         21    1    1    2  504  503  0.12664962517E+03  0.16844723690E+03 -0.40195235783E+03  0.45385052290E+03  0.00000000000E+00 0. -1.
         21    1    1    2  505  504 -0.99324112369E+01 -0.89551643055E+02  0.43606492488E+02  0.10009833043E+03  0.00000000000E+00 0. -1.
          1    1    1    2  501    0 -0.10337252878E+03 -0.10692695424E+03  0.22663614364E+03  0.27107783910E+03  0.00000000000E+00 0. -1.
<scales pt_clust_3="31.04574" pt_clust_4="214.06311" pt_clust_5="88.54784" pt_clust_6="14000.00000"></scales>
<clustering>
<clus scale="   31.046">  2  3  1 -1</clus>
<clus scale="   88.548">  1  5  2 -1</clus>
<clus scale="  214.063">  2  4  1 -1</clus>
<clus scale="   31.046">  2  3  1 -1</clus>
</clustering>
</event>
<event>
 6    0  0.3643696E+002  0.5913704E+03  0.7546771E-02  0.9923473E-01
         21   -1    0    0  504  502  0.00000000000E+00  0.00000000000E+00  0.57830855322E+03  0.57830855322E+03  0.00000000000E+00 0.  1.
          2   -1    0    0  505    0 -0.00000000000E+00 -0.00000000000E+00 -0.18130710283E+04  0.18130710283E+04  0.00000000000E+00 0.  1.
         21    1    1    2  503  501  0.36644953040E+02  0.11422741485E+03 -0.17233555039E+03  0.20997689591E+03  0.00000000000E+00 0.  1.
         21    1    1    2  504  503 -0.16362680868E+03 -0.24806063463E+03  0.29081920358E+03  0.41579276105E+03  0.00000000000E+00 0.  1.
         21    1    1    2  505  502 -0.20419256054E+03 -0.43178125143E+03 -0.60723485212E+03  0.77256961919E+03  0.00000000000E+00 0.  1.
          2    1    1    2  501    0  0.33117441618E+03  0.56561447121E+03 -0.74601127617E+03  0.99304030540E+03  0.00000000000E+00 0.  1.
<scales pt_clust_3="34.26103" pt_clust_4="297.16630" pt_clust_5="585.92276" pt_clust_6="34.26103"></scales>
<clustering>
<clus scale="   34.261">  3  6 -1 -1</clus>
<clus scale="  297.166">  1  4  2 -1</clus>
<clus scale="  585.923">  2  5  1 -1</clus>
<clus scale="  297.166">  1  3  2 -1</clus>
</clustering>
</event>
<event>
 6    0  0.3643696E+002  0.2280838E+03  0.7546771E-02  0.1127996E+00
         21   -1    0    0  501  502  0.00000000000E+00  0.00000000000E+00  0.89210340540E+02  0.89210340540E+02  0.00000000000E+00 0.  1.
          2   -1    0    0  505    0 -0.00000000000E+00 -0.00000000000E+00 -0.31056872329E+04  0.31056872329E+04  0.00000000000E+00 0.  1.
         21    1    1    2  503  502  0.40635005370E+02 -0.31311400243E+02  0.44485521932E+02  0.67901171626E+02  0.00000000000E+00 0.  1.
         21    1    1    2  504  503 -0.85442028613E+02 -0.74459762995E+02 -0.34163817528E+03  0.35994616176E+03  0.00000000000E+00 0. -1.
         21    1    1    2  505  504  0.39884068543E+02 -0.15368300137E+03 -0.35949823883E+03  0.39299896635E+03  0.00000000000E+00 0. -1.
          2    1    1    2  501    0  0.49229546994E+01  0.25945416460E+03 -0.23598260001E+04  0.23740512737E+04  0.00000000000E+00 0.  1.
<scales pt_clust_3="51.29920" pt_clust_4="111.42026" pt_clust_5="14000.00000" pt_clust_6="228.08380"></scales>
<clustering>
<clus scale="   51.299">  1  3  2 -1</clus>
<clus scale="  111.420">  1  4  2 -1</clus>
<clus scale="  228.084">  2  6  1 -1</clus>
<clus scale="   51.299">  1  3  2 -1</clus>
</clustering>
</event>
<event>
 6    0  0.3643696E+002  0.9705366E+02  0.7546771E-02  0.1286617E+00
          4   -1    0    0  504    0 -0.00000000000E+00  0.00000000000E+00  0.62620437115E+03  0.62620437115E+03  0.00000000000E+00 0. -1.
         21   -1    0    0  503  502  0.00000000000E+00 -0.00000000000E+00 -0.13287027609E+03  0.13287027609E+03  0.00000000000E+00 0. -1.
         21    1    1    2  503  501 -0.22711060377E+02  0.52024997164E+02  0.30420195948E+02  0.64403267889E+02  0.00000000000E+00 0.  1.
         21    1    1    2  504  505 -0.32259150737E+02  0.15827216184E+02  0.30035145984E+03  0.30249322804E+03  0.00000000000E+00 0.  1.
         21    1    1    2  505  502  0.16873645109E+01 -0.14438242700E+03 -0.55751800845E+02  0.15478176806E+03  0.00000000000E+00 0. -1.
          4    1    1    2  501    0  0.53282846603E+02  0.76530213654E+02  0.21831424012E+03  0.23739638325E+03  0.00000000000E+00 0. -1.
<scales pt_clust_3="60.86224" pt_clust_4="35.93263" pt_clust_5="14000.00000" pt_clust_6="97.05366"></scales>
<clustering>
<clus scale="   35.933">  1  4  2 -1</clus>
<clus scale="   60.862">  2  3  1 -1</clus>
<clus scale="   97.054">  1  6  2 -1</clus>
<clus scale="   60.862">  2  3  1 -1</clus>
</clustering>
</event>
<event>
 6    0  0.3643696E+002  0.1879261E+03  0.7546771E-02  0.1160345E+00
         21   -1    0    0  504  502  0.00000000000E+00  0.00000000000E+00  0.64730266955E+03  0.64730266955E+03  0.00000000000E+00 0. -1.
          2   -1    0    0  503    0 -0.00000000000E+00 -0.00000000000E+00 -0.12384532256E+04  0.12384532256E+04  0.00000000000E+00 0.  1.
         21    1    1    2  503  505 -0.11972140363E+02 -0.35828461869E+02 -0.36773954600E+02  0.52719394550E+02  0.00000000000E+00 0.  1.
         21    1    1    2  504  501  0.29987258106E+02  0.30895447107E+02 -0.68713761453E+00  0.43060846006E+02  0.00000000000E+00 0.  1.
         21    1    1    2  505  502  0.12670962073E+03  0.76102745630E+02  0.60363509138E+03  0.62146784263E+03  0.00000000000E+00 0. -1.
          2    1    1    2  501    0 -0.14472473847E+03 -0.71169730868E+02 -0.11573245552E+04  0.11685078119E+04  0.00000000000E+00 0.  1.
<scales pt_clust_3="37.77580" pt_clust_4="42.43251" pt_clust_5="187.92613" pt_clust_6="14000.00000"></scales>
<clustering>
<clus scale="   37.776">  2  3  1 -1</clus>
<clus scale="   42.433">  1  4  2 -1</clus>
<clus scale="  187.926">  1  5  2 -1</clus>
<clus scale="   42.433">  1  3  2 -1</clus>
</clustering>
</event>
<event>
 6    0  0.3643696E+002  0.8646512E+02  0.7546771E-02  0.1311645E+00
         21   -1    0    0  505  502  0.00000000000E+00  0.00000000000E+00  0.59411967424E+03  0.59411967424E+03  0.00000000000E+00 0.  1.
          2   -1    0    0  503    0 -0.00000000000E+00 -0.00000000000E+00 -0.91617165041E+03  0.91617165041E+03  0.00000000000E+00 0. -1.
         21    1    1    2  503  504  0.18200096558E+02 -0.57636903213E+02 -0.13652889050E+03  0.14930972529E+03  0.00000000000E+00 0. -1.
         21    1    1    2  504  502  0.37057702995E+02 -0.55451490298E+02  0.56128580268E+03  0.56523437035E+03  0.00000000000E+00 0.  1.
         21    1    1    2  505  501  0.60359918074E+02  0.30778165007E+02 -0.48908494437E+02  0.83562288021E+02  0.00000000000E+00 0. -1.
          2    1    1    2  501    0 -0.11561771763E+03  0.82310228504E+02 -0.69790039392E+03  0.71218494099E+03  0.00000000000E+00 0. -1.
<scales pt_clust_3="60.44217" pt_clust_4="66.84257" pt_clust_5="86.46512" pt_clust_6="14000.00000"></scales>
<clustering>
<clus scale="   60.442">  2  3  1 -1</clus>
<clus scale="   66.843">  1  4  2 -1</clus>
<clus scale="   86.465">  1  5  2 -1</clus>
<clus scale="   66.843">  1  3  2 -1</clus>
</clustering>
</event>
<event>
 6    0  0.3643696E+002  0.1579776E+03  0.7546771E-02  0.1190999E+00
         21   -1    0    0  504  502  0.00000000000E+00  0.00000000000E+00  0.33370361631E+02  0.33370361631E+02  0.00000000000E+00 0. -1.
         -2   -1    0    0    0  501 -0.00000000000E+00 -0.00000000000E+00 -0.23153207094E+04  0.23153207094E+04  0.00000000000E+00 0. -1.
         21    1    1    2  503  502  0.79378408985E+02 -0.99082674639E+02 -0.69542138532E+03  0.70691527879E+03  0.00000000000E+00 0. -1.
         21    1    1    2  504  505 -0.68649314436E+02  0.15839660010E+03 -0.27337138917E+03  0.32331737923E+03  0.00000000000E+00 0. -1.
         21    1    1    2  505  501  0.29512118194E+02  0.13031917113E+02 -0.24817169489E+03  0.25025983723E+03  0.00000000000E+00 0.  1.
         -2    1    1    2    0  503 -0.40241212743E+02 -0.72345842574E+02 -0.10649858784E+04  0.10681985758E+04  0.00000000000E+00 0. -1.
<scales pt_clust_3="157.97761" pt_clust_4="14000.00000" pt_clust_5="32.26137" pt_clust_6="70.22157"></scales>
<clustering>
<clus scale="   32.261">  2  5  1 -1</clus>
<clus scale="   70.222">  2  6  1 -1</clus>
<clus scale="  157.978">  2  3  1 -1</clus>
<clus scale="  157.978">  1  3  2 -1</clus>
</clustering>
</event>
<event>
 6    0  0.3643696E+002  0.9663785E+02  0.7546771E-02  0.1287529E+00
          1   -1    0    0  505    0 -0.00000000000E+00  0.00000000000E+00  0.34579323924E+03  0.34579323924E+03  0.00000000000E+00 0. -1.
         21   -1    0    0  504  502  0.00000000000E+00 -0.00000000000E+00 -0.13805191776E+03  0.13805191776E+03  0.00000000000E+00 0.  1.
         21    1    1    2  503  502  0.38555820898E+02 -0.99574473424E+02  0.20430772932E+03  0.23052825281E+03  0.00000000000E+00 0. -1.
         21    1    1    2  504  501 -0.31938091402E+01  0.43780419657E+02 -0.79157890968E+01  0.44604767449E+02  0.00000000000E+00 0.  1.
         21    1    1    2  505  503  0.62541718996E+02  0.64074368914E+02  0.50672602325E+02  0.10288199062E+03  0.00000000000E+00 0.  1.
          1    1    1    2  501    0 -0.97903730754E+02 -0.82803151471E+01 -0.39323221067E+02  0.10583014613E+03  0.00000000000E+00 0. -1.
<scales pt_clust_3="94.45040" pt_clust_4="43.89676" pt_clust_5="96.63785" pt_clust_6="14000.00000"></scales>
<clustering>
<clus scale="   43.897">  2  4  1 -1</clus>
<clus scale="   96.638">  1  5  2 -1</clus>
<clus scale="   94.450">  1  3  2 -1</clus>
<clus scale="   43.897">  2  3  1 -1</clus>
</clustering>
</event>
<event>
 6    0  0.3643696E+002  0.9888818E+02  0.7546771E-02  0.1282651E+00
          2   -1    0    0  503    0 -0.00000000000E+00  0.00000000000E+00  0.18531401477E+04  0.18531401477E+04  0.00000000000E+00 0. -1.
         21   -1    0    0  505  502  0.00000000000E+00 -0.00000000000E+00 -0.12000228367E+03  0.12000228367E+03  0.00000000000E+00 0.  1.
         21    1    1    2  503  504 -0.51245220884E+02 -0.68883382386E+02  0.28033610790E+03  0.29318820990E+03  0.00000000000E+00 0. -1.
         21    1    1    2  504  502 -0.33363424624E+02  0.24031817478E+01 -0.10504234097E+03  0.11023967880E+03  0.00000000000E+00 0.  1.
         21    1    1    2  505  501 -0.22699133989E+02  0.45670232288E+02  0.16779584242E+03  0.17537521357E+03  0.00000000000E+00 0.  1.
          2    1    1    2  501    0  0.10730777950E+03  0.20809968350E+02  0.13900482546E+04  0.13943393291E+04  0.00000000000E+00 0. -1.
<scales pt_clust_3="14000.00000" pt_clust_4="33.44986" pt_clust_5="56.90199" pt_clust_6="98.88818"></scales>
<clustering>
<clus scale="   33.450">  2  4  1 -1</clus>
<clus scale="   56.902">  2  5  1 -1</clus>
<clus scale="   98.888">  1  6  2 -1</clus>
<clus scale="   33.450">  2  3  1 -1</clus>
</clustering>
</event>
<event>
 6    0  0.3643696E+002  0.6434952E+02  0.7546771E-02  0.1380435E+00
          3   -1    0    0  505    0 -0.00000000000E+00  0.00000000000E+00  0.89936281786E+03  0.89936281786E+03  0.00000000000E+00 0. -1.
         21   -1    0    0  501  502  0.00000000000E+00 -0.00000000000E+00 -0.14849338104E+03  0.14849338104E+03  0.00000000000E+00 0. -1.
         21    1    1    2  503  502  0.59733406306E+02  0.23307123125E+02 -0.12157239206E+03  0.13744507386E+03  0.00000000000E+00 0. -1.
         21    1    1    2  504  503  0.56533096900E+02 -0.20236185628E+02  0.95862016228E+02  0.11311507596E+03  0.00000000000E+00 0. -1.
         21    1    1    2  505  504 -0.10316360603E+02 -0.42849074160E+02  0.77845301519E+02  0.89455918871E+02  0.00000000000E+00 0. -1.
          3    1    1    2  501    0 -0.10595014260E+03  0.39778136662E+02  0.69873451113E+03  0.70784013020E+03  0.00000000000E+00 0. -1.
<scales pt_clust_3="64.34952" pt_clust_4="60.91055" pt_clust_5="44.07347" pt_clust_6="14000.00000"></scales>
<clustering>
<clus scale="   44.073">  1  5  2 -1</clus>
<clus scale="   60.911">  1  4  2 -1</clus>
<clus scale="   64.350">  2  3  1 -1</clus>
<clus scale="   64.350">  2  3  1 -1</clus>
</clustering>
</event>
<event>
 6    0  0.3643696E+002  0.7814816E+02  0.7546771E-02  0.1334390E+00
         21   -1    0    0  504  502  0.00000000000E+00  0.00000000000E+00  0.72200169100E+02  0.72200169100E+02  0.00000000000E+00 0. -1.
          1   -1    0    0  502    0 -0.00000000000E+00 -0.00000000000E+00 -0.83670600866E+03  0.83670600866E+03  0.00000000000E+00 0. -1.
         21    1    1    2  503  501 -0.46900234879E+02  0.84250392772E+02 -0.20847743583E+03  0.22969676089E+03  0.00000000000E+00 0. -1.
         21    1    1    2  504  505  0.21021691169E+02 -0.24911233613E+02  0.47111607223E+02  0.57288607898E+02  0.00000000000E+00 0. -1.
         21    1    1    2  505  503  0.49114830982E+02  0.16572890985E+02 -0.10080842701E+03  0.11335460421E+03  0.00000000000E+00 0. -1.
          1    1    1    2  501    0 -0.23236287272E+02 -0.75912050144E+02 -0.50233158394E+03  0.50856620477E+03  0.00000000000E+00 0. -1.
<scales pt_clust_3="14000.00000" pt_clust_4="32.59572" pt_clust_5="56.39280" pt_clust_6="78.14816"></scales>
<clustering>
<clus scale="   32.596">  1  4  2 -1</clus>
<clus scale="   56.393">  1  5  2 -1</clus>
<clus scale="   78.148">  2  6  1 -1</clus>
<clus scale="   32.596">  1  3  2 -1</clus>
</clustering>
</event>
<event>
 6    0  0.3643696E+002  0.1151250E+03  0.7546771E-02  0.1251363E+00
         -1   -1    0    0    0  501 -0.00000000000E+00  0.00000000000E+00  0.27056067698E+03  0.27056067698E+03  0.00000000000E+00 0.  1.
         21   -1    0    0  505  502  0.00000000000E+00 -0.00000000000E+00 -0.10771794549E+04  0.10771794549E+04  0.00000000000E+00 0.  1.
         21    1    1    2  503  502  0.87591548832E+02  0.15072943087E+02 -0.10253004217E+04  0.10291454843E+04  0.00000000000E+00 0.  1.
         21    1    1    2  504  503 -0.49547411672E+02  0.28639235427E+02  0.91318286043E+02  0.10776911049E+03  0.00000000000E+00 0.  1.
         21    1    1    2  505  501  0.57309324572E+02 -0.39401755889E+01  0.17584505028E+02  0.60075772851E+02  0.00000000000E+00 0.  1.
         -1    1    1    2    0  504 -0.95353461732E+02 -0.39772002925E+02  0.10977885280E+03  0.15074976419E+03  0.00000000000E+00 0.  1.
<scales pt_clust_3="89.34208" pt_clust_4="54.03839" pt_clust_5="57.44461" pt_clust_6="54.03839"></scales>
<clustering>
<clus scale="   54.038">  4  6 -1 -1</clus>
<clus scale="   57.445">  1  5  2 -1</clus>
<clus scale="   89.342">  2  3  1 -1</clus>
<clus scale="   89.342">  2  3  1 -1</clus>
</clustering>
</event>
<event>
 6    0  0.3643696E+002  0.2889100E+03  0.7546771E-02  0.1090920E+00
         21   -1    0    0  503  502  0.00000000000E+00  0.00000000000E+00  0.22751914777E+04  0.22751914777E+04  0.00000000000E+00 0.  1.
          4   -1    0    0  505    0 -0.00000000000E+00 -0.00000000000E+00 -0.65015534252E+03  0.65015534252E+03  0.00000000000E+00 0.  1.
         21    1    1    2  503  504 -0.38931233002E+02 -0.49136158017E+02  0.19616615739E+04  0.19626630209E+04  0.00000000000E+00 0.  1.
         21    1    1    2  504  501 -0.98084716570E+02 -0.21397640437E+03  0.19025002838E+03  0.30265754005E+03  0.00000000000E+00 0. -1.
         21    1    1    2  505  502 -0.60677706058E+02 -0.30756958877E+01 -0.12532387959E+03  0.13927425718E+03  0.00000000000E+00 0.  1.
          4    1    1    2  501    0  0.19769365563E+03  0.26618825827E+03 -0.40155158750E+03  0.52075200215E+03  0.00000000000E+00 0.  1.
<scales pt_clust_3="62.72852" pt_clust_4="14000.00000" pt_clust_5="60.75561" pt_clust_6="288.91004"></scales>
<clustering>
<clus scale="   60.756">  2  5  1 -1</clus>
<clus scale="   62.729">  1  3  2 -1</clus>
<clus scale="  288.910">  2  6  1 -1</clus>
<clus scale="   62.729">  1  3  2 -1</clus>
</clustering>
</event>
<event>
 6    0  0.3643696E+002  0.1089313E+03  0.7546771E-02  0.1262562E+00
          2   -1    0    0  503    0 -0.00000000000E+00  0.00000000000E+00  0.13090863937E+04  0.13090863937E+04  0.00000000000E+00 0. -1.
         21   -1    0    0  504  502  0.00000000000E+00 -0.00000000000E+00 -0.68773111271E+03  0.68773111271E+03  0.00000000000E+00 0.  1.
         21    1    1    2  503  502 -0.18813273819E+02  0.24248278639E+02  0.24340799100E+02  0.39171326115E+02  0.00000000000E+00 0. -1.
         21    1    1    2  504  505 -0.10336198274E+03 -0.37791960539E+02 -0.65827203852E+03  0.66740842702E+03  0.00000000000E+00 0.  1.
         21    1    1    2  505  501  0.88471290042E+02 -0.66179267392E+02  0.17814796750E+03  0.20962719985E+03  0.00000000000E+00 0.  1.
          2    1    1    2  501    0  0.33703966521E+02  0.79722949292E+02  0.10771385529E+04  0.10806105534E+04  0.00000000000E+00 0. -1.
<scales pt_clust_3="30.69069" pt_clust_4="14000.00000" pt_clust_5="108.93129" pt_clust_6="101.77492"></scales>
<clustering>
<clus scale="   30.691">  1  3  2 -1</clus>
<clus scale="  101.775">  1  6  2 -1</clus>
<clus scale="  108.931">  1  5  2 -1</clus>
<clus scale="  108.931">  2  3  1 -1</clus>
</clustering>
</event>
<event>
 6    0  0.3643696E+002  0.1148411E+03  0.7546771E-02  0.1251859E+00
         21   -1    0    0  503  502  0.00000000000E+00  0.00000000000E+00  0.31786760182E+02  0.31786760182E+02  0.00000000000E+00 0.  1.
          2   -1    0    0  504    0 -0.00000000000E+00 -0.00000000000E+00 -0.10477548158E+04  0.10477548158E+04  0.00000000000E+00 0.  1.
         21    1    1    2  503  505  0.47256802811E+01 -0.34602340255E+02 -0.30371383644E+02  0.46282555565E+02  0.00000000000E+00 0.  1.
         21    1    1    2  504  502 -0.95698816265E+02  0.86808932321E+02 -0.18926415006E+03  0.22916145545E+03  0.00000000000E+00 0.  1.
         21    1    1    2  505  501  0.30260520225E+02 -0.37938469289E+02 -0.38974634926E+03  0.39275595896E+03  0.00000000000E+00 0. -1.
          2    1    1    2  501    0  0.60712615759E+02 -0.14268122778E+02 -0.40658617260E+03  0.41134160596E+03  0.00000000000E+00 0.  1.
<scales pt_clust_3="34.92355" pt_clust_4="108.45600" pt_clust_5="33.30790" pt_clust_6="33.30790"></scales>
<clustering>
<clus scale="   33.308">  5  6 -1 -1</clus>
<clus scale="   34.924">  1  3  2 -1</clus>
<clus scale="  108.456">  1  4  2 -1</clus>
<clus scale="   34.924">  1  3  2 -1</clus>
</clustering>
</event>
<event>
 6    0  0.3643696E+002  0.1284471E+03  0.7546771E-02  0.1229778E+00
         21   -1    0    0  503  502  0.00000000000E+00  0.00000000000E+00  0.68558083317E+02  0.68558083317E+02  0.00000000000E+00 0.  1.
          2   -1    0    0  505    0 -0.00000000000E+00 -0.00000000000E+00 -0.14756058067E+04  0.14756058067E+04  0.00000000000E+00 0.  1.
         21    1    1    2  503  501  0.24764518387E+02  0.19513488438E+02 -0.64184024225E+02  0.71509765541E+02  0.00000000000E+00 0.  1.
         21    1    1    2  504  502  0.11013015969E+02 -0.14548207067E+03 -0.33948528171E+02  0.14979593443E+03  0.00000000000E+00 0.  1.
         21    1    1    2  505  504 -0.67459409367E+02  0.16723973918E+02 -0.32234721489E+03  0.32975474245E+03  0.00000000000E+00 0.  1.
          2    1    1    2  501    0  0.31681875011E+02  0.10924460831E+03 -0.98656795613E+03  0.99310344764E+03  0.00000000000E+00 0.  1.
<scales pt_clust_3="31.52868" pt_clust_4="128.44712" pt_clust_5="68.41242" pt_clust_6="14000.00000"></scales>
<clustering>
<clus scale="   31.529">  1  3  2 -1</clus>
<clus scale="   68.412">  2  5  1 -1</clus>
<clus scale="  128.447">  1  4  2 -1</clus>
<clus scale="   31.529">  1  3  2 -1</clus>
</clustering>
</event>
<event>
 6    0  0.3643696E+002  0.1006194E+03  0.7546771E-02  0.1278999E+00
         21   -1    0    0  501  502  0.00000000000E+00  0.00000000000E+00  0.13098763605E+04  0.13098763605E+04  0.00000000000E+00 0. -1.
          2   -1    0    0  505    0 -0.00000000000E+00 -0.00000000000E+00 -0.40259949233E+03  0.40259949233E+03  0.00000000000E+00 0.  1.
         21    1    1    2  503  504  0.44174736942E+02  0.67990726643E+02  0.24046141181E+02  0.84571645361E+02  0.00000000000E+00 0.  1.
         21    1    1    2  504  502  0.47870173548E+02  0.51718478143E+01  0.12406716604E+04  0.12416056018E+04  0.00000000000E+00 0. -1.
         21    1    1    2  505  503 -0.19445647860E+02 -0.55226036203E+02 -0.81154797329E+02  0.10007072212E+03  0.00000000000E+00 0. -1.
          2    1    1    2  501    0 -0.72599262630E+02 -0.17936538254E+02 -0.27628613607E+03  0.28622788356E+03  0.00000000000E+00 0.  1.
<scales pt_clust_3="14000.00000" pt_clust_4="48.14874" pt_clust_5="56.01048" pt_clust_6="100.61941"></scales>
<clustering>
<clus scale="   48.149">  1  4  2 -1</clus>
<clus scale="   56.010">  2  5  1 -1</clus>
<clus scale="  100.619">  2  6  1 -1</clus>
<clus scale="   48.149">  1  3  2 -1</clus>
</clustering>
</event>
<event>
 6    0  0.3643696E+002  0.7454573E+02  0.7546771E-02  0.1345284E+00
          3   -1    0    0  503    0 -0.00000000000E+00  0.00000000000E+00  0.37860302408E+04  0.37860302408E+04  0.00000000000E+00 0.  1.
         21   -1    0    0  501  502  0.00000000000E+00 -0.00000000000E+00 -0.22749493889E+02  0.22749493889E+02  0.00000000000E+00 0. -1.
         21    1    1    2  503  504  0.15151518254E+02 -0.72153772188E+02  0.31309180976E+04  0.31317860509E+04  0.00000000000E+00 0.  1.
         21    1    1    2  504  505 -0.26095442792E+02  0.82837140537E+02  0.29203981660E+03  0.30468051869E+03  0.00000000000E+00 0. -1.
         21    1    1    2  505  502 -0.48952936979E+02 -0.12103398519E+02  0.35528380682E+02  0.61685882732E+02  0.00000000000E+00 0. -1.
          3    1    1    2  501    0  0.59896861517E+02  0.14200301694E+01  0.30479445206E+03  0.31062728230E+03  0.00000000000E+00 0.  1.
<scales pt_clust_3="14000.00000" pt_clust_4="74.54573" pt_clust_5="50.42700" pt_clust_6="45.18913"></scales>
<clustering>
<clus scale="   50.427">  2  5  1 -1</clus>
<clus scale="   45.189">  2  6  1 -1</clus>
<clus scale="   74.546">  2  4  1 -1</clus>
<clus scale="   50.427">  2  3  1 -1</clus>
</clustering>
</event>
<event>
 6    0  0.3643696E+002  0.1269829E+03  0.7546771E-02  0.1232003E+00
         -1   -1    0    0    0  501 -0.00000000000E+00  0.00000000000E+00  0.22802272225E+03  0.22802272225E+03  0.00000000000E+00 0. -1.
         21   -1    0    0  503  502  0.00000000000E+00 -0.00000000000E+00 -0.19554282229E+04  0.19554282229E+04  0.00000000000E+00 0. -1.
         21    1    1    2  503  501 -0.31230892867E+02  0.11407062104E+02 -0.39762369731E+02  0.51831802803E+02  0.00000000000E+00 0. -1.
         21    1    1    2  504  502 -0.43213796801E+02 -0.10917121427E+03 -0.18880075661E+04  0.18916549252E+04  0.00000000000E+00 0. -1.
         21    1    1    2  505  504  0.57820489908E+02  0.41427235697E+02  0.87808121732E+02  0.11300305816E+03  0.00000000000E+00 0. -1.
         -1    1    1    2    0  505  0.16624199760E+02  0.56336916472E+02  0.11255631351E+03  0.12696115897E+03  0.00000000000E+00 0. -1.
<scales pt_clust_3="33.24891" pt_clust_4="117.42050" pt_clust_5="47.81819" pt_clust_6="47.81819"></scales>
<clustering>
<clus scale="   33.249">  1  3  2 -1</clus>
<clus scale="   47.818">  5  6 -1 -1</clus>
<clus scale="  117.421">  2  4  1 -1</clus>
<clus scale="  117.421">  2  3  1 -1</clus>
</clustering>
</event>
<event>
 6    0  0.3643696E+002  0.1124490E+03  0.7546771E-02  0.1256101E+00
          2   -1    0    0  504    0 -0.00000000000E+00  0.00000000000E+00  0.16851486730E+04  0.16851486730E+04  0.00000000000E+00 0.  1.
         21   -1    0    0  505  502  0.00000000000E+00 -0.00000000000E+00 -0.63535254043E+03  0.63535254043E+03  0.00000000000E+00 0.  1.
         21    1    1    2  503  502 -0.63872083262E+02 -0.58316823770E+02  0.43273338774E+02  0.96711306493E+02  0.00000000000E+00 0.  1.
         21    1    1    2  504  503  0.69905869847E-01  0.57356915044E+02  0.49383774979E+03  0.49715746369E+03  0.00000000000E+00 0.  1.
         21    1    1    2  505  501 -0.75191356618E+02 -0.83338413214E+02 -0.59580516336E+03  0.60628609081E+03  0.00000000000E+00 0.  1.
          2    1    1    2  501    0  0.13899353401E+03  0.84298321939E+02  0.11084902074E+04  0.11203463525E+04  0.00000000000E+00 0.  1.
<scales pt_clust_3="84.24827" pt_clust_4="57.35696" pt_clust_5="112.44900" pt_clust_6="14000.00000"></scales>
<clustering>
<clus scale="   57.357">  1  4  2 -1</clus>
<clus scale="   84.248">  1  3  2 -1</clus>
<clus scale="  112.449">  2  5  1 -1</clus>
<clus scale="  112.449">  2  3  1 -1</clus>
</clustering>
</event>
<event>
 6    0  0.3643696E+002  0.6731096E+02  0.7546771E-02  0.1369484E+00
         21   -1    0    0  505  502  0.00000000000E+00  0.00000000000E+00  0.39916993646E+03  0.39916993646E+03  0.00000000000E+00 0. -1.
          2   -1    0    0  504    0 -0.00000000000E+00 -0.00000000000E+00 -0.52105620080E+03  0.52105620080E+03  0.00000000000E+00 0. -1.
         21    1    1    2  503  502 -0.32996078199E+02  0.40524803561E+02 -0.80078899591E+02  0.95622335465E+02  0.00000000000E+00 0. -1.
         21    1    1    2  504  503  0.42039697573E+02  0.26436757689E+02 -0.11031837610E+03  0.12098091764E+03  0.00000000000E+00 0.  1.
         21    1    1    2  505  501 -0.60269308181E+02  0.29513090552E+02  0.37359486088E+03  0.37957414572E+03  0.00000000000E+00 0. -1.
          2    1    1    2  501    0  0.51225688807E+02 -0.96474651801E+02 -0.30508384954E+03  0.32404873843E+03  0.00000000000E+00 0. -1.
<scales pt_clust_3="52.05712" pt_clust_4="49.66124" pt_clust_5="67.31096" pt_clust_6="14000.00000"></scales>
<clustering>
<clus scale="   49.661">  2  4  1 -1</clus>
<clus scale="   52.057">  2  3  1 -1</clus>
<clus scale="   67.311">  1  5  2 -1</clus>
<clus scale="   67.311">  1  3  2 -1</clus>
</clustering>
</event>
<event>
 6    0  0.3643696E+002  0.9242741E+02  0.7546771E-02  0.1297078E+00
          2   -1    0    0  503    0 -0.00000000000E+00  0.00000000000E+00  0.18998913388E+04  0.18998913388E+04  0.00000000000E+00 0. -1.
         21   -1    0    0  501  502  0.00000000000E+00 -0.00000000000E+00 -0.58807243810E+02  0.58807243810E+02  0.00000000000E+00 0.  1.
         21    1    1    2  503  505  0.36469916700E+02  0.84284540125E+02  0.17063409603E+04  0.17088105253E+04  0.00000000000E+00 0. -1.
         21    1    1    2  504  502  0.42613251555E+02 -0.40319415361E+02  0.27598374830E+02  0.64832204624E+02  0.00000000000E+00 0.  1.
         21    1    1    2  505  504 -0.83616838672E+02 -0.77960693373E+02  0.95097252664E+02  0.14870485159E+03  0.00000000000E+00 0.  1.
          2    1    1    2  501    0  0.45336704166E+01  0.33995568608E+02  0.12047507194E+02  0.36351001115E+02  0.00000000000E+00 0. -1.
<scales pt_clust_3="92.42741" pt_clust_4="51.85681" pt_clust_5="14000.00000" pt_clust_6="34.29654"></scales>
<clustering>
<clus scale="   34.297">  2  6  1 -1</clus>
<clus scale="   51.857">  2  4  1 -1</clus>
<clus scale="   92.427">  1  3  2 -1</clus>
<clus scale="   34.297">  2  3  1 -1</clus>
</clustering>
</event>
<event>
 6    0  0.3643696E+002  0.8120051E+02  0.7546771E-02  0.1325679E+00
          2   -1    0    0  505    0 -0.00000000000E+00  0.00000000000E+00  0.76431711022E+03  0.76431711022E+03  0.00000000000E+00 0.  1.
         21   -1    0    0  501  502  0.00000000000E+00 -0.00000000000E+00 -0.14754225336E+03  0.14754225336E+03  0.00000000000E+00 0.  1.
         21    1    1    2  503  502 -0.37178837855E+02 -0.13839153744E+01 -0.11386112170E+03  0.11978537574E+03  0.00000000000E+00 0.  1.
         21    1    1    2  504  503  0.97135695999E+02  0.16532163612E+02  0.11084700719E+03  0.14830952388E+03  0.00000000000E+00 0.  1.
         21    1    1    2  505  504 -0.73211876723E+02  0.61806741841E+02  0.35479697968E+03  0.36750639316E+03  0.00000000000E+00 0.  1.
          2    1    1    2  501    0  0.13255018579E+02 -0.76954990079E+02  0.26499199170E+03  0.27625807080E+03  0.00000000000E+00 0.  1.
<scales pt_clust_3="37.20459" pt_clust_4="76.10014" pt_clust_5="81.20051" pt_clust_6="14000.00000"></scales>
<clustering>
<clus scale="   37.205">  2  3  1 -1</clus>
<clus scale="   76.100">  2  4  1 -1</clus>
<clus scale="   81.201">  2  5  1 -1</clus>
<clus scale="   37.205">  2  3  1 -1</clus>
</clustering>
</event>
<event>
 6    0  0.3643696E+002  0.1349993E+03  0.7546771E-02  0.1220221E+00
          1   -1    0    0  504    0 -0.00000000000E+00  0.00000000000E+00  0.31295822488E+03  0.31295822488E+03  0.00000000000E+00 0. -1.
         21   -1    0    0  505  502  0.00000000000E+00 -0.00000000000E+00 -0.76060949731E+03  0.76060949731E+03  0.00000000000E+00 0.  1.
         21    1    1    2  503  502 -0.99875379234E+02 -0.71520061726E+02 -0.70951441065E+03  0.72007007265E+03  0.00000000000E+00 0.  1.
         21    1    1    2  504  503 -0.37999196828E+02  0.44915855635E+02  0.98351734788E+01  0.59649842283E+02  0.00000000000E+00 0. -1.
         21    1    1    2  505  501  0.84676968967E+02 -0.52847236037E+01  0.11040340748E+03  0.13923731454E+03  0.00000000000E+00 0.  1.
          1    1    1    2  501    0  0.53197607095E+02  0.31888929695E+02  0.14162455726E+03  0.15461049271E+03  0.00000000000E+00 0. -1.
<scales pt_clust_3="122.93725" pt_clust_4="58.83343" pt_clust_5="47.69146" pt_clust_6="47.69146"></scales>
<clustering>
<clus scale="   47.691">  5  6 -1 -1</clus>
<clus scale="   58.833">  1  4  2 -1</clus>
<clus scale="  122.937">  2  3  1 -1</clus>
<clus scale="  122.937">  2  3  1 -1</clus>
</clustering>
</event>
<event>
 6    0  0.3643696E+002  0.1170365E+03  0.7546771E-02  0.1248068E+00
          2   -1    0    0  504    0 -0.00000000000E+00  0.00000000000E+00  0.18619249331E+04  0.18619249331E+04  0.00000000000E+00 0. -1.
         21   -1    0    0  503  502  0.00000000000E+00 -0.00000000000E+00 -0.36690754908E+02  0.36690754908E+02  0.00000000000E+00 0.  1.
         21    1    1    2  503  501  0.80831279926E+02  0.57312525716E+01  0.71193345007E+03  0.71653037647E+03  0.00000000000E+00 0. -1.
         21    1    1    2  504  505 -0.81830734961E+02  0.31028511167E+02  0.53020079944E+03  0.53737503238E+03  0.00000000000E+00 0.  1.
         21    1    1    2  505  502 -0.51625659824E+02 -0.85956985835E+01 -0.59234018408E+01  0.52670499104E+02  0.00000000000E+00 0.  1.
          2    1    1    2  501    0  0.52625114859E+02 -0.28164065155E+02  0.58902333049E+03  0.59203978004E+03  0.00000000000E+00 0. -1.
<scales pt_clust_3="33.82668" pt_clust_4="110.20010" pt_clust_5="52.33636" pt_clust_6="33.82668"></scales>
<clustering>
<clus scale="   33.827">  3  6 -1 -1</clus>
<clus scale="   52.336">  2  5  1 -1</clus>
<clus scale="  110.200">  2  4  1 -1</clus>
<clus scale="   52.336">  2  3  1 -1</clus>
</clustering>
</event>
<event>
 6    0  0.3643696E+002  0.7541545E+02  0.7546771E-02  0.1342589E+00
          2   -1    0    0  503    0 -0.00000000000E+00  0.00000000000E+00  0.48103187290E+03  0.48103187290E+03  0.00000000000E+00 0.  1.
         21   -1    0    0  504  502  0.00000000000E+00 -0.00000000000E+00 -0.71726296695E+02  0.71726296695E+02  0.00000000000E+00 0.  1.
         21    1    1    2  503  505  0.50588265881E+02 -0.32736258451E+02  0.73756900666E+02  0.95241354769E+02  0.00000000000E+00 0.  1.
         21    1    1    2  504  501  0.13292924159E+02  0.97577924503E+02  0.20228502361E+03  0.22498307483E+03  0.00000000000E+00 0.  1.
         21    1    1    2  505  502  0.37924972122E+01 -0.30805892580E+02 -0.35736216184E+02  0.47333531454E+02  0.00000000000E+00 0.  1.
          2    1    1    2  501    0 -0.67673687252E+02 -0.34035773473E+02  0.16899986811E+03  0.18520020854E+03  0.00000000000E+00 0.  1.
<scales pt_clust_3="67.87457" pt_clust_4="14000.00000" pt_clust_5="31.03846" pt_clust_6="75.41545"></scales>
<clustering>
<clus scale="   31.038">  2  5  1 -1</clus>
<clus scale="   67.875">  2  3  1 -1</clus>
<clus scale="   75.415">  1  6  2 -1</clus>
<clus scale="   31.038">  2  3  1 -1</clus>
</clustering>
</event>
<event>
 6    0  0.3643696E+002  0.1039167E+03  0.7546771E-02  0.1272269E+00
          2   -1    0    0  504    0 -0.00000000000E+00  0.00000000000E+00  0.77735334686E+03  0.77735334686E+03  0.00000000000E+00 0. -1.
         21   -1    0    0  503  502  0.00000000000E+00 -0.00000000000E+00 -0.89682798972E+02  0.89682798972E+02  0.00000000000E+00 0. -1.
         21    1    1    2  503  501 -0.16504813315E+02 -0.31849709387E+02 -0.15734965550E+02  0.39171443572E+02  0.00000000000E+00 0. -1.
         21    1    1    2  504  505 -0.83773361183E+02  0.52877797601E+02  0.18669688312E+03  0.21135222660E+03  0.00000000000E+00 0. -1.
         21    1    1    2  505  502  0.55362458826E+02 -0.13575209987E+03  0.45634445058E+03  0.47931606696E+03  0.00000000000E+00 0. -1.
          2    1    1    2  501    0  0.44915715672E+02  0.11472401166E+03  0.60364179736E+02  0.13719640870E+03  0.00000000000E+00 0. -1.
<scales pt_clust_3="35.87217" pt_clust_4="98.71723" pt_clust_5="103.91673" pt_clust_6="14000.00000"></scales>
<clustering>
<clus scale="   35.872">  2  3  1 -1</clus>
<clus scale="   98.717">  1  4  2 -1</clus>
<clus scale="  103.917">  1  5  2 -1</clus>
<clus scale="   35.872">  2  3  1 -1</clus>
</clustering>
</event>
<event>
 6    0  0.3643696E+002  0.8220888E+02  0.7546771E-02  0.1322897E+00
         21   -1    0    0  503  502  0.00000000000E+00  0.00000000000E+00  0.30008269544E+02  0.30008269544E+02  0.00000000000E+00 0.  1.
          2   -1    0    0  504    0 -0.00000000000E+00 -0.00000000000E+00 -0.15073375005E+04  0.15073375005E+04  0.00000000000E+00 0.  1.
         21    1    1    2  503  501 -0.74386298154E+02  0.95365531041E+01 -0.37767197952E+03  0.38504596000E+03  0.00000000000E+00 0.  1.
         21    1    1    2  504  505  0.54084537239E+02  0.48414857470E+02 -0.38216472584E+03  0.38899744636E+03  0.00000000000E+00 0.  1.
         21    1    1    2  505  502  0.68599271345E+02 -0.51146264051E+02 -0.61202506860E+02  0.10520241063E+03  0.00000000000E+00 0.  1.
          2    1    1    2  501    0 -0.48297510430E+02 -0.68051465224E+01 -0.65629001871E+03  0.65809995304E+03  0.00000000000E+00 0.  1.
<scales pt_clust_3="14000.00000" pt_clust_4="55.58928" pt_clust_5="82.20888" pt_clust_6="48.77458"></scales>
<clustering>
<clus scale="   48.775">  2  6  1 -1</clus>
<clus scale="   55.589">  2  4  1 -1</clus>
<clus scale="   82.209">  1  5  2 -1</clus>
<clus scale="   82.209">  1  3  2 -1</clus>
</clustering>
</event>
<event>
 6    0  0.3643696E+002  0.8905826E+02  0.7546771E-02  0.1305148E+00
         21   -1    0    0  503  502  0.00000000000E+00  0.00000000000E+00  0.23509499893E+03  0.23509499893E+03  0.00000000000E+00 0. -1.
          2   -1    0    0  504    0 -0.00000000000E+00 -0.00000000000E+00 -0.14869279697E+04  0.14869279697E+04  0.00000000000E+00 0.  1.
         21    1    1    2  503  501 -0.15211703140E+02  0.31164733477E+02 -0.23437289347E+02  0.41856218857E+02  0.00000000000E+00 0.  1.
         21    1    1    2  504  505  0.21642667779E+02 -0.29443389228E+02 -0.25369768928E+03  0.25631589062E+03  0.00000000000E+00 0. -1.
         21    1    1    2  505  502 -0.57804105618E+01 -0.11638740448E+03  0.20649407241E+03  0.23710597421E+03  0.00000000000E+00 0. -1.
          2    1    1    2  501    0 -0.65055407778E+00  0.11466606023E+03 -0.11811920646E+04  0.11867448849E+04  0.00000000000E+00 0.  1.
<scales pt_clust_3="34.67905" pt_clust_4="36.34428" pt_clust_5="89.05826" pt_clust_6="14000.00000"></scales>
<clustering>
<clus scale="   34.679">  1  3  2 -1</clus>
<clus scale="   36.344">  2  4  1 -1</clus>
<clus scale="   89.058">  1  5  2 -1</clus>
<clus scale="   34.679">  1  3  2 -1</clus>
</clustering>
</event>
<event>
 6    0  0.3643696E+002  0.7657162E+02  0.7546771E-02  0.1339072E+00
          2   -1    0    0  505    0 -0.00000000000E+00  0.00000000000E+00  0.42552857362E+03  0.42552857362E+03  0.00000000000E+00 0.  1.
         21   -1    0    0  501  502  0.00000000000E+00 -0.00000000000E+00 -0.42048727800E+03  0.42048727800E+03  0.00000000000E+00 0. -1.
         21    1    1    2  503  502 -0.73272698009E+02  0.22976447168E+02 -0.35928723367E+03  0.36740185312E+03  0.00000000000E+00 0. -1.
         21    1    1    2  504  503 -0.34420179512E+01 -0.10045184545E+03  0.43155940193E+02  0.10938398382E+03  0.00000000000E+00 0.  1.
         21    1    1    2  505  504  0.52244444625E+02  0.21250212942E+02  0.29861255670E+03  0.30389227131E+03  0.00000000000E+00 0.  1.
          2    1    1    2  501    0  0.24470271335E+02  0.56225185342E+02  0.22560032392E+02  0.65337743361E+02  0.00000000000E+00 0.  1.
<scales pt_clust_3="75.37985" pt_clust_4="14000.00000" pt_clust_5="56.40083" pt_clust_6="76.57162"></scales>
<clustering>
<clus scale="   56.401">  1  5  2 -1</clus>
<clus scale="   75.380">  2  3  1 -1</clus>
<clus scale="   76.572">  2  6  1 -1</clus>
<clus scale="   75.380">  2  3  1 -1</clus>
</clustering>
</event>
<event>
 6    0  0.3643696E+002  0.8388254E+02  0.7546771E-02  0.1318381E+00
          2   -1    0    0  503    0 -0.00000000000E+00  0.00000000000E+00  0.15531723954E+04  0.15531723954E+04  0.00000000000E+00 0. -1.
         21   -1    0    0  504  502  0.00000000000E+00 -0.00000000000E+00 -0.28139422963E+03  0.28139422963E+03  0.00000000000E+00 0.  1.
         21    1    1    2  503  505 -0.40086423554E+02  0.66367513247E+02  0.59998378876E+03  0.60497282165E+03  0.00000000000E+00 0. -1.
         21    1    1    2  504  501  0.46517166802E+02  0.41009674798E+02  0.74775630543E+02  0.97144403634E+02  0.00000000000E+00 0. -1.
         21    1    1    2  505  502  0.44751981688E+02 -0.86950483250E+01 -0.26216732678E+03  0.26610158015E+03  0.00000000000E+00 0.  1.
          2    1    1    2  501    0 -0.51182724936E+02 -0.98682139720E+02  0.85918607328E+03  0.86634781961E+03  0.00000000000E+00 0. -1.
<scales pt_clust_3="73.27773" pt_clust_4="14000.00000" pt_clust_5="45.58886" pt_clust_6="83.88254"></scales>
<clustering>
<clus scale="   45.589">  2  5  1 -1</clus>
<clus scale="   73.278">  1  3  2 -1</clus>
<clus scale="   83.883">  1  6  2 -1</clus>
<clus scale="   45.589">  2  3  1 -1</clus>
</clustering>
</event>
<event>
 6    0  0.3643696E+002  0.1107330E+03  0.7546771E-02  0.1259218E+00
         21   -1    0    0  504  502  0.00000000000E+00  0.00000000000E+00  0.24687079669E+02  0.24687079669E+02  0.00000000000E+00 0. -1.
          2   -1    0    0  505    0 -0.00000000000E+00 -0.00000000000E+00 -0.22926382499E+04  0.22926382499E+04  0.00000000000E+00 0.  1.
         21    1    1    2  503  502  0.15892231436E+02  0.11617332185E+03 -0.18057521334E+03  0.21530492657E+03  0.00000000000E+00 0. -1.
         21    1    1    2  504  501  0.16150240428E+02 -0.73860238751E+02 -0.11917402351E+04  0.11941360698E+04  0.00000000000E+00 0. -1.
         21    1    1    2  505  503  0.47455393958E+02 -0.46418843568E+02 -0.32381751867E+03  0.33055182475E+03  0.00000000000E+00 0.  1.
          2    1    1    2  501    0 -0.79497865822E+02  0.41057604689E+01 -0.57181820305E+03  0.57733250842E+03  0.00000000000E+00 0.  1.
<scales pt_clust_3="110.73300" pt_clust_4="14000.00000" pt_clust_5="66.38316" pt_clust_6="66.30382"></scales>
<clustering>
<clus scale="   66.383">  2  5  1 -1</clus>
<clus scale="   66.304">  2  6  1 -1</clus>
<clus scale="  110.733">  1  3  2 -1</clus>
<clus scale="  110.733">  1  3  2 -1</clus>
</clustering>
</event>
<event>
 6    0  0.3643696E+002  0.8322128E+02  0.7546771E-02  0.1320151E+00
         21   -1    0    0  503  502  0.00000000000E+00  0.00000000000E+00  0.34711800794E+02  0.34711800794E+02  0.00000000000E+00 0.  1.
          2   -1    0    0  505    0 -0.00000000000E+00 -0.00000000000E+00 -0.20994761502E+04  0.20994761502E+04  0.00000000000E+00 0.  1.
         21    1    1    2  503  501 -0.84014678150E+02  0.12271542868E+03 -0.18689515387E+03  0.23884585221E+03  0.00000000000E+00 0.  1.
         21    1    1    2  504  502  0.30825780231E+02 -0.51831884211E+02 -0.13381351190E+03  0.14677475571E+03  0.00000000000E+00 0.  1.
         21    1    1    2  505  504  0.86172380133E+01 -0.33542438287E+02 -0.13297878125E+04  0.13302386922E+04  0.00000000000E+00 0.  1.
          2    1    1    2  501    0  0.44571659906E+02 -0.37341106182E+02 -0.41426787117E+03  0.41832865090E+03  0.00000000000E+00 0.  1.
<scales pt_clust_3="83.22128" pt_clust_4="66.38889" pt_clust_5="34.63166" pt_clust_6="14000.00000"></scales>
<clustering>
<clus scale="   34.632">  2  5  1 -1</clus>
<clus scale="   66.389">  1  4  2 -1</clus>
<clus scale="   83.221">  1  3  2 -1</clus>
<clus scale="   66.389">  1  3  2 -1</clus>
</clustering>
</event>
<event>
 6    0  0.3643696E+002  0.1169191E+03  0.7546771E-02  0.1248268E+00
          1   -1    0    0  505    0 -0.00000000000E+00  0.00000000000E+00  0.98046719063E+03  0.98046719063E+03  0.00000000000E+00 0.  1.
         21   -1    0    0  503  502  0.00000000000E+00 -0.00000000000E+00 -0.26405043581E+03  0.26405043581E+03  0.00000000000E+00 0.  1.
         21    1    1    2  503  501  0.84730992663E+02 -0.63409817571E+02  0.57776768124E+02  0.12057487722E+03  0.00000000000E+00 0. -1.
         21    1    1    2  504  502 -0.37040372952E+02 -0.12865537874E+01 -0.19943535445E+03  0.20284995700E+03  0.00000000000E+00 0.  1.
         21    1    1    2  505  504 -0.56762321894E+02  0.17058720211E+03  0.27597103060E+03  0.32936600377E+03  0.00000000000E+00 0.  1.
          1    1    1    2  501    0  0.90717021828E+01 -0.10589083075E+03  0.58210431055E+03  0.59172678846E+03  0.00000000000E+00 0.  1.
<scales pt_clust_3="92.14555" pt_clust_4="37.06271" pt_clust_5="116.91905" pt_clust_6="14000.00000"></scales>
<clustering>
<clus scale="   37.063">  2  4  1 -1</clus>
<clus scale="   92.146">  2  3  1 -1</clus>
<clus scale="  116.919">  2  5  1 -1</clus>
<clus scale="   37.063">  2  3  1 -1</clus>
</clustering>
</event>
<event>
 6    0  0.3643696E+002  0.1739041E+03  0.7546771E-02  0.1173837E+00
         21   -1    0    0  504  502  0.00000000000E+00  0.00000000000E+00  0.12166853108E+04  0.12166853108E+04  0.00000000000E+00 0.  1.
          2   -1    0    0  505    0 -0.00000000000E+00 -0.00000000000E+00 -0.60005683420E+03  0.60005683420E+03  0.00000000000E+00 0.  1.
         21    1    1    2  503  501 -0.12035287173E+02  0.15155235368E+03  0.39976645259E+03  0.42769870313E+03  0.00000000000E+00 0.  1.
         21    1    1    2  504  503 -0.28946082812E+02  0.19982283510E+02  0.78337027518E+03  0.78415952165E+03  0.00000000000E+00 0.  1.
         21    1    1    2  505  502  0.43251580787E+02 -0.26785322907E+02 -0.62993890648E+02  0.80971495125E+02  0.00000000000E+00 0. -1.
          2    1    1    2  501    0 -0.22702108017E+01 -0.14474931428E+03 -0.50351436056E+03  0.52391242506E+03  0.00000000000E+00 0.  1.
<scales pt_clust_3="173.90410" pt_clust_4="35.17339" pt_clust_5="50.14450" pt_clust_6="14000.00000"></scales>
<clustering>
<clus scale="   35.173">  1  4  2 -1</clus>
<clus scale="   50.144">  2  5  1 -1</clus>
<clus scale="  173.904">  1  3  2 -1</clus>
<clus scale="   35.173">  1  3  2 -1</clus>
</clustering>
</event>
<event>
 6    0  0.3643696E+002  0.4464056E+03  0.7546771E-02  0.1028799E+00
         21   -1    0    0  504  502  0.00000000000E+00  0.00000000000E+00  0.17721312392E+03  0.17721312392E+03  0.00000000000E+00 0.  1.
          2   -1    0    0  505    0 -0.00000000000E+00 -0.00000000000E+00 -0.20669824520E+04  0.20669824520E+04  0.00000000000E+00 0. -1.
         21    1    1    2  503  501 -0.98247631625E+02  0.81550844964E+02 -0.87531776342E+02  0.15480616688E+03  0.00000000000E+00 0.  1.
         21    1    1    2  504  503  0.33876395457E+02 -0.18425654245E+02  0.29896925713E+02  0.48794887751E+02  0.00000000000E+00 0.  1.
         21    1    1    2  505  502 -0.26327449911E+03 -0.36635147496E+03 -0.87429633064E+03  0.98382973062E+03  0.00000000000E+00 0.  1.
          2    1    1    2  501    0  0.32764573528E+03  0.30322628424E+03 -0.95783814683E+03  0.10567647907E+04  0.00000000000E+00 0. -1.
<scales pt_clust_3="118.46666" pt_clust_4="38.56313" pt_clust_5="446.40559" pt_clust_6="14000.00000"></scales>
<clustering>
<clus scale="   38.563">  1  4  2 -1</clus>
<clus scale="  118.467">  1  3  2 -1</clus>
<clus scale="  446.406">  1  5  2 -1</clus>
<clus scale="   38.563">  1  3  2 -1</clus>
</clustering>
</event>
<event>
 6    0  0.3643696E+002  0.7850707E+02  0.7546771E-02  0.1333342E+00
         21   -1    0    0  501  502  0.00000000000E+00  0.00000000000E+00  0.11199628695E+03  0.11199628695E+03  0.00000000000E+00 0. -1.
          2   -1    0    0  503    0 -0.00000000000E+00 -0.00000000000E+00 -0.25363106106E+04  0.25363106106E+04  0.00000000000E+00 0. -1.
         21    1    1    2  503  504 -0.57430210540E+02  0.43607613275E+02 -0.71814051013E+03  0.72175178926E+03  0.00000000000E+00 0. -1.
         21    1    1    2  504  505 -0.27271234340E+02 -0.47574002298E+02 -0.20085844999E+03  0.20820932460E+03  0.00000000000E+00 0. -1.
         21    1    1    2  505  502 -0.21667580880E+02 -0.38288881637E+02  0.99846089878E+02  0.10910895555E+03  0.00000000000E+00 0. -1.
          2    1    1    2  501    0  0.10636902576E+03  0.42255270660E+02 -0.16051614534E+04  0.16092368281E+04  0.00000000000E+00 0. -1.
<scales pt_clust_3="71.46468" pt_clust_4="78.50707" pt_clust_5="43.99457" pt_clust_6="14000.00000"></scales>
<clustering>
<clus scale="   43.995">  1  5  2 -1</clus>
<clus scale="   71.465">  2  3  1 -1</clus>
<clus scale="   78.507">  1  4  2 -1</clus>
<clus scale="   43.995">  1  3  2 -1</clus>
</clustering>
</event>
<event>
 6    0  0.3643696E+002  0.1699633E+03  0.7546771E-02  0.1177886E+00
          2   -1    0    0  505    0 -0.00000000000E+00  0.00000000000E+00  0.30206559406E+03  0.30206559406E+03  0.00000000000E+00 0.  1.
         21   -1    0    0  503  502  0.00000000000E+00 -0.00000000000E+00 -0.91139122722E+03  0.91139122722E+03  0.00000000000E+00 0. -1.
         21    1    1    2  503  501  0.23247917780E+01  0.56696045837E+02  0.22573342021E+02  0.61068830350E+02  0.00000000000E+00 0. -1.
         21    1    1    2  504  502 -0.60106209825E+02  0.35002262145E+02 -0.80123123473E+03  0.80424461846E+03  0.00000000000E+00 0. -1.
         21    1    1    2  505  504  0.93361579757E+02 -0.17540849443E+03  0.63526368901E+02  0.20861477425E+03  0.00000000000E+00 0.  1.
          2    1    1    2  501    0 -0.35580161710E+02  0.83710186443E+02  0.10580589065E+03  0.13952859821E+03  0.00000000000E+00 0.  1.
<scales pt_clust_3="42.81387" pt_clust_4="69.55512" pt_clust_5="161.08772" pt_clust_6="42.81387"></scales>
<clustering>
<clus scale="   42.814">  3  6 -1 -1</clus>
<clus scale="   69.555">  2  4  1 -1</clus>
<clus scale="  161.088">  2  5  1 -1</clus>
<clus scale="   69.555">  2  3  1 -1</clus>
</clustering>
</event>
<event>
 6    0  0.3643696E+002  0.1496718E+03  0.7546771E-02  0.1200877E+00
          2   -1    0    0  505    0 -0.00000000000E+00  0.00000000000E+00  0.12538556496E+04  0.12538556496E+04  0.00000000000E+00 0. -1.
         21   -1    0    0  504  502  0.00000000000E+00 -0.00000000000E+00 -0.31526112004E+03  0.31526112004E+03  0.00000000000E+00 0.  1.
         21    1    1    2  503  502  0.49271629669E+02  0.76504893681E+02  0.10266019080E+03  0.13718530178E+03  0.00000000000E+00 0. -1.
         21    1    1    2  504  501 -0.14686525543E+03 -0.30132178130E+02 -0.26377404505E+03  0.30340418299E+03  0.00000000000E+00 0.  1.
         21    1    1    2  505  503 -0.51943416992E+02  0.53295935111E+01  0.73308122411E+02  0.90003355200E+02  0.00000000000E+00 0. -1.
          2    1    1    2  501    0  0.14953704276E+03 -0.51702309063E+02  0.10264002614E+04  0.10385239297E+04  0.00000000000E+00 0. -1.
<scales pt_clust_3="88.70732" pt_clust_4="149.67177" pt_clust_5="52.21612" pt_clust_6="14000.00000"></scales>
<clustering>
<clus scale="   52.216">  1  5  2 -1</clus>
<clus scale="   88.707">  1  3  2 -1</clus>
<clus scale="  149.672">  2  4  1 -1</clus>
<clus scale="  149.672">  2  3  1 -1</clus>
</clustering>
</event>
<event>
 6    0  0.3643696E+002  0.1110881E+03  0.7546771E-02  0.1258568E+00
         21   -1    0    0  503  502  0.00000000000E+00  0.00000000000E+00  0.11401361489E+03  0.11401361489E+03  0.00000000000E+00 0.  1.
          2   -1    0    0  504    0 -0.00000000000E+00 -0.00000000000E+00 -0.25180996985E+04  0.25180996985E+04  0.00000000000E+00 0.  1.
         21    1    1    2  503  501  0.97916397704E+02 -0.75969412490E+01 -0.12734126977E+04  0.12771942817E+04  0.00000000000E+00 0.  1.
         21    1    1    2  504  505 -0.65194127277E+02  0.11429808334E+03 -0.59813807818E+03  0.61244059847E+03  0.00000000000E+00 0.  1.
         21    1    1    2  505  502 -0.24304630241E+02 -0.18190694294E+02  0.99598619587E+02  0.10412253086E+03  0.00000000000E+00 0.  1.
          2    1    1    2  501    0 -0.84176401863E+01 -0.88510447801E+02 -0.63213392732E+03  0.63835590238E+03  0.00000000000E+00 0.  1.
<scales pt_clust_3="14000.00000" pt_clust_4="111.08812" pt_clust_5="30.35814" pt_clust_6="94.31009"></scales>
<clustering>
<clus scale="   30.358">  1  5  2 -1</clus>
<clus scale="   94.310">  2  6  1 -1</clus>
<clus scale="  111.088">  1  4  2 -1</clus>
<clus scale="   30.358">  1  3  2 -1</clus>
</clustering>
</event>
<event>
 6    0  0.3643696E+002  0.1401779E+03  0.7546771E-02  0.1213090E+00
         21   -1    0    0  501  502  0.00000000000E+00  0.00000000000E+00  0.13772391604E+04  0.13772391604E+04  0.00000000000E+00 0. -1.
          2   -1    0    0  505    0 -0.00000000000E+00 -0.00000000000E+00 -0.12397691477E+04  0.12397691477E+04  0.00000000000E+00 0.  1.
         21    1    1    2  503  502  0.27630906505E+02  0.12996217089E+02  0.13590009981E+04  0.13593439894E+04  0.00000000000E+00 0. -1.
         21    1    1    2  504  503 -0.24012325673E+02  0.80163050222E+02 -0.52983994585E+03  0.53640756391E+03  0.00000000000E+00 0.  1.
         21    1    1    2  505  504  0.26389888163E+02  0.45192438832E+02 -0.30518709879E+03  0.30964164448E+03  0.00000000000E+00 0.  1.
          2    1    1    2  501    0 -0.30008468996E+02 -0.13835170614E+03 -0.38650394078E+03  0.41161511032E+03  0.00000000000E+00 0.  1.
<scales pt_clust_3="30.53471" pt_clust_4="42.90088" pt_clust_5="42.90088" pt_clust_6="129.77058"></scales>
<clustering>
<clus scale="   30.535">  1  3  2 -1</clus>
<clus scale="   42.901">  4  5 -1 -1</clus>
<clus scale="  129.771">  1  6  2 -1</clus>
<clus scale="   30.535">  1  3  2 -1</clus>
</clustering>
</event>
<event>
 6    0  0.3643696E+002  0.9197590E+02  0.7546771E-02  0.1298136E+00
         21   -1    0    0  503  502  0.00000000000E+00  0.00000000000E+00  0.61189628580E+02  0.61189628580E+02  0.00000000000E+00 0.  1.
          2   -1    0    0  505    0 -0.00000000000E+00 -0.00000000000E+00 -0.10866602578E+04  0.10866602578E+04  0.00000000000E+00 0.  1.
         21    1    1    2  503  501  0.39075604777E+02 -0.92556679596E+02 -0.31324064026E+03  0.32895796166E+03  0.00000000000E+00 0.  1.
         21    1    1    2  504  502  0.64744811645E+01  0.91891107895E+02  0.10853935816E+02  0.92756145561E+02  0.00000000000E+00 0.  1.
         21    1    1    2  505  504 -0.23610998899E+02  0.23807299847E+02 -0.43564124838E+03  0.43692970154E+03  0.00000000000E+00 0.  1.
          2    1    1    2  501    0 -0.21939087043E+02 -0.23141728147E+02 -0.28744267635E+03  0.28920607758E+03  0.00000000000E+00 0.  1.
<scales pt_clust_3="14000.00000" pt_clust_4="91.97590" pt_clust_5="37.30894" pt_clust_6="31.88829"></scales>
<clustering>
<clus scale="   31.888">  2  6  1 -1</clus>
<clus scale="   37.309">  2  5  1 -1</clus>
<clus scale="   91.976">  1  4  2 -1</clus>
<clus scale="   91.976">  1  3  2 -1</clus>
</clustering>
</event>
<event>
 6    0  0.3643696E+002  0.9276998E+02  0.7546771E-02  0.1296279E+00
         21   -1    0    0  504  502  0.00000000000E+00  0.00000000000E+00  0.11572319609E+04  0.11572319609E+04  0.00000000000E+00 0.  1.
          2   -1    0    0  505    0 -0.00000000000E+00 -0.00000000000E+00 -0.55365258517E+03  0.55365258517E+03  0.00000000000E+00 0. -1.
         21    1    1    2  503  502  0.15506849570E+02  0.45351640224E+02  0.11150316678E+04  0.11160613127E+04  0.00000000000E+00 0.  1.
         21    1    1    2  504  501  0.14166319859E+02  0.48420014493E+02 -0.16381809409E+02  0.53042870411E+02  0.00000000000E+00 0. -1.
         21    1    1    2  505  503 -0.87971605169E+02  0.35492155827E+00 -0.10858817838E+03  0.13975164318E+03  0.00000000000E+00 0. -1.
          2    1    1    2  501    0  0.58298435740E+02 -0.94126576276E+02 -0.38648230426E+03  0.40202871972E+03  0.00000000000E+00 0. -1.
<scales pt_clust_3="47.92947" pt_clust_4="71.51109" pt_clust_5="14000.00000" pt_clust_6="92.76998"></scales>
<clustering>
<clus scale="   47.929">  1  3  2 -1</clus>
<clus scale="   71.511">  1  4  2 -1</clus>
<clus scale="   92.770">  2  6  1 -1</clus>
<clus scale="   47.929">  1  3  2 -1</clus>
</clustering>
</event>
<event>
 6    0  0.3643696E+002  0.1398692E+03  0.7546771E-02  0.1213505E+00
          2   -1    0    0  504    0 -0.00000000000E+00  0.00000000000E+00  0.24162513913E+02  0.24162513913E+02  0.00000000000E+00 0. -1.
         21   -1    0    0  505  502  0.00000000000E+00 -0.00000000000E+00 -0.11364195771E+04  0.11364195771E+04  0.00000000000E+00 0. -1.
         21    1    1    2  503  502 -0.28907441521E+02 -0.16444874590E+02 -0.31664630924E+03  0.31838806390E+03  0.00000000000E+00 0. -1.
         21    1    1    2  504  503 -0.11334089465E+03  0.19999981164E+02 -0.45876527732E+03  0.47298175158E+03  0.00000000000E+00 0. -1.
         21    1    1    2  505  501  0.78002111990E+02  0.11775113779E+02 -0.23441803851E+03  0.24733539892E+03  0.00000000000E+00 0. -1.
          2    1    1    2  501    0  0.64246224183E+02 -0.15330220353E+02 -0.10242743815E+03  0.12187687666E+03  0.00000000000E+00 0. -1.
<scales pt_clust_3="33.25769" pt_clust_4="130.22211" pt_clust_5="48.40202" pt_clust_6="48.40202"></scales>
<clustering>
<clus scale="   33.258">  2  3  1 -1</clus>
<clus scale="   48.402">  5  6 -1 -1</clus>
<clus scale="  130.222">  2  4  1 -1</clus>
<clus scale="   33.258">  2  3  1 -1</clus>
</clustering>
</event>
<event>
 6    0  0.3643696E+002  0.7479357E+02  0.7546771E-02  0.1344511E+00
          2   -1    0    0  505    0 -0.00000000000E+00  0.00000000000E+00  0.12316719772E+04  0.12316719772E+04  0.00000000000E+00 0. -1.
         21   -1    0    0  503  502  0.00000000000E+00 -0.00000000000E+00 -0.28299561721E+02  0.28299561721E+02  0.00000000000E+00 0.  1.
         21    1    1    2  503  501  0.95110365567E+01 -0.40369013088E+02  0.73445598548E+02  0.84346742558E+02  0.00000000000E+00 0.  1.
         21    1    1    2  504  502 -0.55329046779E+02 -0.52970357247E+01  0.94195474830E+02  0.10937161187E+03  0.00000000000E+00 0.  1.
         21    1    1    2  505  504 -0.18478798315E+02  0.86195999472E+02  0.12842935608E+03  0.15577328338E+03  0.00000000000E+00 0.  1.
          2    1    1    2  501    0  0.64296808537E+02 -0.40529950659E+02  0.90730198601E+03  0.91047990110E+03  0.00000000000E+00 0. -1.
<scales pt_clust_3="41.47429" pt_clust_4="55.42180" pt_clust_5="14000.00000" pt_clust_6="74.79357"></scales>
<clustering>
<clus scale="   41.474">  2  3  1 -1</clus>
<clus scale="   55.422">  2  4  1 -1</clus>
<clus scale="   74.794">  1  6  2 -1</clus>
<clus scale="   41.474">  2  3  1 -1</clus>
</clustering>
</event>
<event>
 6    0  0.3643696E+002  0.1067858E+03  0.7546771E-02  0.1266641E+00
          2   -1    0    0  502    0 -0.00000000000E+00  0.00000000000E+00  0.65161742604E+03  0.65161742604E+03  0.00000000000E+00 0. -1.
         21   -1    0    0  503  502  0.00000000000E+00 -0.00000000000E+00 -0.10540595985E+03  0.10540595985E+03  0.00000000000E+00 0. -1.
         21    1    1    2  503  505  0.11203967661E+02 -0.43396640852E+02 -0.36641165505E+02  0.57891038496E+02  0.00000000000E+00 0.  1.
         21    1    1    2  504  501  0.93983766194E+01 -0.37088229580E+02  0.27307693273E+03  0.27574422468E+03  0.00000000000E+00 0. -1.
         21    1    1    2  505  504 -0.74285849776E+02  0.11311664669E+03  0.32623724801E+02  0.13920513876E+03  0.00000000000E+00 0. -1.
          2    1    1    2  501    0  0.53683505496E+02 -0.32631776261E+02  0.27715197417E+03  0.28418298395E+03  0.00000000000E+00 0. -1.
<scales pt_clust_3="44.81961" pt_clust_4="34.25244" pt_clust_5="97.34873" pt_clust_6="34.25244"></scales>
<clustering>
<clus scale="   34.252">  4  6 -1 -1</clus>
<clus scale="   44.820">  2  3  1 -1</clus>
<clus scale="   97.349">  2  5  1 -1</clus>
<clus scale="   44.820">  2  3  1 -1</clus>
</clustering>
</event>
<event>
 6    0  0.3643696E+002  0.1212855E+03  0.7546771E-02  0.1240991E+00
          2   -1    0    0  504    0 -0.00000000000E+00  0.00000000000E+00  0.56468523294E+03  0.56468523294E+03  0.00000000000E+00 0. -1.
         21   -1    0    0  505  502  0.00000000000E+00 -0.00000000000E+00 -0.36266290040E+03  0.36266290040E+03  0.00000000000E+00 0.  1.
         21    1    1    2  503  502  0.11279350180E+03  0.11438750459E+02 -0.32372779380E+03  0.34300569024E+03  0.00000000000E+00 0.  1.
         21    1    1    2  504  503 -0.33216555231E+02  0.83471146169E+02  0.82476646305E+02  0.12195560245E+03  0.00000000000E+00 0. -1.
         21    1    1    2  505  501 -0.57768814938E+02 -0.34728566580E+02  0.23850236195E+03  0.24784407593E+03  0.00000000000E+00 0. -1.
          2    1    1    2  501    0 -0.21808131632E+02 -0.60181330048E+02  0.20477111808E+03  0.21454276471E+03  0.00000000000E+00 0. -1.
<scales pt_clust_3="112.87316" pt_clust_4="89.83747" pt_clust_5="43.25123" pt_clust_6="43.25123"></scales>
<clustering>
<clus scale="   43.251">  5  6 -1 -1</clus>
<clus scale="   89.837">  1  4  2 -1</clus>
<clus scale="  112.873">  2  3  1 -1</clus>
<clus scale="  112.873">  2  3  1 -1</clus>
</clustering>
</event>
<event>
 6    0  0.3643696E+002  0.1537190E+03  0.7546771E-02  0.1195976E+00
          2   -1    0    0  503    0 -0.00000000000E+00  0.00000000000E+00  0.14610253424E+04  0.14610253424E+04  0.00000000000E+00 0. -1.
         21   -1    0    0  501  502  0.00000000000E+00 -0.00000000000E+00 -0.12436525347E+03  0.12436525347E+03  0.00000000000E+00 0.  1.
         21    1    1    2  503  504  0.62480366812E+01 -0.31698586552E+02  0.10825407433E+03  0.11297248762E+03  0.00000000000E+00 0. -1.
         21    1    1    2  504  505  0.39729396099E+02  0.64218448361E+01  0.50513470005E+03  0.50673536506E+03  0.00000000000E+00 0. -1.
         21    1    1    2  505  502  0.10765322395E+03 -0.10529415584E+03 -0.56068153119E+02  0.16068513831E+03  0.00000000000E+00 0.  1.
          2    1    1    2  501    0 -0.15363065673E+03  0.13057089756E+03  0.77933946770E+03  0.80499760490E+03  0.00000000000E+00 0. -1.
<scales pt_clust_3="32.30849" pt_clust_4="42.42231" pt_clust_5="153.71900" pt_clust_6="14000.00000"></scales>
<clustering>
<clus scale="   32.308">  1  3  2 -1</clus>
<clus scale="   42.422">  1  4  2 -1</clus>
<clus scale="  153.719">  2  5  1 -1</clus>
<clus scale="  153.719">  2  3  1 -1</clus>
</clustering>
</event>
<event>
 6    0  0.3643696E+002  0.1293798E+03  0.7546771E-02  0.1228379E+00
          1   -1    0    0  505    0 -0.00000000000E+00  0.00000000000E+00  0.95602528108E+03  0.95602528108E+03  0.00000000000E+00 0. -1.
         21   -1    0    0  504  502  0.00000000000E+00 -0.00000000000E+00 -0.35656604549E+03  0.35656604549E+03  0.00000000000E+00 0.  1.
         21    1    1    2  503  502 -0.73082649065E+02 -0.82097120193E+02 -0.32444451724E+03  0.34255693761E+03  0.00000000000E+00 0.  1.
         21    1    1    2  504  501 -0.11530278256E+02  0.39490668096E+02  0.14218487041E+03  0.14801688268E+03  0.00000000000E+00 0. -1.
         21    1    1    2  505  503  0.10813442987E+02 -0.74809076157E+02  0.94829945001E+02  0.12126849093E+03  0.00000000000E+00 0. -1.
          1    1    1    2  501    0  0.73799484334E+02  0.11741552825E+03  0.68688893742E+03  0.70074901535E+03  0.00000000000E+00 0. -1.
<scales pt_clust_3="110.43534" pt_clust_4="36.71117" pt_clust_5="75.58656" pt_clust_6="36.71117"></scales>
<clustering>
<clus scale="   36.711">  4  6 -1 -1</clus>
<clus scale="   75.587">  1  5  2 -1</clus>
<clus scale="  110.435">  2  3  1 -1</clus>
<clus scale="  110.435">  2  3  1 -1</clus>
</clustering>
</event>
<event>
 6    0  0.3643696E+002  0.1312578E+03  0.7546771E-02  0.1225601E+00
         21   -1    0    0  501  502  0.00000000000E+00  0.00000000000E+00  0.12845917402E+03  0.12845917402E+03  0.00000000000E+00 0.  1.
          3   -1    0    0  504    0 -0.00000000000E+00 -0.00000000000E+00 -0.59695586544E+03  0.59695586544E+03  0.00000000000E+00 0.  1.
         21    1    1    2  503  502  0.69573713648E+02 -0.11572891061E+02  0.66079450049E+02  0.96648472089E+02  0.00000000000E+00 0.  1.
         21    1    1    2  504  505  0.30950703088E+00 -0.48774285426E+02 -0.49224648749E+02  0.69297133836E+02  0.00000000000E+00 0.  1.
         21    1    1    2  505  503  0.45537035871E+02  0.13060414911E+03 -0.19345117365E+03  0.23781173644E+03  0.00000000000E+00 0.  1.
          3    1    1    2  501    0 -0.11542025655E+03 -0.70256972627E+02 -0.29190031907E+03  0.32165769709E+03  0.00000000000E+00 0.  1.
<scales pt_clust_3="70.77903" pt_clust_4="48.77527" pt_clust_5="131.25777" pt_clust_6="14000.00000"></scales>
<clustering>
<clus scale="   48.775">  2  4  1 -1</clus>
<clus scale="   70.779">  1  3  2 -1</clus>
<clus scale="  131.258">  2  5  1 -1</clus>
<clus scale="   70.779">  1  3  2 -1</clus>
</clustering>
</event>
<event>
 6    0  0.3643696E+002  0.1065532E+03  0.7546771E-02  0.1267089E+00
          2   -1    0    0  504    0 -0.00000000000E+00  0.00000000000E+00  0.17292567078E+04  0.17292567078E+04  0.00000000000E+00 0. -1.
         21   -1    0    0  503  502  0.00000000000E+00 -0.00000000000E+00 -0.48527919859E+02  0.48527919859E+02  0.00000000000E+00 0. -1.
         21    1    1    2  503  501 -0.11533099274E+03  0.74592378433E+02  0.11708037965E+03  0.18048012662E+03  0.00000000000E+00 0. -1.
         21    1    1    2  504  505 -0.88124869923E+01 -0.53861664842E+02  0.22150509995E+03  0.22812989320E+03  0.00000000000E+00 0.  1.
         21    1    1    2  505  502  0.19735793114E+02 -0.35558229991E+02  0.24833968532E+02  0.47650973159E+02  0.00000000000E+00 0. -1.
          2    1    1    2  501    0  0.10440768662E+03  0.14827516400E+02  0.13173093398E+04  0.13215236347E+04  0.00000000000E+00 0. -1.
<scales pt_clust_3="106.55325" pt_clust_4="57.46898" pt_clust_5="40.66804" pt_clust_6="14000.00000"></scales>
<clustering>
<clus scale="   40.668">  2  5  1 -1</clus>
<clus scale="   57.469">  1  4  2 -1</clus>
<clus scale="  106.553">  2  3  1 -1</clus>
<clus scale="   40.668">  2  3  1 -1</clus>
</clustering>
</event>
<event>
 6    0  0.3643696E+002  0.1051037E+03  0.7546771E-02  0.1269915E+00
          2   -1    0    0  504    0 -0.00000000000E+00  0.00000000000E+00  0.54326036860E+03  0.54326036860E+03  0.00000000000E+00 0.  1.
         21   -1    0    0  505  502  0.00000000000E+00 -0.00000000000E+00 -0.12745357161E+03  0.12745357161E+03  0.00000000000E+00 0.  1.
         21    1    1    2  503  501  0.46346908387E+00  0.68778540413E+02  0.20300767126E+03  0.21434275592E+03  0.00000000000E+00 0.  1.
         21    1    1    2  504  502 -0.12139523259E+02 -0.38801238627E+02  0.40640469552E+02  0.57485232098E+02  0.00000000000E+00 0.  1.
         21    1    1    2  505  503  0.44538619723E+02 -0.84192726672E+02 -0.88869901292E+02  0.13026881141E+03  0.00000000000E+00 0.  1.
          2    1    1    2  501    0 -0.32862565548E+02  0.54215424885E+02  0.26102855746E+03  0.26861714078E+03  0.00000000000E+00 0.  1.
<scales pt_clust_3="40.08728" pt_clust_4="40.65592" pt_clust_5="96.45398" pt_clust_6="40.08728"></scales>
<clustering>
<clus scale="   40.087">  3  6 -1 -1</clus>
<clus scale="   40.656">  1  4  2 -1</clus>
<clus scale="   96.454">  2  5  1 -1</clus>
<clus scale="   96.454">  2  3  1 -1</clus>
</clustering>
</event>
<event>
 6    0  0.3643696E+002  0.7500859E+02  0.7546771E-02  0.1343844E+00
          2   -1    0    0  504    0 -0.00000000000E+00  0.00000000000E+00  0.66540189628E+03  0.66540189628E+03  0.00000000000E+00 0. -1.
         21   -1    0    0  503  502  0.00000000000E+00 -0.00000000000E+00 -0.20178765115E+03  0.20178765115E+03  0.00000000000E+00 0.  1.
         21    1    1    2  503  505  0.41948440035E+01 -0.84314364497E+02  0.21241653699E+02  0.87050081152E+02  0.00000000000E+00 0. -1.
         21    1    1    2  504  502 -0.50738783518E+02 -0.50464043262E+01 -0.14490150907E+03  0.15361099466E+03  0.00000000000E+00 0.  1.
         21    1    1    2  505  501 -0.14860591394E+02  0.63526534323E+02  0.42875398388E+02  0.78068928049E+02  0.00000000000E+00 0. -1.
          2    1    1    2  501    0  0.61404530908E+02  0.25834234499E+02  0.54439870211E+03  0.54845954358E+03  0.00000000000E+00 0. -1.
<scales pt_clust_3="14000.00000" pt_clust_4="50.98912" pt_clust_5="75.00859" pt_clust_6="64.73705"></scales>
<clustering>
<clus scale="   50.989">  2  4  1 -1</clus>
<clus scale="   64.737">  1  6  2 -1</clus>
<clus scale="   75.009">  1  5  2 -1</clus>
<clus scale="   50.989">  2  3  1 -1</clus>
</clustering>
</event>
<event>
 6    0  0.3643696E+002  0.1398102E+03  0.7546771E-02  0.1213585E+00
          1   -1    0    0  505    0 -0.00000000000E+00  0.00000000000E+00  0.28272093877E+04  0.28272093877E+04  0.00000000000E+00 0.  1.
         21   -1    0    0  503  502  0.00000000000E+00 -0.00000000000E+00 -0.68798611448E+01  0.68798611448E+01  0.00000000000E+00 0.  1.
         21    1    1    2  503  501 -0.35909283206E+02  0.13858526789E+02  0.20693509234E+03  0.21048436481E+03  0.00000000000E+00 0. -1.
         21    1    1    2  504  502  0.96060545912E+02 -0.18135868073E+01  0.12233735277E+04  0.12271404589E+04  0.00000000000E+00 0.  1.
         21    1    1    2  505  504  0.31649021426E+02 -0.20683806754E+02  0.26685567836E+03  0.26952074779E+03  0.00000000000E+00 0.  1.
          1    1    1    2  501    0 -0.91800284132E+02  0.86388667723E+01  0.11231652282E+04  0.11269436774E+04  0.00000000000E+00 0.  1.
<scales pt_clust_3="33.76468" pt_clust_4="138.60621" pt_clust_5="30.70506" pt_clust_6="33.76468"></scales>
<clustering>
<clus scale="   30.705">  4  5 -1 -1</clus>
<clus scale="   33.765">  3  6 -1 -1</clus>
<clus scale="  138.606">  1  4  2 -1</clus>
<clus scale="  139.810">  2  3  1 -1</clus>
</clustering>
</event>
<event>
 6    0  0.3643696E+002  0.3921304E+03  0.7546771E-02  0.1046539E+00
          1   -1    0    0  505    0 -0.00000000000E+00  0.00000000000E+00  0.17103697282E+04  0.17103697282E+04  0.00000000000E+00 0.  1.
         21   -1    0    0  504  502  0.00000000000E+00 -0.00000000000E+00 -0.12165390813E+03  0.12165390813E+03  0.00000000000E+00 0.  1.
         21    1    1    2  503  502  0.57482610676E+02  0.35817844826E+03  0.67269852581E+03  0.76427701650E+03  0.00000000000E+00 0.  1.
         21    1    1    2  504  501  0.14904241652E+02  0.30593383652E+02  0.15702947181E+02  0.37478982012E+02  0.00000000000E+00 0.  1.
         21    1    1    2  505  503 -0.45992695628E+02  0.35315307164E+02  0.22537566260E+03  0.23271589603E+03  0.00000000000E+00 0.  1.
          1    1    1    2  501    0 -0.26394156701E+02 -0.42408713907E+03  0.67493868451E+03  0.79755174182E+03  0.00000000000E+00 0.  1.
<scales pt_clust_3="14000.00000" pt_clust_4="34.03074" pt_clust_5="58.22320" pt_clust_6="392.13042"></scales>
<clustering>
<clus scale="   34.031">  2  4  1 -1</clus>
<clus scale="   58.223">  1  5  2 -1</clus>
<clus scale="  392.130">  2  6  1 -1</clus>
<clus scale="   34.031">  2  3  1 -1</clus>
</clustering>
</event>
<event>
 6    0  0.3643696E+002  0.3897953E+03  0.7546771E-02  0.1047372E+00
          2   -1    0    0  504    0 -0.00000000000E+00  0.00000000000E+00  0.80340324017E+03  0.80340324017E+03  0.00000000000E+00 0.  1.
         21   -1    0    0  503  502  0.00000000000E+00 -0.00000000000E+00 -0.51454971008E+03  0.51454971008E+03  0.00000000000E+00 0. -1.
         21    1    1    2  503  501 -0.52423225365E+02  0.10426330852E+03 -0.24036393187E+03  0.26719627955E+03  0.00000000000E+00 0. -1.
         21    1    1    2  504  505  0.28407857882E+02  0.28543543814E+02  0.27641243389E+02  0.48844432835E+02  0.00000000000E+00 0.  1.
         21    1    1    2  505  502 -0.34684239803E+03  0.23443319870E+02 -0.13947598830E+02  0.34791345739E+03  0.00000000000E+00 0. -1.
          2    1    1    2  501    0  0.37085776552E+03 -0.15625017220E+03  0.51552381741E+03  0.65399878048E+03  0.00000000000E+00 0.  1.
<scales pt_clust_3="116.92592" pt_clust_4="40.27084" pt_clust_5="14000.00000" pt_clust_6="389.79529"></scales>
<clustering>
<clus scale="   40.271">  1  4  2 -1</clus>
<clus scale="  116.926">  2  3  1 -1</clus>
<clus scale="  389.795">  1  6  2 -1</clus>
<clus scale="  116.926">  2  3  1 -1</clus>
</clustering>
</event>
<event>
 6    0  0.3643696E+002  0.7958044E+02  0.7546771E-02  0.1330246E+00
          4   -1    0    0  503    0 -0.00000000000E+00  0.00000000000E+00  0.27455493895E+03  0.27455493895E+03  0.00000000000E+00 0. -1.
         21   -1    0    0  505  502  0.00000000000E+00 -0.00000000000E+00 -0.13499965240E+03  0.13499965240E+03  0.00000000000E+00 0. -1.
         21    1    1    2  503  504 -0.34913707866E+02 -0.26042634201E+01  0.15385855913E+03  0.15779165188E+03  0.00000000000E+00 0. -1.
         21    1    1    2  504  502 -0.76741179408E+02 -0.61469888958E+02  0.14542076243E+01  0.98335500127E+02  0.00000000000E+00 0. -1.
         21    1    1    2  505  501  0.45652310172E+02  0.14713913879E+02 -0.45201518052E+02  0.65907586208E+02  0.00000000000E+00 0. -1.
          4    1    1    2  501    0  0.66002577102E+02  0.49360238499E+02  0.29444037839E+02  0.87519853137E+02  0.00000000000E+00 0. -1.
<scales pt_clust_3="35.01070" pt_clust_4="79.58044" pt_clust_5="45.00334" pt_clust_6="14000.00000"></scales>
<clustering>
<clus scale="   35.011">  1  3  2 -1</clus>
<clus scale="   45.003">  2  5  1 -1</clus>
<clus scale="   79.580">  2  4  1 -1</clus>
<clus scale="   45.003">  2  3  1 -1</clus>
</clustering>
</event>
<event>
 6    0  0.3643696E+002  0.7939335E+02  0.7546771E-02  0.1330782E+00
         21   -1    0    0  503  502  0.00000000000E+00  0.00000000000E+00  0.33690785227E+03  0.33690785227E+03  0.00000000000E+00 0. -1.
          1   -1    0    0  504    0 -0.00000000000E+00 -0.00000000000E+00 -0.11822178193E+04  0.11822178193E+04  0.00000000000E+00 0.  1.
         21    1    1    2  503  501  0.70882549081E+02 -0.29296384392E+02  0.32067866994E+03  0.32972325252E+03  0.00000000000E+00 0. -1.
         21    1    1    2  504  505 -0.16330308579E+02 -0.42950247491E+02 -0.14838008969E+03  0.15533207574E+03  0.00000000000E+00 0.  1.
         21    1    1    2  505  502 -0.76610614839E+01  0.11251761220E+03 -0.48774189570E+03  0.50061068880E+03  0.00000000000E+00 0.  1.
          1    1    1    2  501    0 -0.46891179018E+02 -0.40270980313E+02 -0.52986665159E+03  0.53345965452E+03  0.00000000000E+00 0.  1.
<scales pt_clust_3="76.70423" pt_clust_4="45.95000" pt_clust_5="14000.00000" pt_clust_6="79.39335"></scales>
<clustering>
<clus scale="   45.950">  2  4  1 -1</clus>
<clus scale="   76.704">  1  3  2 -1</clus>
<clus scale="   79.393">  2  6  1 -1</clus>
<clus scale="   76.704">  1  3  2 -1</clus>
</clustering>
</event>
<event>
 6    0  0.3643696E+002  0.1067502E+03  0.7546771E-02  0.1266709E+00
          2   -1    0    0  505    0 -0.00000000000E+00  0.00000000000E+00  0.11161034620E+04  0.11161034620E+04  0.00000000000E+00 0.  1.
         21   -1    0    0  503  502  0.00000000000E+00 -0.00000000000E+00 -0.46062910207E+03  0.46062910207E+03  0.00000000000E+00 0. -1.
         21    1    1    2  503  501  0.63002180898E+02 -0.42770081195E+02  0.20308552913E+03  0.21689233915E+03  0.00000000000E+00 0.  1.
         21    1    1    2  504  502 -0.86966085107E+02  0.63537391792E+02 -0.43733671957E+03  0.45040371490E+03  0.00000000000E+00 0. -1.
         21    1    1    2  505  504  0.22382439434E+02  0.38811253543E+02  0.48213796747E+02  0.65816845817E+02  0.00000000000E+00 0. -1.
          2    1    1    2  501    0  0.15814647747E+01 -0.59578564141E+02  0.84151175359E+03  0.84361966417E+03  0.00000000000E+00 0.  1.
<scales pt_clust_3="106.75024" pt_clust_4="14000.00000" pt_clust_5="44.80276" pt_clust_6="34.63665"></scales>
<clustering>
<clus scale="   44.803">  1  5  2 -1</clus>
<clus scale="   34.637">  1  6  2 -1</clus>
<clus scale="  106.750">  1  3  2 -1</clus>
<clus scale="  106.750">  2  3  1 -1</clus>
</clustering>
</event>
<event>
 6    0  0.3643696E+002  0.1383482E+03  0.7546771E-02  0.1215569E+00
         21   -1    0    0  505  502  0.00000000000E+00  0.00000000000E+00  0.10749694765E+03  0.10749694765E+03  0.00000000000E+00 0.  1.
          2   -1    0    0  503    0 -0.00000000000E+00 -0.00000000000E+00 -0.53386791430E+03  0.53386791430E+03  0.00000000000E+00 0.  1.
         21    1    1    2  503  504  0.14894576783E+02 -0.30649823325E+02 -0.13273738507E+03  0.13704186762E+03  0.00000000000E+00 0.  1.
         21    1    1    2  504  502  0.12142703040E+03 -0.10032476830E+02  0.46544596049E+02  0.13042842376E+03  0.00000000000E+00 0.  1.
         21    1    1    2  505  501 -0.39791031345E+02 -0.15877271429E+02 -0.81990221504E+02  0.92508433918E+02  0.00000000000E+00 0. -1.
          2    1    1    2  501    0 -0.96530575835E+02  0.56559571584E+02 -0.25818795613E+03  0.28138613665E+03  0.00000000000E+00 0.  1.
<scales pt_clust_3="34.07727" pt_clust_4="123.70493" pt_clust_5="41.96349" pt_clust_6="41.96349"></scales>
<clustering>
<clus scale="   34.077">  2  3  1 -1</clus>
<clus scale="   41.963">  5  6 -1 -1</clus>
<clus scale="  123.705">  1  4  2 -1</clus>
<clus scale="  123.705">  1  3  2 -1</clus>
</clustering>
</event>
<event>
 6    0  0.3643696E+002  0.1251468E+03  0.7546771E-02  0.1234840E+00
         21   -1    0    0  504  502  0.00000000000E+00  0.00000000000E+00  0.39915912884E+03  0.39915912884E+03  0.00000000000E+00 0. -1.
         -1   -1    0    0    0  501 -0.00000000000E+00 -0.00000000000E+00 -0.91020788793E+03  0.91020788793E+03  0.00000000000E+00 0. -1.
         21    1    1    2  503  502 -0.11968299697E+03  0.37319363763E+02  0.35933681841E+03  0.38057811779E+03  0.00000000000E+00 0. -1.
         21    1    1    2  504  505  0.77610798804E+02  0.36153744104E+02 -0.16978105235E+03  0.19014766640E+03  0.00000000000E+00 0. -1.
         21    1    1    2  505  501 -0.66830122897E+02 -0.44218069178E+02 -0.10305172207E+03  0.13054179557E+03  0.00000000000E+00 0. -1.
         -1    1    1    2    0  503  0.10890232106E+03 -0.29255038689E+02 -0.59755280308E+03  0.60809943701E+03  0.00000000000E+00 0. -1.
<scales pt_clust_3="125.14676" pt_clust_4="67.69591" pt_clust_5="80.13428" pt_clust_6="14000.00000"></scales>
<clustering>
<clus scale="   80.134">  2  5  1 -1</clus>
<clus scale="   67.696">  2  4  1 -1</clus>
<clus scale="  125.147">  1  3  2 -1</clus>
<clus scale="  125.147">  1  3  2 -1</clus>
</clustering>
</event>
<event>
 6    0  0.3643696E+002  0.1409122E+03  0.7546771E-02  0.1212107E+00
         21   -1    0    0  505  502  0.00000000000E+00  0.00000000000E+00  0.44602791235E+02  0.44602791235E+02  0.00000000000E+00 0. -1.
          1   -1    0    0  503    0 -0.00000000000E+00 -0.00000000000E+00 -0.31290990159E+04  0.31290990159E+04  0.00000000000E+00 0.  1.
         21    1    1    2  503  504  0.44845439346E+02  0.15036257746E+02 -0.22219691060E+04  0.22224724769E+04  0.00000000000E+00 0. -1.
         21    1    1    2  504  502 -0.24368935925E+02  0.34905455474E+02 -0.74246075353E+02  0.85584552141E+02  0.00000000000E+00 0. -1.
         21    1    1    2  505  501 -0.14254488216E+02 -0.17210618359E+03 -0.19759582678E+03  0.26242682718E+03  0.00000000000E+00 0. -1.
          1    1    1    2  501    0 -0.62220152054E+01  0.12216447037E+03 -0.59068521646E+03  0.60321795086E+03  0.00000000000E+00 0.  1.
<scales pt_clust_3="47.22218" pt_clust_4="42.57036" pt_clust_5="140.91222" pt_clust_6="14000.00000"></scales>
<clustering>
<clus scale="   42.570">  1  4  2 -1</clus>
<clus scale="   47.222">  2  3  1 -1</clus>
<clus scale="  140.912">  1  5  2 -1</clus>
<clus scale="   42.570">  1  3  2 -1</clus>
</clustering>
</event>
<event>
 6    0  0.3643696E+002  0.1324040E+03  0.7546771E-02  0.1223932E+00
         21   -1    0    0  503  502  0.00000000000E+00  0.00000000000E+00  0.18717564687E+03  0.18717564687E+03  0.00000000000E+00 0. -1.
          2   -1    0    0  505    0 -0.00000000000E+00 -0.00000000000E+00 -0.33460583658E+03  0.33460583658E+03  0.00000000000E+00 0. -1.
         21    1    1    2  503  501 -0.11010656163E+03 -0.18909977285E+02 -0.90927973227E+01  0.11208800613E+03  0.00000000000E+00 0. -1.
         21    1    1    2  504  502 -0.42457583900E+02  0.14034898609E+02  0.86363467072E+02  0.97253654195E+02  0.00000000000E+00 0.  1.
         21    1    1    2  505  504  0.14357474447E+03 -0.57038180537E+02 -0.16256805903E+03  0.22426643776E+03  0.00000000000E+00 0. -1.
          2    1    1    2  501    0  0.89894010610E+01  0.61913259213E+02 -0.62132800424E+02  0.88173385363E+02  0.00000000000E+00 0. -1.
<scales pt_clust_3="132.40396" pt_clust_4="44.71716" pt_clust_5="14000.00000" pt_clust_6="63.90922"></scales>
<clustering>
<clus scale="   44.717">  1  4  2 -1</clus>
<clus scale="   63.909">  2  6  1 -1</clus>
<clus scale="  132.404">  1  3  2 -1</clus>
<clus scale="   44.717">  1  3  2 -1</clus>
</clustering>
</event>
<event>
 6    0  0.3643696E+002  0.1026568E+03  0.7546771E-02  0.1274806E+00
         21   -1    0    0  504  502  0.00000000000E+00  0.00000000000E+00  0.21640098246E+04  0.21640098246E+04  0.00000000000E+00 0. -1.
          2   -1    0    0  503    0 -0.00000000000E+00 -0.00000000000E+00 -0.28024167584E+03  0.28024167584E+03  0.00000000000E+00 0. -1.
         21    1    1    2  503  502  0.54427075693E+02  0.27113527161E+02 -0.24606211290E+03  0.25346402768E+03  0.00000000000E+00 0. -1.
         21    1    1    2  504  505 -0.16109537876E+02  0.89505338886E+02  0.20130503205E+04  0.20151035496E+04  0.00000000000E+00 0. -1.
         21    1    1    2  505  501 -0.20616675410E+02 -0.72288786200E+02  0.39673334436E+02  0.84998172807E+02  0.00000000000E+00 0. -1.
          2    1    1    2  501    0 -0.17700862406E+02 -0.44330079848E+02  0.77106606744E+02  0.90685750330E+02  0.00000000000E+00 0. -1.
<scales pt_clust_3="60.80666" pt_clust_4="91.53871" pt_clust_5="37.02720" pt_clust_6="37.02720"></scales>
<clustering>
<clus scale="   37.027">  5  6 -1 -1</clus>
<clus scale="   60.807">  2  3  1 -1</clus>
<clus scale="   91.539">  1  4  2 -1</clus>
<clus scale="   91.539">  1  3  2 -1</clus>
</clustering>
</event>
<event>
 6    0  0.3643696E+002  0.2081054E+03  0.7546771E-02  0.1143075E+00
          2   -1    0    0  503    0 -0.00000000000E+00  0.00000000000E+00  0.41466543608E+03  0.41466543608E+03  0.00000000000E+00 0. -1.
         21   -1    0    0  501  502  0.00000000000E+00 -0.00000000000E+00 -0.14326367912E+04  0.14326367912E+04  0.00000000000E+00 0. -1.
         21    1    1    2  503  504 -0.34768323653E+02 -0.46623066254E+02 -0.11162430312E+02  0.59221165870E+02  0.00000000000E+00 0.  1.
         21    1    1    2  504  505 -0.16687778351E+03  0.11968864494E+03 -0.38707045497E+02  0.20897799341E+03  0.00000000000E+00 0.  1.
         21    1    1    2  505  502 -0.31868751971E+02 -0.58383149271E+02 -0.12277706457E+04  0.12295710503E+04  0.00000000000E+00 0. -1.
          2    1    1    2  501    0  0.23351485913E+03 -0.14682429420E+02  0.25966876634E+03  0.34953201768E+03  0.00000000000E+00 0. -1.
<scales pt_clust_3="58.15967" pt_clust_4="14000.00000" pt_clust_5="66.64743" pt_clust_6="208.10544"></scales>
<clustering>
<clus scale="   58.160">  1  3  2 -1</clus>
<clus scale="   66.647">  2  5  1 -1</clus>
<clus scale="  208.105">  1  6  2 -1</clus>
<clus scale="   66.647">  2  3  1 -1</clus>
</clustering>
</event>
<event>
 6    0  0.3643696E+002  0.1085036E+03  0.7546771E-02  0.1263366E+00
          2   -1    0    0  505    0 -0.00000000000E+00  0.00000000000E+00  0.15081846573E+04  0.15081846573E+04  0.00000000000E+00 0. -1.
         21   -1    0    0  503  502  0.00000000000E+00 -0.00000000000E+00 -0.20255984901E+03  0.20255984901E+03  0.00000000000E+00 0. -1.
         21    1    1    2  503  504  0.98422617122E+02  0.49654039036E+02 -0.17953659892E+03  0.21067967512E+03  0.00000000000E+00 0. -1.
         21    1    1    2  504  501 -0.80913738650E+02 -0.13532661184E+01  0.31244725501E+03  0.32275710929E+03  0.00000000000E+00 0. -1.
         21    1    1    2  505  502  0.23409107969E+02 -0.37030731830E+02  0.26458946030E+03  0.26819180438E+03  0.00000000000E+00 0.  1.
          2    1    1    2  501    0 -0.40917986441E+02 -0.11270041088E+02  0.90812469195E+03  0.90911591757E+03  0.00000000000E+00 0. -1.
<scales pt_clust_3="108.50363" pt_clust_4="14000.00000" pt_clust_5="42.36205" pt_clust_6="42.44167"></scales>
<clustering>
<clus scale="   42.442">  1  6  2 -1</clus>
<clus scale="   42.362">  1  5  2 -1</clus>
<clus scale="  108.504">  2  3  1 -1</clus>
<clus scale="  108.504">  2  3  1 -1</clus>
</clustering>
</event>
<event>
 6    0  0.3643696E+002  0.9683877E+02  0.7546771E-02  0.1287088E+00
         -2   -1    0    0    0  501 -0.00000000000E+00  0.00000000000E+00  0.54282897337E+03  0.54282897337E+03  0.00000000000E+00 0. -1.
         21   -1    0    0  504  502  0.00000000000E+00 -0.00000000000E+00 -0.11138327519E+04  0.11138327519E+04  0.00000000000E+00 0. -1.
         21    1    1    2  503  502 -0.88928003274E+02 -0.37975549043E+02 -0.10657603963E+04  0.10701381006E+04  0.00000000000E+00 0. -1.
         21    1    1    2  504  505 -0.42398797660E+02 -0.56067470243E+02  0.26784908085E+02  0.75224002576E+02  0.00000000000E+00 0.  1.
         21    1    1    2  505  501  0.28914425391E+02  0.61118286332E+02  0.32729436205E+03  0.33420515907E+03  0.00000000000E+00 0. -1.
         -2    1    1    2    0  503  0.10241237554E+03  0.32924732954E+02  0.14067734760E+03  0.17709446302E+03  0.00000000000E+00 0. -1.
<scales pt_clust_3="14000.00000" pt_clust_4="54.47673" pt_clust_5="67.61279" pt_clust_6="96.83877"></scales>
<clustering>
<clus scale="   67.613">  1  5  2 -1</clus>
<clus scale="   54.477">  1  4  2 -1</clus>
<clus scale="   96.839">  1  6  2 -1</clus>
<clus scale="   96.839">  2  3  1 -1</clus>
</clustering>
</event>
<event>
 6    0  0.3643696E+002  0.1393606E+03  0.7546771E-02  0.1214192E+00
         21   -1    0    0  505  502  0.00000000000E+00  0.00000000000E+00  0.32456871665E+03  0.32456871665E+03  0.00000000000E+00 0.  1.
          1   -1    0    0  502    0 -0.00000000000E+00 -0.00000000000E+00 -0.11390539069E+04  0.11390539069E+04  0.00000000000E+00 0. -1.
         21    1    1    2  503  501  0.10553100974E+03 -0.85752088105E+01 -0.63468561509E+03  0.64345641517E+03  0.00000000000E+00 0. -1.
         21    1    1    2  504  503 -0.76380058207E+02  0.52849240724E+02 -0.11642850445E+03  0.14893808171E+03  0.00000000000E+00 0. -1.
         21    1    1    2  505  504 -0.60286884704E+02 -0.11426246916E+02  0.29941097486E+03  0.30563376688E+03  0.00000000000E+00 0.  1.
          1    1    1    2  501    0  0.31135933174E+02 -0.32847784998E+02 -0.36278204561E+03  0.36559435981E+03  0.00000000000E+00 0. -1.
<scales pt_clust_3="34.89165" pt_clust_4="128.73752" pt_clust_5="61.36015" pt_clust_6="34.89165"></scales>
<clustering>
<clus scale="   34.892">  3  6 -1 -1</clus>
<clus scale="   61.360">  1  5  2 -1</clus>
<clus scale="  128.738">  1  4  2 -1</clus>
<clus scale="   61.360">  1  3  2 -1</clus>
</clustering>
</event>
<event>
 6    0  0.3643696E+002  0.1167331E+03  0.7546771E-02  0.1248586E+00
          2   -1    0    0  503    0 -0.00000000000E+00  0.00000000000E+00  0.12331438033E+04  0.12331438033E+04  0.00000000000E+00 0. -1.
         21   -1    0    0  504  502  0.00000000000E+00 -0.00000000000E+00 -0.56380375673E+02  0.56380375673E+02  0.00000000000E+00 0. -1.
         21    1    1    2  503  505  0.45323070191E+02 -0.26079333068E+02  0.18429293278E+03  0.19156773575E+03  0.00000000000E+00 0. -1.
         21    1    1    2  504  501 -0.67796984054E+02  0.64247578187E+02  0.50383013692E+00  0.93404690431E+02  0.00000000000E+00 0. -1.
         21    1    1    2  505  502 -0.66442683194E+01  0.39488490790E+02  0.86776911713E+02  0.95570495514E+02  0.00000000000E+00 0.  1.
          2    1    1    2  501    0  0.29118182183E+02 -0.77656735908E+02  0.90518975303E+03  0.90898125732E+03  0.00000000000E+00 0. -1.
<scales pt_clust_3="50.55592" pt_clust_4="14000.00000" pt_clust_5="40.04357" pt_clust_6="116.73306"></scales>
<clustering>
<clus scale="   40.044">  2  5  1 -1</clus>
<clus scale="   50.556">  1  3  2 -1</clus>
<clus scale="  116.733">  1  6  2 -1</clus>
<clus scale="   40.044">  2  3  1 -1</clus>
</clustering>
</event>
<event>
 6    0  0.3643696E+002  0.8751810E+02  0.7546771E-02  0.1308976E+00
          2   -1    0    0  505    0 -0.00000000000E+00  0.00000000000E+00  0.64264334836E+03  0.64264334836E+03  0.00000000000E+00 0.  1.
         21   -1    0    0  503  502  0.00000000000E+00 -0.00000000000E+00 -0.37238126093E+03  0.37238126093E+03  0.00000000000E+00 0. -1.
         21    1    1    2  503  501  0.69260501815E+02 -0.47474112780E-01 -0.34941451782E+01  0.69348600677E+02  0.00000000000E+00 0. -1.
         21    1    1    2  504  502 -0.44968290821E+02 -0.80527503339E+02 -0.30431297915E+03  0.31798304240E+03  0.00000000000E+00 0. -1.
         21    1    1    2  505  504  0.10975773436E+02 -0.64895240710E+02  0.62241472958E+02  0.90586206596E+02  0.00000000000E+00 0. -1.
          2    1    1    2  501    0 -0.35267984430E+02  0.14547021816E+03  0.51582773880E+03  0.53710675961E+03  0.00000000000E+00 0.  1.
<scales pt_clust_3="70.00313" pt_clust_4="87.51810" pt_clust_5="65.81687" pt_clust_6="14000.00000"></scales>
<clustering>
<clus scale="   65.817">  1  5  2 -1</clus>
<clus scale="   70.003">  2  3  1 -1</clus>
<clus scale="   87.518">  2  4  1 -1</clus>
<clus scale="   70.003">  2  3  1 -1</clus>
</clustering>
</event>
<event>
 6    0  0.3643696E+002  0.4144308E+03  0.7546771E-02  0.1038894E+00
          1   -1    0    0  505    0 -0.00000000000E+00  0.00000000000E+00  0.27203456229E+04  0.27203456229E+04  0.00000000000E+00 0.  1.
         21   -1    0    0  504  502  0.00000000000E+00 -0.00000000000E+00 -0.19043012973E+03  0.19043012973E+03  0.00000000000E+00 0. -1.
         21    1    1    2  503  501  0.38170354540E+02  0.16866407370E+02  0.42356614721E+03  0.42561688491E+03  0.00000000000E+00 0. -1.
         21    1    1    2  504  503 -0.29015599651E+03 -0.11959199310E+03  0.29915683657E+02  0.31525814067E+03  0.00000000000E+00 0. -1.
         21    1    1    2  505  502 -0.66873539926E+01 -0.17183033209E+03  0.24072528223E+03  0.29583617972E+03  0.00000000000E+00 0.  1.
          1    1    1    2  501    0  0.25867299597E+03  0.27455591782E+03  0.18357083801E+04  0.18740645473E+04  0.00000000000E+00 0.  1.
<scales pt_clust_3="35.15327" pt_clust_4="400.72748" pt_clust_5="171.96041" pt_clust_6="35.15327"></scales>
<clustering>
<clus scale="   35.153">  3  6 -1 -1</clus>
<clus scale="  171.960">  2  5  1 -1</clus>
<clus scale="  400.727">  2  4  1 -1</clus>
<clus scale="  171.960">  2  3  1 -1</clus>
</clustering>
</event>
<event>
 6    0  0.3643696E+002  0.1594987E+03  0.7546771E-02  0.1189264E+00
         21   -1    0    0  505  502  0.00000000000E+00  0.00000000000E+00  0.25846652650E+03  0.25846652650E+03  0.00000000000E+00 0.  1.
          2   -1    0    0  503    0 -0.00000000000E+00 -0.00000000000E+00 -0.81477354471E+03  0.81477354471E+03  0.00000000000E+00 0. -1.
         21    1    1    2  503  504 -0.92687493839E+01  0.57769965999E+02 -0.47031121879E+02  0.75068003249E+02  0.00000000000E+00 0.  1.
         21    1    1    2  504  502  0.59866857796E+02  0.15469794656E+03  0.18877178588E+03  0.25129719950E+03  0.00000000000E+00 0.  1.
         21    1    1    2  505  501 -0.91234588682E+02 -0.76853443152E+02 -0.25018762324E+03  0.27717151499E+03  0.00000000000E+00 0. -1.
          2    1    1    2  501    0  0.40636480270E+02 -0.13561446940E+03 -0.44786005897E+03  0.46970335347E+03  0.00000000000E+00 0. -1.
<scales pt_clust_3="58.50879" pt_clust_4="159.49871" pt_clust_5="14000.00000" pt_clust_6="106.37183"></scales>
<clustering>
<clus scale="   58.509">  2  3  1 -1</clus>
<clus scale="  106.372">  2  6  1 -1</clus>
<clus scale="  159.499">  1  4  2 -1</clus>
<clus scale="  159.499">  1  3  2 -1</clus>
</clustering>
</event>
<event>
 6    0  0.3643696E+002  0.1405874E+03  0.7546771E-02  0.1212541E+00
         -1   -1    0    0    0  501 -0.00000000000E+00  0.00000000000E+00  0.10008928485E+04  0.10008928485E+04  0.00000000000E+00 0. -1.
         21   -1    0    0  504  502  0.00000000000E+00 -0.00000000000E+00 -0.20889866602E+03  0.20889866602E+03  0.00000000000E+00 0. -1.
         21    1    1    2  503  502  0.35961903078E+02 -0.36932862483E+02  0.17219789293E+03  0.17974818256E+03  0.00000000000E+00 0. -1.
         21    1    1    2  504  505 -0.10786357899E+03  0.74633730874E+02 -0.17205396913E+03  0.21634997978E+03  0.00000000000E+00 0. -1.
         21    1    1    2  505  501  0.21545997243E+02  0.56722073835E+02  0.13271225217E+03  0.14592520527E+03  0.00000000000E+00 0.  1.
         -1    1    1    2    0  503  0.50355678668E+02 -0.94422942226E+02  0.65913800651E+03  0.66776814691E+03  0.00000000000E+00 0. -1.
<scales pt_clust_3="34.42048" pt_clust_4="131.54978" pt_clust_5="60.67638" pt_clust_6="34.42048"></scales>
<clustering>
<clus scale="   34.420">  3  6 -1 -1</clus>
<clus scale="   60.676">  1  5  2 -1</clus>
<clus scale="  131.550">  2  4  1 -1</clus>
<clus scale="  131.550">  2  3  1 -1</clus>
</clustering>
</event>
<event>
 6    0  0.3643696E+002  0.3386621E+03  0.7546771E-02  0.1067367E+00
         21   -1    0    0  505  502  0.00000000000E+00  0.00000000000E+00  0.12056957851E+04  0.12056957851E+04  0.00000000000E+00 0.  1.
          1   -1    0    0  503    0 -0.00000000000E+00 -0.00000000000E+00 -0.77011205705E+03  0.77011205705E+03  0.00000000000E+00 0. -1.
         21    1    1    2  503  504 -0.30010153815E+02 -0.17062411915E+02 -0.31389518456E+03  0.31578778020E+03  0.00000000000E+00 0. -1.
         21    1    1    2  504  502  0.20786596929E+03 -0.24875774296E+03  0.11168655520E+04  0.11629605914E+04  0.00000000000E+00 0.  1.
         21    1    1    2  505  501 -0.46109211346E+02  0.23689243789E+02 -0.25153688617E+02  0.57618987264E+02  0.00000000000E+00 0.  1.
          1    1    1    2  501    0 -0.13174660413E+03  0.24213091108E+03 -0.34223295075E+03  0.43944048332E+03  0.00000000000E+00 0. -1.
<scales pt_clust_3="34.52152" pt_clust_4="323.86706" pt_clust_5="43.58419" pt_clust_6="43.58419"></scales>
<clustering>
<clus scale="   34.522">  2  3  1 -1</clus>
<clus scale="   43.584">  5  6 -1 -1</clus>
<clus scale="  323.867">  1  4  2 -1</clus>
<clus scale="  323.867">  1  3  2 -1</clus>
</clustering>
</event>
<event>
 6    0  0.3643696E+002  0.3396208E+03  0.7546771E-02  0.1066958E+00
          2   -1    0    0  503    0 -0.00000000000E+00  0.00000000000E+00  0.17917375272E+04  0.17917375272E+04  0.00000000000E+00 0.  1.
         21   -1    0    0  501  502  0.00000000000E+00 -0.00000000000E+00 -0.29255352996E+03  0.29255352996E+03  0.00000000000E+00 0. -1.
         21    1    1    2  503  504  0.23033333974E+03 -0.81872611923E+02  0.89599258004E+03  0.92874069334E+03  0.00000000000E+00 0. -1.
         21    1    1    2  504  505  0.23274635811E+03 -0.18181187711E+03  0.39382238770E+03  0.49226263206E+03  0.00000000000E+00 0. -1.
         21    1    1    2  505  502 -0.11347156629E+03  0.69428252213E+02 -0.92650769343E+02  0.16211182444E+03  0.00000000000E+00 0. -1.
          2    1    1    2  501    0 -0.34960813155E+03  0.19425623682E+03  0.30201979888E+03  0.50117590735E+03  0.00000000000E+00 0.  1.
<scales pt_clust_3="231.56323" pt_clust_4="14000.00000" pt_clust_5="133.02661" pt_clust_6="339.62083"></scales>
<clustering>
<clus scale="  133.027">  2  5  1 -1</clus>
<clus scale="  231.563">  1  3  2 -1</clus>
<clus scale="  339.621">  1  6  2 -1</clus>
<clus scale="  133.027">  2  3  1 -1</clus>
</clustering>
</event>
<event>
 6    0  0.3643696E+002  0.1245772E+03  0.7546771E-02  0.1235732E+00
         21   -1    0    0  501  502  0.00000000000E+00  0.00000000000E+00  0.46233554982E+02  0.46233554982E+02  0.00000000000E+00 0. -1.
          2   -1    0    0  504    0 -0.00000000000E+00 -0.00000000000E+00 -0.17651510478E+04  0.17651510478E+04  0.00000000000E+00 0. -1.
         21    1    1    2  503  502 -0.44592490293E+01  0.12951214763E+03 -0.72717699819E+02  0.14859725823E+03  0.00000000000E+00 0. -1.
         21    1    1    2  504  505  0.44480713250E+02  0.18326795599E+01 -0.35547913692E+03  0.35825592717E+03  0.00000000000E+00 0.  1.
         21    1    1    2  505  503 -0.52280184285E+01 -0.74862853253E+02 -0.11008587743E+04  0.11034137121E+04  0.00000000000E+00 0. -1.
          2    1    1    2  501    0 -0.34793445792E+02 -0.56481973938E+02 -0.18986188181E+03  0.20111770538E+03  0.00000000000E+00 0. -1.
<scales pt_clust_3="14000.00000" pt_clust_4="44.51845" pt_clust_5="124.57716" pt_clust_6="63.09184"></scales>
<clustering>
<clus scale="   44.518">  2  4  1 -1</clus>
<clus scale="   63.092">  2  6  1 -1</clus>
<clus scale="  124.577">  2  5  1 -1</clus>
<clus scale="  124.577">  1  3  2 -1</clus>
</clustering>
</event>
<event>
 6    0  0.3643696E+002  0.1543988E+03  0.7546771E-02  0.1195170E+00
         21   -1    0    0  503  502  0.00000000000E+00  0.00000000000E+00  0.11970834077E+03  0.11970834077E+03  0.00000000000E+00 0.  1.
          2   -1    0    0  504    0 -0.00000000000E+00 -0.00000000000E+00 -0.84851528106E+03  0.84851528106E+03  0.00000000000E+00 0. -1.
         21    1    1    2  503  505 -0.18431423004E+02  0.65686719865E+02 -0.60497532333E+02  0.91183408244E+02  0.00000000000E+00 0.  1.
         21    1    1    2  504  502  0.36237233660E+02 -0.81655054299E+01 -0.13750669828E+03  0.14243561582E+03  0.00000000000E+00 0.  1.
         21    1    1    2  505  501 -0.25021298286E+02  0.93699232745E+02  0.67035389277E+02  0.11789552579E+03  0.00000000000E+00 0.  1.
          2    1    1    2  501    0  0.72154876300E+01 -0.15122044718E+03 -0.59783809895E+03  0.61670907198E+03  0.00000000000E+00 0. -1.
<scales pt_clust_3="66.42641" pt_clust_4="37.14583" pt_clust_5="154.39881" pt_clust_6="14000.00000"></scales>
<clustering>
<clus scale="   37.146">  2  4  1 -1</clus>
<clus scale="   66.426">  1  3  2 -1</clus>
<clus scale="  154.399">  1  5  2 -1</clus>
<clus scale="   66.426">  1  3  2 -1</clus>
</clustering>
</event>
<event>
 6    0  0.3643696E+002  0.8761614E+02  0.7546771E-02  0.1308729E+00
         21   -1    0    0  505  502  0.00000000000E+00  0.00000000000E+00  0.20839041354E+04  0.20839041354E+04  0.00000000000E+00 0.  1.
          2   -1    0    0  504    0 -0.00000000000E+00 -0.00000000000E+00 -0.28431288691E+02  0.28431288691E+02  0.00000000000E+00 0. -1.
         21    1    1    2  503  502 -0.94454061803E+01 -0.45232080369E+02  0.14855525848E+04  0.14862710516E+04  0.00000000000E+00 0.  1.
         21    1    1    2  504  503 -0.56607602094E+02 -0.49940727354E+02  0.41649657331E+03  0.42328228458E+03  0.00000000000E+00 0.  1.
         21    1    1    2  505  501  0.63178967947E+02  0.41418113586E+02  0.11087696521E+03  0.13416684962E+03  0.00000000000E+00 0. -1.
          2    1    1    2  501    0  0.28740403269E+01  0.53754694137E+02  0.42546723469E+02  0.68615238304E+02  0.00000000000E+00 0. -1.
<scales pt_clust_3="46.20776" pt_clust_4="14000.00000" pt_clust_5="87.61614" pt_clust_6="49.59074"></scales>
<clustering>
<clus scale="   46.208">  1  3  2 -1</clus>
<clus scale="   49.591">  2  6  1 -1</clus>
<clus scale="   87.616">  2  5  1 -1</clus>
<clus scale="   46.208">  1  3  2 -1</clus>
</clustering>
</event>
<event>
 6    0  0.3643696E+002  0.6657582E+02  0.7546771E-02  0.1372140E+00
         21   -1    0    0  505  502  0.00000000000E+00  0.00000000000E+00  0.12706652845E+02  0.12706652845E+02  0.00000000000E+00 0. -1.
          2   -1    0    0  504    0 -0.00000000000E+00 -0.00000000000E+00 -0.17989676023E+04  0.17989676023E+04  0.00000000000E+00 0. -1.
         21    1    1    2  503  502  0.64953869927E+02  0.41240423033E+02 -0.61683946779E+03  0.62161942275E+03  0.00000000000E+00 0. -1.
         21    1    1    2  504  503 -0.30263909662E+02 -0.96143371774E+01 -0.58442009317E+03  0.58528214137E+03  0.00000000000E+00 0. -1.
         21    1    1    2  505  501 -0.16364993071E+02  0.58549026443E+02 -0.20784783796E+03  0.21655605566E+03  0.00000000000E+00 0. -1.
          2    1    1    2  501    0 -0.18324967194E+02 -0.90175112299E+02 -0.37715355051E+03  0.38821663535E+03  0.00000000000E+00 0. -1.
<scales pt_clust_3="66.57582" pt_clust_4="31.75437" pt_clust_5="60.85195" pt_clust_6="14000.00000"></scales>
<clustering>
<clus scale="   31.754">  2  4  1 -1</clus>
<clus scale="   60.852">  1  5  2 -1</clus>
<clus scale="   66.576">  2  3  1 -1</clus>
<clus scale="   60.852">  1  3  2 -1</clus>
</clustering>
</event>
<event>
 6    0  0.3643696E+002  0.7298898E+02  0.7546771E-02  0.1350214E+00
         21   -1    0    0  501  502  0.00000000000E+00  0.00000000000E+00  0.13602757693E+03  0.13602757693E+03  0.00000000000E+00 0. -1.
          4   -1    0    0  505    0 -0.00000000000E+00 -0.00000000000E+00 -0.10806217911E+04  0.10806217911E+04  0.00000000000E+00 0. -1.
         21    1    1    2  503  502 -0.50984343660E+02 -0.51422652640E+02  0.11265124115E+03  0.13391786526E+03  0.00000000000E+00 0. -1.
         21    1    1    2  504  503 -0.60434783610E+02 -0.33884924286E+02 -0.34883181311E+03  0.35564615139E+03  0.00000000000E+00 0.  1.
         21    1    1    2  505  504  0.38960936940E+02  0.58208393140E+01 -0.76123146514E+02  0.85712135739E+02  0.00000000000E+00 0.  1.
          4    1    1    2  501    0  0.72458190329E+02  0.79486737613E+02 -0.63229049574E+03  0.64137321569E+03  0.00000000000E+00 0. -1.
<scales pt_clust_3="72.98898" pt_clust_4="56.52399" pt_clust_5="39.39336" pt_clust_6="14000.00000"></scales>
<clustering>
<clus scale="   39.393">  2  5  1 -1</clus>
<clus scale="   56.524">  2  4  1 -1</clus>
<clus scale="   72.989">  1  3  2 -1</clus>
<clus scale="   72.989">  1  3  2 -1</clus>
</clustering>
</event>
<event>
 6    0  0.3643696E+002  0.1073147E+03  0.7546771E-02  0.1265625E+00
          1   -1    0    0  502    0 -0.00000000000E+00  0.00000000000E+00  0.35831254339E+03  0.35831254339E+03  0.00000000000E+00 0.  1.
         21   -1    0    0  505  502  0.00000000000E+00 -0.00000000000E+00 -0.58559206355E+03  0.58559206355E+03  0.00000000000E+00 0. -1.
         21    1    1    2  503  504 -0.10375652567E+03 -0.35944587529E+02 -0.74649575368E+01  0.11005978186E+03  0.00000000000E+00 0.  1.
         21    1    1    2  504  501  0.65620336107E+02  0.64700442417E+02  0.12478608773E+03  0.15512492852E+03  0.00000000000E+00 0.  1.
         21    1    1    2  505  503 -0.23711241017E+02  0.25937059300E+02 -0.50080623353E+03  0.50203768537E+03  0.00000000000E+00 0. -1.
          1    1    1    2  501    0  0.61847430580E+02 -0.54692914188E+02  0.15620558318E+03  0.17668221118E+03  0.00000000000E+00 0.  1.
<scales pt_clust_3="107.31475" pt_clust_4="14000.00000" pt_clust_5="35.14191" pt_clust_6="78.31236"></scales>
<clustering>
<clus scale="   35.142">  2  5  1 -1</clus>
<clus scale="   78.312">  1  6  2 -1</clus>
<clus scale="  107.315">  2  3  1 -1</clus>
<clus scale="   35.142">  2  3  1 -1</clus>
</clustering>
</event>
<event>
 6    0  0.3643696E+002  0.8502586E+02  0.7546771E-02  0.1315365E+00
          2   -1    0    0  504    0 -0.00000000000E+00  0.00000000000E+00  0.19503820333E+03  0.19503820333E+03  0.00000000000E+00 0. -1.
         21   -1    0    0  503  502  0.00000000000E+00 -0.00000000000E+00 -0.61997302959E+03  0.61997302959E+03  0.00000000000E+00 0.  1.
         21    1    1    2  503  505  0.36736189902E+02 -0.52729473132E+02 -0.47221265053E+03  0.47656555929E+03  0.00000000000E+00 0.  1.
         21    1    1    2  504  502  0.47677542761E+01  0.47384861350E+02 -0.31019221863E+02  0.56835276818E+02  0.00000000000E+00 0.  1.
         21    1    1    2  505  501 -0.50176200831E+02 -0.79227028228E+02 -0.65620726991E+02  0.11445808378E+03  0.00000000000E+00 0.  1.
          2    1    1    2  501    0  0.86722566528E+01  0.84571640010E+02  0.14391777313E+03  0.16715231303E+03  0.00000000000E+00 0. -1.
<scales pt_clust_3="42.91060" pt_clust_4="47.62412" pt_clust_5="14000.00000" pt_clust_6="85.02586"></scales>
<clustering>
<clus scale="   47.624">  2  4  1 -1</clus>
<clus scale="   42.911">  2  3  1 -1</clus>
<clus scale="   85.026">  1  6  2 -1</clus>
<clus scale="   47.624">  2  3  1 -1</clus>
</clustering>
</event>
<event>
 6    0  0.3643696E+002  0.1230940E+03  0.7546771E-02  0.1238078E+00
          3   -1    0    0  504    0 -0.00000000000E+00  0.00000000000E+00  0.10074122426E+04  0.10074122426E+04  0.00000000000E+00 0. -1.
         21   -1    0    0  505  502  0.00000000000E+00 -0.00000000000E+00 -0.26583318898E+03  0.26583318898E+03  0.00000000000E+00 0. -1.
         21    1    1    2  503  501  0.33517545349E+01 -0.10682807722E+03  0.60314893850E+03  0.61254560186E+03  0.00000000000E+00 0. -1.
         21    1    1    2  504  502 -0.11682497424E+02  0.45852700943E+02  0.56798349394E+02  0.73925661469E+02  0.00000000000E+00 0.  1.
         21    1    1    2  505  503  0.47146112578E+02  0.92347922576E+02 -0.23992296322E+03  0.26136932302E+03  0.00000000000E+00 0. -1.
          3    1    1    2  501    0 -0.38815369690E+02 -0.31372546299E+02  0.32155472892E+03  0.32540484520E+03  0.00000000000E+00 0. -1.
<scales pt_clust_3="44.89869" pt_clust_4="47.31755" pt_clust_5="104.09152" pt_clust_6="44.89869"></scales>
<clustering>
<clus scale="   44.899">  3  6 -1 -1</clus>
<clus scale="   47.318">  1  4  2 -1</clus>
<clus scale="  104.092">  2  5  1 -1</clus>
<clus scale="  104.092">  2  3  1 -1</clus>
</clustering>
</event>
<event>
 6    0  0.3643696E+002  0.5702546E+02  0.7546771E-02  0.1410756E+00
         21   -1    0    0  505  502  0.00000000000E+00  0.00000000000E+00  0.82282743547E+02  0.82282743547E+02  0.00000000000E+00 0. -1.
          2   -1    0    0  504    0 -0.00000000000E+00 -0.00000000000E+00 -0.34276536005E+03  0.34276536005E+03  0.00000000000E+00 0. -1.
         21    1    1    2  503  502  0.56450040920E+02  0.18554307703E+00  0.33841150648E+02  0.65816905300E+02  0.00000000000E+00 0. -1.
         21    1    1    2  504  503  0.49899304934E+02 -0.22806921382E+02 -0.70724881943E+02  0.89510363767E+02  0.00000000000E+00 0. -1.
         21    1    1    2  505  501 -0.60132610760E+02 -0.39961836504E+02 -0.12188873686E+03  0.14166772189E+03  0.00000000000E+00 0. -1.
          2    1    1    2  501    0 -0.46216735094E+02  0.62583214809E+02 -0.10171014835E+03  0.12805311264E+03  0.00000000000E+00 0. -1.
<scales pt_clust_3="57.02546" pt_clust_4="54.86434" pt_clust_5="14000.00000" pt_clust_6="57.98676"></scales>
<clustering>
<clus scale="   54.864">  2  4  1 -1</clus>
<clus scale="   57.987">  2  6  1 -1</clus>
<clus scale="   57.025">  1  3  2 -1</clus>
<clus scale="   57.025">  1  3  2 -1</clus>
</clustering>
</event>
<event>
 6    0  0.3643696E+002  0.1792461E+03  0.7546771E-02  0.1168535E+00
         21   -1    0    0  504  502  0.00000000000E+00  0.00000000000E+00  0.44500071996E+02  0.44500071996E+02  0.00000000000E+00 0.  1.
          2   -1    0    0  505    0 -0.00000000000E+00 -0.00000000000E+00 -0.29991826721E+04  0.29991826721E+04  0.00000000000E+00 0.  1.
         21    1    1    2  503  501 -0.19500402993E+02 -0.10752223501E+03 -0.66430736984E+03  0.67323515830E+03  0.00000000000E+00 0.  1.
         21    1    1    2  504  503  0.38359430219E+01  0.16684209925E+03 -0.17262883464E+03  0.24010771560E+03  0.00000000000E+00 0.  1.
         21    1    1    2  505  502  0.10181979648E+02  0.45752250386E+02 -0.16598173795E+04  0.16604790497E+04  0.00000000000E+00 0. -1.
          2    1    1    2  501    0  0.54824803235E+01 -0.10507211462E+03 -0.45792901610E+03  0.46986082051E+03  0.00000000000E+00 0.  1.
<scales pt_clust_3="42.33068" pt_clust_4="173.97729" pt_clust_5="46.87154" pt_clust_6="42.33068"></scales>
<clustering>
<clus scale="   42.331">  3  6 -1 -1</clus>
<clus scale="   46.872">  2  5  1 -1</clus>
<clus scale="  173.977">  1  4  2 -1</clus>
<clus scale="  173.977">  1  3  2 -1</clus>
</clustering>
</event>
<event>
 6    0  0.3643696E+002  0.2068733E+03  0.7546771E-02  0.1144066E+00
         21   -1    0    0  505  502  0.00000000000E+00  0.00000000000E+00  0.37674277517E+03  0.37674277517E+03  0.00000000000E+00 0.  1.
          1   -1    0    0  504    0 -0.00000000000E+00 -0.00000000000E+00 -0.11464540553E+04  0.11464540553E+04  0.00000000000E+00 0. -1.
         21    1    1    2  503  501  0.24189449461E+03 -0.31096504528E+02 -0.32996013709E+03  0.41030918974E+03  0.00000000000E+00 0. -1.
         21    1    1    2  504  502 -0.23062991243E+02 -0.23133044970E+02 -0.53359963193E+02  0.62564566702E+02  0.00000000000E+00 0. -1.
         21    1    1    2  505  503 -0.56366701398E+02 -0.44572463703E+02  0.31526862148E+03  0.32335462458E+03  0.00000000000E+00 0.  1.
          1    1    1    2  501    0 -0.16246480197E+03  0.98802013201E+02 -0.70165980131E+03  0.72696844943E+03  0.00000000000E+00 0. -1.
<scales pt_clust_3="14000.00000" pt_clust_4="32.66557" pt_clust_5="71.98084" pt_clust_6="206.87326"></scales>
<clustering>
<clus scale="   32.666">  2  4  1 -1</clus>
<clus scale="   71.981">  1  5  2 -1</clus>
<clus scale="  206.873">  2  6  1 -1</clus>
<clus scale="   71.981">  1  3  2 -1</clus>
</clustering>
</event>
<event>
 6    0  0.3643696E+002  0.1993285E+03  0.7546771E-02  0.1150307E+00
         21   -1    0    0  503  502  0.00000000000E+00  0.00000000000E+00  0.22064816832E+03  0.22064816832E+03  0.00000000000E+00 0. -1.
          2   -1    0    0  502    0 -0.00000000000E+00 -0.00000000000E+00 -0.28328683064E+04  0.28328683064E+04  0.00000000000E+00 0.  1.
         21    1    1    2  503  505  0.37368479932E+00  0.87249430524E+02  0.18163325708E+03  0.20150246362E+03  0.00000000000E+00 0. -1.
         21    1    1    2  504  501  0.43959732141E+02 -0.84490689581E+02 -0.15482917880E+04  0.15512184228E+04  0.00000000000E+00 0. -1.
         21    1    1    2  505  504 -0.53946942240E+02  0.10684424363E+03 -0.11867915481E+03  0.16855475894E+03  0.00000000000E+00 0. -1.
          2    1    1    2  501    0  0.96135252992E+01 -0.10960298458E+03 -0.11268824524E+04  0.11322408293E+04  0.00000000000E+00 0.  1.
<scales pt_clust_3="87.25023" pt_clust_4="57.75931" pt_clust_5="189.41476" pt_clust_6="57.75931"></scales>
<clustering>
<clus scale="   57.759">  4  6 -1 -1</clus>
<clus scale="   87.250">  1  3  2 -1</clus>
<clus scale="  189.415">  1  5  2 -1</clus>
<clus scale="   87.250">  1  3  2 -1</clus>
</clustering>
</event>
<event>
 6    0  0.3643696E+002  0.1446299E+03  0.7546771E-02  0.1207231E+00
          1   -1    0    0  503    0 -0.00000000000E+00  0.00000000000E+00  0.61560353689E+02  0.61560353689E+02  0.00000000000E+00 0. -1.
         21   -1    0    0  504  502  0.00000000000E+00 -0.00000000000E+00 -0.54545103320E+03  0.54545103320E+03  0.00000000000E+00 0. -1.
         21    1    1    2  503  505  0.31379056781E+02  0.11894831520E+03 -0.15867210348E+03  0.20077396075E+03  0.00000000000E+00 0. -1.
         21    1    1    2  504  501 -0.38365955359E+02 -0.54356697710E+02 -0.14689213061E+02  0.68134940353E+02  0.00000000000E+00 0. -1.
         21    1    1    2  505  502  0.42293525179E+02 -0.24941781047E+01 -0.21322284770E+03  0.21739122793E+03  0.00000000000E+00 0. -1.
          1    1    1    2  501    0 -0.35306626601E+02 -0.62097439386E+02 -0.97306515270E+02  0.12071125786E+03  0.00000000000E+00 0. -1.
<scales pt_clust_3="129.56539" pt_clust_4="63.02304" pt_clust_5="42.36701" pt_clust_6="63.02304"></scales>
<clustering>
<clus scale="   42.367">  2  5  1 -1</clus>
<clus scale="   63.023">  4  6 -1 -1</clus>
<clus scale="  129.565">  2  3  1 -1</clus>
<clus scale="   42.367">  2  3  1 -1</clus>
</clustering>
</event>
<event>
 6    0  0.3643696E+002  0.2265013E+03  0.7546771E-02  0.1129127E+00
          4   -1    0    0  505    0 -0.00000000000E+00  0.00000000000E+00  0.14950770527E+04  0.14950770527E+04  0.00000000000E+00 0. -1.
         21   -1    0    0  504  502  0.00000000000E+00 -0.00000000000E+00 -0.12409072360E+03  0.12409072360E+03  0.00000000000E+00 0. -1.
         21    1    1    2  503  502  0.19599703842E+03 -0.75613588975E+02 -0.14147071476E+02  0.21055259091E+03  0.00000000000E+00 0. -1.
         21    1    1    2  504  501 -0.11891433061E+03  0.64061417542E+02  0.84210457969E+03  0.85286845784E+03  0.00000000000E+00 0. -1.
         21    1    1    2  505  503  0.25585578251E+01  0.35071732580E+02  0.15905850188E+03  0.16289929302E+03  0.00000000000E+00 0. -1.
          4    1    1    2  501    0 -0.79641265633E+02 -0.23519561147E+02  0.38397031898E+03  0.39284743452E+03  0.00000000000E+00 0. -1.
<scales pt_clust_3="209.33793" pt_clust_4="64.10568" pt_clust_5="35.16493" pt_clust_6="64.10568"></scales>
<clustering>
<clus scale="   35.165">  1  5  2 -1</clus>
<clus scale="   64.106">  4  6 -1 -1</clus>
<clus scale="  209.338">  2  3  1 -1</clus>
<clus scale="  209.338">  2  3  1 -1</clus>
</clustering>
</event>
<event>
 6    0  0.3643696E+002  0.2038772E+03  0.7546771E-02  0.1146508E+00
         21   -1    0    0  505  502  0.00000000000E+00  0.00000000000E+00  0.91797049554E+02  0.91797049554E+02  0.00000000000E+00 0.  1.
          2   -1    0    0  504    0 -0.00000000000E+00 -0.00000000000E+00 -0.88233283522E+03  0.88233283522E+03  0.00000000000E+00 0.  1.
         21    1    1    2  503  502 -0.18983343589E+03  0.14682999647E+02 -0.73788738249E+02  0.20419868205E+03  0.00000000000E+00 0.  1.
         21    1    1    2  504  503 -0.39719289255E+02 -0.14950330305E+02 -0.72383073704E+02  0.83907351728E+02  0.00000000000E+00 0. -1.
         21    1    1    2  505  501  0.10658805299E+03 -0.25853930521E+02 -0.29432458976E+03  0.31409616824E+03  0.00000000000E+00 0.  1.
          2    1    1    2  501    0  0.12296467215E+03  0.26121261179E+02 -0.35003938396E+03  0.37192768276E+03  0.00000000000E+00 0.  1.
<scales pt_clust_3="197.07017" pt_clust_4="42.43977" pt_clust_5="49.71882" pt_clust_6="49.71882"></scales>
<clustering>
<clus scale="   42.440">  2  4  1 -1</clus>
<clus scale="   49.719">  5  6 -1 -1</clus>
<clus scale="  197.070">  1  3  2 -1</clus>
<clus scale="  197.070">  1  3  2 -1</clus>
</clustering>
</event>
<event>
 6    0  0.3643696E+002  0.1215152E+03  0.7546771E-02  0.1240618E+00
          2   -1    0    0  504    0 -0.00000000000E+00  0.00000000000E+00  0.35512537547E+04  0.35512537547E+04  0.00000000000E+00 0.  1.
         21   -1    0    0  501  502  0.00000000000E+00 -0.00000000000E+00 -0.15433317635E+03  0.15433317635E+03  0.00000000000E+00 0. -1.
         21    1    1    2  503  505 -0.39407251712E+02  0.97481339134E+02  0.25747065333E+03  0.27811271149E+03  0.00000000000E+00 0. -1.
         21    1    1    2  504  503 -0.20771669315E+02 -0.32189415470E+02  0.59834005656E+03  0.59956521247E+03  0.00000000000E+00 0.  1.
         21    1    1    2  505  502  0.26485888466E+02  0.30784157006E+02 -0.13953855761E+03  0.14532782139E+03  0.00000000000E+00 0. -1.
          2    1    1    2  501    0  0.33693032561E+02 -0.96076080670E+02  0.26806484261E+04  0.26825811857E+04  0.00000000000E+00 0.  1.
<scales pt_clust_3="14000.00000" pt_clust_4="38.30954" pt_clust_5="40.57273" pt_clust_6="121.51520"></scales>
<clustering>
<clus scale="   38.310">  1  4  2 -1</clus>
<clus scale="   40.573">  2  5  1 -1</clus>
<clus scale="  121.515">  1  6  2 -1</clus>
<clus scale="   40.573">  2  3  1 -1</clus>
</clustering>
</event>
<event>
 6    0  0.3643696E+002  0.1038026E+03  0.7546771E-02  0.1272497E+00
         21   -1    0    0  501  502  0.00000000000E+00  0.00000000000E+00  0.51883669634E+03  0.51883669634E+03  0.00000000000E+00 0. -1.
          2   -1    0    0  504    0 -0.00000000000E+00 -0.00000000000E+00 -0.13146048653E+04  0.13146048653E+04  0.00000000000E+00 0. -1.
         21    1    1    2  503  505 -0.52281726233E+01  0.74054474601E+02 -0.14695748400E+03  0.16464477246E+03  0.00000000000E+00 0. -1.
         21    1    1    2  504  503 -0.26118540933E+02  0.60356451480E+02 -0.90838044479E+03  0.91075798755E+03  0.00000000000E+00 0. -1.
         21    1    1    2  505  502  0.97454298602E+02  0.29900526621E+01  0.48011596785E+03  0.48991593495E+03  0.00000000000E+00 0. -1.
          2    1    1    2  501    0 -0.66107585046E+02 -0.13740097874E+03 -0.22054620800E+03  0.26812286666E+03  0.00000000000E+00 0. -1.
<scales pt_clust_3="103.80256" pt_clust_4="65.76534" pt_clust_5="97.20954" pt_clust_6="14000.00000"></scales>
<clustering>
<clus scale="   65.765">  2  4  1 -1</clus>
<clus scale="   97.210">  1  5  2 -1</clus>
<clus scale="  103.803">  2  3  1 -1</clus>
<clus scale="   97.210">  1  3  2 -1</clus>
</clustering>
</event>
<event>
 6    0  0.3643696E+002  0.9977850E+02  0.7546771E-02  0.1280762E+00
         21   -1    0    0  504  502  0.00000000000E+00  0.00000000000E+00  0.74649011579E+03  0.74649011579E+03  0.00000000000E+00 0.  1.
         -1   -1    0    0    0  501 -0.00000000000E+00 -0.00000000000E+00 -0.57355391696E+03  0.57355391696E+03  0.00000000000E+00 0.  1.
         21    1    1    2  503  502  0.57429342349E+02  0.23200033235E+02  0.70146606550E+03  0.70419529390E+03  0.00000000000E+00 0.  1.
         21    1    1    2  504  505  0.37343819681E+02  0.53412921951E+02 -0.45467390828E+00  0.65174441525E+02  0.00000000000E+00 0. -1.
         21    1    1    2  505  501 -0.59721328510E+02  0.10762622086E+02 -0.17316951571E+03  0.18349428407E+03  0.00000000000E+00 0.  1.
         -1    1    1    2    0  503 -0.35051833520E+02 -0.87375577272E+02 -0.35490567705E+03  0.36718001326E+03  0.00000000000E+00 0.  1.
<scales pt_clust_3="61.76127" pt_clust_4="99.77850" pt_clust_5="60.68337" pt_clust_6="14000.00000"></scales>
<clustering>
<clus scale="   60.683">  2  5  1 -1</clus>
<clus scale="   61.761">  1  3  2 -1</clus>
<clus scale="   99.778">  1  4  2 -1</clus>
<clus scale="   61.761">  1  3  2 -1</clus>
</clustering>
</event>
<event>
 6    0  0.3643696E+002  0.2269748E+03  0.7546771E-02  0.1128787E+00
         21   -1    0    0  501  502  0.00000000000E+00  0.00000000000E+00  0.14587892667E+04  0.14587892667E+04  0.00000000000E+00 0. -1.
          1   -1    0    0  504    0 -0.00000000000E+00 -0.00000000000E+00 -0.60769195220E+03  0.60769195220E+03  0.00000000000E+00 0.  1.
         21    1    1    2  503  502  0.98598117727E+02  0.20430645441E+03  0.13920871033E+04  0.14104500059E+04  0.00000000000E+00 0. -1.
         21    1    1    2  504  505 -0.36059387605E+02 -0.72984355863E+00 -0.19085998185E+03  0.19423785619E+03  0.00000000000E+00 0.  1.
         21    1    1    2  505  503  0.62821402024E+02 -0.79748655899E+01 -0.11478004656E+03  0.13108999246E+03  0.00000000000E+00 0.  1.
          1    1    1    2  501    0 -0.12536013215E+03 -0.19560174526E+03 -0.23534976035E+03  0.33070336433E+03  0.00000000000E+00 0.  1.
<scales pt_clust_3="14000.00000" pt_clust_4="36.06677" pt_clust_5="52.78267" pt_clust_6="226.97480"></scales>
<clustering>
<clus scale="   36.067">  2  4  1 -1</clus>
<clus scale="   52.783">  2  5  1 -1</clus>
<clus scale="  226.975">  2  6  1 -1</clus>
<clus scale="  226.975">  1  3  2 -1</clus>
</clustering>
</event>
<event>
 6    0  0.3643696E+002  0.8436815E+02  0.7546771E-02  0.1317093E+00
          2   -1    0    0  503    0 -0.00000000000E+00  0.00000000000E+00  0.24000145358E+04  0.24000145358E+04  0.00000000000E+00 0. -1.
         21   -1    0    0  504  502  0.00000000000E+00 -0.00000000000E+00 -0.39196812652E+02  0.39196812652E+02  0.00000000000E+00 0.  1.
         21    1    1    2  503  505  0.17824196606E+02 -0.31311315880E+02  0.33700398286E+03  0.33892445316E+03  0.00000000000E+00 0. -1.
         21    1    1    2  504  501 -0.36607211557E+02 -0.20802113571E+02 -0.15883792065E+02  0.45001230176E+02  0.00000000000E+00 0.  1.
         21    1    1    2  505  502  0.87210692087E+02 -0.35182616506E+02  0.36502763534E+03  0.37694654247E+03  0.00000000000E+00 0.  1.
          2    1    1    2  501    0 -0.68427677136E+02  0.87296045957E+02  0.16746698970E+04  0.16783391226E+04  0.00000000000E+00 0. -1.
<scales pt_clust_3="36.02916" pt_clust_4="42.10540" pt_clust_5="14000.00000" pt_clust_6="84.36815"></scales>
<clustering>
<clus scale="   36.029">  1  3  2 -1</clus>
<clus scale="   42.105">  2  4  1 -1</clus>
<clus scale="   84.368">  1  6  2 -1</clus>
<clus scale="   42.105">  2  3  1 -1</clus>
</clustering>
</event>
<event>
 6    0  0.3643696E+002  0.1969923E+03  0.7546771E-02  0.1152302E+00
          1   -1    0    0  505    0 -0.00000000000E+00  0.00000000000E+00  0.58571157938E+03  0.58571157938E+03  0.00000000000E+00 0.  1.
         21   -1    0    0  504  502  0.00000000000E+00 -0.00000000000E+00 -0.22911721087E+03  0.22911721087E+03  0.00000000000E+00 0.  1.
         21    1    1    2  503  502  0.18800029971E+02  0.73604526272E+02 -0.24547706371E+02  0.79835188374E+02  0.00000000000E+00 0.  1.
         21    1    1    2  504  501 -0.39736494521E+02 -0.81184179835E+02  0.19246059935E+02  0.92413585989E+02  0.00000000000E+00 0.  1.
         21    1    1    2  505  503  0.19861310704E+03  0.28091539896E+02  0.41080046086E+03  0.45715787157E+03  0.00000000000E+00 0.  1.
          1    1    1    2  501    0 -0.17767664249E+03 -0.20511886333E+02 -0.48904445910E+02  0.18542214430E+03  0.00000000000E+00 0.  1.
<scales pt_clust_3="75.96754" pt_clust_4="75.07657" pt_clust_5="14000.00000" pt_clust_6="196.99225"></scales>
<clustering>
<clus scale="   75.968">  2  3  1 -1</clus>
<clus scale="   75.077">  2  4  1 -1</clus>
<clus scale="  196.992">  2  6  1 -1</clus>
<clus scale="   75.968">  2  3  1 -1</clus>
</clustering>
</event>
<event>
 6    0  0.3643696E+002  0.1358373E+03  0.7546771E-02  0.1219043E+00
         21   -1    0    0  504  502  0.00000000000E+00  0.00000000000E+00  0.14058081365E+03  0.14058081365E+03  0.00000000000E+00 0.  1.
          4   -1    0    0  505    0 -0.00000000000E+00 -0.00000000000E+00 -0.18220137422E+04  0.18220137422E+04  0.00000000000E+00 0.  1.
         21    1    1    2  503  501  0.65197771042E+02 -0.18392550394E+02 -0.56093708025E+03  0.56501278150E+03  0.00000000000E+00 0.  1.
         21    1    1    2  504  503 -0.99395036612E+02  0.75858901120E+01 -0.26734322392E+03  0.28532318239E+03  0.00000000000E+00 0. -1.
         21    1    1    2  505  502 -0.39045926211E+02 -0.31251124445E+01  0.12514090949E+03  0.13112817359E+03  0.00000000000E+00 0.  1.
          4    1    1    2  501    0  0.73243191781E+02  0.13931772727E+02 -0.97829353386E+03  0.98113041836E+03  0.00000000000E+00 0.  1.
<scales pt_clust_3="43.43943" pt_clust_4="127.70924" pt_clust_5="39.17079" pt_clust_6="43.43943"></scales>
<clustering>
<clus scale="   39.171">  1  5  2 -1</clus>
<clus scale="   43.439">  3  6 -1 -1</clus>
<clus scale="  127.709">  1  4  2 -1</clus>
<clus scale="   39.171">  1  3  2 -1</clus>
</clustering>
</event>
<event>
 6    0  0.3643696E+002  0.1533766E+03  0.7546771E-02  0.1196384E+00
          2   -1    0    0  503    0 -0.00000000000E+00  0.00000000000E+00  0.15745680107E+04  0.15745680107E+04  0.00000000000E+00 0. -1.
         21   -1    0    0  501  502  0.00000000000E+00 -0.00000000000E+00 -0.26997251919E+02  0.26997251919E+02  0.00000000000E+00 0. -1.
         21    1    1    2  503  504 -0.69490868256E+02  0.10026243851E+02  0.57542413003E+03  0.57969167301E+03  0.00000000000E+00 0. -1.
         21    1    1    2  504  505  0.64533888558E+02 -0.10695183802E+03  0.21244023786E+03  0.24644304228E+03  0.00000000000E+00 0. -1.
         21    1    1    2  505  502  0.18747319880E+02 -0.25735953757E+02  0.14527910244E+03  0.14872733079E+03  0.00000000000E+00 0.  1.
          2    1    1    2  501    0 -0.13790340181E+02  0.12266154792E+03  0.61442728842E+03  0.62670321651E+03  0.00000000000E+00 0. -1.
<scales pt_clust_3="70.21044" pt_clust_4="30.52173" pt_clust_5="30.52173" pt_clust_6="140.95992"></scales>
<clustering>
<clus scale="   30.522">  4  5 -1 -1</clus>
<clus scale="   70.210">  1  3  2 -1</clus>
<clus scale="  140.960">  1  6  2 -1</clus>
<clus scale="  153.377">  2  3  1 -1</clus>
</clustering>
</event>
<event>
 6    0  0.3643696E+002  0.1302242E+03  0.7546771E-02  0.1227123E+00
          1   -1    0    0  505    0 -0.00000000000E+00  0.00000000000E+00  0.17796536204E+04  0.17796536204E+04  0.00000000000E+00 0. -1.
         21   -1    0    0  503  502  0.00000000000E+00 -0.00000000000E+00 -0.12647207630E+03  0.12647207630E+03  0.00000000000E+00 0. -1.
         21    1    1    2  503  504 -0.59029300809E+02 -0.11641291417E+02 -0.10487381443E+03  0.12090696826E+03  0.00000000000E+00 0. -1.
         21    1    1    2  504  501  0.35204302440E+02 -0.19866696186E+02  0.24562697808E+03  0.24893099624E+03  0.00000000000E+00 0.  1.
         21    1    1    2  505  502 -0.53161970562E+02  0.72487316515E+02  0.18185543486E+03  0.20285957053E+03  0.00000000000E+00 0. -1.
          1    1    1    2  501    0  0.76986968930E+02 -0.40979328912E+02  0.13305729456E+04  0.13334281617E+04  0.00000000000E+00 0. -1.
<scales pt_clust_3="60.16625" pt_clust_4="38.30197" pt_clust_5="117.44426" pt_clust_6="38.30197"></scales>
<clustering>
<clus scale="   38.302">  4  6 -1 -1</clus>
<clus scale="   60.166">  2  3  1 -1</clus>
<clus scale="  117.444">  2  5  1 -1</clus>
<clus scale="   60.166">  2  3  1 -1</clus>
</clustering>
</event>
<event>
 6    0  0.3643696E+002  0.6881015E+02  0.7546771E-02  0.1364187E+00
          2   -1    0    0  503    0 -0.00000000000E+00  0.00000000000E+00  0.32269625584E+04  0.32269625584E+04  0.00000000000E+00 0.  1.
         21   -1    0    0  505  502  0.00000000000E+00 -0.00000000000E+00 -0.57063484021E+02  0.57063484021E+02  0.00000000000E+00 0. -1.
         21    1    1    2  503  504 -0.39802036916E+02 -0.43706358752E+02  0.49351690467E+03  0.49704464903E+03  0.00000000000E+00 0.  1.
         21    1    1    2  504  502  0.49059159555E+02 -0.30994569095E+02 -0.31086341064E+02  0.65831793614E+02  0.00000000000E+00 0. -1.
         21    1    1    2  505  501  0.59184922366E+02  0.57106888030E+02  0.26079623185E+03  0.27345699158E+03  0.00000000000E+00 0.  1.
          2    1    1    2  501    0 -0.68442045005E+02  0.17594039817E+02  0.24466722789E+04  0.24476926082E+04  0.00000000000E+00 0.  1.
<scales pt_clust_3="58.23047" pt_clust_4="58.02986" pt_clust_5="68.81015" pt_clust_6="14000.00000"></scales>
<clustering>
<clus scale="   58.030">  2  4  1 -1</clus>
<clus scale="   58.230">  2  3  1 -1</clus>
<clus scale="   68.810">  2  5  1 -1</clus>
<clus scale="   58.030">  2  3  1 -1</clus>
</clustering>
</event>
<event>
 6    0  0.3643696E+002  0.1247390E+03  0.7546771E-02  0.1235478E+00
         21   -1    0    0  503  502  0.00000000000E+00  0.00000000000E+00  0.27663944825E+03  0.27663944825E+03  0.00000000000E+00 0.  1.
          3   -1    0    0  504    0 -0.00000000000E+00 -0.00000000000E+00 -0.40406216799E+03  0.40406216799E+03  0.00000000000E+00 0. -1.
         21    1    1    2  503  501  0.38843946807E+02 -0.12725061537E+02  0.20284076500E+03  0.20691823346E+03  0.00000000000E+00 0.  1.
         21    1    1    2  504  505 -0.70986849552E+02 -0.13426945708E+03 -0.14105746492E+03  0.20727910730E+03  0.00000000000E+00 0.  1.
         21    1    1    2  505  502  0.81619789640E+01  0.35634151435E+02  0.92229715416E+01  0.37702438292E+02  0.00000000000E+00 0.  1.
          3    1    1    2  501    0  0.23980923781E+02  0.11136036718E+03 -0.19842899137E+03  0.22880183718E+03  0.00000000000E+00 0. -1.
<scales pt_clust_3="48.22010" pt_clust_4="14000.00000" pt_clust_5="36.55695" pt_clust_6="124.73901"></scales>
<clustering>
<clus scale="   36.557">  1  5  2 -1</clus>
<clus scale="   48.220">  1  3  2 -1</clus>
<clus scale="  124.739">  2  6  1 -1</clus>
<clus scale="   36.557">  1  3  2 -1</clus>
</clustering>
</event>
<event>
 6    0  0.3643696E+002  0.1034465E+03  0.7546771E-02  0.1273211E+00
         21   -1    0    0  501  502  0.00000000000E+00  0.00000000000E+00  0.13663809268E+03  0.13663809268E+03  0.00000000000E+00 0.  1.
          1   -1    0    0  503    0 -0.00000000000E+00 -0.00000000000E+00 -0.84631155160E+03  0.84631155160E+03  0.00000000000E+00 0.  1.
         21    1    1    2  503  505  0.22729147795E+02  0.30679609867E+02 -0.29201890365E+03  0.29450448674E+03  0.00000000000E+00 0.  1.
         21    1    1    2  504  502  0.47634701899E+02  0.18713411405E+02  0.95099327317E+02  0.10799601218E+03  0.00000000000E+00 0.  1.
         21    1    1    2  505  504  0.64649774155E+02 -0.54035175126E+01 -0.20369215026E+02  0.67997766291E+02  0.00000000000E+00 0.  1.
          1    1    1    2  501    0 -0.13501362385E+03 -0.43989503760E+02 -0.49238466756E+03  0.51245137907E+03  0.00000000000E+00 0.  1.
<scales pt_clust_3="38.18184" pt_clust_4="51.55667" pt_clust_5="14000.00000" pt_clust_6="103.44651"></scales>
<clustering>
<clus scale="   38.182">  2  3  1 -1</clus>
<clus scale="   51.557">  1  4  2 -1</clus>
<clus scale="  103.447">  2  6  1 -1</clus>
<clus scale="   51.557">  1  3  2 -1</clus>
</clustering>
</event>
<event>
 6    0  0.3643696E+002  0.9636130E+02  0.7546771E-02  0.1288139E+00
          2   -1    0    0  504    0 -0.00000000000E+00  0.00000000000E+00  0.82886352279E+03  0.82886352279E+03  0.00000000000E+00 0.  1.
         21   -1    0    0  505  502  0.00000000000E+00 -0.00000000000E+00 -0.17367342261E+03  0.17367342261E+03  0.00000000000E+00 0. -1.
         21    1    1    2  503  502 -0.29475669412E+02  0.41564125301E+02  0.10495894478E+03  0.11667378321E+03  0.00000000000E+00 0.  1.
         21    1    1    2  504  503  0.15297656360E+02 -0.43646805792E+02  0.23195405576E+03  0.23652007511E+03  0.00000000000E+00 0. -1.
         21    1    1    2  505  501 -0.81412496224E+02 -0.50813112082E+02 -0.14471034005E+03  0.17364057538E+03  0.00000000000E+00 0. -1.
          2    1    1    2  501    0  0.95590509276E+02  0.52895792573E+02  0.46298743969E+03  0.47570251171E+03  0.00000000000E+00 0.  1.
<scales pt_clust_3="42.73688" pt_clust_4="46.24999" pt_clust_5="96.36130" pt_clust_6="14000.00000"></scales>
<clustering>
<clus scale="   46.250">  1  4  2 -1</clus>
<clus scale="   42.737">  1  3  2 -1</clus>
<clus scale="   96.361">  2  5  1 -1</clus>
<clus scale="   96.361">  2  3  1 -1</clus>
</clustering>
</event>
<event>
 6    0  0.3643696E+002  0.1335554E+03  0.7546771E-02  0.1222273E+00
         21   -1    0    0  504  502  0.00000000000E+00  0.00000000000E+00  0.33394910147E+03  0.33394910147E+03  0.00000000000E+00 0.  1.
          2   -1    0    0  503    0 -0.00000000000E+00 -0.00000000000E+00 -0.17349304835E+04  0.17349304835E+04  0.00000000000E+00 0. -1.
         21    1    1    2  503  502 -0.32210251209E+02 -0.36883477863E+02 -0.51776073537E+02  0.71264668758E+02  0.00000000000E+00 0. -1.
         21    1    1    2  504  505  0.30500186265E+02 -0.11609694699E+03  0.30892476779E+03  0.33142612241E+03  0.00000000000E+00 0.  1.
         21    1    1    2  505  501 -0.66028517418E+01  0.36786778773E+02 -0.20364370420E+03  0.20704497821E+03  0.00000000000E+00 0.  1.
          2    1    1    2  501    0  0.83129166856E+01  0.11619364608E+03 -0.14544863720E+04  0.14591438155E+04  0.00000000000E+00 0. -1.
<scales pt_clust_3="48.96827" pt_clust_4="120.22163" pt_clust_5="32.94930" pt_clust_6="32.94930"></scales>
<clustering>
<clus scale="   32.949">  5  6 -1 -1</clus>
<clus scale="   48.968">  2  3  1 -1</clus>
<clus scale="  120.222">  1  4  2 -1</clus>
<clus scale="  120.222">  1  3  2 -1</clus>
</clustering>
</event>
<event>
 6    0  0.3643696E+002  0.1008486E+03  0.7546771E-02  0.1278521E+00
         21   -1    0    0  504  502  0.00000000000E+00  0.00000000000E+00  0.16811187523E+03  0.16811187523E+03  0.00000000000E+00 0.  1.
          2   -1    0    0  503    0 -0.00000000000E+00 -0.00000000000E+00 -0.10576602554E+04  0.10576602554E+04  0.00000000000E+00 0.  1.
         21    1    1    2  503  505  0.43820600833E+02  0.30314442577E+02 -0.24031860862E+03  0.24615491897E+03  0.00000000000E+00 0. -1.
         21    1    1    2  504  501 -0.73595291845E+02  0.39912003675E+02 -0.82641973357E+02  0.11763898495E+03  0.00000000000E+00 0.  1.
         21    1    1    2  505  502 -0.41480497757E+02 -0.23586222905E+02  0.14122087606E+03  0.14906467536E+03  0.00000000000E+00 0.  1.
          2    1    1    2  501    0  0.71255188769E+02 -0.46640223348E+02 -0.70780867426E+03  0.71291355137E+03  0.00000000000E+00 0.  1.
<scales pt_clust_3="47.24847" pt_clust_4="100.84865" pt_clust_5="47.71731" pt_clust_6="14000.00000"></scales>
<clustering>
<clus scale="   47.717">  1  5  2 -1</clus>
<clus scale="   47.248">  2  3  1 -1</clus>
<clus scale="  100.849">  1  4  2 -1</clus>
<clus scale="   47.717">  1  3  2 -1</clus>
</clustering>
</event>
<event>
 6    0  0.3643696E+002  0.2638870E+03  0.7546771E-02  0.1104830E+00
         21   -1    0    0  503  502  0.00000000000E+00  0.00000000000E+00  0.40329607537E+03  0.40329607537E+03  0.00000000000E+00 0. -1.
          1   -1    0    0  504    0 -0.00000000000E+00 -0.00000000000E+00 -0.16232159000E+04  0.16232159000E+04  0.00000000000E+00 0. -1.
         21    1    1    2  503  501  0.17743086037E+02 -0.35711855312E+02  0.33222926703E+03  0.33461386639E+03  0.00000000000E+00 0. -1.
         21    1    1    2  504  505  0.88300106537E+01  0.83254582249E+02 -0.38070124253E+03  0.38979832044E+03  0.00000000000E+00 0. -1.
         21    1    1    2  505  502  0.23542783053E+03  0.82392261236E+02 -0.34720123000E+03  0.42750841186E+03  0.00000000000E+00 0. -1.
          1    1    1    2  501    0 -0.26200092722E+03 -0.12993498817E+03 -0.82424661909E+03  0.87459137665E+03  0.00000000000E+00 0. -1.
<scales pt_clust_3="39.87673" pt_clust_4="81.54353" pt_clust_5="263.88702" pt_clust_6="14000.00000"></scales>
<clustering>
<clus scale="   39.877">  1  3  2 -1</clus>
<clus scale="   81.544">  2  4  1 -1</clus>
<clus scale="  263.887">  1  5  2 -1</clus>
<clus scale="   39.877">  1  3  2 -1</clus>
</clustering>
</event>
<event>
 6    0  0.3643696E+002  0.1538362E+03  0.7546771E-02  0.1195837E+00
          2   -1    0    0  504    0 -0.00000000000E+00  0.00000000000E+00  0.65520608314E+03  0.65520608314E+03  0.00000000000E+00 0. -1.
         21   -1    0    0  503  502  0.00000000000E+00 -0.00000000000E+00 -0.22349369411E+04  0.22349369411E+04  0.00000000000E+00 0.  1.
         21    1    1    2  503  501 -0.24445455351E+02 -0.37486662795E+02 -0.21592158590E+04  0.21596795957E+04  0.00000000000E+00 0.  1.
         21    1    1    2  504  505 -0.13007732852E+02 -0.41296043837E+02  0.48106083029E+02  0.64720627121E+02  0.00000000000E+00 0.  1.
         21    1    1    2  505  502 -0.10090498691E+03 -0.63728695518E+02  0.25184141886E+02  0.12197296429E+03  0.00000000000E+00 0.  1.
          2    1    1    2  501    0  0.13835817511E+03  0.14251140215E+03  0.50619477615E+03  0.54376983713E+03  0.00000000000E+00 0. -1.
<scales pt_clust_3="44.76914" pt_clust_4="43.29624" pt_clust_5="153.83621" pt_clust_6="14000.00000"></scales>
<clustering>
<clus scale="   43.296">  1  4  2 -1</clus>
<clus scale="   44.769">  2  3  1 -1</clus>
<clus scale="  153.836">  2  5  1 -1</clus>
<clus scale="   44.769">  2  3  1 -1</clus>
</clustering>
</event>
<event>
 6    0  0.3643696E+002  0.1299663E+03  0.7546771E-02  0.1227506E+00
         21   -1    0    0  505  502  0.00000000000E+00  0.00000000000E+00  0.26332109909E+03  0.26332109909E+03  0.00000000000E+00 0.  1.
         -1   -1    0    0    0  501 -0.00000000000E+00 -0.00000000000E+00 -0.98561730981E+03  0.98561730981E+03  0.00000000000E+00 0.  1.
         21    1    1    2  503  502 -0.57668051693E+02 -0.56217201729E+02 -0.41018795921E+02  0.90379862664E+02  0.00000000000E+00 0.  1.
         21    1    1    2  504  503  0.13057709258E+03  0.52884081903E+01 -0.19955094456E+03  0.23853495308E+03  0.00000000000E+00 0. -1.
         21    1    1    2  505  501  0.26483665680E+02 -0.50504509031E+02  0.20807869023E+03  0.21575178170E+03  0.00000000000E+00 0.  1.
         -1    1    1    2    0  504 -0.99392706566E+02  0.10143330257E+03 -0.68980516047E+03  0.70427181145E+03  0.00000000000E+00 0.  1.
<scales pt_clust_3="92.17039" pt_clust_4="129.96628" pt_clust_5="57.02710" pt_clust_6="14000.00000"></scales>
<clustering>
<clus scale="   57.027">  1  5  2 -1</clus>
<clus scale="   92.170">  1  3  2 -1</clus>
<clus scale="  129.966">  1  4  2 -1</clus>
<clus scale="   57.027">  1  3  2 -1</clus>
</clustering>
</event>
<event>
 6    0  0.3643696E+002  0.1668491E+03  0.7546771E-02  0.1181174E+00
          1   -1    0    0  502    0 -0.00000000000E+00  0.00000000000E+00  0.10631582128E+04  0.10631582128E+04  0.00000000000E+00 0.  1.
         21   -1    0    0  505  502  0.00000000000E+00 -0.00000000000E+00 -0.10477238627E+03  0.10477238627E+03  0.00000000000E+00 0. -1.
         21    1    1    2  503  504 -0.33084415102E+02  0.12680299770E+03  0.27340586660E+02  0.13386966208E+03  0.00000000000E+00 0. -1.
         21    1    1    2  504  501  0.90819335390E+01 -0.83514668605E+02  0.36898800288E+03  0.37843008292E+03  0.00000000000E+00 0.  1.
         21    1    1    2  505  503 -0.29688787244E+02  0.16213066190E+02 -0.37637167727E+02  0.50604782361E+02  0.00000000000E+00 0. -1.
          1    1    1    2  501    0  0.53691268807E+02 -0.59501395281E+02  0.59969440474E+03  0.60502607172E+03  0.00000000000E+00 0.  1.
<scales pt_clust_3="152.94534" pt_clust_4="65.13261" pt_clust_5="33.82732" pt_clust_6="65.13261"></scales>
<clustering>
<clus scale="   33.827">  2  5  1 -1</clus>
<clus scale="   65.133">  4  6 -1 -1</clus>
<clus scale="  152.945">  2  3  1 -1</clus>
<clus scale="   33.827">  2  3  1 -1</clus>
</clustering>
</event>
<event>
 6    0  0.3643696E+002  0.1263832E+03  0.7546771E-02  0.1232923E+00
          2   -1    0    0  505    0 -0.00000000000E+00  0.00000000000E+00  0.24058891300E+03  0.24058891300E+03  0.00000000000E+00 0.  1.
         21   -1    0    0  501  502  0.00000000000E+00 -0.00000000000E+00 -0.15287521429E+03  0.15287521429E+03  0.00000000000E+00 0.  1.
         21    1    1    2  503  502 -0.17730911036E+02  0.36058474460E+02 -0.78661409881E+02  0.88330154484E+02  0.00000000000E+00 0.  1.
         21    1    1    2  504  503 -0.43974484657E+02 -0.21629434890E+01  0.20952381451E+02  0.48758957268E+02  0.00000000000E+00 0.  1.
         21    1    1    2  505  504 -0.47416459908E+02  0.47231965224E+02  0.83370153035E+02  0.10691006326E+03  0.00000000000E+00 0.  1.
          2    1    1    2  501    0  0.10912185560E+03 -0.81127496194E+02  0.62052574103E+02  0.14946495228E+03  0.00000000000E+00 0.  1.
<scales pt_clust_3="40.18207" pt_clust_4="43.94622" pt_clust_5="43.94622" pt_clust_6="114.04646"></scales>
<clustering>
<clus scale="   40.182">  2  3  1 -1</clus>
<clus scale="   43.946">  4  5 -1 -1</clus>
<clus scale="  114.046">  2  6  1 -1</clus>
<clus scale="   40.182">  2  3  1 -1</clus>
</clustering>
</event>
<event>
 6    0  0.3643696E+002  0.1364164E+03  0.7546771E-02  0.1218234E+00
         21   -1    0    0  505  502  0.00000000000E+00  0.00000000000E+00  0.94691145149E+03  0.94691145149E+03  0.00000000000E+00 0. -1.
          2   -1    0    0  504    0 -0.00000000000E+00 -0.00000000000E+00 -0.16410675808E+03  0.16410675808E+03  0.00000000000E+00 0.  1.
         21    1    1    2  503  502  0.92626542821E+02 -0.94517589094E+02  0.18623193385E+03  0.22846352941E+03  0.00000000000E+00 0. -1.
         21    1    1    2  504  503  0.25491614459E+02  0.80379325912E+02 -0.29796532332E+02  0.89434287500E+02  0.00000000000E+00 0. -1.
         21    1    1    2  505  501  0.35124718883E+02  0.23468502217E+02  0.63777328889E+03  0.63917077882E+03  0.00000000000E+00 0. -1.
          2    1    1    2  501    0 -0.15324287616E+03 -0.93302390342E+01 -0.11403997008E+02  0.15394961384E+03  0.00000000000E+00 0.  1.
<scales pt_clust_3="14000.00000" pt_clust_4="87.55113" pt_clust_5="42.24354" pt_clust_6="136.41638"></scales>
<clustering>
<clus scale="   42.244">  1  5  2 -1</clus>
<clus scale="   87.551">  2  4  1 -1</clus>
<clus scale="  136.416">  2  6  1 -1</clus>
<clus scale="   42.244">  1  3  2 -1</clus>
</clustering>
</event>
<event>
 6    0  0.3643696E+002  0.8216374E+02  0.7546771E-02  0.1323021E+00
          2   -1    0    0  505    0 -0.00000000000E+00  0.00000000000E+00  0.14731183165E+04  0.14731183165E+04  0.00000000000E+00 0.  1.
         21   -1    0    0  503  502  0.00000000000E+00 -0.00000000000E+00 -0.16604475600E+02  0.16604475600E+02  0.00000000000E+00 0. -1.
         21    1    1    2  503  501 -0.20710031895E+02  0.27369965416E+02  0.46324411368E+02  0.57653894202E+02  0.00000000000E+00 0. -1.
         21    1    1    2  504  502  0.58530154000E+02 -0.10490000298E+03  0.46442413048E+03  0.47970778868E+03  0.00000000000E+00 0. -1.
         21    1    1    2  505  504  0.12782032439E+02  0.50712264757E+02  0.35586304585E+03  0.35968544807E+03  0.00000000000E+00 0.  1.
          2    1    1    2  501    0 -0.50602154543E+02  0.26817772807E+02  0.58990225322E+03  0.59267566117E+03  0.00000000000E+00 0.  1.
<scales pt_clust_3="34.32230" pt_clust_4="14000.00000" pt_clust_5="56.24542" pt_clust_6="82.16374"></scales>
<clustering>
<clus scale="   34.322">  2  3  1 -1</clus>
<clus scale="   56.245">  1  5  2 -1</clus>
<clus scale="   82.164">  1  6  2 -1</clus>
<clus scale="   34.322">  2  3  1 -1</clus>
</clustering>
</event>
<event>
 6    0  0.3643696E+002  0.1082969E+03  0.7546771E-02  0.1263757E+00
         21   -1    0    0  503  502  0.00000000000E+00  0.00000000000E+00  0.13222596521E+04  0.13222596521E+04  0.00000000000E+00 0. -1.
         -4   -1    0    0    0  501 -0.00000000000E+00 -0.00000000000E+00 -0.67567858557E+02  0.67567858557E+02  0.00000000000E+00 0.  1.
         21    1    1    2  503  505  0.48149292260E+02 -0.27386354357E+02  0.54085149513E+02  0.77418151282E+02  0.00000000000E+00 0.  1.
         21    1    1    2  504  502 -0.10789349265E+03 -0.25343081679E+02  0.11995004704E+04  0.12046097525E+04  0.00000000000E+00 0. -1.
         21    1    1    2  505  501 -0.45110757896E+00  0.32061752380E+02  0.24117847958E+02  0.40122687521E+02  0.00000000000E+00 0.  1.
         -4    1    1    2    0  504  0.60195307965E+02  0.20667683655E+02 -0.23011674312E+02  0.67676919281E+02  0.00000000000E+00 0.  1.
<scales pt_clust_3="52.49141" pt_clust_4="14000.00000" pt_clust_5="32.06493" pt_clust_6="108.29693"></scales>
<clustering>
<clus scale="   32.065">  2  5  1 -1</clus>
<clus scale="   52.491">  2  3  1 -1</clus>
<clus scale="  108.297">  2  6  1 -1</clus>
<clus scale="  108.297">  1  3  2 -1</clus>
</clustering>
</event>
<event>
 6    0  0.3643696E+002  0.8608165E+02  0.7546771E-02  0.1312628E+00
         -1   -1    0    0    0  501 -0.00000000000E+00  0.00000000000E+00  0.35165965471E+03  0.35165965471E+03  0.00000000000E+00 0. -1.
         21   -1    0    0  504  502  0.00000000000E+00 -0.00000000000E+00 -0.12302757257E+03  0.12302757257E+03  0.00000000000E+00 0. -1.
         21    1    1    2  503  502 -0.76194313786E+02  0.15690003502E+01  0.71575220972E+02  0.10455164978E+03  0.00000000000E+00 0. -1.
         21    1    1    2  504  505  0.87244930278E+02  0.16490364857E+02 -0.71536201956E+02  0.11402209515E+03  0.00000000000E+00 0. -1.
         21    1    1    2  505  501  0.14195613542E+02  0.33403977890E+02  0.23687451880E+02  0.43340933991E+02  0.00000000000E+00 0.  1.
         -1    1    1    2    0  503 -0.25246230034E+02 -0.51463343097E+02  0.20490561124E+03  0.21277254835E+03  0.00000000000E+00 0. -1.
<scales pt_clust_3="86.08165" pt_clust_4="14000.00000" pt_clust_5="36.29520" pt_clust_6="33.55707"></scales>
<clustering>
<clus scale="   36.295">  1  5  2 -1</clus>
<clus scale="   33.557">  1  6  2 -1</clus>
<clus scale="   86.082">  1  3  2 -1</clus>
<clus scale="   86.082">  2  3  1 -1</clus>
</clustering>
</event>
<event>
 6    0  0.3643696E+002  0.1687750E+03  0.7546771E-02  0.1179131E+00
          4   -1    0    0  505    0 -0.00000000000E+00  0.00000000000E+00  0.39999309418E+03  0.39999309418E+03  0.00000000000E+00 0. -1.
         21   -1    0    0  504  502  0.00000000000E+00 -0.00000000000E+00 -0.14070032820E+03  0.14070032820E+03  0.00000000000E+00 0. -1.
         21    1    1    2  503  502  0.71907792602E+02 -0.68309233798E+02 -0.22656984932E+01  0.99206932463E+02  0.00000000000E+00 0. -1.
         21    1    1    2  504  501  0.66142652303E+02  0.22835809737E+02  0.39577949432E+02  0.80391160840E+02  0.00000000000E+00 0.  1.
         21    1    1    2  505  503 -0.17754082286E+03 -0.18331498189E+01  0.23846644304E+03  0.29730514405E+03  0.00000000000E+00 0. -1.
          4    1    1    2  501    0  0.39490377959E+02  0.47306573879E+02 -0.16485928003E+02  0.63790185026E+02  0.00000000000E+00 0. -1.
<scales pt_clust_3="99.18106" pt_clust_4="60.64880" pt_clust_5="155.91112" pt_clust_6="60.64880"></scales>
<clustering>
<clus scale="   60.649">  4  6 -1 -1</clus>
<clus scale="   99.181">  2  3  1 -1</clus>
<clus scale="  155.911">  1  5  2 -1</clus>
<clus scale="   99.181">  2  3  1 -1</clus>
</clustering>
</event>
<event>
 6    0  0.3643696E+002  0.1577372E+03  0.7546771E-02  0.1191275E+00
          4   -1    0    0  503    0 -0.00000000000E+00  0.00000000000E+00  0.63879689048E+03  0.63879689048E+03  0.00000000000E+00 0.  1.
         21   -1    0    0  501  502  0.00000000000E+00 -0.00000000000E+00 -0.32013081029E+03  0.32013081029E+03  0.00000000000E+00 0. -1.
         21    1    1    2  503  505 -0.38591465399E+02  0.29484057067E+02  0.64697518018E+02  0.80897340256E+02  0.00000000000E+00 0. -1.
         21    1    1    2  504  502 -0.67541362166E+02  0.69252447010E+02 -0.23087684559E+03  0.25032350040E+03  0.00000000000E+00 0. -1.
         21    1    1    2  505  504  0.70328804627E+02  0.10442583773E+03  0.31724273718E+02  0.12983576506E+03  0.00000000000E+00 0.  1.
          4    1    1    2  501    0  0.35804022939E+02 -0.20316234180E+03  0.45312113404E+03  0.49787109506E+03  0.00000000000E+00 0.  1.
<scales pt_clust_3="48.56553" pt_clust_4="97.56097" pt_clust_5="14000.00000" pt_clust_6="157.73724"></scales>
<clustering>
<clus scale="   48.566">  1  3  2 -1</clus>
<clus scale="   97.561">  2  4  1 -1</clus>
<clus scale="  157.737">  1  6  2 -1</clus>
<clus scale="   97.561">  2  3  1 -1</clus>
</clustering>
</event>
<event>
 6    0  0.3643696E+002  0.1591527E+03  0.7546771E-02  0.1189657E+00
         21   -1    0    0  503  502  0.00000000000E+00  0.00000000000E+00  0.16029450762E+03  0.16029450762E+03  0.00000000000E+00 0. -1.
          1   -1    0    0  505    0 -0.00000000000E+00 -0.00000000000E+00 -0.12482042596E+04  0.12482042596E+04  0.00000000000E+00 0. -1.
         21    1    1    2  503  504 -0.50537353072E+02 -0.16054136258E+02  0.13495478217E+03  0.14499845715E+03  0.00000000000E+00 0. -1.
         21    1    1    2  504  501 -0.36672764650E+02 -0.12061650225E+02 -0.58296227174E+02  0.69920134267E+02  0.00000000000E+00 0. -1.
         21    1    1    2  505  502  0.17091823272E+03  0.10419781590E+02 -0.87670907251E+03  0.89327510429E+03  0.00000000000E+00 0. -1.
          1    1    1    2  501    0 -0.83708115000E+02  0.17696004892E+02 -0.28785923444E+03  0.30030507148E+03  0.00000000000E+00 0. -1.
<scales pt_clust_3="53.02603" pt_clust_4="35.03172" pt_clust_5="150.36555" pt_clust_6="35.03172"></scales>
<clustering>
<clus scale="   35.032">  4  6 -1 -1</clus>
<clus scale="   53.026">  1  3  2 -1</clus>
<clus scale="  150.366">  2  5  1 -1</clus>
<clus scale="   53.026">  1  3  2 -1</clus>
</clustering>
</event>
<event>
 6    0  0.3643696E+002  0.1719356E+03  0.7546771E-02  0.1175844E+00
         21   -1    0    0  503  502  0.00000000000E+00  0.00000000000E+00  0.69603342382E+03  0.69603342382E+03  0.00000000000E+00 0. -1.
         -2   -1    0    0    0  501 -0.00000000000E+00 -0.00000000000E+00 -0.16544870136E+03  0.16544870136E+03  0.00000000000E+00 0. -1.
         21    1    1    2  503  505  0.47871056544E+02  0.38434158736E+02  0.20333241259E+02  0.64670420692E+02  0.00000000000E+00 0. -1.
         21    1    1    2  504  502 -0.17638298548E+03  0.32644313696E+02  0.58384302246E+03  0.61077760573E+03  0.00000000000E+00 0. -1.
         21    1    1    2  505  501  0.63657644924E+01 -0.37657897761E+02 -0.39380504986E+02  0.54858585420E+02  0.00000000000E+00 0.  1.
         -2    1    1    2    0  504  0.12214616444E+03 -0.33420574671E+02 -0.34211036265E+02  0.13117551335E+03  0.00000000000E+00 0. -1.
<scales pt_clust_3="58.23993" pt_clust_4="171.93560" pt_clust_5="38.19215" pt_clust_6="14000.00000"></scales>
<clustering>
<clus scale="   38.192">  2  5  1 -1</clus>
<clus scale="   58.240">  2  3  1 -1</clus>
<clus scale="  171.936">  1  4  2 -1</clus>
<clus scale="  171.936">  1  3  2 -1</clus>
</clustering>
</event>
<event>
 6    0  0.3643696E+002  0.1392921E+03  0.7546771E-02  0.1214285E+00
         21   -1    0    0  505  502  0.00000000000E+00  0.00000000000E+00  0.80039043556E+03  0.80039043556E+03  0.00000000000E+00 0. -1.
          1   -1    0    0  504    0 -0.00000000000E+00 -0.00000000000E+00 -0.61877442205E+03  0.61877442205E+03  0.00000000000E+00 0.  1.
         21    1    1    2  503  502  0.29788569994E+02 -0.29094029762E+02  0.69876892347E+03  0.70000844986E+03  0.00000000000E+00 0. -1.
         21    1    1    2  504  503 -0.15535077867E+03  0.38930288729E+02  0.23139908879E+02  0.16181745022E+03  0.00000000000E+00 0. -1.
         21    1    1    2  505  501  0.31846111677E+02  0.20880260239E+02 -0.14193037030E+03  0.14695029809E+03  0.00000000000E+00 0.  1.
          1    1    1    2  501    0  0.93716096996E+02 -0.30716519205E+02 -0.39836244854E+03  0.41038865944E+03  0.00000000000E+00 0.  1.
<scales pt_clust_3="41.63918" pt_clust_4="128.66437" pt_clust_5="33.16042" pt_clust_6="33.16042"></scales>
<clustering>
<clus scale="   33.160">  5  6 -1 -1</clus>
<clus scale="   41.639">  1  3  2 -1</clus>
<clus scale="  128.664">  1  4  2 -1</clus>
<clus scale="   41.639">  1  3  2 -1</clus>
</clustering>
</event>
<event>
 6    0  0.3643696E+002  0.1656880E+03  0.7546771E-02  0.1182421E+00
          1   -1    0    0  505    0 -0.00000000000E+00  0.00000000000E+00  0.62574129023E+03  0.62574129023E+03  0.00000000000E+00 0. -1.
         21   -1    0    0  501  502  0.00000000000E+00 -0.00000000000E+00 -0.55080628626E+03  0.55080628626E+03  0.00000000000E+00 0.  1.
         21    1    1    2  503  504 -0.72899835406E+02  0.23943241554E+03  0.98880426617E+02  0.26910891174E+03  0.00000000000E+00 0. -1.
         21    1    1    2  504  502  0.93977953629E+02 -0.76318260482E+02 -0.43781707735E+03  0.45424676759E+03  0.00000000000E+00 0.  1.
         21    1    1    2  505  503  0.28393862899E+02 -0.43637681099E+02  0.83343249073E+02  0.98267776143E+02  0.00000000000E+00 0.  1.
          1    1    1    2  501    0 -0.49471981122E+02 -0.11947647396E+03  0.33052840563E+03  0.35492412101E+03  0.00000000000E+00 0. -1.
<scales pt_clust_3="14000.00000" pt_clust_4="121.82452" pt_clust_5="52.06207" pt_clust_6="165.68803"></scales>
<clustering>
<clus scale="   52.062">  1  5  2 -1</clus>
<clus scale="  121.825">  2  4  1 -1</clus>
<clus scale="  165.688">  1  6  2 -1</clus>
<clus scale="  121.825">  2  3  1 -1</clus>
</clustering>
</event>
<event>
 6    0  0.3643696E+002  0.7633675E+02  0.7546771E-02  0.1339781E+00
          2   -1    0    0  504    0 -0.00000000000E+00  0.00000000000E+00  0.16772085182E+04  0.16772085182E+04  0.00000000000E+00 0.  1.
         21   -1    0    0  503  502  0.00000000000E+00 -0.00000000000E+00 -0.25359645203E+02  0.25359645203E+02  0.00000000000E+00 0.  1.
         21    1    1    2  503  505  0.10320905526E+03 -0.61418754861E+02  0.26005473520E+03  0.28644866527E+03  0.00000000000E+00 0.  1.
         21    1    1    2  504  502 -0.37594097537E+02  0.10564242858E+02  0.27710703067E+02  0.47883216906E+02  0.00000000000E+00 0.  1.
         21    1    1    2  505  501 -0.24447881627E+02  0.42948971488E+02  0.37209007025E+03  0.37535760742E+03  0.00000000000E+00 0. -1.
          2    1    1    2  501    0 -0.41167076095E+02  0.79055405147E+01  0.99199336446E+03  0.99287867379E+03  0.00000000000E+00 0.  1.
<scales pt_clust_3="76.33675" pt_clust_4="39.05022" pt_clust_5="14000.00000" pt_clust_6="43.04713"></scales>
<clustering>
<clus scale="   39.050">  2  4  1 -1</clus>
<clus scale="   43.047">  1  6  2 -1</clus>
<clus scale="   76.337">  2  3  1 -1</clus>
<clus scale="   39.050">  2  3  1 -1</clus>
</clustering>
</event>
<event>
 6    0  0.3643696E+002  0.7794981E+02  0.7546771E-02  0.1334972E+00
         21   -1    0    0  505  502  0.00000000000E+00  0.00000000000E+00  0.66070130291E+02  0.66070130291E+02  0.00000000000E+00 0. -1.
          2   -1    0    0  504    0 -0.00000000000E+00 -0.00000000000E+00 -0.11896737121E+04  0.11896737121E+04  0.00000000000E+00 0. -1.
         21    1    1    2  503  502 -0.26799051967E+02 -0.52808235078E+02 -0.67089801558E+01  0.59597896717E+02  0.00000000000E+00 0. -1.
         21    1    1    2  504  503 -0.41639101341E+02 -0.13372765935E+02 -0.99775077694E+03  0.99870879565E+03  0.00000000000E+00 0. -1.
         21    1    1    2  505  501 -0.34277263462E+02  0.17523542224E+02 -0.54366584287E+02  0.66616295375E+02  0.00000000000E+00 0. -1.
          2    1    1    2  501    0  0.10271541677E+03  0.48657458789E+02 -0.64777240462E+02  0.13082085468E+03  0.00000000000E+00 0. -1.
<scales pt_clust_3="77.94981" pt_clust_4="43.95231" pt_clust_5="38.49682" pt_clust_6="14000.00000"></scales>
<clustering>
<clus scale="   38.497">  1  5  2 -1</clus>
<clus scale="   43.952">  2  4  1 -1</clus>
<clus scale="   77.950">  1  3  2 -1</clus>
<clus scale="   38.497">  1  3  2 -1</clus>
</clustering>
</event>
<event>
 6    0  0.3643696E+002  0.9799728E+02  0.7546771E-02  0.1284565E+00
          2   -1    0    0  504    0 -0.00000000000E+00  0.00000000000E+00  0.16467249738E+04  0.16467249738E+04  0.00000000000E+00 0. -1.
         21   -1    0    0  503  502  0.00000000000E+00 -0.00000000000E+00 -0.27617916206E+03  0.27617916206E+03  0.00000000000E+00 0.  1.
         21    1    1    2  503  501 -0.33235417483E+02 -0.52056808490E+02 -0.26205072742E+03  0.26923054809E+03  0.00000000000E+00 0.  1.
         21    1    1    2  504  505  0.24842955637E+02  0.33066727620E+02  0.44264787818E+03  0.44457589338E+03  0.00000000000E+00 0. -1.
         21    1    1    2  505  502  0.67253623672E+02 -0.57456488078E+02  0.27037834066E+03  0.28447977962E+03  0.00000000000E+00 0. -1.
          2    1    1    2  501    0 -0.58861161825E+02  0.76446568948E+02  0.91957032028E+03  0.92461791471E+03  0.00000000000E+00 0. -1.
<scales pt_clust_3="61.63862" pt_clust_4="41.35917" pt_clust_5="14000.00000" pt_clust_6="97.99728"></scales>
<clustering>
<clus scale="   41.359">  1  4  2 -1</clus>
<clus scale="   61.639">  2  3  1 -1</clus>
<clus scale="   97.997">  1  6  2 -1</clus>
<clus scale="   61.639">  2  3  1 -1</clus>
</clustering>
</event>
<event>
 6    0  0.3643696E+002  0.8030005E+02  0.7546771E-02  0.1328202E+00
          1   -1    0    0  503    0 -0.00000000000E+00  0.00000000000E+00  0.26291727685E+04  0.26291727685E+04  0.00000000000E+00 0.  1.
         21   -1    0    0  504  502  0.00000000000E+00 -0.00000000000E+00 -0.79946217448E+03  0.79946217448E+03  0.00000000000E+00 0. -1.
         21    1    1    2  503  505 -0.27517162883E+02  0.41193991880E+02  0.44847914198E+03  0.45120691485E+03  0.00000000000E+00 0.  1.
         21    1    1    2  504  501 -0.14526941055E+03 -0.45942222120E+02  0.35720461819E+03  0.38834138161E+03  0.00000000000E+00 0.  1.
         21    1    1    2  505  502  0.72197034620E+02  0.34258038188E+02 -0.77896329880E+03  0.78305162401E+03  0.00000000000E+00 0. -1.
          1    1    1    2  501    0  0.10058953882E+03 -0.29509807948E+02  0.18029901327E+04  0.18060350225E+04  0.00000000000E+00 0.  1.
<scales pt_clust_3="49.53927" pt_clust_4="14000.00000" pt_clust_5="80.30005" pt_clust_6="77.94080"></scales>
<clustering>
<clus scale="   49.539">  1  3  2 -1</clus>
<clus scale="   77.941">  1  6  2 -1</clus>
<clus scale="   80.300">  2  5  1 -1</clus>
<clus scale="   80.300">  2  3  1 -1</clus>
</clustering>
</event>
<event>
 6    0  0.3643696E+002  0.1336355E+03  0.7546771E-02  0.1222159E+00
         21   -1    0    0  505  502  0.00000000000E+00  0.00000000000E+00  0.80883762812E+02  0.80883762812E+02  0.00000000000E+00 0. -1.
          2   -1    0    0  504    0 -0.00000000000E+00 -0.00000000000E+00 -0.23868310625E+04  0.23868310625E+04  0.00000000000E+00 0. -1.
         21    1    1    2  503  501 -0.67178166804E+02 -0.11150351473E+02 -0.15427189088E+04  0.15442211202E+04  0.00000000000E+00 0. -1.
         21    1    1    2  504  502  0.12796395610E+03 -0.19764712040E+01  0.12592713124E+02  0.12859726639E+03  0.00000000000E+00 0. -1.
         21    1    1    2  505  503 -0.12717237233E+02  0.47756662841E+02 -0.65217728802E+02  0.81827740520E+02  0.00000000000E+00 0. -1.
          2    1    1    2  501    0 -0.48068552062E+02 -0.34629840165E+02 -0.71060337522E+03  0.71306869824E+03  0.00000000000E+00 0. -1.
<scales pt_clust_3="46.80761" pt_clust_4="123.85500" pt_clust_5="49.42092" pt_clust_6="46.80761"></scales>
<clustering>
<clus scale="   46.808">  3  6 -1 -1</clus>
<clus scale="   49.421">  1  5  2 -1</clus>
<clus scale="  123.855">  1  4  2 -1</clus>
<clus scale="   49.421">  1  3  2 -1</clus>
</clustering>
</event>
<event>
 6    0  0.3643696E+002  0.5566925E+02  0.7546771E-02  0.1416960E+00
          4   -1    0    0  505    0 -0.00000000000E+00  0.00000000000E+00  0.17893942088E+04  0.17893942088E+04  0.00000000000E+00 0.  1.
         21   -1    0    0  504  502  0.00000000000E+00 -0.00000000000E+00 -0.33577204886E+02  0.33577204886E+02  0.00000000000E+00 0. -1.
         21    1    1    2  503  501  0.30722179522E+01 -0.94128294296E+02  0.56144024843E+03  0.56928439894E+03  0.00000000000E+00 0.  1.
         21    1    1    2  504  503 -0.19705445143E+02  0.50192807471E+02  0.48017528172E+01  0.54135749004E+02  0.00000000000E+00 0. -1.
         21    1    1    2  505  502  0.54447233166E+02  0.18664061606E+02  0.18056330473E+03  0.18951505325E+03  0.00000000000E+00 0. -1.
          4    1    1    2  501    0 -0.37814005975E+02  0.25271425220E+02  0.10090116979E+04  0.10100362125E+04  0.00000000000E+00 0.  1.
<scales pt_clust_3="14000.00000" pt_clust_4="55.66925" pt_clust_5="51.73116" pt_clust_6="45.48125"></scales>
<clustering>
<clus scale="   45.481">  1  6  2 -1</clus>
<clus scale="   51.731">  1  5  2 -1</clus>
<clus scale="   55.669">  2  4  1 -1</clus>
<clus scale="   55.669">  2  3  1 -1</clus>
</clustering>
</event>
<event>
 6    0  0.3643696E+002  0.1002804E+03  0.7546771E-02  0.1279707E+00
         21   -1    0    0  505  502  0.00000000000E+00  0.00000000000E+00  0.23831827055E+03  0.23831827055E+03  0.00000000000E+00 0. -1.
         -2   -1    0    0    0  501 -0.00000000000E+00 -0.00000000000E+00 -0.16002246547E+03  0.16002246547E+03  0.00000000000E+00 0. -1.
         21    1    1    2  503  502  0.25679338578E+02 -0.91665818269E+02  0.11228852394E+03  0.14720992928E+03  0.00000000000E+00 0. -1.
         21    1    1    2  504  503 -0.45983467913E+02  0.11718178571E+03 -0.40189978082E+02  0.13214115393E+03  0.00000000000E+00 0. -1.
         21    1    1    2  505  501  0.68023782479E+02 -0.17066116978E+02 -0.85404804313E-02  0.70131928566E+02  0.00000000000E+00 0. -1.
         -2    1    1    2    0  504 -0.47719653144E+02 -0.84498504649E+01  0.62057996968E+01  0.48857724251E+02  0.00000000000E+00 0. -1.
<scales pt_clust_3="14000.00000" pt_clust_4="100.28039" pt_clust_5="59.16076" pt_clust_6="48.46200"></scales>
<clustering>
<clus scale="   48.462">  2  6  1 -1</clus>
<clus scale="   59.161">  2  5  1 -1</clus>
<clus scale="  100.280">  2  4  1 -1</clus>
<clus scale="  100.280">  1  3  2 -1</clus>
</clustering>
</event>
<event>
 6    0  0.3643696E+002  0.2620513E+03  0.7546771E-02  0.1105917E+00
         21   -1    0    0  505  502  0.00000000000E+00  0.00000000000E+00  0.18644711302E+04  0.18644711302E+04  0.00000000000E+00 0.  1.
          1   -1    0    0  503    0 -0.00000000000E+00 -0.00000000000E+00 -0.26688356854E+03  0.26688356854E+03  0.00000000000E+00 0.  1.
         21    1    1    2  503  504  0.37579991276E+02 -0.13571558339E+02 -0.17420838963E+03  0.17873165908E+03  0.00000000000E+00 0.  1.
         21    1    1    2  504  502  0.66947114511E+01 -0.25245511030E+03  0.16141471129E+04  0.16337837385E+04  0.00000000000E+00 0.  1.
         21    1    1    2  505  501  0.15093048153E+02  0.66984083321E+02  0.49636799432E+02  0.84725907365E+02  0.00000000000E+00 0. -1.
          1    1    1    2  501    0 -0.59367750880E+02  0.19904258532E+03  0.10801203891E+03  0.23411339382E+03  0.00000000000E+00 0.  1.
<scales pt_clust_3="39.95551" pt_clust_4="254.15743" pt_clust_5="36.70247" pt_clust_6="36.70247"></scales>
<clustering>
<clus scale="   36.702">  5  6 -1 -1</clus>
<clus scale="   39.956">  2  3  1 -1</clus>
<clus scale="  254.157">  1  4  2 -1</clus>
<clus scale="  254.157">  1  3  2 -1</clus>
</clustering>
</event>
<event>
 6    0  0.3643696E+002  0.1014683E+03  0.7546771E-02  0.1277238E+00
         21   -1    0    0  504  502  0.00000000000E+00  0.00000000000E+00  0.61603396121E+02  0.61603396121E+02  0.00000000000E+00 0.  1.
          2   -1    0    0  503    0 -0.00000000000E+00 -0.00000000000E+00 -0.24956848570E+04  0.24956848570E+04  0.00000000000E+00 0. -1.
         21    1    1    2  503  502 -0.84556942462E+02 -0.37669485887E+02 -0.16151295520E+04  0.16177800643E+04  0.00000000000E+00 0. -1.
         21    1    1    2  504  505  0.36456908482E+02 -0.80658584496E+02  0.19420329460E+02  0.90620431611E+02  0.00000000000E+00 0.  1.
         21    1    1    2  505  501  0.15545097816E+02  0.47690139315E+02 -0.22014718771E+03  0.22578924623E+03  0.00000000000E+00 0.  1.
          2    1    1    2  501    0  0.32554936163E+02  0.70637931068E+02 -0.61822505067E+03  0.62309851103E+03  0.00000000000E+00 0. -1.
<scales pt_clust_3="94.17299" pt_clust_4="88.51505" pt_clust_5="30.33891" pt_clust_6="30.33891"></scales>
<clustering>
<clus scale="   30.339">  5  6 -1 -1</clus>
<clus scale="   88.515">  1  4  2 -1</clus>
<clus scale="   94.173">  2  3  1 -1</clus>
<clus scale="   88.515">  1  3  2 -1</clus>
</clustering>
</event>
<event>
 6    0  0.3643696E+002  0.8472960E+02  0.7546771E-02  0.1316141E+00
          1   -1    0    0  505    0 -0.00000000000E+00  0.00000000000E+00  0.60682191733E+03  0.60682191733E+03  0.00000000000E+00 0. -1.
         21   -1    0    0  501  502  0.00000000000E+00 -0.00000000000E+00 -0.18116985438E+03  0.18116985438E+03  0.00000000000E+00 0. -1.
         21    1    1    2  503  502 -0.32395335078E+02  0.41898722290E+01 -0.13088359080E+03  0.13489821017E+03  0.00000000000E+00 0. -1.
         21    1    1    2  504  503  0.68054637805E+02  0.29205111022E+02  0.16484546918E+03  0.18071635495E+03  0.00000000000E+00 0. -1.
         21    1    1    2  505  504 -0.93989091438E+02 -0.54382747111E+01  0.39649166581E+03  0.40751584656E+03  0.00000000000E+00 0.  1.
          1    1    1    2  501    0  0.58329788711E+02 -0.27956708540E+02 -0.48014812429E+01  0.64861360035E+02  0.00000000000E+00 0. -1.
<scales pt_clust_3="32.66516" pt_clust_4="14000.00000" pt_clust_5="84.72960" pt_clust_6="42.93886"></scales>
<clustering>
<clus scale="   32.665">  2  3  1 -1</clus>
<clus scale="   42.939">  2  6  1 -1</clus>
<clus scale="   84.730">  1  5  2 -1</clus>
<clus scale="   32.665">  2  3  1 -1</clus>
</clustering>
</event>
<event>
 6    0  0.3643696E+002  0.2067331E+03  0.7546771E-02  0.1144179E+00
          2   -1    0    0  504    0 -0.00000000000E+00  0.00000000000E+00  0.19105560216E+04  0.19105560216E+04  0.00000000000E+00 0. -1.
         21   -1    0    0  501  502  0.00000000000E+00 -0.00000000000E+00 -0.39595827271E+03  0.39595827271E+03  0.00000000000E+00 0. -1.
         21    1    1    2  503  505 -0.70821743335E+02  0.19366255815E+03  0.16355211588E+04  0.16484690979E+04  0.00000000000E+00 0. -1.
         21    1    1    2  504  503  0.36966009519E+02  0.94336522074E+01  0.21019822132E+03  0.21363232878E+03  0.00000000000E+00 0. -1.
         21    1    1    2  505  502 -0.27407814221E+02  0.26050022908E+02 -0.12359087270E+03  0.12924587339E+03  0.00000000000E+00 0.  1.
          2    1    1    2  501    0  0.61263548037E+02 -0.22914623327E+03 -0.20753075853E+03  0.31516699427E+03  0.00000000000E+00 0. -1.
<scales pt_clust_3="14000.00000" pt_clust_4="38.02316" pt_clust_5="37.81259" pt_clust_6="206.73306"></scales>
<clustering>
<clus scale="   37.813">  2  5  1 -1</clus>
<clus scale="   38.023">  1  4  2 -1</clus>
<clus scale="  206.733">  2  6  1 -1</clus>
<clus scale="   37.813">  2  3  1 -1</clus>
</clustering>
</event>
<event>
 6    0  0.3643696E+002  0.1456074E+03  0.7546771E-02  0.1205977E+00
         21   -1    0    0  505  502  0.00000000000E+00  0.00000000000E+00  0.63899789773E+03  0.63899789773E+03  0.00000000000E+00 0.  1.
          1   -1    0    0  504    0 -0.00000000000E+00 -0.00000000000E+00 -0.15105354031E+03  0.15105354031E+03  0.00000000000E+00 0.  1.
         21    1    1    2  503  501  0.48494169713E+02 -0.36818354699E+01 -0.97409684139E+01  0.49599666070E+02  0.00000000000E+00 0.  1.
         21    1    1    2  504  502 -0.43491796206E+02 -0.96721133597E+02 -0.86109454620E+01  0.10639860151E+03  0.00000000000E+00 0.  1.
         21    1    1    2  505  503 -0.12428131175E+03  0.17912858263E+02  0.46730180678E+03  0.48387776717E+03  0.00000000000E+00 0.  1.
          1    1    1    2  501    0  0.11927893824E+03  0.82490110804E+02  0.38994464515E+02  0.15017540328E+03  0.00000000000E+00 0.  1.
<scales pt_clust_3="39.68266" pt_clust_4="106.04958" pt_clust_5="128.47471" pt_clust_6="39.68266"></scales>
<clustering>
<clus scale="   39.683">  3  6 -1 -1</clus>
<clus scale="  106.050">  2  4  1 -1</clus>
<clus scale="  128.475">  1  5  2 -1</clus>
<clus scale="  128.475">  1  3  2 -1</clus>
</clustering>
</event>
<event>
 6    0  0.3643696E+002  0.1744617E+03  0.7546771E-02  0.1173273E+00
         21   -1    0    0  501  502  0.00000000000E+00  0.00000000000E+00  0.33781446730E+03  0.33781446730E+03  0.00000000000E+00 0.  1.
          2   -1    0    0  503    0 -0.00000000000E+00 -0.00000000000E+00 -0.16914604069E+04  0.16914604069E+04  0.00000000000E+00 0. -1.
         21    1    1    2  503  505  0.10244042780E+02  0.30171873211E+02 -0.52152464454E+03  0.52249711693E+03  0.00000000000E+00 0.  1.
         21    1    1    2  504  502  0.16784874783E+03 -0.51842110849E+02  0.30083536961E+03  0.34837153474E+03  0.00000000000E+00 0.  1.
         21    1    1    2  505  504 -0.45114068321E+02  0.40541692243E+02 -0.10150217547E+03  0.11824381420E+03  0.00000000000E+00 0.  1.
          2    1    1    2  501    0 -0.13297872229E+03 -0.18871454605E+02 -0.10314544892E+04  0.10401624084E+04  0.00000000000E+00 0. -1.
<scales pt_clust_3="31.86350" pt_clust_4="14000.00000" pt_clust_5="61.89409" pt_clust_6="174.46171"></scales>
<clustering>
<clus scale="   31.863">  2  3  1 -1</clus>
<clus scale="   61.894">  2  5  1 -1</clus>
<clus scale="  174.462">  2  6  1 -1</clus>
<clus scale="  174.462">  1  3  2 -1</clus>
</clustering>
</event>
<event>
 6    0  0.3643696E+002  0.9248106E+02  0.7546771E-02  0.1296952E+00
         -1   -1    0    0    0  501 -0.00000000000E+00  0.00000000000E+00  0.74275106460E+03  0.74275106460E+03  0.00000000000E+00 0. -1.
         21   -1    0    0  503  502  0.00000000000E+00 -0.00000000000E+00 -0.51281880257E+02  0.51281880257E+02  0.00000000000E+00 0. -1.
         21    1    1    2  503  505 -0.34887618371E+02 -0.50870779444E+01 -0.21487157909E+02  0.41288282025E+02  0.00000000000E+00 0. -1.
         21    1    1    2  504  501  0.28602013990E+02 -0.33787543554E+02  0.15288871978E+03  0.15916857083E+03  0.00000000000E+00 0. -1.
         21    1    1    2  505  504 -0.43569144639E+02 -0.61811201766E+02  0.14454991260E+03  0.16313666743E+03  0.00000000000E+00 0. -1.
         -1    1    1    2    0  502  0.49854749020E+02  0.10068582326E+03  0.41551770987E+03  0.43043942456E+03  0.00000000000E+00 0. -1.
<scales pt_clust_3="35.25655" pt_clust_4="41.59216" pt_clust_5="14000.00000" pt_clust_6="92.48106"></scales>
<clustering>
<clus scale="   35.257">  2  3  1 -1</clus>
<clus scale="   41.592">  1  4  2 -1</clus>
<clus scale="   92.481">  1  6  2 -1</clus>
<clus scale="   35.257">  2  3  1 -1</clus>
</clustering>
</event>
<event>
 6    0  0.3643696E+002  0.1258127E+03  0.7546771E-02  0.1233805E+00
         21   -1    0    0  501  502  0.00000000000E+00  0.00000000000E+00  0.20260482488E+03  0.20260482488E+03  0.00000000000E+00 0.  1.
          1   -1    0    0  504    0 -0.00000000000E+00 -0.00000000000E+00 -0.88529549370E+03  0.88529549370E+03  0.00000000000E+00 0. -1.
         21    1    1    2  503  505  0.71994542238E+02  0.47163444787E+02 -0.60639286198E+03  0.61247033210E+03  0.00000000000E+00 0. -1.
         21    1    1    2  504  503 -0.98520378070E+01 -0.53796607594E+02 -0.92103286333E+02  0.10711747286E+03  0.00000000000E+00 0. -1.
         21    1    1    2  505  502 -0.13437769839E+03 -0.48458665343E+01  0.15856726587E+03  0.20790484856E+03  0.00000000000E+00 0.  1.
          1    1    1    2  501    0  0.72235193963E+02  0.11479029341E+02 -0.14276178638E+03  0.16040766507E+03  0.00000000000E+00 0. -1.
<scales pt_clust_3="64.58173" pt_clust_4="54.69129" pt_clust_5="125.81269" pt_clust_6="14000.00000"></scales>
<clustering>
<clus scale="   54.691">  2  4  1 -1</clus>
<clus scale="   64.582">  2  3  1 -1</clus>
<clus scale="  125.813">  1  5  2 -1</clus>
<clus scale="  125.813">  1  3  2 -1</clus>
</clustering>
</event>
<event>
 6    0  0.3643696E+002  0.1132143E+03  0.7546771E-02  0.1254731E+00
         21   -1    0    0  503  502  0.00000000000E+00  0.00000000000E+00  0.70089596484E+02  0.70089596484E+02  0.00000000000E+00 0.  1.
          2   -1    0    0  504    0 -0.00000000000E+00 -0.00000000000E+00 -0.19138276105E+04  0.19138276105E+04  0.00000000000E+00 0. -1.
         21    1    1    2  503  501 -0.11350761252E+02 -0.65500594970E+02  0.38747356216E+02  0.76944950036E+02  0.00000000000E+00 0.  1.
         21    1    1    2  504  505 -0.48339874016E+02 -0.16789231446E+02 -0.21424939670E+03  0.22027579463E+03  0.00000000000E+00 0. -1.
         21    1    1    2  505  502  0.11751349391E+03 -0.30363801864E+02 -0.74632382407E+03  0.75612871397E+03  0.00000000000E+00 0. -1.
          2    1    1    2  501    0 -0.57822858639E+02  0.11265362828E+03 -0.92191214948E+03  0.93056774837E+03  0.00000000000E+00 0. -1.
<scales pt_clust_3="66.75787" pt_clust_4="51.17247" pt_clust_5="113.21430" pt_clust_6="14000.00000"></scales>
<clustering>
<clus scale="   51.172">  2  4  1 -1</clus>
<clus scale="   66.758">  1  3  2 -1</clus>
<clus scale="  113.214">  2  5  1 -1</clus>
<clus scale="   66.758">  1  3  2 -1</clus>
</clustering>
</event>
<event>
 6    0  0.3643696E+002  0.1594326E+03  0.7546771E-02  0.1189339E+00
          4   -1    0    0  505    0 -0.00000000000E+00  0.00000000000E+00  0.21143668758E+03  0.21143668758E+03  0.00000000000E+00 0. -1.
         21   -1    0    0  504  502  0.00000000000E+00 -0.00000000000E+00 -0.15734350322E+04  0.15734350322E+04  0.00000000000E+00 0. -1.
         21    1    1    2  503  502 -0.14687039371E+02  0.44773603290E+02  0.16558520114E+02  0.49945663130E+02  0.00000000000E+00 0. -1.
         21    1    1    2  504  501  0.15608934067E+03 -0.30741735673E+02 -0.14783549591E+04  0.14868901512E+04  0.00000000000E+00 0. -1.
         21    1    1    2  505  503  0.38641632471E+02  0.12554737103E+02  0.32956628223E+00  0.40631340092E+02  0.00000000000E+00 0. -1.
          4    1    1    2  501    0 -0.18004393377E+03 -0.26586604721E+02  0.99468528119E+02  0.20740456534E+03  0.00000000000E+00 0. -1.
<scales pt_clust_3="47.62937" pt_clust_4="159.43257" pt_clust_5="40.63000" pt_clust_6="14000.00000"></scales>
<clustering>
<clus scale="   40.630">  1  5  2 -1</clus>
<clus scale="   47.629">  1  3  2 -1</clus>
<clus scale="  159.433">  2  4  1 -1</clus>
<clus scale="  159.433">  2  3  1 -1</clus>
</clustering>
</event>
<event>
 6    0  0.3643696E+002  0.2164054E+03  0.7546771E-02  0.1136592E+00
         21   -1    0    0  504  502  0.00000000000E+00  0.00000000000E+00  0.15046022171E+04  0.15046022171E+04  0.00000000000E+00 0.  1.
         -2   -1    0    0    0  501 -0.00000000000E+00 -0.00000000000E+00 -0.12641851251E+04  0.12641851251E+04  0.00000000000E+00 0.  1.
         21    1    1    2  503  501  0.18574576741E+03 -0.35121484366E+02  0.18910614846E+03  0.26738762903E+03  0.00000000000E+00 0.  1.
         21    1    1    2  504  503  0.55741561946E+01 -0.36492963233E+02  0.12664669085E+04  0.12670048295E+04  0.00000000000E+00 0.  1.
         21    1    1    2  505  502 -0.44354355122E+02  0.48219457395E+02 -0.28689747731E+03  0.29428317549E+03  0.00000000000E+00 0.  1.
         -2    1    1    2    0  505 -0.14696556848E+03  0.23394990205E+02 -0.92825848770E+03  0.94011170819E+03  0.00000000000E+00 0.  1.
<scales pt_clust_3="203.55967" pt_clust_4="36.91622" pt_clust_5="48.60302" pt_clust_6="48.60302"></scales>
<clustering>
<clus scale="   36.916">  1  4  2 -1</clus>
<clus scale="   48.603">  5  6 -1 -1</clus>
<clus scale="  203.560">  1  3  2 -1</clus>
<clus scale="   36.916">  1  3  2 -1</clus>
</clustering>
</event>
<event>
 6    0  0.3643696E+002  0.1250447E+03  0.7546771E-02  0.1234999E+00
          1   -1    0    0  503    0 -0.00000000000E+00  0.00000000000E+00  0.23584027170E+04  0.23584027170E+04  0.00000000000E+00 0.  1.
         21   -1    0    0  504  502  0.00000000000E+00 -0.00000000000E+00 -0.10057776627E+04  0.10057776627E+04  0.00000000000E+00 0. -1.
         21    1    1    2  503  505 -0.63431587269E+02 -0.96228121669E+02  0.17588414027E+03  0.21028230658E+03  0.00000000000E+00 0. -1.
         21    1    1    2  504  501  0.45296125510E+02  0.97885302038E+02  0.81655970790E+03  0.82365224938E+03  0.00000000000E+00 0. -1.
         21    1    1    2  505  502  0.33042764429E+02 -0.39104135024E+02 -0.98406485540E+03  0.98539565520E+03  0.00000000000E+00 0. -1.
          1    1    1    2  501    0 -0.14907302671E+02  0.37446954655E+02  0.13442460615E+04  0.13448501686E+04  0.00000000000E+00 0.  1.
<scales pt_clust_3="14000.00000" pt_clust_4="125.04474" pt_clust_5="51.17020" pt_clust_6="40.30511"></scales>
<clustering>
<clus scale="   40.305">  1  6  2 -1</clus>
<clus scale="   51.170">  2  5  1 -1</clus>
<clus scale="  125.045">  1  4  2 -1</clus>
<clus scale="   51.170">  2  3  1 -1</clus>
</clustering>
</event>
<event>
 6    0  0.3643696E+002  0.8788712E+02  0.7546771E-02  0.1308051E+00
          2   -1    0    0  504    0 -0.00000000000E+00  0.00000000000E+00  0.20556506522E+04  0.20556506522E+04  0.00000000000E+00 0. -1.
         21   -1    0    0  501  502  0.00000000000E+00 -0.00000000000E+00 -0.25729563874E+02  0.25729563874E+02  0.00000000000E+00 0.  1.
         21    1    1    2  503  502 -0.25430264504E+02  0.19354898741E+02 -0.32965879904E+01  0.32127526366E+02  0.00000000000E+00 0.  1.
         21    1    1    2  504  505 -0.62988598161E+02 -0.52878153630E+02  0.77109204456E+03  0.77546541110E+03  0.00000000000E+00 0.  1.
         21    1    1    2  505  503 -0.19997853193E+02  0.37764846128E+02  0.13868215335E+03  0.14511663375E+03  0.00000000000E+00 0.  1.
          2    1    1    2  501    0  0.10841671586E+03 -0.42415912382E+01  0.11234434784E+04  0.11286706448E+04  0.00000000000E+00 0. -1.
<scales pt_clust_3="31.95795" pt_clust_4="14000.00000" pt_clust_5="54.63795" pt_clust_6="87.88712"></scales>
<clustering>
<clus scale="   31.958">  2  3  1 -1</clus>
<clus scale="   54.638">  2  5  1 -1</clus>
<clus scale="   87.887">  2  6  1 -1</clus>
<clus scale="   31.958">  2  3  1 -1</clus>
</clustering>
</event>
<event>
 6    0  0.3643696E+002  0.1557952E+03  0.7546771E-02  0.1193527E+00
         -1   -1    0    0    0  501 -0.00000000000E+00  0.00000000000E+00  0.42661158149E+03  0.42661158149E+03  0.00000000000E+00 0.  1.
         21   -1    0    0  504  502  0.00000000000E+00 -0.00000000000E+00 -0.20003463164E+03  0.20003463164E+03  0.00000000000E+00 0.  1.
         21    1    1    2  503  502  0.35107893544E+02  0.26761659803E+02 -0.13666103203E+03  0.14361402543E+03  0.00000000000E+00 0.  1.
         21    1    1    2  504  501 -0.15915929220E+03 -0.37706647809E+02  0.28658399524E+03  0.32997554138E+03  0.00000000000E+00 0.  1.
         21    1    1    2  505  503  0.78501292993E+02 -0.10542968516E+02  0.62052271227E+02  0.10061854477E+03  0.00000000000E+00 0.  1.
         -1    1    1    2    0  505  0.45550105662E+02  0.21487956522E+02  0.14601715417E+02  0.52438101553E+02  0.00000000000E+00 0.  1.
<scales pt_clust_3="44.14466" pt_clust_4="149.09785" pt_clust_5="36.03338" pt_clust_6="36.03338"></scales>
<clustering>
<clus scale="   36.033">  5  6 -1 -1</clus>
<clus scale="   44.145">  2  3  1 -1</clus>
<clus scale="  149.098">  1  4  2 -1</clus>
<clus scale="   44.145">  2  3  1 -1</clus>
</clustering>
</event>
<event>
 6    0  0.3643696E+002  0.1027674E+03  0.7546771E-02  0.1274582E+00
         21   -1    0    0  504  502  0.00000000000E+00  0.00000000000E+00  0.78596382461E+02  0.78596382461E+02  0.00000000000E+00 0. -1.
          1   -1    0    0  505    0 -0.00000000000E+00 -0.00000000000E+00 -0.10600196185E+04  0.10600196185E+04  0.00000000000E+00 0.  1.
         21    1    1    2  503  502 -0.22095770435E+02  0.44061007875E+02 -0.10192843997E+03  0.11322103321E+03  0.00000000000E+00 0.  1.
         21    1    1    2  504  501 -0.97694522407E+02 -0.37450176168E+02  0.25574239122E+02  0.10770690372E+03  0.00000000000E+00 0. -1.
         21    1    1    2  505  503  0.42958491694E+02  0.92591786444E+01 -0.10560042677E+03  0.11437925744E+03  0.00000000000E+00 0. -1.
          1    1    1    2  501    0  0.76831801148E+02 -0.15870010352E+02 -0.79946860837E+03  0.80330880654E+03  0.00000000000E+00 0.  1.
<scales pt_clust_3="48.28857" pt_clust_4="102.76742" pt_clust_5="43.94502" pt_clust_6="14000.00000"></scales>
<clustering>
<clus scale="   43.945">  2  5  1 -1</clus>
<clus scale="   48.289">  2  3  1 -1</clus>
<clus scale="  102.767">  1  4  2 -1</clus>
<clus scale="  102.767">  1  3  2 -1</clus>
</clustering>
</event>
<event>
 6    0  0.3643696E+002  0.1712932E+03  0.7546771E-02  0.1176506E+00
         21   -1    0    0  504  502  0.00000000000E+00  0.00000000000E+00  0.18842437983E+02  0.18842437983E+02  0.00000000000E+00 0.  1.
          2   -1    0    0  505    0 -0.00000000000E+00 -0.00000000000E+00 -0.56229637131E+04  0.56229637131E+04  0.00000000000E+00 0.  1.
         21    1    1    2  503  501  0.80047056905E+02  0.81300373543E+02 -0.30719289869E+04  0.30740470040E+04  0.00000000000E+00 0.  1.
         21    1    1    2  504  503 -0.11351285312E+03 -0.11289270193E+03 -0.36163322120E+03  0.39548516615E+03  0.00000000000E+00 0.  1.
         21    1    1    2  505  502 -0.13213193607E+02  0.34297485508E+02 -0.12355234790E+04  0.12360700519E+04  0.00000000000E+00 0.  1.
          2    1    1    2  501    0  0.46678989818E+02 -0.27051571215E+01 -0.93503558805E+03  0.93620392911E+03  0.00000000000E+00 0.  1.
<scales pt_clust_3="37.79676" pt_clust_4="158.84152" pt_clust_5="36.75467" pt_clust_6="37.79676"></scales>
<clustering>
<clus scale="   36.755">  2  5  1 -1</clus>
<clus scale="   37.797">  3  6 -1 -1</clus>
<clus scale="  158.842">  1  4  2 -1</clus>
<clus scale="  158.842">  1  3  2 -1</clus>
</clustering>
</event>
<event>
 6    0  0.3643696E+002  0.1419711E+03  0.7546771E-02  0.1210701E+00
         21   -1    0    0  505  502  0.00000000000E+00  0.00000000000E+00  0.30786373689E+03  0.30786373689E+03  0.00000000000E+00 0. -1.
          2   -1    0    0  504    0 -0.00000000000E+00 -0.00000000000E+00 -0.99334053566E+03  0.99334053566E+03  0.00000000000E+00 0.  1.
         21    1    1    2  503  502  0.75334623573E+02  0.10850114576E+02  0.25311164443E+03  0.26430765225E+03  0.00000000000E+00 0. -1.
         21    1    1    2  504  503 -0.34254184622E+02  0.24047416532E+02 -0.99567649795E+02  0.10800622339E+03  0.00000000000E+00 0.  1.
         21    1    1    2  505  501  0.85554161682E+02 -0.15777658254E+02 -0.72286507541E+01  0.87296634946E+02  0.00000000000E+00 0.  1.
          2    1    1    2  501    0 -0.12663460063E+03 -0.19119872854E+02 -0.83179214264E+03  0.84159376196E+03  0.00000000000E+00 0.  1.
<scales pt_clust_3="75.92039" pt_clust_4="41.85245" pt_clust_5="141.97111" pt_clust_6="14000.00000"></scales>
<clustering>
<clus scale="   41.852">  2  4  1 -1</clus>
<clus scale="   75.920">  1  3  2 -1</clus>
<clus scale="  141.971">  1  5  2 -1</clus>
<clus scale="   75.920">  1  3  2 -1</clus>
</clustering>
</event>
<event>
 6    0  0.3643696E+002  0.1055594E+03  0.7546771E-02  0.1269021E+00
          1   -1    0    0  505    0 -0.00000000000E+00  0.00000000000E+00  0.23124929082E+04  0.23124929082E+04  0.00000000000E+00 0. -1.
         21   -1    0    0  504  502  0.00000000000E+00 -0.00000000000E+00 -0.20050441151E+02  0.20050441151E+02  0.00000000000E+00 0.  1.
         21    1    1    2  503  502 -0.24679480434E+02  0.23493404946E+02  0.28804492438E+02  0.44617436223E+02  0.00000000000E+00 0.  1.
         21    1    1    2  504  501 -0.47152719835E+02  0.63439109039E+02  0.31930889859E+03  0.32894691405E+03  0.00000000000E+00 0.  1.
         21    1    1    2  505  503  0.38062812329E+02  0.59651573540E+02  0.10236227007E+04  0.10260655541E+04  0.00000000000E+00 0.  1.
          1    1    1    2  501    0  0.33769387941E+02 -0.14658408752E+03  0.92070637529E+03  0.93291344496E+03  0.00000000000E+00 0. -1.
<scales pt_clust_3="34.07370" pt_clust_4="105.55944" pt_clust_5="71.49670" pt_clust_6="14000.00000"></scales>
<clustering>
<clus scale="   34.074">  2  3  1 -1</clus>
<clus scale="   71.497">  1  5  2 -1</clus>
<clus scale="  105.559">  2  4  1 -1</clus>
<clus scale="   34.074">  2  3  1 -1</clus>
</clustering>
</event>
<event>
 6    0  0.3643696E+002  0.1057167E+03  0.7546771E-02  0.1268714E+00
         21   -1    0    0  503  502  0.00000000000E+00  0.00000000000E+00  0.50537393704E+02  0.50537393704E+02  0.00000000000E+00 0. -1.
         -1   -1    0    0    0  501 -0.00000000000E+00 -0.00000000000E+00 -0.65432083626E+03  0.65432083626E+03  0.00000000000E+00 0. -1.
         21    1    1    2  503  504 -0.56552726160E+02  0.65342062431E+02 -0.46925148742E+02  0.98334966026E+02  0.00000000000E+00 0. -1.
         21    1    1    2  504  501 -0.25537835679E+02  0.50116921293E+02 -0.34207470489E+03  0.34666841590E+03  0.00000000000E+00 0. -1.
         21    1    1    2  505  502  0.54865443705E+02 -0.47754940094E+02 -0.95947582643E+02  0.12040220028E+03  0.00000000000E+00 0. -1.
         -1    1    1    2    0  505  0.27225118133E+02 -0.67704043631E+02 -0.11883600627E+03  0.13945264776E+03  0.00000000000E+00 0. -1.
<scales pt_clust_3="99.26283" pt_clust_4="56.24844" pt_clust_5="36.31319" pt_clust_6="36.31319"></scales>
<clustering>
<clus scale="   36.313">  5  6 -1 -1</clus>
<clus scale="   56.248">  2  4  1 -1</clus>
<clus scale="   99.263">  1  3  2 -1</clus>
<clus scale="   99.263">  1  3  2 -1</clus>
</clustering>
</event>
<event>
 6    0  0.3643696E+002  0.6233435E+02  0.7546771E-02  0.1388289E+00
         21   -1    0    0  504  502  0.00000000000E+00  0.00000000000E+00  0.25048208252E+03  0.25048208252E+03  0.00000000000E+00 0. -1.
          2   -1    0    0  503    0 -0.00000000000E+00 -0.00000000000E+00 -0.94326129317E+02  0.94326129317E+02  0.00000000000E+00 0. -1.
         21    1    1    2  503  505 -0.41186486440E+02 -0.41571511113E+02 -0.24099389609E+02  0.63287421981E+02  0.00000000000E+00 0. -1.
         21    1    1    2  504  501  0.23547583260E+02 -0.50238098277E+02  0.11780778911E+03  0.13021916284E+03  0.00000000000E+00 0. -1.
         21    1    1    2  505  502 -0.25269847545E+02  0.90075418720E+02  0.52283498439E+02  0.10717140692E+03  0.00000000000E+00 0. -1.
          2    1    1    2  501    0  0.42908750725E+02  0.17341906702E+01  0.10164055260E+02  0.44130220092E+02  0.00000000000E+00 0. -1.
<scales pt_clust_3="43.98709" pt_clust_4="62.33435" pt_clust_5="14000.00000" pt_clust_6="42.94378"></scales>
<clustering>
<clus scale="   42.944">  2  6  1 -1</clus>
<clus scale="   43.987">  2  3  1 -1</clus>
<clus scale="   62.334">  1  4  2 -1</clus>
<clus scale="   62.334">  1  3  2 -1</clus>
</clustering>
</event>
<event>
 6    0  0.3643696E+002  0.1521383E+03  0.7546771E-02  0.1197870E+00
         21   -1    0    0  503  502  0.00000000000E+00  0.00000000000E+00  0.12148063173E+03  0.12148063173E+03  0.00000000000E+00 0. -1.
          2   -1    0    0  505    0 -0.00000000000E+00 -0.00000000000E+00 -0.77658471134E+03  0.77658471134E+03  0.00000000000E+00 0. -1.
         21    1    1    2  503  504  0.14697090927E+03  0.88203004879E+01  0.56622617769E+02  0.15774779464E+03  0.00000000000E+00 0. -1.
         21    1    1    2  504  501 -0.81177029000E+02  0.11574544538E+02 -0.22707282895E+03  0.24142441833E+03  0.00000000000E+00 0. -1.
         21    1    1    2  505  502  0.22214862443E+02 -0.20283332696E+02 -0.13815326940E+03  0.14139037996E+03  0.00000000000E+00 0. -1.
          2    1    1    2  501    0 -0.88008742710E+02 -0.11151232949E+00 -0.34650059903E+03  0.35750275014E+03  0.00000000000E+00 0. -1.
<scales pt_clust_3="148.90940" pt_clust_4="30.46723" pt_clust_5="30.08178" pt_clust_6="30.46723"></scales>
<clustering>
<clus scale="   30.082">  2  5  1 -1</clus>
<clus scale="   30.467">  4  6 -1 -1</clus>
<clus scale="  148.909">  1  3  2 -1</clus>
<clus scale="  148.909">  1  3  2 -1</clus>
</clustering>
</event>
<event>
 6    0  0.3643696E+002  0.1260786E+03  0.7546771E-02  0.1233393E+00
         21   -1    0    0  503  502  0.00000000000E+00  0.00000000000E+00  0.17603937604E+04  0.17603937604E+04  0.00000000000E+00 0.  1.
          2   -1    0    0  504    0 -0.00000000000E+00 -0.00000000000E+00 -0.10319777501E+04  0.10319777501E+04  0.00000000000E+00 0.  1.
         21    1    1    2  503  501  0.95038876495E+02 -0.44150807162E+02  0.16993977683E+04  0.17026257536E+04  0.00000000000E+00 0.  1.
         21    1    1    2  504  505 -0.26688414729E+02  0.17394994334E+02 -0.96076797583E+02  0.10122059248E+03  0.00000000000E+00 0. -1.
         21    1    1    2  505  502 -0.11171775475E+03  0.15714609900E+03 -0.13355550208E+03  0.23454813002E+03  0.00000000000E+00 0.  1.
          2    1    1    2  501    0  0.43367292983E+02 -0.13039028618E+03 -0.74134945844E+03  0.75397703437E+03  0.00000000000E+00 0.  1.
<scales pt_clust_3="104.73899" pt_clust_4="31.85683" pt_clust_5="126.07857" pt_clust_6="14000.00000"></scales>
<clustering>
<clus scale="   31.857">  2  4  1 -1</clus>
<clus scale="  104.739">  1  3  2 -1</clus>
<clus scale="  126.079">  1  5  2 -1</clus>
<clus scale="  104.739">  1  3  2 -1</clus>
</clustering>
</event>
<event>
 6    0  0.3643696E+002  0.1086773E+03  0.7546771E-02  0.1263039E+00
         -1   -1    0    0    0  501 -0.00000000000E+00  0.00000000000E+00  0.23227567926E+03  0.23227567926E+03  0.00000000000E+00 0.  1.
         21   -1    0    0  504  502  0.00000000000E+00 -0.00000000000E+00 -0.18466301395E+03  0.18466301395E+03  0.00000000000E+00 0. -1.
         21    1    1    2  503  502  0.68135140000E+02 -0.50231937102E+02 -0.13345243830E+02  0.85695626147E+02  0.00000000000E+00 0. -1.
         21    1    1    2  504  505 -0.89061232386E+02  0.99961608263E+02 -0.87312784028E+02  0.15983663064E+03  0.00000000000E+00 0. -1.
         21    1    1    2  505  501  0.40795146715E+02 -0.12451502580E+02  0.88173383992E+02  0.97948096238E+02  0.00000000000E+00 0. -1.
         -1    1    1    2    0  503 -0.19869054329E+02 -0.37278168582E+02  0.60097309170E+02  0.73458340181E+02  0.00000000000E+00 0.  1.
<scales pt_clust_3="108.67732" pt_clust_4="14000.00000" pt_clust_5="44.65366" pt_clust_6="42.24265"></scales>
<clustering>
<clus scale="   42.243">  1  6  2 -1</clus>
<clus scale="   44.654">  1  5  2 -1</clus>
<clus scale="  108.677">  2  3  1 -1</clus>
<clus scale="  108.677">  2  3  1 -1</clus>
</clustering>
</event>
<event>
 6    0  0.3643696E+002  0.9727712E+02  0.7546771E-02  0.1286128E+00
         21   -1    0    0  505  502  0.00000000000E+00  0.00000000000E+00  0.26277027406E+03  0.26277027406E+03  0.00000000000E+00 0.  1.
          2   -1    0    0  504    0 -0.00000000000E+00 -0.00000000000E+00 -0.10068489622E+04  0.10068489622E+04  0.00000000000E+00 0. -1.
         21    1    1    2  503  502  0.18875404552E+02  0.23416121648E+02 -0.20261928957E+02  0.36264878535E+02  0.00000000000E+00 0. -1.
         21    1    1    2  504  503 -0.15174682900E+03 -0.69285355820E+02 -0.70098152129E+03  0.72055718290E+03  0.00000000000E+00 0. -1.
         21    1    1    2  505  501  0.54571744462E+02  0.38029016808E+02  0.23447300411E+03  0.24372499065E+03  0.00000000000E+00 0.  1.
          2    1    1    2  501    0  0.78299679985E+02  0.78402173647E+01 -0.25730824204E+03  0.26907218421E+03  0.00000000000E+00 0. -1.
<scales pt_clust_3="30.07650" pt_clust_4="14000.00000" pt_clust_5="97.27712" pt_clust_6="79.18025"></scales>
<clustering>
<clus scale="   30.076">  1  3  2 -1</clus>
<clus scale="   79.180">  2  6  1 -1</clus>
<clus scale="   97.277">  1  5  2 -1</clus>
<clus scale="   30.076">  1  3  2 -1</clus>
</clustering>
</event>
<event>
 6    0  0.3643696E+002  0.7487334E+02  0.7546771E-02  0.1344264E+00
         21   -1    0    0  501  502  0.00000000000E+00  0.00000000000E+00  0.46084130819E+02  0.46084130819E+02  0.00000000000E+00 0.  1.
          2   -1    0    0  504    0 -0.00000000000E+00 -0.00000000000E+00 -0.52135425934E+03  0.52135425934E+03  0.00000000000E+00 0. -1.
         21    1    1    2  503  502 -0.50051615180E+02 -0.24510173533E+02 -0.12841848826E+02  0.57191134540E+02  0.00000000000E+00 0.  1.
         21    1    1    2  504  505  0.41712110023E+02 -0.79290006147E+01 -0.17642517523E+03  0.18146242484E+03  0.00000000000E+00 0. -1.
         21    1    1    2  505  503 -0.47805963474E+02 -0.45582689982E+02 -0.11653458856E+03  0.13395335793E+03  0.00000000000E+00 0.  1.
          2    1    1    2  501    0  0.56145468630E+02  0.78021864130E+02 -0.16946851590E+03  0.19483147285E+03  0.00000000000E+00 0. -1.
<scales pt_clust_3="52.32119" pt_clust_4="42.45903" pt_clust_5="14000.00000" pt_clust_6="74.87334"></scales>
<clustering>
<clus scale="   42.459">  2  4  1 -1</clus>
<clus scale="   52.321">  1  3  2 -1</clus>
<clus scale="   74.873">  1  6  2 -1</clus>
<clus scale="   52.321">  1  3  2 -1</clus>
</clustering>
</event>
<event>
 6    0  0.3643696E+002  0.1303669E+03  0.7546771E-02  0.1226912E+00
          2   -1    0    0  505    0 -0.00000000000E+00  0.00000000000E+00  0.15807113787E+04  0.15807113787E+04  0.00000000000E+00 0. -1.
         21   -1    0    0  501  502  0.00000000000E+00 -0.00000000000E+00 -0.31238691759E+02  0.31238691759E+02  0.00000000000E+00 0. -1.
         21    1    1    2  503  504  0.12361105881E+03 -0.72052166532E+02  0.54798512335E+03  0.56635581040E+03  0.00000000000E+00 0. -1.
         21    1    1    2  504  502 -0.46493791109E+02  0.17211894417E+02  0.40466927468E+02  0.63996047845E+02  0.00000000000E+00 0. -1.
         21    1    1    2  505  503 -0.30600255370E+01 -0.56802821337E+02  0.43856480422E+03  0.44223863667E+03  0.00000000000E+00 0. -1.
          2    1    1    2  501    0 -0.74057242164E+02  0.11164309345E+03  0.52245583188E+03  0.53935957552E+03  0.00000000000E+00 0. -1.
<scales pt_clust_3="130.36688" pt_clust_4="49.57743" pt_clust_5="55.67936" pt_clust_6="14000.00000"></scales>
<clustering>
<clus scale="   49.577">  2  4  1 -1</clus>
<clus scale="   55.679">  1  5  2 -1</clus>
<clus scale="  130.367">  2  3  1 -1</clus>
<clus scale="   49.577">  2  3  1 -1</clus>
</clustering>
</event>
<event>
 6    0  0.3643696E+002  0.1529567E+03  0.7546771E-02  0.1196886E+00
         21   -1    0    0  504  502  0.00000000000E+00  0.00000000000E+00  0.90195994419E+02  0.90195994419E+02  0.00000000000E+00 0. -1.
          1   -1    0    0  503    0 -0.00000000000E+00 -0.00000000000E+00 -0.61234801633E+03  0.61234801633E+03  0.00000000000E+00 0. -1.
         21    1    1    2  503  505 -0.10701969211E+02 -0.43491117517E+02 -0.50570124735E+02  0.67552549645E+02  0.00000000000E+00 0. -1.
         21    1    1    2  504  501  0.17735096887E+02 -0.28004875820E+02  0.46257281770E+02  0.56908196668E+02  0.00000000000E+00 0. -1.
         21    1    1    2  505  502  0.67819970643E+02 -0.56781528498E+02 -0.94451537177E+02  0.12940163551E+03  0.00000000000E+00 0. -1.
          1    1    1    2  501    0 -0.74853098319E+02  0.12827752183E+03 -0.42338764177E+03  0.44868162893E+03  0.00000000000E+00 0. -1.
<scales pt_clust_3="46.52721" pt_clust_4="33.14825" pt_clust_5="46.52721" pt_clust_6="137.67041"></scales>
<clustering>
<clus scale="   33.148">  1  4  2 -1</clus>
<clus scale="   46.527">  3  5 -1 -1</clus>
<clus scale="  137.670">  2  6  1 -1</clus>
<clus scale="   33.148">  1  3  2 -1</clus>
</clustering>
</event>
<event>
 6    0  0.3643696E+002  0.9834956E+02  0.7546771E-02  0.1283805E+00
          1   -1    0    0  503    0 -0.00000000000E+00  0.00000000000E+00  0.56550766860E+03  0.56550766860E+03  0.00000000000E+00 0.  1.
         21   -1    0    0  504  502  0.00000000000E+00 -0.00000000000E+00 -0.18292727142E+03  0.18292727142E+03  0.00000000000E+00 0. -1.
         21    1    1    2  503  502 -0.52744278210E+02 -0.25774101225E+02  0.96245678399E+02  0.11273639070E+03  0.00000000000E+00 0. -1.
         21    1    1    2  504  505 -0.61997049006E+02 -0.46676682405E+02 -0.15331037679E+03  0.17183253009E+03  0.00000000000E+00 0. -1.
         21    1    1    2  505  501  0.15641089920E+02  0.31932289485E+02  0.63464366984E+02  0.72746413536E+02  0.00000000000E+00 0.  1.
          1    1    1    2  501    0  0.99100237296E+02  0.40518494145E+02  0.37618072858E+03  0.39111960569E+03  0.00000000000E+00 0.  1.
<scales pt_clust_3="58.70488" pt_clust_4="78.76198" pt_clust_5="33.94351" pt_clust_6="33.94351"></scales>
<clustering>
<clus scale="   33.944">  5  6 -1 -1</clus>
<clus scale="   58.705">  1  3  2 -1</clus>
<clus scale="   78.762">  2  4  1 -1</clus>
<clus scale="   78.762">  2  3  1 -1</clus>
</clustering>
</event>
<event>
 6    0  0.3643696E+002  0.1209680E+03  0.7546771E-02  0.1241509E+00
          2   -1    0    0  503    0 -0.00000000000E+00  0.00000000000E+00  0.12653964470E+04  0.12653964470E+04  0.00000000000E+00 0.  1.
         21   -1    0    0  501  502  0.00000000000E+00 -0.00000000000E+00 -0.68123638391E+02  0.68123638391E+02  0.00000000000E+00 0. -1.
         21    1    1    2  503  505 -0.25206518407E+02  0.41888621394E+02  0.56815796503E+03  0.57025739662E+03  0.00000000000E+00 0.  1.
         21    1    1    2  504  502  0.12625269956E+03  0.74100759179E+01  0.16214856269E+02  0.12750519572E+03  0.00000000000E+00 0. -1.
         21    1    1    2  505  504 -0.16493920217E+02 -0.63035834801E+02  0.13107304733E+03  0.14637523564E+03  0.00000000000E+00 0. -1.
          2    1    1    2  501    0 -0.84552260937E+02  0.13737137489E+02  0.48182693999E+03  0.48938225742E+03  0.00000000000E+00 0.  1.
<scales pt_clust_3="48.88788" pt_clust_4="120.96802" pt_clust_5="58.76949" pt_clust_6="14000.00000"></scales>
<clustering>
<clus scale="   48.888">  1  3  2 -1</clus>
<clus scale="   58.769">  1  5  2 -1</clus>
<clus scale="  120.968">  2  4  1 -1</clus>
<clus scale="  120.968">  2  3  1 -1</clus>
</clustering>
</event>
<event>
 6    0  0.3643696E+002  0.1112855E+03  0.7546771E-02  0.1258208E+00
          1   -1    0    0  505    0 -0.00000000000E+00  0.00000000000E+00  0.18815036624E+04  0.18815036624E+04  0.00000000000E+00 0.  1.
         21   -1    0    0  501  502  0.00000000000E+00 -0.00000000000E+00 -0.63037994638E+02  0.63037994638E+02  0.00000000000E+00 0.  1.
         21    1    1    2  503  504  0.63803766990E+01  0.71872439674E+02  0.24433707885E+03  0.25476845349E+03  0.00000000000E+00 0.  1.
         21    1    1    2  504  502  0.33589504676E+02 -0.33495388855E+02 -0.38154050034E+02  0.60876329004E+02  0.00000000000E+00 0.  1.
         21    1    1    2  505  503  0.77634747237E+02  0.25087059077E+02  0.34167348608E+03  0.35127949784E+03  0.00000000000E+00 0. -1.
          1    1    1    2  501    0 -0.11760462861E+03 -0.63464109897E+02  0.12706091528E+04  0.12776173767E+04  0.00000000000E+00 0.  1.
<scales pt_clust_3="62.04333" pt_clust_4="47.43623" pt_clust_5="14000.00000" pt_clust_6="111.28552"></scales>
<clustering>
<clus scale="   47.436">  2  4  1 -1</clus>
<clus scale="   62.043">  2  3  1 -1</clus>
<clus scale="  111.286">  1  6  2 -1</clus>
<clus scale="   47.436">  2  3  1 -1</clus>
</clustering>
</event>
<event>
 6    0  0.3643696E+002  0.1419078E+03  0.7546771E-02  0.1210785E+00
          1   -1    0    0  503    0 -0.00000000000E+00  0.00000000000E+00  0.34286867971E+04  0.34286867971E+04  0.00000000000E+00 0.  1.
         21   -1    0    0  501  502  0.00000000000E+00 -0.00000000000E+00 -0.17854398965E+02  0.17854398965E+02  0.00000000000E+00 0. -1.
         21    1    1    2  503  505  0.42592226886E+02 -0.30359202702E+02  0.10029005828E+04  0.10042635899E+04  0.00000000000E+00 0. -1.
         21    1    1    2  504  502  0.31138436750E+02 -0.22219569111E+02  0.53553820429E+02  0.65812788858E+02  0.00000000000E+00 0. -1.
         21    1    1    2  505  504  0.95530464022E+02  0.85182003049E+02  0.59204971239E+03  0.60572675783E+03  0.00000000000E+00 0.  1.
          1    1    1    2  501    0 -0.16926112766E+03 -0.32603231235E+02  0.17623282825E+04  0.17707380594E+04  0.00000000000E+00 0.  1.
<scales pt_clust_3="54.52812" pt_clust_4="38.25325" pt_clust_5="141.90782" pt_clust_6="14000.00000"></scales>
<clustering>
<clus scale="   38.253">  2  4  1 -1</clus>
<clus scale="   54.528">  1  3  2 -1</clus>
<clus scale="  141.908">  2  5  1 -1</clus>
<clus scale="   38.253">  2  3  1 -1</clus>
</clustering>
</event>
<event>
 6    0  0.3643696E+002  0.1001983E+03  0.7546771E-02  0.1279880E+00
         21   -1    0    0  505  502  0.00000000000E+00  0.00000000000E+00  0.29391333163E+03  0.29391333163E+03  0.00000000000E+00 0. -1.
          2   -1    0    0  504    0 -0.00000000000E+00 -0.00000000000E+00 -0.18959011653E+04  0.18959011653E+04  0.00000000000E+00 0.  1.
         21    1    1    2  503  502  0.24955348408E+01  0.98834637330E+02  0.24194165865E+03  0.26136235273E+03  0.00000000000E+00 0. -1.
         21    1    1    2  504  503  0.10131189384E+02  0.89928839690E+02 -0.56037465811E+03  0.56763508935E+03  0.00000000000E+00 0.  1.
         21    1    1    2  505  501 -0.46081482119E+02 -0.11169361297E+03 -0.60949972303E+02  0.13532873049E+03  0.00000000000E+00 0.  1.
          2    1    1    2  501    0  0.33454757894E+02 -0.77069864046E+02 -0.12226048619E+04  0.12254883243E+04  0.00000000000E+00 0.  1.
<scales pt_clust_3="100.19828" pt_clust_4="45.79321" pt_clust_5="14000.00000" pt_clust_6="84.01776"></scales>
<clustering>
<clus scale="   84.018">  2  6  1 -1</clus>
<clus scale="   45.793">  2  4  1 -1</clus>
<clus scale="  100.198">  1  3  2 -1</clus>
<clus scale="  100.198">  1  3  2 -1</clus>
</clustering>
</event>
<event>
 6    0  0.3643696E+002  0.1177517E+03  0.7546771E-02  0.1246853E+00
         21   -1    0    0  505  502  0.00000000000E+00  0.00000000000E+00  0.87799600575E+03  0.87799600575E+03  0.00000000000E+00 0. -1.
          4   -1    0    0  502    0 -0.00000000000E+00 -0.00000000000E+00 -0.35609028608E+03  0.35609028608E+03  0.00000000000E+00 0. -1.
         21    1    1    2  503  501 -0.51486190376E+01  0.11265810506E+03 -0.23253066781E+02  0.11514800054E+03  0.00000000000E+00 0. -1.
         21    1    1    2  504  503  0.64020464789E+02 -0.38239788591E+02 -0.57722108396E+02  0.94301342201E+02  0.00000000000E+00 0.  1.
         21    1    1    2  505  504 -0.28030554764E+02  0.42679632412E+02  0.79548922813E+03  0.79712632317E+03  0.00000000000E+00 0. -1.
          4    1    1    2  501    0 -0.30841290988E+02 -0.11709794888E+03 -0.19260833328E+03  0.22751062592E+03  0.00000000000E+00 0. -1.
<scales pt_clust_3="14000.00000" pt_clust_4="64.47640" pt_clust_5="51.06137" pt_clust_6="117.75173"></scales>
<clustering>
<clus scale="   51.061">  1  5  2 -1</clus>
<clus scale="   64.476">  1  4  2 -1</clus>
<clus scale="  117.752">  2  6  1 -1</clus>
<clus scale="   51.061">  1  3  2 -1</clus>
</clustering>
</event>
<event>
 6    0  0.3643696E+002  0.6698446E+02  0.7546771E-02  0.1370658E+00
          3   -1    0    0  503    0 -0.00000000000E+00  0.00000000000E+00  0.92578520299E+03  0.92578520299E+03  0.00000000000E+00 0. -1.
         21   -1    0    0  504  502  0.00000000000E+00 -0.00000000000E+00 -0.30787314987E+02  0.30787314987E+02  0.00000000000E+00 0. -1.
         21    1    1    2  503  505  0.64737486149E+02 -0.89680848446E+01  0.45442944330E+03  0.45910509429E+03  0.00000000000E+00 0. -1.
         21    1    1    2  504  501  0.31954191772E+02 -0.23222065176E+02  0.15180738950E+02  0.42317721086E+02  0.00000000000E+00 0. -1.
         21    1    1    2  505  502 -0.22569644938E+02  0.73582721128E+02  0.19856429848E+03  0.21295911897E+03  0.00000000000E+00 0. -1.
          3    1    1    2  501    0 -0.74122032982E+02 -0.41392571108E+02  0.22682340727E+03  0.24219058364E+03  0.00000000000E+00 0. -1.
<scales pt_clust_3="66.98446" pt_clust_4="39.50107" pt_clust_5="64.53695" pt_clust_6="14000.00000"></scales>
<clustering>
<clus scale="   39.501">  2  4  1 -1</clus>
<clus scale="   64.537">  2  5  1 -1</clus>
<clus scale="   66.984">  1  3  2 -1</clus>
<clus scale="   39.501">  2  3  1 -1</clus>
</clustering>
</event>
<event>
 6    0  0.3643696E+002  0.1170215E+03  0.7546771E-02  0.1248093E+00
         21   -1    0    0  503  502  0.00000000000E+00  0.00000000000E+00  0.86941442189E+02  0.86941442189E+02  0.00000000000E+00 0.  1.
          2   -1    0    0  505    0 -0.00000000000E+00 -0.00000000000E+00 -0.56816387808E+03  0.56816387808E+03  0.00000000000E+00 0.  1.
         21    1    1    2  503  504 -0.24848867352E+02 -0.23043002248E+02 -0.79151834842E+02  0.86101446679E+02  0.00000000000E+00 0.  1.
         21    1    1    2  504  501 -0.84161446208E+02  0.17881043838E+02 -0.26041718667E+03  0.27426263302E+03  0.00000000000E+00 0.  1.
         21    1    1    2  505  502  0.79927295708E+02 -0.73000413710E+02  0.22551872051E+02  0.11057133414E+03  0.00000000000E+00 0.  1.
          2    1    1    2  501    0  0.29083017852E+02  0.78162372120E+02 -0.16420528643E+03  0.18416990643E+03  0.00000000000E+00 0.  1.
<scales pt_clust_3="32.27835" pt_clust_4="32.27835" pt_clust_5="105.11319" pt_clust_6="83.39771"></scales>
<clustering>
<clus scale="   32.278">  3  4 -1 -1</clus>
<clus scale="   83.398">  2  6  1 -1</clus>
<clus scale="  105.113">  1  5  2 -1</clus>
<clus scale="  105.113">  1  3  2 -1</clus>
</clustering>
</event>
<event>
 6    0  0.3643696E+002  0.2818715E+03  0.7546771E-02  0.1094671E+00
         21   -1    0    0  503  502  0.00000000000E+00  0.00000000000E+00  0.23852085721E+03  0.23852085721E+03  0.00000000000E+00 0.  1.
         -1   -1    0    0    0  501 -0.00000000000E+00 -0.00000000000E+00 -0.20217731673E+04  0.20217731673E+04  0.00000000000E+00 0.  1.
         21    1    1    2  503  505 -0.24866197364E+03 -0.37053802275E+02  0.12079283414E+03  0.27892054456E+03  0.00000000000E+00 0.  1.
         21    1    1    2  504  502  0.62283831239E+02  0.41512118727E+02 -0.13494698355E+03  0.15431532654E+03  0.00000000000E+00 0.  1.
         21    1    1    2  505  501 -0.82865993231E+02 -0.13383877953E+03 -0.57409854282E+03  0.59528877749E+03  0.00000000000E+00 0.  1.
         -1    1    1    2    0  504  0.26924413563E+03  0.12938046307E+03 -0.11949996178E+04  0.12317693759E+04  0.00000000000E+00 0.  1.
<scales pt_clust_3="257.08709" pt_clust_4="57.85399" pt_clust_5="157.41535" pt_clust_6="57.85399"></scales>
<clustering>
<clus scale="   57.854">  4  6 -1 -1</clus>
<clus scale="  157.415">  2  5  1 -1</clus>
<clus scale="  257.087">  1  3  2 -1</clus>
<clus scale="  257.087">  1  3  2 -1</clus>
</clustering>
</event>
<event>
 6    0  0.3643696E+002  0.7098274E+02  0.7546771E-02  0.1356783E+00
         21   -1    0    0  504  502  0.00000000000E+00  0.00000000000E+00  0.27297044367E+02  0.27297044367E+02  0.00000000000E+00 0. -1.
          2   -1    0    0  503    0 -0.00000000000E+00 -0.00000000000E+00 -0.69949534248E+03  0.69949534248E+03  0.00000000000E+00 0. -1.
         21    1    1    2  503  505  0.37269580662E+02 -0.23409719114E+02 -0.14726111578E+03  0.15369734159E+03  0.00000000000E+00 0. -1.
         21    1    1    2  504  501 -0.80853214833E+02  0.52555211482E+02 -0.32129512244E+03  0.33545468891E+03  0.00000000000E+00 0.  1.
         21    1    1    2  505  502  0.20622343000E+02 -0.65423487229E+02 -0.73217981807E+02  0.10033138378E+03  0.00000000000E+00 0. -1.
          2    1    1    2  501    0  0.22961291170E+02  0.36277994861E+02 -0.13042407808E+03  0.13730897256E+03  0.00000000000E+00 0. -1.
<scales pt_clust_3="45.50779" pt_clust_4="70.98274" pt_clust_5="14000.00000" pt_clust_6="42.93383"></scales>
<clustering>
<clus scale="   42.934">  2  6  1 -1</clus>
<clus scale="   45.508">  2  3  1 -1</clus>
<clus scale="   70.983">  2  4  1 -1</clus>
<clus scale="   70.983">  1  3  2 -1</clus>
</clustering>
</event>
<event>
 6    0  0.3643696E+002  0.4268930E+03  0.7546771E-02  0.1034846E+00
         21   -1    0    0  505  502  0.00000000000E+00  0.00000000000E+00  0.20807520734E+03  0.20807520734E+03  0.00000000000E+00 0.  1.
          2   -1    0    0  504    0 -0.00000000000E+00 -0.00000000000E+00 -0.36111136045E+04  0.36111136045E+04  0.00000000000E+00 0.  1.
         21    1    1    2  503  501 -0.29684003037E+02 -0.14279660253E+03 -0.17363731742E+04  0.17424878220E+04  0.00000000000E+00 0.  1.
         21    1    1    2  504  502  0.69199432465E+02 -0.10991993821E+02  0.12251316669E+03  0.14113419640E+03  0.00000000000E+00 0.  1.
         21    1    1    2  505  503 -0.61351161671E+01  0.39655851627E+03 -0.58540420775E+03  0.70710280931E+03  0.00000000000E+00 0.  1.
          2    1    1    2  501    0 -0.33380313261E+02 -0.24276991992E+03 -0.12037741820E+04  0.12284639842E+04  0.00000000000E+00 0.  1.
<scales pt_clust_3="132.20881" pt_clust_4="70.06701" pt_clust_5="390.88120" pt_clust_6="132.20881"></scales>
<clustering>
<clus scale="   70.067">  1  4  2 -1</clus>
<clus scale="  132.209">  3  6 -1 -1</clus>
<clus scale="  390.881">  1  5  2 -1</clus>
<clus scale="   70.067">  1  3  2 -1</clus>
</clustering>
</event>
<event>
 6    0  0.3643696E+002  0.8289029E+02  0.7546771E-02  0.1321044E+00
          1   -1    0    0  502    0 -0.00000000000E+00  0.00000000000E+00  0.25504140052E+04  0.25504140052E+04  0.00000000000E+00 0.  1.
         21   -1    0    0  503  502  0.00000000000E+00 -0.00000000000E+00 -0.46432077449E+02  0.46432077449E+02  0.00000000000E+00 0. -1.
         21    1    1    2  503  504 -0.21889570085E+02 -0.77544084287E+02  0.63890392698E+01  0.80827335161E+02  0.00000000000E+00 0. -1.
         21    1    1    2  504  505  0.60874932363E+02  0.90484530388E+02  0.39578165422E+03  0.41053175936E+03  0.00000000000E+00 0. -1.
         21    1    1    2  505  501 -0.50065463922E+02 -0.44478990979E+02  0.68153383576E+03  0.68481625317E+03  0.00000000000E+00 0. -1.
          1    1    1    2  501    0  0.11080101644E+02  0.31538544878E+02  0.14202773985E+04  0.14206707349E+04  0.00000000000E+00 0.  1.
<scales pt_clust_3="14000.00000" pt_clust_4="82.89029" pt_clust_5="50.26256" pt_clust_6="33.42826"></scales>
<clustering>
<clus scale="   33.428">  1  6  2 -1</clus>
<clus scale="   50.263">  1  5  2 -1</clus>
<clus scale="   82.890">  1  4  2 -1</clus>
<clus scale="   82.890">  2  3  1 -1</clus>
</clustering>
</event>
<event>
 6    0  0.3643696E+002  0.1536961E+03  0.7546771E-02  0.1196003E+00
         21   -1    0    0  504  502  0.00000000000E+00  0.00000000000E+00  0.12003597504E+04  0.12003597504E+04  0.00000000000E+00 0. -1.
         -2   -1    0    0    0  501 -0.00000000000E+00 -0.00000000000E+00 -0.30079509658E+02  0.30079509658E+02  0.00000000000E+00 0. -1.
         21    1    1    2  503  502 -0.12136160316E+03  0.35238146615E+02  0.62057151296E+03  0.63330827280E+03  0.00000000000E+00 0. -1.
         21    1    1    2  504  501 -0.46157938825E+02 -0.25831677000E+01  0.73413719773E+02  0.86757145659E+02  0.00000000000E+00 0. -1.
         21    1    1    2  505  503  0.72724731599E+02 -0.88366248563E+01  0.11718675028E+03  0.13820168945E+03  0.00000000000E+00 0.  1.
         -2    1    1    2    0  505  0.94794810390E+02 -0.23818354059E+02  0.35910825769E+03  0.37217215211E+03  0.00000000000E+00 0. -1.
<scales pt_clust_3="138.30079" pt_clust_4="46.23016" pt_clust_5="52.76350" pt_clust_6="52.76350"></scales>
<clustering>
<clus scale="   46.230">  2  4  1 -1</clus>
<clus scale="   52.764">  5  6 -1 -1</clus>
<clus scale="  138.301">  1  3  2 -1</clus>
<clus scale="  138.301">  1  3  2 -1</clus>
</clustering>
</event>
<event>
 6    0  0.3643696E+002  0.9701145E+02  0.7546771E-02  0.1286709E+00
          1   -1    0    0  504    0 -0.00000000000E+00  0.00000000000E+00  0.17057673107E+04  0.17057673107E+04  0.00000000000E+00 0.  1.
         21   -1    0    0  505  502  0.00000000000E+00 -0.00000000000E+00 -0.21736628332E+04  0.21736628332E+04  0.00000000000E+00 0.  1.
         21    1    1    2  503  502 -0.24985808311E+02  0.34439253849E+02 -0.21607848017E+04  0.21612036720E+04  0.00000000000E+00 0.  1.
         21    1    1    2  504  503 -0.26357780725E+02 -0.75693624451E+02  0.49472709433E+03  0.50117776811E+03  0.00000000000E+00 0.  1.
         21    1    1    2  505  501  0.68687351132E+02  0.81596888962E+02  0.31063526910E+03  0.32843610475E+03  0.00000000000E+00 0.  1.
          1    1    1    2  501    0 -0.17343762096E+02 -0.40342518360E+02  0.88752691575E+03  0.88861259897E+03  0.00000000000E+00 0.  1.
<scales pt_clust_3="42.54824" pt_clust_4="14000.00000" pt_clust_5="97.01145" pt_clust_6="43.00836"></scales>
<clustering>
<clus scale="   42.548">  2  3  1 -1</clus>
<clus scale="   43.008">  1  6  2 -1</clus>
<clus scale="   97.011">  2  5  1 -1</clus>
<clus scale="   42.548">  2  3  1 -1</clus>
</clustering>
</event>
<event>
 6    0  0.3643696E+002  0.9850154E+02  0.7546771E-02  0.1283479E+00
         21   -1    0    0  503  502  0.00000000000E+00  0.00000000000E+00  0.77572598317E+03  0.77572598317E+03  0.00000000000E+00 0.  1.
          1   -1    0    0  504    0 -0.00000000000E+00 -0.00000000000E+00 -0.36341236554E+03  0.36341236554E+03  0.00000000000E+00 0. -1.
         21    1    1    2  503  505 -0.15343161369E+02  0.26466022295E+02  0.63961716894E+03  0.64034833157E+03  0.00000000000E+00 0.  1.
         21    1    1    2  504  502 -0.47218479327E+02  0.28836622544E+02 -0.24113478082E+03  0.24740072375E+03  0.00000000000E+00 0.  1.
         21    1    1    2  505  501 -0.66075937837E+02  0.27635512253E+02  0.57917640587E+02  0.92109739928E+02  0.00000000000E+00 0.  1.
          1    1    1    2  501    0  0.12863757853E+03 -0.82938157092E+02 -0.44086411078E+02  0.15927955347E+03  0.00000000000E+00 0. -1.
<scales pt_clust_3="30.59188" pt_clust_4="55.94913" pt_clust_5="98.50154" pt_clust_6="14000.00000"></scales>
<clustering>
<clus scale="   30.592">  1  3  2 -1</clus>
<clus scale="   55.949">  2  4  1 -1</clus>
<clus scale="   98.502">  1  5  2 -1</clus>
<clus scale="   30.592">  1  3  2 -1</clus>
</clustering>
</event>
<event>
 6    0  0.3643696E+002  0.8891974E+02  0.7546771E-02  0.1305489E+00
         21   -1    0    0  501  502  0.00000000000E+00  0.00000000000E+00  0.16196688756E+02  0.16196688756E+02  0.00000000000E+00 0. -1.
          2   -1    0    0  503    0 -0.00000000000E+00 -0.00000000000E+00 -0.27799075212E+04  0.27799075212E+04  0.00000000000E+00 0. -1.
         21    1    1    2  503  505  0.24836859882E+02 -0.77666336247E+02 -0.16971253117E+04  0.16990830624E+04  0.00000000000E+00 0. -1.
         21    1    1    2  504  502  0.18074176334E+02 -0.34105891298E+02 -0.39400610832E+02  0.55157010482E+02  0.00000000000E+00 0. -1.
         21    1    1    2  505  504 -0.12368943298E+02  0.13508067575E+03 -0.77856093400E+03  0.79028912916E+03  0.00000000000E+00 0. -1.
          2    1    1    2  501    0 -0.30542092919E+02 -0.23308448203E+02 -0.24862397593E+03  0.25157500791E+03  0.00000000000E+00 0. -1.
<scales pt_clust_3="88.91974" pt_clust_4="46.61175" pt_clust_5="14000.00000" pt_clust_6="38.42009"></scales>
<clustering>
<clus scale="   38.420">  1  6  2 -1</clus>
<clus scale="   46.612">  1  4  2 -1</clus>
<clus scale="   88.920">  2  3  1 -1</clus>
<clus scale="   38.420">  1  3  2 -1</clus>
</clustering>
</event>
<event>
 6    0  0.3643696E+002  0.7141760E+02  0.7546771E-02  0.1355338E+00
         21   -1    0    0  505  502  0.00000000000E+00  0.00000000000E+00  0.28131606733E+03  0.28131606733E+03  0.00000000000E+00 0.  1.
          4   -1    0    0  504    0 -0.00000000000E+00 -0.00000000000E+00 -0.12146612708E+03  0.12146612708E+03  0.00000000000E+00 0.  1.
         21    1    1    2  503  502  0.38164644423E+02 -0.40044824810E+02 -0.10427632603E+00  0.55318522680E+02  0.00000000000E+00 0.  1.
         21    1    1    2  504  503 -0.47475799206E+02  0.40159004854E+01 -0.14944996541E+02  0.49934275689E+02  0.00000000000E+00 0.  1.
         21    1    1    2  505  501 -0.70465047868E+02  0.19573447492E+01  0.19596729484E+03  0.20826025741E+03  0.00000000000E+00 0.  1.
          4    1    1    2  501    0  0.79776202651E+02  0.34071579575E+02 -0.21068081730E+02  0.89269138631E+02  0.00000000000E+00 0.  1.
<scales pt_clust_3="45.29876" pt_clust_4="47.64535" pt_clust_5="14000.00000" pt_clust_6="71.41760"></scales>
<clustering>
<clus scale="   47.645">  2  4  1 -1</clus>
<clus scale="   45.299">  2  3  1 -1</clus>
<clus scale="   71.418">  2  6  1 -1</clus>
<clus scale="   71.418">  1  3  2 -1</clus>
</clustering>
</event>
<event>
 6    0  0.3643696E+002  0.1136957E+03  0.7546771E-02  0.1253875E+00
         21   -1    0    0  503  502  0.00000000000E+00  0.00000000000E+00  0.91411853786E+02  0.91411853786E+02  0.00000000000E+00 0.  1.
          2   -1    0    0  505    0 -0.00000000000E+00 -0.00000000000E+00 -0.10768630451E+04  0.10768630451E+04  0.00000000000E+00 0. -1.
         21    1    1    2  503  501  0.73162068484E+02  0.12456988197E+03 -0.16281757611E+02  0.14538032669E+03  0.00000000000E+00 0.  1.
         21    1    1    2  504  502 -0.59688718516E+00 -0.50984296717E+02 -0.26608696887E+02  0.57513281388E+02  0.00000000000E+00 0.  1.
         21    1    1    2  505  504  0.46550006101E+02  0.23376094963E+02 -0.17425549096E+03  0.18187446498E+03  0.00000000000E+00 0.  1.
          2    1    1    2  501    0 -0.11911518740E+03 -0.96961680212E+02 -0.76830524586E+03  0.78350682583E+03  0.00000000000E+00 0. -1.
<scales pt_clust_3="113.69570" pt_clust_4="50.98779" pt_clust_5="50.96621" pt_clust_6="14000.00000"></scales>
<clustering>
<clus scale="   50.988">  1  4  2 -1</clus>
<clus scale="   50.966">  2  5  1 -1</clus>
<clus scale="  113.696">  1  3  2 -1</clus>
<clus scale="   50.988">  1  3  2 -1</clus>
</clustering>
</event>
<event>
 6    0  0.3643696E+002  0.2191835E+03  0.7546771E-02  0.1134493E+00
          2   -1    0    0  503    0 -0.00000000000E+00  0.00000000000E+00  0.27398119417E+04  0.27398119417E+04  0.00000000000E+00 0.  1.
         21   -1    0    0  504  502  0.00000000000E+00 -0.00000000000E+00 -0.60452414638E+03  0.60452414638E+03  0.00000000000E+00 0.  1.
         21    1    1    2  503  505 -0.34967692084E+02  0.10387084343E+02  0.11384079207E+03  0.11954228102E+03  0.00000000000E+00 0.  1.
         21    1    1    2  504  501 -0.81354059848E+02  0.20335581923E+03 -0.56981945019E+03  0.61046398590E+03  0.00000000000E+00 0.  1.
         21    1    1    2  505  502  0.35791681302E+02  0.11433325653E+02  0.53813687956E+02  0.65632906361E+02  0.00000000000E+00 0.  1.
          2    1    1    2  501    0  0.80530070629E+02 -0.22517622923E+03  0.25374527655E+04  0.25486969148E+04  0.00000000000E+00 0.  1.
<scales pt_clust_3="36.47782" pt_clust_4="219.18348" pt_clust_5="36.89000" pt_clust_6="14000.00000"></scales>
<clustering>
<clus scale="   36.478">  1  3  2 -1</clus>
<clus scale="   36.890">  1  5  2 -1</clus>
<clus scale="  219.183">  2  4  1 -1</clus>
<clus scale="  219.183">  2  3  1 -1</clus>
</clustering>
</event>
<event>
 6    0  0.3643696E+002  0.8249135E+02  0.7546771E-02  0.1322126E+00
          2   -1    0    0  503    0 -0.00000000000E+00  0.00000000000E+00  0.11884611266E+04  0.11884611266E+04  0.00000000000E+00 0.  1.
         21   -1    0    0  505  502  0.00000000000E+00 -0.00000000000E+00 -0.39663708130E+03  0.39663708130E+03  0.00000000000E+00 0. -1.
         21    1    1    2  503  504  0.44159953342E+02 -0.56918140937E+02  0.34662535987E+03  0.35403236625E+03  0.00000000000E+00 0.  1.
         21    1    1    2  504  502  0.57040323496E+02 -0.59223274764E+02 -0.37584579912E+03  0.38473505104E+03  0.00000000000E+00 0. -1.
         21    1    1    2  505  501 -0.37153164837E+02  0.10089424606E+03  0.25880789818E+03  0.28025262658E+03  0.00000000000E+00 0.  1.
          2    1    1    2  501    0 -0.64047112000E+02  0.15247169641E+02  0.56223658641E+03  0.56607816407E+03  0.00000000000E+00 0.  1.
<scales pt_clust_3="49.05574" pt_clust_4="82.49135" pt_clust_5="14000.00000" pt_clust_6="65.83699"></scales>
<clustering>
<clus scale="   65.837">  1  6  2 -1</clus>
<clus scale="   49.056">  1  3  2 -1</clus>
<clus scale="   82.491">  2  4  1 -1</clus>
<clus scale="   82.491">  2  3  1 -1</clus>
</clustering>
</event>
<event>
 6    0  0.3643696E+002  0.1268133E+03  0.7546771E-02  0.1232262E+00
         21   -1    0    0  504  502  0.00000000000E+00  0.00000000000E+00  0.13266108738E+04  0.13266108738E+04  0.00000000000E+00 0. -1.
          1   -1    0    0  503    0 -0.00000000000E+00 -0.00000000000E+00 -0.12001758402E+04  0.12001758402E+04  0.00000000000E+00 0.  1.
         21    1    1    2  503  505 -0.41232971769E+02  0.67187521741E+01 -0.43897784974E+03  0.44096128192E+03  0.00000000000E+00 0.  1.
         21    1    1    2  504  501 -0.16336958726E+02 -0.96128569477E+02  0.59393560926E+02  0.11417177046E+03  0.00000000000E+00 0.  1.
         21    1    1    2  505  502 -0.43778631864E+02 -0.18131158695E+02  0.12309264678E+04  0.12318381698E+04  0.00000000000E+00 0. -1.
          1    1    1    2  501    0  0.10134856236E+03  0.10754097600E+03 -0.72490714537E+03  0.73981549187E+03  0.00000000000E+00 0.  1.
<scales pt_clust_3="41.77678" pt_clust_4="14000.00000" pt_clust_5="47.40598" pt_clust_6="126.81325"></scales>
<clustering>
<clus scale="   41.777">  2  3  1 -1</clus>
<clus scale="   47.406">  1  5  2 -1</clus>
<clus scale="  126.813">  2  6  1 -1</clus>
<clus scale="   47.406">  1  3  2 -1</clus>
</clustering>
</event>
<event>
 6    0  0.3643696E+002  0.2021596E+03  0.7546771E-02  0.1147930E+00
          2   -1    0    0  505    0 -0.00000000000E+00  0.00000000000E+00  0.54872111005E+03  0.54872111005E+03  0.00000000000E+00 0.  1.
         21   -1    0    0  504  502  0.00000000000E+00 -0.00000000000E+00 -0.27730055858E+03  0.27730055858E+03  0.00000000000E+00 0.  1.
         21    1    1    2  503  502 -0.10924587554E+02 -0.19414127275E+03 -0.20667864509E+03  0.28377146215E+03  0.00000000000E+00 0.  1.
         21    1    1    2  504  501 -0.12019235015E+02  0.66199461167E+02  0.11030195623E+03  0.12920275623E+03  0.00000000000E+00 0. -1.
         21    1    1    2  505  503 -0.32036795208E+02  0.10871516663E+02  0.19110282069E+03  0.19407430071E+03  0.00000000000E+00 0. -1.
          2    1    1    2  501    0  0.54980617778E+02  0.11707029492E+03  0.17669441963E+03  0.21897314952E+03  0.00000000000E+00 0.  1.
<scales pt_clust_3="193.50055" pt_clust_4="44.24407" pt_clust_5="33.83114" pt_clust_6="44.24407"></scales>
<clustering>
<clus scale="   33.831">  1  5  2 -1</clus>
<clus scale="   44.244">  4  6 -1 -1</clus>
<clus scale="  193.501">  2  3  1 -1</clus>
<clus scale="  193.501">  2  3  1 -1</clus>
</clustering>
</event>
<event>
 6    0  0.3643696E+002  0.1123373E+03  0.7546771E-02  0.1256302E+00
          2   -1    0    0  505    0 -0.00000000000E+00  0.00000000000E+00  0.11089041774E+04  0.11089041774E+04  0.00000000000E+00 0.  1.
         21   -1    0    0  501  502  0.00000000000E+00 -0.00000000000E+00 -0.11991571524E+03  0.11991571524E+03  0.00000000000E+00 0.  1.
         21    1    1    2  503  502 -0.88325537626E+02 -0.25590637159E+02 -0.88690729367E+02  0.12775886186E+03  0.00000000000E+00 0.  1.
         21    1    1    2  504  503  0.39989057587E+02 -0.56455124667E+02  0.21743686769E+03  0.22817777556E+03  0.00000000000E+00 0.  1.
         21    1    1    2  505  504  0.61890767327E+02  0.17139510840E+01  0.26769047221E+03  0.27475733588E+03  0.00000000000E+00 0.  1.
          2    1    1    2  501    0 -0.13554287288E+02  0.80331810741E+02  0.59255185164E+03  0.59812591936E+03  0.00000000000E+00 0.  1.
<scales pt_clust_3="91.65463" pt_clust_4="61.44772" pt_clust_5="61.44772" pt_clust_6="81.46728"></scales>
<clustering>
<clus scale="   61.448">  4  5 -1 -1</clus>
<clus scale="   81.467">  1  6  2 -1</clus>
<clus scale="   91.655">  2  3  1 -1</clus>
<clus scale="   91.655">  2  3  1 -1</clus>
</clustering>
</event>
<event>
 6    0  0.3643696E+002  0.9700774E+02  0.7546771E-02  0.1286717E+00
         21   -1    0    0  504  502  0.00000000000E+00  0.00000000000E+00  0.69457769378E+02  0.69457769378E+02  0.00000000000E+00 0.  1.
          2   -1    0    0  505    0 -0.00000000000E+00 -0.00000000000E+00 -0.13928597617E+04  0.13928597617E+04  0.00000000000E+00 0.  1.
         21    1    1    2  503  502  0.56700597289E+02  0.28187706689E+02 -0.60138475442E+02  0.87327777768E+02  0.00000000000E+00 0.  1.
         21    1    1    2  504  501  0.31983502957E+02 -0.78953595976E+02  0.16932002076E+02  0.86852216283E+02  0.00000000000E+00 0.  1.
         21    1    1    2  505  503 -0.36136677568E+02 -0.37046816438E+01 -0.11763821073E+03  0.12311918110E+03  0.00000000000E+00 0.  1.
          2    1    1    2  501    0 -0.52547422679E+02  0.54470570930E+02 -0.11625573083E+04  0.11650183560E+04  0.00000000000E+00 0.  1.
<scales pt_clust_3="61.35455" pt_clust_4="14000.00000" pt_clust_5="36.32608" pt_clust_6="97.00774"></scales>
<clustering>
<clus scale="   36.326">  2  5  1 -1</clus>
<clus scale="   61.355">  1  3  2 -1</clus>
<clus scale="   97.008">  2  6  1 -1</clus>
<clus scale="   61.355">  1  3  2 -1</clus>
</clustering>
</event>
<event>
 6    0  0.3643696E+002  0.1581134E+03  0.7546771E-02  0.1190843E+00
         21   -1    0    0  505  502  0.00000000000E+00  0.00000000000E+00  0.67265739572E+02  0.67265739572E+02  0.00000000000E+00 0. -1.
          4   -1    0    0  503    0 -0.00000000000E+00 -0.00000000000E+00 -0.79575356528E+03  0.79575356528E+03  0.00000000000E+00 0.  1.
         21    1    1    2  503  504 -0.47753223652E+02  0.11918408376E+03 -0.18347231132E+03  0.22393593997E+03  0.00000000000E+00 0. -1.
         21    1    1    2  504  502 -0.17833955657E+02  0.27020118261E+02  0.27210230605E+02  0.42291055967E+02  0.00000000000E+00 0. -1.
         21    1    1    2  505  501  0.80517970105E+01 -0.76782279261E+02 -0.31116923977E+03  0.32060356458E+03  0.00000000000E+00 0.  1.
          4    1    1    2  501    0  0.57535382299E+02 -0.69421922757E+02 -0.26105650523E+03  0.27618874433E+03  0.00000000000E+00 0.  1.
<scales pt_clust_3="148.18382" pt_clust_4="32.37494" pt_clust_5="51.84392" pt_clust_6="51.84392"></scales>
<clustering>
<clus scale="   32.375">  1  4  2 -1</clus>
<clus scale="   51.844">  5  6 -1 -1</clus>
<clus scale="  148.184">  1  3  2 -1</clus>
<clus scale="   32.375">  1  3  2 -1</clus>
</clustering>
</event>
<event>
 6    0  0.3643696E+002  0.1128931E+03  0.7546771E-02  0.1255304E+00
          2   -1    0    0  503    0 -0.00000000000E+00  0.00000000000E+00  0.38044312791E+03  0.38044312791E+03  0.00000000000E+00 0. -1.
         21   -1    0    0  505  502  0.00000000000E+00 -0.00000000000E+00 -0.53963840904E+02  0.53963840904E+02  0.00000000000E+00 0. -1.
         21    1    1    2  503  504  0.58354152627E+02  0.74809516835E+02  0.96637742368E+02  0.13542719146E+03  0.00000000000E+00 0. -1.
         21    1    1    2  504  502 -0.47193565194E+02  0.40238486074E+02  0.52128342037E+02  0.81016864915E+02  0.00000000000E+00 0. -1.
         21    1    1    2  505  501 -0.17967810034E+02 -0.45944478026E+02  0.39169461762E+02  0.62991935938E+02  0.00000000000E+00 0. -1.
          2    1    1    2  501    0  0.68072226008E+01 -0.69103524883E+02  0.13854374084E+03  0.15497097650E+03  0.00000000000E+00 0. -1.
<scales pt_clust_3="100.89404" pt_clust_4="62.01910" pt_clust_5="42.69081" pt_clust_6="42.69081"></scales>
<clustering>
<clus scale="   42.691">  5  6 -1 -1</clus>
<clus scale="   62.019">  2  4  1 -1</clus>
<clus scale="  100.894">  2  3  1 -1</clus>
<clus scale="   62.019">  2  3  1 -1</clus>
</clustering>
</event>
<event>
 6    0  0.3643696E+002  0.4485799E+03  0.7546771E-02  0.1028146E+00
         21   -1    0    0  505  502  0.00000000000E+00  0.00000000000E+00  0.15868505600E+03  0.15868505600E+03  0.00000000000E+00 0. -1.
          2   -1    0    0  503    0 -0.00000000000E+00 -0.00000000000E+00 -0.37932165299E+04  0.37932165299E+04  0.00000000000E+00 0. -1.
         21    1    1    2  503  504 -0.82367114828E+02  0.18378083093E+02 -0.84713882955E+03  0.85133206921E+03  0.00000000000E+00 0. -1.
         21    1    1    2  504  502 -0.48500450144E+03 -0.27303404194E+03 -0.12526739916E+04  0.13707549320E+04  0.00000000000E+00 0. -1.
         21    1    1    2  505  501  0.17085845695E+03  0.98299456636E+02 -0.77947238128E+02  0.21196973231E+03  0.00000000000E+00 0. -1.
          2    1    1    2  501    0  0.39651315932E+03  0.15635650222E+03 -0.14567714146E+04  0.15178448524E+04  0.00000000000E+00 0. -1.
<scales pt_clust_3="84.39251" pt_clust_4="14000.00000" pt_clust_5="194.07390" pt_clust_6="448.57992"></scales>
<clustering>
<clus scale="   84.393">  2  3  1 -1</clus>
<clus scale="  194.074">  1  5  2 -1</clus>
<clus scale="  448.580">  2  6  1 -1</clus>
<clus scale="  194.074">  1  3  2 -1</clus>
</clustering>
</event>
<event>
 6    0  0.3643696E+002  0.1565100E+03  0.7546771E-02  0.1192694E+00
          1   -1    0    0  503    0 -0.00000000000E+00  0.00000000000E+00  0.35826515031E+03  0.35826515031E+03  0.00000000000E+00 0.  1.
         21   -1    0    0  505  502  0.00000000000E+00 -0.00000000000E+00 -0.38547771631E+03  0.38547771631E+03  0.00000000000E+00 0.  1.
         21    1    1    2  503  502  0.98507867851E+02 -0.68631360391E+02 -0.13436906995E+02  0.12080817078E+03  0.00000000000E+00 0.  1.
         21    1    1    2  504  501 -0.90081609984E+02  0.35584158252E+02  0.11224818850E+03  0.14825850599E+03  0.00000000000E+00 0.  1.
         21    1    1    2  505  504  0.44200594710E+02  0.18240191753E+02 -0.29408476707E+03  0.29794671905E+03  0.00000000000E+00 0.  1.
          1    1    1    2  501    0 -0.52626852577E+02  0.14807010386E+02  0.16806091956E+03  0.17672947081E+03  0.00000000000E+00 0.  1.
<scales pt_clust_3="142.67570" pt_clust_4="49.25976" pt_clust_5="47.81629" pt_clust_6="49.25976"></scales>
<clustering>
<clus scale="   47.816">  2  5  1 -1</clus>
<clus scale="   49.260">  4  6 -1 -1</clus>
<clus scale="  142.676">  2  3  1 -1</clus>
<clus scale="   47.816">  2  3  1 -1</clus>
</clustering>
</event>
<event>
 6    0  0.3643696E+002  0.1162659E+03  0.7546771E-02  0.1249387E+00
          1   -1    0    0  504    0 -0.00000000000E+00  0.00000000000E+00  0.11050592275E+04  0.11050592275E+04  0.00000000000E+00 0. -1.
         21   -1    0    0  503  502  0.00000000000E+00 -0.00000000000E+00 -0.24164944699E+02  0.24164944699E+02  0.00000000000E+00 0. -1.
         21    1    1    2  503  501  0.25265522612E+02 -0.44935901669E+02  0.31818157645E+03  0.32233072687E+03  0.00000000000E+00 0. -1.
         21    1    1    2  504  505 -0.77749528078E+02  0.45539546919E+02  0.33629368298E+03  0.34815554090E+03  0.00000000000E+00 0. -1.
         21    1    1    2  505  502 -0.22221634055E+02  0.33149301234E+02  0.20965740723E+02  0.45080366862E+02  0.00000000000E+00 0. -1.
          1    1    1    2  501    0  0.74705639522E+02 -0.33752946484E+02  0.40545328265E+03  0.41365753757E+03  0.00000000000E+00 0. -1.
<scales pt_clust_3="34.06370" pt_clust_4="108.03989" pt_clust_5="39.90836" pt_clust_6="34.06370"></scales>
<clustering>
<clus scale="   34.064">  3  6 -1 -1</clus>
<clus scale="   39.908">  2  5  1 -1</clus>
<clus scale="  108.040">  2  4  1 -1</clus>
<clus scale="   39.908">  2  3  1 -1</clus>
</clustering>
</event>
<event>
 6    0  0.3643696E+002  0.1090310E+03  0.7546771E-02  0.1262375E+00
         21   -1    0    0  501  502  0.00000000000E+00  0.00000000000E+00  0.26151527545E+03  0.26151527545E+03  0.00000000000E+00 0.  1.
          2   -1    0    0  505    0 -0.00000000000E+00 -0.00000000000E+00 -0.14789483194E+04  0.14789483194E+04  0.00000000000E+00 0.  1.
         21    1    1    2  503  504 -0.46354767001E+02  0.33027591489E+02 -0.56082873037E+03  0.56370954492E+03  0.00000000000E+00 0. -1.
         21    1    1    2  504  502  0.10713716104E+03  0.23410624143E+02  0.24151697029E+03  0.26524870506E+03  0.00000000000E+00 0.  1.
         21    1    1    2  505  503 -0.12533401988E+02  0.38238475768E+02 -0.13047791145E+03  0.13654212746E+03  0.00000000000E+00 0. -1.
          2    1    1    2  501    0 -0.48248992051E+02 -0.94676691399E+02 -0.76764337237E+03  0.77496321737E+03  0.00000000000E+00 0.  1.
<scales pt_clust_3="71.15865" pt_clust_4="109.03103" pt_clust_5="40.24012" pt_clust_6="14000.00000"></scales>
<clustering>
<clus scale="   40.240">  2  5  1 -1</clus>
<clus scale="   71.159">  2  3  1 -1</clus>
<clus scale="  109.031">  1  4  2 -1</clus>
<clus scale="  109.031">  1  3  2 -1</clus>
</clustering>
</event>
<event>
 6    0  0.3643696E+002  0.1870643E+03  0.7546771E-02  0.1161136E+00
          2   -1    0    0  505    0 -0.00000000000E+00  0.00000000000E+00  0.67606499862E+03  0.67606499862E+03  0.00000000000E+00 0.  1.
         21   -1    0    0  503  502  0.00000000000E+00 -0.00000000000E+00 -0.12525591717E+04  0.12525591717E+04  0.00000000000E+00 0.  1.
         21    1    1    2  503  501  0.57165259634E+02 -0.18074958154E+02  0.17133961181E+03  0.18152639918E+03  0.00000000000E+00 0.  1.
         21    1    1    2  504  502 -0.16195362491E+03  0.82350442633E+02 -0.12266636130E+04  0.12400460441E+04  0.00000000000E+00 0.  1.
         21    1    1    2  505  504  0.14042733163E+02  0.29408707801E+02  0.58673508559E+02  0.67116697295E+02  0.00000000000E+00 0. -1.
          2    1    1    2  501    0  0.90745632109E+02 -0.93684192280E+02  0.42015631950E+03  0.43993502980E+03  0.00000000000E+00 0.  1.
<scales pt_clust_3="30.16223" pt_clust_4="181.69733" pt_clust_5="32.58942" pt_clust_6="30.16223"></scales>
<clustering>
<clus scale="   30.162">  3  6 -1 -1</clus>
<clus scale="   32.589">  1  5  2 -1</clus>
<clus scale="  181.697">  2  4  1 -1</clus>
<clus scale="  181.697">  2  3  1 -1</clus>
</clustering>
</event>
<event>
 6    0  0.3643696E+002  0.1649515E+03  0.7546771E-02  0.1183217E+00
         21   -1    0    0  503  502  0.00000000000E+00  0.00000000000E+00  0.14113713778E+03  0.14113713778E+03  0.00000000000E+00 0.  1.
          2   -1    0    0  505    0 -0.00000000000E+00 -0.00000000000E+00 -0.11476248857E+04  0.11476248857E+04  0.00000000000E+00 0. -1.
         21    1    1    2  503  504 -0.14768620099E+03 -0.94898646291E+01  0.84602828890E+02  0.17046674206E+03  0.00000000000E+00 0.  1.
         21    1    1    2  504  501  0.45538989544E+02 -0.16277818683E+02 -0.13331410496E+03  0.14181472960E+03  0.00000000000E+00 0. -1.
         21    1    1    2  505  502 -0.36779744179E+02  0.22509671253E+02 -0.12597399297E+03  0.13314984712E+03  0.00000000000E+00 0. -1.
          2    1    1    2  501    0  0.13892695562E+03  0.32580120589E+01 -0.83180247891E+03  0.84333070474E+03  0.00000000000E+00 0. -1.
<scales pt_clust_3="149.48140" pt_clust_4="41.14378" pt_clust_5="43.12117" pt_clust_6="41.14378"></scales>
<clustering>
<clus scale="   41.144">  4  6 -1 -1</clus>
<clus scale="   43.121">  2  5  1 -1</clus>
<clus scale="  149.481">  1  3  2 -1</clus>
<clus scale="  149.481">  1  3  2 -1</clus>
</clustering>
</event>
<event>
 6    0  0.3643696E+002  0.1021790E+03  0.7546771E-02  0.1275779E+00
          1   -1    0    0  505    0 -0.00000000000E+00  0.00000000000E+00  0.67730953507E+03  0.67730953507E+03  0.00000000000E+00 0. -1.
         21   -1    0    0  501  502  0.00000000000E+00 -0.00000000000E+00 -0.72394445898E+03  0.72394445898E+03  0.00000000000E+00 0. -1.
         21    1    1    2  503  504  0.11744967532E+03  0.28165966939E+02  0.10324410559E+02  0.12122021852E+03  0.00000000000E+00 0. -1.
         21    1    1    2  504  502 -0.15154612919E+02 -0.34079866253E+02 -0.65618961544E+03  0.65724874362E+03  0.00000000000E+00 0. -1.
         21    1    1    2  505  503 -0.30802777747E+02  0.20400088116E+02  0.26594489202E+02  0.45521880102E+02  0.00000000000E+00 0.  1.
          1    1    1    2  501    0 -0.71492284649E+02 -0.14486188802E+02  0.57263579177E+03  0.57726315181E+03  0.00000000000E+00 0. -1.
<scales pt_clust_3="102.17903" pt_clust_4="37.29240" pt_clust_5="36.94556" pt_clust_6="14000.00000"></scales>
<clustering>
<clus scale="   36.946">  1  5  2 -1</clus>
<clus scale="   37.292">  2  4  1 -1</clus>
<clus scale="  102.179">  2  3  1 -1</clus>
<clus scale="   37.292">  2  3  1 -1</clus>
</clustering>
</event>
<event>
 6    0  0.3643696E+002  0.1385182E+03  0.7546771E-02  0.1215337E+00
         -3   -1    0    0    0  501 -0.00000000000E+00  0.00000000000E+00  0.45705880100E+02  0.45705880100E+02  0.00000000000E+00 0.  1.
         21   -1    0    0  503  502  0.00000000000E+00 -0.00000000000E+00 -0.13103011845E+04  0.13103011845E+04  0.00000000000E+00 0. -1.
         21    1    1    2  503  505  0.13194280485E+03  0.22359091882E+02 -0.88528057970E+03  0.89533822522E+03  0.00000000000E+00 0. -1.
         21    1    1    2  504  501  0.28083568002E+02 -0.30952496813E+02 -0.56421277431E+02  0.70214702148E+02  0.00000000000E+00 0. -1.
         21    1    1    2  505  504  0.11021895602E+01  0.48009420870E+02 -0.11405866660E+03  0.12375580285E+03  0.00000000000E+00 0. -1.
         -3    1    1    2    0  502 -0.16112856241E+03 -0.39416015939E+02 -0.20883478063E+03  0.26669833434E+03  0.00000000000E+00 0.  1.
<scales pt_clust_3="138.51820" pt_clust_4="41.79406" pt_clust_5="44.38256" pt_clust_6="14000.00000"></scales>
<clustering>
<clus scale="   41.794">  1  4  2 -1</clus>
<clus scale="   44.383">  1  5  2 -1</clus>
<clus scale="  138.518">  2  3  1 -1</clus>
<clus scale="  138.518">  2  3  1 -1</clus>
</clustering>
</event>
<event>
 6    0  0.3643696E+002  0.1006700E+03  0.7546771E-02  0.1278893E+00
          1   -1    0    0  504    0 -0.00000000000E+00  0.00000000000E+00  0.53117392807E+03  0.53117392807E+03  0.00000000000E+00 0. -1.
         21   -1    0    0  505  502  0.00000000000E+00 -0.00000000000E+00 -0.45020244528E+03  0.45020244528E+03  0.00000000000E+00 0. -1.
         21    1    1    2  503  502  0.59119564624E+02  0.43517362501E+02 -0.39721394243E+03  0.40394034191E+03  0.00000000000E+00 0. -1.
         21    1    1    2  504  503  0.35312378496E+02 -0.13363075696E+03  0.12443592992E+03  0.18597968689E+03  0.00000000000E+00 0. -1.
         21    1    1    2  505  501 -0.54989102292E+02  0.57008136778E+02  0.78806642735E+02  0.11173278824E+03  0.00000000000E+00 0. -1.
          1    1    1    2  501    0 -0.39442840828E+02  0.33105257682E+02  0.27494285257E+03  0.27972355632E+03  0.00000000000E+00 0. -1.
<scales pt_clust_3="73.25117" pt_clust_4="14000.00000" pt_clust_5="100.67004" pt_clust_6="51.49462"></scales>
<clustering>
<clus scale="   51.495">  1  6  2 -1</clus>
<clus scale="   73.251">  2  3  1 -1</clus>
<clus scale="  100.670">  2  5  1 -1</clus>
<clus scale="   73.251">  2  3  1 -1</clus>
</clustering>
</event>
<event>
 6    0  0.3643696E+002  0.1052916E+03  0.7546771E-02  0.1269546E+00
         21   -1    0    0  504  502  0.00000000000E+00  0.00000000000E+00  0.39119172055E+03  0.39119172055E+03  0.00000000000E+00 0. -1.
          4   -1    0    0  503    0 -0.00000000000E+00 -0.00000000000E+00 -0.83741719709E+03  0.83741719709E+03  0.00000000000E+00 0.  1.
         21    1    1    2  503  505  0.77649342609E+01  0.31577435621E+02 -0.80380289902E+02  0.86708821058E+02  0.00000000000E+00 0.  1.
         21    1    1    2  504  501  0.65985968850E+02  0.82310188253E+02  0.36735747880E+03  0.38220496126E+03  0.00000000000E+00 0. -1.
         21    1    1    2  505  502 -0.24762507322E+02 -0.42371868280E+02 -0.46714128626E+02  0.67755197614E+02  0.00000000000E+00 0. -1.
          4    1    1    2  501    0 -0.48988395788E+02 -0.71515755593E+02 -0.68648853682E+03  0.69193993771E+03  0.00000000000E+00 0.  1.
<scales pt_clust_3="32.51813" pt_clust_4="14000.00000" pt_clust_5="46.71501" pt_clust_6="105.29160"></scales>
<clustering>
<clus scale="   32.518">  2  3  1 -1</clus>
<clus scale="   46.715">  2  5  1 -1</clus>
<clus scale="  105.292">  2  6  1 -1</clus>
<clus scale="  105.292">  1  3  2 -1</clus>
</clustering>
</event>
<event>
 6    0  0.3643696E+002  0.8468428E+02  0.7546771E-02  0.1316260E+00
          1   -1    0    0  505    0 -0.00000000000E+00  0.00000000000E+00  0.32187210605E+04  0.32187210605E+04  0.00000000000E+00 0. -1.
         21   -1    0    0  504  502  0.00000000000E+00 -0.00000000000E+00 -0.20629317040E+02  0.20629317040E+02  0.00000000000E+00 0. -1.
         21    1    1    2  503  502 -0.83347607519E+02 -0.26560978467E+02  0.87429542819E+02  0.12367794554E+03  0.00000000000E+00 0. -1.
         21    1    1    2  504  501  0.38856361151E+02  0.54503276454E+02  0.11444501956E+04  0.11464059814E+04  0.00000000000E+00 0. -1.
         21    1    1    2  505  503 -0.13043009808E+02 -0.36345542190E+02  0.37293456578E+03  0.37492840503E+03  0.00000000000E+00 0. -1.
          1    1    1    2  501    0  0.57534256176E+02  0.84032442037E+01  0.15932774392E+04  0.15943380455E+04  0.00000000000E+00 0. -1.
<scales pt_clust_3="84.68428" pt_clust_4="14000.00000" pt_clust_5="38.61500" pt_clust_6="51.63106"></scales>
<clustering>
<clus scale="   38.615">  1  5  2 -1</clus>
<clus scale="   51.631">  1  6  2 -1</clus>
<clus scale="   84.684">  2  3  1 -1</clus>
<clus scale="   84.684">  2  3  1 -1</clus>
</clustering>
</event>
<event>
 6    0  0.3643696E+002  0.1674983E+03  0.7546771E-02  0.1180482E+00
         -1   -1    0    0    0  501 -0.00000000000E+00  0.00000000000E+00  0.69114513347E+03  0.69114513347E+03  0.00000000000E+00 0.  1.
         21   -1    0    0  504  502  0.00000000000E+00 -0.00000000000E+00 -0.24656891396E+03  0.24656891396E+03  0.00000000000E+00 0. -1.
         21    1    1    2  503  505 -0.43215356370E+02  0.22827553740E+02  0.67948983167E+02  0.83700230283E+02  0.00000000000E+00 0. -1.
         21    1    1    2  504  503  0.17226999138E+03 -0.72983291296E+01 -0.19389545930E+03  0.25947189573E+03  0.00000000000E+00 0. -1.
         21    1    1    2  505  501 -0.19672135717E+02  0.39213696532E+02  0.18237666719E+03  0.18757919835E+03  0.00000000000E+00 0. -1.
         -1    1    1    2    0  502 -0.10938249929E+03 -0.54742921142E+02  0.38814602845E+03  0.40696272307E+03  0.00000000000E+00 0.  1.
<scales pt_clust_3="54.35761" pt_clust_4="14000.00000" pt_clust_5="43.87148" pt_clust_6="167.49827"></scales>
<clustering>
<clus scale="   43.871">  1  5  2 -1</clus>
<clus scale="   54.358">  1  3  2 -1</clus>
<clus scale="  167.498">  1  6  2 -1</clus>
<clus scale="  167.498">  2  3  1 -1</clus>
</clustering>
</event>
<event>
 6    0  0.3643696E+002  0.2840135E+03  0.7546771E-02  0.1093517E+00
         21   -1    0    0  505  502  0.00000000000E+00  0.00000000000E+00  0.43875415247E+03  0.43875415247E+03  0.00000000000E+00 0. -1.
          2   -1    0    0  504    0 -0.00000000000E+00 -0.00000000000E+00 -0.29947038537E+04  0.29947038537E+04  0.00000000000E+00 0. -1.
         21    1    1    2  503  502 -0.15695473393E+03 -0.88124292223E+02 -0.77092376163E+03  0.79165909686E+03  0.00000000000E+00 0. -1.
         21    1    1    2  504  503 -0.29368112576E+02 -0.30914648520E+02 -0.40907458195E+03  0.41129091301E+03  0.00000000000E+00 0. -1.
         21    1    1    2  505  501  0.27242273415E+03  0.45658508795E+02  0.38062550403E+03  0.47029205801E+03  0.00000000000E+00 0. -1.
          2    1    1    2  501    0 -0.86099887638E+02  0.73380431947E+02 -0.17565768617E+04  0.17602159383E+04  0.00000000000E+00 0. -1.
<scales pt_clust_3="37.08656" pt_clust_4="37.08656" pt_clust_5="273.60098" pt_clust_6="113.12771"></scales>
<clustering>
<clus scale="   37.087">  3  4 -1 -1</clus>
<clus scale="  113.128">  2  6  1 -1</clus>
<clus scale="  273.601">  1  5  2 -1</clus>
<clus scale="  273.601">  1  3  2 -1</clus>
</clustering>
</event>
<event>
 6    0  0.3643696E+002  0.1502883E+03  0.7546771E-02  0.1200119E+00
          2   -1    0    0  504    0 -0.00000000000E+00  0.00000000000E+00  0.87669464633E+03  0.87669464633E+03  0.00000000000E+00 0.  1.
         21   -1    0    0  505  502  0.00000000000E+00 -0.00000000000E+00 -0.96292937893E+02  0.96292937893E+02  0.00000000000E+00 0. -1.
         21    1    1    2  503  501  0.47448952045E+02 -0.12494617675E+01  0.19156937243E+03  0.19736207503E+03  0.00000000000E+00 0.  1.
         21    1    1    2  504  502 -0.41089748359E+02  0.10180789622E+01  0.30878199517E+02  0.51408823274E+02  0.00000000000E+00 0. -1.
         21    1    1    2  505  503 -0.76787928076E+02  0.76081771412E+02 -0.41576803569E+02  0.11581646012E+03  0.00000000000E+00 0. -1.
          2    1    1    2  501    0  0.70428724391E+02 -0.75850388607E+02  0.59953094006E+03  0.60840022580E+03  0.00000000000E+00 0.  1.
<scales pt_clust_3="40.48198" pt_clust_4="41.10236" pt_clust_5="137.88734" pt_clust_6="40.48198"></scales>
<clustering>
<clus scale="   40.482">  3  6 -1 -1</clus>
<clus scale="   41.102">  2  4  1 -1</clus>
<clus scale="  137.887">  2  5  1 -1</clus>
<clus scale="   41.102">  2  3  1 -1</clus>
</clustering>
</event>
<event>
 6    0  0.3643696E+002  0.2782769E+03  0.7546771E-02  0.1096634E+00
          2   -1    0    0  504    0 -0.00000000000E+00  0.00000000000E+00  0.20078579048E+04  0.20078579048E+04  0.00000000000E+00 0. -1.
         21   -1    0    0  503  502  0.00000000000E+00 -0.00000000000E+00 -0.20815372453E+03  0.20815372453E+03  0.00000000000E+00 0. -1.
         21    1    1    2  503  505 -0.79656032701E+02 -0.13507399866E+02 -0.11734884555E+03  0.14247204971E+03  0.00000000000E+00 0. -1.
         21    1    1    2  504  502 -0.10236717611E+02  0.63749493579E+02  0.18830768638E+03  0.19906926702E+03  0.00000000000E+00 0. -1.
         21    1    1    2  505  501 -0.21589284671E+03 -0.13497862049E+02  0.14350136097E+03  0.25958535040E+03  0.00000000000E+00 0. -1.
          2    1    1    2  501    0  0.30578559702E+03 -0.36744231664E+02  0.15852439785E+04  0.16148849622E+04  0.00000000000E+00 0. -1.
<scales pt_clust_3="80.79047" pt_clust_4="64.56615" pt_clust_5="14000.00000" pt_clust_6="278.27692"></scales>
<clustering>
<clus scale="   64.566">  1  4  2 -1</clus>
<clus scale="   80.790">  2  3  1 -1</clus>
<clus scale="  278.277">  1  6  2 -1</clus>
<clus scale="   80.790">  2  3  1 -1</clus>
</clustering>
</event>
<event>
 6    0  0.3643696E+002  0.1242360E+03  0.7546771E-02  0.1236268E+00
          2   -1    0    0  504    0 -0.00000000000E+00  0.00000000000E+00  0.13411990710E+04  0.13411990710E+04  0.00000000000E+00 0.  1.
         21   -1    0    0  503  502  0.00000000000E+00 -0.00000000000E+00 -0.63165244128E+02  0.63165244128E+02  0.00000000000E+00 0. -1.
         21    1    1    2  503  501 -0.42726320870E+01  0.42723774918E+02 -0.26850501596E+02  0.50641146947E+02  0.00000000000E+00 0. -1.
         21    1    1    2  504  505 -0.11239172125E+03 -0.21248099424E+02  0.42318898431E+03  0.43837460827E+03  0.00000000000E+00 0.  1.
         21    1    1    2  505  502  0.12130297657E+03  0.42494766495E+02  0.25679438399E+03  0.28716471398E+03  0.00000000000E+00 0. -1.
          2    1    1    2  501    0 -0.46386232390E+01 -0.63970441989E+02  0.62490096020E+03  0.62818384597E+03  0.00000000000E+00 0.  1.
<scales pt_clust_3="42.93689" pt_clust_4="124.23604" pt_clust_5="14000.00000" pt_clust_6="61.29684"></scales>
<clustering>
<clus scale="   42.937">  2  3  1 -1</clus>
<clus scale="   61.297">  1  6  2 -1</clus>
<clus scale="  124.236">  1  4  2 -1</clus>
<clus scale="   42.937">  2  3  1 -1</clus>
</clustering>
</event>
<event>
 6    0  0.3643696E+002  0.8376970E+02  0.7546771E-02  0.1318682E+00
         -4   -1    0    0    0  501 -0.00000000000E+00  0.00000000000E+00  0.23250723517E+03  0.23250723517E+03  0.00000000000E+00 0. -1.
         21   -1    0    0  504  502  0.00000000000E+00 -0.00000000000E+00 -0.49933044226E+03  0.49933044226E+03  0.00000000000E+00 0.  1.
         21    1    1    2  503  501  0.49795012616E+01  0.30551012155E+02 -0.12430668448E+01  0.30979105727E+02  0.00000000000E+00 0. -1.
         21    1    1    2  504  503 -0.43844454214E+02  0.43177456208E+02  0.19069564858E+03  0.20037829044E+03  0.00000000000E+00 0. -1.
         21    1    1    2  505  502 -0.71130380517E+02 -0.39937079266E+01 -0.21206167290E+03  0.22370881487E+03  0.00000000000E+00 0.  1.
         -4    1    1    2    0  505  0.10999533347E+03 -0.69734760436E+02 -0.24421411592E+03  0.27677146640E+03  0.00000000000E+00 0. -1.
<scales pt_clust_3="30.95416" pt_clust_4="83.76970" pt_clust_5="71.06815" pt_clust_6="14000.00000"></scales>
<clustering>
<clus scale="   30.954">  1  3  2 -1</clus>
<clus scale="   71.068">  2  5  1 -1</clus>
<clus scale="   83.770">  1  4  2 -1</clus>
<clus scale="   71.068">  2  3  1 -1</clus>
</clustering>
</event>
<event>
 6    0  0.3643696E+002  0.1468251E+03  0.7546771E-02  0.1204429E+00
         21   -1    0    0  504  502  0.00000000000E+00  0.00000000000E+00  0.38574411562E+02  0.38574411562E+02  0.00000000000E+00 0.  1.
          2   -1    0    0  505    0 -0.00000000000E+00 -0.00000000000E+00 -0.20423225109E+04  0.20423225109E+04  0.00000000000E+00 0.  1.
         21    1    1    2  503  502  0.22712644389E+03  0.20957993344E+02 -0.60976167373E+03  0.65102608070E+03  0.00000000000E+00 0.  1.
         21    1    1    2  504  501 -0.11256838355E+03  0.20988052182E+02 -0.29161669057E+03  0.31329288777E+03  0.00000000000E+00 0.  1.
         21    1    1    2  505  503 -0.95582099558E+01  0.41916316085E+02 -0.24580958867E+03  0.24954096019E+03  0.00000000000E+00 0.  1.
          2    1    1    2  501    0 -0.10499985038E+03 -0.83862361611E+02 -0.85656014637E+03  0.86703699381E+03  0.00000000000E+00 0.  1.
<scales pt_clust_3="146.82513" pt_clust_4="117.57478" pt_clust_5="42.99229" pt_clust_6="14000.00000"></scales>
<clustering>
<clus scale="   42.992">  2  5  1 -1</clus>
<clus scale="  117.575">  1  4  2 -1</clus>
<clus scale="  146.825">  1  3  2 -1</clus>
<clus scale="  117.575">  1  3  2 -1</clus>
</clustering>
</event>
<event>
 6    0  0.3643696E+002  0.8826881E+02  0.7546771E-02  0.1307099E+00
         21   -1    0    0  505  502  0.00000000000E+00  0.00000000000E+00  0.46307184332E+02  0.46307184332E+02  0.00000000000E+00 0.  1.
          1   -1    0    0  504    0 -0.00000000000E+00 -0.00000000000E+00 -0.98773043439E+03  0.98773043439E+03  0.00000000000E+00 0.  1.
         21    1    1    2  503  502 -0.60039059556E+02 -0.30443549242E+02 -0.43051734169E+02  0.79905883249E+02  0.00000000000E+00 0.  1.
         21    1    1    2  504  503  0.82031543443E+02  0.84307865088E+02 -0.72330800207E+03  0.73281065500E+03  0.00000000000E+00 0.  1.
         21    1    1    2  505  501  0.11570615053E+02 -0.47815280099E+02 -0.68318220268E+01  0.49667433353E+02  0.00000000000E+00 0.  1.
          1    1    1    2  501    0 -0.33563098940E+02 -0.60490357468E+01 -0.16823169180E+03  0.17165364712E+03  0.00000000000E+00 0.  1.
<scales pt_clust_3="88.26881" pt_clust_4="14000.00000" pt_clust_5="49.13981" pt_clust_6="34.10385"></scales>
<clustering>
<clus scale="   34.104">  2  6  1 -1</clus>
<clus scale="   49.140">  1  5  2 -1</clus>
<clus scale="   88.269">  1  3  2 -1</clus>
<clus scale="   49.140">  1  3  2 -1</clus>
</clustering>
</event>
<event>
 6    0  0.3643696E+002  0.8497561E+02  0.7546771E-02  0.1315496E+00
         21   -1    0    0  503  502  0.00000000000E+00  0.00000000000E+00  0.87455312502E+03  0.87455312502E+03  0.00000000000E+00 0.  1.
          2   -1    0    0  504    0 -0.00000000000E+00 -0.00000000000E+00 -0.43382147311E+03  0.43382147311E+03  0.00000000000E+00 0. -1.
         21    1    1    2  503  501 -0.71861075262E+01  0.10929466585E+03 -0.45626834453E+01  0.10962564575E+03  0.00000000000E+00 0.  1.
         21    1    1    2  504  505  0.54068989300E+02 -0.42259719533E+02 -0.33637729904E+02  0.76425364716E+02  0.00000000000E+00 0.  1.
         21    1    1    2  505  502  0.26442157353E+02 -0.18624153619E+02  0.79429299397E+03  0.79495119791E+03  0.00000000000E+00 0.  1.
          2    1    1    2  501    0 -0.73325039126E+02 -0.48410792702E+02 -0.31536092872E+03  0.32737238975E+03  0.00000000000E+00 0. -1.
<scales pt_clust_3="84.97561" pt_clust_4="77.27172" pt_clust_5="32.34265" pt_clust_6="14000.00000"></scales>
<clustering>
<clus scale="   32.343">  1  5  2 -1</clus>
<clus scale="   77.272">  1  4  2 -1</clus>
<clus scale="   84.976">  1  3  2 -1</clus>
<clus scale="   32.343">  1  3  2 -1</clus>
</clustering>
</event>
<event>
 6    0  0.3643696E+002  0.7653363E+02  0.7546771E-02  0.1339187E+00
         21   -1    0    0  503  502  0.00000000000E+00  0.00000000000E+00  0.16420072740E+03  0.16420072740E+03  0.00000000000E+00 0.  1.
          1   -1    0    0  504    0 -0.00000000000E+00 -0.00000000000E+00 -0.12175778315E+04  0.12175778315E+04  0.00000000000E+00 0. -1.
         21    1    1    2  503  505 -0.66022893444E+02 -0.39217804420E+02  0.14667511146E+03  0.16556161078E+03  0.00000000000E+00 0.  1.
         21    1    1    2  504  502 -0.49132214940E+02  0.16944403649E+02 -0.18134169344E+03  0.18864224643E+03  0.00000000000E+00 0. -1.
         21    1    1    2  505  501  0.50160192958E+02  0.42124635637E+02 -0.43119608883E+03  0.43614286295E+03  0.00000000000E+00 0.  1.
          1    1    1    2  501    0  0.64994915426E+02 -0.19851234867E+02 -0.58751443331E+03  0.59143183876E+03  0.00000000000E+00 0. -1.
<scales pt_clust_3="14000.00000" pt_clust_4="51.97199" pt_clust_5="76.53363" pt_clust_6="38.32308"></scales>
<clustering>
<clus scale="   51.972">  2  4  1 -1</clus>
<clus scale="   38.323">  2  6  1 -1</clus>
<clus scale="   76.534">  2  5  1 -1</clus>
<clus scale="   76.534">  1  3  2 -1</clus>
</clustering>
</event>
<event>
 6    0  0.3643696E+002  0.1262904E+03  0.7546771E-02  0.1233066E+00
          2   -1    0    0  505    0 -0.00000000000E+00  0.00000000000E+00  0.42730818273E+04  0.42730818273E+04  0.00000000000E+00 0. -1.
         21   -1    0    0  504  502  0.00000000000E+00 -0.00000000000E+00 -0.13725038113E+02  0.13725038113E+02  0.00000000000E+00 0. -1.
         21    1    1    2  503  501  0.45153442554E+02  0.16895599409E+02  0.64920386923E+03  0.65099151952E+03  0.00000000000E+00 0. -1.
         21    1    1    2  504  503 -0.48437813003E+02 -0.36215426200E+01  0.47572950730E+02  0.67989138402E+02  0.00000000000E+00 0. -1.
         21    1    1    2  505  502 -0.35191587808E+02 -0.94983638613E+02  0.16388756157E+04  0.16420029303E+04  0.00000000000E+00 0. -1.
          2    1    1    2  501    0  0.38475958257E+02  0.81709581824E+02  0.19237043535E+04  0.19258232772E+04  0.00000000000E+00 0. -1.
<scales pt_clust_3="42.60789" pt_clust_4="48.57301" pt_clust_5="112.01945" pt_clust_6="42.60789"></scales>
<clustering>
<clus scale="   42.608">  3  6 -1 -1</clus>
<clus scale="   48.573">  2  4  1 -1</clus>
<clus scale="  112.019">  1  5  2 -1</clus>
<clus scale="   48.573">  2  3  1 -1</clus>
</clustering>
</event>
<event>
 6    0  0.3643696E+002  0.1841617E+03  0.7546771E-02  0.1163835E+00
         21   -1    0    0  505  502  0.00000000000E+00  0.00000000000E+00  0.26315072450E+04  0.26315072450E+04  0.00000000000E+00 0. -1.
          2   -1    0    0  502    0 -0.00000000000E+00 -0.00000000000E+00 -0.43141194734E+03  0.43141194734E+03  0.00000000000E+00 0.  1.
         21    1    1    2  503  504 -0.49019147295E+02 -0.17863017948E+03  0.21965025583E+03  0.28732882332E+03  0.00000000000E+00 0. -1.
         21    1    1    2  504  501  0.44347107249E+02  0.37762893946E+02 -0.10424451102E+03  0.11941365147E+03  0.00000000000E+00 0.  1.
         21    1    1    2  505  503 -0.36318467742E+02  0.22666604483E+02  0.23565356232E+04  0.23569244684E+04  0.00000000000E+00 0. -1.
          2    1    1    2  501    0  0.40990507788E+02  0.11820068105E+03 -0.27184607031E+03  0.29925224924E+03  0.00000000000E+00 0.  1.
<scales pt_clust_3="178.00471" pt_clust_4="32.22077" pt_clust_5="42.81128" pt_clust_6="32.22077"></scales>
<clustering>
<clus scale="   32.221">  4  6 -1 -1</clus>
<clus scale="   42.811">  1  5  2 -1</clus>
<clus scale="  178.005">  1  3  2 -1</clus>
<clus scale="   42.811">  1  3  2 -1</clus>
</clustering>
</event>
<event>
 6    0  0.3643696E+002  0.7105653E+02  0.7546771E-02  0.1356537E+00
         21   -1    0    0  503  502  0.00000000000E+00  0.00000000000E+00  0.19579317532E+03  0.19579317532E+03  0.00000000000E+00 0. -1.
          2   -1    0    0  505    0 -0.00000000000E+00 -0.00000000000E+00 -0.21375395192E+04  0.21375395192E+04  0.00000000000E+00 0.  1.
         21    1    1    2  503  501  0.54173466989E+02 -0.45707517939E+02  0.18008514910E+03  0.19353191635E+03  0.00000000000E+00 0. -1.
         21    1    1    2  504  502  0.64509408805E+02  0.21742230322E+02 -0.12109650103E+04  0.12128769288E+04  0.00000000000E+00 0.  1.
         21    1    1    2  505  504 -0.37836796479E+02 -0.24018389544E+02 -0.88496143041E+02  0.99197144804E+02  0.00000000000E+00 0. -1.
          2    1    1    2  501    0 -0.80846079316E+02  0.47983677161E+02 -0.82237033966E+03  0.82772670451E+03  0.00000000000E+00 0.  1.
<scales pt_clust_3="14000.00000" pt_clust_4="42.73511" pt_clust_5="44.81636" pt_clust_6="71.05653"></scales>
<clustering>
<clus scale="   44.816">  2  5  1 -1</clus>
<clus scale="   42.735">  2  4  1 -1</clus>
<clus scale="   71.057">  2  6  1 -1</clus>
<clus scale="   71.057">  1  3  2 -1</clus>
</clustering>
</event>
<event>
 6    0  0.3643696E+002  0.1103530E+03  0.7546771E-02  0.1259918E+00
          1   -1    0    0  504    0 -0.00000000000E+00  0.00000000000E+00  0.26502474753E+03  0.26502474753E+03  0.00000000000E+00 0. -1.
         21   -1    0    0  505  502  0.00000000000E+00 -0.00000000000E+00 -0.86429832852E+03  0.86429832852E+03  0.00000000000E+00 0. -1.
         21    1    1    2  503  501 -0.61389869196E+02 -0.41395263646E+02  0.11979473336E+03  0.14082990461E+03  0.00000000000E+00 0. -1.
         21    1    1    2  504  502  0.63727344579E+02 -0.15330169264E+01 -0.80620051789E+03  0.80871676107E+03  0.00000000000E+00 0. -1.
         21    1    1    2  505  503  0.16469282260E+00  0.87432946054E+02  0.65386000240E+01  0.87677251723E+02  0.00000000000E+00 0.  1.
          1    1    1    2  501    0 -0.25021682059E+01 -0.44504665482E+02  0.80593603516E+02  0.92099158645E+02  0.00000000000E+00 0. -1.
<scales pt_clust_3="39.86242" pt_clust_4="63.74578" pt_clust_5="97.66428" pt_clust_6="39.86242"></scales>
<clustering>
<clus scale="   39.862">  3  6 -1 -1</clus>
<clus scale="   63.746">  2  4  1 -1</clus>
<clus scale="   97.664">  2  5  1 -1</clus>
<clus scale="   63.746">  2  3  1 -1</clus>
</clustering>
</event>
<event>
 6    0  0.3643696E+002  0.2464435E+03  0.7546771E-02  0.1115573E+00
          2   -1    0    0  505    0 -0.00000000000E+00  0.00000000000E+00  0.17343145701E+04  0.17343145701E+04  0.00000000000E+00 0. -1.
         21   -1    0    0  501  502  0.00000000000E+00 -0.00000000000E+00 -0.17822262569E+03  0.17822262569E+03  0.00000000000E+00 0. -1.
         21    1    1    2  503  502 -0.75803083703E+02 -0.88193208463E+02 -0.94823781946E+02  0.15005232134E+03  0.00000000000E+00 0. -1.
         21    1    1    2  504  503 -0.91993252668E+02  0.15660729645E+01  0.85621354843E+02  0.12568304391E+03  0.00000000000E+00 0. -1.
         21    1    1    2  505  504 -0.83451632657E+02  0.71800950813E+02  0.95878347689E+02  0.14598701684E+03  0.00000000000E+00 0. -1.
          2    1    1    2  501    0  0.25124796903E+03  0.14826184686E+02  0.14694160238E+04  0.14908148137E+04  0.00000000000E+00 0. -1.
<scales pt_clust_3="116.29338" pt_clust_4="62.66625" pt_clust_5="62.66625" pt_clust_6="236.71827"></scales>
<clustering>
<clus scale="   62.666">  4  5 -1 -1</clus>
<clus scale="  116.293">  2  3  1 -1</clus>
<clus scale="  236.718">  1  6  2 -1</clus>
<clus scale="  116.293">  2  3  1 -1</clus>
</clustering>
</event>
<event>
 6    0  0.3643696E+002  0.1195058E+03  0.7546771E-02  0.1243915E+00
          1   -1    0    0  503    0 -0.00000000000E+00  0.00000000000E+00  0.21498407339E+04  0.21498407339E+04  0.00000000000E+00 0.  1.
         21   -1    0    0  505  502  0.00000000000E+00 -0.00000000000E+00 -0.43198942923E+03  0.43198942923E+03  0.00000000000E+00 0.  1.
         21    1    1    2  503  504  0.21970967579E+02  0.27972492244E+02  0.78413823362E+02  0.86104073266E+02  0.00000000000E+00 0.  1.
         21    1    1    2  504  502  0.35816378496E+02 -0.21437655962E+02  0.17150327754E+03  0.17650994382E+03  0.00000000000E+00 0. -1.
         21    1    1    2  505  501 -0.74898656786E+02  0.93299957255E+02 -0.41584567002E+03  0.43271504722E+03  0.00000000000E+00 0.  1.
          1    1    1    2  501    0  0.17111310710E+02 -0.99834793538E+02  0.18837798738E+04  0.18865010988E+04  0.00000000000E+00 0.  1.
<scales pt_clust_3="35.56942" pt_clust_4="42.22400" pt_clust_5="119.50578" pt_clust_6="14000.00000"></scales>
<clustering>
<clus scale="   35.569">  1  3  2 -1</clus>
<clus scale="   42.224">  1  4  2 -1</clus>
<clus scale="  119.506">  2  5  1 -1</clus>
<clus scale="  119.506">  2  3  1 -1</clus>
</clustering>
</event>
<event>
 6    0  0.3643696E+002  0.6725235E+02  0.7546771E-02  0.1369694E+00
          2   -1    0    0  503    0 -0.00000000000E+00  0.00000000000E+00  0.10302110888E+04  0.10302110888E+04  0.00000000000E+00 0.  1.
         21   -1    0    0  505  502  0.00000000000E+00 -0.00000000000E+00 -0.10580450784E+03  0.10580450784E+03  0.00000000000E+00 0.  1.
         21    1    1    2  503  504 -0.57840639006E+02  0.39446726596E+02  0.80891506262E+03  0.81193913706E+03  0.00000000000E+00 0.  1.
         21    1    1    2  504  502  0.25230057101E+02  0.50255494310E+02  0.88213751514E+02  0.10461279294E+03  0.00000000000E+00 0.  1.
         21    1    1    2  505  501  0.52689690160E+02 -0.35406210835E+01 -0.70186463125E+02  0.87834384228E+02  0.00000000000E+00 0.  1.
          2    1    1    2  501    0 -0.20079108255E+02 -0.86161599823E+02  0.97464229974E+02  0.13162928244E+03  0.00000000000E+00 0.  1.
<scales pt_clust_3="67.25235" pt_clust_4="64.24991" pt_clust_5="52.80852" pt_clust_6="14000.00000"></scales>
<clustering>
<clus scale="   52.809">  2  5  1 -1</clus>
<clus scale="   64.250">  2  4  1 -1</clus>
<clus scale="   67.252">  1  3  2 -1</clus>
<clus scale="   52.809">  2  3  1 -1</clus>
</clustering>
</event>
<event>
 6    0  0.3643696E+002  0.9596940E+02  0.7546771E-02  0.1289008E+00
         21   -1    0    0  503  502  0.00000000000E+00  0.00000000000E+00  0.26319790421E+03  0.26319790421E+03  0.00000000000E+00 0. -1.
         -4   -1    0    0    0  501 -0.00000000000E+00 -0.00000000000E+00 -0.34152188769E+03  0.34152188769E+03  0.00000000000E+00 0.  1.
         21    1    1    2  503  505 -0.94087073304E+02 -0.24065085993E+02  0.21178698023E+03  0.23299191128E+03  0.00000000000E+00 0. -1.
         21    1    1    2  504  501  0.20491892886E+02 -0.44672121566E+02 -0.11652555556E+03  0.12646628491E+03  0.00000000000E+00 0.  1.
         21    1    1    2  505  504 -0.64889975449E+00  0.52420134980E+02  0.35095057935E+01  0.52541490777E+02  0.00000000000E+00 0.  1.
         -4    1    1    2    0  502  0.74244080173E+02  0.16317072580E+02 -0.17709491395E+03  0.19272010493E+03  0.00000000000E+00 0.  1.
<scales pt_clust_3="14000.00000" pt_clust_4="49.14790" pt_clust_5="47.47077" pt_clust_6="95.96940"></scales>
<clustering>
<clus scale="   49.148">  2  4  1 -1</clus>
<clus scale="   47.471">  2  5  1 -1</clus>
<clus scale="   95.969">  2  6  1 -1</clus>
<clus scale="   95.969">  1  3  2 -1</clus>
</clustering>
</event>
<event>
 6    0  0.3643696E+002  0.1491414E+03  0.7546771E-02  0.1201532E+00
          2   -1    0    0  504    0 -0.00000000000E+00  0.00000000000E+00  0.64232279266E+03  0.64232279266E+03  0.00000000000E+00 0. -1.
         21   -1    0    0  503  502  0.00000000000E+00 -0.00000000000E+00 -0.36375436088E+03  0.36375436088E+03  0.00000000000E+00 0. -1.
         21    1    1    2  503  505  0.45140332835E+02  0.66972169718E+02 -0.28933157583E+03  0.30039254641E+03  0.00000000000E+00 0. -1.
         21    1    1    2  504  502  0.53117073171E+02 -0.19637608700E+02  0.27042310392E+02  0.62756240240E+02  0.00000000000E+00 0.  1.
         21    1    1    2  505  501  0.58294395575E+02  0.83967078938E+02  0.55495806569E+02  0.11631204343E+03  0.00000000000E+00 0. -1.
          2    1    1    2  501    0 -0.15655180158E+03 -0.13130163996E+03  0.48536189066E+03  0.52661632346E+03  0.00000000000E+00 0. -1.
<scales pt_clust_3="80.89029" pt_clust_4="56.63090" pt_clust_5="14000.00000" pt_clust_6="149.14137"></scales>
<clustering>
<clus scale="   56.631">  1  4  2 -1</clus>
<clus scale="   80.890">  2  3  1 -1</clus>
<clus scale="  149.141">  1  6  2 -1</clus>
<clus scale="   80.890">  2  3  1 -1</clus>
</clustering>
</event>
<event>
 6    0  0.3643696E+002  0.6684669E+02  0.7546771E-02  0.1371157E+00
          2   -1    0    0  503    0 -0.00000000000E+00  0.00000000000E+00  0.10893813369E+03  0.10893813369E+03  0.00000000000E+00 0.  1.
         21   -1    0    0  505  502  0.00000000000E+00 -0.00000000000E+00 -0.39753024716E+03  0.39753024716E+03  0.00000000000E+00 0.  1.
         21    1    1    2  503  504 -0.47295438741E+02  0.90410820781E+01  0.21203270716E+02  0.52613480971E+02  0.00000000000E+00 0. -1.
         21    1    1    2  504  502  0.11214976288E+01 -0.62772824316E+02 -0.20438668813E+03  0.21381207523E+03  0.00000000000E+00 0.  1.
         21    1    1    2  505  501 -0.55810251952E+02  0.58536653162E+02 -0.11152227431E+03  0.13776262792E+03  0.00000000000E+00 0.  1.
          2    1    1    2  501    0  0.10198419306E+03 -0.48049109241E+01  0.61135782489E+01  0.10228019673E+03  0.00000000000E+00 0.  1.
<scales pt_clust_3="48.15184" pt_clust_4="62.21258" pt_clust_5="66.84669" pt_clust_6="14000.00000"></scales>
<clustering>
<clus scale="   48.152">  1  3  2 -1</clus>
<clus scale="   62.213">  2  4  1 -1</clus>
<clus scale="   66.847">  2  5  1 -1</clus>
<clus scale="   62.213">  2  3  1 -1</clus>
</clustering>
</event>
<event>
 6    0  0.3643696E+002  0.9898978E+02  0.7546771E-02  0.1282435E+00
         21   -1    0    0  504  502  0.00000000000E+00  0.00000000000E+00  0.14891593817E+03  0.14891593817E+03  0.00000000000E+00 0. -1.
          2   -1    0    0  505    0 -0.00000000000E+00 -0.00000000000E+00 -0.25467685099E+04  0.25467685099E+04  0.00000000000E+00 0.  1.
         21    1    1    2  503  502  0.83515054927E+01 -0.78085159158E+02  0.13435123471E+03  0.15561906693E+03  0.00000000000E+00 0. -1.
         21    1    1    2  504  501  0.22920041225E+02  0.55336654920E+02 -0.67960720285E+03  0.68224147032E+03  0.00000000000E+00 0.  1.
         21    1    1    2  505  503  0.70877124102E+01 -0.50596320685E+02 -0.97337890764E+03  0.97471879082E+03  0.00000000000E+00 0.  1.
          2    1    1    2  501    0 -0.38359259128E+02  0.73344824923E+02 -0.87921769595E+03  0.88310512000E+03  0.00000000000E+00 0.  1.
<scales pt_clust_3="78.87577" pt_clust_4="50.88100" pt_clust_5="51.09034" pt_clust_6="50.88100"></scales>
<clustering>
<clus scale="   50.881">  4  6 -1 -1</clus>
<clus scale="   51.090">  2  5  1 -1</clus>
<clus scale="   78.876">  1  3  2 -1</clus>
<clus scale="   78.876">  1  3  2 -1</clus>
</clustering>
</event>
<event>
 6    0  0.3643696E+002  0.1057371E+03  0.7546771E-02  0.1268674E+00
          1   -1    0    0  505    0 -0.00000000000E+00  0.00000000000E+00  0.34589379074E+03  0.34589379074E+03  0.00000000000E+00 0. -1.
         21   -1    0    0  501  502  0.00000000000E+00 -0.00000000000E+00 -0.17160158340E+03  0.17160158340E+03  0.00000000000E+00 0. -1.
         21    1    1    2  503  502  0.16524235228E+02  0.52955391315E+02 -0.10509868297E+03  0.11884046862E+03  0.00000000000E+00 0. -1.
         21    1    1    2  504  503 -0.43242962175E+02  0.97273752952E+02  0.85133163717E+02  0.13630771202E+03  0.00000000000E+00 0. -1.
         21    1    1    2  505  504  0.16330503765E+02 -0.28611043486E+02  0.10792408089E+03  0.11284008330E+03  0.00000000000E+00 0. -1.
          1    1    1    2  501    0  0.10388223182E+02 -0.12161810078E+03  0.86333645709E+02  0.14950711020E+03  0.00000000000E+00 0. -1.
<scales pt_clust_3="54.82325" pt_clust_4="105.73713" pt_clust_5="32.94355" pt_clust_6="14000.00000"></scales>
<clustering>
<clus scale="   32.944">  1  5  2 -1</clus>
<clus scale="   54.823">  2  3  1 -1</clus>
<clus scale="  105.737">  1  4  2 -1</clus>
<clus scale="   54.823">  2  3  1 -1</clus>
</clustering>
</event>
<event>
 6    0  0.3643696E+002  0.1140492E+03  0.7546771E-02  0.1253250E+00
         -1   -1    0    0    0  501 -0.00000000000E+00  0.00000000000E+00  0.18067957155E+03  0.18067957155E+03  0.00000000000E+00 0.  1.
         21   -1    0    0  505  502  0.00000000000E+00 -0.00000000000E+00 -0.14558463006E+04  0.14558463006E+04  0.00000000000E+00 0. -1.
         21    1    1    2  503  502 -0.81239560449E+02 -0.59206983060E+02 -0.65675905844E+02  0.12007771497E+03  0.00000000000E+00 0. -1.
         21    1    1    2  504  501  0.32171966319E+02 -0.24059692841E+02 -0.35806374879E+02  0.53814502863E+02  0.00000000000E+00 0. -1.
         21    1    1    2  505  504  0.20999463823E+02 -0.52347825090E+02 -0.12842095493E+04  0.12854475636E+04  0.00000000000E+00 0. -1.
         -1    1    1    2    0  503  0.28068130307E+02  0.13561450099E+03  0.11052510094E+03  0.17718609075E+03  0.00000000000E+00 0.  1.
<scales pt_clust_3="114.04922" pt_clust_4="40.17343" pt_clust_5="56.52652" pt_clust_6="14000.00000"></scales>
<clustering>
<clus scale="   40.173">  1  4  2 -1</clus>
<clus scale="   56.527">  2  5  1 -1</clus>
<clus scale="  114.049">  2  3  1 -1</clus>
<clus scale="   56.527">  2  3  1 -1</clus>
</clustering>
</event>
<event>
 6    0  0.3643696E+002  0.1299928E+03  0.7546771E-02  0.1227466E+00
         21   -1    0    0  503  502  0.00000000000E+00  0.00000000000E+00  0.12649189684E+03  0.12649189684E+03  0.00000000000E+00 0. -1.
         -1   -1    0    0    0  501 -0.00000000000E+00 -0.00000000000E+00 -0.60066141649E+03  0.60066141649E+03  0.00000000000E+00 0. -1.
         21    1    1    2  503  501  0.35622518769E+02  0.10827232853E+02  0.53694758001E+02  0.65340032533E+02  0.00000000000E+00 0. -1.
         21    1    1    2  504  502 -0.68017717597E+02  0.67980499444E+02 -0.13080517672E+03  0.16235070825E+03  0.00000000000E+00 0.  1.
         21    1    1    2  505  504  0.10674673790E+03  0.42750274626E+02 -0.52118732976E+02  0.12624901726E+03  0.00000000000E+00 0. -1.
         -1    1    1    2    0  505 -0.74351539072E+02 -0.12155800692E+03 -0.34494036795E+03  0.37321355528E+03  0.00000000000E+00 0. -1.
<scales pt_clust_3="37.23161" pt_clust_4="92.35846" pt_clust_5="129.99277" pt_clust_6="14000.00000"></scales>
<clustering>
<clus scale="   37.232">  1  3  2 -1</clus>
<clus scale="   92.358">  1  4  2 -1</clus>
<clus scale="  129.993">  1  5  2 -1</clus>
<clus scale="   37.232">  1  3  2 -1</clus>
</clustering>
</event>
<event>
 6    0  0.3643696E+002  0.1086012E+03  0.7546771E-02  0.1263182E+00
         21   -1    0    0  503  502  0.00000000000E+00  0.00000000000E+00  0.46557616839E+02  0.46557616839E+02  0.00000000000E+00 0. -1.
          1   -1    0    0  505    0 -0.00000000000E+00 -0.00000000000E+00 -0.89752565565E+03  0.89752565565E+03  0.00000000000E+00 0. -1.
         21    1    1    2  503  501 -0.51345015649E+02  0.60580552041E+02 -0.36720479031E+03  0.37569358784E+03  0.00000000000E+00 0. -1.
         21    1    1    2  504  502  0.46394166882E+02 -0.43184855103E+02  0.35886209115E+01  0.63484081714E+02  0.00000000000E+00 0. -1.
         21    1    1    2  505  504  0.67222372828E+02 -0.18324381986E+02 -0.25262760285E+03  0.26205979491E+03  0.00000000000E+00 0. -1.
          1    1    1    2  501    0 -0.62271524061E+02  0.92868504797E+00 -0.23472426656E+03  0.24284580802E+03  0.00000000000E+00 0. -1.
<scales pt_clust_3="52.98880" pt_clust_4="63.38257" pt_clust_5="90.63079" pt_clust_6="52.98880"></scales>
<clustering>
<clus scale="   52.989">  3  6 -1 -1</clus>
<clus scale="   63.383">  1  4  2 -1</clus>
<clus scale="   90.631">  2  5  1 -1</clus>
<clus scale="   63.383">  1  3  2 -1</clus>
</clustering>
</event>
<event>
 6    0  0.3643696E+002  0.8003841E+02  0.7546771E-02  0.1328942E+00
         21   -1    0    0  504  502  0.00000000000E+00  0.00000000000E+00  0.28755648631E+03  0.28755648631E+03  0.00000000000E+00 0. -1.
          1   -1    0    0  503    0 -0.00000000000E+00 -0.00000000000E+00 -0.13217568772E+04  0.13217568772E+04  0.00000000000E+00 0.  1.
         21    1    1    2  503  505 -0.70182171403E+01 -0.36648590676E+02 -0.46789793248E+03  0.46938347839E+03  0.00000000000E+00 0.  1.
         21    1    1    2  504  501 -0.89174084729E+02  0.27379490199E+02 -0.76242884068E+02  0.12047668339E+03  0.00000000000E+00 0.  1.
         21    1    1    2  505  502  0.11479256135E+02 -0.31164622581E+02  0.26072078610E+03  0.26282757718E+03  0.00000000000E+00 0. -1.
          1    1    1    2  501    0  0.84713045735E+02  0.40433723059E+02 -0.75078036044E+03  0.75662562453E+03  0.00000000000E+00 0.  1.
<scales pt_clust_3="38.13734" pt_clust_4="80.03841" pt_clust_5="33.21155" pt_clust_6="14000.00000"></scales>
<clustering>
<clus scale="   33.212">  1  5  2 -1</clus>
<clus scale="   38.137">  2  3  1 -1</clus>
<clus scale="   80.038">  1  4  2 -1</clus>
<clus scale="   33.212">  1  3  2 -1</clus>
</clustering>
</event>
<event>
 6    0  0.3643696E+002  0.9064872E+02  0.7546771E-02  0.1301288E+00
         21   -1    0    0  505  502  0.00000000000E+00  0.00000000000E+00  0.19561951405E+03  0.19561951405E+03  0.00000000000E+00 0.  1.
          3   -1    0    0  503    0 -0.00000000000E+00 -0.00000000000E+00 -0.35218018166E+03  0.35218018166E+03  0.00000000000E+00 0.  1.
         21    1    1    2  503  504  0.38104371053E+02  0.16935071184E+02 -0.35366111911E+02  0.54676334927E+02  0.00000000000E+00 0.  1.
         21    1    1    2  504  502 -0.91977310377E+02 -0.33660806539E+02 -0.16433085934E+03  0.19130474864E+03  0.00000000000E+00 0.  1.
         21    1    1    2  505  501  0.31948567550E+02  0.88571827216E+02  0.14643569681E+03  0.17409506842E+03  0.00000000000E+00 0.  1.
          3    1    1    2  501    0  0.21924371773E+02 -0.71846091861E+02 -0.10329939317E+03  0.12772354373E+03  0.00000000000E+00 0.  1.
<scales pt_clust_3="41.69820" pt_clust_4="73.87635" pt_clust_5="14000.00000" pt_clust_6="90.64872"></scales>
<clustering>
<clus scale="   41.698">  2  3  1 -1</clus>
<clus scale="   73.876">  2  4  1 -1</clus>
<clus scale="   90.649">  2  6  1 -1</clus>
<clus scale="   90.649">  1  3  2 -1</clus>
</clustering>
</event>
<event>
 6    0  0.3643696E+002  0.8714699E+02  0.7546771E-02  0.1309912E+00
          1   -1    0    0  504    0 -0.00000000000E+00  0.00000000000E+00  0.59517764130E+03  0.59517764130E+03  0.00000000000E+00 0. -1.
         21   -1    0    0  505  502  0.00000000000E+00 -0.00000000000E+00 -0.67801136343E+02  0.67801136343E+02  0.00000000000E+00 0.  1.
         21    1    1    2  503  502  0.54080815101E+02 -0.63080327841E+02  0.13746780998E+03  0.16062770964E+03  0.00000000000E+00 0.  1.
         21    1    1    2  504  503  0.41800666245E+02  0.14299412689E+02  0.58101832034E+02  0.72990354072E+02  0.00000000000E+00 0.  1.
         21    1    1    2  505  501 -0.86855409605E+02 -0.40206525295E+02  0.11025802285E+02  0.96343111689E+02  0.00000000000E+00 0.  1.
          1    1    1    2  501    0 -0.90260717409E+01  0.88987440448E+02  0.32078106065E+03  0.33301760224E+03  0.00000000000E+00 0. -1.
<scales pt_clust_3="88.44832" pt_clust_4="44.17883" pt_clust_5="87.14699" pt_clust_6="14000.00000"></scales>
<clustering>
<clus scale="   44.179">  1  4  2 -1</clus>
<clus scale="   88.448">  1  3  2 -1</clus>
<clus scale="   87.147">  2  5  1 -1</clus>
<clus scale="   87.147">  2  3  1 -1</clus>
</clustering>
</event>
<event>
 6    0  0.3643696E+002  0.3033062E+03  0.7546771E-02  0.1083599E+00
          2   -1    0    0  504    0 -0.00000000000E+00  0.00000000000E+00  0.15338921070E+04  0.15338921070E+04  0.00000000000E+00 0. -1.
         21   -1    0    0  505  502  0.00000000000E+00 -0.00000000000E+00 -0.45723160852E+03  0.45723160852E+03  0.00000000000E+00 0. -1.
         21    1    1    2  503  502  0.21549377410E+02 -0.30012116540E+02 -0.37939167816E+03  0.38118650063E+03  0.00000000000E+00 0. -1.
         21    1    1    2  504  503 -0.22707661208E+02  0.20782031078E+02  0.16602384517E+03  0.16885333238E+03  0.00000000000E+00 0. -1.
         21    1    1    2  505  501 -0.26420874124E+03 -0.14717992619E+03  0.41566452897E+03  0.51404784823E+03  0.00000000000E+00 0. -1.
          2    1    1    2  501    0  0.26536702504E+03  0.15641001165E+03  0.87436380251E+03  0.92703603428E+03  0.00000000000E+00 0. -1.
<scales pt_clust_3="36.92751" pt_clust_4="30.78199" pt_clust_5="14000.00000" pt_clust_6="303.30624"></scales>
<clustering>
<clus scale="   30.782">  1  4  2 -1</clus>
<clus scale="   36.928">  2  3  1 -1</clus>
<clus scale="  303.306">  1  6  2 -1</clus>
<clus scale="   36.928">  2  3  1 -1</clus>
</clustering>
</event>
<event>
 6    0  0.3643696E+002  0.1909241E+03  0.7546771E-02  0.1157630E+00
         21   -1    0    0  501  502  0.00000000000E+00  0.00000000000E+00  0.15312899888E+03  0.15312899888E+03  0.00000000000E+00 0. -1.
          2   -1    0    0  504    0 -0.00000000000E+00 -0.00000000000E+00 -0.40560337494E+04  0.40560337494E+04  0.00000000000E+00 0. -1.
         21    1    1    2  503  502  0.29444091071E+02 -0.90328565500E+01  0.14111980641E+02  0.33877647410E+02  0.00000000000E+00 0.  1.
         21    1    1    2  504  505 -0.76611847731E+02 -0.15630815169E+02 -0.35838243702E+04  0.35846772259E+04  0.00000000000E+00 0. -1.
         21    1    1    2  505  503 -0.67803328163E+02 -0.13086684386E+03 -0.36588219822E+03  0.39445304550E+03  0.00000000000E+00 0. -1.
          2    1    1    2  501    0  0.11497108482E+03  0.15553051558E+03  0.32689837333E+02  0.19615482938E+03  0.00000000000E+00 0. -1.
<scales pt_clust_3="30.79849" pt_clust_4="78.10085" pt_clust_5="14000.00000" pt_clust_6="190.92409"></scales>
<clustering>
<clus scale="   30.798">  1  3  2 -1</clus>
<clus scale="   78.101">  2  4  1 -1</clus>
<clus scale="  190.924">  1  6  2 -1</clus>
<clus scale="   30.798">  1  3  2 -1</clus>
</clustering>
</event>
<event>
 6    0  0.3643696E+002  0.5652062E+02  0.7546771E-02  0.1413042E+00
          3   -1    0    0  503    0 -0.00000000000E+00  0.00000000000E+00  0.33407720651E+03  0.33407720651E+03  0.00000000000E+00 0. -1.
         21   -1    0    0  501  502  0.00000000000E+00 -0.00000000000E+00 -0.56488225180E+03  0.56488225180E+03  0.00000000000E+00 0.  1.
         21    1    1    2  503  504  0.37965991402E+02 -0.24831184720E+02  0.22066467617E+02  0.50447331256E+02  0.00000000000E+00 0. -1.
         21    1    1    2  504  505  0.22936494082E+02  0.76003770727E+02 -0.29648302036E+02  0.84744780012E+02  0.00000000000E+00 0.  1.
         21    1    1    2  505  502  0.19707946471E+02 -0.46285576065E+02 -0.48613542460E+03  0.48873142805E+03  0.00000000000E+00 0.  1.
          3    1    1    2  501    0 -0.80610431954E+02 -0.48870099417E+01  0.26291221374E+03  0.27503591900E+03  0.00000000000E+00 0. -1.
<scales pt_clust_3="45.36523" pt_clust_4="14000.00000" pt_clust_5="50.47115" pt_clust_6="56.52062"></scales>
<clustering>
<clus scale="   45.365">  1  3  2 -1</clus>
<clus scale="   50.471">  2  5  1 -1</clus>
<clus scale="   56.521">  1  6  2 -1</clus>
<clus scale="   50.471">  2  3  1 -1</clus>
</clustering>
</event>
<event>
 6    0  0.3643696E+002  0.1570846E+03  0.7546771E-02  0.1192028E+00
         21   -1    0    0  501  502  0.00000000000E+00  0.00000000000E+00  0.73576154592E+02  0.73576154592E+02  0.00000000000E+00 0.  1.
          1   -1    0    0  504    0 -0.00000000000E+00 -0.00000000000E+00 -0.16085361113E+04  0.16085361113E+04  0.00000000000E+00 0.  1.
         21    1    1    2  503  502 -0.23561246556E+02 -0.24813336599E+02  0.39436971296E+02  0.52212151052E+02  0.00000000000E+00 0.  1.
         21    1    1    2  504  505  0.75719479327E+01 -0.53717965418E+02 -0.12038295295E+03  0.13204169631E+03  0.00000000000E+00 0.  1.
         21    1    1    2  505  503 -0.26534639793E+02 -0.61897311580E+02 -0.44480109031E+02  0.80708391070E+02  0.00000000000E+00 0.  1.
          1    1    1    2  501    0  0.42523938416E+02  0.14042861360E+03 -0.14095338660E+04  0.14171500275E+04  0.00000000000E+00 0.  1.
<scales pt_clust_3="34.21745" pt_clust_4="53.84566" pt_clust_5="53.84566" pt_clust_6="142.54568"></scales>
<clustering>
<clus scale="   34.217">  1  3  2 -1</clus>
<clus scale="   53.846">  4  5 -1 -1</clus>
<clus scale="  142.546">  2  6  1 -1</clus>
<clus scale="   34.217">  1  3  2 -1</clus>
</clustering>
</event>
<event>
 6    0  0.3643696E+002  0.8401071E+02  0.7546771E-02  0.1318040E+00
          1   -1    0    0  504    0 -0.00000000000E+00  0.00000000000E+00  0.11276775946E+03  0.11276775946E+03  0.00000000000E+00 0. -1.
         21   -1    0    0  501  502  0.00000000000E+00 -0.00000000000E+00 -0.35854623451E+03  0.35854623451E+03  0.00000000000E+00 0. -1.
         21    1    1    2  503  502  0.38788891474E+02  0.64898587475E+01 -0.10820769037E+03  0.11513296932E+03  0.00000000000E+00 0. -1.
         21    1    1    2  504  505 -0.17094936301E+01 -0.34576447103E+02  0.33369209913E+02  0.48082816400E+02  0.00000000000E+00 0. -1.
         21    1    1    2  505  503 -0.56856023979E+02 -0.78397266522E+02 -0.17467939254E+03  0.19972888885E+03  0.00000000000E+00 0. -1.
          1    1    1    2  501    0  0.19776626135E+02  0.10648385488E+03  0.37393979526E+01  0.10836931940E+03  0.00000000000E+00 0. -1.
<scales pt_clust_3="39.00666" pt_clust_4="34.61868" pt_clust_5="14000.00000" pt_clust_6="84.01071"></scales>
<clustering>
<clus scale="   34.619">  1  4  2 -1</clus>
<clus scale="   39.007">  2  3  1 -1</clus>
<clus scale="   84.011">  1  6  2 -1</clus>
<clus scale="   39.007">  2  3  1 -1</clus>
</clustering>
</event>
<event>
 6    0  0.3643696E+002  0.9712704E+02  0.7546771E-02  0.1286456E+00
         -1   -1    0    0    0  501 -0.00000000000E+00  0.00000000000E+00  0.61113779071E+03  0.61113779071E+03  0.00000000000E+00 0.  1.
         21   -1    0    0  504  502  0.00000000000E+00 -0.00000000000E+00 -0.90127311569E+02  0.90127311569E+02  0.00000000000E+00 0. -1.
         21    1    1    2  503  502  0.28873064684E+02  0.22344220689E+02 -0.53187006922E+02  0.64511826573E+02  0.00000000000E+00 0. -1.
         21    1    1    2  504  505 -0.44872038456E+02  0.16136324580E+02  0.40069364272E+02  0.62285108648E+02  0.00000000000E+00 0. -1.
         21    1    1    2  505  501  0.34751830409E+02  0.68162089464E+02  0.93922462641E+02  0.12114119508E+03  0.00000000000E+00 0. -1.
         -1    1    1    2    0  503 -0.18752856637E+02 -0.10664263473E+03  0.44020565915E+03  0.45332697198E+03  0.00000000000E+00 0.  1.
<scales pt_clust_3="36.50915" pt_clust_4="42.16467" pt_clust_5="97.12704" pt_clust_6="14000.00000"></scales>
<clustering>
<clus scale="   36.509">  2  3  1 -1</clus>
<clus scale="   42.165">  2  4  1 -1</clus>
<clus scale="   97.127">  2  5  1 -1</clus>
<clus scale="   36.509">  2  3  1 -1</clus>
</clustering>
</event>
<event>
 6    0  0.3643696E+002  0.1223358E+03  0.7546771E-02  0.1239293E+00
         21   -1    0    0  504  502  0.00000000000E+00  0.00000000000E+00  0.78846201570E+02  0.78846201570E+02  0.00000000000E+00 0.  1.
          1   -1    0    0  505    0 -0.00000000000E+00 -0.00000000000E+00 -0.80795332889E+03  0.80795332889E+03  0.00000000000E+00 0.  1.
         21    1    1    2  503  501 -0.43970698294E+02 -0.65204027966E+01 -0.79362823199E+02  0.90963705220E+02  0.00000000000E+00 0.  1.
         21    1    1    2  504  503  0.60619329910E+02  0.43077383214E+01  0.46061210886E+02  0.76255458273E+02  0.00000000000E+00 0.  1.
         21    1    1    2  505  502  0.77266211234E+02  0.24491522561E+02 -0.22958010397E+03  0.24346853228E+03  0.00000000000E+00 0.  1.
          1    1    1    2  501    0 -0.93914842850E+02 -0.22278858086E+02 -0.46622541104E+03  0.47611183468E+03  0.00000000000E+00 0.  1.
<scales pt_clust_3="43.27460" pt_clust_4="60.77220" pt_clust_5="104.40169" pt_clust_6="43.27460"></scales>
<clustering>
<clus scale="   43.275">  3  6 -1 -1</clus>
<clus scale="   60.772">  1  4  2 -1</clus>
<clus scale="  104.402">  2  5  1 -1</clus>
<clus scale="   60.772">  1  3  2 -1</clus>
</clustering>
</event>
<event>
 6    0  0.3643696E+002  0.1759658E+03  0.7546771E-02  0.1171765E+00
          2   -1    0    0  504    0 -0.00000000000E+00  0.00000000000E+00  0.12430952484E+04  0.12430952484E+04  0.00000000000E+00 0.  1.
         21   -1    0    0  503  502  0.00000000000E+00 -0.00000000000E+00 -0.12685941490E+04  0.12685941490E+04  0.00000000000E+00 0.  1.
         21    1    1    2  503  505 -0.66510096883E+02  0.16372635905E+03 -0.12456517498E+04  0.12581248728E+04  0.00000000000E+00 0.  1.
         21    1    1    2  504  502 -0.31798188117E+02  0.12896527030E+02  0.39242976878E+03  0.39392711078E+03  0.00000000000E+00 0.  1.
         21    1    1    2  505  501  0.82463763537E+02 -0.11074496067E+03  0.33593792853E+03  0.36320656717E+03  0.00000000000E+00 0.  1.
          2    1    1    2  501    0  0.15844521463E+02 -0.65877925416E+02  0.49178515195E+03  0.49643084674E+03  0.00000000000E+00 0.  1.
<scales pt_clust_3="175.96580" pt_clust_4="34.31392" pt_clust_5="14000.00000" pt_clust_6="58.44013"></scales>
<clustering>
<clus scale="   34.314">  1  4  2 -1</clus>
<clus scale="   58.440">  1  6  2 -1</clus>
<clus scale="  175.966">  2  3  1 -1</clus>
<clus scale="  175.966">  2  3  1 -1</clus>
</clustering>
</event>
<event>
 6    0  0.3643696E+002  0.7892966E+02  0.7546771E-02  0.1332117E+00
         21   -1    0    0  501  502  0.00000000000E+00  0.00000000000E+00  0.25838420531E+03  0.25838420531E+03  0.00000000000E+00 0.  1.
          4   -1    0    0  503    0 -0.00000000000E+00 -0.00000000000E+00 -0.17318920246E+03  0.17318920246E+03  0.00000000000E+00 0.  1.
         21    1    1    2  503  504 -0.21638657518E+02 -0.57846567370E+02 -0.74113277762E+02  0.96474010989E+02  0.00000000000E+00 0.  1.
         21    1    1    2  504  505  0.71453550144E+02  0.67297428837E+02 -0.44400551563E+01  0.98256133885E+02  0.00000000000E+00 0.  1.
         21    1    1    2  505  502 -0.12030715750E+02 -0.82169389684E+02  0.11377480358E+03  0.14085898144E+03  0.00000000000E+00 0.  1.
          4    1    1    2  501    0 -0.37784176876E+02  0.72718528217E+02  0.49973532177E+02  0.95984281455E+02  0.00000000000E+00 0.  1.
<scales pt_clust_3="61.76129" pt_clust_4="67.68603" pt_clust_5="78.92966" pt_clust_6="14000.00000"></scales>
<clustering>
<clus scale="   61.761">  2  3  1 -1</clus>
<clus scale="   67.686">  2  4  1 -1</clus>
<clus scale="   78.930">  1  5  2 -1</clus>
<clus scale="   78.930">  1  3  2 -1</clus>
</clustering>
</event>
<event>
 6    0  0.3643696E+002  0.1604377E+03  0.7546771E-02  0.1188204E+00
          3   -1    0    0  504    0 -0.00000000000E+00  0.00000000000E+00  0.81013091049E+02  0.81013091049E+02  0.00000000000E+00 0. -1.
         21   -1    0    0  503  502  0.00000000000E+00 -0.00000000000E+00 -0.48025053539E+03  0.48025053539E+03  0.00000000000E+00 0.  1.
         21    1    1    2  503  505  0.12134009022E+03 -0.84117735256E+02 -0.27924338931E+03  0.31587352114E+03  0.00000000000E+00 0.  1.
         21    1    1    2  504  502 -0.13215433775E+02 -0.38688077537E+02 -0.31001070207E+02  0.51307712747E+02  0.00000000000E+00 0.  1.
         21    1    1    2  505  501 -0.27225162518E+02  0.71857577117E+02 -0.41420816955E+02  0.87294930783E+02  0.00000000000E+00 0. -1.
          3    1    1    2  501    0 -0.80899493930E+02  0.50948235675E+02 -0.47572167867E+02  0.10678746177E+03  0.00000000000E+00 0. -1.
<scales pt_clust_3="150.87819" pt_clust_4="40.88294" pt_clust_5="46.32578" pt_clust_6="46.32578"></scales>
<clustering>
<clus scale="   40.883">  1  4  2 -1</clus>
<clus scale="   46.326">  5  6 -1 -1</clus>
<clus scale="  150.878">  2  3  1 -1</clus>
<clus scale="  150.878">  2  3  1 -1</clus>
</clustering>
</event>
<event>
 6    0  0.3643696E+002  0.8581923E+02  0.7546771E-02  0.1313304E+00
          1   -1    0    0  504    0 -0.00000000000E+00  0.00000000000E+00  0.38300906319E+03  0.38300906319E+03  0.00000000000E+00 0. -1.
         21   -1    0    0  503  502  0.00000000000E+00 -0.00000000000E+00 -0.20537856110E+04  0.20537856110E+04  0.00000000000E+00 0. -1.
         21    1    1    2  503  501  0.36481270606E+02 -0.11600970687E+03  0.24945114346E+02  0.12414263540E+03  0.00000000000E+00 0. -1.
         21    1    1    2  504  505 -0.36537247421E+02  0.51993845567E+02 -0.65767580325E+02  0.91453294351E+02  0.00000000000E+00 0. -1.
         21    1    1    2  505  502 -0.48684082115E+02 -0.28498076323E+01 -0.19194706379E+04  0.19200900477E+04  0.00000000000E+00 0. -1.
          1    1    1    2  501    0  0.48740058930E+02  0.66865668939E+02  0.28951655609E+03  0.30110869678E+03  0.00000000000E+00 0. -1.
<scales pt_clust_3="85.81923" pt_clust_4="14000.00000" pt_clust_5="48.76742" pt_clust_6="81.42058"></scales>
<clustering>
<clus scale="   48.767">  2  5  1 -1</clus>
<clus scale="   81.421">  1  6  2 -1</clus>
<clus scale="   85.819">  1  3  2 -1</clus>
<clus scale="   48.767">  2  3  1 -1</clus>
</clustering>
</event>
<event>
 6    0  0.3643696E+002  0.1164697E+03  0.7546771E-02  0.1249037E+00
         21   -1    0    0  501  502  0.00000000000E+00  0.00000000000E+00  0.21747016265E+02  0.21747016265E+02  0.00000000000E+00 0.  1.
          2   -1    0    0  505    0 -0.00000000000E+00 -0.00000000000E+00 -0.14167482604E+04  0.14167482604E+04  0.00000000000E+00 0. -1.
         21    1    1    2  503  504  0.27565997825E+02 -0.43324258887E+02 -0.29442119811E+03  0.29886571825E+03  0.00000000000E+00 0. -1.
         21    1    1    2  504  502 -0.11621982347E+03  0.24605418816E+02 -0.20361627924E+03  0.23573727574E+03  0.00000000000E+00 0.  1.
         21    1    1    2  505  503  0.49380063692E+02 -0.21837054419E+02 -0.37121274957E+03  0.37511885193E+03  0.00000000000E+00 0. -1.
          2    1    1    2  501    0  0.39273761956E+02  0.40555894489E+02 -0.52575101722E+03  0.52877343075E+03  0.00000000000E+00 0. -1.
<scales pt_clust_3="31.14542" pt_clust_4="112.00553" pt_clust_5="31.14542" pt_clust_6="56.45537"></scales>
<clustering>
<clus scale="   31.145">  3  5 -1 -1</clus>
<clus scale="   56.455">  2  6  1 -1</clus>
<clus scale="  112.006">  1  4  2 -1</clus>
<clus scale="  112.006">  1  3  2 -1</clus>
</clustering>
</event>
<event>
 6    0  0.3643696E+002  0.9326605E+02  0.7546771E-02  0.1295130E+00
          1   -1    0    0  505    0 -0.00000000000E+00  0.00000000000E+00  0.23547030762E+04  0.23547030762E+04  0.00000000000E+00 0. -1.
         21   -1    0    0  501  502  0.00000000000E+00 -0.00000000000E+00 -0.36994170168E+02  0.36994170168E+02  0.00000000000E+00 0.  1.
         21    1    1    2  503  502 -0.39939879591E+02  0.15234328124E+02 -0.13942290774E+02  0.44962942599E+02  0.00000000000E+00 0.  1.
         21    1    1    2  504  503  0.31524012018E+02  0.33089917444E+02  0.16145976323E+03  0.16780334059E+03  0.00000000000E+00 0.  1.
         21    1    1    2  505  504 -0.77508491603E+02  0.25569627471E+02  0.89564598721E+03  0.89935705175E+03  0.00000000000E+00 0. -1.
          1    1    1    2  501    0  0.85924359176E+02 -0.73893873038E+02  0.12745454463E+04  0.12795739114E+04  0.00000000000E+00 0. -1.
<scales pt_clust_3="42.74668" pt_clust_4="42.15311" pt_clust_5="14000.00000" pt_clust_6="93.26605"></scales>
<clustering>
<clus scale="   42.747">  2  3  1 -1</clus>
<clus scale="   42.153">  2  4  1 -1</clus>
<clus scale="   93.266">  2  6  1 -1</clus>
<clus scale="   42.747">  2  3  1 -1</clus>
</clustering>
</event>
<event>
 6    0  0.3643696E+002  0.9896157E+02  0.7546771E-02  0.1282495E+00
          2   -1    0    0  504    0 -0.00000000000E+00  0.00000000000E+00  0.59177136555E+03  0.59177136555E+03  0.00000000000E+00 0. -1.
         21   -1    0    0  503  502  0.00000000000E+00 -0.00000000000E+00 -0.56297417869E+02  0.56297417869E+02  0.00000000000E+00 0. -1.
         21    1    1    2  503  501  0.96904296079E+01 -0.59320606451E+02 -0.15060563124E+02  0.61964984768E+02  0.00000000000E+00 0. -1.
         21    1    1    2  504  505 -0.38245174940E+02 -0.67255690064E+01  0.11675734692E+03  0.12304553931E+03  0.00000000000E+00 0. -1.
         21    1    1    2  505  502 -0.24908651325E+02 -0.36349282047E+02  0.86556186896E+02  0.97127157408E+02  0.00000000000E+00 0. -1.
          2    1    1    2  501    0  0.53463396657E+02  0.10239545750E+03  0.34722097699E+03  0.36593110194E+03  0.00000000000E+00 0. -1.
<scales pt_clust_3="60.10689" pt_clust_4="33.79198" pt_clust_5="33.79198" pt_clust_6="92.18252"></scales>
<clustering>
<clus scale="   33.792">  4  5 -1 -1</clus>
<clus scale="   60.107">  2  3  1 -1</clus>
<clus scale="   92.183">  2  6  1 -1</clus>
<clus scale="   60.107">  2  3  1 -1</clus>
</clustering>
</event>
<event>
 6    0  0.3643696E+002  0.1036519E+03  0.7546771E-02  0.1272799E+00
          1   -1    0    0  505    0 -0.00000000000E+00  0.00000000000E+00  0.85007733794E+03  0.85007733794E+03  0.00000000000E+00 0.  1.
         21   -1    0    0  504  502  0.00000000000E+00 -0.00000000000E+00 -0.11770616886E+03  0.11770616886E+03  0.00000000000E+00 0. -1.
         21    1    1    2  503  501  0.31660536300E+02  0.31265927415E+02  0.21204488181E+03  0.21666328641E+03  0.00000000000E+00 0.  1.
         21    1    1    2  504  503 -0.10898538689E+03 -0.32706165089E+01  0.12777975630E+03  0.16797671746E+03  0.00000000000E+00 0. -1.
         21    1    1    2  505  502  0.27109136889E+02 -0.51405634499E+02 -0.84684080598E+02  0.10270753657E+03  0.00000000000E+00 0. -1.
          1    1    1    2  501    0  0.50215713701E+02  0.23410323593E+02  0.47723061157E+03  0.48043596636E+03  0.00000000000E+00 0.  1.
<scales pt_clust_3="30.43618" pt_clust_4="97.92990" pt_clust_5="58.11579" pt_clust_6="30.43618"></scales>
<clustering>
<clus scale="   30.436">  3  6 -1 -1</clus>
<clus scale="   58.116">  2  5  1 -1</clus>
<clus scale="   97.930">  2  4  1 -1</clus>
<clus scale="   58.116">  2  3  1 -1</clus>
</clustering>
</event>
<event>
 6    0  0.3643696E+002  0.1554896E+03  0.7546771E-02  0.1193885E+00
         21   -1    0    0  504  502  0.00000000000E+00  0.00000000000E+00  0.14148002723E+03  0.14148002723E+03  0.00000000000E+00 0.  1.
          1   -1    0    0  503    0 -0.00000000000E+00 -0.00000000000E+00 -0.45759969212E+03  0.45759969212E+03  0.00000000000E+00 0.  1.
         21    1    1    2  503  505 -0.13645332698E+02 -0.31550599651E+02 -0.16924251272E+03  0.17269818631E+03  0.00000000000E+00 0.  1.
         21    1    1    2  504  501 -0.75952622927E+01 -0.70328903634E+02  0.10806464182E+01  0.70746098778E+02  0.00000000000E+00 0. -1.
         21    1    1    2  505  502 -0.72536632607E+01  0.16623417333E+03 -0.20571846499E+03  0.26458742005E+03  0.00000000000E+00 0.  1.
          1    1    1    2  501    0  0.28494258252E+02 -0.64354670048E+02  0.57760666387E+02  0.91048014211E+02  0.00000000000E+00 0.  1.
<scales pt_clust_3="34.37492" pt_clust_4="63.03284" pt_clust_5="141.55711" pt_clust_6="63.03284"></scales>
<clustering>
<clus scale="   34.375">  2  3  1 -1</clus>
<clus scale="   63.033">  4  6 -1 -1</clus>
<clus scale="  141.557">  2  5  1 -1</clus>
<clus scale="  155.490">  1  3  2 -1</clus>
</clustering>
</event>
<event>
 6    0  0.3643696E+002  0.9582812E+02  0.7546771E-02  0.1289322E+00
          1   -1    0    0  503    0 -0.00000000000E+00  0.00000000000E+00  0.54244454345E+03  0.54244454345E+03  0.00000000000E+00 0.  1.
         21   -1    0    0  505  502  0.00000000000E+00 -0.00000000000E+00 -0.23739865879E+03  0.23739865879E+03  0.00000000000E+00 0. -1.
         21    1    1    2  503  502 -0.85739633592E+01  0.44529246200E+02  0.36455847595E+02  0.58184151095E+02  0.00000000000E+00 0. -1.
         21    1    1    2  504  501  0.10904297830E+03  0.19779626525E+02  0.57338455654E+02  0.12477701406E+03  0.00000000000E+00 0. -1.
         21    1    1    2  505  504 -0.16629833689E+02 -0.44221596165E+02 -0.18521732944E+03  0.19114800564E+03  0.00000000000E+00 0. -1.
          1    1    1    2  501    0 -0.83839181252E+02 -0.20087276560E+02  0.39646891085E+03  0.40573403144E+03  0.00000000000E+00 0.  1.
<scales pt_clust_3="45.34718" pt_clust_4="95.82812" pt_clust_5="47.01378" pt_clust_6="14000.00000"></scales>
<clustering>
<clus scale="   45.347">  1  3  2 -1</clus>
<clus scale="   47.014">  2  5  1 -1</clus>
<clus scale="   95.828">  2  4  1 -1</clus>
<clus scale="   47.014">  2  3  1 -1</clus>
</clustering>
</event>
<event>
 6    0  0.3643696E+002  0.7022827E+02  0.7546771E-02  0.1359319E+00
         21   -1    0    0  504  502  0.00000000000E+00  0.00000000000E+00  0.53703368080E+02  0.53703368080E+02  0.00000000000E+00 0.  1.
          2   -1    0    0  503    0 -0.00000000000E+00 -0.00000000000E+00 -0.11499016339E+04  0.11499016339E+04  0.00000000000E+00 0.  1.
         21    1    1    2  503  505 -0.58394114449E+02 -0.13576934630E+02 -0.37079070830E+03  0.37560611698E+03  0.00000000000E+00 0. -1.
         21    1    1    2  504  501 -0.10747884798E+02 -0.56260922284E+02  0.14424538137E+02  0.59066705549E+02  0.00000000000E+00 0.  1.
         21    1    1    2  505  502 -0.11768901398E+02  0.63598517437E+02 -0.74455078716E+02  0.98624729185E+02  0.00000000000E+00 0. -1.
          2    1    1    2  501    0  0.80910900644E+02  0.62393394770E+01 -0.66537701698E+03  0.67030745030E+03  0.00000000000E+00 0.  1.
<scales pt_clust_3="70.22827" pt_clust_4="57.27834" pt_clust_5="30.49464" pt_clust_6="14000.00000"></scales>
<clustering>
<clus scale="   57.278">  1  4  2 -1</clus>
<clus scale="   30.495">  1  5  2 -1</clus>
<clus scale="   70.228">  2  3  1 -1</clus>
<clus scale="   57.278">  1  3  2 -1</clus>
</clustering>
</event>
<event>
 6    0  0.3643696E+002  0.1122367E+03  0.7546771E-02  0.1256483E+00
         21   -1    0    0  504  502  0.00000000000E+00  0.00000000000E+00  0.89009124225E+02  0.89009124225E+02  0.00000000000E+00 0. -1.
          2   -1    0    0  505    0 -0.00000000000E+00 -0.00000000000E+00 -0.19727978266E+04  0.19727978266E+04  0.00000000000E+00 0.  1.
         21    1    1    2  503  501 -0.67740309989E+02  0.21464687675E+02 -0.27834992866E+03  0.28727715746E+03  0.00000000000E+00 0.  1.
         21    1    1    2  504  503  0.11885843172E+03 -0.30992193053E+01  0.38946628842E+02  0.12511503447E+03  0.00000000000E+00 0. -1.
         21    1    1    2  505  502  0.27834691525E+02 -0.16248476853E+02 -0.17735043730E+03  0.18025526528E+03  0.00000000000E+00 0.  1.
          2    1    1    2  501    0 -0.78952813259E+02 -0.21169915166E+01 -0.14670349653E+04  0.14691594936E+04  0.00000000000E+00 0.  1.
<scales pt_clust_3="112.23671" pt_clust_4="14000.00000" pt_clust_5="32.23016" pt_clust_6="58.25090"></scales>
<clustering>
<clus scale="   32.230">  2  5  1 -1</clus>
<clus scale="   58.251">  2  6  1 -1</clus>
<clus scale="  112.237">  2  3  1 -1</clus>
<clus scale="  112.237">  1  3  2 -1</clus>
</clustering>
</event>
<event>
 6    0  0.3643696E+002  0.1228830E+03  0.7546771E-02  0.1238415E+00
          2   -1    0    0  504    0 -0.00000000000E+00  0.00000000000E+00  0.13087240078E+04  0.13087240078E+04  0.00000000000E+00 0.  1.
         21   -1    0    0  503  502  0.00000000000E+00 -0.00000000000E+00 -0.33978083041E+02  0.33978083041E+02  0.00000000000E+00 0.  1.
         21    1    1    2  503  501 -0.38394146324E+02 -0.22673510417E+02  0.15637851929E+02  0.47251888423E+02  0.00000000000E+00 0.  1.
         21    1    1    2  504  505 -0.77674571744E+02 -0.81642014522E+02  0.51647912179E+03  0.52862977676E+03  0.00000000000E+00 0.  1.
         21    1    1    2  505  502 -0.69288991324E+01  0.40359314502E+02  0.80301741005E+02  0.90140188145E+02  0.00000000000E+00 0.  1.
          2    1    1    2  501    0  0.12299761720E+03  0.63956210437E+02  0.66232721007E+03  0.67668023755E+03  0.00000000000E+00 0.  1.
<scales pt_clust_3="42.16937" pt_clust_4="122.88300" pt_clust_5="40.94977" pt_clust_6="14000.00000"></scales>
<clustering>
<clus scale="   40.950">  2  5  1 -1</clus>
<clus scale="   42.169">  2  3  1 -1</clus>
<clus scale="  122.883">  1  4  2 -1</clus>
<clus scale="   40.950">  2  3  1 -1</clus>
</clustering>
</event>
<event>
 6    0  0.3643696E+002  0.1165133E+03  0.7546771E-02  0.1248962E+00
         -1   -1    0    0    0  501 -0.00000000000E+00  0.00000000000E+00  0.16835169477E+04  0.16835169477E+04  0.00000000000E+00 0.  1.
         21   -1    0    0  503  502  0.00000000000E+00 -0.00000000000E+00 -0.13046345262E+03  0.13046345262E+03  0.00000000000E+00 0.  1.
         21    1    1    2  503  505  0.60416809725E+02 -0.37201413085E+02  0.28543952362E+03  0.29412558147E+03  0.00000000000E+00 0.  1.
         21    1    1    2  504  502 -0.24616656473E+02  0.62796980636E+02 -0.10439216486E+03  0.12428662292E+03  0.00000000000E+00 0.  1.
         21    1    1    2  505  501 -0.76475832503E+02  0.86730885319E+02  0.40413282209E+03  0.42035001762E+03  0.00000000000E+00 0.  1.
         -1    1    1    2    0  504  0.40675679251E+02 -0.11232645287E+03  0.96787331428E+03  0.97521817835E+03  0.00000000000E+00 0.  1.
<scales pt_clust_3="57.48502" pt_clust_4="67.44954" pt_clust_5="116.51333" pt_clust_6="14000.00000"></scales>
<clustering>
<clus scale="   67.450">  2  4  1 -1</clus>
<clus scale="   57.485">  2  3  1 -1</clus>
<clus scale="  116.513">  2  5  1 -1</clus>
<clus scale="   67.450">  2  3  1 -1</clus>
</clustering>
</event>
<event>
 6    0  0.3643696E+002  0.6311043E+02  0.7546771E-02  0.1385224E+00
         21   -1    0    0  505  502  0.00000000000E+00  0.00000000000E+00  0.40445857856E+03  0.40445857856E+03  0.00000000000E+00 0.  1.
          2   -1    0    0  503    0 -0.00000000000E+00 -0.00000000000E+00 -0.16015005604E+04  0.16015005604E+04  0.00000000000E+00 0.  1.
         21    1    1    2  503  504  0.35224062987E+02  0.17746234236E+02 -0.48856519723E+03  0.49015468516E+03  0.00000000000E+00 0.  1.
         21    1    1    2  504  502  0.32399964709E+02 -0.39390376918E+02 -0.10347375424E+03  0.11536107369E+03  0.00000000000E+00 0.  1.
         21    1    1    2  505  501  0.22911279770E+02 -0.58683964624E+02  0.39154075714E+03  0.39657647301E+03  0.00000000000E+00 0.  1.
          2    1    1    2  501    0 -0.90535307466E+02  0.80328107305E+02 -0.99654378754E+03  0.10038669071E+04  0.00000000000E+00 0.  1.
<scales pt_clust_3="39.44190" pt_clust_4="51.99456" pt_clust_5="63.11043" pt_clust_6="14000.00000"></scales>
<clustering>
<clus scale="   39.442">  2  3  1 -1</clus>
<clus scale="   51.995">  2  4  1 -1</clus>
<clus scale="   63.110">  1  5  2 -1</clus>
<clus scale="   63.110">  1  3  2 -1</clus>
</clustering>
</event>
<event>
 6    0  0.3643696E+002  0.1267899E+03  0.7546771E-02  0.1232298E+00
         -4   -1    0    0    0  501 -0.00000000000E+00  0.00000000000E+00  0.89437197973E+03  0.89437197973E+03  0.00000000000E+00 0. -1.
         21   -1    0    0  505  502  0.00000000000E+00 -0.00000000000E+00 -0.87063455571E+03  0.87063455571E+03  0.00000000000E+00 0. -1.
         21    1    1    2  503  501  0.52579518636E+02  0.24092997329E+02  0.66719052542E+02  0.88297849761E+02  0.00000000000E+00 0. -1.
         21    1    1    2  504  502 -0.42291373158E+02 -0.59232645876E+02 -0.79721239548E+03  0.80052774473E+03  0.00000000000E+00 0. -1.
         21    1    1    2  505  503 -0.73808634147E+02  0.11231959717E+01 -0.36378861831E+02  0.82294578387E+02  0.00000000000E+00 0. -1.
         -4    1    1    2    0  504  0.63520488669E+02  0.34016452575E+02  0.79060962878E+03  0.79388636256E+03  0.00000000000E+00 0. -1.
<scales pt_clust_3="57.83665" pt_clust_4="14000.00000" pt_clust_5="72.35329" pt_clust_6="126.78993"></scales>
<clustering>
<clus scale="   57.837">  1  3  2 -1</clus>
<clus scale="   72.353">  2  5  1 -1</clus>
<clus scale="  126.790">  1  6  2 -1</clus>
<clus scale="   72.353">  2  3  1 -1</clus>
</clustering>
</event>
<event>
 6    0  0.3643696E+002  0.9858499E+02  0.7546771E-02  0.1283300E+00
         21   -1    0    0  504  502  0.00000000000E+00  0.00000000000E+00  0.39584391027E+02  0.39584391027E+02  0.00000000000E+00 0. -1.
         -3   -1    0    0    0  501 -0.00000000000E+00 -0.00000000000E+00 -0.12317496201E+04  0.12317496201E+04  0.00000000000E+00 0. -1.
         21    1    1    2  503  501 -0.14867669389E+02 -0.42947310316E+02 -0.67575002812E+03  0.67727661967E+03  0.00000000000E+00 0. -1.
         21    1    1    2  504  503 -0.66362351447E+01  0.72930741689E+02 -0.72932645192E+02  0.10335426181E+03  0.00000000000E+00 0. -1.
         21    1    1    2  505  502 -0.77893864721E+02  0.14103711614E+02 -0.85267758533E+02  0.11634843999E+03  0.00000000000E+00 0. -1.
         -3    1    1    2    0  505  0.99397769254E+02 -0.44087142987E+02 -0.35821479725E+03  0.37435468967E+03  0.00000000000E+00 0. -1.
<scales pt_clust_3="45.44798" pt_clust_4="66.72218" pt_clust_5="98.58499" pt_clust_6="14000.00000"></scales>
<clustering>
<clus scale="   45.448">  2  3  1 -1</clus>
<clus scale="   66.722">  1  4  2 -1</clus>
<clus scale="   98.585">  1  5  2 -1</clus>
<clus scale="   66.722">  1  3  2 -1</clus>
</clustering>
</event>
<event>
 6    0  0.3643696E+002  0.8407827E+02  0.7546771E-02  0.1317861E+00
          1   -1    0    0  504    0 -0.00000000000E+00  0.00000000000E+00  0.87122821034E+03  0.87122821034E+03  0.00000000000E+00 0. -1.
         21   -1    0    0  503  502  0.00000000000E+00 -0.00000000000E+00 -0.15460303400E+03  0.15460303400E+03  0.00000000000E+00 0. -1.
         21    1    1    2  503  501 -0.49757647776E+02 -0.33391501080E+02 -0.10224631806E+03  0.11851213192E+03  0.00000000000E+00 0. -1.
         21    1    1    2  504  505 -0.25341060805E+02  0.47844102853E+02  0.56248290718E+03  0.56508251469E+03  0.00000000000E+00 0. -1.
         21    1    1    2  505  502  0.44801237344E+02 -0.66084338981E+02  0.91670427054E+00  0.79844417919E+02  0.00000000000E+00 0. -1.
          1    1    1    2  501    0  0.30297471238E+02  0.51631737208E+02  0.25547188294E+03  0.26239217980E+03  0.00000000000E+00 0. -1.
<scales pt_clust_3="59.79176" pt_clust_4="54.14081" pt_clust_5="84.07827" pt_clust_6="14000.00000"></scales>
<clustering>
<clus scale="   54.141">  1  4  2 -1</clus>
<clus scale="   59.792">  2  3  1 -1</clus>
<clus scale="   84.078">  2  5  1 -1</clus>
<clus scale="   59.792">  2  3  1 -1</clus>
</clustering>
</event>
<event>
 6    0  0.3643696E+002  0.1051118E+03  0.7546771E-02  0.1269900E+00
          2   -1    0    0  503    0 -0.00000000000E+00  0.00000000000E+00  0.31091743169E+04  0.31091743169E+04  0.00000000000E+00 0.  1.
         21   -1    0    0  504  502  0.00000000000E+00 -0.00000000000E+00 -0.23762431208E+03  0.23762431208E+03  0.00000000000E+00 0.  1.
         21    1    1    2  503  505  0.23107799848E+02 -0.27086830292E+02  0.92635556720E+02  0.99242194443E+02  0.00000000000E+00 0.  1.
         21    1    1    2  504  501  0.11553890949E+03  0.50443800381E+02  0.56810278591E+03  0.58192318390E+03  0.00000000000E+00 0.  1.
         21    1    1    2  505  502 -0.35374548860E+02 -0.51562800395E+01 -0.22487074753E+03  0.22769453007E+03  0.00000000000E+00 0.  1.
          2    1    1    2  501    0 -0.10327216048E+03 -0.18200690050E+02  0.24356824097E+04  0.24379387206E+04  0.00000000000E+00 0.  1.
<scales pt_clust_3="35.60431" pt_clust_4="105.11176" pt_clust_5="35.73949" pt_clust_6="14000.00000"></scales>
<clustering>
<clus scale="   35.604">  1  3  2 -1</clus>
<clus scale="   35.739">  2  5  1 -1</clus>
<clus scale="  105.112">  2  4  1 -1</clus>
<clus scale="   35.739">  2  3  1 -1</clus>
</clustering>
</event>
<event>
 6    0  0.3643696E+002  0.1011234E+03  0.7546771E-02  0.1277951E+00
          1   -1    0    0  503    0 -0.00000000000E+00  0.00000000000E+00  0.46903905163E+02  0.46903905163E+02  0.00000000000E+00 0.  1.
         21   -1    0    0  505  502  0.00000000000E+00 -0.00000000000E+00 -0.20106698341E+04  0.20106698341E+04  0.00000000000E+00 0.  1.
         21    1    1    2  503  504 -0.25586397800E+02  0.73300334412E+02 -0.21323509632E+02  0.80512699870E+02  0.00000000000E+00 0.  1.
         21    1    1    2  504  502  0.10246574600E+03 -0.17884375405E+02 -0.16421233188E+04  0.16454142561E+04  0.00000000000E+00 0.  1.
         21    1    1    2  505  501 -0.88480867920E+02 -0.78957839434E+01 -0.22429139903E+03  0.24124228293E+03  0.00000000000E+00 0.  1.
          1    1    1    2  501    0  0.11601519721E+02 -0.47520175064E+02 -0.76027701488E+02  0.90404500394E+02  0.00000000000E+00 0.  1.
<scales pt_clust_3="41.50494" pt_clust_4="101.12344" pt_clust_5="14000.00000" pt_clust_6="48.91587"></scales>
<clustering>
<clus scale="   48.916">  1  6  2 -1</clus>
<clus scale="   41.505">  1  3  2 -1</clus>
<clus scale="  101.123">  2  4  1 -1</clus>
<clus scale="  101.123">  2  3  1 -1</clus>
</clustering>
</event>
<event>
 6    0  0.3643696E+002  0.9444193E+02  0.7546771E-02  0.1292438E+00
         21   -1    0    0  503  502  0.00000000000E+00  0.00000000000E+00  0.33763399562E+03  0.33763399562E+03  0.00000000000E+00 0.  1.
         -1   -1    0    0    0  501 -0.00000000000E+00 -0.00000000000E+00 -0.90510589065E+03  0.90510589065E+03  0.00000000000E+00 0. -1.
         21    1    1    2  503  504  0.49954100177E+02 -0.59058916671E+02 -0.78135500304E+02  0.10994782477E+03  0.00000000000E+00 0.  1.
         21    1    1    2  504  501  0.26193202160E+01 -0.56493544648E+02 -0.85925006465E+02  0.10286636069E+03  0.00000000000E+00 0.  1.
         21    1    1    2  505  502 -0.15990686604E+01  0.56453424466E+02  0.30856182453E+03  0.31368765629E+03  0.00000000000E+00 0.  1.
         -1    1    1    2    0  505 -0.50974351732E+02  0.59099036854E+02 -0.71197321279E+03  0.71623804452E+03  0.00000000000E+00 0. -1.
<scales pt_clust_3="40.62828" pt_clust_4="40.62828" pt_clust_5="56.47607" pt_clust_6="81.61854"></scales>
<clustering>
<clus scale="   40.628">  3  4 -1 -1</clus>
<clus scale="   56.476">  1  5  2 -1</clus>
<clus scale="   81.619">  2  6  1 -1</clus>
<clus scale="   56.476">  1  3  2 -1</clus>
</clustering>
</event>
<event>
 6    0  0.3643696E+002  0.1087067E+03  0.7546771E-02  0.1262984E+00
         21   -1    0    0  504  502  0.00000000000E+00  0.00000000000E+00  0.82041091554E+02  0.82041091554E+02  0.00000000000E+00 0. -1.
          1   -1    0    0  503    0 -0.00000000000E+00 -0.00000000000E+00 -0.90333991296E+03  0.90333991296E+03  0.00000000000E+00 0. -1.
         21    1    1    2  503  502  0.29272903858E+02  0.37151389440E+02 -0.16120489452E+03  0.16800043648E+03  0.00000000000E+00 0. -1.
         21    1    1    2  504  505 -0.44865271251E+01 -0.60595927536E+02  0.35316284447E+02  0.70279693416E+02  0.00000000000E+00 0. -1.
         21    1    1    2  505  501 -0.11211725954E+03  0.36714069867E+02 -0.13295046791E+03  0.17774709486E+03  0.00000000000E+00 0. -1.
          1    1    1    2  501    0  0.87330882806E+02 -0.13269531772E+02 -0.56245974342E+03  0.56935377976E+03  0.00000000000E+00 0. -1.
<scales pt_clust_3="47.29829" pt_clust_4="59.83715" pt_clust_5="14000.00000" pt_clust_6="108.70673"></scales>
<clustering>
<clus scale="   47.298">  2  3  1 -1</clus>
<clus scale="   59.837">  1  4  2 -1</clus>
<clus scale="  108.707">  2  6  1 -1</clus>
<clus scale="   59.837">  1  3  2 -1</clus>
</clustering>
</event>
<event>
 6    0  0.3643696E+002  0.8581258E+02  0.7546771E-02  0.1313321E+00
         21   -1    0    0  504  502  0.00000000000E+00  0.00000000000E+00  0.83819688084E+02  0.83819688084E+02  0.00000000000E+00 0. -1.
         -4   -1    0    0    0  501 -0.00000000000E+00 -0.00000000000E+00 -0.58420505260E+03  0.58420505260E+03  0.00000000000E+00 0.  1.
         21    1    1    2  503  501  0.13581289223E+02 -0.41974190136E+02 -0.20068498005E+03  0.20547687284E+03  0.00000000000E+00 0. -1.
         21    1    1    2  504  505 -0.79805389168E+01 -0.38054311551E+02  0.50522808989E+02  0.63752441971E+02  0.00000000000E+00 0. -1.
         21    1    1    2  505  503  0.79733973591E+02  0.67211820906E+02 -0.18337018118E+03  0.21094918525E+03  0.00000000000E+00 0. -1.
         -4    1    1    2    0  502 -0.85334723897E+02  0.12816680782E+02 -0.16685301228E+03  0.18784624062E+03  0.00000000000E+00 0.  1.
<scales pt_clust_3="47.17914" pt_clust_4="38.88212" pt_clust_5="14000.00000" pt_clust_6="85.81258"></scales>
<clustering>
<clus scale="   38.882">  1  4  2 -1</clus>
<clus scale="   47.179">  2  3  1 -1</clus>
<clus scale="   85.813">  2  6  1 -1</clus>
<clus scale="   38.882">  1  3  2 -1</clus>
</clustering>
</event>
<event>
 6    0  0.3643696E+002  0.1831212E+03  0.7546771E-02  0.1164816E+00
         21   -1    0    0  503  502  0.00000000000E+00  0.00000000000E+00  0.31590040457E+03  0.31590040457E+03  0.00000000000E+00 0.  1.
          4   -1    0    0  505    0 -0.00000000000E+00 -0.00000000000E+00 -0.21891019195E+03  0.21891019195E+03  0.00000000000E+00 0.  1.
         21    1    1    2  503  504  0.10251803647E+03 -0.13548546679E+03  0.17019967086E+03  0.24048739567E+03  0.00000000000E+00 0.  1.
         21    1    1    2  504  501  0.16305298861E+02  0.34707146027E+02 -0.20215778037E+02  0.43348892003E+02  0.00000000000E+00 0.  1.
         21    1    1    2  505  502 -0.69273557265E+02 -0.45195480053E+02 -0.50279640876E+02  0.96796174718E+02  0.00000000000E+00 0.  1.
          4    1    1    2  501    0 -0.49549778070E+02  0.14597380082E+03 -0.27140393252E+01  0.15417813412E+03  0.00000000000E+00 0.  1.
<scales pt_clust_3="169.68504" pt_clust_4="34.33918" pt_clust_5="82.71310" pt_clust_6="34.33918"></scales>
<clustering>
<clus scale="   34.339">  4  6 -1 -1</clus>
<clus scale="   82.713">  2  5  1 -1</clus>
<clus scale="  169.685">  1  3  2 -1</clus>
<clus scale="  169.685">  1  3  2 -1</clus>
</clustering>
</event>
<event>
 6    0  0.3643696E+002  0.1709958E+03  0.7546771E-02  0.1176813E+00
         21   -1    0    0  505  502  0.00000000000E+00  0.00000000000E+00  0.12105984520E+03  0.12105984520E+03  0.00000000000E+00 0.  1.
          2   -1    0    0  503    0 -0.00000000000E+00 -0.00000000000E+00 -0.20370072596E+04  0.20370072596E+04  0.00000000000E+00 0. -1.
         21    1    1    2  503  504  0.14337086805E+03  0.50396354544E+02 -0.77605171501E+03  0.79079154189E+03  0.00000000000E+00 0. -1.
         21    1    1    2  504  502  0.19918400924E+02 -0.24580096110E+02  0.10507918923E+03  0.10973859772E+03  0.00000000000E+00 0.  1.
         21    1    1    2  505  501 -0.45916567169E+02 -0.15910887956E+02 -0.19449864822E+03  0.20047745922E+03  0.00000000000E+00 0. -1.
          2    1    1    2  501    0 -0.11737270180E+03 -0.99053704774E+01 -0.10504762404E+04  0.10570595060E+04  0.00000000000E+00 0. -1.
<scales pt_clust_3="158.53293" pt_clust_4="31.63738" pt_clust_5="41.07172" pt_clust_6="41.07172"></scales>
<clustering>
<clus scale="   31.637">  1  4  2 -1</clus>
<clus scale="   41.072">  5  6 -1 -1</clus>
<clus scale="  158.533">  1  3  2 -1</clus>
<clus scale="   31.637">  1  3  2 -1</clus>
</clustering>
</event>
<event>
 6    0  0.3643696E+002  0.7999847E+02  0.7546771E-02  0.1329056E+00
          2   -1    0    0  503    0 -0.00000000000E+00  0.00000000000E+00  0.15762544043E+04  0.15762544043E+04  0.00000000000E+00 0.  1.
         21   -1    0    0  504  502  0.00000000000E+00 -0.00000000000E+00 -0.69434157115E+03  0.69434157115E+03  0.00000000000E+00 0. -1.
         21    1    1    2  503  505 -0.11209048420E+03 -0.27715917560E+02  0.47207820182E+03  0.48599411248E+03  0.00000000000E+00 0. -1.
         21    1    1    2  504  501  0.54003083660E+02 -0.26324169358E+02  0.29419293789E+02  0.66893869557E+02  0.00000000000E+00 0.  1.
         21    1    1    2  505  502  0.17613166336E+02  0.78179399467E+02 -0.66571274431E+03  0.67051897816E+03  0.00000000000E+00 0. -1.
          2    1    1    2  501    0  0.40474234201E+02 -0.24139312549E+02  0.10461280819E+04  0.10471890153E+04  0.00000000000E+00 0.  1.
<scales pt_clust_3="14000.00000" pt_clust_4="64.34845" pt_clust_5="79.99847" pt_clust_6="47.12611"></scales>
<clustering>
<clus scale="   47.126">  1  6  2 -1</clus>
<clus scale="   64.348">  1  4  2 -1</clus>
<clus scale="   79.998">  2  5  1 -1</clus>
<clus scale="   79.998">  2  3  1 -1</clus>
</clustering>
</event>
<event>
 6    0  0.3643696E+002  0.6810089E+02  0.7546771E-02  0.1366673E+00
          2   -1    0    0  503    0 -0.00000000000E+00  0.00000000000E+00  0.15220113781E+04  0.15220113781E+04  0.00000000000E+00 0. -1.
         21   -1    0    0  504  502  0.00000000000E+00 -0.00000000000E+00 -0.67918807846E+02  0.67918807846E+02  0.00000000000E+00 0.  1.
         21    1    1    2  503  505  0.63884706116E+01  0.12547614168E+03  0.54228143033E+03  0.55664551051E+03  0.00000000000E+00 0.  1.
         21    1    1    2  504  501 -0.35490985958E+02 -0.47919029912E+02  0.21221596370E+03  0.22043470408E+03  0.00000000000E+00 0.  1.
         21    1    1    2  505  502  0.34659807917E+02 -0.18965041127E+02 -0.48436476453E+02  0.62506538226E+02  0.00000000000E+00 0.  1.
          2    1    1    2  501    0 -0.55572925706E+01 -0.58592070641E+02  0.74803165262E+03  0.75034343308E+03  0.00000000000E+00 0. -1.
<scales pt_clust_3="14000.00000" pt_clust_4="59.27744" pt_clust_5="39.50918" pt_clust_6="68.10089"></scales>
<clustering>
<clus scale="   39.509">  2  5  1 -1</clus>
<clus scale="   59.277">  2  4  1 -1</clus>
<clus scale="   68.101">  1  6  2 -1</clus>
<clus scale="   39.509">  2  3  1 -1</clus>
</clustering>
</event>
<event>
 6    0  0.3643696E+002  0.1202879E+03  0.7546771E-02  0.1242623E+00
         21   -1    0    0  505  502  0.00000000000E+00  0.00000000000E+00  0.23171368168E+02  0.23171368168E+02  0.00000000000E+00 0.  1.
          2   -1    0    0  503    0 -0.00000000000E+00 -0.00000000000E+00 -0.19450207341E+04  0.19450207341E+04  0.00000000000E+00 0. -1.
         21    1    1    2  503  504 -0.80009739138E+01  0.29280164872E+02 -0.13348926694E+04  0.13352377250E+04  0.00000000000E+00 0. -1.
         21    1    1    2  504  502  0.75489865525E+02 -0.98061151236E+02 -0.23629117709E+03  0.26673625466E+03  0.00000000000E+00 0.  1.
         21    1    1    2  505  501 -0.48601696610E+02  0.24699791534E+02 -0.14183716419E+03  0.15195389353E+03  0.00000000000E+00 0.  1.
          2    1    1    2  501    0 -0.18887195001E+02  0.44081194829E+02 -0.20882835527E+03  0.21426422902E+03  0.00000000000E+00 0. -1.
<scales pt_clust_3="30.35364" pt_clust_4="112.27356" pt_clust_5="42.70869" pt_clust_6="42.70869"></scales>
<clustering>
<clus scale="   30.354">  2  3  1 -1</clus>
<clus scale="   42.709">  5  6 -1 -1</clus>
<clus scale="  112.274">  1  4  2 -1</clus>
<clus scale="  112.274">  1  3  2 -1</clus>
</clustering>
</event>
<event>
 6    0  0.3643696E+002  0.1802108E+03  0.7546771E-02  0.1167599E+00
         21   -1    0    0  505  502  0.00000000000E+00  0.00000000000E+00  0.91319673182E+02  0.91319673182E+02  0.00000000000E+00 0. -1.
          2   -1    0    0  504    0 -0.00000000000E+00 -0.00000000000E+00 -0.30812112438E+04  0.30812112438E+04  0.00000000000E+00 0.  1.
         21    1    1    2  503  501  0.41084759916E+02  0.67361427345E+02 -0.80014419786E+03  0.80402503491E+03  0.00000000000E+00 0.  1.
         21    1    1    2  504  502 -0.50149306875E+02 -0.12594214194E+03  0.25958076301E+02  0.13802245405E+03  0.00000000000E+00 0. -1.
         21    1    1    2  505  503 -0.57564285212E+02  0.32469328773E+01 -0.12147950604E+03  0.13446731905E+03  0.00000000000E+00 0. -1.
          2    1    1    2  501    0  0.66628832172E+02  0.55333781714E+02 -0.20942259430E+04  0.20960161090E+04  0.00000000000E+00 0.  1.
<scales pt_clust_3="75.07773" pt_clust_4="162.08686" pt_clust_5="57.65578" pt_clust_6="75.07773"></scales>
<clustering>
<clus scale="   57.656">  1  5  2 -1</clus>
<clus scale="   75.078">  3  6 -1 -1</clus>
<clus scale="  162.087">  1  4  2 -1</clus>
<clus scale="   57.656">  1  3  2 -1</clus>
</clustering>
</event>
<event>
 6    0  0.3643696E+002  0.1748315E+03  0.7546771E-02  0.1172901E+00
         21   -1    0    0  505  502  0.00000000000E+00  0.00000000000E+00  0.37938688379E+03  0.37938688379E+03  0.00000000000E+00 0.  1.
          2   -1    0    0  503    0 -0.00000000000E+00 -0.00000000000E+00 -0.12285774716E+03  0.12285774716E+03  0.00000000000E+00 0. -1.
         21    1    1    2  503  504 -0.65884601474E+02  0.52906653258E+02  0.31540505959E+02  0.90192561703E+02  0.00000000000E+00 0. -1.
         21    1    1    2  504  502 -0.57301427024E+02 -0.15604386991E+03  0.13185583788E+03  0.21217706016E+03  0.00000000000E+00 0.  1.
         21    1    1    2  505  501  0.78244932887E+02  0.39257076444E+02  0.13935752021E+02  0.88643063788E+02  0.00000000000E+00 0. -1.
          2    1    1    2  501    0  0.44941095611E+02  0.63880140207E+02  0.79197040779E+02  0.11123194530E+03  0.00000000000E+00 0. -1.
<scales pt_clust_3="84.49790" pt_clust_4="158.43564" pt_clust_5="69.82292" pt_clust_6="69.82292"></scales>
<clustering>
<clus scale="   69.823">  5  6 -1 -1</clus>
<clus scale="   84.498">  2  3  1 -1</clus>
<clus scale="  158.436">  1  4  2 -1</clus>
<clus scale="  158.436">  1  3  2 -1</clus>
</clustering>
</event>
<event>
 6    0  0.3643696E+002  0.9771279E+02  0.7546771E-02  0.1285180E+00
          2   -1    0    0  504    0 -0.00000000000E+00  0.00000000000E+00  0.15631002256E+04  0.15631002256E+04  0.00000000000E+00 0.  1.
         21   -1    0    0  503  502  0.00000000000E+00 -0.00000000000E+00 -0.66139407879E+02  0.66139407879E+02  0.00000000000E+00 0.  1.
         21    1    1    2  503  501 -0.37738958878E+02  0.45977696136E+01  0.72803788394E+02  0.82132576407E+02  0.00000000000E+00 0.  1.
         21    1    1    2  504  505  0.95394754931E+02 -0.36597094303E+02  0.11621957113E+03  0.15474655180E+03  0.00000000000E+00 0.  1.
         21    1    1    2  505  502  0.19143298533E+02 -0.28369242367E+02 -0.33193334417E+02  0.47676799818E+02  0.00000000000E+00 0.  1.
          2    1    1    2  501    0 -0.76799094586E+02  0.60368567056E+02  0.13411307926E+04  0.13446837054E+04  0.00000000000E+00 0.  1.
<scales pt_clust_3="34.26957" pt_clust_4="97.71279" pt_clust_5="34.22397" pt_clust_6="14000.00000"></scales>
<clustering>
<clus scale="   34.224">  2  5  1 -1</clus>
<clus scale="   34.270">  2  3  1 -1</clus>
<clus scale="   97.713">  2  4  1 -1</clus>
<clus scale="   34.224">  2  3  1 -1</clus>
</clustering>
</event>
<event>
 6    0  0.3643696E+002  0.2776555E+03  0.7546771E-02  0.1096976E+00
         21   -1    0    0  504  502  0.00000000000E+00  0.00000000000E+00  0.17816308797E+03  0.17816308797E+03  0.00000000000E+00 0.  1.
          2   -1    0    0  503    0 -0.00000000000E+00 -0.00000000000E+00 -0.14402733649E+04  0.14402733649E+04  0.00000000000E+00 0. -1.
         21    1    1    2  503  505 -0.12020941748E+03  0.13024175119E+02 -0.19865238367E+03  0.23255688063E+03  0.00000000000E+00 0. -1.
         21    1    1    2  504  501  0.12711192972E+02  0.77983062651E+02 -0.21967950439E+03  0.23345667079E+03  0.00000000000E+00 0.  1.
         21    1    1    2  505  502  0.87204071864E+02 -0.26003007306E+03  0.17175127604E+02  0.27480024391E+03  0.00000000000E+00 0.  1.
          2    1    1    2  501    0  0.20294152646E+02  0.16902283529E+03 -0.86095351643E+03  0.87762265749E+03  0.00000000000E+00 0. -1.
<scales pt_clust_3="120.91292" pt_clust_4="46.34793" pt_clust_5="269.19197" pt_clust_6="46.34793"></scales>
<clustering>
<clus scale="   46.348">  4  6 -1 -1</clus>
<clus scale="  120.913">  2  3  1 -1</clus>
<clus scale="  269.192">  1  5  2 -1</clus>
<clus scale="  269.192">  1  3  2 -1</clus>
</clustering>
</event>
<event>
 6    0  0.3643696E+002  0.1201881E+03  0.7546771E-02  0.1242787E+00
         21   -1    0    0  504  502  0.00000000000E+00  0.00000000000E+00  0.67912294782E+02  0.67912294782E+02  0.00000000000E+00 0. -1.
          2   -1    0    0  505    0 -0.00000000000E+00 -0.00000000000E+00 -0.25805778675E+04  0.25805778675E+04  0.00000000000E+00 0. -1.
         21    1    1    2  503  502 -0.14793963661E+03 -0.26244162750E+02 -0.27180427891E+02  0.15268813909E+03  0.00000000000E+00 0. -1.
         21    1    1    2  504  501  0.25625481329E+02  0.20620182009E+02 -0.91057771626E+02  0.96816191688E+02  0.00000000000E+00 0.  1.
         21    1    1    2  505  503  0.45469477263E+02  0.61574606692E+01 -0.33529914629E+03  0.33842414983E+03  0.00000000000E+00 0. -1.
          2    1    1    2  501    0  0.76844678013E+02 -0.53347992848E+00 -0.20591282269E+04  0.20605616817E+04  0.00000000000E+00 0. -1.
<scales pt_clust_3="14000.00000" pt_clust_4="32.89160" pt_clust_5="46.56289" pt_clust_6="120.18806"></scales>
<clustering>
<clus scale="   32.892">  1  4  2 -1</clus>
<clus scale="   46.563">  2  5  1 -1</clus>
<clus scale="  120.188">  2  6  1 -1</clus>
<clus scale="   32.892">  1  3  2 -1</clus>
</clustering>
</event>
<event>
 6    0  0.3643696E+002  0.2310141E+03  0.7546771E-02  0.1125928E+00
         -1   -1    0    0    0  501 -0.00000000000E+00  0.00000000000E+00  0.15805881490E+04  0.15805881490E+04  0.00000000000E+00 0. -1.
         21   -1    0    0  504  502  0.00000000000E+00 -0.00000000000E+00 -0.26562380533E+03  0.26562380533E+03  0.00000000000E+00 0.  1.
         21    1    1    2  503  502 -0.58171047875E+02  0.13528249773E+02 -0.18152791965E+03  0.19110015689E+03  0.00000000000E+00 0.  1.
         21    1    1    2  504  505 -0.17688335390E+03  0.54359409199E+02  0.91471740837E+02  0.20642128191E+03  0.00000000000E+00 0.  1.
         21    1    1    2  505  501 -0.23381985369E+02 -0.48681088499E+02  0.61248916408E+03  0.61486546637E+03  0.00000000000E+00 0.  1.
         -1    1    1    2    0  503  0.25843638714E+03 -0.19206570474E+02  0.79253135837E+03  0.83382504913E+03  0.00000000000E+00 0. -1.
<scales pt_clust_3="59.78212" pt_clust_4="231.01409" pt_clust_5="54.00524" pt_clust_6="14000.00000"></scales>
<clustering>
<clus scale="   54.005">  1  5  2 -1</clus>
<clus scale="   59.782">  2  3  1 -1</clus>
<clus scale="  231.014">  2  4  1 -1</clus>
<clus scale="   59.782">  2  3  1 -1</clus>
</clustering>
</event>
<event>
 6    0  0.3643696E+002  0.8737218E+02  0.7546771E-02  0.1309343E+00
         21   -1    0    0  505  502  0.00000000000E+00  0.00000000000E+00  0.15123394940E+03  0.15123394940E+03  0.00000000000E+00 0.  1.
          4   -1    0    0  503    0 -0.00000000000E+00 -0.00000000000E+00 -0.46822935073E+03  0.46822935073E+03  0.00000000000E+00 0.  1.
         21    1    1    2  503  504  0.28441793485E+02  0.99454891661E+01 -0.31596998490E+03  0.31740333919E+03  0.00000000000E+00 0.  1.
         21    1    1    2  504  502  0.30377750089E+02  0.44209992755E+02 -0.40119357702E+02  0.66984281904E+02  0.00000000000E+00 0.  1.
         21    1    1    2  505  501 -0.85824390215E+02  0.35608774292E+02  0.89184580676E+02  0.12879324591E+03  0.00000000000E+00 0.  1.
          4    1    1    2  501    0  0.27004846641E+02 -0.89764256213E+02 -0.50090639408E+02  0.10628243313E+03  0.00000000000E+00 0.  1.
<scales pt_clust_3="30.13052" pt_clust_4="62.54669" pt_clust_5="87.37218" pt_clust_6="14000.00000"></scales>
<clustering>
<clus scale="   30.131">  2  3  1 -1</clus>
<clus scale="   62.547">  2  4  1 -1</clus>
<clus scale="   87.372">  1  5  2 -1</clus>
<clus scale="   87.372">  1  3  2 -1</clus>
</clustering>
</event>
<event>
 6    0  0.3643696E+002  0.1306179E+03  0.7546771E-02  0.1226542E+00
         21   -1    0    0  501  502  0.00000000000E+00  0.00000000000E+00  0.70221236024E+02  0.70221236024E+02  0.00000000000E+00 0.  1.
          1   -1    0    0  505    0 -0.00000000000E+00 -0.00000000000E+00 -0.23251302452E+04  0.23251302452E+04  0.00000000000E+00 0.  1.
         21    1    1    2  503  502 -0.26075228024E+02 -0.28786758349E+02  0.35117946174E+02  0.52362821890E+02  0.00000000000E+00 0.  1.
         21    1    1    2  504  503 -0.44438389820E+01 -0.59039873960E+02 -0.13582204680E+03  0.14816572754E+03  0.00000000000E+00 0.  1.
         21    1    1    2  505  504 -0.10057669706E+03  0.49813646187E+02 -0.15718067278E+03  0.19313941916E+03  0.00000000000E+00 0.  1.
          1    1    1    2  501    0  0.13109576407E+03  0.38012986122E+02 -0.19970242358E+04  0.20016835126E+04  0.00000000000E+00 0.  1.
<scales pt_clust_3="38.84064" pt_clust_4="66.58562" pt_clust_5="14000.00000" pt_clust_6="130.61785"></scales>
<clustering>
<clus scale="   38.841">  1  3  2 -1</clus>
<clus scale="   66.586">  1  4  2 -1</clus>
<clus scale="  130.618">  2  6  1 -1</clus>
<clus scale="   38.841">  1  3  2 -1</clus>
</clustering>
</event>
<event>
 6    0  0.3643696E+002  0.9512696E+02  0.7546771E-02  0.1290890E+00
         21   -1    0    0  503  502  0.00000000000E+00  0.00000000000E+00  0.24311758715E+02  0.24311758715E+02  0.00000000000E+00 0.  1.
         -1   -1    0    0    0  501 -0.00000000000E+00 -0.00000000000E+00 -0.15325065263E+04  0.15325065263E+04  0.00000000000E+00 0.  1.
         21    1    1    2  503  504 -0.47700244064E+02 -0.15397318486E+02 -0.48993475463E+02  0.70091021809E+02  0.00000000000E+00 0.  1.
         21    1    1    2  504  501 -0.64017653601E+02 -0.54022774099E+02 -0.40484533647E+03  0.41342044768E+03  0.00000000000E+00 0.  1.
         21    1    1    2  505  502  0.24261782005E+01  0.55335307070E+02 -0.11647144451E+03  0.12897084917E+03  0.00000000000E+00 0.  1.
         -1    1    1    2    0  505  0.10929171946E+03  0.14084785515E+02 -0.93788451113E+03  0.94433596636E+03  0.00000000000E+00 0.  1.
<scales pt_clust_3="50.12375" pt_clust_4="95.12696" pt_clust_5="52.02929" pt_clust_6="14000.00000"></scales>
<clustering>
<clus scale="   50.124">  1  3  2 -1</clus>
<clus scale="   52.029">  1  5  2 -1</clus>
<clus scale="   95.127">  1  4  2 -1</clus>
<clus scale="   50.124">  1  3  2 -1</clus>
</clustering>
</event>
<event>
 6    0  0.3643696E+002  0.7349248E+02  0.7546771E-02  0.1348604E+00
         21   -1    0    0  503  502  0.00000000000E+00  0.00000000000E+00  0.10808986976E+03  0.10808986976E+03  0.00000000000E+00 0.  1.
          2   -1    0    0  505    0 -0.00000000000E+00 -0.00000000000E+00 -0.77289233953E+03  0.77289233953E+03  0.00000000000E+00 0. -1.
         21    1    1    2  503  504  0.32764365471E+02 -0.68313422167E+02  0.70688404316E+02  0.10361987163E+03  0.00000000000E+00 0.  1.
         21    1    1    2  504  501  0.49112175195E+02  0.15411472616E+02 -0.22237376964E+03  0.22825339574E+03  0.00000000000E+00 0.  1.
         21    1    1    2  505  502 -0.91341574040E+02  0.13343991789E+02 -0.10851302592E+03  0.14246551182E+03  0.00000000000E+00 0.  1.
          2    1    1    2  501    0  0.94650333741E+01  0.39557957762E+02 -0.40460407853E+03  0.40664343010E+03  0.00000000000E+00 0. -1.
<scales pt_clust_3="73.49248" pt_clust_4="67.75362" pt_clust_5="14000.00000" pt_clust_6="40.67455"></scales>
<clustering>
<clus scale="   40.675">  2  6  1 -1</clus>
<clus scale="   67.754">  2  4  1 -1</clus>
<clus scale="   73.492">  1  3  2 -1</clus>
<clus scale="   73.492">  1  3  2 -1</clus>
</clustering>
</event>
<event>
 6    0  0.3643696E+002  0.1052692E+03  0.7546771E-02  0.1269590E+00
         21   -1    0    0  501  502  0.00000000000E+00  0.00000000000E+00  0.31945756735E+02  0.31945756735E+02  0.00000000000E+00 0. -1.
          2   -1    0    0  504    0 -0.00000000000E+00 -0.00000000000E+00 -0.11015799245E+04  0.11015799245E+04  0.00000000000E+00 0. -1.
         21    1    1    2  503  502 -0.38978342974E+02  0.13939290196E+02 -0.19285380656E+02  0.45667723167E+02  0.00000000000E+00 0. -1.
         21    1    1    2  504  505  0.61074827294E+01  0.37253685846E+02 -0.39550876920E+03  0.39730633643E+03  0.00000000000E+00 0. -1.
         21    1    1    2  505  503  0.65867140761E+02 -0.12332571820E+03 -0.41001354475E+03  0.43319605248E+03  0.00000000000E+00 0. -1.
          2    1    1    2  501    0 -0.32996280517E+02  0.72132742161E+02 -0.24482647319E+03  0.25735556919E+03  0.00000000000E+00 0. -1.
<scales pt_clust_3="41.74376" pt_clust_4="37.75101" pt_clust_5="14000.00000" pt_clust_6="105.26924"></scales>
<clustering>
<clus scale="   37.751">  2  4  1 -1</clus>
<clus scale="   41.744">  1  3  2 -1</clus>
<clus scale="  105.269">  2  6  1 -1</clus>
<clus scale="   41.744">  1  3  2 -1</clus>
</clustering>
</event>
<event>
 6    0  0.3643696E+002  0.1007264E+03  0.7546771E-02  0.1278776E+00
         -1   -1    0    0    0  501 -0.00000000000E+00  0.00000000000E+00  0.21355348557E+04  0.21355348557E+04  0.00000000000E+00 0. -1.
         21   -1    0    0  504  502  0.00000000000E+00 -0.00000000000E+00 -0.20698403839E+03  0.20698403839E+03  0.00000000000E+00 0.  1.
         21    1    1    2  503  502  0.44885109445E+02  0.20324374841E+02 -0.19226466533E+03  0.19847784460E+03  0.00000000000E+00 0.  1.
         21    1    1    2  504  501  0.34583989116E+02 -0.28394020486E+02  0.53929917690E+03  0.54115235831E+03  0.00000000000E+00 0. -1.
         21    1    1    2  505  503  0.61027467000E+02  0.17909767077E+02  0.13175978644E+03  0.14630704975E+03  0.00000000000E+00 0.  1.
         -1    1    1    2    0  505 -0.14049656556E+03 -0.98401214316E+01  0.14497565193E+04  0.14565816414E+04  0.00000000000E+00 0. -1.
<scales pt_clust_3="49.31084" pt_clust_4="44.74676" pt_clust_5="100.72638" pt_clust_6="14000.00000"></scales>
<clustering>
<clus scale="   44.747">  1  4  2 -1</clus>
<clus scale="   49.311">  2  3  1 -1</clus>
<clus scale="  100.726">  2  5  1 -1</clus>
<clus scale="   49.311">  2  3  1 -1</clus>
</clustering>
</event>
<event>
 6    0  0.3643696E+002  0.1293595E+03  0.7546771E-02  0.1228409E+00
          1   -1    0    0  503    0 -0.00000000000E+00  0.00000000000E+00  0.60793047532E+03  0.60793047532E+03  0.00000000000E+00 0. -1.
         21   -1    0    0  505  502  0.00000000000E+00 -0.00000000000E+00 -0.42183751150E+03  0.42183751150E+03  0.00000000000E+00 0. -1.
         21    1    1    2  503  502 -0.94240736224E+02 -0.18679066206E+02  0.30451165854E+03  0.31930796117E+03  0.00000000000E+00 0. -1.
         21    1    1    2  504  501  0.11050954106E+03  0.36283198124E+02  0.11221941706E+02  0.11685358834E+03  0.00000000000E+00 0. -1.
         21    1    1    2  505  504  0.13949287123E+01  0.84809138340E+02 -0.34457726695E+03  0.35486339438E+03  0.00000000000E+00 0. -1.
          1    1    1    2  501    0 -0.17663733552E+02 -0.10241327026E+03  0.21493663053E+03  0.23874304294E+03  0.00000000000E+00 0. -1.
<scales pt_clust_3="14000.00000" pt_clust_4="129.35950" pt_clust_5="84.82061" pt_clust_6="90.11757"></scales>
<clustering>
<clus scale="   84.821">  2  5  1 -1</clus>
<clus scale="   90.118">  1  6  2 -1</clus>
<clus scale="  129.359">  2  4  1 -1</clus>
<clus scale="   84.821">  2  3  1 -1</clus>
</clustering>
</event>
<event>
 6    0  0.3643696E+002  0.2132230E+03  0.7546771E-02  0.1139039E+00
         21   -1    0    0  504  502  0.00000000000E+00  0.00000000000E+00  0.10061127650E+03  0.10061127650E+03  0.00000000000E+00 0. -1.
          2   -1    0    0  503    0 -0.00000000000E+00 -0.00000000000E+00 -0.33971673173E+04  0.33971673173E+04  0.00000000000E+00 0.  1.
         21    1    1    2  503  505  0.17826366464E+02 -0.33228426760E+02 -0.38465873333E+03  0.38650258577E+03  0.00000000000E+00 0. -1.
         21    1    1    2  504  501 -0.11879139858E+03 -0.17724634657E+03 -0.44980881999E+02  0.21806178825E+03  0.00000000000E+00 0. -1.
         21    1    1    2  505  502 -0.10263932986E+03  0.94980289309E+02 -0.71059573706E+03  0.72422537164E+03  0.00000000000E+00 0.  1.
          2    1    1    2  501    0  0.20360436198E+03  0.11549448402E+03 -0.21563206884E+04  0.21689888481E+04  0.00000000000E+00 0.  1.
<scales pt_clust_3="37.70819" pt_clust_4="14000.00000" pt_clust_5="131.38267" pt_clust_6="213.22302"></scales>
<clustering>
<clus scale="   37.708">  2  3  1 -1</clus>
<clus scale="  131.383">  2  5  1 -1</clus>
<clus scale="  213.223">  2  6  1 -1</clus>
<clus scale="  213.223">  1  3  2 -1</clus>
</clustering>
</event>
<event>
 6    0  0.3643696E+002  0.4113824E+03  0.7546771E-02  0.1039908E+00
         21   -1    0    0  505  502  0.00000000000E+00  0.00000000000E+00  0.98927890794E+02  0.98927890794E+02  0.00000000000E+00 0.  1.
          2   -1    0    0  502    0 -0.00000000000E+00 -0.00000000000E+00 -0.30520134964E+04  0.30520134964E+04  0.00000000000E+00 0.  1.
         21    1    1    2  503  504  0.19499840052E+03 -0.13277125766E+03 -0.11393950171E+04  0.11635607367E+04  0.00000000000E+00 0.  1.
         21    1    1    2  504  501  0.18177150237E+02 -0.44520588326E+02 -0.32197778785E+03  0.32554905536E+03  0.00000000000E+00 0. -1.
         21    1    1    2  505  503 -0.28709935108E+03  0.24824972933E+03 -0.35239525690E+03  0.51791542030E+03  0.00000000000E+00 0.  1.
          2    1    1    2  501    0  0.73923800321E+02 -0.70957883345E+02 -0.11393175437E+04  0.11439161748E+04  0.00000000000E+00 0.  1.
<scales pt_clust_3="114.68291" pt_clust_4="31.58804" pt_clust_5="379.54442" pt_clust_6="114.68291"></scales>
<clustering>
<clus scale="   31.588">  4  6 -1 -1</clus>
<clus scale="  114.683">  3  4 -1 -1</clus>
<clus scale="  379.544">  1  5  2 -1</clus>
<clus scale="  379.544">  1  3  2 -1</clus>
</clustering>
</event>
<event>
 6    0  0.6166078E+002  0.7556325E+02  0.7546771E-02  0.1342136E+00
          2   -1    0    0  504    0 -0.00000000000E+00  0.00000000000E+00  0.29658537301E+04  0.29658537301E+04  0.00000000000E+00 0.  1.
         21   -1    0    0  503  502  0.00000000000E+00 -0.00000000000E+00 -0.12990885037E+04  0.12990885037E+04  0.00000000000E+00 0. -1.
         21    1    1    2  503  501 -0.24998475577E+02 -0.48674079250E+02 -0.12842353109E+04  0.12854004915E+04  0.00000000000E+00 0. -1.
         21    1    1    2  504  505 -0.27676067317E+02 -0.16846077855E+02  0.40297690630E+03  0.40427730836E+03  0.00000000000E+00 0.  1.
         21    1    1    2  505  502  0.41519300363E+02  0.12025296425E+03  0.29152569237E+03  0.31807523799E+03  0.00000000000E+00 0.  1.
          2    1    1    2  501    0  0.11155242531E+02 -0.54732807142E+02  0.22564979386E+04  0.22571891960E+04  0.00000000000E+00 0.  1.
<scales pt_clust_3="54.72456" pt_clust_4="32.39992" pt_clust_5="75.56325" pt_clust_6="14000.00000"></scales>
<clustering>
<clus scale="   32.400">  1  4  2 -1</clus>
<clus scale="   54.725">  2  3  1 -1</clus>
<clus scale="   75.563">  2  5  1 -1</clus>
<clus scale="   54.725">  2  3  1 -1</clus>
</clustering>
</event>
<event>
 6    0  0.3643696E+002  0.6398269E+02  0.7546771E-02  0.1381840E+00
         21   -1    0    0  503  502  0.00000000000E+00  0.00000000000E+00  0.52859331836E+03  0.52859331836E+03  0.00000000000E+00 0.  1.
          4   -1    0    0  504    0 -0.00000000000E+00 -0.00000000000E+00 -0.14344823660E+03  0.14344823660E+03  0.00000000000E+00 0.  1.
         21    1    1    2  503  505 -0.30785472866E+02  0.39353654806E+02  0.40977012875E+03  0.41280505557E+03  0.00000000000E+00 0.  1.
         21    1    1    2  504  502 -0.29721518210E+02  0.44159064603E+02  0.41526679509E+02  0.67511900746E+02  0.00000000000E+00 0.  1.
         21    1    1    2  505  501 -0.96083505128E+01 -0.77185099379E+02  0.20151952320E+02  0.80348995936E+02  0.00000000000E+00 0.  1.
          4    1    1    2  501    0  0.70115341588E+02 -0.63276200312E+01 -0.86303678823E+02  0.11137560271E+03  0.00000000000E+00 0.  1.
<scales pt_clust_3="49.96454" pt_clust_4="63.98269" pt_clust_5="64.49043" pt_clust_6="14000.00000"></scales>
<clustering>
<clus scale="   49.965">  1  3  2 -1</clus>
<clus scale="   64.490">  1  5  2 -1</clus>
<clus scale="   63.983">  1  4  2 -1</clus>
<clus scale="   49.965">  1  3  2 -1</clus>
</clustering>
</event>
<event>
 6    0  0.3643696E+002  0.1148930E+03  0.7546771E-02  0.1251768E+00
          2   -1    0    0  504    0 -0.00000000000E+00  0.00000000000E+00  0.42957272131E+04  0.42957272131E+04  0.00000000000E+00 0. -1.
         21   -1    0    0  503  502  0.00000000000E+00 -0.00000000000E+00 -0.37503465086E+03  0.37503465086E+03  0.00000000000E+00 0. -1.
         21    1    1    2  503  501  0.55938754321E+02  0.31177037853E+02 -0.35280868938E+03  0.35857373471E+03  0.00000000000E+00 0. -1.
         21    1    1    2  504  505 -0.55299792381E+01  0.33111858805E+02  0.19336813533E+03  0.19626057074E+03  0.00000000000E+00 0.  1.
         21    1    1    2  505  502 -0.38690083213E+02  0.85906364093E+02  0.11831301266E+03  0.15124415657E+03  0.00000000000E+00 0. -1.
          2    1    1    2  501    0 -0.11718691870E+02 -0.15019526075E+03  0.39618201036E+04  0.39646834020E+04  0.00000000000E+00 0. -1.
<scales pt_clust_3="64.04818" pt_clust_4="33.57046" pt_clust_5="114.89299" pt_clust_6="14000.00000"></scales>
<clustering>
<clus scale="   33.570">  1  4  2 -1</clus>
<clus scale="   64.048">  2  3  1 -1</clus>
<clus scale="  114.893">  2  5  1 -1</clus>
<clus scale="   64.048">  2  3  1 -1</clus>
</clustering>
</event>
<event>
 6    0  0.3643696E+002  0.8300165E+02  0.7546771E-02  0.1320743E+00
         21   -1    0    0  504  502  0.00000000000E+00  0.00000000000E+00  0.64318733656E+02  0.64318733656E+02  0.00000000000E+00 0.  1.
          2   -1    0    0  503    0 -0.00000000000E+00 -0.00000000000E+00 -0.50591535537E+03  0.50591535537E+03  0.00000000000E+00 0.  1.
         21    1    1    2  503  505 -0.69889027999E+02 -0.79162590438E+02 -0.17965396165E+03  0.20839082968E+03  0.00000000000E+00 0.  1.
         21    1    1    2  504  501  0.34658838487E+02 -0.12846448213E+02  0.23822326789E+02  0.43974646907E+02  0.00000000000E+00 0.  1.
         21    1    1    2  505  502 -0.26911188565E+02  0.51852641458E+02 -0.78923967377E+02  0.98193182669E+02  0.00000000000E+00 0.  1.
          2    1    1    2  501    0  0.62141378077E+02  0.40156397192E+02 -0.20684101947E+03  0.21967542976E+03  0.00000000000E+00 0.  1.
<scales pt_clust_3="83.00165" pt_clust_4="36.96304" pt_clust_5="50.37066" pt_clust_6="14000.00000"></scales>
<clustering>
<clus scale="   36.963">  1  4  2 -1</clus>
<clus scale="   50.371">  1  5  2 -1</clus>
<clus scale="   83.002">  1  3  2 -1</clus>
<clus scale="   36.963">  1  3  2 -1</clus>
</clustering>
</event>
<event>
 6    0  0.3643696E+002  0.7829929E+02  0.7546771E-02  0.1333948E+00
          2   -1    0    0  505    0 -0.00000000000E+00  0.00000000000E+00  0.15602013300E+04  0.15602013300E+04  0.00000000000E+00 0.  1.
         21   -1    0    0  501  502  0.00000000000E+00 -0.00000000000E+00 -0.17383750633E+03  0.17383750633E+03  0.00000000000E+00 0.  1.
         21    1    1    2  503  502  0.18511345512E+02  0.27674531720E+02 -0.15711530754E+03  0.16060438811E+03  0.00000000000E+00 0.  1.
         21    1    1    2  504  503  0.11700451359E+02  0.53413534916E+02  0.76972129073E+02  0.94417238512E+02  0.00000000000E+00 0.  1.
         21    1    1    2  505  504 -0.41135750105E+02  0.44439648248E+02  0.32651827630E+03  0.33208615905E+03  0.00000000000E+00 0.  1.
          2    1    1    2  501    0  0.10923953234E+02 -0.12552771488E+03  0.11399887259E+04  0.11469310507E+04  0.00000000000E+00 0.  1.
<scales pt_clust_3="33.29489" pt_clust_4="78.29929" pt_clust_5="62.28519" pt_clust_6="14000.00000"></scales>
<clustering>
<clus scale="   33.295">  2  3  1 -1</clus>
<clus scale="   62.285">  1  5  2 -1</clus>
<clus scale="   78.299">  2  4  1 -1</clus>
<clus scale="   33.295">  2  3  1 -1</clus>
</clustering>
</event>
<event>
 6    0  0.3643696E+002  0.1214365E+03  0.7546771E-02  0.1240746E+00
          2   -1    0    0  503    0 -0.00000000000E+00  0.00000000000E+00  0.49536875224E+04  0.49536875224E+04  0.00000000000E+00 0.  1.
         21   -1    0    0  501  502  0.00000000000E+00 -0.00000000000E+00 -0.13501092866E+02  0.13501092866E+02  0.00000000000E+00 0. -1.
         21    1    1    2  503  504  0.30632731421E+02 -0.60658120873E+02  0.13205642243E+04  0.13223114771E+04  0.00000000000E+00 0. -1.
         21    1    1    2  504  505 -0.22640400548E+02 -0.31927202265E+02  0.77427749671E+03  0.77526613230E+03  0.00000000000E+00 0. -1.
         21    1    1    2  505  502 -0.75251066571E+01 -0.33350507729E+02  0.16496198010E+02  0.37960613072E+02  0.00000000000E+00 0. -1.
          2    1    1    2  501    0 -0.46722421622E+00  0.12593583087E+03  0.28288485104E+04  0.28316503928E+04  0.00000000000E+00 0.  1.
<scales pt_clust_3="40.73279" pt_clust_4="40.73279" pt_clust_5="34.18894" pt_clust_6="109.14560"></scales>
<clustering>
<clus scale="   34.189">  2  5  1 -1</clus>
<clus scale="   40.733">  3  4 -1 -1</clus>
<clus scale="  109.146">  2  6  1 -1</clus>
<clus scale="   34.189">  2  3  1 -1</clus>
</clustering>
</event>
<event>
 6    0  0.3643696E+002  0.8345330E+02  0.7546771E-02  0.1319528E+00
         21   -1    0    0  501  502  0.00000000000E+00  0.00000000000E+00  0.64985887167E+03  0.64985887167E+03  0.00000000000E+00 0. -1.
          3   -1    0    0  504    0 -0.00000000000E+00 -0.00000000000E+00 -0.46659901619E+02  0.46659901619E+02  0.00000000000E+00 0. -1.
         21    1    1    2  503  502  0.20392112812E+02 -0.83558828472E+02  0.46567872752E+03  0.47355526958E+03  0.00000000000E+00 0. -1.
         21    1    1    2  504  505  0.12865240094E+02  0.30554448411E+02  0.13615803007E+02  0.35839626280E+02  0.00000000000E+00 0. -1.
         21    1    1    2  505  503  0.42920465714E+02  0.60163379323E+01  0.70915489654E+02  0.83110585199E+02  0.00000000000E+00 0. -1.
          3    1    1    2  501    0 -0.76177818620E+02  0.46988042129E+02  0.52988949869E+02  0.10401329223E+03  0.00000000000E+00 0. -1.
<scales pt_clust_3="83.45330" pt_clust_4="33.15251" pt_clust_5="46.51017" pt_clust_6="14000.00000"></scales>
<clustering>
<clus scale="   33.153">  2  4  1 -1</clus>
<clus scale="   46.510">  2  5  1 -1</clus>
<clus scale="   83.453">  1  3  2 -1</clus>
<clus scale="   83.453">  1  3  2 -1</clus>
</clustering>
</event>
<event>
 6    0  0.3643696E+002  0.2178238E+03  0.7546771E-02  0.1135516E+00
         21   -1    0    0  505  502  0.00000000000E+00  0.00000000000E+00  0.27466431124E+03  0.27466431124E+03  0.00000000000E+00 0.  1.
          2   -1    0    0  503    0 -0.00000000000E+00 -0.00000000000E+00 -0.15824969720E+04  0.15824969720E+04  0.00000000000E+00 0.  1.
         21    1    1    2  503  504 -0.31196558198E+01  0.36288374003E+02 -0.43660361479E+03  0.43812018305E+03  0.00000000000E+00 0.  1.
         21    1    1    2  504  502  0.22879502367E+03  0.92216821937E+01  0.20412030202E+03  0.30675283206E+03  0.00000000000E+00 0.  1.
         21    1    1    2  505  501 -0.14183796812E+03 -0.42868156455E+02 -0.32403974420E+03  0.35631088091E+03  0.00000000000E+00 0.  1.
          2    1    1    2  501    0 -0.83837399735E+02 -0.26418997421E+01 -0.75130960377E+03  0.75597738720E+03  0.00000000000E+00 0.  1.
<scales pt_clust_3="36.42222" pt_clust_4="14000.00000" pt_clust_5="217.82378" pt_clust_6="88.47790"></scales>
<clustering>
<clus scale="   36.422">  2  3  1 -1</clus>
<clus scale="   88.478">  2  6  1 -1</clus>
<clus scale="  217.824">  2  5  1 -1</clus>
<clus scale="  217.824">  1  3  2 -1</clus>
</clustering>
</event>
<event>
 6    0  0.3643696E+002  0.1838093E+03  0.7546771E-02  0.1164166E+00
          4   -1    0    0  503    0 -0.00000000000E+00  0.00000000000E+00  0.24654950312E+02  0.24654950312E+02  0.00000000000E+00 0. -1.
         21   -1    0    0  505  502  0.00000000000E+00 -0.00000000000E+00 -0.18541974651E+04  0.18541974651E+04  0.00000000000E+00 0. -1.
         21    1    1    2  503  502  0.11168407707E+03 -0.13409916423E+03 -0.51065044072E+03  0.53964784028E+03  0.00000000000E+00 0. -1.
         21    1    1    2  504  501 -0.73450490083E+02  0.53015713668E+02 -0.36579651140E+03  0.37684576174E+03  0.00000000000E+00 0. -1.
         21    1    1    2  505  504  0.33101141366E+02  0.18774292191E+02 -0.30960926812E+03  0.31193919041E+03  0.00000000000E+00 0. -1.
          4    1    1    2  501    0 -0.71334728347E+02  0.62309158370E+02 -0.64348629459E+03  0.65041962302E+03  0.00000000000E+00 0. -1.
<scales pt_clust_3="177.27395" pt_clust_4="47.62269" pt_clust_5="38.05469" pt_clust_6="47.62269"></scales>
<clustering>
<clus scale="   38.055">  2  5  1 -1</clus>
<clus scale="   47.623">  4  6 -1 -1</clus>
<clus scale="  177.274">  1  3  2 -1</clus>
<clus scale="   38.055">  2  3  1 -1</clus>
</clustering>
</event>
<event>
 6    0  0.3643696E+002  0.1361076E+03  0.7546771E-02  0.1218664E+00
          2   -1    0    0  504    0 -0.00000000000E+00  0.00000000000E+00  0.33359345293E+04  0.33359345293E+04  0.00000000000E+00 0. -1.
         21   -1    0    0  503  502  0.00000000000E+00 -0.00000000000E+00 -0.13884358104E+02  0.13884358104E+02  0.00000000000E+00 0. -1.
         21    1    1    2  503  505  0.28503959147E+02 -0.15164863990E+02  0.33249229320E+03  0.33405624350E+03  0.00000000000E+00 0. -1.
         21    1    1    2  504  502  0.38350435508E+02  0.45291806322E+01  0.35421751115E+02  0.52402002185E+02  0.00000000000E+00 0. -1.
         21    1    1    2  505  501  0.73714095432E+02  0.40330581301E+02  0.78859174748E+03  0.79305565243E+03  0.00000000000E+00 0. -1.
          2    1    1    2  501    0 -0.14056849009E+03 -0.29694897944E+02  0.21655443794E+04  0.21703049893E+04  0.00000000000E+00 0. -1.
<scales pt_clust_3="30.80719" pt_clust_4="38.61696" pt_clust_5="30.80719" pt_clust_6="126.70964"></scales>
<clustering>
<clus scale="   30.807">  3  5 -1 -1</clus>
<clus scale="   38.617">  2  4  1 -1</clus>
<clus scale="  126.710">  1  6  2 -1</clus>
<clus scale="   38.617">  2  3  1 -1</clus>
</clustering>
</event>
<event>
 6    0  0.3643696E+002  0.1024302E+03  0.7546771E-02  0.1275267E+00
          2   -1    0    0  503    0 -0.00000000000E+00  0.00000000000E+00  0.29558656834E+04  0.29558656834E+04  0.00000000000E+00 0. -1.
         21   -1    0    0  504  502  0.00000000000E+00 -0.00000000000E+00 -0.31441777825E+03  0.31441777825E+03  0.00000000000E+00 0.  1.
         21    1    1    2  503  505 -0.33619190573E+02  0.93548013212E+01  0.63267527554E+02  0.72253320514E+02  0.00000000000E+00 0.  1.
         21    1    1    2  504  501  0.42244870712E+02  0.52770779442E+02  0.48393629445E+03  0.48863454785E+03  0.00000000000E+00 0.  1.
         21    1    1    2  505  502 -0.85194310344E+02 -0.58069630402E+02 -0.29830402879E+03  0.31561914720E+03  0.00000000000E+00 0.  1.
          2    1    1    2  501    0  0.76568630206E+02 -0.40559503610E+01  0.23925481120E+04  0.23937764461E+04  0.00000000000E+00 0. -1.
<scales pt_clust_3="34.89645" pt_clust_4="102.43023" pt_clust_5="14000.00000" pt_clust_6="48.85085"></scales>
<clustering>
<clus scale="   34.896">  1  3  2 -1</clus>
<clus scale="   48.851">  1  6  2 -1</clus>
<clus scale="  102.430">  1  4  2 -1</clus>
<clus scale="  102.430">  2  3  1 -1</clus>
</clustering>
</event>
<event>
 6    0  0.3643696E+002  0.8691325E+02  0.7546771E-02  0.1310504E+00
          2   -1    0    0  505    0 -0.00000000000E+00  0.00000000000E+00  0.22332081291E+04  0.22332081291E+04  0.00000000000E+00 0.  1.
         21   -1    0    0  504  502  0.00000000000E+00 -0.00000000000E+00 -0.22817275105E+03  0.22817275105E+03  0.00000000000E+00 0.  1.
         21    1    1    2  503  502  0.47608987782E+02 -0.21399641670E+02 -0.20428757810E+03  0.21085059864E+03  0.00000000000E+00 0.  1.
         21    1    1    2  504  501  0.51315762394E+02  0.16107637075E+02  0.27714940147E+02  0.60505217540E+02  0.00000000000E+00 0. -1.
         21    1    1    2  505  503 -0.36413156552E+02 -0.66121415171E+02  0.49233678449E+03  0.49808982009E+03  0.00000000000E+00 0.  1.
          2    1    1    2  501    0 -0.62511593624E+02  0.71413419765E+02  0.16892712315E+04  0.16919352439E+04  0.00000000000E+00 0.  1.
<scales pt_clust_3="52.19732" pt_clust_4="14000.00000" pt_clust_5="75.24692" pt_clust_6="86.91325"></scales>
<clustering>
<clus scale="   52.197">  2  3  1 -1</clus>
<clus scale="   75.247">  1  5  2 -1</clus>
<clus scale="   86.913">  1  6  2 -1</clus>
<clus scale="   52.197">  2  3  1 -1</clus>
</clustering>
</event>
<event>
 6    0  0.3643696E+002  0.9618030E+02  0.7546771E-02  0.1288540E+00
         21   -1    0    0  503  502  0.00000000000E+00  0.00000000000E+00  0.12235794915E+02  0.12235794915E+02  0.00000000000E+00 0. -1.
          2   -1    0    0  505    0 -0.00000000000E+00 -0.00000000000E+00 -0.16354043422E+04  0.16354043422E+04  0.00000000000E+00 0. -1.
         21    1    1    2  503  501  0.20114745518E+01  0.36335667024E+02 -0.11034715514E+03  0.11619303497E+03  0.00000000000E+00 0. -1.
         21    1    1    2  504  502 -0.30248041126E+02 -0.68730312479E+01 -0.94211181171E+02  0.99186335794E+02  0.00000000000E+00 0.  1.
         21    1    1    2  505  504  0.72634901990E+02  0.61904824960E+02 -0.72337562166E+03  0.72964397233E+03  0.00000000000E+00 0. -1.
          2    1    1    2  501    0 -0.44398335416E+02 -0.91367460736E+02 -0.69523458931E+03  0.70261679402E+03  0.00000000000E+00 0. -1.
<scales pt_clust_3="34.99403" pt_clust_4="31.01907" pt_clust_5="14000.00000" pt_clust_6="96.18030"></scales>
<clustering>
<clus scale="   31.019">  1  4  2 -1</clus>
<clus scale="   34.994">  1  3  2 -1</clus>
<clus scale="   96.180">  1  6  2 -1</clus>
<clus scale="   31.019">  1  3  2 -1</clus>
</clustering>
</event>
<event>
 6    0  0.3643696E+002  0.7070523E+02  0.7546771E-02  0.1357711E+00
          1   -1    0    0  504    0 -0.00000000000E+00  0.00000000000E+00  0.21055594156E+04  0.21055594156E+04  0.00000000000E+00 0. -1.
         21   -1    0    0  503  502  0.00000000000E+00 -0.00000000000E+00 -0.17000537472E+02  0.17000537472E+02  0.00000000000E+00 0. -1.
         21    1    1    2  503  501 -0.32467404411E+02 -0.26705538829E+02  0.37125957262E+02  0.56086137824E+02  0.00000000000E+00 0. -1.
         21    1    1    2  504  505 -0.53568132237E+02  0.63593712494E+02  0.87427980199E+03  0.87822484434E+03  0.00000000000E+00 0. -1.
         21    1    1    2  505  502  0.85485976771E+02  0.30833445437E+02  0.55097683333E+03  0.55842101004E+03  0.00000000000E+00 0. -1.
          1    1    1    2  501    0  0.54955987656E+00 -0.67721619102E+02  0.62617628557E+03  0.62982796090E+03  0.00000000000E+00 0. -1.
<scales pt_clust_3="42.03948" pt_clust_4="14000.00000" pt_clust_5="71.61728" pt_clust_6="70.70523"></scales>
<clustering>
<clus scale="   42.039">  2  3  1 -1</clus>
<clus scale="   71.617">  2  5  1 -1</clus>
<clus scale="   70.705">  1  6  2 -1</clus>
<clus scale="   42.039">  2  3  1 -1</clus>
</clustering>
</event>
<event>
 6    0  0.3643696E+002  0.1155522E+03  0.7546771E-02  0.1250620E+00
          2   -1    0    0  503    0 -0.00000000000E+00  0.00000000000E+00  0.33858395531E+04  0.33858395531E+04  0.00000000000E+00 0.  1.
         21   -1    0    0  504  502  0.00000000000E+00 -0.00000000000E+00 -0.92628347676E+02  0.92628347676E+02  0.00000000000E+00 0. -1.
         21    1    1    2  503  505  0.86935644241E+02  0.73700821703E+01  0.21815199379E+04  0.21832639244E+04  0.00000000000E+00 0.  1.
         21    1    1    2  504  501 -0.20796902246E+02  0.54418367153E+02 -0.54722280902E+02  0.79927453692E+02  0.00000000000E+00 0. -1.
         21    1    1    2  505  502 -0.16579270538E+03 -0.82741864797E+02  0.10214495896E+04  0.10381197915E+04  0.00000000000E+00 0.  1.
          2    1    1    2  501    0  0.99653963380E+02  0.20953415474E+02  0.14496395882E+03  0.17715673116E+03  0.00000000000E+00 0.  1.
<scales pt_clust_3="86.71324" pt_clust_4="58.25693" pt_clust_5="14000.00000" pt_clust_6="115.55219"></scales>
<clustering>
<clus scale="   58.257">  2  4  1 -1</clus>
<clus scale="   86.713">  1  3  2 -1</clus>
<clus scale="  115.552">  2  6  1 -1</clus>
<clus scale="   58.257">  2  3  1 -1</clus>
</clustering>
</event>
<event>
 6    0  0.3643696E+002  0.1112644E+03  0.7546771E-02  0.1258246E+00
         21   -1    0    0  501  502  0.00000000000E+00  0.00000000000E+00  0.34564937188E+03  0.34564937188E+03  0.00000000000E+00 0.  1.
          2   -1    0    0  505    0 -0.00000000000E+00 -0.00000000000E+00 -0.14087630983E+04  0.14087630983E+04  0.00000000000E+00 0. -1.
         21    1    1    2  503  502  0.43649773661E+02 -0.20314737163E+02  0.31696052551E+03  0.32059626638E+03  0.00000000000E+00 0.  1.
         21    1    1    2  504  503  0.61415306651E+02  0.61201348116E+02 -0.95498237509E+02  0.12898588399E+03  0.00000000000E+00 0. -1.
         21    1    1    2  505  504  0.30561399474E+02  0.39815057158E+02 -0.60900912993E+03  0.61107393845E+03  0.00000000000E+00 0. -1.
          2    1    1    2  501    0 -0.13562647979E+03 -0.80701668111E+02 -0.67556688450E+03  0.69375638137E+03  0.00000000000E+00 0. -1.
<scales pt_clust_3="48.14552" pt_clust_4="111.26436" pt_clust_5="50.62622" pt_clust_6="14000.00000"></scales>
<clustering>
<clus scale="   48.146">  1  3  2 -1</clus>
<clus scale="   50.626">  2  5  1 -1</clus>
<clus scale="  111.264">  1  4  2 -1</clus>
<clus scale="   48.146">  1  3  2 -1</clus>
</clustering>
</event>
<event>
 6    0  0.3643696E+002  0.7424895E+02  0.7546771E-02  0.1346213E+00
         21   -1    0    0  504  502  0.00000000000E+00  0.00000000000E+00  0.17695250809E+04  0.17695250809E+04  0.00000000000E+00 0.  1.
         -1   -1    0    0    0  501 -0.00000000000E+00 -0.00000000000E+00 -0.65467499120E+02  0.65467499120E+02  0.00000000000E+00 0.  1.
         21    1    1    2  503  502 -0.70652591720E+02  0.22301412218E+02  0.15678643220E+04  0.15696138614E+04  0.00000000000E+00 0.  1.
         21    1    1    2  504  505 -0.53609130384E+02  0.12208944383E+02  0.58155193962E+02  0.80031392392E+02  0.00000000000E+00 0.  1.
         21    1    1    2  505  501  0.52966338152E+02  0.13674316287E+02  0.82716932779E+02  0.99169102404E+02  0.00000000000E+00 0.  1.
         -1    1    1    2    0  503  0.71295383952E+02 -0.48184672888E+02 -0.46788669102E+01  0.86178223872E+02  0.00000000000E+00 0.  1.
<scales pt_clust_3="14000.00000" pt_clust_4="45.94443" pt_clust_5="54.70302" pt_clust_6="74.24895"></scales>
<clustering>
<clus scale="   54.703">  2  5  1 -1</clus>
<clus scale="   45.944">  2  4  1 -1</clus>
<clus scale="   74.249">  2  6  1 -1</clus>
<clus scale="   74.249">  1  3  2 -1</clus>
</clustering>
</event>
<event>
 6    0  0.3643696E+002  0.9614845E+02  0.7546771E-02  0.1288610E+00
         21   -1    0    0  501  502  0.00000000000E+00  0.00000000000E+00  0.20693055073E+03  0.20693055073E+03  0.00000000000E+00 0.  1.
          1   -1    0    0  505    0 -0.00000000000E+00 -0.00000000000E+00 -0.22648112519E+03  0.22648112519E+03  0.00000000000E+00 0. -1.
         21    1    1    2  503  502 -0.28272530439E+02  0.15343187558E+02  0.11851838758E+02  0.34281415721E+02  0.00000000000E+00 0. -1.
         21    1    1    2  504  503 -0.33264513027E+02  0.61436332088E+02  0.13772283767E+03  0.15442969515E+03  0.00000000000E+00 0.  1.
         21    1    1    2  505  504 -0.34133686194E+02 -0.50133782246E+01 -0.10173269420E+03  0.10742338462E+03  0.00000000000E+00 0. -1.
          1    1    1    2  501    0  0.95670729660E+02 -0.71766141421E+02 -0.67392556690E+02  0.13727718043E+03  0.00000000000E+00 0. -1.
<scales pt_clust_3="32.16752" pt_clust_4="96.14845" pt_clust_5="34.89955" pt_clust_6="14000.00000"></scales>
<clustering>
<clus scale="   32.168">  1  3  2 -1</clus>
<clus scale="   34.900">  2  5  1 -1</clus>
<clus scale="   96.148">  1  4  2 -1</clus>
<clus scale="   32.168">  1  3  2 -1</clus>
</clustering>
</event>
<event>
 6    0  0.3643696E+002  0.9540846E+02  0.7546771E-02  0.1290259E+00
         21   -1    0    0  504  502  0.00000000000E+00  0.00000000000E+00  0.13071648364E+03  0.13071648364E+03  0.00000000000E+00 0.  1.
          1   -1    0    0  505    0 -0.00000000000E+00 -0.00000000000E+00 -0.39527725836E+03  0.39527725836E+03  0.00000000000E+00 0.  1.
         21    1    1    2  503  502 -0.48131326488E+02 -0.13845532664E+01  0.84687416417E+02  0.97419197680E+02  0.00000000000E+00 0.  1.
         21    1    1    2  504  501 -0.70520846728E+02 -0.30093646547E+01 -0.20778508993E+02  0.73579837828E+02  0.00000000000E+00 0.  1.
         21    1    1    2  505  503  0.28180831334E+02  0.26526442346E+02 -0.66263270871E+02  0.76737425450E+02  0.00000000000E+00 0. -1.
          1    1    1    2  501    0  0.90471341882E+02 -0.22132524425E+02 -0.26220641127E+03  0.27825728104E+03  0.00000000000E+00 0.  1.
<scales pt_clust_3="47.58508" pt_clust_4="95.40846" pt_clust_5="38.70157" pt_clust_6="14000.00000"></scales>
<clustering>
<clus scale="   38.702">  2  5  1 -1</clus>
<clus scale="   47.585">  1  3  2 -1</clus>
<clus scale="   95.408">  1  4  2 -1</clus>
<clus scale="   47.585">  1  3  2 -1</clus>
</clustering>
</event>
<event>
 6    0  0.3643696E+002  0.2167072E+03  0.7546771E-02  0.1136362E+00
          2   -1    0    0  503    0 -0.00000000000E+00  0.00000000000E+00  0.73168543717E+03  0.73168543717E+03  0.00000000000E+00 0. -1.
         21   -1    0    0  505  502  0.00000000000E+00 -0.00000000000E+00 -0.15566186638E+03  0.15566186638E+03  0.00000000000E+00 0. -1.
         21    1    1    2  503  502 -0.84745138926E+02 -0.17036132868E+03  0.37973180558E+02  0.19402753238E+03  0.00000000000E+00 0.  1.
         21    1    1    2  504  501  0.51956087197E+02  0.49693830304E+02  0.13074294389E+03  0.14920666588E+03  0.00000000000E+00 0. -1.
         21    1    1    2  505  504 -0.39367562938E+02 -0.30488377582E+01 -0.50684495928E+02  0.64249657982E+02  0.00000000000E+00 0. -1.
          2    1    1    2  501    0  0.72156614666E+02  0.12371633613E+03  0.45799194227E+03  0.47986344729E+03  0.00000000000E+00 0. -1.
<scales pt_clust_3="208.12647" pt_clust_4="42.29068" pt_clust_5="39.48545" pt_clust_6="42.29068"></scales>
<clustering>
<clus scale="   39.485">  2  5  1 -1</clus>
<clus scale="   42.291">  4  6 -1 -1</clus>
<clus scale="  208.126">  2  3  1 -1</clus>
<clus scale="   39.485">  2  3  1 -1</clus>
</clustering>
</event>
<event>
 6    0  0.3643696E+002  0.1210293E+03  0.7546771E-02  0.1241409E+00
          2   -1    0    0  505    0 -0.00000000000E+00  0.00000000000E+00  0.77327050630E+03  0.77327050630E+03  0.00000000000E+00 0. -1.
         21   -1    0    0  504  502  0.00000000000E+00 -0.00000000000E+00 -0.14657631469E+03  0.14657631469E+03  0.00000000000E+00 0.  1.
         21    1    1    2  503  502  0.39454811840E+02  0.38453529061E+02  0.56916001571E+02  0.79213555086E+02  0.00000000000E+00 0. -1.
         21    1    1    2  504  501  0.93338283945E+02  0.74321675816E+02 -0.92238392138E+02  0.15081003856E+03  0.00000000000E+00 0.  1.
         21    1    1    2  505  503 -0.18683482779E+02 -0.24219610022E+02  0.27561886477E+03  0.27731105397E+03  0.00000000000E+00 0. -1.
          2    1    1    2  501    0 -0.11410961301E+03 -0.88555594855E+02  0.38639771742E+03  0.41251217338E+03  0.00000000000E+00 0. -1.
<scales pt_clust_3="50.94839" pt_clust_4="14000.00000" pt_clust_5="30.58859" pt_clust_6="121.02928"></scales>
<clustering>
<clus scale="   30.589">  1  5  2 -1</clus>
<clus scale="   50.948">  1  3  2 -1</clus>
<clus scale="  121.029">  1  6  2 -1</clus>
<clus scale="  121.029">  2  3  1 -1</clus>
</clustering>
</event>
<event>
 6    0  0.3643696E+002  0.7357773E+02  0.7546771E-02  0.1348333E+00
          1   -1    0    0  505    0 -0.00000000000E+00  0.00000000000E+00  0.10936609547E+04  0.10936609547E+04  0.00000000000E+00 0.  1.
         21   -1    0    0  504  502  0.00000000000E+00 -0.00000000000E+00 -0.78112614520E+02  0.78112614520E+02  0.00000000000E+00 0. -1.
         21    1    1    2  503  502  0.54266804369E+02  0.16760741577E+02 -0.55466252354E+02  0.79387112713E+02  0.00000000000E+00 0. -1.
         21    1    1    2  504  501 -0.90907556701E+02 -0.53724576349E+02  0.60910328511E+03  0.61818874617E+03  0.00000000000E+00 0.  1.
         21    1    1    2  505  503  0.29159506212E+02 -0.26792469285E+02  0.12161809742E+03  0.12790259901E+03  0.00000000000E+00 0.  1.
          1    1    1    2  501    0  0.74812461196E+01  0.63756304057E+02  0.34029321000E+03  0.34629511131E+03  0.00000000000E+00 0.  1.
<scales pt_clust_3="57.04409" pt_clust_4="14000.00000" pt_clust_5="39.59941" pt_clust_6="73.57773"></scales>
<clustering>
<clus scale="   39.599">  1  5  2 -1</clus>
<clus scale="   57.044">  2  3  1 -1</clus>
<clus scale="   73.578">  1  6  2 -1</clus>
<clus scale="   57.044">  2  3  1 -1</clus>
</clustering>
</event>
<event>
 6    0  0.3643696E+002  0.2438062E+03  0.7546771E-02  0.1117283E+00
          1   -1    0    0  503    0 -0.00000000000E+00  0.00000000000E+00  0.11568860302E+04  0.11568860302E+04  0.00000000000E+00 0. -1.
         21   -1    0    0  505  502  0.00000000000E+00 -0.00000000000E+00 -0.39417012991E+03  0.39417012991E+03  0.00000000000E+00 0.  1.
         21    1    1    2  503  504 -0.13146813645E+03  0.15644466858E+03  0.32894366890E+03  0.38725023246E+03  0.00000000000E+00 0. -1.
         21    1    1    2  504  502 -0.58044776953E+02 -0.18478829208E+02  0.31640733276E+02  0.68642547029E+02  0.00000000000E+00 0. -1.
         21    1    1    2  505  501 -0.35642854332E+02  0.33188526739E+02 -0.31788390175E+03  0.32159301355E+03  0.00000000000E+00 0.  1.
          1    1    1    2  501    0  0.22515576774E+03 -0.17115436611E+03  0.72001539983E+03  0.77357036705E+03  0.00000000000E+00 0. -1.
<scales pt_clust_3="243.80618" pt_clust_4="67.68175" pt_clust_5="48.70207" pt_clust_6="14000.00000"></scales>
<clustering>
<clus scale="   48.702">  2  5  1 -1</clus>
<clus scale="   67.682">  2  4  1 -1</clus>
<clus scale="  243.806">  2  3  1 -1</clus>
<clus scale="   48.702">  2  3  1 -1</clus>
</clustering>
</event>
<event>
 6    0  0.3643696E+002  0.8438278E+02  0.7546771E-02  0.1317055E+00
         21   -1    0    0  503  502  0.00000000000E+00  0.00000000000E+00  0.12341728931E+03  0.12341728931E+03  0.00000000000E+00 0.  1.
          1   -1    0    0  505    0 -0.00000000000E+00 -0.00000000000E+00 -0.15157354073E+04  0.15157354073E+04  0.00000000000E+00 0.  1.
         21    1    1    2  503  504  0.85190167799E+02 -0.16418652316E+02  0.84339610332E+02  0.12099630864E+03  0.00000000000E+00 0.  1.
         21    1    1    2  504  501  0.20648817264E+02  0.56255444813E+02 -0.72587569350E+02  0.94127593986E+02  0.00000000000E+00 0.  1.
         21    1    1    2  505  502 -0.66907149429E+02 -0.61056185405E+02 -0.20476491186E+03  0.22390420619E+03  0.00000000000E+00 0.  1.
          1    1    1    2  501    0 -0.38931835634E+02  0.21219392908E+02 -0.11993052471E+04  0.12001245878E+04  0.00000000000E+00 0.  1.
<scales pt_clust_3="14000.00000" pt_clust_4="62.71742" pt_clust_5="84.38278" pt_clust_6="44.33904"></scales>
<clustering>
<clus scale="   44.339">  2  6  1 -1</clus>
<clus scale="   62.717">  2  4  1 -1</clus>
<clus scale="   84.383">  2  5  1 -1</clus>
<clus scale="   84.383">  1  3  2 -1</clus>
</clustering>
</event>
<event>
 6    0  0.3643696E+002  0.7957043E+02  0.7546771E-02  0.1330275E+00
         21   -1    0    0  503  502  0.00000000000E+00  0.00000000000E+00  0.18787587641E+03  0.18787587641E+03  0.00000000000E+00 0.  1.
          4   -1    0    0  505    0 -0.00000000000E+00 -0.00000000000E+00 -0.28648174402E+03  0.28648174402E+03  0.00000000000E+00 0. -1.
         21    1    1    2  503  504  0.86405330631E+01  0.46059649425E+02  0.98884641866E+02  0.10942724758E+03  0.00000000000E+00 0.  1.
         21    1    1    2  504  501 -0.65204786478E+02 -0.50573365251E+02  0.15957376674E+01  0.82534088904E+02  0.00000000000E+00 0.  1.
         21    1    1    2  505  502 -0.53469402045E+02  0.20607979264E+01 -0.15475139870E+03  0.16374131807E+03  0.00000000000E+00 0.  1.
          4    1    1    2  501    0  0.11003365546E+03  0.24529178997E+01 -0.44334848448E+02  0.11865496588E+03  0.00000000000E+00 0. -1.
<scales pt_clust_3="46.86310" pt_clust_4="79.57043" pt_clust_5="53.19903" pt_clust_6="14000.00000"></scales>
<clustering>
<clus scale="   46.863">  1  3  2 -1</clus>
<clus scale="   53.199">  2  5  1 -1</clus>
<clus scale="   79.570">  1  4  2 -1</clus>
<clus scale="   46.863">  1  3  2 -1</clus>
</clustering>
</event>
<event>
 6    0  0.3643696E+002  0.1557285E+03  0.7546771E-02  0.1193605E+00
          2   -1    0    0  505    0 -0.00000000000E+00  0.00000000000E+00  0.43112452265E+04  0.43112452265E+04  0.00000000000E+00 0.  1.
         21   -1    0    0  504  502  0.00000000000E+00 -0.00000000000E+00 -0.76997263606E+01  0.76997263606E+01  0.00000000000E+00 0.  1.
         21    1    1    2  503  502  0.28885902920E+02 -0.15579023451E+02  0.13826792684E+03  0.14210953856E+03  0.00000000000E+00 0.  1.
         21    1    1    2  504  501 -0.47286278952E+02 -0.19515960326E+00  0.56473799737E+03  0.56671424540E+03  0.00000000000E+00 0. -1.
         21    1    1    2  505  503  0.11028518442E+03 -0.73202520852E+02  0.20825765501E+04  0.20867789816E+04  0.00000000000E+00 0.  1.
          2    1    1    2  501    0 -0.91884808384E+02  0.88976703906E+02  0.15179630257E+04  0.15233421872E+04  0.00000000000E+00 0.  1.
<scales pt_clust_3="32.81922" pt_clust_4="35.90959" pt_clust_5="144.25594" pt_clust_6="35.90959"></scales>
<clustering>
<clus scale="   32.819">  2  3  1 -1</clus>
<clus scale="   35.910">  4  6 -1 -1</clus>
<clus scale="  144.256">  1  5  2 -1</clus>
<clus scale="   32.819">  2  3  1 -1</clus>
</clustering>
</event>
<event>
 6    0  0.3643696E+002  0.7908081E+02  0.7546771E-02  0.1331680E+00
          1   -1    0    0  504    0 -0.00000000000E+00  0.00000000000E+00  0.40327616106E+03  0.40327616106E+03  0.00000000000E+00 0.  1.
         21   -1    0    0  503  502  0.00000000000E+00 -0.00000000000E+00 -0.45564924458E+03  0.45564924458E+03  0.00000000000E+00 0. -1.
         21    1    1    2  503  501  0.58229829376E+02 -0.60538428665E+02  0.67873768923E+02  0.10799288348E+03  0.00000000000E+00 0.  1.
         21    1    1    2  504  505 -0.63262909569E+01  0.45965283496E+02  0.27000441620E+02  0.53682893848E+02  0.00000000000E+00 0.  1.
         21    1    1    2  505  502 -0.17500516068E+01 -0.44857658729E+02 -0.41551758942E+03  0.41793556841E+03  0.00000000000E+00 0. -1.
          1    1    1    2  501    0 -0.50153486812E+02  0.59430803898E+02  0.26827029536E+03  0.27931405991E+03  0.00000000000E+00 0.  1.
<scales pt_clust_3="79.08081" pt_clust_4="31.36407" pt_clust_5="44.89178" pt_clust_6="14000.00000"></scales>
<clustering>
<clus scale="   44.892">  2  5  1 -1</clus>
<clus scale="   31.364">  2  4  1 -1</clus>
<clus scale="   79.081">  2  3  1 -1</clus>
<clus scale="   44.892">  2  3  1 -1</clus>
</clustering>
</event>
<event>
 6    0  0.3643696E+002  0.1221571E+03  0.7546771E-02  0.1239580E+00
          3   -1    0    0  504    0 -0.00000000000E+00  0.00000000000E+00  0.51840110545E+02  0.51840110545E+02  0.00000000000E+00 0.  1.
         21   -1    0    0  503  502  0.00000000000E+00 -0.00000000000E+00 -0.62366936369E+03  0.62366936369E+03  0.00000000000E+00 0.  1.
         21    1    1    2  503  501  0.49718599606E+02  0.15150244219E+02 -0.88791803039E+02  0.10288563230E+03  0.00000000000E+00 0.  1.
         21    1    1    2  504  505 -0.93654616775E+02  0.76590041903E+02 -0.20338665669E+03  0.23665027758E+03  0.00000000000E+00 0.  1.
         21    1    1    2  505  502 -0.37582037332E+02  0.11774058014E+01 -0.15848349376E+03  0.16288282171E+03  0.00000000000E+00 0.  1.
          3    1    1    2  501    0  0.81518054501E+02 -0.92917691924E+02 -0.12116729967E+03  0.17309074265E+03  0.00000000000E+00 0.  1.
<scales pt_clust_3="44.67505" pt_clust_4="122.15710" pt_clust_5="37.60048" pt_clust_6="14000.00000"></scales>
<clustering>
<clus scale="   37.600">  2  5  1 -1</clus>
<clus scale="   44.675">  2  3  1 -1</clus>
<clus scale="  122.157">  2  4  1 -1</clus>
<clus scale="   37.600">  2  3  1 -1</clus>
</clustering>
</event>
<event>
 6    0  0.3643696E+002  0.1672789E+03  0.7546771E-02  0.1180716E+00
         21   -1    0    0  504  502  0.00000000000E+00  0.00000000000E+00  0.62304825375E+03  0.62304825375E+03  0.00000000000E+00 0. -1.
          1   -1    0    0  503    0 -0.00000000000E+00 -0.00000000000E+00 -0.50900127563E+03  0.50900127563E+03  0.00000000000E+00 0. -1.
         21    1    1    2  503  505  0.61629314509E+02 -0.68496597304E+02 -0.77444327767E+02  0.12036436413E+03  0.00000000000E+00 0. -1.
         21    1    1    2  504  501  0.62032722818E+01  0.19146479983E+03 -0.13341611388E+02  0.19202929140E+03  0.00000000000E+00 0. -1.
         21    1    1    2  505  502 -0.26743261949E+02 -0.16213876975E+03  0.49625534486E+03  0.52275572691E+03  0.00000000000E+00 0. -1.
          1    1    1    2  501    0 -0.41089324842E+02  0.39170567225E+02 -0.29142242759E+03  0.29690014694E+03  0.00000000000E+00 0. -1.
<scales pt_clust_3="66.11380" pt_clust_4="14000.00000" pt_clust_5="167.27890" pt_clust_6="56.76853"></scales>
<clustering>
<clus scale="   56.769">  2  6  1 -1</clus>
<clus scale="   66.114">  2  3  1 -1</clus>
<clus scale="  167.279">  1  5  2 -1</clus>
<clus scale="  167.279">  1  3  2 -1</clus>
</clustering>
</event>
<event>
 6    0  0.3643696E+002  0.6853815E+02  0.7546771E-02  0.1365136E+00
          1   -1    0    0  503    0 -0.00000000000E+00  0.00000000000E+00  0.41685624193E+03  0.41685624193E+03  0.00000000000E+00 0. -1.
         21   -1    0    0  504  502  0.00000000000E+00 -0.00000000000E+00 -0.23883227169E+03  0.23883227169E+03  0.00000000000E+00 0.  1.
         21    1    1    2  503  505  0.18223381364E+01  0.33004619492E+02  0.21571412828E+02  0.39470896563E+02  0.00000000000E+00 0.  1.
         21    1    1    2  504  501  0.55578125975E+02 -0.39068083640E+02 -0.20660107845E+03  0.21748390484E+03  0.00000000000E+00 0.  1.
         21    1    1    2  505  502  0.14946119173E+02 -0.61314520199E+02  0.10655204623E+03  0.12383939366E+03  0.00000000000E+00 0.  1.
          1    1    1    2  501    0 -0.72346583284E+02  0.67377984346E+02  0.25650158964E+03  0.27489431856E+03  0.00000000000E+00 0. -1.
<scales pt_clust_3="33.05489" pt_clust_4="14000.00000" pt_clust_5="53.75342" pt_clust_6="68.53815"></scales>
<clustering>
<clus scale="   33.055">  1  3  2 -1</clus>
<clus scale="   53.753">  1  5  2 -1</clus>
<clus scale="   68.538">  1  6  2 -1</clus>
<clus scale="   68.538">  2  3  1 -1</clus>
</clustering>
</event>
<event>
 6    0  0.3643696E+002  0.9580963E+02  0.7546771E-02  0.1289363E+00
         -2   -1    0    0    0  501 -0.00000000000E+00  0.00000000000E+00  0.39059079315E+03  0.39059079315E+03  0.00000000000E+00 0. -1.
         21   -1    0    0  505  502  0.00000000000E+00 -0.00000000000E+00 -0.13978232538E+03  0.13978232538E+03  0.00000000000E+00 0.  1.
         21    1    1    2  503  501 -0.63254406265E+02 -0.12561395561E+03  0.15843602230E+03  0.21185362616E+03  0.00000000000E+00 0.  1.
         21    1    1    2  504  502 -0.96030634272E+01  0.70403318810E+02  0.99037552670E+02  0.12189045478E+03  0.00000000000E+00 0. -1.
         21    1    1    2  505  503  0.28439949439E+02  0.28990234814E+02 -0.89934669015E+02  0.98678818039E+02  0.00000000000E+00 0.  1.
         -2    1    1    2    0  504  0.44417520254E+02  0.26220401991E+02  0.83269561814E+02  0.97950219554E+02  0.00000000000E+00 0. -1.
<scales pt_clust_3="14000.00000" pt_clust_4="95.80963" pt_clust_5="40.61114" pt_clust_6="57.93608"></scales>
<clustering>
<clus scale="   40.611">  2  5  1 -1</clus>
<clus scale="   57.936">  1  6  2 -1</clus>
<clus scale="   95.810">  1  4  2 -1</clus>
<clus scale="   40.611">  2  3  1 -1</clus>
</clustering>
</event>
<event>
 6    0  0.3643696E+002  0.8001109E+02  0.7546771E-02  0.1329020E+00
          2   -1    0    0  503    0 -0.00000000000E+00  0.00000000000E+00  0.83241163626E+03  0.83241163626E+03  0.00000000000E+00 0. -1.
         21   -1    0    0  504  502  0.00000000000E+00 -0.00000000000E+00 -0.33801662051E+02  0.33801662051E+02  0.00000000000E+00 0. -1.
         21    1    1    2  503  505 -0.74871488547E+02 -0.48947884432E+01  0.36960815714E+03  0.37714703840E+03  0.00000000000E+00 0. -1.
         21    1    1    2  504  501  0.45002712570E+02 -0.22987551380E+02  0.34342102273E+02  0.61098704124E+02  0.00000000000E+00 0. -1.
         21    1    1    2  505  502 -0.52060485361E+02 -0.29892569397E+02  0.99061711910E+02  0.11583213115E+03  0.00000000000E+00 0. -1.
          2    1    1    2  501    0  0.81929261338E+02  0.57774909221E+02  0.29559800289E+03  0.31213542463E+03  0.00000000000E+00 0. -1.
<scales pt_clust_3="80.01109" pt_clust_4="50.53387" pt_clust_5="51.71809" pt_clust_6="14000.00000"></scales>
<clustering>
<clus scale="   50.534">  2  4  1 -1</clus>
<clus scale="   51.718">  2  5  1 -1</clus>
<clus scale="   80.011">  1  3  2 -1</clus>
<clus scale="   50.534">  2  3  1 -1</clus>
</clustering>
</event>
<event>
 6    0  0.3643696E+002  0.9774378E+02  0.7546771E-02  0.1285113E+00
          1   -1    0    0  504    0 -0.00000000000E+00  0.00000000000E+00  0.46749874694E+03  0.46749874694E+03  0.00000000000E+00 0.  1.
         21   -1    0    0  505  502  0.00000000000E+00 -0.00000000000E+00 -0.69137574926E+02  0.69137574926E+02  0.00000000000E+00 0. -1.
         21    1    1    2  503  501 -0.37594391140E+02 -0.55715902090E+01  0.54481452016E+02  0.66427475313E+02  0.00000000000E+00 0. -1.
         21    1    1    2  504  502  0.12808203541E+02 -0.81978290013E+02  0.15105116692E+03  0.17233962150E+03  0.00000000000E+00 0. -1.
         21    1    1    2  505  503  0.19109811282E+02 -0.32559285865E+02 -0.27607712095E+02  0.46770479476E+02  0.00000000000E+00 0. -1.
          1    1    1    2  501    0  0.56763763176E+01  0.12010916609E+03  0.22043626518E+03  0.25109874558E+03  0.00000000000E+00 0.  1.
<scales pt_clust_3="35.96389" pt_clust_4="97.74378" pt_clust_5="37.75304" pt_clust_6="14000.00000"></scales>
<clustering>
<clus scale="   37.753">  2  5  1 -1</clus>
<clus scale="   35.964">  2  3  1 -1</clus>
<clus scale="   97.744">  1  4  2 -1</clus>
<clus scale="   37.753">  2  3  1 -1</clus>
</clustering>
</event>
<event>
 6    0  0.3643696E+002  0.9994225E+02  0.7546771E-02  0.1280417E+00
         21   -1    0    0  505  502  0.00000000000E+00  0.00000000000E+00  0.14484735388E+03  0.14484735388E+03  0.00000000000E+00 0. -1.
          2   -1    0    0  503    0 -0.00000000000E+00 -0.00000000000E+00 -0.11313065303E+04  0.11313065303E+04  0.00000000000E+00 0.  1.
         21    1    1    2  503  504 -0.17848649030E+02 -0.54142065218E+02 -0.11650783034E+03  0.12970740930E+03  0.00000000000E+00 0. -1.
         21    1    1    2  504  502 -0.39248945158E+02  0.94072483091E+02  0.11038165549E+03  0.15024720177E+03  0.00000000000E+00 0. -1.
         21    1    1    2  505  501  0.10958514831E+03 -0.44816968182E+01 -0.51294876848E+03  0.52454306727E+03  0.00000000000E+00 0. -1.
          2    1    1    2  501    0 -0.52487554124E+02 -0.35448721055E+02 -0.46738423311E+03  0.47165620585E+03  0.00000000000E+00 0.  1.
<scales pt_clust_3="57.00822" pt_clust_4="99.94225" pt_clust_5="14000.00000" pt_clust_6="85.88701"></scales>
<clustering>
<clus scale="   57.008">  2  3  1 -1</clus>
<clus scale="   85.887">  2  6  1 -1</clus>
<clus scale="   99.942">  1  4  2 -1</clus>
<clus scale="   99.942">  1  3  2 -1</clus>
</clustering>
</event>
<event>
 6    0  0.3643696E+002  0.1733172E+03  0.7546771E-02  0.1174432E+00
         21   -1    0    0  505  502  0.00000000000E+00  0.00000000000E+00  0.43636482075E+02  0.43636482075E+02  0.00000000000E+00 0.  1.
          2   -1    0    0  504    0 -0.00000000000E+00 -0.00000000000E+00 -0.19674259122E+04  0.19674259122E+04  0.00000000000E+00 0. -1.
         21    1    1    2  503  501  0.67290456475E+02 -0.22644682744E-02 -0.23607673144E+03  0.24547958910E+03  0.00000000000E+00 0. -1.
         21    1    1    2  504  502 -0.56205696521E+02  0.51166339492E+02 -0.47462299415E+03  0.48067042887E+03  0.00000000000E+00 0. -1.
         21    1    1    2  505  503 -0.13501134368E+03 -0.60342206171E+02 -0.13673876176E+03  0.20141185103E+03  0.00000000000E+00 0.  1.
          2    1    1    2  501    0  0.12392658373E+03  0.91781311472E+01 -0.10763509428E+04  0.10835005253E+04  0.00000000000E+00 0. -1.
<scales pt_clust_3="61.89001" pt_clust_4="76.00707" pt_clust_5="151.54298" pt_clust_6="61.89001"></scales>
<clustering>
<clus scale="   61.890">  3  6 -1 -1</clus>
<clus scale="   76.007">  2  4  1 -1</clus>
<clus scale="  151.543">  1  5  2 -1</clus>
<clus scale="  151.543">  1  3  2 -1</clus>
</clustering>
</event>
<event>
 6    0  0.3643696E+002  0.1034032E+03  0.7546771E-02  0.1273298E+00
          2   -1    0    0  503    0 -0.00000000000E+00  0.00000000000E+00  0.13956149148E+04  0.13956149148E+04  0.00000000000E+00 0. -1.
         21   -1    0    0  505  502  0.00000000000E+00 -0.00000000000E+00 -0.14341959989E+03  0.14341959989E+03  0.00000000000E+00 0. -1.
         21    1    1    2  503  502  0.84018400252E+02 -0.12475014017E+03  0.38826187969E+03  0.41637600348E+03  0.00000000000E+00 0. -1.
         21    1    1    2  504  501 -0.38479595687E+02  0.70629373643E+02  0.15751137517E+03  0.17685876007E+03  0.00000000000E+00 0.  1.
         21    1    1    2  505  504 -0.30861844992E+02 -0.40932830852E+02 -0.11124870958E+03  0.12249173646E+03  0.00000000000E+00 0. -1.
          2    1    1    2  501    0 -0.14676959574E+02  0.95053597382E+02  0.81767076966E+03  0.82330801470E+03  0.00000000000E+00 0. -1.
<scales pt_clust_3="14000.00000" pt_clust_4="74.67717" pt_clust_5="51.26354" pt_clust_6="103.40324"></scales>
<clustering>
<clus scale="   51.264">  2  5  1 -1</clus>
<clus scale="   74.677">  2  4  1 -1</clus>
<clus scale="  103.403">  1  6  2 -1</clus>
<clus scale="   51.264">  2  3  1 -1</clus>
</clustering>
</event>
<event>
 6    0  0.3643696E+002  0.1008241E+03  0.7546771E-02  0.1278572E+00
          2   -1    0    0  503    0 -0.00000000000E+00  0.00000000000E+00  0.89186635029E+03  0.89186635029E+03  0.00000000000E+00 0. -1.
         21   -1    0    0  505  502  0.00000000000E+00 -0.00000000000E+00 -0.70486209216E+03  0.70486209216E+03  0.00000000000E+00 0.  1.
         21    1    1    2  503  504 -0.14321194109E+02 -0.42433665209E+02  0.47566870030E+03  0.47777235686E+03  0.00000000000E+00 0. -1.
         21    1    1    2  504  502 -0.48128042566E+02  0.13889354091E+03 -0.64577900484E+03  0.66229770291E+03  0.00000000000E+00 0.  1.
         21    1    1    2  505  501 -0.27143989548E+01 -0.50653557694E+02 -0.31668296555E+02  0.59799932069E+02  0.00000000000E+00 0.  1.
          2    1    1    2  501    0  0.65163635630E+02 -0.45806318002E+02  0.38878285923E+03  0.39685845060E+03  0.00000000000E+00 0. -1.
<scales pt_clust_3="44.78518" pt_clust_4="14000.00000" pt_clust_5="52.18945" pt_clust_6="100.82415"></scales>
<clustering>
<clus scale="   44.785">  1  3  2 -1</clus>
<clus scale="   52.189">  2  5  1 -1</clus>
<clus scale="  100.824">  1  6  2 -1</clus>
<clus scale="   52.189">  2  3  1 -1</clus>
</clustering>
</event>
<event>
 6    0  0.3643696E+002  0.1401655E+03  0.7546771E-02  0.1213106E+00
         21   -1    0    0  504  502  0.00000000000E+00  0.00000000000E+00  0.63498472879E+02  0.63498472879E+02  0.00000000000E+00 0. -1.
          3   -1    0    0  503    0 -0.00000000000E+00 -0.00000000000E+00 -0.10374286103E+04  0.10374286103E+04  0.00000000000E+00 0. -1.
         21    1    1    2  503  505  0.12107582172E+01  0.51576538415E+02 -0.38390797845E+03  0.38735893067E+03  0.00000000000E+00 0.  1.
         21    1    1    2  504  501  0.52780682581E+02 -0.48740746867E+01 -0.97408293976E+01  0.53892864232E+02  0.00000000000E+00 0.  1.
         21    1    1    2  505  502 -0.14694709171E+03  0.66866734521E+02 -0.24176438924E+03  0.29071399666E+03  0.00000000000E+00 0. -1.
          3    1    1    2  501    0  0.92955650909E+02 -0.11356919825E+03 -0.33851694037E+03  0.36896129167E+03  0.00000000000E+00 0. -1.
<scales pt_clust_3="51.59075" pt_clust_4="52.89230" pt_clust_5="14000.00000" pt_clust_6="140.16550"></scales>
<clustering>
<clus scale="   51.591">  2  3  1 -1</clus>
<clus scale="   52.892">  1  4  2 -1</clus>
<clus scale="  140.166">  2  6  1 -1</clus>
<clus scale="   52.892">  1  3  2 -1</clus>
</clustering>
</event>
<event>
 6    0  0.3643696E+002  0.1102569E+03  0.7546771E-02  0.1260095E+00
         21   -1    0    0  503  502  0.00000000000E+00  0.00000000000E+00  0.24465479071E+03  0.24465479071E+03  0.00000000000E+00 0.  1.
          2   -1    0    0  505    0 -0.00000000000E+00 -0.00000000000E+00 -0.16867861082E+03  0.16867861082E+03  0.00000000000E+00 0.  1.
         21    1    1    2  503  504 -0.11884366872E+03 -0.91898582232E+02  0.10821334916E+03  0.18514668764E+03  0.00000000000E+00 0.  1.
         21    1    1    2  504  501  0.93943536338E+02 -0.15528429609E+02  0.12656000957E+02  0.96055684403E+02  0.00000000000E+00 0.  1.
         21    1    1    2  505  502  0.15996604724E+02  0.32578855539E+02  0.11413061571E+02  0.38046434332E+02  0.00000000000E+00 0.  1.
          2    1    1    2  501    0  0.89035276546E+01  0.74848156303E+02 -0.56306231795E+02  0.94084595156E+02  0.00000000000E+00 0.  1.
<scales pt_clust_3="110.25693" pt_clust_4="14000.00000" pt_clust_5="36.29426" pt_clust_6="78.32355"></scales>
<clustering>
<clus scale="   36.294">  1  5  2 -1</clus>
<clus scale="   78.324">  2  6  1 -1</clus>
<clus scale="  110.257">  1  3  2 -1</clus>
<clus scale="   36.294">  1  3  2 -1</clus>
</clustering>
</event>
<event>
 6    0  0.3643696E+002  0.8469736E+02  0.7546771E-02  0.1316226E+00
         21   -1    0    0  503  502  0.00000000000E+00  0.00000000000E+00  0.30187119039E+04  0.30187119039E+04  0.00000000000E+00 0. -1.
         -2   -1    0    0    0  501 -0.00000000000E+00 -0.00000000000E+00 -0.43949005074E+03  0.43949005074E+03  0.00000000000E+00 0.  1.
         21    1    1    2  503  505 -0.53003147483E+02 -0.49388402666E+01  0.29696401875E+04  0.29701172651E+04  0.00000000000E+00 0. -1.
         21    1    1    2  504  502 -0.15993053403E+02 -0.69233044398E+02 -0.75172220060E+02  0.10344010278E+03  0.00000000000E+00 0.  1.
         21    1    1    2  505  501 -0.38450647154E+02  0.88389065335E+01  0.57737014196E+01  0.39873727733E+02  0.00000000000E+00 0. -1.
         -2    1    1    2    0  504  0.10744684804E+03  0.65332978131E+02 -0.32101981563E+03  0.34477085900E+03  0.00000000000E+00 0.  1.
<scales pt_clust_3="53.25391" pt_clust_4="84.69736" pt_clust_5="39.45350" pt_clust_6="14000.00000"></scales>
<clustering>
<clus scale="   39.453">  2  5  1 -1</clus>
<clus scale="   53.254">  1  3  2 -1</clus>
<clus scale="   84.697">  1  4  2 -1</clus>
<clus scale="   53.254">  1  3  2 -1</clus>
</clustering>
</event>
<event>
 6    0  0.3643696E+002  0.8508918E+02  0.7546771E-02  0.1315199E+00
         21   -1    0    0  503  502  0.00000000000E+00  0.00000000000E+00  0.21262758513E+03  0.21262758513E+03  0.00000000000E+00 0. -1.
          3   -1    0    0  504    0 -0.00000000000E+00 -0.00000000000E+00 -0.85837521825E+03  0.85837521825E+03  0.00000000000E+00 0.  1.
         21    1    1    2  503  501 -0.95001820800E+02 -0.55140755740E+02 -0.49305744993E+03  0.50514502653E+03  0.00000000000E+00 0.  1.
         21    1    1    2  504  505 -0.57520328754E+02  0.28505061436E+01 -0.75856469463E+02  0.95241364778E+02  0.00000000000E+00 0.  1.
         21    1    1    2  505  502  0.54156663124E+02  0.65176477294E+02  0.17800625713E+03  0.19714752073E+03  0.00000000000E+00 0. -1.
          3    1    1    2  501    0  0.98365486430E+02 -0.12886227698E+02 -0.25483997086E+03  0.27346889135E+03  0.00000000000E+00 0.  1.
<scales pt_clust_3="14000.00000" pt_clust_4="57.59092" pt_clust_5="85.08918" pt_clust_6="79.60118"></scales>
<clustering>
<clus scale="   57.591">  2  4  1 -1</clus>
<clus scale="   79.601">  2  6  1 -1</clus>
<clus scale="   85.089">  1  5  2 -1</clus>
<clus scale="   85.089">  1  3  2 -1</clus>
</clustering>
</event>
<event>
 6    0  0.3643696E+002  0.7322878E+02  0.7546771E-02  0.1349445E+00
         21   -1    0    0  501  502  0.00000000000E+00  0.00000000000E+00  0.33054393940E+02  0.33054393940E+02  0.00000000000E+00 0.  1.
          2   -1    0    0  505    0 -0.00000000000E+00 -0.00000000000E+00 -0.37098313037E+04  0.37098313037E+04  0.00000000000E+00 0.  1.
         21    1    1    2  503  502 -0.27672608804E+02 -0.66208952657E+02 -0.25033388576E+02  0.76000455482E+02  0.00000000000E+00 0.  1.
         21    1    1    2  504  503 -0.81875871218E+01  0.97195832200E+02 -0.49586425749E+03  0.50536662754E+03  0.00000000000E+00 0.  1.
         21    1    1    2  505  504 -0.36220481808E+02 -0.19020961458E+02 -0.26571911584E+04  0.26575060813E+04  0.00000000000E+00 0.  1.
          2    1    1    2  501    0  0.72080677733E+02 -0.11965918086E+02 -0.49868810533E+03  0.50401253327E+03  0.00000000000E+00 0.  1.
<scales pt_clust_3="73.22878" pt_clust_4="14000.00000" pt_clust_5="40.91113" pt_clust_6="58.72070"></scales>
<clustering>
<clus scale="   40.911">  2  5  1 -1</clus>
<clus scale="   58.721">  2  6  1 -1</clus>
<clus scale="   73.229">  1  3  2 -1</clus>
<clus scale="   73.229">  1  3  2 -1</clus>
</clustering>
</event>
<event>
 6    0  0.3643696E+002  0.1265764E+03  0.7546771E-02  0.1232626E+00
         21   -1    0    0  505  502  0.00000000000E+00  0.00000000000E+00  0.43307158032E+03  0.43307158032E+03  0.00000000000E+00 0. -1.
         -3   -1    0    0    0  501 -0.00000000000E+00 -0.00000000000E+00 -0.25713689555E+03  0.25713689555E+03  0.00000000000E+00 0.  1.
         21    1    1    2  503  502 -0.68045982783E+02  0.11081442832E+03  0.36831645861E+03  0.39059839602E+03  0.00000000000E+00 0. -1.
         21    1    1    2  504  501  0.29907518549E+02  0.39073122755E+02 -0.16133718069E+02  0.51782868271E+02  0.00000000000E+00 0.  1.
         21    1    1    2  505  504  0.43364467300E+02 -0.55176905182E+02 -0.36980683444E+02  0.79325524503E+02  0.00000000000E+00 0.  1.
         -3    1    1    2    0  503 -0.52260030662E+01 -0.94710645897E+02 -0.13926737232E+03  0.16850168707E+03  0.00000000000E+00 0.  1.
<scales pt_clust_3="14000.00000" pt_clust_4="49.20537" pt_clust_5="68.12998" pt_clust_6="126.57645"></scales>
<clustering>
<clus scale="   49.205">  2  4  1 -1</clus>
<clus scale="   68.130">  2  5  1 -1</clus>
<clus scale="  126.576">  2  6  1 -1</clus>
<clus scale="  126.576">  1  3  2 -1</clus>
</clustering>
</event>
<event>
 6    0  0.3643696E+002  0.1273041E+03  0.7546771E-02  0.1231512E+00
          1   -1    0    0  503    0 -0.00000000000E+00  0.00000000000E+00  0.17526796802E+04  0.17526796802E+04  0.00000000000E+00 0. -1.
         21   -1    0    0  505  502  0.00000000000E+00 -0.00000000000E+00 -0.21776790552E+03  0.21776790552E+03  0.00000000000E+00 0. -1.
         21    1    1    2  503  504  0.21235330860E+02 -0.59524302161E+02  0.71313385982E+03  0.71592875612E+03  0.00000000000E+00 0. -1.
         21    1    1    2  504  502  0.28986173277E+02 -0.36848842161E+02 -0.17532894335E+03  0.18148904591E+03  0.00000000000E+00 0. -1.
         21    1    1    2  505  501  0.88057460518E+02  0.93185939169E+02  0.92960120418E+02  0.15836451496E+03  0.00000000000E+00 0. -1.
          1    1    1    2  501    0 -0.13827896466E+03  0.31872051534E+01  0.90414673782E+03  0.91466526875E+03  0.00000000000E+00 0. -1.
<scales pt_clust_3="64.77898" pt_clust_4="46.88321" pt_clust_5="127.30413" pt_clust_6="14000.00000"></scales>
<clustering>
<clus scale="   46.883">  2  4  1 -1</clus>
<clus scale="   64.779">  1  3  2 -1</clus>
<clus scale="  127.304">  2  5  1 -1</clus>
<clus scale="   46.883">  2  3  1 -1</clus>
</clustering>
</event>
<event>
 6    0  0.3643696E+002  0.8129833E+02  0.7546771E-02  0.1325407E+00
          1   -1    0    0  505    0 -0.00000000000E+00  0.00000000000E+00  0.74910373724E+03  0.74910373724E+03  0.00000000000E+00 0.  1.
         21   -1    0    0  503  502  0.00000000000E+00 -0.00000000000E+00 -0.68223841529E+03  0.68223841529E+03  0.00000000000E+00 0.  1.
         21    1    1    2  503  501  0.81133547317E+02 -0.16078352912E+01 -0.64713899657E+03  0.65220711320E+03  0.00000000000E+00 0.  1.
         21    1    1    2  504  502 -0.43197480070E+02  0.71344110059E+02  0.10115742787E+03  0.13110617658E+03  0.00000000000E+00 0.  1.
         21    1    1    2  505  504  0.39357173406E+02  0.42228430932E+02  0.83730432971E+02  0.10170060414E+03  0.00000000000E+00 0.  1.
          1    1    1    2  501    0 -0.77293240653E+02 -0.11196470570E+03  0.52911645768E+03  0.54632825861E+03  0.00000000000E+00 0.  1.
<scales pt_clust_3="81.29833" pt_clust_4="79.02094" pt_clust_5="57.72545" pt_clust_6="14000.00000"></scales>
<clustering>
<clus scale="   57.725">  1  5  2 -1</clus>
<clus scale="   81.298">  2  3  1 -1</clus>
<clus scale="   79.021">  2  4  1 -1</clus>
<clus scale="   81.298">  2  3  1 -1</clus>
</clustering>
</event>
<event>
 6    0  0.3643696E+002  0.1927493E+03  0.7546771E-02  0.1156005E+00
          2   -1    0    0  505    0 -0.00000000000E+00  0.00000000000E+00  0.27036979291E+03  0.27036979291E+03  0.00000000000E+00 0.  1.
         21   -1    0    0  501  502  0.00000000000E+00 -0.00000000000E+00 -0.61310950101E+03  0.61310950101E+03  0.00000000000E+00 0.  1.
         21    1    1    2  503  504 -0.26420999188E+02 -0.80711832007E+02 -0.78070552633E+01  0.85284342854E+02  0.00000000000E+00 0.  1.
         21    1    1    2  504  502 -0.54328576720E+02 -0.17754503403E+03 -0.43369941020E+03  0.47177220325E+03  0.00000000000E+00 0.  1.
         21    1    1    2  505  503  0.41167115974E+02 -0.56053781485E+01 -0.10182089990E+01  0.41559456822E+02  0.00000000000E+00 0.  1.
          2    1    1    2  501    0  0.39582459934E+02  0.26386224419E+03  0.99784966364E+02  0.28486329099E+03  0.00000000000E+00 0.  1.
<scales pt_clust_3="84.00648" pt_clust_4="14000.00000" pt_clust_5="41.54698" pt_clust_6="192.74928"></scales>
<clustering>
<clus scale="   41.547">  1  5  2 -1</clus>
<clus scale="   84.006">  1  3  2 -1</clus>
<clus scale="  192.749">  1  6  2 -1</clus>
<clus scale="  192.749">  2  3  1 -1</clus>
</clustering>
</event>
<event>
 6    0  0.3643696E+002  0.2070678E+03  0.7546771E-02  0.1143909E+00
          4   -1    0    0  505    0 -0.00000000000E+00  0.00000000000E+00  0.55574193531E+03  0.55574193531E+03  0.00000000000E+00 0. -1.
         21   -1    0    0  503  502  0.00000000000E+00 -0.00000000000E+00 -0.25500665530E+04  0.25500665530E+04  0.00000000000E+00 0.  1.
         21    1    1    2  503  501  0.77085697801E+02  0.34480980351E+02  0.87942154931E+02  0.12192196449E+03  0.00000000000E+00 0. -1.
         21    1    1    2  504  502 -0.14127933137E+03 -0.12908195313E+03 -0.25004896045E+04  0.25078018786E+04  0.00000000000E+00 0.  1.
         21    1    1    2  505  504  0.52428688414E+01 -0.36327921541E+02  0.25937054261E+03  0.26195473642E+03  0.00000000000E+00 0. -1.
          4    1    1    2  501    0  0.58950764725E+02  0.13092889432E+03  0.15885228928E+03  0.21412990879E+03  0.00000000000E+00 0. -1.
<scales pt_clust_3="63.58429" pt_clust_4="191.62478" pt_clust_5="36.70430" pt_clust_6="63.58429"></scales>
<clustering>
<clus scale="   36.704">  1  5  2 -1</clus>
<clus scale="   63.584">  3  6 -1 -1</clus>
<clus scale="  191.625">  2  4  1 -1</clus>
<clus scale="  191.625">  2  3  1 -1</clus>
</clustering>
</event>
<event>
 6    0  0.3643696E+002  0.1170020E+03  0.7546771E-02  0.1248126E+00
         21   -1    0    0  505  502  0.00000000000E+00  0.00000000000E+00  0.11640699172E+03  0.11640699172E+03  0.00000000000E+00 0. -1.
         -1   -1    0    0    0  501 -0.00000000000E+00 -0.00000000000E+00 -0.86083867848E+03  0.86083867848E+03  0.00000000000E+00 0. -1.
         21    1    1    2  503  501  0.62781390270E+02 -0.79922795315E+02 -0.11892765831E+03  0.15643830761E+03  0.00000000000E+00 0.  1.
         21    1    1    2  504  502 -0.90619766274E+01  0.84913782274E+02 -0.13216315309E+03  0.15735173617E+03  0.00000000000E+00 0.  1.
         21    1    1    2  505  503  0.63213765241E+02 -0.53901936204E+02  0.55670328154E+02  0.10000292135E+03  0.00000000000E+00 0. -1.
         -1    1    1    2    0  504 -0.11693317888E+03  0.48910949245E+02 -0.54901120351E+03  0.56345270508E+03  0.00000000000E+00 0. -1.
<scales pt_clust_3="14000.00000" pt_clust_4="68.30195" pt_clust_5="83.07466" pt_clust_6="117.00196"></scales>
<clustering>
<clus scale="   83.075">  1  5  2 -1</clus>
<clus scale="   68.302">  1  4  2 -1</clus>
<clus scale="  117.002">  2  6  1 -1</clus>
<clus scale="   83.075">  1  3  2 -1</clus>
</clustering>
</event>
<event>
 6    0  0.3643696E+002  0.1009108E+03  0.7546771E-02  0.1278392E+00
         21   -1    0    0  505  502  0.00000000000E+00  0.00000000000E+00  0.27867513045E+02  0.27867513045E+02  0.00000000000E+00 0. -1.
          2   -1    0    0  504    0 -0.00000000000E+00 -0.00000000000E+00 -0.23197896419E+04  0.23197896419E+04  0.00000000000E+00 0. -1.
         21    1    1    2  503  502 -0.12744097916E+01  0.60840022050E+02 -0.40425129734E+02  0.73056988149E+02  0.00000000000E+00 0. -1.
         21    1    1    2  504  503  0.91110602376E+02  0.18298555510E+02 -0.18860568562E+04  0.18883448954E+04  0.00000000000E+00 0. -1.
         21    1    1    2  505  501 -0.38495870200E+02 -0.56932428026E+02 -0.21713885279E+03  0.22775538364E+03  0.00000000000E+00 0. -1.
          2    1    1    2  501    0 -0.51340322384E+02 -0.22206149534E+02 -0.14830129012E+03  0.15849988780E+03  0.00000000000E+00 0. -1.
<scales pt_clust_3="60.85337" pt_clust_4="94.17967" pt_clust_5="32.69277" pt_clust_6="32.69277"></scales>
<clustering>
<clus scale="   32.693">  5  6 -1 -1</clus>
<clus scale="   60.853">  1  3  2 -1</clus>
<clus scale="   94.180">  2  4  1 -1</clus>
<clus scale="   60.853">  1  3  2 -1</clus>
</clustering>
</event>
<event>
 6    0  0.3643696E+002  0.1131051E+03  0.7546771E-02  0.1254925E+00
         21   -1    0    0  501  502  0.00000000000E+00  0.00000000000E+00  0.10347438020E+03  0.10347438020E+03  0.00000000000E+00 0.  1.
          1   -1    0    0  503    0 -0.00000000000E+00 -0.00000000000E+00 -0.20911265149E+04  0.20911265149E+04  0.00000000000E+00 0. -1.
         21    1    1    2  503  504 -0.55901651666E+02 -0.40269889810E+02 -0.63411558594E+03  0.63784734460E+03  0.00000000000E+00 0. -1.
         21    1    1    2  504  505 -0.26440861793E+01  0.93504205015E+02 -0.19408159265E+03  0.21544765525E+03  0.00000000000E+00 0. -1.
         21    1    1    2  505  502  0.39446790082E+02  0.37032577240E+02  0.81008522273E+02  0.97415818559E+02  0.00000000000E+00 0.  1.
          1    1    1    2  501    0  0.19098947764E+02 -0.90266892444E+02 -0.12404634783E+04  0.12438900766E+04  0.00000000000E+00 0. -1.
<scales pt_clust_3="61.88358" pt_clust_4="113.10515" pt_clust_5="54.10602" pt_clust_6="14000.00000"></scales>
<clustering>
<clus scale="   54.106">  1  5  2 -1</clus>
<clus scale="   61.884">  2  3  1 -1</clus>
<clus scale="  113.105">  1  4  2 -1</clus>
<clus scale="   54.106">  1  3  2 -1</clus>
</clustering>
</event>
<event>
 6    0  0.3643696E+002  0.1393436E+03  0.7546771E-02  0.1214215E+00
          1   -1    0    0  503    0 -0.00000000000E+00  0.00000000000E+00  0.38679974830E+03  0.38679974830E+03  0.00000000000E+00 0.  1.
         21   -1    0    0  501  502  0.00000000000E+00 -0.00000000000E+00 -0.52920700331E+03  0.52920700331E+03  0.00000000000E+00 0. -1.
         21    1    1    2  503  505 -0.49146246534E+02  0.36100440086E+01  0.95385996160E+02  0.10736328157E+03  0.00000000000E+00 0. -1.
         21    1    1    2  504  502  0.26054114289E+02 -0.34795664296E+02 -0.47889920971E+03  0.48086797376E+03  0.00000000000E+00 0. -1.
         21    1    1    2  505  504 -0.93524420355E+02 -0.75410646215E+01  0.69741495837E+02  0.11690834487E+03  0.00000000000E+00 0.  1.
          1    1    1    2  501    0  0.11661655260E+03  0.38726684909E+02  0.17136446271E+03  0.21086715141E+03  0.00000000000E+00 0.  1.
<scales pt_clust_3="37.37909" pt_clust_4="43.46901" pt_clust_5="37.37909" pt_clust_6="129.44629"></scales>
<clustering>
<clus scale="   37.379">  3  5 -1 -1</clus>
<clus scale="   43.469">  2  4  1 -1</clus>
<clus scale="  129.446">  1  6  2 -1</clus>
<clus scale="   43.469">  2  3  1 -1</clus>
</clustering>
</event>
<event>
 6    0  0.3643696E+002  0.1902039E+03  0.7546771E-02  0.1158278E+00
         21   -1    0    0  501  502  0.00000000000E+00  0.00000000000E+00  0.13105307296E+04  0.13105307296E+04  0.00000000000E+00 0.  1.
          3   -1    0    0  503    0 -0.00000000000E+00 -0.00000000000E+00 -0.36135334070E+03  0.36135334070E+03  0.00000000000E+00 0.  1.
         21    1    1    2  503  505 -0.32787629161E+02  0.27026919851E+02  0.21678242930E+02  0.47701459508E+02  0.00000000000E+00 0.  1.
         21    1    1    2  504  502  0.43990348687E+02  0.34860346937E+02  0.74177388440E+03  0.74389440793E+03  0.00000000000E+00 0.  1.
         21    1    1    2  505  504 -0.19841611407E+03  0.67808526083E+02  0.47081486015E+03  0.51539652993E+03  0.00000000000E+00 0.  1.
          3    1    1    2  501    0  0.18721339454E+03 -0.12969579287E+03 -0.28508959856E+03  0.36489167296E+03  0.00000000000E+00 0.  1.
<scales pt_clust_3="42.49098" pt_clust_4="56.10139" pt_clust_5="190.20386" pt_clust_6="14000.00000"></scales>
<clustering>
<clus scale="   42.491">  2  3  1 -1</clus>
<clus scale="   56.101">  1  4  2 -1</clus>
<clus scale="  190.204">  1  5  2 -1</clus>
<clus scale="   56.101">  1  3  2 -1</clus>
</clustering>
</event>
<event>
 6    0  0.3643696E+002  0.1895280E+03  0.7546771E-02  0.1158888E+00
         21   -1    0    0  504  502  0.00000000000E+00  0.00000000000E+00  0.51746386135E+03  0.51746386135E+03  0.00000000000E+00 0. -1.
          2   -1    0    0  503    0 -0.00000000000E+00 -0.00000000000E+00 -0.27733395196E+04  0.27733395196E+04  0.00000000000E+00 0.  1.
         21    1    1    2  503  505  0.50889483166E+02 -0.13953894072E+02 -0.30460109508E+03  0.30913795914E+03  0.00000000000E+00 0.  1.
         21    1    1    2  504  501 -0.71899667517E+02  0.23720650516E+02 -0.27541348508E+02  0.80565236470E+02  0.00000000000E+00 0. -1.
         21    1    1    2  505  502 -0.11279979677E+03  0.27903891046E+02  0.47973908066E+03  0.49361118991E+03  0.00000000000E+00 0. -1.
          2    1    1    2  501    0  0.13380998112E+03 -0.37670647490E+02 -0.24034722954E+04  0.24074889955E+04  0.00000000000E+00 0.  1.
<scales pt_clust_3="52.76789" pt_clust_4="74.55661" pt_clust_5="14000.00000" pt_clust_6="189.52805"></scales>
<clustering>
<clus scale="   52.768">  2  3  1 -1</clus>
<clus scale="   74.557">  1  4  2 -1</clus>
<clus scale="  189.528">  2  6  1 -1</clus>
<clus scale="   74.557">  1  3  2 -1</clus>
</clustering>
</event>
<event>
 6    0  0.3643696E+002  0.1439586E+03  0.7546771E-02  0.1208099E+00
         21   -1    0    0  503  502  0.00000000000E+00  0.00000000000E+00  0.52106558997E+03  0.52106558997E+03  0.00000000000E+00 0. -1.
          2   -1    0    0  504    0 -0.00000000000E+00 -0.00000000000E+00 -0.20486168662E+04  0.20486168662E+04  0.00000000000E+00 0.  1.
         21    1    1    2  503  501  0.33264803099E+02  0.78149742820E+01 -0.13425971808E+02  0.36713453491E+02  0.00000000000E+00 0.  1.
         21    1    1    2  504  505  0.94712920354E+02  0.52625986485E+02 -0.24238454200E+03  0.26550009028E+03  0.00000000000E+00 0. -1.
         21    1    1    2  505  502  0.27243464482E+02 -0.40209021521E+02  0.49320725322E+03  0.49559294426E+03  0.00000000000E+00 0. -1.
          2    1    1    2  501    0 -0.15522118794E+03 -0.20231939246E+02 -0.17649480157E+04  0.17718759681E+04  0.00000000000E+00 0.  1.
<scales pt_clust_3="34.17047" pt_clust_4="143.95862" pt_clust_5="67.88125" pt_clust_6="14000.00000"></scales>
<clustering>
<clus scale="   34.170">  1  3  2 -1</clus>
<clus scale="   67.881">  1  5  2 -1</clus>
<clus scale="  143.959">  1  4  2 -1</clus>
<clus scale="   34.170">  1  3  2 -1</clus>
</clustering>
</event>
<event>
 6    0  0.3643696E+002  0.8952751E+02  0.7546771E-02  0.1304000E+00
         21   -1    0    0  501  502  0.00000000000E+00  0.00000000000E+00  0.93800437709E+02  0.93800437709E+02  0.00000000000E+00 0. -1.
          2   -1    0    0  505    0 -0.00000000000E+00 -0.00000000000E+00 -0.66543211851E+03  0.66543211851E+03  0.00000000000E+00 0. -1.
         21    1    1    2  503  502  0.39467628556E+02 -0.88025403991E+01  0.59656700873E+02  0.72070107398E+02  0.00000000000E+00 0. -1.
         21    1    1    2  504  503 -0.10099217593E+03 -0.61349760358E+02 -0.13953768057E+03  0.18284960212E+03  0.00000000000E+00 0. -1.
         21    1    1    2  505  504  0.14722622894E+02  0.35542699472E+02 -0.83536940198E+02  0.91969883594E+02  0.00000000000E+00 0. -1.
          2    1    1    2  501    0  0.46801924479E+02  0.34609601285E+02 -0.40821376090E+03  0.41234296311E+03  0.00000000000E+00 0. -1.
<scales pt_clust_3="40.51065" pt_clust_4="89.52751" pt_clust_5="38.47128" pt_clust_6="14000.00000"></scales>
<clustering>
<clus scale="   38.471">  2  5  1 -1</clus>
<clus scale="   40.511">  1  3  2 -1</clus>
<clus scale="   89.528">  1  4  2 -1</clus>
<clus scale="   40.511">  1  3  2 -1</clus>
</clustering>
</event>
<event>
 6    0  0.3643696E+002  0.7803461E+02  0.7546771E-02  0.1334723E+00
          1   -1    0    0  504    0 -0.00000000000E+00  0.00000000000E+00  0.71926808605E+03  0.71926808605E+03  0.00000000000E+00 0. -1.
         21   -1    0    0  501  502  0.00000000000E+00 -0.00000000000E+00 -0.14514907700E+03  0.14514907700E+03  0.00000000000E+00 0. -1.
         21    1    1    2  503  505 -0.70574047338E+02 -0.57406514390E+02  0.10930577519E+03  0.14221095789E+03  0.00000000000E+00 0. -1.
         21    1    1    2  504  503  0.39101649335E+02 -0.13866619180E+02  0.46702886845E+03  0.46886798363E+03  0.00000000000E+00 0. -1.
         21    1    1    2  505  502 -0.66331615424E+01  0.80165386696E+02 -0.11137025922E+03  0.13738203192E+03  0.00000000000E+00 0. -1.
          1    1    1    2  501    0  0.38105559545E+02 -0.88922531260E+01  0.10915462462E+03  0.11595618961E+03  0.00000000000E+00 0. -1.
<scales pt_clust_3="78.03461" pt_clust_4="71.55885" pt_clust_5="14000.00000" pt_clust_6="39.12935"></scales>
<clustering>
<clus scale="   39.129">  1  6  2 -1</clus>
<clus scale="   71.559">  1  4  2 -1</clus>
<clus scale="   78.035">  1  3  2 -1</clus>
<clus scale="   78.035">  2  3  1 -1</clus>
</clustering>
</event>
<event>
 6    0  0.3643696E+002  0.4001791E+03  0.7546771E-02  0.1043718E+00
         21   -1    0    0  505  502  0.00000000000E+00  0.00000000000E+00  0.98186093641E+03  0.98186093641E+03  0.00000000000E+00 0.  1.
          2   -1    0    0  503    0 -0.00000000000E+00 -0.00000000000E+00 -0.18048310225E+04  0.18048310225E+04  0.00000000000E+00 0.  1.
         21    1    1    2  503  502 -0.54572388979E+02 -0.21746848411E+02 -0.10087554171E+04  0.10104645281E+04  0.00000000000E+00 0.  1.
         21    1    1    2  504  501 -0.10472869225E+02 -0.49362553490E+02 -0.16459736825E+03  0.17215875322E+03  0.00000000000E+00 0. -1.
         21    1    1    2  505  504 -0.56910889150E+02  0.38052880165E+03  0.89032930247E+03  0.96991096758E+03  0.00000000000E+00 0.  1.
          2    1    1    2  501    0  0.12195614735E+03 -0.30941939975E+03 -0.53994660323E+03  0.63415771001E+03  0.00000000000E+00 0.  1.
<scales pt_clust_3="58.74582" pt_clust_4="43.74235" pt_clust_5="384.09936" pt_clust_6="43.74235"></scales>
<clustering>
<clus scale="   43.742">  4  6 -1 -1</clus>
<clus scale="   58.746">  2  3  1 -1</clus>
<clus scale="  384.099">  1  5  2 -1</clus>
<clus scale="  384.099">  1  3  2 -1</clus>
</clustering>
</event>
<event>
 6    0  0.3643696E+002  0.9627646E+02  0.7546771E-02  0.1288327E+00
         21   -1    0    0  504  502  0.00000000000E+00  0.00000000000E+00  0.22489141437E+03  0.22489141437E+03  0.00000000000E+00 0.  1.
          2   -1    0    0  503    0 -0.00000000000E+00 -0.00000000000E+00 -0.26578078863E+04  0.26578078863E+04  0.00000000000E+00 0.  1.
         21    1    1    2  503  505  0.30639508091E+02 -0.31421814244E+02 -0.12753918268E+03  0.13487903093E+03  0.00000000000E+00 0. -1.
         21    1    1    2  504  501 -0.61721799383E+02  0.35102110383E+02 -0.82974620586E+03  0.83277878504E+03  0.00000000000E+00 0.  1.
         21    1    1    2  505  502  0.69303209818E+02 -0.67337563059E+02  0.20822257895E+03  0.22955157301E+03  0.00000000000E+00 0.  1.
          2    1    1    2  501    0 -0.38220918526E+02  0.63657266921E+02 -0.16838536623E+04  0.16854899117E+04  0.00000000000E+00 0.  1.
<scales pt_clust_3="43.88747" pt_clust_4="96.27646" pt_clust_5="14000.00000" pt_clust_6="46.26372"></scales>
<clustering>
<clus scale="   43.887">  2  3  1 -1</clus>
<clus scale="   46.264">  2  6  1 -1</clus>
<clus scale="   96.276">  2  4  1 -1</clus>
<clus scale="   96.276">  1  3  2 -1</clus>
</clustering>
</event>
<event>
 6    0  0.3643696E+002  0.2224495E+03  0.7546771E-02  0.1132070E+00
          2   -1    0    0  504    0 -0.00000000000E+00  0.00000000000E+00  0.57726063551E+03  0.57726063551E+03  0.00000000000E+00 0.  1.
         21   -1    0    0  505  502  0.00000000000E+00 -0.00000000000E+00 -0.25171994294E+03  0.25171994294E+03  0.00000000000E+00 0.  1.
         21    1    1    2  503  502 -0.46851697961E+02 -0.31727898335E+02  0.38279299013E+02  0.68315780516E+02  0.00000000000E+00 0.  1.
         21    1    1    2  504  503  0.55654028534E+02 -0.68768571626E+01  0.41942395919E+02  0.70027327750E+02  0.00000000000E+00 0.  1.
         21    1    1    2  505  501  0.29192954831E+02  0.22570004904E+03 -0.13534257305E+03  0.26478359622E+03  0.00000000000E+00 0.  1.
          2    1    1    2  501    0 -0.37995285404E+02 -0.18709529354E+03  0.38066157068E+03  0.42585387397E+03  0.00000000000E+00 0.  1.
<scales pt_clust_3="52.40258" pt_clust_4="56.07729" pt_clust_5="14000.00000" pt_clust_6="222.44953"></scales>
<clustering>
<clus scale="   56.077">  1  4  2 -1</clus>
<clus scale="   52.403">  1  3  2 -1</clus>
<clus scale="  222.450">  1  6  2 -1</clus>
<clus scale="  222.450">  2  3  1 -1</clus>
</clustering>
</event>
<event>
 6    0  0.3643696E+002  0.1214147E+03  0.7546771E-02  0.1240781E+00
         21   -1    0    0  505  502  0.00000000000E+00  0.00000000000E+00  0.89344675787E+03  0.89344675787E+03  0.00000000000E+00 0.  1.
         -1   -1    0    0    0  501 -0.00000000000E+00 -0.00000000000E+00 -0.24269179250E+04  0.24269179250E+04  0.00000000000E+00 0. -1.
         21    1    1    2  503  501 -0.41067971505E+02 -0.40805311132E+02 -0.51131775114E+03  0.51458477857E+03  0.00000000000E+00 0.  1.
         21    1    1    2  504  503 -0.79696488520E+02 -0.79757991021E+02 -0.35142040750E+03  0.36906526553E+03  0.00000000000E+00 0. -1.
         21    1    1    2  505  504 -0.15054786748E+02  0.12108972240E+03  0.87578463322E+03  0.88424436174E+03  0.00000000000E+00 0.  1.
         -1    1    1    2    0  502  0.13581924677E+03 -0.52642024492E+00 -0.15465176417E+04  0.15524702770E+04  0.00000000000E+00 0. -1.
<scales pt_clust_3="57.89345" pt_clust_4="121.41470" pt_clust_5="14000.00000" pt_clust_6="107.92277"></scales>
<clustering>
<clus scale="   57.893">  2  3  1 -1</clus>
<clus scale="  107.923">  2  6  1 -1</clus>
<clus scale="  121.415">  2  4  1 -1</clus>
<clus scale="  121.415">  1  3  2 -1</clus>
</clustering>
</event>
<event>
 6    0  0.3643696E+002  0.6939373E+02  0.7546771E-02  0.1362167E+00
          1   -1    0    0  504    0 -0.00000000000E+00  0.00000000000E+00  0.10616309937E+04  0.10616309937E+04  0.00000000000E+00 0.  1.
         21   -1    0    0  501  502  0.00000000000E+00 -0.00000000000E+00 -0.18004660531E+02  0.18004660531E+02  0.00000000000E+00 0. -1.
         21    1    1    2  503  502  0.44922452475E+02 -0.45035306621E+02  0.11582400068E+03  0.13214160855E+03  0.00000000000E+00 0. -1.
         21    1    1    2  504  505 -0.30355206852E+02  0.89467131392E+01  0.18733419781E+03  0.18998837840E+03  0.00000000000E+00 0. -1.
         21    1    1    2  505  503  0.11465579337E+02 -0.59306409161E+02  0.30942163502E+03  0.31526252219E+03  0.00000000000E+00 0.  1.
          1    1    1    2  501    0 -0.26032824960E+02  0.95395002643E+02  0.43104649965E+03  0.44224314508E+03  0.00000000000E+00 0.  1.
<scales pt_clust_3="69.39373" pt_clust_4="31.64620" pt_clust_5="56.10860" pt_clust_6="14000.00000"></scales>
<clustering>
<clus scale="   31.646">  1  4  2 -1</clus>
<clus scale="   56.109">  1  5  2 -1</clus>
<clus scale="   69.394">  2  3  1 -1</clus>
<clus scale="   69.394">  2  3  1 -1</clus>
</clustering>
</event>
<event>
 6    0  0.3643696E+002  0.1713359E+03  0.7546771E-02  0.1176462E+00
         21   -1    0    0  503  502  0.00000000000E+00  0.00000000000E+00  0.67685212868E+02  0.67685212868E+02  0.00000000000E+00 0. -1.
          1   -1    0    0  504    0 -0.00000000000E+00 -0.00000000000E+00 -0.88131781642E+03  0.88131781642E+03  0.00000000000E+00 0.  1.
         21    1    1    2  503  505  0.61165581898E+02  0.15096842755E+03 -0.64547939347E+02  0.17521167484E+03  0.00000000000E+00 0. -1.
         21    1    1    2  504  502  0.20175343033E+02 -0.26564998532E+02 -0.13541625579E+03  0.13946435367E+03  0.00000000000E+00 0. -1.
         21    1    1    2  505  501 -0.33896511898E+02 -0.20159817221E+02 -0.89702446698E+02  0.97989390716E+02  0.00000000000E+00 0.  1.
          1    1    1    2  501    0 -0.47444413032E+02 -0.10424361179E+03 -0.52396596172E+03  0.53633761006E+03  0.00000000000E+00 0.  1.
<scales pt_clust_3="160.20836" pt_clust_4="33.35781" pt_clust_5="33.66874" pt_clust_6="33.66874"></scales>
<clustering>
<clus scale="   33.358">  2  4  1 -1</clus>
<clus scale="   33.669">  5  6 -1 -1</clus>
<clus scale="  160.208">  1  3  2 -1</clus>
<clus scale="  160.208">  1  3  2 -1</clus>
</clustering>
</event>
<event>
 6    0  0.3643696E+002  0.1550476E+03  0.7546771E-02  0.1194404E+00
          1   -1    0    0  504    0 -0.00000000000E+00  0.00000000000E+00  0.19650065401E+04  0.19650065401E+04  0.00000000000E+00 0. -1.
         21   -1    0    0  501  502  0.00000000000E+00 -0.00000000000E+00 -0.22435321224E+03  0.22435321224E+03  0.00000000000E+00 0. -1.
         21    1    1    2  503  502  0.41624776843E+02  0.14936409830E+03 -0.18829149083E+03  0.24391789895E+03  0.00000000000E+00 0. -1.
         21    1    1    2  504  505  0.24287103220E+02  0.22659291782E+02  0.90841557286E+02  0.96723809980E+02  0.00000000000E+00 0. -1.
         21    1    1    2  505  503  0.11785421419E+02 -0.33287086306E+02  0.21941547379E+03  0.22223878242E+03  0.00000000000E+00 0. -1.
          1    1    1    2  501    0 -0.77697301482E+02 -0.13873630378E+03  0.16186877876E+04  0.16264792610E+04  0.00000000000E+00 0. -1.
<scales pt_clust_3="155.04761" pt_clust_4="33.21606" pt_clust_5="33.93856" pt_clust_6="14000.00000"></scales>
<clustering>
<clus scale="   33.216">  1  4  2 -1</clus>
<clus scale="   33.939">  1  5  2 -1</clus>
<clus scale="  155.048">  2  3  1 -1</clus>
<clus scale="  155.048">  2  3  1 -1</clus>
</clustering>
</event>
<event>
 6    0  0.3643696E+002  0.9764174E+02  0.7546771E-02  0.1285335E+00
         -3   -1    0    0    0  501 -0.00000000000E+00  0.00000000000E+00  0.21566315689E+03  0.21566315689E+03  0.00000000000E+00 0.  1.
         21   -1    0    0  505  502  0.00000000000E+00 -0.00000000000E+00 -0.88305940700E+03  0.88305940700E+03  0.00000000000E+00 0.  1.
         21    1    1    2  503  502  0.37494514497E+02  0.33629617916E+02 -0.31912836971E+02  0.59625657079E+02  0.00000000000E+00 0.  1.
         21    1    1    2  504  501 -0.52772725840E+02 -0.89913051766E+02  0.42047997768E+02  0.11241597567E+03  0.00000000000E+00 0.  1.
         21    1    1    2  505  504 -0.10321674672E+02 -0.35572730369E+02 -0.78335634760E+03  0.78423154963E+03  0.00000000000E+00 0.  1.
         -3    1    1    2    0  503  0.25599886015E+02  0.91856164220E+02  0.10582493668E+03  0.14244938151E+03  0.00000000000E+00 0.  1.
<scales pt_clust_3="36.99193" pt_clust_4="97.64174" pt_clust_5="37.03993" pt_clust_6="14000.00000"></scales>
<clustering>
<clus scale="   37.040">  2  5  1 -1</clus>
<clus scale="   36.992">  2  3  1 -1</clus>
<clus scale="   97.642">  2  4  1 -1</clus>
<clus scale="   37.040">  2  3  1 -1</clus>
</clustering>
</event>
<event>
 6    0  0.3643696E+002  0.2528956E+03  0.7546771E-02  0.1111488E+00
          1   -1    0    0  503    0 -0.00000000000E+00  0.00000000000E+00  0.20164511942E+04  0.20164511942E+04  0.00000000000E+00 0. -1.
         21   -1    0    0  505  502  0.00000000000E+00 -0.00000000000E+00 -0.44377093519E+02  0.44377093519E+02  0.00000000000E+00 0. -1.
         21    1    1    2  503  504 -0.38067109647E+02 -0.17659829042E+01  0.13895693547E+03  0.14408765890E+03  0.00000000000E+00 0.  1.
         21    1    1    2  504  502 -0.29346727645E+00 -0.24926885199E+03  0.49516670732E+03  0.55436911416E+03  0.00000000000E+00 0. -1.
         21    1    1    2  505  501  0.35875810905E+02  0.12559109906E+03  0.63159356243E+03  0.64495784829E+03  0.00000000000E+00 0. -1.
          1    1    1    2  501    0  0.24847660177E+01  0.12544373584E+03  0.70635689551E+03  0.71741366641E+03  0.00000000000E+00 0. -1.
<scales pt_clust_3="38.10805" pt_clust_4="250.00295" pt_clust_5="37.38151" pt_clust_6="37.38151"></scales>
<clustering>
<clus scale="   37.382">  5  6 -1 -1</clus>
<clus scale="   38.108">  1  3  2 -1</clus>
<clus scale="  250.003">  2  4  1 -1</clus>
<clus scale="  250.003">  2  3  1 -1</clus>
</clustering>
</event>
<event>
 6    0  0.3643696E+002  0.1017053E+03  0.7546771E-02  0.1276750E+00
         21   -1    0    0  503  502  0.00000000000E+00  0.00000000000E+00  0.41033034001E+03  0.41033034001E+03  0.00000000000E+00 0. -1.
          2   -1    0    0  504    0 -0.00000000000E+00 -0.00000000000E+00 -0.31069977014E+03  0.31069977014E+03  0.00000000000E+00 0. -1.
         21    1    1    2  503  505  0.27901943163E+01 -0.39666011339E+02  0.35650961817E+03  0.35872034440E+03  0.00000000000E+00 0. -1.
         21    1    1    2  504  502 -0.32001391362E+02  0.24425680346E+02 -0.67462361722E+02  0.78561270093E+02  0.00000000000E+00 0.  1.
         21    1    1    2  505  501 -0.38084244296E+02 -0.75230300291E+02 -0.32159530990E+02  0.90245460711E+02  0.00000000000E+00 0. -1.
          2    1    1    2  501    0  0.67295441342E+02  0.90470631284E+02 -0.15725715558E+03  0.19350303494E+03  0.00000000000E+00 0. -1.
<scales pt_clust_3="39.76402" pt_clust_4="37.62229" pt_clust_5="14000.00000" pt_clust_6="101.70528"></scales>
<clustering>
<clus scale="   39.764">  1  3  2 -1</clus>
<clus scale="   37.622">  2  4  1 -1</clus>
<clus scale="  101.705">  2  6  1 -1</clus>
<clus scale="   39.764">  1  3  2 -1</clus>
</clustering>
</event>
<event>
 6    0  0.3643696E+002  0.1507738E+03  0.7546771E-02  0.1199525E+00
         21   -1    0    0  504  502  0.00000000000E+00  0.00000000000E+00  0.20515756354E+03  0.20515756354E+03  0.00000000000E+00 0.  1.
          2   -1    0    0  505    0 -0.00000000000E+00 -0.00000000000E+00 -0.18869635587E+04  0.18869635587E+04  0.00000000000E+00 0.  1.
         21    1    1    2  503  501  0.12674706194E+02 -0.78698034791E+02 -0.11587093224E+04  0.11614479423E+04  0.00000000000E+00 0.  1.
         21    1    1    2  504  503 -0.28963768381E+02  0.16382670641E+03 -0.68098613588E+02  0.17976515454E+03  0.00000000000E+00 0.  1.
         21    1    1    2  505  502 -0.27955521579E+02 -0.36239931893E+02  0.14255795170E+03  0.14972512629E+03  0.00000000000E+00 0.  1.
          2    1    1    2  501    0  0.44244583766E+02 -0.48888739727E+02 -0.59755601090E+03  0.60118289914E+03  0.00000000000E+00 0.  1.
<scales pt_clust_3="48.69532" pt_clust_4="140.89490" pt_clust_5="45.76946" pt_clust_6="48.69532"></scales>
<clustering>
<clus scale="   45.769">  1  5  2 -1</clus>
<clus scale="   48.695">  3  6 -1 -1</clus>
<clus scale="  140.895">  1  4  2 -1</clus>
<clus scale="   45.769">  1  3  2 -1</clus>
</clustering>
</event>
<event>
 6    0  0.3643696E+002  0.2583781E+03  0.7546771E-02  0.1108122E+00
          2   -1    0    0  502    0 -0.00000000000E+00  0.00000000000E+00  0.97891534052E+03  0.97891534052E+03  0.00000000000E+00 0.  1.
         21   -1    0    0  505  502  0.00000000000E+00 -0.00000000000E+00 -0.14442831791E+03  0.14442831791E+03  0.00000000000E+00 0. -1.
         21    1    1    2  503  501  0.10061629022E+03  0.64338865984E+02  0.31819926704E+03  0.33987336035E+03  0.00000000000E+00 0. -1.
         21    1    1    2  504  503 -0.21385698414E+03 -0.48608089785E+02  0.14489255957E+03  0.26285244887E+03  0.00000000000E+00 0. -1.
         21    1    1    2  505  504 -0.34077092365E+02 -0.34495450010E+01 -0.57518173800E+02  0.66943916094E+02  0.00000000000E+00 0.  1.
          2    1    1    2  501    0  0.14731778628E+03 -0.12281231198E+02  0.42891336980E+03  0.45367393312E+03  0.00000000000E+00 0.  1.
<scales pt_clust_3="77.13129" pt_clust_4="243.72226" pt_clust_5="34.25124" pt_clust_6="77.13129"></scales>
<clustering>
<clus scale="   34.251">  2  5  1 -1</clus>
<clus scale="   77.131">  3  6 -1 -1</clus>
<clus scale="  243.722">  2  4  1 -1</clus>
<clus scale="   34.251">  2  3  1 -1</clus>
</clustering>
</event>
<event>
 6    0  0.3643696E+002  0.8664617E+02  0.7546771E-02  0.1311183E+00
          2   -1    0    0  503    0 -0.00000000000E+00  0.00000000000E+00  0.21986314325E+04  0.21986314325E+04  0.00000000000E+00 0. -1.
         21   -1    0    0  501  502  0.00000000000E+00 -0.00000000000E+00 -0.33240919149E+02  0.33240919149E+02  0.00000000000E+00 0. -1.
         21    1    1    2  503  504  0.40029615674E+02 -0.12723213841E+02  0.24339612095E+03  0.24699376914E+03  0.00000000000E+00 0. -1.
         21    1    1    2  504  505  0.45447158250E+02  0.44781787984E+02  0.94182931782E+03  0.94398798543E+03  0.00000000000E+00 0. -1.
         21    1    1    2  505  502 -0.54712637297E+01  0.50394533004E+02 -0.32429251430E+01  0.50794293448E+02  0.00000000000E+00 0. -1.
          2    1    1    2  501    0 -0.80005510194E+02 -0.82453107147E+02  0.98340799971E+03  0.99009630362E+03  0.00000000000E+00 0. -1.
<scales pt_clust_3="42.00298" pt_clust_4="14000.00000" pt_clust_5="50.48629" pt_clust_6="86.64617"></scales>
<clustering>
<clus scale="   42.003">  1  3  2 -1</clus>
<clus scale="   50.486">  2  5  1 -1</clus>
<clus scale="   86.646">  2  6  1 -1</clus>
<clus scale="   50.486">  2  3  1 -1</clus>
</clustering>
</event>
<event>
 6    0  0.3643696E+002  0.1545502E+03  0.7546771E-02  0.1194991E+00
         21   -1    0    0  505  502  0.00000000000E+00  0.00000000000E+00  0.12892604749E+02  0.12892604749E+02  0.00000000000E+00 0.  1.
          1   -1    0    0  502    0 -0.00000000000E+00 -0.00000000000E+00 -0.25816462155E+04  0.25816462155E+04  0.00000000000E+00 0.  1.
         21    1    1    2  503  504 -0.47269182696E+02 -0.13101784681E+02 -0.29652849227E+03  0.30055811272E+03  0.00000000000E+00 0.  1.
         21    1    1    2  504  501  0.69371391384E+02 -0.44115981925E+02 -0.13619216988E+04  0.13644007195E+04  0.00000000000E+00 0.  1.
         21    1    1    2  505  503 -0.86341158700E+02  0.39525399948E+02 -0.27789321943E+03  0.29366936227E+03  0.00000000000E+00 0.  1.
          1    1    1    2  501    0  0.64238950012E+02  0.17692366658E+02 -0.63241020031E+03  0.63591062579E+03  0.00000000000E+00 0.  1.
<scales pt_clust_3="48.72501" pt_clust_4="65.76183" pt_clust_5="152.13806" pt_clust_6="65.76183"></scales>
<clustering>
<clus scale="   48.725">  3  5 -1 -1</clus>
<clus scale="   65.762">  4  6 -1 -1</clus>
<clus scale="  152.138">  1  3  2 -1</clus>
<clus scale="  152.138">  1  3  2 -1</clus>
</clustering>
</event>
<event>
 6    0  0.3643696E+002  0.2000993E+03  0.7546771E-02  0.1149655E+00
          2   -1    0    0  505    0 -0.00000000000E+00  0.00000000000E+00  0.27986845322E+04  0.27986845322E+04  0.00000000000E+00 0.  1.
         21   -1    0    0  503  502  0.00000000000E+00 -0.00000000000E+00 -0.30679509395E+02  0.30679509395E+02  0.00000000000E+00 0.  1.
         21    1    1    2  503  501 -0.39677856021E+01  0.65294733721E+02  0.40109102784E+03  0.40639040120E+03  0.00000000000E+00 0.  1.
         21    1    1    2  504  502  0.12043464218E+03 -0.16108619093E+03  0.44815354477E+03  0.49121773547E+03  0.00000000000E+00 0.  1.
         21    1    1    2  505  504 -0.34119322105E+02  0.26833442336E+02  0.14578543097E+04  0.14585003771E+04  0.00000000000E+00 0. -1.
          2    1    1    2  501    0 -0.82347534477E+02  0.68958014873E+02  0.46090614053E+03  0.47325552784E+03  0.00000000000E+00 0.  1.
<scales pt_clust_3="56.66663" pt_clust_4="186.48332" pt_clust_5="43.40693" pt_clust_6="56.66663"></scales>
<clustering>
<clus scale="   43.407">  1  5  2 -1</clus>
<clus scale="   56.667">  3  6 -1 -1</clus>
<clus scale="  186.483">  2  4  1 -1</clus>
<clus scale="  186.483">  2  3  1 -1</clus>
</clustering>
</event>
<event>
 6    0  0.3643696E+002  0.1783364E+03  0.7546771E-02  0.1169423E+00
         -3   -1    0    0    0  501 -0.00000000000E+00  0.00000000000E+00  0.10554822849E+04  0.10554822849E+04  0.00000000000E+00 0. -1.
         21   -1    0    0  505  502  0.00000000000E+00 -0.00000000000E+00 -0.19304283217E+03  0.19304283217E+03  0.00000000000E+00 0. -1.
         21    1    1    2  503  504 -0.48347516386E+02 -0.13626571770E+03  0.38745054463E+03  0.41355018159E+03  0.00000000000E+00 0. -1.
         21    1    1    2  504  501  0.95391900476E+02 -0.39578843927E+02  0.33646564083E+03  0.35195912692E+03  0.00000000000E+00 0.  1.
         21    1    1    2  505  503 -0.29346218730E+02 -0.54334866840E+02 -0.12089263388E+03  0.13575163806E+03  0.00000000000E+00 0. -1.
         -3    1    1    2    0  502 -0.17698165360E+02  0.23017942846E+03  0.25941590119E+03  0.34726417053E+03  0.00000000000E+00 0. -1.
<scales pt_clust_3="14000.00000" pt_clust_4="102.78813" pt_clust_5="61.75337" pt_clust_6="178.33641"></scales>
<clustering>
<clus scale="   61.753">  2  5  1 -1</clus>
<clus scale="  102.788">  1  4  2 -1</clus>
<clus scale="  178.336">  2  6  1 -1</clus>
<clus scale="   61.753">  2  3  1 -1</clus>
</clustering>
</event>
<event>
 6    0  0.3643696E+002  0.1754769E+03  0.7546771E-02  0.1172254E+00
         21   -1    0    0  504  502  0.00000000000E+00  0.00000000000E+00  0.27994697264E+04  0.27994697264E+04  0.00000000000E+00 0. -1.
          3   -1    0    0  503    0 -0.00000000000E+00 -0.00000000000E+00 -0.57242457843E+03  0.57242457843E+03  0.00000000000E+00 0.  1.
         21    1    1    2  503  505  0.27546225005E+02 -0.33876737117E+02  0.50068337703E+01  0.43948790815E+02  0.00000000000E+00 0.  1.
         21    1    1    2  504  501  0.13379009001E+03 -0.95544880148E+02 -0.45080419690E+03  0.47984688834E+03  0.00000000000E+00 0.  1.
         21    1    1    2  505  502 -0.13409632654E+03  0.11329082411E+03  0.27547232271E+04  0.27603109777E+04  0.00000000000E+00 0. -1.
          3    1    1    2  501    0 -0.27239988473E+02  0.16130793150E+02 -0.81880716075E+02  0.87787647905E+02  0.00000000000E+00 0.  1.
<scales pt_clust_3="42.47887" pt_clust_4="175.47695" pt_clust_5="14000.00000" pt_clust_6="31.65785"></scales>
<clustering>
<clus scale="   31.658">  2  6  1 -1</clus>
<clus scale="   42.479">  2  3  1 -1</clus>
<clus scale="  175.477">  2  4  1 -1</clus>
<clus scale="  175.477">  1  3  2 -1</clus>
</clustering>
</event>
<event>
 6    0  0.3643696E+002  0.9229158E+02  0.7546771E-02  0.1297395E+00
          2   -1    0    0  503    0 -0.00000000000E+00  0.00000000000E+00  0.25762217295E+04  0.25762217295E+04  0.00000000000E+00 0.  1.
         21   -1    0    0  505  502  0.00000000000E+00 -0.00000000000E+00 -0.22492270470E+02  0.22492270470E+02  0.00000000000E+00 0.  1.
         21    1    1    2  503  504 -0.56538921698E+02 -0.59457854762E+02  0.11229118185E+04  0.11259053416E+04  0.00000000000E+00 0.  1.
         21    1    1    2  504  502 -0.22743632349E+02  0.24508548525E+02  0.10509225538E+03  0.11028292662E+03  0.00000000000E+00 0. -1.
         21    1    1    2  505  501  0.11867063091E+03 -0.21619126075E+02  0.19226443914E+03  0.22697074660E+03  0.00000000000E+00 0.  1.
          2    1    1    2  501    0 -0.39388076863E+02  0.56568432312E+02  0.11334609461E+04  0.11355549852E+04  0.00000000000E+00 0.  1.
<scales pt_clust_3="14000.00000" pt_clust_4="33.43564" pt_clust_5="92.29158" pt_clust_6="70.67317"></scales>
<clustering>
<clus scale="   33.436">  2  4  1 -1</clus>
<clus scale="   70.673">  1  6  2 -1</clus>
<clus scale="   92.292">  2  5  1 -1</clus>
<clus scale="   33.436">  2  3  1 -1</clus>
</clustering>
</event>
<event>
 6    0  0.3643696E+002  0.1075702E+03  0.7546771E-02  0.1265137E+00
          2   -1    0    0  504    0 -0.00000000000E+00  0.00000000000E+00  0.12468754637E+04  0.12468754637E+04  0.00000000000E+00 0.  1.
         21   -1    0    0  503  502  0.00000000000E+00 -0.00000000000E+00 -0.67110381961E+02  0.67110381961E+02  0.00000000000E+00 0. -1.
         21    1    1    2  503  501  0.89121723846E+01 -0.36594078217E+02 -0.45079696216E+02  0.58742934793E+02  0.00000000000E+00 0. -1.
         21    1    1    2  504  505  0.18557690286E+02 -0.27299975842E+02  0.14890850873E+03  0.15252350810E+03  0.00000000000E+00 0. -1.
         21    1    1    2  505  502 -0.36116177277E+02 -0.75807504433E+02  0.22127054956E+03  0.23666814760E+03  0.00000000000E+00 0. -1.
          2    1    1    2  501    0  0.86463146068E+01  0.13970155849E+03  0.85466571966E+03  0.86605125516E+03  0.00000000000E+00 0.  1.
<scales pt_clust_3="37.85643" pt_clust_4="33.01025" pt_clust_5="107.57019" pt_clust_6="14000.00000"></scales>
<clustering>
<clus scale="   33.010">  1  4  2 -1</clus>
<clus scale="   37.856">  2  3  1 -1</clus>
<clus scale="  107.570">  2  5  1 -1</clus>
<clus scale="   37.856">  2  3  1 -1</clus>
</clustering>
</event>
<event>
 6    0  0.3643696E+002  0.1122275E+03  0.7546771E-02  0.1256500E+00
         21   -1    0    0  504  502  0.00000000000E+00  0.00000000000E+00  0.17407697011E+02  0.17407697011E+02  0.00000000000E+00 0. -1.
          2   -1    0    0  503    0 -0.00000000000E+00 -0.00000000000E+00 -0.42300079451E+04  0.42300079451E+04  0.00000000000E+00 0. -1.
         21    1    1    2  503  502  0.72136360782E+02  0.75113791856E+02 -0.16297655762E+03  0.19340913786E+03  0.00000000000E+00 0. -1.
         21    1    1    2  504  505  0.18251189395E+02 -0.36420088046E+02 -0.58413733413E+03  0.58555610649E+03  0.00000000000E+00 0. -1.
         21    1    1    2  505  501 -0.13194330930E+02 -0.60577800687E+02 -0.17294057609E+04  0.17305166991E+04  0.00000000000E+00 0. -1.
          2    1    1    2  501    0 -0.77193219247E+02  0.21884096878E+02 -0.17360805955E+04  0.17379336987E+04  0.00000000000E+00 0. -1.
<scales pt_clust_3="101.57550" pt_clust_4="38.68381" pt_clust_5="38.68381" pt_clust_6="80.23532"></scales>
<clustering>
<clus scale="   38.684">  4  5 -1 -1</clus>
<clus scale="   80.235">  2  6  1 -1</clus>
<clus scale="  101.575">  1  3  2 -1</clus>
<clus scale="  101.575">  1  3  2 -1</clus>
</clustering>
</event>
<event>
 6    0  0.3643696E+002  0.7435606E+02  0.7546771E-02  0.1345877E+00
          4   -1    0    0  504    0 -0.00000000000E+00  0.00000000000E+00  0.90791215076E+03  0.90791215076E+03  0.00000000000E+00 0. -1.
         21   -1    0    0  505  502  0.00000000000E+00 -0.00000000000E+00 -0.20867331363E+03  0.20867331363E+03  0.00000000000E+00 0. -1.
         21    1    1    2  503  502  0.29916117340E+02 -0.33018657928E+02  0.12378712905E+02  0.46243252278E+02  0.00000000000E+00 0. -1.
         21    1    1    2  504  503  0.48223787228E+02 -0.46881734835E+02  0.11134300622E+03  0.13007957468E+03  0.00000000000E+00 0. -1.
         21    1    1    2  505  501 -0.27075596532E+02 -0.41572159177E+02 -0.17313488607E+03  0.18010280709E+03  0.00000000000E+00 0. -1.
          4    1    1    2  501    0 -0.51064308037E+02  0.12147255194E+03  0.74865200409E+03  0.76015983033E+03  0.00000000000E+00 0. -1.
<scales pt_clust_3="44.55565" pt_clust_4="69.42917" pt_clust_5="74.35606" pt_clust_6="14000.00000"></scales>
<clustering>
<clus scale="   44.556">  2  3  1 -1</clus>
<clus scale="   69.429">  1  4  2 -1</clus>
<clus scale="   74.356">  2  5  1 -1</clus>
<clus scale="   44.556">  2  3  1 -1</clus>
</clustering>
</event>
<event>
 6    0  0.3643696E+002  0.8426866E+02  0.7546771E-02  0.1317356E+00
         21   -1    0    0  504  502  0.00000000000E+00  0.00000000000E+00  0.22399161004E+02  0.22399161004E+02  0.00000000000E+00 0. -1.
          1   -1    0    0  505    0 -0.00000000000E+00 -0.00000000000E+00 -0.13284322437E+04  0.13284322437E+04  0.00000000000E+00 0. -1.
         21    1    1    2  503  502 -0.13020575653E+02 -0.10645541358E+03 -0.26025931494E+03  0.28149103269E+03  0.00000000000E+00 0. -1.
         21    1    1    2  504  501 -0.24919595233E+02  0.49613481242E+02 -0.20312627888E+03  0.21057722792E+03  0.00000000000E+00 0. -1.
         21    1    1    2  505  503 -0.50838993651E+02  0.19651948180E+02 -0.49647531282E+03  0.49945824508E+03  0.00000000000E+00 0. -1.
          1    1    1    2  501    0  0.88779164537E+02  0.37189984158E+02 -0.34617217605E+03  0.35930489901E+03  0.00000000000E+00 0. -1.
<scales pt_clust_3="14000.00000" pt_clust_4="66.20884" pt_clust_5="54.50507" pt_clust_6="84.26866"></scales>
<clustering>
<clus scale="   54.505">  2  5  1 -1</clus>
<clus scale="   66.209">  1  4  2 -1</clus>
<clus scale="   84.269">  2  6  1 -1</clus>
<clus scale="   66.209">  1  3  2 -1</clus>
</clustering>
</event>
<event>
 6    0  0.3643696E+002  0.1455127E+03  0.7546771E-02  0.1206098E+00
          1   -1    0    0  503    0 -0.00000000000E+00  0.00000000000E+00  0.24481015703E+04  0.24481015703E+04  0.00000000000E+00 0.  1.
         21   -1    0    0  504  502  0.00000000000E+00 -0.00000000000E+00 -0.21337343786E+02  0.21337343786E+02  0.00000000000E+00 0. -1.
         21    1    1    2  503  505  0.26916093732E+00 -0.32497675470E+02  0.18553804795E+03  0.18836278453E+03  0.00000000000E+00 0. -1.
         21    1    1    2  504  501 -0.17522491766E+03 -0.36702178671E+02  0.59607457986E+03  0.62237908580E+03  0.00000000000E+00 0. -1.
         21    1    1    2  505  502  0.46033705301E+02  0.92383492831E+01  0.15977267667E+03  0.16652854809E+03  0.00000000000E+00 0. -1.
          1    1    1    2  501    0  0.12892205142E+03  0.59961504858E+02  0.14853789221E+04  0.14921684957E+04  0.00000000000E+00 0.  1.
<scales pt_clust_3="32.49879" pt_clust_4="14000.00000" pt_clust_5="46.56620" pt_clust_6="145.51275"></scales>
<clustering>
<clus scale="   32.499">  1  3  2 -1</clus>
<clus scale="   46.566">  2  5  1 -1</clus>
<clus scale="  145.513">  1  6  2 -1</clus>
<clus scale="   46.566">  2  3  1 -1</clus>
</clustering>
</event>
<event>
 6    0  0.3643696E+002  0.1489358E+03  0.7546771E-02  0.1201787E+00
         21   -1    0    0  504  502  0.00000000000E+00  0.00000000000E+00  0.74070741971E+03  0.74070741971E+03  0.00000000000E+00 0. -1.
         -1   -1    0    0    0  501 -0.00000000000E+00 -0.00000000000E+00 -0.11740401501E+03  0.11740401501E+03  0.00000000000E+00 0. -1.
         21    1    1    2  503  502  0.17486131743E+02  0.26024983417E+02  0.37996238021E+03  0.38125381958E+03  0.00000000000E+00 0. -1.
         21    1    1    2  504  505 -0.35500296540E+02  0.32689327428E+02  0.10436068760E+03  0.11497832969E+03  0.00000000000E+00 0.  1.
         21    1    1    2  505  501  0.15732107625E+03 -0.77722644149E+02  0.13470728780E+03  0.22121659935E+03  0.00000000000E+00 0. -1.
         -1    1    1    2    0  503 -0.13930691145E+03  0.19008333305E+02  0.42730490900E+01  0.14066268610E+03  0.00000000000E+00 0. -1.
<scales pt_clust_3="31.35386" pt_clust_4="50.59768" pt_clust_5="14000.00000" pt_clust_6="148.93577"></scales>
<clustering>
<clus scale="   31.354">  1  3  2 -1</clus>
<clus scale="   50.598">  1  4  2 -1</clus>
<clus scale="  148.936">  2  6  1 -1</clus>
<clus scale="   31.354">  1  3  2 -1</clus>
</clustering>
</event>
<event>
 6    0  0.3643696E+002  0.1334777E+03  0.7546771E-02  0.1222385E+00
         21   -1    0    0  503  502  0.00000000000E+00  0.00000000000E+00  0.26364014342E+03  0.26364014342E+03  0.00000000000E+00 0.  1.
          3   -1    0    0  504    0 -0.00000000000E+00 -0.00000000000E+00 -0.40208369835E+03  0.40208369835E+03  0.00000000000E+00 0.  1.
         21    1    1    2  503  505 -0.10943787581E+02  0.14024325555E+03  0.16245415556E+03  0.21489367109E+03  0.00000000000E+00 0.  1.
         21    1    1    2  504  502 -0.24836198082E+02  0.17902770381E+02 -0.13603831992E+03  0.13944092086E+03  0.00000000000E+00 0.  1.
         21    1    1    2  505  501  0.69825888343E+02 -0.10752804626E+03  0.76231966914E+01  0.12843694384E+03  0.00000000000E+00 0.  1.
          3    1    1    2  501    0 -0.34045902680E+02 -0.50617979676E+02 -0.17248258727E+03  0.18295230599E+03  0.00000000000E+00 0.  1.
<scales pt_clust_3="14000.00000" pt_clust_4="30.61611" pt_clust_5="133.47771" pt_clust_6="63.74514"></scales>
<clustering>
<clus scale="   30.616">  2  4  1 -1</clus>
<clus scale="   63.745">  2  6  1 -1</clus>
<clus scale="  133.478">  2  5  1 -1</clus>
<clus scale="  133.478">  1  3  2 -1</clus>
</clustering>
</event>
<event>
 6    0  0.3643696E+002  0.1506476E+03  0.7546771E-02  0.1199680E+00
         21   -1    0    0  505  502  0.00000000000E+00  0.00000000000E+00  0.13787265329E+03  0.13787265329E+03  0.00000000000E+00 0. -1.
          1   -1    0    0  503    0 -0.00000000000E+00 -0.00000000000E+00 -0.49117603242E+03  0.49117603242E+03  0.00000000000E+00 0. -1.
         21    1    1    2  503  502 -0.11054486665E+03 -0.86554173069E+02 -0.16786363362E+03  0.21883782103E+03  0.00000000000E+00 0. -1.
         21    1    1    2  504  501  0.62776090653E+02  0.53727900174E+02 -0.15367036352E+03  0.17447666159E+03  0.00000000000E+00 0. -1.
         21    1    1    2  505  504  0.24835908836E+02 -0.37101373825E+02  0.85979068026E+02  0.96880000238E+02  0.00000000000E+00 0. -1.
          1    1    1    2  501    0  0.22932867165E+02  0.69927646721E+02 -0.11774845001E+03  0.13885420286E+03  0.00000000000E+00 0. -1.
<scales pt_clust_3="144.30297" pt_clust_4="40.82497" pt_clust_5="44.64677" pt_clust_6="40.82497"></scales>
<clustering>
<clus scale="   40.825">  4  6 -1 -1</clus>
<clus scale="   44.647">  1  5  2 -1</clus>
<clus scale="  144.303">  1  3  2 -1</clus>
<clus scale="   44.647">  1  3  2 -1</clus>
</clustering>
</event>
<event>
 6    0  0.3643696E+002  0.1056951E+03  0.7546771E-02  0.1268756E+00
         21   -1    0    0  504  502  0.00000000000E+00  0.00000000000E+00  0.81588783993E+02  0.81588783993E+02  0.00000000000E+00 0. -1.
          1   -1    0    0  503    0 -0.00000000000E+00 -0.00000000000E+00 -0.75564513436E+03  0.75564513436E+03  0.00000000000E+00 0.  1.
         21    1    1    2  503  502 -0.26873029414E+02 -0.34165583210E+02 -0.59982406993E+02  0.74076554554E+02  0.00000000000E+00 0. -1.
         21    1    1    2  504  505 -0.86334785128E+02  0.47313155355E+02  0.33938029036E+02  0.10413462252E+03  0.00000000000E+00 0. -1.
         21    1    1    2  505  501  0.47797369473E+02  0.20571576818E+01 -0.36662902930E+03  0.36973729262E+03  0.00000000000E+00 0. -1.
          1    1    1    2  501    0  0.65410445069E+02 -0.15204729827E+02 -0.28138294311E+03  0.28928544866E+03  0.00000000000E+00 0.  1.
<scales pt_clust_3="43.46777" pt_clust_4="98.83755" pt_clust_5="31.61047" pt_clust_6="31.61047"></scales>
<clustering>
<clus scale="   31.610">  5  6 -1 -1</clus>
<clus scale="   43.468">  2  3  1 -1</clus>
<clus scale="   98.838">  1  4  2 -1</clus>
<clus scale="   98.838">  1  3  2 -1</clus>
</clustering>
</event>
<event>
 6    0  0.3643696E+002  0.1179471E+03  0.7546771E-02  0.1246523E+00
         21   -1    0    0  504  502  0.00000000000E+00  0.00000000000E+00  0.65416884914E+02  0.65416884914E+02  0.00000000000E+00 0. -1.
          1   -1    0    0  505    0 -0.00000000000E+00 -0.00000000000E+00 -0.20973787832E+04  0.20973787832E+04  0.00000000000E+00 0.  1.
         21    1    1    2  503  502 -0.10310542446E+03 -0.39598676344E+02  0.15993654121E+01  0.11045968355E+03  0.00000000000E+00 0. -1.
         21    1    1    2  504  501  0.78914095400E+02  0.17658876890E+02 -0.56469129494E+03  0.57045203914E+03  0.00000000000E+00 0.  1.
         21    1    1    2  505  503 -0.81447453878E+02  0.26416308546E+02 -0.50201449617E+03  0.50926423737E+03  0.00000000000E+00 0. -1.
          1    1    1    2  501    0  0.10563878294E+03 -0.44765090915E+01 -0.96685547257E+03  0.97261970802E+03  0.00000000000E+00 0.  1.
<scales pt_clust_3="112.73926" pt_clust_4="30.31205" pt_clust_5="85.62423" pt_clust_6="30.31205"></scales>
<clustering>
<clus scale="   30.312">  4  6 -1 -1</clus>
<clus scale="   85.624">  2  5  1 -1</clus>
<clus scale="  112.739">  1  3  2 -1</clus>
<clus scale="  112.739">  1  3  2 -1</clus>
</clustering>
</event>
<event>
 6    0  0.3643696E+002  0.1429409E+03  0.7546771E-02  0.1209426E+00
          2   -1    0    0  504    0 -0.00000000000E+00  0.00000000000E+00  0.25815132447E+04  0.25815132447E+04  0.00000000000E+00 0.  1.
         21   -1    0    0  501  502  0.00000000000E+00 -0.00000000000E+00 -0.14697845837E+03  0.14697845837E+03  0.00000000000E+00 0. -1.
         21    1    1    2  503  505  0.25743105413E+02  0.39513115274E+02  0.76309428398E+02  0.89705755765E+02  0.00000000000E+00 0. -1.
         21    1    1    2  504  503 -0.37190458234E+01 -0.14280875967E+03  0.52134140713E+03  0.54055992815E+03  0.00000000000E+00 0. -1.
         21    1    1    2  505  502  0.22420820563E+02 -0.34446195570E+02 -0.12470570494E+03  0.13130402289E+03  0.00000000000E+00 0. -1.
          2    1    1    2  501    0 -0.44444880153E+02  0.13774183997E+03  0.19615896557E+04  0.19669219962E+04  0.00000000000E+00 0.  1.
<scales pt_clust_3="43.37105" pt_clust_4="142.94091" pt_clust_5="41.10029" pt_clust_6="14000.00000"></scales>
<clustering>
<clus scale="   41.100">  2  5  1 -1</clus>
<clus scale="   43.371">  2  3  1 -1</clus>
<clus scale="  142.941">  2  4  1 -1</clus>
<clus scale="   41.100">  2  3  1 -1</clus>
</clustering>
</event>
<event>
 6    0  0.3643696E+002  0.1353576E+03  0.7546771E-02  0.1219716E+00
         21   -1    0    0  503  502  0.00000000000E+00  0.00000000000E+00  0.17095212970E+02  0.17095212970E+02  0.00000000000E+00 0. -1.
          2   -1    0    0  505    0 -0.00000000000E+00 -0.00000000000E+00 -0.36308670136E+04  0.36308670136E+04  0.00000000000E+00 0.  1.
         21    1    1    2  503  504 -0.67885958433E+02 -0.11141288880E+03 -0.26537312303E+03  0.29570970489E+03  0.00000000000E+00 0. -1.
         21    1    1    2  504  501  0.15060280844E+02  0.44157121239E+02 -0.81632614158E+03  0.81765826165E+03  0.00000000000E+00 0. -1.
         21    1    1    2  505  502  0.26862169758E+02  0.15445422432E+02 -0.26882685339E+03  0.27060675221E+03  0.00000000000E+00 0. -1.
          2    1    1    2  501    0  0.25963507831E+02  0.51810345127E+02 -0.22632456826E+04  0.22639875078E+04  0.00000000000E+00 0.  1.
<scales pt_clust_3="128.20434" pt_clust_4="36.05108" pt_clust_5="30.98608" pt_clust_6="36.05108"></scales>
<clustering>
<clus scale="   30.986">  2  5  1 -1</clus>
<clus scale="   36.051">  4  6 -1 -1</clus>
<clus scale="  128.204">  1  3  2 -1</clus>
<clus scale="  128.204">  1  3  2 -1</clus>
</clustering>
</event>
<event>
 6    0  0.3643696E+002  0.1064557E+03  0.7546771E-02  0.1267278E+00
         21   -1    0    0  503  502  0.00000000000E+00  0.00000000000E+00  0.23089253435E+02  0.23089253435E+02  0.00000000000E+00 0. -1.
          2   -1    0    0  505    0 -0.00000000000E+00 -0.00000000000E+00 -0.30241166460E+04  0.30241166460E+04  0.00000000000E+00 0. -1.
         21    1    1    2  503  501  0.10594118195E+03  0.21185921705E+02 -0.14378212750E+03  0.17984904086E+03  0.00000000000E+00 0. -1.
         21    1    1    2  504  502 -0.54342468097E+02 -0.32166982330E+02 -0.67065261617E+03  0.67361914326E+03  0.00000000000E+00 0. -1.
         21    1    1    2  505  504  0.46802956305E+02 -0.33764248677E+02 -0.43482598991E+03  0.43863901184E+03  0.00000000000E+00 0. -1.
          2    1    1    2  501    0 -0.98401670157E+02  0.44745309303E+02 -0.17517666590E+04  0.17550987035E+04  0.00000000000E+00 0. -1.
<scales pt_clust_3="14000.00000" pt_clust_4="58.78297" pt_clust_5="57.71084" pt_clust_6="106.45570"></scales>
<clustering>
<clus scale="   57.711">  2  5  1 -1</clus>
<clus scale="   58.783">  2  4  1 -1</clus>
<clus scale="  106.456">  2  6  1 -1</clus>
<clus scale="  106.456">  1  3  2 -1</clus>
</clustering>
</event>
<event>
 6    0  0.3643696E+002  0.1246373E+03  0.7546771E-02  0.1235637E+00
         21   -1    0    0  504  502  0.00000000000E+00  0.00000000000E+00  0.10253817719E+04  0.10253817719E+04  0.00000000000E+00 0. -1.
          2   -1    0    0  503    0 -0.00000000000E+00 -0.00000000000E+00 -0.40323509649E+03  0.40323509649E+03  0.00000000000E+00 0.  1.
         21    1    1    2  503  502 -0.15188846740E+03  0.46931752982E+01  0.14107848680E+03  0.20735301266E+03  0.00000000000E+00 0. -1.
         21    1    1    2  504  505 -0.87766426025E+01  0.32868454666E+02  0.78970091523E+03  0.79043336233E+03  0.00000000000E+00 0. -1.
         21    1    1    2  505  501  0.50638434862E+02 -0.94670069998E+02 -0.10406023687E+02  0.10786546513E+03  0.00000000000E+00 0.  1.
          2    1    1    2  501    0  0.11002667514E+03  0.57108440033E+02 -0.29822670292E+03  0.32296502829E+03  0.00000000000E+00 0.  1.
<scales pt_clust_3="14000.00000" pt_clust_4="34.02006" pt_clust_5="100.51612" pt_clust_6="124.63731"></scales>
<clustering>
<clus scale="   34.020">  1  4  2 -1</clus>
<clus scale="  100.516">  1  5  2 -1</clus>
<clus scale="  124.637">  2  6  1 -1</clus>
<clus scale="   34.020">  1  3  2 -1</clus>
</clustering>
</event>
<event>
 6    0  0.3643696E+002  0.7649048E+02  0.7546771E-02  0.1339317E+00
          2   -1    0    0  503    0 -0.00000000000E+00  0.00000000000E+00  0.11906107125E+04  0.11906107125E+04  0.00000000000E+00 0. -1.
         21   -1    0    0  501  502  0.00000000000E+00 -0.00000000000E+00 -0.18720812824E+03  0.18720812824E+03  0.00000000000E+00 0. -1.
         21    1    1    2  503  505 -0.71381732709E+01  0.56879146821E+02  0.18143810428E+03  0.19027868127E+03  0.00000000000E+00 0. -1.
         21    1    1    2  504  502  0.67429734545E+02  0.35410268954E+02 -0.16299843283E+03  0.17991427223E+03  0.00000000000E+00 0. -1.
         21    1    1    2  505  504  0.44252058552E+02 -0.58300664381E+02  0.16735207029E+03  0.18265795242E+03  0.00000000000E+00 0. -1.
          2    1    1    2  501    0 -0.10454361983E+03 -0.33988751394E+02  0.81761084249E+03  0.82496793478E+03  0.00000000000E+00 0. -1.
<scales pt_clust_3="57.32531" pt_clust_4="76.49048" pt_clust_5="64.74329" pt_clust_6="14000.00000"></scales>
<clustering>
<clus scale="   57.325">  1  3  2 -1</clus>
<clus scale="   64.743">  1  5  2 -1</clus>
<clus scale="   76.490">  2  4  1 -1</clus>
<clus scale="   76.490">  2  3  1 -1</clus>
</clustering>
</event>
<event>
 6    0  0.3643696E+002  0.1765169E+03  0.7546771E-02  0.1171217E+00
         21   -1    0    0  503  502  0.00000000000E+00  0.00000000000E+00  0.42710848094E+02  0.42710848094E+02  0.00000000000E+00 0.  1.
         -2   -1    0    0    0  501 -0.00000000000E+00 -0.00000000000E+00 -0.98010148435E+03  0.98010148435E+03  0.00000000000E+00 0. -1.
         21    1    1    2  503  501 -0.53239147428E+02  0.95556229912E+00 -0.14830346527E+03  0.15757296002E+03  0.00000000000E+00 0.  1.
         21    1    1    2  504  505 -0.41585413047E+02  0.43006166722E+02 -0.16740755177E+03  0.17777560391E+03  0.00000000000E+00 0. -1.
         21    1    1    2  505  502  0.11585295849E+03 -0.14385820974E+03 -0.32644605903E+03  0.37507882099E+03  0.00000000000E+00 0.  1.
         -2    1    1    2    0  504 -0.21028398014E+02  0.99896480715E+02 -0.29523356019E+03  0.31238494754E+03  0.00000000000E+00 0. -1.
<scales pt_clust_3="53.24772" pt_clust_4="33.18236" pt_clust_5="171.11194" pt_clust_6="33.18236"></scales>
<clustering>
<clus scale="   33.182">  4  6 -1 -1</clus>
<clus scale="   53.248">  2  3  1 -1</clus>
<clus scale="  171.112">  1  5  2 -1</clus>
<clus scale="  171.112">  1  3  2 -1</clus>
</clustering>
</event>
<event>
 6    0  0.3643696E+002  0.1106764E+03  0.7546771E-02  0.1259322E+00
         21   -1    0    0  504  502  0.00000000000E+00  0.00000000000E+00  0.45948097880E+03  0.45948097880E+03  0.00000000000E+00 0. -1.
          1   -1    0    0  505    0 -0.00000000000E+00 -0.00000000000E+00 -0.65549110651E+03  0.65549110651E+03  0.00000000000E+00 0.  1.
         21    1    1    2  503  502  0.26041949857E+02  0.32583189948E+02  0.17591574865E+02  0.45269315499E+02  0.00000000000E+00 0. -1.
         21    1    1    2  504  501  0.59589029264E+02  0.40956918389E+02  0.41357714098E+03  0.41985041755E+03  0.00000000000E+00 0. -1.
         21    1    1    2  505  503 -0.50623820015E+02  0.13549749496E+02 -0.86885733191E+02  0.10146673098E+03  0.00000000000E+00 0. -1.
          1    1    1    2  501    0 -0.35007159106E+02 -0.87089857834E+02 -0.54029311037E+03  0.54838562129E+03  0.00000000000E+00 0.  1.
<scales pt_clust_3="41.71148" pt_clust_4="110.67639" pt_clust_5="52.12488" pt_clust_6="14000.00000"></scales>
<clustering>
<clus scale="   41.711">  1  3  2 -1</clus>
<clus scale="   52.125">  2  5  1 -1</clus>
<clus scale="  110.676">  1  4  2 -1</clus>
<clus scale="   41.711">  1  3  2 -1</clus>
</clustering>
</event>
<event>
 6    0  0.3643696E+002  0.1155329E+03  0.7546771E-02  0.1250654E+00
         21   -1    0    0  504  502  0.00000000000E+00  0.00000000000E+00  0.22095921773E+03  0.22095921773E+03  0.00000000000E+00 0. -1.
         -1   -1    0    0    0  501 -0.00000000000E+00 -0.00000000000E+00 -0.99809381723E+03  0.99809381723E+03  0.00000000000E+00 0.  1.
         21    1    1    2  503  501 -0.47286199551E+02 -0.10345936430E+02 -0.10441139855E+03  0.11508589495E+03  0.00000000000E+00 0. -1.
         21    1    1    2  504  503  0.72831894762E+01  0.77053104045E+02 -0.25399883516E+02  0.81457840473E+02  0.00000000000E+00 0.  1.
         21    1    1    2  505  502  0.29185003200E+02  0.49188877760E+02  0.17905777024E+03  0.18797072962E+03  0.00000000000E+00 0. -1.
         -1    1    1    2    0  505  0.10818006875E+02 -0.11589604537E+03 -0.82638108768E+03  0.83453856992E+03  0.00000000000E+00 0.  1.
<scales pt_clust_3="48.40478" pt_clust_4="115.53290" pt_clust_5="57.02996" pt_clust_6="14000.00000"></scales>
<clustering>
<clus scale="   48.405">  2  3  1 -1</clus>
<clus scale="   57.030">  1  5  2 -1</clus>
<clus scale="  115.533">  1  4  2 -1</clus>
<clus scale="   57.030">  1  3  2 -1</clus>
</clustering>
</event>
<event>
 6    0  0.3643696E+002  0.8447261E+02  0.7546771E-02  0.1316818E+00
         21   -1    0    0  504  502  0.00000000000E+00  0.00000000000E+00  0.59645208470E+03  0.59645208470E+03  0.00000000000E+00 0.  1.
          2   -1    0    0  505    0 -0.00000000000E+00 -0.00000000000E+00 -0.61954924872E+03  0.61954924872E+03  0.00000000000E+00 0. -1.
         21    1    1    2  503  502 -0.63301235959E+02  0.17588988662E+02  0.56914964274E+03  0.57292908359E+03  0.00000000000E+00 0.  1.
         21    1    1    2  504  501  0.56169486519E+02 -0.10798107823E+03 -0.21523560952E+03  0.24726765271E+03  0.00000000000E+00 0. -1.
         21    1    1    2  505  503 -0.81041673208E+01  0.34374120319E+02 -0.38073456184E+02  0.51931163490E+02  0.00000000000E+00 0. -1.
          2    1    1    2  501    0  0.15235916762E+02  0.56017969253E+02 -0.33893774106E+03  0.34387343363E+03  0.00000000000E+00 0. -1.
<scales pt_clust_3="65.75549" pt_clust_4="84.47261" pt_clust_5="35.31654" pt_clust_6="14000.00000"></scales>
<clustering>
<clus scale="   35.317">  2  5  1 -1</clus>
<clus scale="   65.755">  1  3  2 -1</clus>
<clus scale="   84.473">  1  4  2 -1</clus>
<clus scale="   65.755">  1  3  2 -1</clus>
</clustering>
</event>
<event>
 6    0  0.3643696E+002  0.1051842E+03  0.7546771E-02  0.1269757E+00
          2   -1    0    0  504    0 -0.00000000000E+00  0.00000000000E+00  0.72473794445E+03  0.72473794445E+03  0.00000000000E+00 0. -1.
         21   -1    0    0  505  502  0.00000000000E+00 -0.00000000000E+00 -0.25830041029E+03  0.25830041029E+03  0.00000000000E+00 0.  1.
         21    1    1    2  503  501 -0.17487439473E+02 -0.83966092605E+02  0.19781342990E+03  0.21560674455E+03  0.00000000000E+00 0. -1.
         21    1    1    2  504  502  0.52582524927E+02  0.79257828160E+01  0.63882635985E+02  0.83118777309E+02  0.00000000000E+00 0. -1.
         21    1    1    2  505  503  0.46486306014E+02 -0.49126324522E+02 -0.22205202222E+03  0.23212383113E+03  0.00000000000E+00 0.  1.
          2    1    1    2  501    0 -0.81581391468E+02  0.12516663431E+03  0.42679349049E+03  0.45218900175E+03  0.00000000000E+00 0. -1.
<scales pt_clust_3="105.18423" pt_clust_4="53.17650" pt_clust_5="67.86990" pt_clust_6="14000.00000"></scales>
<clustering>
<clus scale="   53.176">  1  4  2 -1</clus>
<clus scale="   67.870">  2  5  1 -1</clus>
<clus scale="  105.184">  2  3  1 -1</clus>
<clus scale="   67.870">  2  3  1 -1</clus>
</clustering>
</event>
<event>
 6    0  0.3643696E+002  0.1188898E+03  0.7546771E-02  0.1244940E+00
         21   -1    0    0  505  502  0.00000000000E+00  0.00000000000E+00  0.38338047514E+03  0.38338047514E+03  0.00000000000E+00 0.  1.
          1   -1    0    0  503    0 -0.00000000000E+00 -0.00000000000E+00 -0.10785694324E+04  0.10785694324E+04  0.00000000000E+00 0. -1.
         21    1    1    2  503  504 -0.36282276087E+02  0.14738477350E+02 -0.16467855818E+03  0.16927094788E+03  0.00000000000E+00 0.  1.
         21    1    1    2  504  502 -0.49022334620E+02  0.59782599687E+02 -0.63107128851E+02  0.99798087300E+02  0.00000000000E+00 0.  1.
         21    1    1    2  505  501  0.10122916698E+02  0.67108377282E+02  0.35172143241E+03  0.35820939932E+03  0.00000000000E+00 0.  1.
          1    1    1    2  501    0  0.75181694010E+02 -0.14162945432E+03 -0.81912470263E+03  0.83467147304E+03  0.00000000000E+00 0. -1.
<scales pt_clust_3="39.16154" pt_clust_4="118.88979" pt_clust_5="67.90031" pt_clust_6="14000.00000"></scales>
<clustering>
<clus scale="   39.162">  2  3  1 -1</clus>
<clus scale="   67.900">  1  5  2 -1</clus>
<clus scale="  118.890">  1  4  2 -1</clus>
<clus scale="   67.900">  1  3  2 -1</clus>
</clustering>
</event>
<event>
 6    0  0.3643696E+002  0.2007774E+03  0.7546771E-02  0.1149085E+00
          2   -1    0    0  502    0 -0.00000000000E+00  0.00000000000E+00  0.27742687152E+04  0.27742687152E+04  0.00000000000E+00 0.  1.
         21   -1    0    0  505  502  0.00000000000E+00 -0.00000000000E+00 -0.30920073169E+02  0.30920073169E+02  0.00000000000E+00 0. -1.
         21    1    1    2  503  501 -0.63042151100E+01 -0.12336582287E+03  0.89259272815E+03  0.90109968801E+03  0.00000000000E+00 0. -1.
         21    1    1    2  504  503  0.97515864228E+02  0.13846878294E+03  0.92159980715E+03  0.93703209772E+03  0.00000000000E+00 0. -1.
         21    1    1    2  505  504 -0.29238737133E+02  0.38201934286E+02  0.16665068496E+02  0.50911845776E+02  0.00000000000E+00 0. -1.
          2    1    1    2  501    0 -0.61972911984E+02 -0.53304894356E+02  0.91249103824E+03  0.91614515687E+03  0.00000000000E+00 0.  1.
<scales pt_clust_3="76.98122" pt_clust_4="179.26086" pt_clust_5="48.10708" pt_clust_6="76.98122"></scales>
<clustering>
<clus scale="   48.107">  2  5  1 -1</clus>
<clus scale="   76.981">  3  6 -1 -1</clus>
<clus scale="  179.261">  2  4  1 -1</clus>
<clus scale="   48.107">  2  3  1 -1</clus>
</clustering>
</event>
<event>
 6    0  0.3643696E+002  0.1367450E+03  0.7546771E-02  0.1217777E+00
          2   -1    0    0  503    0 -0.00000000000E+00  0.00000000000E+00  0.29681253920E+04  0.29681253920E+04  0.00000000000E+00 0.  1.
         21   -1    0    0  504  502  0.00000000000E+00 -0.00000000000E+00 -0.66282905993E+02  0.66282905993E+02  0.00000000000E+00 0.  1.
         21    1    1    2  503  505 -0.29754309764E+02  0.79076494914E+02  0.14394444636E+04  0.14419219031E+04  0.00000000000E+00 0.  1.
         21    1    1    2  504  501  0.71764133264E+02  0.32397765356E+02 -0.19007833313E+02  0.81000023151E+02  0.00000000000E+00 0.  1.
         21    1    1    2  505  502 -0.95133107172E+02 -0.18462197759E+03  0.94913628120E+03  0.97159418636E+03  0.00000000000E+00 0.  1.
          2    1    1    2  501    0  0.53123283672E+02  0.73147717318E+02  0.53226957455E+03  0.53989218536E+03  0.00000000000E+00 0.  1.
<scales pt_clust_3="85.08368" pt_clust_4="78.73821" pt_clust_5="136.74498" pt_clust_6="14000.00000"></scales>
<clustering>
<clus scale="   78.738">  2  4  1 -1</clus>
<clus scale="   85.084">  1  3  2 -1</clus>
<clus scale="  136.745">  2  5  1 -1</clus>
<clus scale="   78.738">  2  3  1 -1</clus>
</clustering>
</event>
<event>
 6    0  0.3643696E+002  0.1303327E+03  0.7546771E-02  0.1226963E+00
         21   -1    0    0  504  502  0.00000000000E+00  0.00000000000E+00  0.35263251345E+02  0.35263251345E+02  0.00000000000E+00 0. -1.
          2   -1    0    0  502    0 -0.00000000000E+00 -0.00000000000E+00 -0.10995581713E+04  0.10995581713E+04  0.00000000000E+00 0. -1.
         21    1    1    2  503  501  0.13752120547E+02 -0.72206920574E+02 -0.65200904403E+03  0.65613927919E+03  0.00000000000E+00 0.  1.
         21    1    1    2  504  505  0.23114506844E+02  0.28943645663E+02 -0.64613614593E+01  0.37600056420E+02  0.00000000000E+00 0. -1.
         21    1    1    2  505  503 -0.11942824254E+02  0.94736667592E+02 -0.14192394471E+03  0.17105576085E+03  0.00000000000E+00 0. -1.
          2    1    1    2  501    0 -0.24923803137E+02 -0.51473392681E+02 -0.26390056977E+03  0.27002632620E+03  0.00000000000E+00 0. -1.
<scales pt_clust_3="50.20359" pt_clust_4="37.04072" pt_clust_5="116.25808" pt_clust_6="50.20359"></scales>
<clustering>
<clus scale="   37.041">  1  4  2 -1</clus>
<clus scale="   50.204">  3  6 -1 -1</clus>
<clus scale="  116.258">  1  5  2 -1</clus>
<clus scale="   37.041">  1  3  2 -1</clus>
</clustering>
</event>
<event>
 6    0  0.3643696E+002  0.6213797E+02  0.7546771E-02  0.1389073E+00
          2   -1    0    0  505    0 -0.00000000000E+00  0.00000000000E+00  0.76749684295E+03  0.76749684295E+03  0.00000000000E+00 0. -1.
         21   -1    0    0  501  502  0.00000000000E+00 -0.00000000000E+00 -0.67416682029E+02  0.67416682029E+02  0.00000000000E+00 0. -1.
         21    1    1    2  503  504  0.31507463170E+01 -0.60524002551E+02  0.19314990041E+03  0.20243509112E+03  0.00000000000E+00 0. -1.
         21    1    1    2  504  502 -0.51884665813E+02  0.56198529470E+01 -0.40808796469E+02  0.66249220093E+02  0.00000000000E+00 0. -1.
         21    1    1    2  505  503 -0.28468694454E+02  0.59558170652E+02  0.23882950608E+03  0.24778453388E+03  0.00000000000E+00 0. -1.
          2    1    1    2  501    0  0.77202613950E+02 -0.46540210479E+01  0.30890955090E+03  0.31844467989E+03  0.00000000000E+00 0. -1.
<scales pt_clust_3="62.13797" pt_clust_4="52.18813" pt_clust_5="14000.00000" pt_clust_6="59.45336"></scales>
<clustering>
<clus scale="   52.188">  2  4  1 -1</clus>
<clus scale="   59.453">  2  6  1 -1</clus>
<clus scale="   62.138">  2  3  1 -1</clus>
<clus scale="   52.188">  2  3  1 -1</clus>
</clustering>
</event>
<event>
 6    0  0.3643696E+002  0.6627713E+02  0.7546771E-02  0.1373231E+00
          2   -1    0    0  503    0 -0.00000000000E+00  0.00000000000E+00  0.61024155987E+03  0.61024155987E+03  0.00000000000E+00 0. -1.
         21   -1    0    0  501  502  0.00000000000E+00 -0.00000000000E+00 -0.24182089033E+03  0.24182089033E+03  0.00000000000E+00 0. -1.
         21    1    1    2  503  505 -0.34900702479E+02 -0.12561213935E+02  0.51630349251E+02  0.63573076792E+02  0.00000000000E+00 0.  1.
         21    1    1    2  504  502  0.32945725822E+02 -0.56382746067E+02 -0.20699442942E+03  0.21705098183E+03  0.00000000000E+00 0. -1.
         21    1    1    2  505  504 -0.70553150349E+02  0.57403784404E+02  0.78515886320E+02  0.12015692195E+03  0.00000000000E+00 0. -1.
          2    1    1    2  501    0  0.72508127007E+02  0.11540175598E+02  0.44526886338E+03  0.45128146963E+03  0.00000000000E+00 0. -1.
<scales pt_clust_3="37.09236" pt_clust_4="14000.00000" pt_clust_5="66.27713" pt_clust_6="44.21898"></scales>
<clustering>
<clus scale="   37.092">  1  3  2 -1</clus>
<clus scale="   44.219">  1  6  2 -1</clus>
<clus scale="   66.277">  1  5  2 -1</clus>
<clus scale="   66.277">  2  3  1 -1</clus>
</clustering>
</event>
<event>
 6    0  0.3643696E+002  0.8910532E+02  0.7546771E-02  0.1305033E+00
          2   -1    0    0  503    0 -0.00000000000E+00  0.00000000000E+00  0.17150536646E+04  0.17150536646E+04  0.00000000000E+00 0.  1.
         21   -1    0    0  504  502  0.00000000000E+00 -0.00000000000E+00 -0.63732210707E+02  0.63732210707E+02  0.00000000000E+00 0.  1.
         21    1    1    2  503  505  0.11189486768E+02  0.41791709572E+02  0.61317578549E+02  0.75043967394E+02  0.00000000000E+00 0. -1.
         21    1    1    2  504  501 -0.90384830835E+02  0.40512447135E+02  0.80572332738E+03  0.81178861553E+03  0.00000000000E+00 0.  1.
         21    1    1    2  505  502  0.38353119159E+02 -0.11331514327E+01 -0.44184829229E+02  0.58519611375E+02  0.00000000000E+00 0.  1.
          2    1    1    2  501    0  0.40842224908E+02 -0.81171005274E+02  0.82846537719E+03  0.83343368101E+03  0.00000000000E+00 0.  1.
<scales pt_clust_3="52.41700" pt_clust_4="89.10532" pt_clust_5="38.36986" pt_clust_6="14000.00000"></scales>
<clustering>
<clus scale="   38.370">  2  5  1 -1</clus>
<clus scale="   52.417">  2  3  1 -1</clus>
<clus scale="   89.105">  2  4  1 -1</clus>
<clus scale="   38.370">  2  3  1 -1</clus>
</clustering>
</event>
<event>
 6    0  0.3643696E+002  0.1883391E+03  0.7546771E-02  0.1159968E+00
         21   -1    0    0  503  502  0.00000000000E+00  0.00000000000E+00  0.25483780880E+04  0.25483780880E+04  0.00000000000E+00 0. -1.
          4   -1    0    0  504    0 -0.00000000000E+00 -0.00000000000E+00 -0.79082754630E+02  0.79082754630E+02  0.00000000000E+00 0.  1.
         21    1    1    2  503  505 -0.48454372263E+02  0.99904536098E+02  0.21808385131E+04  0.21836632897E+04  0.00000000000E+00 0. -1.
         21    1    1    2  504  502 -0.64858953928E+02  0.42874086118E+02  0.23009543184E+03  0.24287605671E+03  0.00000000000E+00 0.  1.
         21    1    1    2  505  501  0.12806828685E+02 -0.61781789016E+02  0.16415217984E+02  0.65195580344E+02  0.00000000000E+00 0.  1.
          4    1    1    2  501    0  0.10050649751E+03 -0.80996833200E+02  0.41946170442E+02  0.13572591589E+03  0.00000000000E+00 0.  1.
<scales pt_clust_3="178.14003" pt_clust_4="77.74877" pt_clust_5="42.74362" pt_clust_6="42.74362"></scales>
<clustering>
<clus scale="   42.744">  5  6 -1 -1</clus>
<clus scale="   77.749">  1  4  2 -1</clus>
<clus scale="  178.140">  1  3  2 -1</clus>
<clus scale="   77.749">  1  3  2 -1</clus>
</clustering>
</event>
<event>
 6    0  0.3643696E+002  0.1744536E+03  0.7546771E-02  0.1173281E+00
         21   -1    0    0  504  502  0.00000000000E+00  0.00000000000E+00  0.43496239896E+02  0.43496239896E+02  0.00000000000E+00 0. -1.
          2   -1    0    0  503    0 -0.00000000000E+00 -0.00000000000E+00 -0.43972967408E+04  0.43972967408E+04  0.00000000000E+00 0.  1.
         21    1    1    2  503  505  0.43887063514E+02 -0.37613885653E+02 -0.15661499838E+04  0.15672162105E+04  0.00000000000E+00 0.  1.
         21    1    1    2  504  501  0.20844949782E+01 -0.72986503424E+02 -0.30274651889E+03  0.31142708537E+03  0.00000000000E+00 0. -1.
         21    1    1    2  505  502 -0.16513283296E+03 -0.64967015365E+01 -0.15599630796E+03  0.22725736016E+03  0.00000000000E+00 0. -1.
          2    1    1    2  501    0  0.11916127447E+03  0.11709709061E+03 -0.23289076903E+04  0.23348923247E+04  0.00000000000E+00 0.  1.
<scales pt_clust_3="57.80034" pt_clust_4="77.37059" pt_clust_5="14000.00000" pt_clust_6="174.45359"></scales>
<clustering>
<clus scale="   57.800">  2  3  1 -1</clus>
<clus scale="   77.371">  1  4  2 -1</clus>
<clus scale="  174.454">  2  6  1 -1</clus>
<clus scale="   77.371">  1  3  2 -1</clus>
</clustering>
</event>
<event>
 6    0  0.3643696E+002  0.1205857E+03  0.7546771E-02  0.1242134E+00
          2   -1    0    0  505    0 -0.00000000000E+00  0.00000000000E+00  0.54747443946E+03  0.54747443946E+03  0.00000000000E+00 0.  1.
         21   -1    0    0  503  502  0.00000000000E+00 -0.00000000000E+00 -0.39769201807E+03  0.39769201807E+03  0.00000000000E+00 0. -1.
         21    1    1    2  503  501  0.36251534380E+02  0.14485099012E+01 -0.53961191135E+01  0.36679558713E+02  0.00000000000E+00 0.  1.
         21    1    1    2  504  502 -0.76474010244E+02 -0.10971705766E+03 -0.30919648754E+03  0.33688065378E+03  0.00000000000E+00 0. -1.
         21    1    1    2  505  504 -0.89904523542E+01  0.14198776472E+03  0.46771147307E+02  0.14976279172E+03  0.00000000000E+00 0. -1.
          2    1    1    2  501    0  0.49212928218E+02 -0.33719216963E+02  0.41760388074E+03  0.42184345331E+03  0.00000000000E+00 0.  1.
<scales pt_clust_3="36.28046" pt_clust_4="14000.00000" pt_clust_5="120.58568" pt_clust_6="59.82032"></scales>
<clustering>
<clus scale="   36.280">  2  3  1 -1</clus>
<clus scale="   59.820">  1  6  2 -1</clus>
<clus scale="  120.586">  1  5  2 -1</clus>
<clus scale="   36.280">  2  3  1 -1</clus>
</clustering>
</event>
<event>
 6    0  0.3643696E+002  0.9118479E+02  0.7546771E-02  0.1300008E+00
          1   -1    0    0  505    0 -0.00000000000E+00  0.00000000000E+00  0.11519582509E+04  0.11519582509E+04  0.00000000000E+00 0. -1.
         21   -1    0    0  503  502  0.00000000000E+00 -0.00000000000E+00 -0.68338987729E+02  0.68338987729E+02  0.00000000000E+00 0.  1.
         21    1    1    2  503  501 -0.98981711061E+02  0.31788305464E+02  0.41919804933E+03  0.43189683960E+03  0.00000000000E+00 0. -1.
         21    1    1    2  504  502  0.10030229114E+02 -0.94961942448E+02 -0.14888752343E+02  0.96643939054E+02  0.00000000000E+00 0.  1.
         21    1    1    2  505  504  0.58735798607E+02  0.19836059658E+02  0.19608059274E+03  0.20564766507E+03  0.00000000000E+00 0. -1.
          1    1    1    2  501    0  0.30215683339E+02  0.43337577326E+02  0.48322937341E+03  0.48610879488E+03  0.00000000000E+00 0. -1.
<scales pt_clust_3="14000.00000" pt_clust_4="91.18479" pt_clust_5="75.38070" pt_clust_6="52.83118"></scales>
<clustering>
<clus scale="   52.831">  1  6  2 -1</clus>
<clus scale="   75.381">  1  5  2 -1</clus>
<clus scale="   91.185">  2  4  1 -1</clus>
<clus scale="   91.185">  2  3  1 -1</clus>
</clustering>
</event>
<event>
 6    0  0.3643696E+002  0.7923848E+02  0.7546771E-02  0.1331227E+00
         21   -1    0    0  505  502  0.00000000000E+00  0.00000000000E+00  0.82670925279E+02  0.82670925279E+02  0.00000000000E+00 0.  1.
          2   -1    0    0  504    0 -0.00000000000E+00 -0.00000000000E+00 -0.14759615107E+04  0.14759615107E+04  0.00000000000E+00 0.  1.
         21    1    1    2  503  502  0.30227269467E+01 -0.11090042198E+03 -0.54498030434E+02  0.12360451365E+03  0.00000000000E+00 0.  1.
         21    1    1    2  504  503  0.15518323384E+00  0.42261901333E+02 -0.24353328300E+03  0.24717312215E+03  0.00000000000E+00 0.  1.
         21    1    1    2  505  501  0.28193836824E+02  0.65733114280E+02  0.18317289700E+02  0.73832634043E+02  0.00000000000E+00 0.  1.
          2    1    1    2  501    0 -0.31371747004E+02  0.29054063669E+01 -0.11135765617E+04  0.11140221661E+04  0.00000000000E+00 0.  1.
<scales pt_clust_3="14000.00000" pt_clust_4="49.00454" pt_clust_5="79.23848" pt_clust_6="31.50600"></scales>
<clustering>
<clus scale="   31.506">  2  6  1 -1</clus>
<clus scale="   49.005">  2  4  1 -1</clus>
<clus scale="   79.238">  1  5  2 -1</clus>
<clus scale="   79.238">  1  3  2 -1</clus>
</clustering>
</event>
<event>
 6    0  0.3643696E+002  0.1628022E+03  0.7546771E-02  0.1185569E+00
         -1   -1    0    0    0  501 -0.00000000000E+00  0.00000000000E+00  0.14375012640E+03  0.14375012640E+03  0.00000000000E+00 0. -1.
         21   -1    0    0  504  502  0.00000000000E+00 -0.00000000000E+00 -0.28170836787E+03  0.28170836787E+03  0.00000000000E+00 0.  1.
         21    1    1    2  503  501 -0.15465625890E+01 -0.38130725314E+02  0.34434287022E+02  0.51401013526E+02  0.00000000000E+00 0.  1.
         21    1    1    2  504  503 -0.14714150052E+03 -0.29347680370E+02 -0.12622782692E+03  0.19607491376E+03  0.00000000000E+00 0.  1.
         21    1    1    2  505  502  0.40881479024E+02  0.70189538991E+01 -0.34277012957E+02  0.53809614924E+02  0.00000000000E+00 0.  1.
         -1    1    1    2    0  505  0.10780658408E+03  0.60459451785E+02 -0.11887688616E+02  0.12417295205E+03  0.00000000000E+00 0. -1.
<scales pt_clust_3="38.16208" pt_clust_4="153.68609" pt_clust_5="31.11624" pt_clust_6="31.11624"></scales>
<clustering>
<clus scale="   31.116">  5  6 -1 -1</clus>
<clus scale="   38.162">  1  3  2 -1</clus>
<clus scale="  153.686">  2  4  1 -1</clus>
<clus scale="  153.686">  2  3  1 -1</clus>
</clustering>
</event>
<event>
 6    0  0.3643696E+002  0.1396989E+03  0.7546771E-02  0.1213735E+00
         21   -1    0    0  505  502  0.00000000000E+00  0.00000000000E+00  0.18616542105E+03  0.18616542105E+03  0.00000000000E+00 0.  1.
         -1   -1    0    0    0  501 -0.00000000000E+00 -0.00000000000E+00 -0.66425982996E+03  0.66425982996E+03  0.00000000000E+00 0.  1.
         21    1    1    2  503  501  0.19174820157E+02 -0.25710562650E+02 -0.45007289093E+02  0.55266290189E+02  0.00000000000E+00 0.  1.
         21    1    1    2  504  503  0.28223931270E+02  0.37170223572E+02 -0.39611316207E+03  0.39885317221E+03  0.00000000000E+00 0. -1.
         21    1    1    2  505  504  0.21193361054E+02  0.13508900788E+03  0.11170141806E+03  0.17656558384E+03  0.00000000000E+00 0.  1.
         -1    1    1    2    0  502 -0.68592112481E+02 -0.14654866880E+03 -0.14867537581E+03  0.21974020477E+03  0.00000000000E+00 0.  1.
<scales pt_clust_3="32.07346" pt_clust_4="45.52610" pt_clust_5="139.69886" pt_clust_6="14000.00000"></scales>
<clustering>
<clus scale="   32.073">  2  3  1 -1</clus>
<clus scale="   45.526">  2  4  1 -1</clus>
<clus scale="  139.699">  1  5  2 -1</clus>
<clus scale="  139.699">  1  3  2 -1</clus>
</clustering>
</event>
<event>
 6    0  0.3643696E+002  0.1458789E+03  0.7546771E-02  0.1205630E+00
          1   -1    0    0  504    0 -0.00000000000E+00  0.00000000000E+00  0.12672373220E+04  0.12672373220E+04  0.00000000000E+00 0.  1.
         21   -1    0    0  503  502  0.00000000000E+00 -0.00000000000E+00 -0.14333244768E+03  0.14333244768E+03  0.00000000000E+00 0.  1.
         21    1    1    2  503  501  0.94642943282E+02  0.18631851135E+03  0.38884827768E+03  0.44144632452E+03  0.00000000000E+00 0.  1.
         21    1    1    2  504  505 -0.17165537969E+02 -0.37035946926E+02  0.49631721093E+03  0.49799306313E+03  0.00000000000E+00 0.  1.
         21    1    1    2  505  502  0.32799391417E+02 -0.10579554629E+03 -0.76318045340E+02  0.13451000608E+03  0.00000000000E+00 0.  1.
          1    1    1    2  501    0 -0.11027679673E+03 -0.43487018134E+02  0.31505743104E+03  0.33662037594E+03  0.00000000000E+00 0.  1.
<scales pt_clust_3="145.87890" pt_clust_4="40.82055" pt_clust_5="111.91254" pt_clust_6="14000.00000"></scales>
<clustering>
<clus scale="   40.821">  1  4  2 -1</clus>
<clus scale="  111.913">  2  5  1 -1</clus>
<clus scale="  145.879">  2  3  1 -1</clus>
<clus scale="  111.913">  2  3  1 -1</clus>
</clustering>
</event>
<event>
 6    0  0.3643696E+002  0.1587655E+03  0.7546771E-02  0.1190098E+00
         21   -1    0    0  504  502  0.00000000000E+00  0.00000000000E+00  0.47548891597E+03  0.47548891597E+03  0.00000000000E+00 0.  1.
          1   -1    0    0  503    0 -0.00000000000E+00 -0.00000000000E+00 -0.41592480946E+03  0.41592480946E+03  0.00000000000E+00 0.  1.
         21    1    1    2  503  502  0.15765486721E+03  0.75771431596E+02  0.41657389563E+03  0.45180767758E+03  0.00000000000E+00 0.  1.
         21    1    1    2  504  505 -0.54442968667E+02 -0.81534267639E+02 -0.49366281633E+02  0.10976749701E+03  0.00000000000E+00 0.  1.
         21    1    1    2  505  501 -0.60386544318E+02  0.89439929548E+01 -0.95147764925E+02  0.11304701197E+03  0.00000000000E+00 0.  1.
          1    1    1    2  501    0 -0.42825354228E+02 -0.31811569125E+01 -0.21249574256E+03  0.21679153888E+03  0.00000000000E+00 0.  1.
<scales pt_clust_3="14000.00000" pt_clust_4="158.76552" pt_clust_5="82.85680" pt_clust_6="42.94334"></scales>
<clustering>
<clus scale="   42.943">  2  6  1 -1</clus>
<clus scale="   82.857">  2  5  1 -1</clus>
<clus scale="  158.766">  2  4  1 -1</clus>
<clus scale="  158.766">  1  3  2 -1</clus>
</clustering>
</event>
<event>
 6    0  0.3643696E+002  0.7853413E+02  0.7546771E-02  0.1333264E+00
         21   -1    0    0  503  502  0.00000000000E+00  0.00000000000E+00  0.82846442097E+03  0.82846442097E+03  0.00000000000E+00 0. -1.
         -1   -1    0    0    0  501 -0.00000000000E+00 -0.00000000000E+00 -0.40836513068E+03  0.40836513068E+03  0.00000000000E+00 0. -1.
         21    1    1    2  503  505  0.41662168028E+02 -0.26840058025E+02  0.74094766871E+03  0.74260324045E+03  0.00000000000E+00 0. -1.
         21    1    1    2  504  501  0.74351360574E+02 -0.10192750905E+02 -0.32553299663E+02  0.81803021394E+02  0.00000000000E+00 0.  1.
         21    1    1    2  505  504 -0.10493244462E+03  0.62272818993E+01  0.16038802053E+02  0.10633362660E+03  0.00000000000E+00 0.  1.
         -1    1    1    2    0  502 -0.11081083982E+02  0.30805527031E+02 -0.30433388081E+03  0.30608966321E+03  0.00000000000E+00 0. -1.
<scales pt_clust_3="49.35093" pt_clust_4="14000.00000" pt_clust_5="78.53413" pt_clust_6="32.73791"></scales>
<clustering>
<clus scale="   32.738">  2  6  1 -1</clus>
<clus scale="   49.351">  1  3  2 -1</clus>
<clus scale="   78.534">  1  5  2 -1</clus>
<clus scale="   49.351">  1  3  2 -1</clus>
</clustering>
</event>
<event>
 6    0  0.3643696E+002  0.1358188E+03  0.7546771E-02  0.1219068E+00
          2   -1    0    0  503    0 -0.00000000000E+00  0.00000000000E+00  0.13339076737E+04  0.13339076737E+04  0.00000000000E+00 0.  1.
         21   -1    0    0  505  502  0.00000000000E+00 -0.00000000000E+00 -0.52941736780E+02  0.52941736780E+02  0.00000000000E+00 0. -1.
         21    1    1    2  503  504  0.52381302251E+01  0.30249444712E+02  0.11433550323E+03  0.11838527870E+03  0.00000000000E+00 0. -1.
         21    1    1    2  504  502  0.32208386532E+02  0.13524795512E+02 -0.13891748618E+02  0.37593628933E+02  0.00000000000E+00 0. -1.
         21    1    1    2  505  501  0.95716497151E+02 -0.77058437279E+02  0.16298359310E+03  0.20411590384E+03  0.00000000000E+00 0. -1.
          2    1    1    2  501    0 -0.13316301391E+03  0.33284197055E+02  0.10175385892E+04  0.10267545990E+04  0.00000000000E+00 0.  1.
<scales pt_clust_3="30.69962" pt_clust_4="35.09470" pt_clust_5="135.81882" pt_clust_6="14000.00000"></scales>
<clustering>
<clus scale="   30.700">  1  3  2 -1</clus>
<clus scale="   35.095">  2  4  1 -1</clus>
<clus scale="  135.819">  2  5  1 -1</clus>
<clus scale="   35.095">  2  3  1 -1</clus>
</clustering>
</event>
<event>
 6    0  0.3643696E+002  0.1099054E+03  0.7546771E-02  0.1260745E+00
          1   -1    0    0  505    0 -0.00000000000E+00  0.00000000000E+00  0.19021543621E+04  0.19021543621E+04  0.00000000000E+00 0.  1.
         21   -1    0    0  501  502  0.00000000000E+00 -0.00000000000E+00 -0.18964714718E+02  0.18964714718E+02  0.00000000000E+00 0. -1.
         21    1    1    2  503  504  0.57591434588E+02  0.98554922082E+02  0.61101312895E+03  0.62158417753E+03  0.00000000000E+00 0. -1.
         21    1    1    2  504  502 -0.24034294449E+02  0.28623480875E+02  0.59589283422E+02  0.70340839246E+02  0.00000000000E+00 0. -1.
         21    1    1    2  505  503  0.18004075079E+02 -0.27698911960E+02  0.82692630521E+03  0.82758594157E+03  0.00000000000E+00 0.  1.
          1    1    1    2  501    0 -0.51561215217E+02 -0.99479490998E+02  0.38566092975E+03  0.40160811842E+03  0.00000000000E+00 0.  1.
<scales pt_clust_3="14000.00000" pt_clust_4="35.39487" pt_clust_5="33.03599" pt_clust_6="109.90535"></scales>
<clustering>
<clus scale="   33.036">  1  5  2 -1</clus>
<clus scale="   35.395">  2  4  1 -1</clus>
<clus scale="  109.905">  2  6  1 -1</clus>
<clus scale="   35.395">  2  3  1 -1</clus>
</clustering>
</event>
<event>
 6    0  0.3643696E+002  0.9397929E+02  0.7546771E-02  0.1293492E+00
         21   -1    0    0  505  502  0.00000000000E+00  0.00000000000E+00  0.18969918832E+04  0.18969918832E+04  0.00000000000E+00 0. -1.
         -3   -1    0    0    0  501 -0.00000000000E+00 -0.00000000000E+00 -0.77283023933E+02  0.77283023933E+02  0.00000000000E+00 0. -1.
         21    1    1    2  503  501  0.33965800577E+02  0.30946653071E+02  0.10107555566E+02  0.47048205329E+02  0.00000000000E+00 0. -1.
         21    1    1    2  504  503 -0.41298167189E+02  0.98698012631E+02  0.22724747398E+03  0.25117374612E+03  0.00000000000E+00 0. -1.
         21    1    1    2  505  504 -0.18740215224E+02 -0.31924780181E+02  0.15741470149E+04  0.15745822340E+04  0.00000000000E+00 0. -1.
         -3    1    1    2    0  502  0.26072581836E+02 -0.97719885521E+02  0.82068148744E+01  0.10147072169E+03  0.00000000000E+00 0. -1.
<scales pt_clust_3="42.82911" pt_clust_4="93.97929" pt_clust_5="37.01874" pt_clust_6="14000.00000"></scales>
<clustering>
<clus scale="   37.019">  1  5  2 -1</clus>
<clus scale="   42.829">  2  3  1 -1</clus>
<clus scale="   93.979">  1  4  2 -1</clus>
<clus scale="   37.019">  1  3  2 -1</clus>
</clustering>
</event>
<event>
 6    0  0.3643696E+002  0.9070301E+02  0.7546771E-02  0.1301158E+00
          1   -1    0    0  505    0 -0.00000000000E+00  0.00000000000E+00  0.34091119554E+03  0.34091119554E+03  0.00000000000E+00 0.  1.
         21   -1    0    0  503  502  0.00000000000E+00 -0.00000000000E+00 -0.98129723894E+03  0.98129723894E+03  0.00000000000E+00 0. -1.
         21    1    1    2  503  504 -0.38303546145E+02 -0.48818570001E+02 -0.89884603435E+03  0.90098535387E+03  0.00000000000E+00 0. -1.
         21    1    1    2  504  501  0.77499726267E+02  0.44344107482E+01  0.89436615963E+02  0.11842626332E+03  0.00000000000E+00 0. -1.
         21    1    1    2  505  502 -0.67587606081E+02  0.92742703844E+00 -0.45892399589E+02  0.81701021760E+02  0.00000000000E+00 0. -1.
          1    1    1    2  501    0  0.28391425959E+02  0.43456732214E+02  0.21491577456E+03  0.22109579553E+03  0.00000000000E+00 0.  1.
<scales pt_clust_3="61.60164" pt_clust_4="14000.00000" pt_clust_5="90.70301" pt_clust_6="51.90916"></scales>
<clustering>
<clus scale="   51.909">  1  6  2 -1</clus>
<clus scale="   61.602">  2  3  1 -1</clus>
<clus scale="   90.703">  2  5  1 -1</clus>
<clus scale="   61.602">  2  3  1 -1</clus>
</clustering>
</event>
<event>
 6    0  0.3643696E+002  0.1009446E+03  0.7546771E-02  0.1278322E+00
         21   -1    0    0  501  502  0.00000000000E+00  0.00000000000E+00  0.19842839682E+03  0.19842839682E+03  0.00000000000E+00 0.  1.
          2   -1    0    0  504    0 -0.00000000000E+00 -0.00000000000E+00 -0.17495935748E+04  0.17495935748E+04  0.00000000000E+00 0.  1.
         21    1    1    2  503  505  0.12862585627E+03  0.21504167814E+02 -0.50889865495E+03  0.52534263215E+03  0.00000000000E+00 0.  1.
         21    1    1    2  504  503 -0.24188125957E+02 -0.25907348950E+02 -0.64798622209E+03  0.64895485219E+03  0.00000000000E+00 0.  1.
         21    1    1    2  505  502 -0.33218686692E+02  0.32263686541E+02  0.18434246472E+03  0.19006991060E+03  0.00000000000E+00 0.  1.
          2    1    1    2  501    0 -0.71219043624E+02 -0.27860505405E+02 -0.57862276564E+03  0.58365457666E+03  0.00000000000E+00 0.  1.
<scales pt_clust_3="100.94464" pt_clust_4="35.44370" pt_clust_5="46.30623" pt_clust_6="14000.00000"></scales>
<clustering>
<clus scale="   35.444">  2  4  1 -1</clus>
<clus scale="   46.306">  1  5  2 -1</clus>
<clus scale="  100.945">  1  3  2 -1</clus>
<clus scale="   46.306">  1  3  2 -1</clus>
</clustering>
</event>
<event>
 6    0  0.3643696E+002  0.8055788E+02  0.7546771E-02  0.1327476E+00
         21   -1    0    0  504  502  0.00000000000E+00  0.00000000000E+00  0.12179098532E+04  0.12179098532E+04  0.00000000000E+00 0. -1.
          1   -1    0    0  502    0 -0.00000000000E+00 -0.00000000000E+00 -0.42649038282E+03  0.42649038282E+03  0.00000000000E+00 0. -1.
         21    1    1    2  503  505  0.51093588463E+02 -0.10286757606E+03  0.98030537346E+02  0.15100423583E+03  0.00000000000E+00 0.  1.
         21    1    1    2  504  503 -0.32839151425E+02  0.17628298731E+02  0.10597877656E+04  0.10604429617E+04  0.00000000000E+00 0. -1.
         21    1    1    2  505  501  0.34122544981E+02  0.58792545117E+02 -0.64829040064E+01  0.68285719457E+02  0.00000000000E+00 0.  1.
          1    1    1    2  501    0 -0.52376982019E+02  0.26446732211E+02 -0.35991592862E+03  0.36466731903E+03  0.00000000000E+00 0. -1.
<scales pt_clust_3="14000.00000" pt_clust_4="37.27153" pt_clust_5="80.55788" pt_clust_6="59.23616"></scales>
<clustering>
<clus scale="   37.272">  1  4  2 -1</clus>
<clus scale="   59.236">  2  6  1 -1</clus>
<clus scale="   80.558">  2  5  1 -1</clus>
<clus scale="   37.272">  1  3  2 -1</clus>
</clustering>
</event>
<event>
 6    0  0.3643696E+002  0.1663990E+03  0.7546771E-02  0.1181656E+00
         21   -1    0    0  505  502  0.00000000000E+00  0.00000000000E+00  0.10980919954E+03  0.10980919954E+03  0.00000000000E+00 0.  1.
          2   -1    0    0  504    0 -0.00000000000E+00 -0.00000000000E+00 -0.62005784556E+03  0.62005784556E+03  0.00000000000E+00 0. -1.
         21    1    1    2  503  501 -0.41308206225E+02  0.20000514454E+02 -0.21737643600E+03  0.22216863732E+03  0.00000000000E+00 0.  1.
         21    1    1    2  504  502  0.21451098857E+02  0.41825514488E+02 -0.10434808698E+03  0.11444669747E+03  0.00000000000E+00 0. -1.
         21    1    1    2  505  503  0.13281213321E+03 -0.71573176051E+02  0.23624764886E+02  0.15270858448E+03  0.00000000000E+00 0.  1.
          2    1    1    2  501    0 -0.11295502585E+03  0.97471471094E+01 -0.21214888792E+03  0.24054312584E+03  0.00000000000E+00 0. -1.
<scales pt_clust_3="44.66489" pt_clust_4="47.00557" pt_clust_5="150.86590" pt_clust_6="44.66489"></scales>
<clustering>
<clus scale="   44.665">  3  6 -1 -1</clus>
<clus scale="   47.006">  2  4  1 -1</clus>
<clus scale="  150.866">  1  5  2 -1</clus>
<clus scale="  150.866">  1  3  2 -1</clus>
</clustering>
</event>
<event>
 6    0  0.3643696E+002  0.1091126E+03  0.7546771E-02  0.1262222E+00
         21   -1    0    0  501  502  0.00000000000E+00  0.00000000000E+00  0.71041786712E+02  0.71041786712E+02  0.00000000000E+00 0.  1.
          2   -1    0    0  504    0 -0.00000000000E+00 -0.00000000000E+00 -0.48250557373E+03  0.48250557373E+03  0.00000000000E+00 0.  1.
         21    1    1    2  503  502  0.12301602395E+02  0.12950976312E+03 -0.42115195941E+02  0.13673989137E+03  0.00000000000E+00 0.  1.
         21    1    1    2  504  505  0.10785898920E+01 -0.32360077819E+02 -0.18233126334E+03  0.18518376706E+03  0.00000000000E+00 0.  1.
         21    1    1    2  505  503 -0.47243313907E+02 -0.21382883021E+02 -0.54213564779E+02  0.75021790176E+02  0.00000000000E+00 0.  1.
          2    1    1    2  501    0  0.33863121620E+02 -0.75766802275E+02 -0.13280376296E+03  0.15660191183E+03  0.00000000000E+00 0.  1.
<scales pt_clust_3="109.11263" pt_clust_4="32.37805" pt_clust_5="54.91349" pt_clust_6="14000.00000"></scales>
<clustering>
<clus scale="   32.378">  2  4  1 -1</clus>
<clus scale="   54.913">  2  5  1 -1</clus>
<clus scale="  109.113">  1  3  2 -1</clus>
<clus scale="  109.113">  1  3  2 -1</clus>
</clustering>
</event>
<event>
 6    0  0.3643696E+002  0.1081087E+03  0.7546771E-02  0.1264113E+00
          1   -1    0    0  503    0 -0.00000000000E+00  0.00000000000E+00  0.60858321003E+03  0.60858321003E+03  0.00000000000E+00 0.  1.
         21   -1    0    0  501  502  0.00000000000E+00 -0.00000000000E+00 -0.11655164516E+04  0.11655164516E+04  0.00000000000E+00 0.  1.
         21    1    1    2  503  505 -0.51773300815E+02 -0.49896590347E+02 -0.84897275909E+01  0.72403175898E+02  0.00000000000E+00 0.  1.
         21    1    1    2  504  502  0.76666243802E+02  0.75665099717E+02 -0.10911219939E+04  0.10964260695E+04  0.00000000000E+00 0.  1.
         21    1    1    2  505  504  0.57930671390E+02  0.89709365313E+02  0.34951150356E+03  0.36546138515E+03  0.00000000000E+00 0.  1.
          1    1    1    2  501    0 -0.82823614378E+02 -0.11547787468E+03  0.19316697637E+03  0.23980903111E+03  0.00000000000E+00 0.  1.
<scales pt_clust_3="71.90372" pt_clust_4="14000.00000" pt_clust_5="64.20202" pt_clust_6="108.10873"></scales>
<clustering>
<clus scale="   71.904">  1  3  2 -1</clus>
<clus scale="   64.202">  1  5  2 -1</clus>
<clus scale="  108.109">  1  6  2 -1</clus>
<clus scale="  108.109">  2  3  1 -1</clus>
</clustering>
</event>
<event>
 6    0  0.3643696E+002  0.8091359E+02  0.7546771E-02  0.1326479E+00
         21   -1    0    0  501  502  0.00000000000E+00  0.00000000000E+00  0.14442323747E+04  0.14442323747E+04  0.00000000000E+00 0.  1.
          4   -1    0    0  505    0 -0.00000000000E+00 -0.00000000000E+00 -0.25102314617E+03  0.25102314617E+03  0.00000000000E+00 0. -1.
         21    1    1    2  503  504 -0.70277443493E+02  0.73299480562E+02  0.71717553119E+03  0.72432898288E+03  0.00000000000E+00 0.  1.
         21    1    1    2  504  502 -0.31534884539E+02  0.35521943645E+01  0.96295225787E+02  0.10138953367E+03  0.00000000000E+00 0.  1.
         21    1    1    2  505  503  0.71359166739E+02 -0.37835479776E+02 -0.23722163894E+03  0.25059481277E+03  0.00000000000E+00 0. -1.
          4    1    1    2  501    0  0.30453161293E+02 -0.39016195151E+02  0.61696011049E+03  0.61894219153E+03  0.00000000000E+00 0. -1.
<scales pt_clust_3="14000.00000" pt_clust_4="31.73432" pt_clust_5="80.91359" pt_clust_6="40.65238"></scales>
<clustering>
<clus scale="   31.734">  1  4  2 -1</clus>
<clus scale="   40.652">  1  6  2 -1</clus>
<clus scale="   80.914">  2  5  1 -1</clus>
<clus scale="   31.734">  1  3  2 -1</clus>
</clustering>
</event>
<event>
 6    0  0.3643696E+002  0.8242280E+02  0.7546771E-02  0.1322313E+00
          4   -1    0    0  505    0 -0.00000000000E+00  0.00000000000E+00  0.27605575726E+03  0.27605575726E+03  0.00000000000E+00 0.  1.
         21   -1    0    0  501  502  0.00000000000E+00 -0.00000000000E+00 -0.88680489192E+02  0.88680489192E+02  0.00000000000E+00 0.  1.
         21    1    1    2  503  502  0.12449602300E+02 -0.32638271588E+02  0.20866455085E+02  0.40689781487E+02  0.00000000000E+00 0. -1.
         21    1    1    2  504  503  0.79943039218E+02  0.33464357101E+02  0.17039464158E+02  0.88323813631E+02  0.00000000000E+00 0.  1.
         21    1    1    2  505  504 -0.64696703653E+01 -0.39177783295E+02  0.13475721301E+03  0.14048580639E+03  0.00000000000E+00 0.  1.
          4    1    1    2  501    0 -0.85922971153E+02  0.38351697781E+02  0.14712135812E+02  0.95236844942E+02  0.00000000000E+00 0.  1.
<scales pt_clust_3="34.93207" pt_clust_4="14000.00000" pt_clust_5="40.81062" pt_clust_6="82.42280"></scales>
<clustering>
<clus scale="   34.932">  2  3  1 -1</clus>
<clus scale="   40.811">  1  5  2 -1</clus>
<clus scale="   82.423">  2  6  1 -1</clus>
<clus scale="   34.932">  2  3  1 -1</clus>
</clustering>
</event>
<event>
 6    0  0.3643696E+002  0.1791639E+03  0.7546771E-02  0.1168615E+00
         -1   -1    0    0    0  501 -0.00000000000E+00  0.00000000000E+00  0.61464805795E+03  0.61464805795E+03  0.00000000000E+00 0.  1.
         21   -1    0    0  504  502  0.00000000000E+00 -0.00000000000E+00 -0.50269698846E+03  0.50269698846E+03  0.00000000000E+00 0. -1.
         21    1    1    2  503  505  0.50663152120E+02 -0.67699234219E+02  0.44403098276E+02  0.95506944423E+02  0.00000000000E+00 0.  1.
         21    1    1    2  504  503 -0.18118108052E+03  0.17847008145E+02 -0.44549662894E+03  0.48126120355E+03  0.00000000000E+00 0. -1.
         21    1    1    2  505  501  0.22347087769E+02  0.42664863669E+02  0.73603697690E+02  0.87961282604E+02  0.00000000000E+00 0.  1.
         -1    1    1    2    0  502  0.10817084063E+03  0.71873624047E+01  0.43944090247E+03  0.45261561584E+03  0.00000000000E+00 0.  1.
<scales pt_clust_3="82.03367" pt_clust_4="14000.00000" pt_clust_5="48.16309" pt_clust_6="179.16391"></scales>
<clustering>
<clus scale="   48.163">  1  5  2 -1</clus>
<clus scale="   82.034">  1  3  2 -1</clus>
<clus scale="  179.164">  1  6  2 -1</clus>
<clus scale="  179.164">  2  3  1 -1</clus>
</clustering>
</event>
<event>
 6    0  0.3643696E+002  0.1326341E+03  0.7546771E-02  0.1223599E+00
          2   -1    0    0  505    0 -0.00000000000E+00  0.00000000000E+00  0.92256414619E+03  0.92256414619E+03  0.00000000000E+00 0.  1.
         21   -1    0    0  504  502  0.00000000000E+00 -0.00000000000E+00 -0.77859228336E+03  0.77859228336E+03  0.00000000000E+00 0. -1.
         21    1    1    2  503  502 -0.60665666216E+02  0.72822283564E+02  0.21280020074E+03  0.23295350068E+03  0.00000000000E+00 0. -1.
         21    1    1    2  504  501 -0.40240165564E+02  0.29731694169E+01 -0.73640129870E+03  0.73750592092E+03  0.00000000000E+00 0. -1.
         21    1    1    2  505  503 -0.63652001508E+02  0.12469845004E+02  0.39502559175E+03  0.40031524136E+03  0.00000000000E+00 0.  1.
          2    1    1    2  501    0  0.16455783329E+03 -0.88265297984E+02  0.27254736904E+03  0.33038176659E+03  0.00000000000E+00 0.  1.
<scales pt_clust_3="14000.00000" pt_clust_4="40.34985" pt_clust_5="67.40728" pt_clust_6="132.63410"></scales>
<clustering>
<clus scale="   40.350">  2  4  1 -1</clus>
<clus scale="   67.407">  1  5  2 -1</clus>
<clus scale="  132.634">  2  6  1 -1</clus>
<clus scale="   40.350">  2  3  1 -1</clus>
</clustering>
</event>
<event>
 6    0  0.3643696E+002  0.8350215E+02  0.7546771E-02  0.1319397E+00
          1   -1    0    0  504    0 -0.00000000000E+00  0.00000000000E+00  0.19626310624E+04  0.19626310624E+04  0.00000000000E+00 0.  1.
         21   -1    0    0  505  502  0.00000000000E+00 -0.00000000000E+00 -0.27530316503E+02  0.27530316503E+02  0.00000000000E+00 0.  1.
         21    1    1    2  503  502 -0.19255165331E+02  0.31706622859E+02 -0.39511503327E+01  0.37305266572E+02  0.00000000000E+00 0.  1.
         21    1    1    2  504  503  0.19703307812E+02  0.87712195258E+02  0.53860040685E+03  0.54605132341E+03  0.00000000000E+00 0. -1.
         21    1    1    2  505  501  0.22010757799E+02 -0.41688779209E+02  0.33722776979E+03  0.34050696981E+03  0.00000000000E+00 0.  1.
          1    1    1    2  501    0 -0.22458900281E+02 -0.77730038909E+02  0.10632237196E+04  0.10662978191E+04  0.00000000000E+00 0.  1.
<scales pt_clust_3="37.09544" pt_clust_4="83.50215" pt_clust_5="38.35008" pt_clust_6="14000.00000"></scales>
<clustering>
<clus scale="   37.095">  2  3  1 -1</clus>
<clus scale="   38.350">  2  5  1 -1</clus>
<clus scale="   83.502">  2  4  1 -1</clus>
<clus scale="   37.095">  2  3  1 -1</clus>
</clustering>
</event>
<event>
 6    0  0.3643696E+002  0.9872998E+02  0.7546771E-02  0.1282990E+00
         21   -1    0    0  504  502  0.00000000000E+00  0.00000000000E+00  0.20547014426E+02  0.20547014426E+02  0.00000000000E+00 0. -1.
          2   -1    0    0  505    0 -0.00000000000E+00 -0.00000000000E+00 -0.29924404706E+04  0.29924404706E+04  0.00000000000E+00 0. -1.
         21    1    1    2  503  502 -0.46462018045E+01  0.83758369804E+02 -0.12440898389E+04  0.12469148242E+04  0.00000000000E+00 0. -1.
         21    1    1    2  504  501 -0.66039625763E+02 -0.14484664312E+02 -0.85877488838E+02  0.10929767042E+03  0.00000000000E+00 0. -1.
         21    1    1    2  505  503 -0.29823292595E+02  0.14892364781E+02 -0.10489877980E+04  0.10495173232E+04  0.00000000000E+00 0. -1.
          2    1    1    2  501    0  0.10050912016E+03 -0.84166070273E+02 -0.59293833046E+03  0.60725766718E+03  0.00000000000E+00 0. -1.
<scales pt_clust_3="98.72998" pt_clust_4="68.92020" pt_clust_5="33.33484" pt_clust_6="14000.00000"></scales>
<clustering>
<clus scale="   33.335">  2  5  1 -1</clus>
<clus scale="   68.920">  1  4  2 -1</clus>
<clus scale="   98.730">  2  3  1 -1</clus>
<clus scale="   68.920">  1  3  2 -1</clus>
</clustering>
</event>
<event>
 6    0  0.3643696E+002  0.1949070E+03  0.7546771E-02  0.1154109E+00
         21   -1    0    0  503  502  0.00000000000E+00  0.00000000000E+00  0.86271555847E+03  0.86271555847E+03  0.00000000000E+00 0. -1.
         -4   -1    0    0    0  501 -0.00000000000E+00 -0.00000000000E+00 -0.42619471668E+03  0.42619471668E+03  0.00000000000E+00 0.  1.
         21    1    1    2  503  501  0.52524605813E+02  0.16710125468E+02 -0.29695310367E+02  0.62608896866E+02  0.00000000000E+00 0. -1.
         21    1    1    2  504  502  0.44723371350E+02  0.17196004378E+03  0.80196851566E+03  0.82141581231E+03  0.00000000000E+00 0. -1.
         21    1    1    2  505  504  0.30305403780E+01 -0.68087461705E+02 -0.82572701282E+02  0.10706697723E+03  0.00000000000E+00 0. -1.
         -4    1    1    2    0  505 -0.10027851754E+03 -0.12058270754E+03 -0.25317966223E+03  0.29781858875E+03  0.00000000000E+00 0.  1.
<scales pt_clust_3="55.11862" pt_clust_4="178.43674" pt_clust_5="51.69365" pt_clust_6="51.69365"></scales>
<clustering>
<clus scale="   51.694">  5  6 -1 -1</clus>
<clus scale="   55.119">  2  3  1 -1</clus>
<clus scale="  178.437">  1  4  2 -1</clus>
<clus scale="  178.437">  1  3  2 -1</clus>
</clustering>
</event>
<event>
 6    0  0.3643696E+002  0.7218191E+02  0.7546771E-02  0.1352827E+00
          2   -1    0    0  505    0 -0.00000000000E+00  0.00000000000E+00  0.13512019879E+04  0.13512019879E+04  0.00000000000E+00 0.  1.
         21   -1    0    0  501  502  0.00000000000E+00 -0.00000000000E+00 -0.12955727819E+03  0.12955727819E+03  0.00000000000E+00 0.  1.
         21    1    1    2  503  502  0.50923287394E+02  0.61099733382E+01  0.28893399432E+01  0.51369847756E+02  0.00000000000E+00 0.  1.
         21    1    1    2  504  503 -0.59072950483E+02  0.49198153480E+02  0.14878668302E+02  0.78303553910E+02  0.00000000000E+00 0.  1.
         21    1    1    2  505  504  0.45903270407E+02  0.35750216832E+02  0.12434893118E+04  0.12448497326E+04  0.00000000000E+00 0.  1.
          2    1    1    2  501    0 -0.37753607318E+02 -0.91058343650E+02 -0.39612610295E+02  0.10623613184E+03  0.00000000000E+00 0.  1.
<scales pt_clust_3="51.28853" pt_clust_4="14000.00000" pt_clust_5="58.46635" pt_clust_6="72.18191"></scales>
<clustering>
<clus scale="   51.289">  2  3  1 -1</clus>
<clus scale="   58.466">  1  5  2 -1</clus>
<clus scale="   72.182">  2  6  1 -1</clus>
<clus scale="   51.289">  2  3  1 -1</clus>
</clustering>
</event>
<event>
 6    0  0.3643696E+002  0.2706758E+03  0.7546771E-02  0.1100893E+00
         21   -1    0    0  501  502  0.00000000000E+00  0.00000000000E+00  0.14841796733E+04  0.14841796733E+04  0.00000000000E+00 0. -1.
          2   -1    0    0  504    0 -0.00000000000E+00 -0.00000000000E+00 -0.99883288885E+03  0.99883288885E+03  0.00000000000E+00 0. -1.
         21    1    1    2  503  502 -0.26897972291E+02 -0.30277893107E+02  0.13352373805E+04  0.13358514566E+04  0.00000000000E+00 0. -1.
         21    1    1    2  504  505  0.67013818974E+02 -0.27397259334E+03 -0.20275399326E+03  0.34736294509E+03  0.00000000000E+00 0. -1.
         21    1    1    2  505  503 -0.57260025272E+02  0.34825050531E+02  0.28039936738E+02  0.72648005416E+02  0.00000000000E+00 0. -1.
          2    1    1    2  501    0  0.17144178590E+02  0.26942543592E+03 -0.67517653957E+03  0.72715015504E+03  0.00000000000E+00 0. -1.
<scales pt_clust_3="40.50002" pt_clust_4="14000.00000" pt_clust_5="70.77234" pt_clust_6="270.67580"></scales>
<clustering>
<clus scale="   40.500">  1  3  2 -1</clus>
<clus scale="   70.772">  1  5  2 -1</clus>
<clus scale="  270.676">  2  6  1 -1</clus>
<clus scale="   40.500">  1  3  2 -1</clus>
</clustering>
</event>
<event>
 6    0  0.3643696E+002  0.2147826E+03  0.7546771E-02  0.1137834E+00
         21   -1    0    0  504  502  0.00000000000E+00  0.00000000000E+00  0.12483878267E+04  0.12483878267E+04  0.00000000000E+00 0. -1.
          1   -1    0    0  503    0 -0.00000000000E+00 -0.00000000000E+00 -0.32249441791E+03  0.32249441791E+03  0.00000000000E+00 0. -1.
         21    1    1    2  503  502 -0.33657654040E+02 -0.26805648240E+02  0.32511877131E+02  0.53929607894E+02  0.00000000000E+00 0. -1.
         21    1    1    2  504  505 -0.89238000805E+01 -0.17727541477E+03  0.11602525764E+04  0.11737513570E+04  0.00000000000E+00 0. -1.
         21    1    1    2  505  501  0.93280436645E+01  0.60821725808E+02 -0.41971385105E+02  0.74484172121E+02  0.00000000000E+00 0. -1.
          1    1    1    2  501    0  0.33253410456E+02  0.14325933720E+03 -0.22489965968E+03  0.26871710762E+03  0.00000000000E+00 0. -1.
<scales pt_clust_3="43.02767" pt_clust_4="207.42918" pt_clust_5="36.04163" pt_clust_6="36.04163"></scales>
<clustering>
<clus scale="   36.042">  5  6 -1 -1</clus>
<clus scale="   43.028">  1  3  2 -1</clus>
<clus scale="  207.429">  1  4  2 -1</clus>
<clus scale="   43.028">  1  3  2 -1</clus>
</clustering>
</event>
<event>
 6    0  0.3643696E+002  0.1023323E+03  0.7546771E-02  0.1275467E+00
         21   -1    0    0  501  502  0.00000000000E+00  0.00000000000E+00  0.99495123140E+02  0.99495123140E+02  0.00000000000E+00 0. -1.
          2   -1    0    0  505    0 -0.00000000000E+00 -0.00000000000E+00 -0.29184760216E+04  0.29184760216E+04  0.00000000000E+00 0.  1.
         21    1    1    2  503  504  0.13993493240E+02  0.38868172575E+02 -0.30972382378E+03  0.31246663775E+03  0.00000000000E+00 0. -1.
         21    1    1    2  504  502 -0.52774088534E+02 -0.87762696278E+02  0.67631780701E+02  0.12272511169E+03  0.00000000000E+00 0. -1.
         21    1    1    2  505  503 -0.19441426630E+02 -0.27682829845E+02 -0.14134666082E+03  0.14533818034E+03  0.00000000000E+00 0. -1.
          2    1    1    2  501    0  0.58222021924E+02  0.76577353547E+02 -0.24355421946E+04  0.24374412150E+04  0.00000000000E+00 0.  1.
<scales pt_clust_3="37.66564" pt_clust_4="102.33227" pt_clust_5="33.82762" pt_clust_6="14000.00000"></scales>
<clustering>
<clus scale="   33.828">  2  5  1 -1</clus>
<clus scale="   37.666">  2  3  1 -1</clus>
<clus scale="  102.332">  1  4  2 -1</clus>
<clus scale="  102.332">  1  3  2 -1</clus>
</clustering>
</event>
<event>
 6    0  0.3643696E+002  0.2084459E+03  0.7546771E-02  0.1142803E+00
          1   -1    0    0  505    0 -0.00000000000E+00  0.00000000000E+00  0.15639861871E+04  0.15639861871E+04  0.00000000000E+00 0. -1.
         21   -1    0    0  503  502  0.00000000000E+00 -0.00000000000E+00 -0.39733063328E+02  0.39733063328E+02  0.00000000000E+00 0.  1.
         21    1    1    2  503  501 -0.32196447274E+02  0.27839099028E+02  0.35909366119E+03  0.36160736187E+03  0.00000000000E+00 0. -1.
         21    1    1    2  504  502 -0.34129564329E+02 -0.24314664240E+02  0.10617838011E+03  0.11414849303E+03  0.00000000000E+00 0.  1.
         21    1    1    2  505  504  0.20789841227E+03 -0.57893122635E+02  0.43203815910E+03  0.48293926574E+03  0.00000000000E+00 0.  1.
          1    1    1    2  501    0 -0.14157240066E+03  0.54368687847E+02  0.62694292338E+03  0.64502412980E+03  0.00000000000E+00 0. -1.
<scales pt_clust_3="33.86037" pt_clust_4="41.90501" pt_clust_5="198.40515" pt_clust_6="33.86037"></scales>
<clustering>
<clus scale="   33.860">  3  6 -1 -1</clus>
<clus scale="   41.905">  2  4  1 -1</clus>
<clus scale="  198.405">  2  5  1 -1</clus>
<clus scale="   41.905">  2  3  1 -1</clus>
</clustering>
</event>
<event>
 6    0  0.3643696E+002  0.8087307E+02  0.7546771E-02  0.1326592E+00
         21   -1    0    0  503  502  0.00000000000E+00  0.00000000000E+00  0.11686789307E+02  0.11686789307E+02  0.00000000000E+00 0.  1.
          2   -1    0    0  504    0 -0.00000000000E+00 -0.00000000000E+00 -0.29987374556E+04  0.29987374556E+04  0.00000000000E+00 0.  1.
         21    1    1    2  503  501  0.76913043517E+02  0.20051344018E+02 -0.22079177781E+03  0.23466291102E+03  0.00000000000E+00 0.  1.
         21    1    1    2  504  505 -0.47263268157E+01 -0.67486139939E+02 -0.75799874298E+03  0.76101170267E+03  0.00000000000E+00 0.  1.
         21    1    1    2  505  502 -0.84530592962E+02 -0.13922980352E+02 -0.73932478066E+03  0.74427172580E+03  0.00000000000E+00 0.  1.
          2    1    1    2  501    0  0.12343876260E+02  0.61357776272E+02 -0.12689353649E+04  0.12704779055E+04  0.00000000000E+00 0.  1.
<scales pt_clust_3="80.87307" pt_clust_4="40.53970" pt_clust_5="14000.00000" pt_clust_6="62.58712"></scales>
<clustering>
<clus scale="   62.587">  2  6  1 -1</clus>
<clus scale="   40.540">  2  4  1 -1</clus>
<clus scale="   80.873">  1  3  2 -1</clus>
<clus scale="   80.873">  1  3  2 -1</clus>
</clustering>
</event>
<event>
 6    0  0.3643696E+002  0.9894826E+02  0.7546771E-02  0.1282523E+00
         21   -1    0    0  505  502  0.00000000000E+00  0.00000000000E+00  0.33171242358E+03  0.33171242358E+03  0.00000000000E+00 0. -1.
          1   -1    0    0  503    0 -0.00000000000E+00 -0.00000000000E+00 -0.73090944245E+03  0.73090944245E+03  0.00000000000E+00 0.  1.
         21    1    1    2  503  502 -0.26625995743E+02 -0.23141111351E+02 -0.16130737418E+02  0.38789887516E+02  0.00000000000E+00 0. -1.
         21    1    1    2  504  501  0.69259320104E+02  0.22105793016E+02 -0.23053249481E+03  0.24172453469E+03  0.00000000000E+00 0.  1.
         21    1    1    2  505  504 -0.98361045206E+02 -0.17212742200E+02  0.30494906407E+03  0.32088176232E+03  0.00000000000E+00 0. -1.
          1    1    1    2  501    0  0.55727720845E+02  0.18248060535E+02 -0.45748285072E+03  0.46122568151E+03  0.00000000000E+00 0.  1.
<scales pt_clust_3="35.27683" pt_clust_4="98.94826" pt_clust_5="14000.00000" pt_clust_6="38.46898"></scales>
<clustering>
<clus scale="   35.277">  2  3  1 -1</clus>
<clus scale="   38.469">  2  6  1 -1</clus>
<clus scale="   98.948">  2  4  1 -1</clus>
<clus scale="   98.948">  1  3  2 -1</clus>
</clustering>
</event>
<event>
 6    0  0.3643696E+002  0.1062853E+03  0.7546771E-02  0.1267608E+00
         21   -1    0    0  503  502  0.00000000000E+00  0.00000000000E+00  0.88557850771E+03  0.88557850771E+03  0.00000000000E+00 0.  1.
         -2   -1    0    0    0  501 -0.00000000000E+00 -0.00000000000E+00 -0.51540723707E+03  0.51540723707E+03  0.00000000000E+00 0.  1.
         21    1    1    2  503  505  0.66811081662E+01 -0.58138534664E+02  0.82439695713E+03  0.82647145706E+03  0.00000000000E+00 0.  1.
         21    1    1    2  504  501 -0.46165281707E+02  0.54333836826E+01 -0.21454768294E+03  0.21952554099E+03  0.00000000000E+00 0.  1.
         21    1    1    2  505  504  0.32708841977E+02 -0.59218263572E+02  0.21314316484E+02  0.70929339283E+02  0.00000000000E+00 0. -1.
         -2    1    1    2    0  502  0.67753315641E+01  0.11192341455E+03 -0.26099232002E+03  0.28405940744E+03  0.00000000000E+00 0.  1.
<scales pt_clust_3="58.48429" pt_clust_4="46.48392" pt_clust_5="106.28526" pt_clust_6="14000.00000"></scales>
<clustering>
<clus scale="   46.484">  2  4  1 -1</clus>
<clus scale="   58.484">  1  3  2 -1</clus>
<clus scale="  106.285">  1  5  2 -1</clus>
<clus scale="   58.484">  1  3  2 -1</clus>
</clustering>
</event>
<event>
 6    0  0.3643696E+002  0.1092794E+03  0.7546771E-02  0.1261910E+00
          2   -1    0    0  503    0 -0.00000000000E+00  0.00000000000E+00  0.12180727675E+04  0.12180727675E+04  0.00000000000E+00 0.  1.
         21   -1    0    0  505  502  0.00000000000E+00 -0.00000000000E+00 -0.84117720596E+02  0.84117720596E+02  0.00000000000E+00 0.  1.
         21    1    1    2  503  504  0.84147702211E+02 -0.61651852969E+02  0.71778949984E+03  0.72532996136E+03  0.00000000000E+00 0.  1.
         21    1    1    2  504  502 -0.27612403090E+02 -0.24326182839E+02 -0.69646783576E+02  0.78771076153E+02  0.00000000000E+00 0.  1.
         21    1    1    2  505  501 -0.20288745875E+02  0.64417045973E+02  0.31331042558E+03  0.32050680460E+03  0.00000000000E+00 0.  1.
          2    1    1    2  501    0 -0.36246553246E+02  0.21560989834E+02  0.17250190511E+03  0.17758264603E+03  0.00000000000E+00 0.  1.
<scales pt_clust_3="102.22997" pt_clust_4="36.79956" pt_clust_5="30.51384" pt_clust_6="30.51384"></scales>
<clustering>
<clus scale="   30.514">  5  6 -1 -1</clus>
<clus scale="   36.800">  2  4  1 -1</clus>
<clus scale="  102.230">  1  3  2 -1</clus>
<clus scale="   36.800">  2  3  1 -1</clus>
</clustering>
</event>
<event>
 6    0  0.3643696E+002  0.6812047E+02  0.7546771E-02  0.1366604E+00
         21   -1    0    0  504  502  0.00000000000E+00  0.00000000000E+00  0.25197894026E+03  0.25197894026E+03  0.00000000000E+00 0.  1.
          2   -1    0    0  505    0 -0.00000000000E+00 -0.00000000000E+00 -0.49885714623E+03  0.49885714623E+03  0.00000000000E+00 0. -1.
         21    1    1    2  503  502 -0.10968452984E+02 -0.57309574620E+02 -0.13929577599E+03  0.15102320191E+03  0.00000000000E+00 0. -1.
         21    1    1    2  504  501 -0.24638529732E+02  0.63359099594E+02  0.22739160234E+03  0.23733599277E+03  0.00000000000E+00 0.  1.
         21    1    1    2  505  503 -0.26488404093E+02  0.48878039554E+02 -0.13538557577E+03  0.14635556849E+03  0.00000000000E+00 0.  1.
          2    1    1    2  501    0  0.62095386809E+02 -0.54927564527E+02 -0.19958845654E+03  0.21612132332E+03  0.00000000000E+00 0. -1.
<scales pt_clust_3="43.32200" pt_clust_4="68.12047" pt_clust_5="55.59405" pt_clust_6="14000.00000"></scales>
<clustering>
<clus scale="   55.594">  2  5  1 -1</clus>
<clus scale="   43.322">  2  3  1 -1</clus>
<clus scale="   68.120">  1  4  2 -1</clus>
<clus scale="   68.120">  1  3  2 -1</clus>
</clustering>
</event>
<event>
 6    0  0.3643696E+002  0.9623852E+02  0.7546771E-02  0.1288411E+00
          1   -1    0    0  503    0 -0.00000000000E+00  0.00000000000E+00  0.64287657065E+03  0.64287657065E+03  0.00000000000E+00 0. -1.
         21   -1    0    0  504  502  0.00000000000E+00 -0.00000000000E+00 -0.30545714657E+03  0.30545714657E+03  0.00000000000E+00 0.  1.
         21    1    1    2  503  505  0.25622174303E+02 -0.81635979873E+02  0.91025444376E+02  0.12492622043E+03  0.00000000000E+00 0.  1.
         21    1    1    2  504  501 -0.25960244868E+02  0.96109327261E+02  0.23040411370E+03  0.25099201722E+03  0.00000000000E+00 0.  1.
         21    1    1    2  505  502  0.25156114296E+02 -0.54530054160E+02 -0.27304176219E+03  0.27956781072E+03  0.00000000000E+00 0.  1.
          1    1    1    2  501    0 -0.24818043731E+02  0.40056706772E+02  0.28903162820E+03  0.29284766885E+03  0.00000000000E+00 0. -1.
<scales pt_clust_3="96.23852" pt_clust_4="14000.00000" pt_clust_5="59.61935" pt_clust_6="47.12192"></scales>
<clustering>
<clus scale="   47.122">  1  6  2 -1</clus>
<clus scale="   59.619">  2  5  1 -1</clus>
<clus scale="   96.239">  1  3  2 -1</clus>
<clus scale="   59.619">  2  3  1 -1</clus>
</clustering>
</event>
<event>
 6    0  0.3643696E+002  0.1012104E+03  0.7546771E-02  0.1277771E+00
         21   -1    0    0  505  502  0.00000000000E+00  0.00000000000E+00  0.63250203156E+03  0.63250203156E+03  0.00000000000E+00 0.  1.
         -2   -1    0    0    0  501 -0.00000000000E+00 -0.00000000000E+00 -0.20750921598E+03  0.20750921598E+03  0.00000000000E+00 0.  1.
         21    1    1    2  503  501 -0.89082857603E+02 -0.54241937092E+02  0.22931203184E+02  0.10678849815E+03  0.00000000000E+00 0.  1.
         21    1    1    2  504  502  0.20534964441E+02  0.37443795147E+02  0.33192937310E+02  0.54087832706E+02  0.00000000000E+00 0.  1.
         21    1    1    2  505  503 -0.35051126989E+02  0.70545530497E+02  0.49851119870E+03  0.50469661045E+03  0.00000000000E+00 0.  1.
         -2    1    1    2    0  504  0.10359902015E+03 -0.53747388552E+02 -0.12964252361E+03  0.17443830623E+03  0.00000000000E+00 0.  1.
<scales pt_clust_3="100.24809" pt_clust_4="42.70506" pt_clust_5="101.21039" pt_clust_6="14000.00000"></scales>
<clustering>
<clus scale="   42.705">  1  4  2 -1</clus>
<clus scale="  100.248">  2  3  1 -1</clus>
<clus scale="  101.210">  1  5  2 -1</clus>
<clus scale="   42.705">  1  3  2 -1</clus>
</clustering>
</event>
<event>
 6    0  0.3643696E+002  0.7938190E+02  0.7546771E-02  0.1330815E+00
         21   -1    0    0  501  502  0.00000000000E+00  0.00000000000E+00  0.35909686614E+02  0.35909686614E+02  0.00000000000E+00 0. -1.
          2   -1    0    0  505    0 -0.00000000000E+00 -0.00000000000E+00 -0.12571296101E+04  0.12571296101E+04  0.00000000000E+00 0.  1.
         21    1    1    2  503  504  0.61286125302E+02 -0.79396283588E+00 -0.13827768863E+03  0.15125256594E+03  0.00000000000E+00 0. -1.
         21    1    1    2  504  502  0.65985643472E+02  0.38499016817E+02 -0.36386365755E+02  0.84618243028E+02  0.00000000000E+00 0. -1.
         21    1    1    2  505  503 -0.26508304123E+02  0.14648331593E+02 -0.36138886633E+03  0.36265572726E+03  0.00000000000E+00 0.  1.
          2    1    1    2  501    0 -0.10076346465E+03 -0.52353385574E+02 -0.68516700276E+03  0.69451276047E+03  0.00000000000E+00 0.  1.
<scales pt_clust_3="57.02071" pt_clust_4="14000.00000" pt_clust_5="30.28636" pt_clust_6="79.38190"></scales>
<clustering>
<clus scale="   30.286">  2  5  1 -1</clus>
<clus scale="   57.021">  2  3  1 -1</clus>
<clus scale="   79.382">  2  6  1 -1</clus>
<clus scale="   79.382">  1  3  2 -1</clus>
</clustering>
</event>
<event>
 6    0  0.3643696E+002  0.7985476E+02  0.7546771E-02  0.1329464E+00
         21   -1    0    0  504  502  0.00000000000E+00  0.00000000000E+00  0.14801844415E+03  0.14801844415E+03  0.00000000000E+00 0.  1.
          1   -1    0    0  503    0 -0.00000000000E+00 -0.00000000000E+00 -0.10814695198E+04  0.10814695198E+04  0.00000000000E+00 0. -1.
         21    1    1    2  503  505 -0.58430072711E+02  0.47442526656E+02 -0.40215527323E+03  0.40913778916E+03  0.00000000000E+00 0. -1.
         21    1    1    2  504  501  0.40540140054E+02  0.72129084080E+02  0.12372221845E+03  0.14883983023E+03  0.00000000000E+00 0.  1.
         21    1    1    2  505  502  0.32245266124E+02 -0.59764230118E+02 -0.17748696000E+03  0.19003457938E+03  0.00000000000E+00 0.  1.
          1    1    1    2  501    0 -0.14355333466E+02 -0.59807380619E+02 -0.47753106090E+03  0.48147576523E+03  0.00000000000E+00 0. -1.
<scales pt_clust_3="68.47697" pt_clust_4="14000.00000" pt_clust_5="79.85476" pt_clust_6="61.50608"></scales>
<clustering>
<clus scale="   61.506">  2  6  1 -1</clus>
<clus scale="   68.477">  2  3  1 -1</clus>
<clus scale="   79.855">  2  5  1 -1</clus>
<clus scale="   79.855">  1  3  2 -1</clus>
</clustering>
</event>
<event>
 6    0  0.3643696E+002  0.6980626E+02  0.7546771E-02  0.1360753E+00
          1   -1    0    0  504    0 -0.00000000000E+00  0.00000000000E+00  0.82536618373E+03  0.82536618373E+03  0.00000000000E+00 0.  1.
         21   -1    0    0  501  502  0.00000000000E+00 -0.00000000000E+00 -0.99774420684E+03  0.99774420684E+03  0.00000000000E+00 0.  1.
         21    1    1    2  503  505 -0.99634491004E+02 -0.14511174443E+02  0.99630286481E+02  0.14164674358E+03  0.00000000000E+00 0.  1.
         21    1    1    2  504  503  0.29835199248E+02  0.27960421816E+02  0.47555799271E+03  0.47731261112E+03  0.00000000000E+00 0.  1.
         21    1    1    2  505  502  0.56543275057E+02  0.40587470244E+02 -0.97120459211E+03  0.97369545774E+03  0.00000000000E+00 0.  1.
          1    1    1    2  501    0  0.13256016699E+02 -0.54036717616E+02  0.22363828980E+03  0.23045557814E+03  0.00000000000E+00 0.  1.
<scales pt_clust_3="14000.00000" pt_clust_4="40.88917" pt_clust_5="69.80626" pt_clust_6="48.49769"></scales>
<clustering>
<clus scale="   40.889">  1  4  2 -1</clus>
<clus scale="   48.498">  1  6  2 -1</clus>
<clus scale="   69.806">  2  5  1 -1</clus>
<clus scale="   69.806">  2  3  1 -1</clus>
</clustering>
</event>
<event>
 6    0  0.3643696E+002  0.7839699E+02  0.7546771E-02  0.1333663E+00
          1   -1    0    0  503    0 -0.00000000000E+00  0.00000000000E+00  0.59122194102E+03  0.59122194102E+03  0.00000000000E+00 0. -1.
         21   -1    0    0  504  502  0.00000000000E+00 -0.00000000000E+00 -0.36940375272E+03  0.36940375272E+03  0.00000000000E+00 0. -1.
         21    1    1    2  503  505 -0.59966986923E+02 -0.82550748386E+02  0.47595142758E+03  0.48676526889E+03  0.00000000000E+00 0. -1.
         21    1    1    2  504  501  0.48348647477E+02  0.53805648368E+02 -0.17499017202E+03  0.18935205257E+03  0.00000000000E+00 0. -1.
         21    1    1    2  505  502 -0.32024474427E+02  0.23316261689E+02 -0.17479650330E+03  0.17922899483E+03  0.00000000000E+00 0. -1.
          1    1    1    2  501    0  0.43642813872E+02  0.54288383290E+01  0.95653436051E+02  0.10527937745E+03  0.00000000000E+00 0. -1.
<scales pt_clust_3="78.39699" pt_clust_4="14000.00000" pt_clust_5="39.61332" pt_clust_6="43.26147"></scales>
<clustering>
<clus scale="   39.613">  2  5  1 -1</clus>
<clus scale="   43.261">  1  6  2 -1</clus>
<clus scale="   78.397">  1  3  2 -1</clus>
<clus scale="   39.613">  2  3  1 -1</clus>
</clustering>
</event>
<event>
 6    0  0.3643696E+002  0.8579300E+02  0.7546771E-02  0.1313372E+00
         21   -1    0    0  503  502  0.00000000000E+00  0.00000000000E+00  0.33275128552E+03  0.33275128552E+03  0.00000000000E+00 0.  1.
          2   -1    0    0  504    0 -0.00000000000E+00 -0.00000000000E+00 -0.11255883241E+04  0.11255883241E+04  0.00000000000E+00 0. -1.
         21    1    1    2  503  505  0.34734630679E+02 -0.15344243346E+02  0.28702426251E+03  0.28952524525E+03  0.00000000000E+00 0.  1.
         21    1    1    2  504  502  0.45509880183E+01 -0.57267725015E+02 -0.47463499998E+03  0.47809903475E+03  0.00000000000E+00 0.  1.
         21    1    1    2  505  501 -0.11170456525E+03  0.50453715843E+02 -0.53368131151E+02  0.13368487110E+03  0.00000000000E+00 0. -1.
          2    1    1    2  501    0  0.72418946551E+02  0.22158252518E+02 -0.55185816993E+03  0.55703045850E+03  0.00000000000E+00 0. -1.
<scales pt_clust_3="37.97289" pt_clust_4="58.16564" pt_clust_5="14000.00000" pt_clust_6="85.79300"></scales>
<clustering>
<clus scale="   37.973">  1  3  2 -1</clus>
<clus scale="   58.166">  2  4  1 -1</clus>
<clus scale="   85.793">  2  6  1 -1</clus>
<clus scale="   37.973">  1  3  2 -1</clus>
</clustering>
</event>
<event>
 6    0  0.3643696E+002  0.8588156E+02  0.7546771E-02  0.1313143E+00
         21   -1    0    0  504  502  0.00000000000E+00  0.00000000000E+00  0.58458898063E+02  0.58458898063E+02  0.00000000000E+00 0.  1.
          3   -1    0    0  505    0 -0.00000000000E+00 -0.00000000000E+00 -0.10589225220E+04  0.10589225220E+04  0.00000000000E+00 0.  1.
         21    1    1    2  503  502  0.37154353587E+02 -0.38758647145E+02 -0.55558336116E+02  0.77261940378E+02  0.00000000000E+00 0.  1.
         21    1    1    2  504  501 -0.11861893207E+03  0.51387823157E+02 -0.57027165174E+02  0.14129139033E+03  0.00000000000E+00 0.  1.
         21    1    1    2  505  503  0.62374530053E+02 -0.59387676187E+02 -0.46133410260E+03  0.46930441326E+03  0.00000000000E+00 0.  1.
          3    1    1    2  501    0  0.19090048431E+02  0.46758500176E+02 -0.42654402004E+03  0.42952367609E+03  0.00000000000E+00 0.  1.
<scales pt_clust_3="51.75641" pt_clust_4="85.88156" pt_clust_5="14000.00000" pt_clust_6="50.50532"></scales>
<clustering>
<clus scale="   50.505">  2  6  1 -1</clus>
<clus scale="   51.756">  1  3  2 -1</clus>
<clus scale="   85.882">  1  4  2 -1</clus>
<clus scale="   51.756">  1  3  2 -1</clus>
</clustering>
</event>
<event>
 6    0  0.3643696E+002  0.1384615E+03  0.7546771E-02  0.1215414E+00
         21   -1    0    0  503  502  0.00000000000E+00  0.00000000000E+00  0.27776681411E+03  0.27776681411E+03  0.00000000000E+00 0.  1.
          2   -1    0    0  505    0 -0.00000000000E+00 -0.00000000000E+00 -0.81284653214E+03  0.81284653214E+03  0.00000000000E+00 0.  1.
         21    1    1    2  503  504 -0.58134609833E+02  0.12333497593E+03  0.84725509341E+02  0.16052900386E+03  0.00000000000E+00 0.  1.
         21    1    1    2  504  501  0.30014765228E+02 -0.67461051457E+02 -0.34526675686E+03  0.35307366510E+03  0.00000000000E+00 0.  1.
         21    1    1    2  505  502 -0.29997403669E+02 -0.33491698671E+02  0.14554724315E+03  0.15233364072E+03  0.00000000000E+00 0.  1.
          2    1    1    2  501    0  0.58117248275E+02 -0.22382225801E+02 -0.42008571366E+03  0.42467703658E+03  0.00000000000E+00 0.  1.
<scales pt_clust_3="126.01151" pt_clust_4="52.37988" pt_clust_5="44.96152" pt_clust_6="52.37988"></scales>
<clustering>
<clus scale="   44.962">  1  5  2 -1</clus>
<clus scale="   52.380">  4  6 -1 -1</clus>
<clus scale="  126.012">  1  3  2 -1</clus>
<clus scale="   44.962">  1  3  2 -1</clus>
</clustering>
</event>
<event>
 6    0  0.3643696E+002  0.7795455E+02  0.7546771E-02  0.1334958E+00
         -4   -1    0    0    0  501 -0.00000000000E+00  0.00000000000E+00  0.19180520542E+03  0.19180520542E+03  0.00000000000E+00 0. -1.
         21   -1    0    0  503  502  0.00000000000E+00 -0.00000000000E+00 -0.21734329257E+03  0.21734329257E+03  0.00000000000E+00 0. -1.
         21    1    1    2  503  505  0.34517269543E+01 -0.60745623595E+02 -0.14892635336E+03  0.16087574065E+03  0.00000000000E+00 0. -1.
         21    1    1    2  504  502  0.13164416744E+02  0.35359109045E+02 -0.94709738947E+01  0.38900743016E+02  0.00000000000E+00 0. -1.
         21    1    1    2  505  501  0.68023987347E+02  0.16102647534E+02  0.30610993585E+02  0.76312456653E+02  0.00000000000E+00 0. -1.
         -4    1    1    2    0  504 -0.84640131045E+02  0.92838670155E+01  0.10224824652E+03  0.13305955766E+03  0.00000000000E+00 0. -1.
<scales pt_clust_3="35.28935" pt_clust_4="37.73021" pt_clust_5="77.95455" pt_clust_6="14000.00000"></scales>
<clustering>
<clus scale="   37.730">  2  4  1 -1</clus>
<clus scale="   35.289">  2  3  1 -1</clus>
<clus scale="   77.955">  2  5  1 -1</clus>
<clus scale="   37.730">  2  3  1 -1</clus>
</clustering>
</event>
<event>
 6    0  0.3643696E+002  0.1482336E+03  0.7546771E-02  0.1202661E+00
         21   -1    0    0  501  502  0.00000000000E+00  0.00000000000E+00  0.10985164023E+04  0.10985164023E+04  0.00000000000E+00 0.  1.
          2   -1    0    0  505    0 -0.00000000000E+00 -0.00000000000E+00 -0.27116256795E+04  0.27116256795E+04  0.00000000000E+00 0.  1.
         21    1    1    2  503  502  0.39284861836E+02 -0.14319671260E+03  0.10889310995E+04  0.10990084341E+04  0.00000000000E+00 0.  1.
         21    1    1    2  504  503 -0.74687207234E+01  0.49363685231E+02 -0.22473274859E+03  0.23021156248E+03  0.00000000000E+00 0.  1.
         21    1    1    2  505  504  0.31519668150E+02  0.36852711081E+02 -0.96173297442E+03  0.96295478911E+03  0.00000000000E+00 0. -1.
          2    1    1    2  501    0 -0.63335809262E+02  0.56980316291E+02 -0.15155746537E+04  0.15179672961E+04  0.00000000000E+00 0.  1.
<scales pt_clust_3="148.23356" pt_clust_4="54.26067" pt_clust_5="48.49342" pt_clust_6="14000.00000"></scales>
<clustering>
<clus scale="   48.493">  2  5  1 -1</clus>
<clus scale="   54.261">  2  4  1 -1</clus>
<clus scale="  148.234">  1  3  2 -1</clus>
<clus scale="  148.234">  1  3  2 -1</clus>
</clustering>
</event>
<event>
 6    0  0.3643696E+002  0.3127255E+03  0.7546771E-02  0.1079047E+00
         21   -1    0    0  505  502  0.00000000000E+00  0.00000000000E+00  0.18139923976E+04  0.18139923976E+04  0.00000000000E+00 0. -1.
          4   -1    0    0  502    0 -0.00000000000E+00 -0.00000000000E+00 -0.11683688587E+03  0.11683688587E+03  0.00000000000E+00 0.  1.
         21    1    1    2  503  504  0.15804222262E+03 -0.20105672939E+03  0.54049915163E+03  0.59794689185E+03  0.00000000000E+00 0. -1.
         21    1    1    2  504  501 -0.96984397843E+02  0.55808817428E+02  0.65746844465E+02  0.12978152829E+03  0.00000000000E+00 0.  1.
         21    1    1    2  505  503 -0.23651902539E+02 -0.67115186536E+02  0.93330019863E+03  0.93600914606E+03  0.00000000000E+00 0.  1.
          4    1    1    2  501    0 -0.37405922233E+02  0.21236309849E+03  0.15760931698E+03  0.26709171724E+03  0.00000000000E+00 0.  1.
<scales pt_clust_3="283.11444" pt_clust_4="98.62668" pt_clust_5="71.16081" pt_clust_6="98.62668"></scales>
<clustering>
<clus scale="   71.161">  1  5  2 -1</clus>
<clus scale="   98.627">  4  6 -1 -1</clus>
<clus scale="  283.114">  1  3  2 -1</clus>
<clus scale="   71.161">  1  3  2 -1</clus>
</clustering>
</event>
<event>
 6    0  0.3643696E+002  0.9745992E+02  0.7546771E-02  0.1285730E+00
         21   -1    0    0  505  502  0.00000000000E+00  0.00000000000E+00  0.22333280569E+03  0.22333280569E+03  0.00000000000E+00 0.  1.
          4   -1    0    0  503    0 -0.00000000000E+00 -0.00000000000E+00 -0.66988097565E+03  0.66988097565E+03  0.00000000000E+00 0.  1.
         21    1    1    2  503  504  0.11703304674E+02  0.47430338242E+02 -0.77968513780E+02  0.92009203165E+02  0.00000000000E+00 0.  1.
         21    1    1    2  504  502  0.26013733130E+01 -0.56107831253E+02  0.18596560435E+03  0.19426286797E+03  0.00000000000E+00 0.  1.
         21    1    1    2  505  501  0.34812511522E+02 -0.58213186697E+02 -0.27154970257E+02  0.73062154865E+02  0.00000000000E+00 0.  1.
          4    1    1    2  501    0 -0.49117189509E+02  0.66890679708E+02 -0.52739029027E+03  0.53387955534E+03  0.00000000000E+00 0.  1.
<scales pt_clust_3="48.85288" pt_clust_4="55.83597" pt_clust_5="97.45992" pt_clust_6="14000.00000"></scales>
<clustering>
<clus scale="   48.853">  2  3  1 -1</clus>
<clus scale="   55.836">  1  4  2 -1</clus>
<clus scale="   97.460">  1  5  2 -1</clus>
<clus scale="   55.836">  1  3  2 -1</clus>
</clustering>
</event>
<event>
 6    0  0.3643696E+002  0.1368716E+03  0.7546771E-02  0.1217602E+00
         21   -1    0    0  505  502  0.00000000000E+00  0.00000000000E+00  0.21261891113E+03  0.21261891113E+03  0.00000000000E+00 0. -1.
          2   -1    0    0  504    0 -0.00000000000E+00 -0.00000000000E+00 -0.11482032973E+04  0.11482032973E+04  0.00000000000E+00 0. -1.
         21    1    1    2  503  501 -0.71291202241E+02  0.52266799278E+02 -0.73706174486E+02  0.11509497809E+03  0.00000000000E+00 0. -1.
         21    1    1    2  504  502  0.61167825003E+02  0.76584929557E+02 -0.10076304395E+03  0.14057007248E+03  0.00000000000E+00 0. -1.
         21    1    1    2  505  503 -0.77112041987E+02 -0.32217334482E+01  0.15670527402E+03  0.17468024929E+03  0.00000000000E+00 0. -1.
          2    1    1    2  501    0  0.87235419224E+02 -0.12562999539E+03 -0.91782044179E+03  0.93047690862E+03  0.00000000000E+00 0. -1.
<scales pt_clust_3="14000.00000" pt_clust_4="80.42294" pt_clust_5="77.17931" pt_clust_6="136.87157"></scales>
<clustering>
<clus scale="   77.179">  1  5  2 -1</clus>
<clus scale="   80.423">  1  4  2 -1</clus>
<clus scale="  136.872">  2  6  1 -1</clus>
<clus scale="   77.179">  1  3  2 -1</clus>
</clustering>
</event>
<event>
 6    0  0.3643696E+002  0.3524035E+03  0.7546771E-02  0.1061633E+00
          2   -1    0    0  504    0 -0.00000000000E+00  0.00000000000E+00  0.13925028331E+04  0.13925028331E+04  0.00000000000E+00 0.  1.
         21   -1    0    0  503  502  0.00000000000E+00 -0.00000000000E+00 -0.36721675232E+03  0.36721675232E+03  0.00000000000E+00 0.  1.
         21    1    1    2  503  501  0.58752568258E+02 -0.92306345664E+02  0.17389239877E+03  0.20545289503E+03  0.00000000000E+00 0. -1.
         21    1    1    2  504  505 -0.24741943663E+03  0.18401702707E+03  0.44119989411E+03  0.53827129817E+03  0.00000000000E+00 0.  1.
         21    1    1    2  505  502 -0.38247380921E+02  0.85465218368E+01 -0.27991880313E+03  0.28264897228E+03  0.00000000000E+00 0.  1.
          2    1    1    2  501    0  0.22691424929E+03 -0.10025720325E+03  0.69011259098E+03  0.73334641989E+03  0.00000000000E+00 0.  1.
<scales pt_clust_3="84.12237" pt_clust_4="328.68666" pt_clust_5="39.19063" pt_clust_6="84.12237"></scales>
<clustering>
<clus scale="   39.191">  2  5  1 -1</clus>
<clus scale="   84.122">  3  6 -1 -1</clus>
<clus scale="  328.687">  2  4  1 -1</clus>
<clus scale="   39.191">  2  3  1 -1</clus>
</clustering>
</event>
<event>
 6    0  0.3643696E+002  0.1267292E+03  0.7546771E-02  0.1232391E+00
         21   -1    0    0  504  502  0.00000000000E+00  0.00000000000E+00  0.37935016040E+04  0.37935016040E+04  0.00000000000E+00 0. -1.
          3   -1    0    0  505    0 -0.00000000000E+00 -0.00000000000E+00 -0.12160942130E+03  0.12160942130E+03  0.00000000000E+00 0. -1.
         21    1    1    2  503  501  0.38131700946E+02  0.10013806439E+03  0.29325221169E+03  0.31221549964E+03  0.00000000000E+00 0.  1.
         21    1    1    2  504  503  0.68558046876E+02  0.32394801194E-01  0.32954616672E+04  0.32961747233E+04  0.00000000000E+00 0. -1.
         21    1    1    2  505  502 -0.86386000433E+01 -0.15185972468E+03  0.11581073391E+03  0.19117564562E+03  0.00000000000E+00 0.  1.
          3    1    1    2  501    0 -0.98051147780E+02  0.51689265483E+02 -0.32632430078E+02  0.11554515671E+03  0.00000000000E+00 0. -1.
<scales pt_clust_3="14000.00000" pt_clust_4="68.55805" pt_clust_5="126.72922" pt_clust_6="105.82438"></scales>
<clustering>
<clus scale="   68.558">  1  4  2 -1</clus>
<clus scale="  105.824">  2  6  1 -1</clus>
<clus scale="  126.729">  2  5  1 -1</clus>
<clus scale="   68.558">  1  3  2 -1</clus>
</clustering>
</event>
<event>
 6    0  0.3643696E+002  0.1012301E+03  0.7546771E-02  0.1277730E+00
         21   -1    0    0  504  502  0.00000000000E+00  0.00000000000E+00  0.12671941452E+04  0.12671941452E+04  0.00000000000E+00 0. -1.
          2   -1    0    0  503    0 -0.00000000000E+00 -0.00000000000E+00 -0.14709707828E+03  0.14709707828E+03  0.00000000000E+00 0. -1.
         21    1    1    2  503  502  0.13300308293E+02  0.47036229111E+02  0.79488577958E+02  0.93315267108E+02  0.00000000000E+00 0.  1.
         21    1    1    2  504  505 -0.12853428687E+02  0.32227465091E+02  0.10790276594E+04  0.10795853417E+04  0.00000000000E+00 0. -1.
         21    1    1    2  505  501 -0.57849013021E+02  0.26456709331E+02  0.58871648506E+02  0.86673737510E+02  0.00000000000E+00 0.  1.
          2    1    1    2  501    0  0.57402133415E+02 -0.10572040353E+03 -0.97290818945E+02  0.15471687721E+03  0.00000000000E+00 0. -1.
<scales pt_clust_3="62.29616" pt_clust_4="34.69611" pt_clust_5="14000.00000" pt_clust_6="101.23005"></scales>
<clustering>
<clus scale="   34.696">  1  4  2 -1</clus>
<clus scale="   62.296">  1  3  2 -1</clus>
<clus scale="  101.230">  2  6  1 -1</clus>
<clus scale="   34.696">  1  3  2 -1</clus>
</clustering>
</event>
<event>
 6    0  0.3643696E+002  0.9310358E+02  0.7546771E-02  0.1295505E+00
         21   -1    0    0  504  502  0.00000000000E+00  0.00000000000E+00  0.51340498623E+03  0.51340498623E+03  0.00000000000E+00 0. -1.
          1   -1    0    0  503    0 -0.00000000000E+00 -0.00000000000E+00 -0.95228636605E+03  0.95228636605E+03  0.00000000000E+00 0.  1.
         21    1    1    2  503  505  0.22894860397E+02  0.27166090876E+02 -0.13981879774E+03  0.14426180135E+03  0.00000000000E+00 0. -1.
         21    1    1    2  504  501  0.53239259973E+02 -0.76221318091E+02  0.49362270252E+03  0.50230218054E+03  0.00000000000E+00 0. -1.
         21    1    1    2  505  502 -0.35386182611E+01 -0.41425911577E+02 -0.40474594551E+02  0.58024311915E+02  0.00000000000E+00 0.  1.
          1    1    1    2  501    0 -0.72595502109E+02  0.90481138792E+02 -0.75221069004E+03  0.76110305847E+03  0.00000000000E+00 0.  1.
<scales pt_clust_3="35.52705" pt_clust_4="93.10358" pt_clust_5="39.83257" pt_clust_6="14000.00000"></scales>
<clustering>
<clus scale="   35.527">  2  3  1 -1</clus>
<clus scale="   39.833">  2  5  1 -1</clus>
<clus scale="   93.104">  1  4  2 -1</clus>
<clus scale="   93.104">  1  3  2 -1</clus>
</clustering>
</event>
<event>
 6    0  0.3643696E+002  0.1061456E+03  0.7546771E-02  0.1267879E+00
          2   -1    0    0  503    0 -0.00000000000E+00  0.00000000000E+00  0.29776105662E+04  0.29776105662E+04  0.00000000000E+00 0.  1.
         21   -1    0    0  504  502  0.00000000000E+00 -0.00000000000E+00 -0.29664414673E+02  0.29664414673E+02  0.00000000000E+00 0.  1.
         21    1    1    2  503  505  0.22201015152E+02 -0.54477649761E+02  0.94850320023E+03  0.95032574428E+03  0.00000000000E+00 0. -1.
         21    1    1    2  504  501 -0.39297526081E+02 -0.10612153281E+02  0.58906346684E+03  0.59046818824E+03  0.00000000000E+00 0.  1.
         21    1    1    2  505  502  0.89468318388E+02  0.72033015932E+01  0.49602203289E+02  0.10255167536E+03  0.00000000000E+00 0.  1.
          2    1    1    2  501    0 -0.72371807459E+02  0.57886501449E+02  0.13607772811E+04  0.13639293730E+04  0.00000000000E+00 0.  1.
<scales pt_clust_3="58.82771" pt_clust_4="36.81645" pt_clust_5="90.44837" pt_clust_6="36.81645"></scales>
<clustering>
<clus scale="   36.816">  4  6 -1 -1</clus>
<clus scale="   58.828">  1  3  2 -1</clus>
<clus scale="   90.448">  2  5  1 -1</clus>
<clus scale="   90.448">  2  3  1 -1</clus>
</clustering>
</event>
<event>
 6    0  0.3643696E+002  0.8074871E+02  0.7546771E-02  0.1326940E+00
          2   -1    0    0  503    0 -0.00000000000E+00  0.00000000000E+00  0.24787492525E+04  0.24787492525E+04  0.00000000000E+00 0. -1.
         21   -1    0    0  501  502  0.00000000000E+00 -0.00000000000E+00 -0.84420533345E+03  0.84420533345E+03  0.00000000000E+00 0. -1.
         21    1    1    2  503  504  0.21682711048E+02 -0.22882064926E+02  0.21613111952E+04  0.21615410732E+04  0.00000000000E+00 0. -1.
         21    1    1    2  504  505  0.58927273096E+02  0.38572755369E+02  0.24286784831E+03  0.25287362993E+03  0.00000000000E+00 0. -1.
         21    1    1    2  505  502 -0.60849053888E+01  0.73597684263E+02 -0.78742825213E+03  0.79088361815E+03  0.00000000000E+00 0. -1.
          2    1    1    2  501    0 -0.74525078756E+02 -0.89288374706E+02  0.17793127719E+02  0.11765626467E+03  0.00000000000E+00 0. -1.
<scales pt_clust_3="31.52347" pt_clust_4="14000.00000" pt_clust_5="73.71499" pt_clust_6="80.74871"></scales>
<clustering>
<clus scale="   31.523">  1  3  2 -1</clus>
<clus scale="   73.715">  2  5  1 -1</clus>
<clus scale="   80.749">  2  6  1 -1</clus>
<clus scale="   73.715">  2  3  1 -1</clus>
</clustering>
</event>
<event>
 6    0  0.3643696E+002  0.8240577E+02  0.7546771E-02  0.1322360E+00
          1   -1    0    0  505    0 -0.00000000000E+00  0.00000000000E+00  0.10937848507E+04  0.10937848507E+04  0.00000000000E+00 0.  1.
         21   -1    0    0  501  502  0.00000000000E+00 -0.00000000000E+00 -0.10773559522E+03  0.10773559522E+03  0.00000000000E+00 0.  1.
         21    1    1    2  503  504  0.37281477847E+02 -0.37892559836E+02  0.98256687918E+02  0.11171450847E+03  0.00000000000E+00 0.  1.
         21    1    1    2  504  502 -0.81807722320E+02 -0.88950878667E+01 -0.78621550808E+02  0.11381113421E+03  0.00000000000E+00 0.  1.
         21    1    1    2  505  503 -0.40516794700E+02  0.25268259841E+02  0.28782335240E+03  0.29175739544E+03  0.00000000000E+00 0. -1.
          1    1    1    2  501    0  0.85043039174E+02  0.21519387862E+02  0.67859076601E+03  0.68423740783E+03  0.00000000000E+00 0.  1.
<scales pt_clust_3="47.11782" pt_clust_4="82.40577" pt_clust_5="47.75035" pt_clust_6="14000.00000"></scales>
<clustering>
<clus scale="   47.750">  1  5  2 -1</clus>
<clus scale="   47.118">  1  3  2 -1</clus>
<clus scale="   82.406">  2  4  1 -1</clus>
<clus scale="   82.406">  2  3  1 -1</clus>
</clustering>
</event>
<event>
 6    0  0.3643696E+002  0.1022110E+03  0.7546771E-02  0.1275714E+00
         21   -1    0    0  504  502  0.00000000000E+00  0.00000000000E+00  0.38413592327E+03  0.38413592327E+03  0.00000000000E+00 0. -1.
         -4   -1    0    0    0  501 -0.00000000000E+00 -0.00000000000E+00 -0.90865547975E+02  0.90865547975E+02  0.00000000000E+00 0. -1.
         21    1    1    2  503  502 -0.28553387580E+02 -0.82284082520E+02  0.61681503194E+02  0.10672663217E+03  0.00000000000E+00 0. -1.
         21    1    1    2  504  505  0.58071507259E+02 -0.38742858629E+02  0.18177687848E+03  0.19472067841E+03  0.00000000000E+00 0. -1.
         21    1    1    2  505  501  0.14214667693E+02  0.11885427174E+03  0.50109192869E+02  0.12976642824E+03  0.00000000000E+00 0. -1.
         -4    1    1    2    0  503 -0.43732787372E+02  0.21726694108E+01 -0.29719924612E+00  0.43787732427E+02  0.00000000000E+00 0. -1.
<scales pt_clust_3="102.21102" pt_clust_4="66.30833" pt_clust_5="14000.00000" pt_clust_6="43.78672"></scales>
<clustering>
<clus scale="   43.787">  2  6  1 -1</clus>
<clus scale="   66.308">  1  4  2 -1</clus>
<clus scale="  102.211">  1  3  2 -1</clus>
<clus scale="   66.308">  1  3  2 -1</clus>
</clustering>
</event>
<event>
 6    0  0.3643696E+002  0.1382629E+03  0.7546771E-02  0.1215686E+00
          1   -1    0    0  504    0 -0.00000000000E+00  0.00000000000E+00  0.15727015681E+04  0.15727015681E+04  0.00000000000E+00 0.  1.
         21   -1    0    0  505  502  0.00000000000E+00 -0.00000000000E+00 -0.61142607812E+03  0.61142607812E+03  0.00000000000E+00 0. -1.
         21    1    1    2  503  501  0.24039783332E+02  0.38034019409E+02  0.88185048542E+02  0.99000508087E+02  0.00000000000E+00 0. -1.
         21    1    1    2  504  502  0.25314586293E+02 -0.18032713892E+02 -0.58698729408E+03  0.58780956989E+03  0.00000000000E+00 0. -1.
         21    1    1    2  505  503  0.71158975363E+02  0.38394446930E+02  0.91106210233E+02  0.12181163685E+03  0.00000000000E+00 0. -1.
          1    1    1    2  501    0 -0.12051334499E+03 -0.58395752448E+02  0.13689715253E+04  0.13755059314E+04  0.00000000000E+00 0.  1.
<scales pt_clust_3="30.83432" pt_clust_4="31.08065" pt_clust_5="30.83432" pt_clust_6="131.93978"></scales>
<clustering>
<clus scale="   30.834">  3  5 -1 -1</clus>
<clus scale="   31.081">  2  4  1 -1</clus>
<clus scale="  131.940">  1  6  2 -1</clus>
<clus scale="   31.081">  2  3  1 -1</clus>
</clustering>
</event>
<event>
 6    0  0.3643696E+002  0.1401072E+03  0.7546771E-02  0.1213185E+00
          1   -1    0    0  505    0 -0.00000000000E+00  0.00000000000E+00  0.64776679730E+03  0.64776679730E+03  0.00000000000E+00 0. -1.
         21   -1    0    0  504  502  0.00000000000E+00 -0.00000000000E+00 -0.17331611028E+04  0.17331611028E+04  0.00000000000E+00 0.  1.
         21    1    1    2  503  502 -0.10762942009E+03 -0.13649004422E+02  0.48818693158E+02  0.11896912286E+03  0.00000000000E+00 0.  1.
         21    1    1    2  504  501 -0.35776894664E+02 -0.61075584632E+02 -0.16828142708E+04  0.16843022542E+04  0.00000000000E+00 0.  1.
         21    1    1    2  505  503  0.47564128479E+01  0.36749723726E+02  0.11970449001E+03  0.12530894056E+03  0.00000000000E+00 0. -1.
          1    1    1    2  501    0  0.13864990191E+03  0.37974865328E+02  0.42889678215E+03  0.45234758254E+03  0.00000000000E+00 0. -1.
<scales pt_clust_3="14000.00000" pt_clust_4="70.73454" pt_clust_5="37.05625" pt_clust_6="140.10724"></scales>
<clustering>
<clus scale="   37.056">  1  5  2 -1</clus>
<clus scale="   70.735">  2  4  1 -1</clus>
<clus scale="  140.107">  1  6  2 -1</clus>
<clus scale="   70.735">  2  3  1 -1</clus>
</clustering>
</event>
<event>
 6    0  0.3643696E+002  0.1085421E+03  0.7546771E-02  0.1263294E+00
         21   -1    0    0  505  502  0.00000000000E+00  0.00000000000E+00  0.56345870698E+02  0.56345870698E+02  0.00000000000E+00 0.  1.
          2   -1    0    0  503    0 -0.00000000000E+00 -0.00000000000E+00 -0.17473024612E+04  0.17473024612E+04  0.00000000000E+00 0. -1.
         21    1    1    2  503  504 -0.58937944984E+02 -0.14400149247E+02 -0.13410369234E+04  0.13424086842E+04  0.00000000000E+00 0. -1.
         21    1    1    2  504  502  0.11332748344E+03  0.56404475087E+02 -0.38578365355E+02  0.13233621419E+03  0.00000000000E+00 0.  1.
         21    1    1    2  505  501 -0.67613389759E+02 -0.63042236634E+01 -0.20479043265E+03  0.21575549823E+03  0.00000000000E+00 0. -1.
          2    1    1    2  501    0  0.13223851301E+02 -0.35700102176E+02 -0.10655086910E+03  0.11314793522E+03  0.00000000000E+00 0. -1.
<scales pt_clust_3="64.95687" pt_clust_4="14000.00000" pt_clust_5="108.54206" pt_clust_6="38.07056"></scales>
<clustering>
<clus scale="   38.071">  2  6  1 -1</clus>
<clus scale="   64.957">  2  3  1 -1</clus>
<clus scale="  108.542">  2  5  1 -1</clus>
<clus scale="  108.542">  1  3  2 -1</clus>
</clustering>
</event>
<event>
 6    0  0.3643696E+002  0.1263283E+03  0.7546771E-02  0.1233008E+00
         -3   -1    0    0    0  501 -0.00000000000E+00  0.00000000000E+00  0.23806233883E+04  0.23806233883E+04  0.00000000000E+00 0.  1.
         21   -1    0    0  504  502  0.00000000000E+00 -0.00000000000E+00 -0.15973387557E+03  0.15973387557E+03  0.00000000000E+00 0.  1.
         21    1    1    2  503  501  0.28304119832E+02  0.39468074954E+02  0.84021744727E+03  0.84161999194E+03  0.00000000000E+00 0.  1.
         21    1    1    2  504  505 -0.38169804793E+02 -0.56839964569E+02 -0.13155677730E+03  0.14830678077E+03  0.00000000000E+00 0.  1.
         21    1    1    2  505  503  0.74379740361E+02  0.24606879663E+02  0.14719460078E+04  0.14740294754E+04  0.00000000000E+00 0.  1.
         -3    1    1    2    0  502 -0.64514055400E+02 -0.72349900486E+01  0.40282834984E+02  0.76401015828E+02  0.00000000000E+00 0.  1.
<scales pt_clust_3="30.32126" pt_clust_4="120.31544" pt_clust_5="30.32126" pt_clust_6="64.91848"></scales>
<clustering>
<clus scale="   30.321">  3  5 -1 -1</clus>
<clus scale="   64.918">  2  6  1 -1</clus>
<clus scale="  120.315">  2  4  1 -1</clus>
<clus scale="   64.918">  2  3  1 -1</clus>
</clustering>
</event>
<event>
 6    0  0.3643696E+002  0.2214545E+03  0.7546771E-02  0.1132803E+00
         21   -1    0    0  505  502  0.00000000000E+00  0.00000000000E+00  0.12165738105E+04  0.12165738105E+04  0.00000000000E+00 0.  1.
          2   -1    0    0  503    0 -0.00000000000E+00 -0.00000000000E+00 -0.40577583337E+04  0.40577583337E+04  0.00000000000E+00 0.  1.
         21    1    1    2  503  502  0.30909946293E+02 -0.14210585580E+02 -0.99420667825E+03  0.99478856276E+03  0.00000000000E+00 0. -1.
         21    1    1    2  504  501 -0.19243850901E+03 -0.12329121197E+03 -0.97194440644E+02  0.24835471002E+03  0.00000000000E+00 0. -1.
         21    1    1    2  505  504  0.26441371057E+02 -0.24131468407E+02  0.11365826355E+04  0.11371462356E+04  0.00000000000E+00 0.  1.
          2    1    1    2  501    0  0.13508719166E+03  0.16163326596E+03 -0.28863660398E+04  0.28940426358E+04  0.00000000000E+00 0.  1.
<scales pt_clust_3="34.02008" pt_clust_4="221.45446" pt_clust_5="35.80066" pt_clust_6="14000.00000"></scales>
<clustering>
<clus scale="   34.020">  2  3  1 -1</clus>
<clus scale="   35.801">  1  5  2 -1</clus>
<clus scale="  221.454">  1  4  2 -1</clus>
<clus scale="   35.801">  1  3  2 -1</clus>
</clustering>
</event>
<event>
 6    0  0.3643696E+002  0.8141833E+02  0.7546771E-02  0.1325074E+00
         21   -1    0    0  501  502  0.00000000000E+00  0.00000000000E+00  0.11354768733E+03  0.11354768733E+03  0.00000000000E+00 0. -1.
          2   -1    0    0  503    0 -0.00000000000E+00 -0.00000000000E+00 -0.32195388442E+04  0.32195388442E+04  0.00000000000E+00 0. -1.
         21    1    1    2  503  504 -0.17694752982E+02  0.75411104886E+02 -0.76657955007E+03  0.77048305991E+03  0.00000000000E+00 0. -1.
         21    1    1    2  504  505  0.34055377323E+02 -0.72561629011E+02 -0.31441378258E+03  0.32447031514E+03  0.00000000000E+00 0.  1.
         21    1    1    2  505  502 -0.83058645351E+02  0.78983537418E+01  0.89614834224E+02  0.12244158228E+03  0.00000000000E+00 0. -1.
          2    1    1    2  501    0  0.66698021011E+02 -0.10747829616E+02 -0.21146126585E+04  0.21156915742E+04  0.00000000000E+00 0. -1.
<scales pt_clust_3="73.75331" pt_clust_4="81.41833" pt_clust_5="14000.00000" pt_clust_6="67.55843"></scales>
<clustering>
<clus scale="   67.558">  2  6  1 -1</clus>
<clus scale="   73.753">  2  3  1 -1</clus>
<clus scale="   81.418">  2  4  1 -1</clus>
<clus scale="   81.418">  1  3  2 -1</clus>
</clustering>
</event>
<event>
 6    0  0.3643696E+002  0.1170173E+03  0.7546771E-02  0.1248100E+00
          2   -1    0    0  502    0 -0.00000000000E+00  0.00000000000E+00  0.19090579118E+04  0.19090579118E+04  0.00000000000E+00 0. -1.
         21   -1    0    0  503  502  0.00000000000E+00 -0.00000000000E+00 -0.16275464451E+02  0.16275464451E+02  0.00000000000E+00 0. -1.
         21    1    1    2  503  505  0.33948021477E+02 -0.37340292115E+02  0.60554701217E+02  0.78826628856E+02  0.00000000000E+00 0. -1.
         21    1    1    2  504  501 -0.79499480882E+02  0.35936752661E+02  0.95184174364E+03  0.95583174387E+03  0.00000000000E+00 0. -1.
         21    1    1    2  505  504  0.86431985374E+02  0.18655861507E+02  0.50587523989E+03  0.51354482530E+03  0.00000000000E+00 0. -1.
          2    1    1    2  501    0 -0.40880525969E+02 -0.17252322053E+02  0.37451076265E+03  0.37713017827E+03  0.00000000000E+00 0. -1.
<scales pt_clust_3="50.46549" pt_clust_4="37.30331" pt_clust_5="104.67563" pt_clust_6="37.30331"></scales>
<clustering>
<clus scale="   37.303">  4  6 -1 -1</clus>
<clus scale="   50.465">  2  3  1 -1</clus>
<clus scale="  104.676">  2  5  1 -1</clus>
<clus scale="   50.465">  2  3  1 -1</clus>
</clustering>
</event>
<event>
 6    0  0.3643696E+002  0.8181103E+02  0.7546771E-02  0.1323989E+00
          2   -1    0    0  504    0 -0.00000000000E+00  0.00000000000E+00  0.63306710619E+03  0.63306710619E+03  0.00000000000E+00 0.  1.
         21   -1    0    0  501  502  0.00000000000E+00 -0.00000000000E+00 -0.93691294247E+03  0.93691294247E+03  0.00000000000E+00 0.  1.
         21    1    1    2  503  505 -0.39510072586E+02  0.11129470122E+03  0.10787164500E+03  0.15994951751E+03  0.00000000000E+00 0. -1.
         21    1    1    2  504  503 -0.30869133635E+02  0.44202671759E+02  0.29893475754E+03  0.30375774701E+03  0.00000000000E+00 0. -1.
         21    1    1    2  505  502  0.18669801296E+02 -0.79149312960E+02 -0.89577336754E+03  0.89945711472E+03  0.00000000000E+00 0.  1.
          2    1    1    2  501    0  0.51709404925E+02 -0.76348060020E+02  0.18512112871E+03  0.20681566943E+03  0.00000000000E+00 0.  1.
<scales pt_clust_3="14000.00000" pt_clust_4="53.91456" pt_clust_5="81.81103" pt_clust_6="60.36536"></scales>
<clustering>
<clus scale="   53.915">  1  4  2 -1</clus>
<clus scale="   60.365">  1  6  2 -1</clus>
<clus scale="   81.811">  2  5  1 -1</clus>
<clus scale="   81.811">  2  3  1 -1</clus>
</clustering>
</event>
<event>
 6    0  0.3643696E+002  0.7459903E+02  0.7546771E-02  0.1345117E+00
         21   -1    0    0  504  502  0.00000000000E+00  0.00000000000E+00  0.52579026373E+02  0.52579026373E+02  0.00000000000E+00 0.  1.
          2   -1    0    0  503    0 -0.00000000000E+00 -0.00000000000E+00 -0.80197098074E+03  0.80197098074E+03  0.00000000000E+00 0. -1.
         21    1    1    2  503  505  0.15112438440E+02  0.44747410356E+02 -0.10937252348E+03  0.11913465248E+03  0.00000000000E+00 0.  1.
         21    1    1    2  504  501 -0.31053519422E+02 -0.79272131072E+02 -0.16013683679E+03  0.18136206420E+03  0.00000000000E+00 0. -1.
         21    1    1    2  505  502 -0.11629780260E+02  0.73428284599E+02 -0.25940201843E+01  0.74388800963E+02  0.00000000000E+00 0.  1.
          2    1    1    2  501    0  0.27570861242E+02 -0.38903563883E+02 -0.47728857391E+03  0.47966448947E+03  0.00000000000E+00 0. -1.
<scales pt_clust_3="47.23046" pt_clust_4="74.59903" pt_clust_5="14000.00000" pt_clust_6="38.86995"></scales>
<clustering>
<clus scale="   47.230">  2  3  1 -1</clus>
<clus scale="   38.870">  2  6  1 -1</clus>
<clus scale="   74.599">  2  4  1 -1</clus>
<clus scale="   74.599">  1  3  2 -1</clus>
</clustering>
</event>
<event>
 6    0  0.3643696E+002  0.1103946E+03  0.7546771E-02  0.1259841E+00
         21   -1    0    0  504  502  0.00000000000E+00  0.00000000000E+00  0.17271660845E+03  0.17271660845E+03  0.00000000000E+00 0. -1.
          2   -1    0    0  505    0 -0.00000000000E+00 -0.00000000000E+00 -0.18405441677E+04  0.18405441677E+04  0.00000000000E+00 0.  1.
         21    1    1    2  503  502  0.89491838080E+02  0.88206270352E+01 -0.10340636662E+03  0.13703820344E+03  0.00000000000E+00 0.  1.
         21    1    1    2  504  501  0.24663474547E+02 -0.35525053934E+02  0.14860359055E+03  0.15476867758E+03  0.00000000000E+00 0. -1.
         21    1    1    2  505  503 -0.15625815609E+01  0.39015560845E+02 -0.17685275224E+03  0.18111198642E+03  0.00000000000E+00 0.  1.
          2    1    1    2  501    0 -0.11259273107E+03 -0.12311133946E+02 -0.15361720310E+04  0.15403419087E+04  0.00000000000E+00 0.  1.
<scales pt_clust_3="110.39460" pt_clust_4="43.18606" pt_clust_5="39.04684" pt_clust_6="14000.00000"></scales>
<clustering>
<clus scale="   39.047">  2  5  1 -1</clus>
<clus scale="   43.186">  1  4  2 -1</clus>
<clus scale="  110.395">  1  3  2 -1</clus>
<clus scale="   43.186">  1  3  2 -1</clus>
</clustering>
</event>
<event>
 6    0  0.3643696E+002  0.1261444E+03  0.7546771E-02  0.1233292E+00
         -3   -1    0    0    0  501 -0.00000000000E+00  0.00000000000E+00  0.16171584183E+04  0.16171584183E+04  0.00000000000E+00 0.  1.
         21   -1    0    0  503  502  0.00000000000E+00 -0.00000000000E+00 -0.35632240487E+02  0.35632240487E+02  0.00000000000E+00 0.  1.
         21    1    1    2  503  501  0.62507121203E+01 -0.37286811313E+02  0.15154407579E+03  0.15618893881E+03  0.00000000000E+00 0.  1.
         21    1    1    2  504  502 -0.45751541369E+02 -0.39995854821E+02  0.33099258412E+02  0.69198503220E+02  0.00000000000E+00 0.  1.
         21    1    1    2  505  504 -0.85311284116E+02  0.90514100235E+02  0.32151662166E+03  0.34473722680E+03  0.00000000000E+00 0.  1.
         -3    1    1    2    0  505  0.12481211336E+03 -0.13231434101E+02  0.10753662219E+04  0.10826659899E+04  0.00000000000E+00 0.  1.
<scales pt_clust_3="37.80711" pt_clust_4="61.47262" pt_clust_5="126.14443" pt_clust_6="14000.00000"></scales>
<clustering>
<clus scale="   37.807">  1  3  2 -1</clus>
<clus scale="   61.473">  2  4  1 -1</clus>
<clus scale="  126.144">  2  5  1 -1</clus>
<clus scale="   61.473">  2  3  1 -1</clus>
</clustering>
</event>
<event>
 6    0  0.3643696E+002  0.8088196E+02  0.7546771E-02  0.1326567E+00
         21   -1    0    0  503  502  0.00000000000E+00  0.00000000000E+00  0.55692339128E+02  0.55692339128E+02  0.00000000000E+00 0.  1.
          4   -1    0    0  505    0 -0.00000000000E+00 -0.00000000000E+00 -0.62607344521E+03  0.62607344521E+03  0.00000000000E+00 0.  1.
         21    1    1    2  503  501  0.37987133937E+02 -0.69452322843E+02 -0.15723680063E+02  0.80708621645E+02  0.00000000000E+00 0.  1.
         21    1    1    2  504  502 -0.31790061657E+02 -0.57351606664E+02 -0.16887552458E+03  0.18115948114E+03  0.00000000000E+00 0.  1.
         21    1    1    2  505  504 -0.42413137141E+02  0.10147828629E+02 -0.97928684509E+02  0.10720018600E+03  0.00000000000E+00 0. -1.
          4    1    1    2  501    0  0.36216064861E+02  0.11665610088E+03 -0.28785321694E+03  0.31269749556E+03  0.00000000000E+00 0.  1.
<scales pt_clust_3="14000.00000" pt_clust_4="70.88559" pt_clust_5="43.61024" pt_clust_6="80.88196"></scales>
<clustering>
<clus scale="   43.610">  2  5  1 -1</clus>
<clus scale="   70.886">  2  4  1 -1</clus>
<clus scale="   80.882">  2  6  1 -1</clus>
<clus scale="   80.882">  1  3  2 -1</clus>
</clustering>
</event>
<event>
 6    0  0.3643696E+002  0.9370738E+02  0.7546771E-02  0.1294114E+00
         21   -1    0    0  505  502  0.00000000000E+00  0.00000000000E+00  0.56734903265E+03  0.56734903265E+03  0.00000000000E+00 0.  1.
          2   -1    0    0  504    0 -0.00000000000E+00 -0.00000000000E+00 -0.19813731142E+04  0.19813731142E+04  0.00000000000E+00 0.  1.
         21    1    1    2  503  501 -0.92338538551E+02  0.52955535935E-01 -0.23319379769E+03  0.25081019873E+03  0.00000000000E+00 0. -1.
         21    1    1    2  504  502  0.81999020384E+02 -0.51470432633E+02 -0.27448819427E+03  0.29106152885E+03  0.00000000000E+00 0.  1.
         21    1    1    2  505  503 -0.19822000704E+02 -0.41505768425E+02  0.54765085512E+03  0.54957902038E+03  0.00000000000E+00 0.  1.
          2    1    1    2  501    0  0.30161518870E+02  0.92923245522E+02 -0.14539929448E+04  0.14572713989E+04  0.00000000000E+00 0.  1.
<scales pt_clust_3="14000.00000" pt_clust_4="91.00911" pt_clust_5="45.99609" pt_clust_6="93.70738"></scales>
<clustering>
<clus scale="   45.996">  1  5  2 -1</clus>
<clus scale="   93.707">  2  6  1 -1</clus>
<clus scale="   91.009">  2  4  1 -1</clus>
<clus scale="   45.996">  1  3  2 -1</clus>
</clustering>
</event>
<event>
 6    0  0.3643696E+002  0.1101455E+03  0.7546771E-02  0.1260301E+00
         21   -1    0    0  504  502  0.00000000000E+00  0.00000000000E+00  0.86693206777E+02  0.86693206777E+02  0.00000000000E+00 0.  1.
          2   -1    0    0  503    0 -0.00000000000E+00 -0.00000000000E+00 -0.84143422184E+03  0.84143422184E+03  0.00000000000E+00 0.  1.
         21    1    1    2  503  502 -0.23768012332E+02 -0.18323191501E+02 -0.19160210979E+03  0.19393820210E+03  0.00000000000E+00 0.  1.
         21    1    1    2  504  505 -0.65159129620E+02  0.94633885666E+02  0.24063515669E+02  0.11738968130E+03  0.00000000000E+00 0.  1.
         21    1    1    2  505  501  0.21975097823E+02 -0.93359797068E+02 -0.18176365482E+03  0.20551638097E+03  0.00000000000E+00 0.  1.
          2    1    1    2  501    0  0.66952044129E+02  0.17049102904E+02 -0.40543876612E+03  0.41128316425E+03  0.00000000000E+00 0.  1.
<scales pt_clust_3="30.01096" pt_clust_4="110.14551" pt_clust_5="14000.00000" pt_clust_6="52.28067"></scales>
<clustering>
<clus scale="   30.011">  2  3  1 -1</clus>
<clus scale="   52.281">  2  6  1 -1</clus>
<clus scale="  110.146">  1  4  2 -1</clus>
<clus scale="  110.146">  1  3  2 -1</clus>
</clustering>
</event>
<event>
 6    0  0.3643696E+002  0.2674068E+03  0.7546771E-02  0.1102773E+00
         21   -1    0    0  501  502  0.00000000000E+00  0.00000000000E+00  0.25262679693E+03  0.25262679693E+03  0.00000000000E+00 0. -1.
          2   -1    0    0  503    0 -0.00000000000E+00 -0.00000000000E+00 -0.16594165397E+04  0.16594165397E+04  0.00000000000E+00 0. -1.
         21    1    1    2  503  504 -0.17351219395E+02  0.67450624809E+02 -0.44070296489E+03  0.44617233763E+03  0.00000000000E+00 0. -1.
         21    1    1    2  504  505 -0.15534717539E+03  0.27665105542E+02 -0.46640231235E+03  0.49237101857E+03  0.00000000000E+00 0. -1.
         21    1    1    2  505  502  0.27922429640E+02 -0.27910338381E+03  0.12447613281E+03  0.30687565652E+03  0.00000000000E+00 0. -1.
          2    1    1    2  501    0  0.14477596515E+03  0.18398765345E+03 -0.62416059833E+03  0.66662432390E+03  0.00000000000E+00 0. -1.
<scales pt_clust_3="69.64662" pt_clust_4="171.02237" pt_clust_5="267.40680" pt_clust_6="14000.00000"></scales>
<clustering>
<clus scale="   69.647">  2  3  1 -1</clus>
<clus scale="  171.022">  2  4  1 -1</clus>
<clus scale="  267.407">  1  5  2 -1</clus>
<clus scale="  267.407">  1  3  2 -1</clus>
</clustering>
</event>
<event>
 6    0  0.3643696E+002  0.8022809E+02  0.7546771E-02  0.1328405E+00
         21   -1    0    0  501  502  0.00000000000E+00  0.00000000000E+00  0.21246491514E+03  0.21246491514E+03  0.00000000000E+00 0. -1.
          3   -1    0    0  505    0 -0.00000000000E+00 -0.00000000000E+00 -0.17801595352E+03  0.17801595352E+03  0.00000000000E+00 0. -1.
         21    1    1    2  503  504  0.66672822704E+02  0.15512493908E+02 -0.10541484260E+03  0.12569085804E+03  0.00000000000E+00 0. -1.
         21    1    1    2  504  502  0.58111864806E+02  0.27507357613E+02  0.44273751957E+02  0.78062850745E+02  0.00000000000E+00 0. -1.
         21    1    1    2  505  503 -0.36704442299E+02 -0.67686176025E+00 -0.14541490778E+02  0.39485809861E+02  0.00000000000E+00 0.  1.
          3    1    1    2  501    0 -0.88080245211E+02 -0.42342989761E+02  0.11013154305E+03  0.14724135001E+03  0.00000000000E+00 0. -1.
<scales pt_clust_3="41.39626" pt_clust_4="80.22809" pt_clust_5="36.71068" pt_clust_6="14000.00000"></scales>
<clustering>
<clus scale="   36.711">  2  5  1 -1</clus>
<clus scale="   41.396">  2  3  1 -1</clus>
<clus scale="   80.228">  1  4  2 -1</clus>
<clus scale="   80.228">  1  3  2 -1</clus>
</clustering>
</event>
<event>
 6    0  0.3643696E+002  0.1652613E+03  0.7546771E-02  0.1182882E+00
         21   -1    0    0  504  502  0.00000000000E+00  0.00000000000E+00  0.14037775421E+04  0.14037775421E+04  0.00000000000E+00 0. -1.
          3   -1    0    0  505    0 -0.00000000000E+00 -0.00000000000E+00 -0.36874672301E+02  0.36874672301E+02  0.00000000000E+00 0. -1.
         21    1    1    2  503  502 -0.21045214360E+02 -0.16554867069E+03  0.96340779921E+03  0.97775449423E+03  0.00000000000E+00 0. -1.
         21    1    1    2  504  501  0.43365976030E+02  0.39392519407E+02  0.13222977608E+03  0.14462742528E+03  0.00000000000E+00 0. -1.
         21    1    1    2  505  503 -0.59240273176E+02  0.39795346800E+02  0.13611938171E+03  0.15369308921E+03  0.00000000000E+00 0. -1.
          3    1    1    2  501    0  0.36919511506E+02  0.86360804481E+02  0.13514591277E+03  0.16457720565E+03  0.00000000000E+00 0. -1.
<scales pt_clust_3="159.54060" pt_clust_4="34.04469" pt_clust_5="71.36582" pt_clust_6="34.04469"></scales>
<clustering>
<clus scale="   34.045">  4  6 -1 -1</clus>
<clus scale="   71.366">  2  5  1 -1</clus>
<clus scale="  159.541">  1  3  2 -1</clus>
<clus scale="  159.541">  1  3  2 -1</clus>
</clustering>
</event>
<event>
 6    0  0.3643696E+002  0.9227899E+02  0.7546771E-02  0.1297425E+00
         21   -1    0    0  503  502  0.00000000000E+00  0.00000000000E+00  0.18631031668E+03  0.18631031668E+03  0.00000000000E+00 0.  1.
          1   -1    0    0  505    0 -0.00000000000E+00 -0.00000000000E+00 -0.18891953150E+04  0.18891953150E+04  0.00000000000E+00 0. -1.
         21    1    1    2  503  501  0.54938473088E+02 -0.76076445960E+02 -0.12154118173E+03  0.15355168613E+03  0.00000000000E+00 0.  1.
         21    1    1    2  504  502  0.36753090652E+02  0.20716782430E+02  0.16257340740E+03  0.16795858877E+03  0.00000000000E+00 0.  1.
         21    1    1    2  505  504 -0.84953523594E+02  0.10553518140E+02 -0.38845423861E+03  0.39777528004E+03  0.00000000000E+00 0. -1.
          1    1    1    2  501    0 -0.67380401459E+01  0.44806145389E+02 -0.13554629854E+04  0.13562200767E+04  0.00000000000E+00 0. -1.
<scales pt_clust_3="14000.00000" pt_clust_4="42.18975" pt_clust_5="92.27899" pt_clust_6="45.58567"></scales>
<clustering>
<clus scale="   42.190">  1  4  2 -1</clus>
<clus scale="   45.586">  2  6  1 -1</clus>
<clus scale="   92.279">  2  5  1 -1</clus>
<clus scale="   42.190">  1  3  2 -1</clus>
</clustering>
</event>
<event>
 6    0  0.3643696E+002  0.1074812E+03  0.7546771E-02  0.1265307E+00
         -2   -1    0    0    0  501 -0.00000000000E+00  0.00000000000E+00  0.95062526164E+02  0.95062526164E+02  0.00000000000E+00 0.  1.
         21   -1    0    0  504  502  0.00000000000E+00 -0.00000000000E+00 -0.73322201163E+03  0.73322201163E+03  0.00000000000E+00 0.  1.
         21    1    1    2  503  501 -0.19439951822E+02 -0.35907325400E+02  0.14663026549E+02  0.43384929316E+02  0.00000000000E+00 0.  1.
         21    1    1    2  504  505  0.67558318264E+02  0.92677980868E+02 -0.60489925774E+03  0.61567560169E+03  0.00000000000E+00 0.  1.
         21    1    1    2  505  503  0.30812621447E+02 -0.59385737010E+02 -0.59341274802E+02  0.89428576506E+02  0.00000000000E+00 0.  1.
         -2    1    1    2    0  502 -0.78930987889E+02  0.26150815418E+01  0.11418020530E+02  0.79795430279E+02  0.00000000000E+00 0.  1.
<scales pt_clust_3="40.83195" pt_clust_4="14000.00000" pt_clust_5="72.53425" pt_clust_6="107.48124"></scales>
<clustering>
<clus scale="   40.832">  1  3  2 -1</clus>
<clus scale="   72.534">  1  5  2 -1</clus>
<clus scale="  107.481">  1  6  2 -1</clus>
<clus scale="  107.481">  2  3  1 -1</clus>
</clustering>
</event>
<event>
 6    0  0.3643696E+002  0.6380457E+02  0.7546771E-02  0.1382525E+00
          2   -1    0    0  504    0 -0.00000000000E+00  0.00000000000E+00  0.31244915747E+03  0.31244915747E+03  0.00000000000E+00 0. -1.
         21   -1    0    0  503  502  0.00000000000E+00 -0.00000000000E+00 -0.10489448060E+03  0.10489448060E+03  0.00000000000E+00 0. -1.
         21    1    1    2  503  501  0.51281875010E+02  0.14069084405E+01 -0.43089791634E+02  0.66996568860E+02  0.00000000000E+00 0. -1.
         21    1    1    2  504  505 -0.29876001047E+02  0.12136169470E+02  0.10516593762E+03  0.10999880219E+03  0.00000000000E+00 0. -1.
         21    1    1    2  505  502  0.74485114446E+02 -0.10841784902E+02  0.11904333455E+03  0.14084350207E+03  0.00000000000E+00 0. -1.
          2    1    1    2  501    0 -0.95890988409E+02 -0.27012930090E+01  0.26435196332E+02  0.99504764947E+02  0.00000000000E+00 0. -1.
<scales pt_clust_3="49.58383" pt_clust_4="32.24689" pt_clust_5="63.80457" pt_clust_6="14000.00000"></scales>
<clustering>
<clus scale="   32.247">  1  4  2 -1</clus>
<clus scale="   49.584">  2  3  1 -1</clus>
<clus scale="   63.805">  1  5  2 -1</clus>
<clus scale="   49.584">  2  3  1 -1</clus>
</clustering>
</event>
<event>
 6    0  0.3643696E+002  0.1317774E+03  0.7546771E-02  0.1224842E+00
         -1   -1    0    0    0  501 -0.00000000000E+00  0.00000000000E+00  0.16692845766E+03  0.16692845766E+03  0.00000000000E+00 0. -1.
         21   -1    0    0  501  502  0.00000000000E+00 -0.00000000000E+00 -0.71822389407E+03  0.71822389407E+03  0.00000000000E+00 0. -1.
         21    1    1    2  503  502  0.15841172541E+02  0.51207507249E+02 -0.57304011547E+03  0.57554159318E+03  0.00000000000E+00 0. -1.
         21    1    1    2  504  503  0.24577085101E+02  0.47818158628E+02 -0.59327988355E+02  0.80065096071E+02  0.00000000000E+00 0.  1.
         21    1    1    2  505  504  0.43194308934E+02  0.54189365986E+01 -0.32278272290E+02  0.54194096174E+02  0.00000000000E+00 0. -1.
         -1    1    1    2    0  505 -0.83612566576E+02 -0.10444460248E+03  0.11335093970E+03  0.17535156631E+03  0.00000000000E+00 0. -1.
<scales pt_clust_3="53.60179" pt_clust_4="42.26983" pt_clust_5="42.26983" pt_clust_6="123.12031"></scales>
<clustering>
<clus scale="   42.270">  4  5 -1 -1</clus>
<clus scale="   53.602">  2  3  1 -1</clus>
<clus scale="  123.120">  1  6  2 -1</clus>
<clus scale="   53.602">  2  3  1 -1</clus>
</clustering>
</event>
<event>
 6    0  0.3643696E+002  0.1723460E+03  0.7546771E-02  0.1175423E+00
          4   -1    0    0  505    0 -0.00000000000E+00  0.00000000000E+00  0.34698053908E+03  0.34698053908E+03  0.00000000000E+00 0. -1.
         21   -1    0    0  504  502  0.00000000000E+00 -0.00000000000E+00 -0.21378512866E+04  0.21378512866E+04  0.00000000000E+00 0.  1.
         21    1    1    2  503  502  0.10827586669E+03  0.82606699000E+02 -0.14762789008E+03  0.20085199515E+03  0.00000000000E+00 0. -1.
         21    1    1    2  504  501  0.38150933575E+02  0.25577806238E+02 -0.19317832784E+04  0.19323292557E+04  0.00000000000E+00 0.  1.
         21    1    1    2  505  503 -0.30728076964E+02  0.65646601731E+01  0.19112618112E+02  0.36777733049E+02  0.00000000000E+00 0. -1.
          4    1    1    2  501    0 -0.11569872331E+03 -0.11474916541E+03  0.26942780282E+03  0.31487284175E+03  0.00000000000E+00 0. -1.
<scales pt_clust_3="14000.00000" pt_clust_4="45.91296" pt_clust_5="31.42148" pt_clust_6="172.34604"></scales>
<clustering>
<clus scale="   31.421">  1  5  2 -1</clus>
<clus scale="   45.913">  2  4  1 -1</clus>
<clus scale="  172.346">  1  6  2 -1</clus>
<clus scale="   45.913">  2  3  1 -1</clus>
</clustering>
</event>
<event>
 6    0  0.3643696E+002  0.1161265E+03  0.7546771E-02  0.1249627E+00
          1   -1    0    0  503    0 -0.00000000000E+00  0.00000000000E+00  0.52208829089E+03  0.52208829089E+03  0.00000000000E+00 0. -1.
         21   -1    0    0  504  502  0.00000000000E+00 -0.00000000000E+00 -0.15919849449E+03  0.15919849449E+03  0.00000000000E+00 0. -1.
         21    1    1    2  503  505 -0.60931179940E+02 -0.74845766174E+02  0.24482641568E+03  0.26316244264E+03  0.00000000000E+00 0. -1.
         21    1    1    2  504  501  0.23440013608E+02  0.42411991082E+02  0.52480948255E+02  0.71431513740E+02  0.00000000000E+00 0. -1.
         21    1    1    2  505  502 -0.75434354773E+01 -0.29682957660E+02 -0.13159617291E+03  0.13511304200E+03  0.00000000000E+00 0. -1.
          1    1    1    2  501    0  0.45034601810E+02  0.62116732751E+02  0.19717860538E+03  0.21157978700E+03  0.00000000000E+00 0. -1.
<scales pt_clust_3="106.46539" pt_clust_4="34.31227" pt_clust_5="30.62648" pt_clust_6="34.31227"></scales>
<clustering>
<clus scale="   30.626">  2  5  1 -1</clus>
<clus scale="   34.312">  4  6 -1 -1</clus>
<clus scale="  106.465">  1  3  2 -1</clus>
<clus scale="   30.626">  2  3  1 -1</clus>
</clustering>
</event>
<event>
 6    0  0.3643696E+002  0.1941756E+03  0.7546771E-02  0.1154748E+00
         21   -1    0    0  503  502  0.00000000000E+00  0.00000000000E+00  0.16546662702E+03  0.16546662702E+03  0.00000000000E+00 0. -1.
          2   -1    0    0  504    0 -0.00000000000E+00 -0.00000000000E+00 -0.18026211540E+04  0.18026211540E+04  0.00000000000E+00 0. -1.
         21    1    1    2  503  505 -0.73121059518E+02  0.11554213965E+03 -0.15201544438E+03  0.20446361708E+03  0.00000000000E+00 0. -1.
         21    1    1    2  504  502 -0.10003856496E+03 -0.11162513995E+02  0.11326373087E+03  0.15152883860E+03  0.00000000000E+00 0. -1.
         21    1    1    2  505  501  0.66794291111E+02 -0.27056966180E+02 -0.39415611835E+03  0.40069015758E+03  0.00000000000E+00 0.  1.
          2    1    1    2  501    0  0.10636533337E+03 -0.77322659472E+02 -0.12042466951E+04  0.12114051678E+04  0.00000000000E+00 0. -1.
<scales pt_clust_3="186.07451" pt_clust_4="100.65941" pt_clust_5="41.08731" pt_clust_6="41.08731"></scales>
<clustering>
<clus scale="   41.087">  5  6 -1 -1</clus>
<clus scale="  100.659">  1  4  2 -1</clus>
<clus scale="  186.075">  1  3  2 -1</clus>
<clus scale="  100.659">  1  3  2 -1</clus>
</clustering>
</event>
<event>
 6    0  0.3643696E+002  0.1225451E+03  0.7546771E-02  0.1238957E+00
         21   -1    0    0  504  502  0.00000000000E+00  0.00000000000E+00  0.95203835029E+03  0.95203835029E+03  0.00000000000E+00 0. -1.
          1   -1    0    0  503    0 -0.00000000000E+00 -0.00000000000E+00 -0.67657452183E+02  0.67657452183E+02  0.00000000000E+00 0. -1.
         21    1    1    2  503  505  0.48569415253E+02 -0.44002093938E+02  0.28915320847E+03  0.29648735275E+03  0.00000000000E+00 0. -1.
         21    1    1    2  504  501 -0.22644239770E+02 -0.32184674573E+02  0.19695145717E+03  0.20084444567E+03  0.00000000000E+00 0. -1.
         21    1    1    2  505  502  0.44855149819E+02 -0.14933140995E+02  0.40408130912E+03  0.40683742152E+03  0.00000000000E+00 0. -1.
          1    1    1    2  501    0 -0.70780325302E+02  0.91119909507E+02 -0.58050766635E+01  0.11552658254E+03  0.00000000000E+00 0. -1.
<scales pt_clust_3="36.92490" pt_clust_4="39.35244" pt_clust_5="36.92490" pt_clust_6="114.57383"></scales>
<clustering>
<clus scale="   36.925">  3  5 -1 -1</clus>
<clus scale="   39.352">  1  4  2 -1</clus>
<clus scale="  114.574">  2  6  1 -1</clus>
<clus scale="   39.352">  1  3  2 -1</clus>
</clustering>
</event>
<event>
 6    0  0.3643696E+002  0.2083036E+03  0.7546771E-02  0.1142916E+00
         21   -1    0    0  503  502  0.00000000000E+00  0.00000000000E+00  0.95541814699E+02  0.95541814699E+02  0.00000000000E+00 0.  1.
          1   -1    0    0  504    0 -0.00000000000E+00 -0.00000000000E+00 -0.36085237371E+04  0.36085237371E+04  0.00000000000E+00 0.  1.
         21    1    1    2  503  501  0.16032278494E+03  0.13814600815E+03 -0.40291537239E+02  0.21543240915E+03  0.00000000000E+00 0.  1.
         21    1    1    2  504  505 -0.32351401636E+02 -0.60533971734E+00 -0.51514999978E+03  0.51616518857E+03  0.00000000000E+00 0.  1.
         21    1    1    2  505  502 -0.88373741038E+02  0.37685704582E+02 -0.55783204213E+03  0.56604480182E+03  0.00000000000E+00 0.  1.
          1    1    1    2  501    0 -0.39597642262E+02 -0.17522637301E+03 -0.23997083432E+04  0.24064231522E+04  0.00000000000E+00 0.  1.
<scales pt_clust_3="208.30357" pt_clust_4="32.35706" pt_clust_5="101.46577" pt_clust_6="14000.00000"></scales>
<clustering>
<clus scale="   32.357">  2  4  1 -1</clus>
<clus scale="  101.466">  2  5  1 -1</clus>
<clus scale="  208.304">  1  3  2 -1</clus>
<clus scale="  208.304">  1  3  2 -1</clus>
</clustering>
</event>
<event>
 6    0  0.3643696E+002  0.7433370E+02  0.7546771E-02  0.1345947E+00
         21   -1    0    0  504  502  0.00000000000E+00  0.00000000000E+00  0.73518239491E+02  0.73518239491E+02  0.00000000000E+00 0.  1.
          2   -1    0    0  503    0 -0.00000000000E+00 -0.00000000000E+00 -0.27753443403E+04  0.27753443403E+04  0.00000000000E+00 0. -1.
         21    1    1    2  503  502  0.48934776764E+02  0.18816216839E+02  0.55791521133E+02  0.76559494665E+02  0.00000000000E+00 0.  1.
         21    1    1    2  504  505  0.13842415190E+02 -0.28940410489E+02 -0.82393402959E+02  0.88418508633E+02  0.00000000000E+00 0.  1.
         21    1    1    2  505  501 -0.69652312361E+02 -0.63903671070E+02 -0.60624251603E+03  0.61356752851E+03  0.00000000000E+00 0. -1.
          2    1    1    2  501    0  0.68751204077E+01  0.74027864720E+02 -0.20689817030E+04  0.20703170480E+04  0.00000000000E+00 0. -1.
<scales pt_clust_3="62.48702" pt_clust_4="32.08052" pt_clust_5="74.33370" pt_clust_6="14000.00000"></scales>
<clustering>
<clus scale="   32.081">  1  4  2 -1</clus>
<clus scale="   62.487">  1  3  2 -1</clus>
<clus scale="   74.334">  1  5  2 -1</clus>
<clus scale="   32.081">  1  3  2 -1</clus>
</clustering>
</event>
<event>
 6    0  0.3643696E+002  0.1880576E+03  0.7546771E-02  0.1160225E+00
          2   -1    0    0  504    0 -0.00000000000E+00  0.00000000000E+00  0.10821438192E+04  0.10821438192E+04  0.00000000000E+00 0. -1.
         21   -1    0    0  505  502  0.00000000000E+00 -0.00000000000E+00 -0.19288700288E+04  0.19288700288E+04  0.00000000000E+00 0.  1.
         21    1    1    2  503  501  0.32941508977E+02 -0.12834524364E+03 -0.99844530329E+00  0.13250902411E+03  0.00000000000E+00 0.  1.
         21    1    1    2  504  502 -0.86113462533E+02 -0.46780609861E+01  0.81893492326E+02  0.11892836823E+03  0.00000000000E+00 0. -1.
         21    1    1    2  505  503 -0.57046229979E+00  0.19260660247E+03 -0.18367964644E+04  0.18468673153E+04  0.00000000000E+00 0.  1.
          2    1    1    2  501    0  0.53742415856E+02 -0.59583297844E+02  0.90917520776E+03  0.91270914044E+03  0.00000000000E+00 0. -1.
<scales pt_clust_3="188.05757" pt_clust_4="67.45725" pt_clust_5="14000.00000" pt_clust_6="80.23974"></scales>
<clustering>
<clus scale="   80.240">  1  6  2 -1</clus>
<clus scale="   67.457">  1  4  2 -1</clus>
<clus scale="  188.058">  1  3  2 -1</clus>
<clus scale="  188.058">  2  3  1 -1</clus>
</clustering>
</event>
<event>
 6    0  0.3643696E+002  0.8548782E+02  0.7546771E-02  0.1314162E+00
         21   -1    0    0  505  502  0.00000000000E+00  0.00000000000E+00  0.59206225873E+02  0.59206225873E+02  0.00000000000E+00 0. -1.
          2   -1    0    0  504    0 -0.00000000000E+00 -0.00000000000E+00 -0.13752880607E+04  0.13752880607E+04  0.00000000000E+00 0.  1.
         21    1    1    2  503  501  0.99204960091E+02  0.15099282964E+02 -0.24745868944E+03  0.26703073874E+03  0.00000000000E+00 0. -1.
         21    1    1    2  504  502 -0.85718220829E+02  0.16998486650E+02 -0.36827034173E+03  0.37849650795E+03  0.00000000000E+00 0. -1.
         21    1    1    2  505  503 -0.29258517390E+02  0.91302246956E+01  0.38267555772E+02  0.49028845261E+02  0.00000000000E+00 0. -1.
          2    1    1    2  501    0  0.15771778128E+02 -0.41227994309E+02 -0.73862035939E+03  0.73993819458E+03  0.00000000000E+00 0.  1.
<scales pt_clust_3="85.48782" pt_clust_4="14000.00000" pt_clust_5="30.64999" pt_clust_6="43.34985"></scales>
<clustering>
<clus scale="   30.650">  1  5  2 -1</clus>
<clus scale="   43.350">  2  6  1 -1</clus>
<clus scale="   85.488">  1  3  2 -1</clus>
<clus scale="   30.650">  1  3  2 -1</clus>
</clustering>
</event>
<event>
 6    0  0.3643696E+002  0.7200293E+02  0.7546771E-02  0.1353411E+00
          1   -1    0    0  505    0 -0.00000000000E+00  0.00000000000E+00  0.11509779243E+04  0.11509779243E+04  0.00000000000E+00 0. -1.
         21   -1    0    0  501  502  0.00000000000E+00 -0.00000000000E+00 -0.35127611940E+03  0.35127611940E+03  0.00000000000E+00 0. -1.
         21    1    1    2  503  504 -0.29349592008E+02 -0.36698149904E+02  0.34306972499E+02  0.58181793711E+02  0.00000000000E+00 0.  1.
         21    1    1    2  504  502 -0.59680750801E+01 -0.71755105996E+02 -0.32648991392E+03  0.33433527640E+03  0.00000000000E+00 0. -1.
         21    1    1    2  505  503 -0.21173855785E+02  0.40953060264E+02  0.68473876827E+02  0.82547908038E+02  0.00000000000E+00 0. -1.
          1    1    1    2  501    0  0.56491522873E+02  0.67500195636E+02  0.10234108695E+04  0.10271890655E+04  0.00000000000E+00 0. -1.
<scales pt_clust_3="46.21989" pt_clust_4="14000.00000" pt_clust_5="46.10299" pt_clust_6="72.00293"></scales>
<clustering>
<clus scale="   46.103">  1  5  2 -1</clus>
<clus scale="   46.220">  1  3  2 -1</clus>
<clus scale="   72.003">  1  6  2 -1</clus>
<clus scale="   72.003">  2  3  1 -1</clus>
</clustering>
</event>
<event>
 6    0  0.3643696E+002  0.8757408E+02  0.7546771E-02  0.1308835E+00
         -3   -1    0    0    0  501 -0.00000000000E+00  0.00000000000E+00  0.19995326433E+03  0.19995326433E+03  0.00000000000E+00 0. -1.
         21   -1    0    0  505  502  0.00000000000E+00 -0.00000000000E+00 -0.26960385601E+03  0.26960385601E+03  0.00000000000E+00 0. -1.
         21    1    1    2  503  501 -0.45819470127E+02  0.45265268171E+02 -0.41751396217E+01  0.64543009972E+02  0.00000000000E+00 0.  1.
         21    1    1    2  504  502  0.83319912354E+02 -0.97655484422E+01  0.33065228122E+02  0.90171409227E+02  0.00000000000E+00 0. -1.
         21    1    1    2  505  503 -0.83624654578E+02  0.28869381038E+02 -0.18041511758E+03  0.20093814637E+03  0.00000000000E+00 0. -1.
         -3    1    1    2    0  504  0.46124212350E+02 -0.64369100767E+02  0.81874437399E+02  0.11390455477E+03  0.00000000000E+00 0. -1.
<scales pt_clust_3="64.40783" pt_clust_4="14000.00000" pt_clust_5="87.57408" pt_clust_6="43.04402"></scales>
<clustering>
<clus scale="   64.408">  1  3  2 -1</clus>
<clus scale="   43.044">  1  6  2 -1</clus>
<clus scale="   87.574">  2  5  1 -1</clus>
<clus scale="   87.574">  2  3  1 -1</clus>
</clustering>
</event>
<event>
 6    0  0.3643696E+002  0.8163911E+02  0.7546771E-02  0.1324463E+00
         21   -1    0    0  501  502  0.00000000000E+00  0.00000000000E+00  0.97205762048E+03  0.97205762048E+03  0.00000000000E+00 0. -1.
          2   -1    0    0  503    0 -0.00000000000E+00 -0.00000000000E+00 -0.31686917068E+03  0.31686917068E+03  0.00000000000E+00 0.  1.
         21    1    1    2  503  505  0.46446436427E+02  0.30512356006E+02 -0.86632353955E+02  0.10292443868E+03  0.00000000000E+00 0.  1.
         21    1    1    2  504  502 -0.12239331255E+02 -0.31827347586E+02  0.93138126870E+03  0.93200528377E+03  0.00000000000E+00 0. -1.
         21    1    1    2  505  504 -0.28942126205E+02 -0.80329985112E+02 -0.77972800501E+02  0.11563006009E+03  0.00000000000E+00 0.  1.
          2    1    1    2  501    0 -0.52649789664E+01  0.81644976693E+02 -0.11158766444E+03  0.13836700863E+03  0.00000000000E+00 0.  1.
<scales pt_clust_3="50.14191" pt_clust_4="34.09958" pt_clust_5="14000.00000" pt_clust_6="81.63911"></scales>
<clustering>
<clus scale="   34.100">  1  4  2 -1</clus>
<clus scale="   50.142">  2  3  1 -1</clus>
<clus scale="   81.639">  1  6  2 -1</clus>
<clus scale="   34.100">  1  3  2 -1</clus>
</clustering>
</event>
<event>
 6    0  0.3643696E+002  0.8961266E+02  0.7546771E-02  0.1303792E+00
          3   -1    0    0  504    0 -0.00000000000E+00  0.00000000000E+00  0.53840091427E+03  0.53840091427E+03  0.00000000000E+00 0. -1.
         21   -1    0    0  503  502  0.00000000000E+00 -0.00000000000E+00 -0.56480862408E+03  0.56480862408E+03  0.00000000000E+00 0.  1.
         21    1    1    2  503  505  0.62266301538E+02 -0.19716997195E+02 -0.63916154283E+02  0.91384501224E+02  0.00000000000E+00 0.  1.
         21    1    1    2  504  502  0.24115134394E+01  0.88907252454E+02 -0.47431945877E+03  0.48258601710E+03  0.00000000000E+00 0.  1.
         21    1    1    2  505  501 -0.58034386912E+02 -0.26657157648E+02  0.12843551986E+03  0.14343736222E+03  0.00000000000E+00 0.  1.
          3    1    1    2  501    0 -0.66434280648E+01 -0.42533097611E+02  0.38339238338E+03  0.38580165780E+03  0.00000000000E+00 0. -1.
<scales pt_clust_3="66.00398" pt_clust_4="89.61266" pt_clust_5="14000.00000" pt_clust_6="43.04880"></scales>
<clustering>
<clus scale="   43.049">  1  6  2 -1</clus>
<clus scale="   66.004">  2  3  1 -1</clus>
<clus scale="   89.613">  2  4  1 -1</clus>
<clus scale="   66.004">  2  3  1 -1</clus>
</clustering>
</event>
<event>
 6    0  0.3643696E+002  0.9308207E+02  0.7546771E-02  0.1295555E+00
         21   -1    0    0  505  502  0.00000000000E+00  0.00000000000E+00  0.35122590990E+03  0.35122590990E+03  0.00000000000E+00 0.  1.
          2   -1    0    0  504    0 -0.00000000000E+00 -0.00000000000E+00 -0.25227022703E+04  0.25227022703E+04  0.00000000000E+00 0.  1.
         21    1    1    2  503  502 -0.53189478738E+02  0.50995883753E+01  0.33846223136E+03  0.34265406536E+03  0.00000000000E+00 0.  1.
         21    1    1    2  504  503 -0.50154330612E+01  0.43295027057E+02 -0.13819625223E+03  0.14490623888E+03  0.00000000000E+00 0. -1.
         21    1    1    2  505  501  0.71231540432E+02 -0.98462121933E+02 -0.52424737183E+03  0.53814870499E+03  0.00000000000E+00 0.  1.
          2    1    1    2  501    0 -0.13026628633E+02  0.50067506500E+02 -0.18474949677E+04  0.18482191710E+04  0.00000000000E+00 0.  1.
<scales pt_clust_3="53.44143" pt_clust_4="43.58456" pt_clust_5="93.08207" pt_clust_6="14000.00000"></scales>
<clustering>
<clus scale="   43.585">  2  4  1 -1</clus>
<clus scale="   53.441">  1  3  2 -1</clus>
<clus scale="   93.082">  1  5  2 -1</clus>
<clus scale="   53.441">  1  3  2 -1</clus>
</clustering>
</event>
<event>
 6    0  0.3643696E+002  0.9116631E+02  0.7546771E-02  0.1300052E+00
         21   -1    0    0  501  502  0.00000000000E+00  0.00000000000E+00  0.73585199730E+02  0.73585199730E+02  0.00000000000E+00 0.  1.
          2   -1    0    0  505    0 -0.00000000000E+00 -0.00000000000E+00 -0.19794761332E+04  0.19794761332E+04  0.00000000000E+00 0. -1.
         21    1    1    2  503  502  0.72357630301E+02 -0.55372826845E+02  0.38426932823E+02  0.98885821946E+02  0.00000000000E+00 0.  1.
         21    1    1    2  504  503  0.49449313266E+02  0.16655698757E+02 -0.54018346562E+03  0.54269772748E+03  0.00000000000E+00 0. -1.
         21    1    1    2  505  504 -0.30752471867E+02  0.42290786665E+01 -0.13108540916E+03  0.13471074243E+03  0.00000000000E+00 0.  1.
          2    1    1    2  501    0 -0.91054471700E+02  0.34488049421E+02 -0.12730489915E+04  0.12767670411E+04  0.00000000000E+00 0. -1.
<scales pt_clust_3="91.16631" pt_clust_4="44.21569" pt_clust_5="31.04190" pt_clust_6="14000.00000"></scales>
<clustering>
<clus scale="   31.042">  2  5  1 -1</clus>
<clus scale="   44.216">  2  4  1 -1</clus>
<clus scale="   91.166">  1  3  2 -1</clus>
<clus scale="   91.166">  1  3  2 -1</clus>
</clustering>
</event>
<event>
 6    0  0.3643696E+002  0.8527618E+02  0.7546771E-02  0.1314712E+00
          2   -1    0    0  504    0 -0.00000000000E+00  0.00000000000E+00  0.16007066595E+04  0.16007066595E+04  0.00000000000E+00 0.  1.
         21   -1    0    0  501  502  0.00000000000E+00 -0.00000000000E+00 -0.14589437785E+03  0.14589437785E+03  0.00000000000E+00 0. -1.
         21    1    1    2  503  502  0.60898734760E+02  0.60003765187E+02 -0.11758540556E+03  0.14538031274E+03  0.00000000000E+00 0. -1.
         21    1    1    2  504  505 -0.12914296613E+01 -0.37509287827E+02  0.10592179123E+04  0.10598826351E+04  0.00000000000E+00 0.  1.
         21    1    1    2  505  503  0.44584168252E+02 -0.18099582473E+02  0.63203374159E+02  0.79435567912E+02  0.00000000000E+00 0.  1.
          2    1    1    2  501    0 -0.10419147335E+03 -0.43948948867E+01  0.44997640072E+03  0.46190252156E+03  0.00000000000E+00 0.  1.
<scales pt_clust_3="14000.00000" pt_clust_4="37.53151" pt_clust_5="50.03578" pt_clust_6="85.27618"></scales>
<clustering>
<clus scale="   37.532">  1  4  2 -1</clus>
<clus scale="   50.036">  1  5  2 -1</clus>
<clus scale="   85.276">  1  6  2 -1</clus>
<clus scale="   85.276">  2  3  1 -1</clus>
</clustering>
</event>
<event>
 6    0  0.3643696E+002  0.1433676E+03  0.7546771E-02  0.1208868E+00
          2   -1    0    0  503    0 -0.00000000000E+00  0.00000000000E+00  0.52213546185E+03  0.52213546185E+03  0.00000000000E+00 0.  1.
         21   -1    0    0  505  502  0.00000000000E+00 -0.00000000000E+00 -0.11338374471E+04  0.11338374471E+04  0.00000000000E+00 0. -1.
         21    1    1    2  503  504 -0.47648241498E+02  0.37307337236E+01  0.14582121702E+03  0.15345390391E+03  0.00000000000E+00 0.  1.
         21    1    1    2  504  502 -0.62382082404E+02  0.81250368902E+02  0.28134343616E+03  0.29941154908E+03  0.00000000000E+00 0.  1.
         21    1    1    2  505  501  0.17146985334E+02 -0.26257558272E+02 -0.10838960606E+04  0.10843496432E+04  0.00000000000E+00 0. -1.
          2    1    1    2  501    0  0.92883338567E+02 -0.58723544354E+02  0.45029422142E+02  0.11875781281E+03  0.00000000000E+00 0.  1.
<scales pt_clust_3="39.69956" pt_clust_4="39.69956" pt_clust_5="31.36046" pt_clust_6="131.39732"></scales>
<clustering>
<clus scale="   31.360">  2  5  1 -1</clus>
<clus scale="   39.700">  3  4 -1 -1</clus>
<clus scale="  131.397">  2  6  1 -1</clus>
<clus scale="   31.360">  2  3  1 -1</clus>
</clustering>
</event>
<event>
 6    0  0.3643696E+002  0.8797833E+02  0.7546771E-02  0.1307823E+00
          2   -1    0    0  504    0 -0.00000000000E+00  0.00000000000E+00  0.22737939526E+04  0.22737939526E+04  0.00000000000E+00 0.  1.
         21   -1    0    0  501  502  0.00000000000E+00 -0.00000000000E+00 -0.83574925878E+02  0.83574925878E+02  0.00000000000E+00 0. -1.
         21    1    1    2  503  502 -0.87860312738E+02  0.25507165294E+01 -0.50790685692E+02  0.10151667086E+03  0.00000000000E+00 0. -1.
         21    1    1    2  504  505  0.46510337978E+02  0.16905796939E+02  0.20076807985E+03  0.20677727002E+03  0.00000000000E+00 0. -1.
         21    1    1    2  505  503 -0.52573449741E+02 -0.31652538176E+02  0.29758680022E+03  0.30384824247E+03  0.00000000000E+00 0.  1.
          2    1    1    2  501    0  0.93923424500E+02  0.12196024707E+02  0.17426548324E+04  0.17452266951E+04  0.00000000000E+00 0.  1.
<scales pt_clust_3="14000.00000" pt_clust_4="49.48755" pt_clust_5="54.32879" pt_clust_6="87.97833"></scales>
<clustering>
<clus scale="   49.488">  1  4  2 -1</clus>
<clus scale="   54.329">  1  5  2 -1</clus>
<clus scale="   87.978">  1  6  2 -1</clus>
<clus scale="   87.978">  2  3  1 -1</clus>
</clustering>
</event>
<event>
 6    0  0.5873496E+002  0.9945123E+02  0.7546771E-02  0.1281454E+00
         21   -1    0    0  505  502  0.00000000000E+00  0.00000000000E+00  0.42423101860E+03  0.42423101860E+03  0.00000000000E+00 0.  1.
          2   -1    0    0  504    0 -0.00000000000E+00 -0.00000000000E+00 -0.41527561219E+04  0.41527561219E+04  0.00000000000E+00 0.  1.
         21    1    1    2  503  501 -0.49807077421E+02  0.30727330797E+02 -0.13851892699E+03  0.15037422303E+03  0.00000000000E+00 0.  1.
         21    1    1    2  504  502  0.71562203030E+02  0.35740719605E+02 -0.17740013041E+02  0.81934461633E+02  0.00000000000E+00 0.  1.
         21    1    1    2  505  503 -0.64750006539E+01  0.32864908785E+02  0.38484060793E+03  0.38629563986E+03  0.00000000000E+00 0.  1.
          2    1    1    2  501    0 -0.15280124956E+02 -0.99332959187E+02 -0.39571067712E+04  0.39583828160E+04  0.00000000000E+00 0.  1.
<scales pt_clust_3="62.12753" pt_clust_4="99.45123" pt_clust_5="33.49668" pt_clust_6="14000.00000"></scales>
<clustering>
<clus scale="   33.497">  1  5  2 -1</clus>
<clus scale="   62.128">  1  3  2 -1</clus>
<clus scale="   99.451">  1  4  2 -1</clus>
<clus scale="   33.497">  1  3  2 -1</clus>
</clustering>
</event>
<event>
 6    0  0.3643696E+002  0.1117544E+03  0.7546771E-02  0.1257355E+00
         21   -1    0    0  505  502  0.00000000000E+00  0.00000000000E+00  0.53057869512E+02  0.53057869512E+02  0.00000000000E+00 0. -1.
         -2   -1    0    0    0  501 -0.00000000000E+00 -0.00000000000E+00 -0.18539342150E+04  0.18539342150E+04  0.00000000000E+00 0.  1.
         21    1    1    2  503  504  0.39735909927E+02 -0.81640329644E+02 -0.98635585310E+02  0.13406365895E+03  0.00000000000E+00 0. -1.
         21    1    1    2  504  502  0.22098708997E+02  0.26429065749E+02  0.19045963274E+02  0.39364923126E+02  0.00000000000E+00 0. -1.
         21    1    1    2  505  501 -0.38842668826E+02 -0.57322656606E+02 -0.31138531480E+03  0.31899130734E+03  0.00000000000E+00 0. -1.
         -2    1    1    2    0  503 -0.22991950098E+02  0.11253392050E+03 -0.14099014086E+04  0.14145721951E+04  0.00000000000E+00 0.  1.
<scales pt_clust_3="111.75436" pt_clust_4="34.45067" pt_clust_5="63.78088" pt_clust_6="14000.00000"></scales>
<clustering>
<clus scale="   34.451">  1  4  2 -1</clus>
<clus scale="   63.781">  1  5  2 -1</clus>
<clus scale="  111.754">  1  3  2 -1</clus>
<clus scale="   34.451">  1  3  2 -1</clus>
</clustering>
</event>
<event>
 6    0  0.3643696E+002  0.1357841E+03  0.7546771E-02  0.1219117E+00
          2   -1    0    0  505    0 -0.00000000000E+00  0.00000000000E+00  0.17865107262E+04  0.17865107262E+04  0.00000000000E+00 0.  1.
         21   -1    0    0  503  502  0.00000000000E+00 -0.00000000000E+00 -0.18348807037E+03  0.18348807037E+03  0.00000000000E+00 0.  1.
         21    1    1    2  503  504  0.33947442013E+02 -0.28660889540E+02 -0.14072843910E+03  0.14757496055E+03  0.00000000000E+00 0.  1.
         21    1    1    2  504  501 -0.73574910909E+02  0.13092989959E+02  0.23580606070E+03  0.24736449253E+03  0.00000000000E+00 0. -1.
         21    1    1    2  505  502 -0.71419906346E+02  0.97494150034E+02  0.90680395174E+02  0.15109217843E+03  0.00000000000E+00 0. -1.
          2    1    1    2  501    0  0.11104737524E+03 -0.81926250453E+02  0.14172646391E+04  0.14239671651E+04  0.00000000000E+00 0.  1.
<scales pt_clust_3="44.42832" pt_clust_4="69.16016" pt_clust_5="14000.00000" pt_clust_6="135.78408"></scales>
<clustering>
<clus scale="   44.428">  2  3  1 -1</clus>
<clus scale="   69.160">  2  4  1 -1</clus>
<clus scale="  135.784">  1  6  2 -1</clus>
<clus scale="   44.428">  2  3  1 -1</clus>
</clustering>
</event>
<event>
 6    0  0.3643696E+002  0.7580416E+02  0.7546771E-02  0.1341399E+00
         21   -1    0    0  504  502  0.00000000000E+00  0.00000000000E+00  0.42285012084E+03  0.42285012084E+03  0.00000000000E+00 0.  1.
          2   -1    0    0  503    0 -0.00000000000E+00 -0.00000000000E+00 -0.24141062594E+04  0.24141062594E+04  0.00000000000E+00 0.  1.
         21    1    1    2  503  505 -0.53926200699E+02  0.19596123269E+02 -0.44484246118E+03  0.44852743332E+03  0.00000000000E+00 0.  1.
         21    1    1    2  504  501 -0.75772177313E+02  0.23140758410E+00  0.40902165854E+03  0.41598100144E+03  0.00000000000E+00 0.  1.
         21    1    1    2  505  502  0.37628684729E+02 -0.62026672607E+02 -0.17921246264E+03  0.19333994102E+03  0.00000000000E+00 0.  1.
          2    1    1    2  501    0  0.92069693282E+02  0.42199141754E+02 -0.17762228733E+04  0.17791080045E+04  0.00000000000E+00 0.  1.
<scales pt_clust_3="57.37633" pt_clust_4="14000.00000" pt_clust_5="68.39830" pt_clust_6="75.80416"></scales>
<clustering>
<clus scale="   57.376">  2  3  1 -1</clus>
<clus scale="   68.398">  2  5  1 -1</clus>
<clus scale="   75.804">  2  6  1 -1</clus>
<clus scale="   75.804">  1  3  2 -1</clus>
</clustering>
</event>
<event>
 6    0  0.3643696E+002  0.1125936E+03  0.7546771E-02  0.1255841E+00
         -2   -1    0    0    0  501 -0.00000000000E+00  0.00000000000E+00  0.12609047535E+03  0.12609047535E+03  0.00000000000E+00 0. -1.
         21   -1    0    0  505  502  0.00000000000E+00 -0.00000000000E+00 -0.72173816006E+03  0.72173816006E+03  0.00000000000E+00 0.  1.
         21    1    1    2  503  502 -0.26107725962E+02 -0.42549496036E+02 -0.77256196084E+01  0.50514930132E+02  0.00000000000E+00 0.  1.
         21    1    1    2  504  501  0.58229902584E+02  0.65931164883E+01 -0.60765036059E+01  0.58916166169E+02  0.00000000000E+00 0.  1.
         21    1    1    2  505  504  0.35476754937E+02  0.93190706820E+02 -0.62982055328E+03  0.63766530195E+03  0.00000000000E+00 0.  1.
         -2    1    1    2    0  503 -0.67598931559E+02 -0.57234327272E+02  0.47974991780E+02  0.10073223716E+03  0.00000000000E+00 0. -1.
<scales pt_clust_3="37.67122" pt_clust_4="58.60197" pt_clust_5="100.79374" pt_clust_6="37.67122"></scales>
<clustering>
<clus scale="   37.671">  3  6 -1 -1</clus>
<clus scale="   58.602">  1  4  2 -1</clus>
<clus scale="  100.794">  2  5  1 -1</clus>
<clus scale="  100.794">  2  3  1 -1</clus>
</clustering>
</event>
<event>
 6    0  0.3643696E+002  0.1889786E+03  0.7546771E-02  0.1159386E+00
         21   -1    0    0  503  502  0.00000000000E+00  0.00000000000E+00  0.11242802066E+04  0.11242802066E+04  0.00000000000E+00 0.  1.
          4   -1    0    0  504    0 -0.00000000000E+00 -0.00000000000E+00 -0.71387396117E+03  0.71387396117E+03  0.00000000000E+00 0.  1.
         21    1    1    2  503  501  0.14248422652E+03 -0.40760668866E+02  0.10522580991E+04  0.10626430699E+04  0.00000000000E+00 0.  1.
         21    1    1    2  504  505  0.42341120087E+02  0.10054622103E+02 -0.73410388050E+02  0.85340207110E+02  0.00000000000E+00 0.  1.
         21    1    1    2  505  502  0.45323748553E+02  0.26342799366E+02  0.21690408903E+02  0.56733227474E+02  0.00000000000E+00 0.  1.
          4    1    1    2  501    0 -0.23014909516E+03  0.43632473974E+01 -0.59013187452E+03  0.63343766327E+03  0.00000000000E+00 0.  1.
<scales pt_clust_3="14000.00000" pt_clust_4="43.51857" pt_clust_5="53.57467" pt_clust_6="188.97864"></scales>
<clustering>
<clus scale="   43.519">  2  4  1 -1</clus>
<clus scale="   53.575">  1  5  2 -1</clus>
<clus scale="  188.979">  2  6  1 -1</clus>
<clus scale="   53.575">  1  3  2 -1</clus>
</clustering>
</event>
<event>
 6    0  0.3643696E+002  0.1053084E+03  0.7546771E-02  0.1269513E+00
         -1   -1    0    0    0  501 -0.00000000000E+00  0.00000000000E+00  0.61683543004E+03  0.61683543004E+03  0.00000000000E+00 0.  1.
         21   -1    0    0  503  502  0.00000000000E+00 -0.00000000000E+00 -0.44982125065E+02  0.44982125065E+02  0.00000000000E+00 0. -1.
         21    1    1    2  503  505  0.94422012375E+02 -0.18585188593E+02  0.36828884548E+02  0.10304024647E+03  0.00000000000E+00 0. -1.
         21    1    1    2  504  502 -0.67426587041E+02  0.13177835550E+02  0.22229430264E+03  0.23266877095E+03  0.00000000000E+00 0.  1.
         21    1    1    2  505  501  0.24762200827E+02  0.26642609001E+02  0.13177632131E+03  0.13670403821E+03  0.00000000000E+00 0.  1.
         -1    1    1    2    0  504 -0.51757626161E+02 -0.21235255958E+02  0.18095379648E+03  0.18940449947E+03  0.00000000000E+00 0.  1.
<scales pt_clust_3="99.11025" pt_clust_4="32.12067" pt_clust_5="36.37300" pt_clust_6="32.12067"></scales>
<clustering>
<clus scale="   32.121">  4  6 -1 -1</clus>
<clus scale="   36.373">  1  5  2 -1</clus>
<clus scale="   99.110">  2  3  1 -1</clus>
<clus scale="   99.110">  2  3  1 -1</clus>
</clustering>
</event>
<event>
 6    0  0.3643696E+002  0.1239295E+03  0.7546771E-02  0.1236752E+00
         21   -1    0    0  504  502  0.00000000000E+00  0.00000000000E+00  0.14906664416E+03  0.14906664416E+03  0.00000000000E+00 0.  1.
         -2   -1    0    0    0  501 -0.00000000000E+00 -0.00000000000E+00 -0.18412775095E+04  0.18412775095E+04  0.00000000000E+00 0.  1.
         21    1    1    2  503  502  0.18314108795E+02 -0.39595835019E+02  0.12778305154E+03  0.13502497914E+03  0.00000000000E+00 0.  1.
         21    1    1    2  504  505  0.71556194824E+02 -0.57638091912E+02 -0.18039068155E+03  0.20244316893E+03  0.00000000000E+00 0.  1.
         21    1    1    2  505  501 -0.36752278078E+01 -0.36408769761E+02 -0.60666964350E+03  0.60777229466E+03  0.00000000000E+00 0.  1.
         -2    1    1    2    0  503 -0.86195075812E+02  0.13364269669E+03 -0.10329335918E+04  0.10451037109E+04  0.00000000000E+00 0.  1.
<scales pt_clust_3="43.71857" pt_clust_4="123.92947" pt_clust_5="36.59379" pt_clust_6="14000.00000"></scales>
<clustering>
<clus scale="   36.594">  2  5  1 -1</clus>
<clus scale="   43.719">  1  3  2 -1</clus>
<clus scale="  123.929">  1  4  2 -1</clus>
<clus scale="   43.719">  1  3  2 -1</clus>
</clustering>
</event>
<event>
 6    0  0.3643696E+002  0.7619434E+02  0.7546771E-02  0.1340212E+00
         -3   -1    0    0    0  501 -0.00000000000E+00  0.00000000000E+00  0.68112428945E+03  0.68112428945E+03  0.00000000000E+00 0. -1.
         21   -1    0    0  504  502  0.00000000000E+00 -0.00000000000E+00 -0.40913758345E+02  0.40913758345E+02  0.00000000000E+00 0.  1.
         21    1    1    2  503  502  0.34856451813E+02  0.87582161924E+01  0.61121145989E+01  0.36455953269E+02  0.00000000000E+00 0.  1.
         21    1    1    2  504  505  0.24380327017E+02 -0.48599963528E+02  0.61481249597E+02  0.82074970925E+02  0.00000000000E+00 0. -1.
         21    1    1    2  505  501  0.52105704586E+02 -0.26959167966E+02  0.22195066097E+03  0.22957329351E+03  0.00000000000E+00 0. -1.
         -3    1    1    2    0  503 -0.11134248342E+03  0.66800915302E+02  0.35066650594E+03  0.37393383009E+03  0.00000000000E+00 0. -1.
<scales pt_clust_3="35.93993" pt_clust_4="59.18078" pt_clust_5="76.19434" pt_clust_6="14000.00000"></scales>
<clustering>
<clus scale="   35.940">  2  3  1 -1</clus>
<clus scale="   59.181">  2  4  1 -1</clus>
<clus scale="   76.194">  1  5  2 -1</clus>
<clus scale="   35.940">  2  3  1 -1</clus>
</clustering>
</event>
<event>
 6    0  0.3643696E+002  0.1269721E+03  0.7546771E-02  0.1232019E+00
         -2   -1    0    0    0  501 -0.00000000000E+00  0.00000000000E+00  0.57565774683E+03  0.57565774683E+03  0.00000000000E+00 0. -1.
         21   -1    0    0  505  502  0.00000000000E+00 -0.00000000000E+00 -0.13969216771E+03  0.13969216771E+03  0.00000000000E+00 0. -1.
         21    1    1    2  503  501 -0.20644711292E+02  0.43078104758E+02  0.30854236368E+03  0.31221838094E+03  0.00000000000E+00 0. -1.
         21    1    1    2  504  502  0.60955985641E+02  0.93766032197E+02  0.65114763242E+02  0.12941264765E+03  0.00000000000E+00 0. -1.
         21    1    1    2  505  503 -0.65622134798E+02  0.27134608007E+02 -0.37283384744E+02  0.80203505566E+02  0.00000000000E+00 0. -1.
         -2    1    1    2    0  504  0.25310860449E+02 -0.16397874496E+03  0.99591836947E+02  0.19351538038E+03  0.00000000000E+00 0. -1.
<scales pt_clust_3="47.76952" pt_clust_4="14000.00000" pt_clust_5="73.93102" pt_clust_6="126.97214"></scales>
<clustering>
<clus scale="   47.770">  1  3  2 -1</clus>
<clus scale="   73.931">  2  5  1 -1</clus>
<clus scale="  126.972">  1  6  2 -1</clus>
<clus scale="   73.931">  2  3  1 -1</clus>
</clustering>
</event>
<event>
 6    0  0.3643696E+002  0.9857532E+02  0.7546771E-02  0.1283321E+00
         21   -1    0    0  503  502  0.00000000000E+00  0.00000000000E+00  0.22657909076E+03  0.22657909076E+03  0.00000000000E+00 0.  1.
          1   -1    0    0  504    0 -0.00000000000E+00 -0.00000000000E+00 -0.19198904859E+04  0.19198904859E+04  0.00000000000E+00 0.  1.
         21    1    1    2  503  501 -0.88979273692E+02 -0.27302672081E+02 -0.12268176349E+04  0.12303431458E+04  0.00000000000E+00 0.  1.
         21    1    1    2  504  505  0.52165689691E+02 -0.86901728287E+01 -0.27876858318E+03  0.28374055271E+03  0.00000000000E+00 0. -1.
         21    1    1    2  505  502  0.75984677946E+02  0.11124647246E+02  0.21432472077E+03  0.22766755366E+03  0.00000000000E+00 0.  1.
          1    1    1    2  501    0 -0.39171093945E+02  0.24868197663E+02 -0.40204989782E+03  0.40471832451E+03  0.00000000000E+00 0.  1.
<scales pt_clust_3="43.45597" pt_clust_4="52.88458" pt_clust_5="76.99977" pt_clust_6="43.45597"></scales>
<clustering>
<clus scale="   43.456">  3  6 -1 -1</clus>
<clus scale="   52.885">  2  4  1 -1</clus>
<clus scale="   77.000">  1  5  2 -1</clus>
<clus scale="   77.000">  1  3  2 -1</clus>
</clustering>
</event>
<event>
 6    0  0.3643696E+002  0.1848099E+03  0.7546771E-02  0.1163227E+00
          2   -1    0    0  503    0 -0.00000000000E+00  0.00000000000E+00  0.14895293064E+04  0.14895293064E+04  0.00000000000E+00 0. -1.
         21   -1    0    0  501  502  0.00000000000E+00 -0.00000000000E+00 -0.66342656255E+02  0.66342656255E+02  0.00000000000E+00 0. -1.
         21    1    1    2  503  504  0.46132686221E+02  0.42663395262E+02  0.15291870775E+03  0.16532550080E+03  0.00000000000E+00 0.  1.
         21    1    1    2  504  505 -0.78111426360E+02 -0.39285852986E+01  0.72895957801E+03  0.73314316139E+03  0.00000000000E+00 0. -1.
         21    1    1    2  505  502 -0.16036456650E+03  0.36794317225E+02  0.27295745797E+03  0.31871051102E+03  0.00000000000E+00 0. -1.
          2    1    1    2  501    0  0.19234330664E+03 -0.75529127189E+02  0.26835090646E+03  0.33869278950E+03  0.00000000000E+00 0. -1.
<scales pt_clust_3="62.83622" pt_clust_4="56.25503" pt_clust_5="184.80993" pt_clust_6="14000.00000"></scales>
<clustering>
<clus scale="   62.836">  1  3  2 -1</clus>
<clus scale="   56.255">  1  4  2 -1</clus>
<clus scale="  184.810">  2  5  1 -1</clus>
<clus scale="  184.810">  2  3  1 -1</clus>
</clustering>
</event>
<event>
 6    0  0.3643696E+002  0.2701105E+03  0.7546771E-02  0.1101216E+00
          1   -1    0    0  503    0 -0.00000000000E+00  0.00000000000E+00  0.60691314961E+03  0.60691314961E+03  0.00000000000E+00 0.  1.
         21   -1    0    0  504  502  0.00000000000E+00 -0.00000000000E+00 -0.35210065189E+03  0.35210065189E+03  0.00000000000E+00 0.  1.
         21    1    1    2  503  505  0.26488331473E+02 -0.34633953292E+02  0.10052517424E+03  0.10957396169E+03  0.00000000000E+00 0.  1.
         21    1    1    2  504  501  0.62022894688E+02 -0.53095469320E+01 -0.23989094151E+02  0.66712123278E+02  0.00000000000E+00 0.  1.
         21    1    1    2  505  502  0.10876069711E+02  0.27208309775E+03 -0.19296685367E+03  0.33374197756E+03  0.00000000000E+00 0.  1.
          1    1    1    2  501    0 -0.99387295872E+02 -0.23213959752E+03  0.37124327130E+03  0.44898573898E+03  0.00000000000E+00 0.  1.
<scales pt_clust_3="43.60209" pt_clust_4="63.51367" pt_clust_5="270.11045" pt_clust_6="14000.00000"></scales>
<clustering>
<clus scale="   43.602">  1  3  2 -1</clus>
<clus scale="   63.514">  2  4  1 -1</clus>
<clus scale="  270.110">  2  5  1 -1</clus>
<clus scale="   63.514">  2  3  1 -1</clus>
</clustering>
</event>
<event>
 6    0  0.3643696E+002  0.9571609E+02  0.7546771E-02  0.1289571E+00
          4   -1    0    0  504    0 -0.00000000000E+00  0.00000000000E+00  0.22132496694E+04  0.22132496694E+04  0.00000000000E+00 0. -1.
         21   -1    0    0  503  502  0.00000000000E+00 -0.00000000000E+00 -0.23854444745E+02  0.23854444745E+02  0.00000000000E+00 0. -1.
         21    1    1    2  503  501 -0.28426355510E+02  0.12160846733E+03  0.60196368935E+03  0.61478204293E+03  0.00000000000E+00 0. -1.
         21    1    1    2  504  505  0.20153503898E+02 -0.36714590279E+02  0.33863463135E+03  0.34121479805E+03  0.00000000000E+00 0. -1.
         21    1    1    2  505  502  0.34777498842E+02 -0.20351439732E+02  0.11581425993E+02  0.41925946058E+02  0.00000000000E+00 0.  1.
          4    1    1    2  501    0 -0.26504647230E+02 -0.64542437318E+02  0.12372154780E+04  0.12391813272E+04  0.00000000000E+00 0. -1.
<scales pt_clust_3="95.71609" pt_clust_4="47.12021" pt_clust_5="40.29461" pt_clust_6="14000.00000"></scales>
<clustering>
<clus scale="   40.295">  2  5  1 -1</clus>
<clus scale="   47.120">  1  4  2 -1</clus>
<clus scale="   95.716">  2  3  1 -1</clus>
<clus scale="   40.295">  2  3  1 -1</clus>
</clustering>
</event>
<event>
 6    0  0.3643696E+002  0.1812307E+03  0.7546771E-02  0.1166617E+00
         -3   -1    0    0    0  501 -0.00000000000E+00  0.00000000000E+00  0.23336197427E+03  0.23336197427E+03  0.00000000000E+00 0. -1.
         21   -1    0    0  505  502  0.00000000000E+00 -0.00000000000E+00 -0.24888806530E+04  0.24888806530E+04  0.00000000000E+00 0.  1.
         21    1    1    2  503  504 -0.11792216235E+03  0.71621588630E+02 -0.34758813972E+03  0.37396898695E+03  0.00000000000E+00 0. -1.
         21    1    1    2  504  502 -0.60401748449E+02 -0.22801480651E+00 -0.20750782732E+04  0.20759571921E+04  0.00000000000E+00 0.  1.
         21    1    1    2  505  501  0.16525586765E+03 -0.25719252252E+02  0.13531410392E+03  0.21512993388E+03  0.00000000000E+00 0.  1.
         -3    1    1    2    0  503  0.13068043151E+02 -0.45674321572E+02  0.31833630334E+02  0.57186514346E+02  0.00000000000E+00 0. -1.
<scales pt_clust_3="181.23070" pt_clust_4="60.37226" pt_clust_5="14000.00000" pt_clust_6="47.50702"></scales>
<clustering>
<clus scale="   47.507">  1  6  2 -1</clus>
<clus scale="   60.372">  2  4  1 -1</clus>
<clus scale="  181.231">  2  3  1 -1</clus>
<clus scale="   60.372">  2  3  1 -1</clus>
</clustering>
</event>
<event>
 6    0  0.3643696E+002  0.1466644E+03  0.7546771E-02  0.1204633E+00
         21   -1    0    0  503  502  0.00000000000E+00  0.00000000000E+00  0.65298387645E+03  0.65298387645E+03  0.00000000000E+00 0.  1.
          1   -1    0    0  504    0 -0.00000000000E+00 -0.00000000000E+00 -0.25132346034E+04  0.25132346034E+04  0.00000000000E+00 0. -1.
         21    1    1    2  503  505  0.56557128867E+02 -0.64230595774E+02  0.59375939027E+03  0.59989540071E+03  0.00000000000E+00 0.  1.
         21    1    1    2  504  502 -0.10878358944E+03 -0.31371300881E+02 -0.20903364842E+03  0.23772482837E+03  0.00000000000E+00 0.  1.
         21    1    1    2  505  501  0.12078927555E+03 -0.38203963649E+02 -0.63070747002E+02  0.14151858908E+03  0.00000000000E+00 0. -1.
          1    1    1    2  501    0 -0.68562814984E+02  0.13380586030E+03 -0.21819057218E+04  0.21870796617E+04  0.00000000000E+00 0. -1.
<scales pt_clust_3="85.58200" pt_clust_4="105.74542" pt_clust_5="14000.00000" pt_clust_6="146.66436"></scales>
<clustering>
<clus scale="   85.582">  1  3  2 -1</clus>
<clus scale="  105.745">  1  4  2 -1</clus>
<clus scale="  146.664">  2  6  1 -1</clus>
<clus scale="   85.582">  1  3  2 -1</clus>
</clustering>
</event>
<event>
 6    0  0.3643696E+002  0.1103331E+03  0.7546771E-02  0.1259954E+00
          3   -1    0    0  504    0 -0.00000000000E+00  0.00000000000E+00  0.60242533264E+03  0.60242533264E+03  0.00000000000E+00 0.  1.
         21   -1    0    0  503  502  0.00000000000E+00 -0.00000000000E+00 -0.11370417612E+04  0.11370417612E+04  0.00000000000E+00 0. -1.
         21    1    1    2  503  501 -0.16842995888E+02 -0.11208382905E+03 -0.10814709052E+04  0.10873940362E+04  0.00000000000E+00 0. -1.
         21    1    1    2  504  505 -0.31970603535E+01 -0.50912123412E+02  0.42025801268E+02  0.66094125892E+02  0.00000000000E+00 0.  1.
         21    1    1    2  505  502 -0.28441174083E+02  0.71884477775E+02  0.70653351784E+01  0.77628586806E+02  0.00000000000E+00 0. -1.
          3    1    1    2  501    0  0.48481230325E+02  0.91111474688E+02  0.49776334010E+03  0.50835034500E+03  0.00000000000E+00 0.  1.
<scales pt_clust_3="14000.00000" pt_clust_4="51.01241" pt_clust_5="110.33314" pt_clust_6="63.61241"></scales>
<clustering>
<clus scale="   51.012">  1  4  2 -1</clus>
<clus scale="   63.612">  1  6  2 -1</clus>
<clus scale="  110.333">  1  5  2 -1</clus>
<clus scale="  110.333">  2  3  1 -1</clus>
</clustering>
</event>
<event>
 6    0  0.3643696E+002  0.1837977E+03  0.7546771E-02  0.1164177E+00
          2   -1    0    0  505    0 -0.00000000000E+00  0.00000000000E+00  0.28340023139E+04  0.28340023139E+04  0.00000000000E+00 0.  1.
         21   -1    0    0  503  502  0.00000000000E+00 -0.00000000000E+00 -0.64803918487E+02  0.64803918487E+02  0.00000000000E+00 0.  1.
         21    1    1    2  503  501  0.12390160397E+02  0.57413654327E+02  0.47695351490E+03  0.48055644742E+03  0.00000000000E+00 0.  1.
         21    1    1    2  504  502 -0.37931330239E+02 -0.34613139529E+02 -0.26921225917E+02  0.57979372597E+02  0.00000000000E+00 0.  1.
         21    1    1    2  505  504 -0.99210534845E+01 -0.13731896438E+03  0.23280809548E+03  0.27047094964E+03  0.00000000000E+00 0.  1.
          2    1    1    2  501    0  0.35462223327E+02  0.11451844958E+03  0.20863580109E+04  0.20897994627E+04  0.00000000000E+00 0.  1.
<scales pt_clust_3="45.96860" pt_clust_4="51.35032" pt_clust_5="171.66411" pt_clust_6="45.96860"></scales>
<clustering>
<clus scale="   45.969">  3  6 -1 -1</clus>
<clus scale="   51.350">  2  4  1 -1</clus>
<clus scale="  171.664">  2  5  1 -1</clus>
<clus scale="   51.350">  2  3  1 -1</clus>
</clustering>
</event>
<event>
 6    0  0.3643696E+002  0.1614020E+03  0.7546771E-02  0.1187123E+00
         21   -1    0    0  503  502  0.00000000000E+00  0.00000000000E+00  0.71036581491E+03  0.71036581491E+03  0.00000000000E+00 0. -1.
          2   -1    0    0  504    0 -0.00000000000E+00 -0.00000000000E+00 -0.27387537958E+03  0.27387537958E+03  0.00000000000E+00 0. -1.
         21    1    1    2  503  501 -0.57603736658E+02  0.73877277272E+01 -0.54032578707E+02  0.79323946950E+02  0.00000000000E+00 0. -1.
         21    1    1    2  504  505 -0.29887259135E+02 -0.42884833977E+02 -0.14762632096E+02  0.54316595532E+02  0.00000000000E+00 0. -1.
         21    1    1    2  505  502  0.15501135305E+03  0.13572016206E+02  0.66121179618E+03  0.67927443542E+03  0.00000000000E+00 0. -1.
          2    1    1    2  501    0 -0.67520357260E+02  0.21925090043E+02 -0.15592615005E+03  0.17132621658E+03  0.00000000000E+00 0. -1.
<scales pt_clust_3="42.68838" pt_clust_4="52.27195" pt_clust_5="154.34715" pt_clust_6="42.68838"></scales>
<clustering>
<clus scale="   42.688">  3  6 -1 -1</clus>
<clus scale="   52.272">  2  4  1 -1</clus>
<clus scale="  154.347">  1  5  2 -1</clus>
<clus scale="  154.347">  1  3  2 -1</clus>
</clustering>
</event>
<event>
 6    0  0.3643696E+002  0.9363125E+02  0.7546771E-02  0.1294289E+00
         21   -1    0    0  501  502  0.00000000000E+00  0.00000000000E+00  0.95776064123E+02  0.95776064123E+02  0.00000000000E+00 0.  1.
          1   -1    0    0  503    0 -0.00000000000E+00 -0.00000000000E+00 -0.31479593424E+03  0.31479593424E+03  0.00000000000E+00 0. -1.
         21    1    1    2  503  504 -0.13014682016E+02 -0.31147998194E+02 -0.76868136363E+02  0.83954095358E+02  0.00000000000E+00 0. -1.
         21    1    1    2  504  505 -0.67363341528E+02  0.29072975306E+02 -0.45244695399E+02  0.86198260636E+02  0.00000000000E+00 0. -1.
         21    1    1    2  505  502 -0.19154186864E+02  0.66396630016E+02  0.22020335982E+02  0.72527860500E+02  0.00000000000E+00 0.  1.
          1    1    1    2  501    0  0.99532210408E+02 -0.64321607128E+02 -0.11892737433E+03  0.16789178187E+03  0.00000000000E+00 0. -1.
<scales pt_clust_3="33.75766" pt_clust_4="14000.00000" pt_clust_5="66.30750" pt_clust_6="93.63125"></scales>
<clustering>
<clus scale="   33.758">  2  3  1 -1</clus>
<clus scale="   66.307">  1  5  2 -1</clus>
<clus scale="   93.631">  1  6  2 -1</clus>
<clus scale="   66.307">  1  3  2 -1</clus>
</clustering>
</event>
<event>
 6    0  0.3643696E+002  0.1893328E+03  0.7546771E-02  0.1159064E+00
          2   -1    0    0  505    0 -0.00000000000E+00  0.00000000000E+00  0.15958887561E+04  0.15958887561E+04  0.00000000000E+00 0.  1.
         21   -1    0    0  503  502  0.00000000000E+00 -0.00000000000E+00 -0.22619183094E+03  0.22619183094E+03  0.00000000000E+00 0.  1.
         21    1    1    2  503  504 -0.13736713050E+03  0.58105255264E+00 -0.16129381555E+03  0.21186259957E+03  0.00000000000E+00 0.  1.
         21    1    1    2  504  501 -0.78941356207E+02  0.59573746087E+02  0.42265960710E+03  0.43407592932E+03  0.00000000000E+00 0.  1.
         21    1    1    2  505  502  0.26736736717E+03 -0.93404358626E+02  0.59231980065E+03  0.65654583197E+03  0.00000000000E+00 0.  1.
          2    1    1    2  501    0 -0.51058880465E+02  0.33249559986E+02  0.51601133295E+03  0.51959622616E+03  0.00000000000E+00 0.  1.
<scales pt_clust_3="137.36836" pt_clust_4="42.05888" pt_clust_5="181.59210" pt_clust_6="42.05888"></scales>
<clustering>
<clus scale="   42.059">  4  6 -1 -1</clus>
<clus scale="  137.368">  2  3  1 -1</clus>
<clus scale="  181.592">  2  5  1 -1</clus>
<clus scale="  137.368">  2  3  1 -1</clus>
</clustering>
</event>
<event>
 6    0  0.3643696E+002  0.6736466E+02  0.7546771E-02  0.1369291E+00
         21   -1    0    0  504  502  0.00000000000E+00  0.00000000000E+00  0.60840874161E+03  0.60840874161E+03  0.00000000000E+00 0.  1.
          1   -1    0    0  503    0 -0.00000000000E+00 -0.00000000000E+00 -0.15278781117E+03  0.15278781117E+03  0.00000000000E+00 0. -1.
         21    1    1    2  503  505  0.46885749544E+02 -0.61193555465E+02 -0.72765401874E+01  0.77433021237E+02  0.00000000000E+00 0.  1.
         21    1    1    2  504  501  0.18881912344E+02  0.63834004002E+02 -0.32465299455E+01  0.66647180266E+02  0.00000000000E+00 0.  1.
         21    1    1    2  505  502 -0.55761234646E+02  0.37279745651E+02  0.53376125684E+03  0.53795926800E+03  0.00000000000E+00 0.  1.
          1    1    1    2  501    0 -0.10006427242E+02 -0.39920194189E+02 -0.67617256264E+02  0.79157083289E+02  0.00000000000E+00 0. -1.
<scales pt_clust_3="67.36466" pt_clust_4="48.47623" pt_clust_5="14000.00000" pt_clust_6="41.15520"></scales>
<clustering>
<clus scale="   41.155">  2  6  1 -1</clus>
<clus scale="   48.476">  2  4  1 -1</clus>
<clus scale="   67.365">  2  3  1 -1</clus>
<clus scale="   67.365">  1  3  2 -1</clus>
</clustering>
</event>
<event>
 6    0  0.3643696E+002  0.7132470E+02  0.7546771E-02  0.1355645E+00
         21   -1    0    0  505  502  0.00000000000E+00  0.00000000000E+00  0.21171699874E+03  0.21171699874E+03  0.00000000000E+00 0.  1.
          1   -1    0    0  503    0 -0.00000000000E+00 -0.00000000000E+00 -0.49389462642E+03  0.49389462642E+03  0.00000000000E+00 0.  1.
         21    1    1    2  503  502 -0.26718375622E+02  0.28494755600E+02 -0.84661736233E+02  0.93238577180E+02  0.00000000000E+00 0.  1.
         21    1    1    2  504  501  0.61936495448E+01  0.82345198610E+02 -0.10841722439E+02  0.83286469334E+02  0.00000000000E+00 0.  1.
         21    1    1    2  505  504 -0.23426488358E+02 -0.19680522265E+02  0.16259629914E+03  0.16544993142E+03  0.00000000000E+00 0.  1.
          1    1    1    2  501    0  0.43951214435E+02 -0.91159431944E+02 -0.34927046815E+03  0.36363664722E+03  0.00000000000E+00 0.  1.
<scales pt_clust_3="39.30780" pt_clust_4="14000.00000" pt_clust_5="30.59613" pt_clust_6="71.32470"></scales>
<clustering>
<clus scale="   30.596">  1  5  2 -1</clus>
<clus scale="   39.308">  2  3  1 -1</clus>
<clus scale="   71.325">  2  6  1 -1</clus>
<clus scale="   30.596">  1  3  2 -1</clus>
</clustering>
</event>
<event>
 6    0  0.3643696E+002  0.1208691E+03  0.7546771E-02  0.1241670E+00
          2   -1    0    0  504    0 -0.00000000000E+00  0.00000000000E+00  0.13811354621E+04  0.13811354621E+04  0.00000000000E+00 0. -1.
         21   -1    0    0  505  502  0.00000000000E+00 -0.00000000000E+00 -0.13417698489E+03  0.13417698489E+03  0.00000000000E+00 0. -1.
         21    1    1    2  503  502 -0.11762077367E+02 -0.70069189700E+02 -0.10006376194E+03  0.12272242771E+03  0.00000000000E+00 0. -1.
         21    1    1    2  504  503 -0.26744917768E+02 -0.11447036044E+03  0.29846255439E+03  0.32077819505E+03  0.00000000000E+00 0. -1.
         21    1    1    2  505  501  0.94632202965E+01  0.13564405024E+03  0.43828041159E+03  0.45888841791E+03  0.00000000000E+00 0. -1.
          2    1    1    2  501    0  0.29043774839E+02  0.48895499902E+02  0.61027927314E+03  0.61292340630E+03  0.00000000000E+00 0. -1.
<scales pt_clust_3="70.26949" pt_clust_4="14000.00000" pt_clust_5="120.86905" pt_clust_6="56.87100"></scales>
<clustering>
<clus scale="   56.871">  1  6  2 -1</clus>
<clus scale="   70.269">  2  3  1 -1</clus>
<clus scale="  120.869">  2  5  1 -1</clus>
<clus scale="   70.269">  2  3  1 -1</clus>
</clustering>
</event>
<event>
 6    0  0.3643696E+002  0.9147851E+02  0.7546771E-02  0.1299310E+00
         21   -1    0    0  501  502  0.00000000000E+00  0.00000000000E+00  0.13952365105E+03  0.13952365105E+03  0.00000000000E+00 0. -1.
          2   -1    0    0  503    0 -0.00000000000E+00 -0.00000000000E+00 -0.26325437275E+04  0.26325437275E+04  0.00000000000E+00 0. -1.
         21    1    1    2  503  505 -0.32017898783E+02  0.39225167690E+02 -0.37130461625E+03  0.37474108084E+03  0.00000000000E+00 0. -1.
         21    1    1    2  504  502 -0.28310985742E+02 -0.45100370500E+02  0.12803059902E+03  0.13866286315E+03  0.00000000000E+00 0. -1.
         21    1    1    2  505  504  0.37774265676E+02 -0.76201146865E+02 -0.52725614669E+03  0.53407167511E+03  0.00000000000E+00 0.  1.
          2    1    1    2  501    0  0.22554618849E+02  0.82076349675E+02 -0.17224899126E+04  0.17245917595E+04  0.00000000000E+00 0. -1.
<scales pt_clust_3="50.63358" pt_clust_4="53.21194" pt_clust_5="91.47851" pt_clust_6="14000.00000"></scales>
<clustering>
<clus scale="   50.634">  2  3  1 -1</clus>
<clus scale="   53.212">  1  4  2 -1</clus>
<clus scale="   91.479">  1  5  2 -1</clus>
<clus scale="   53.212">  1  3  2 -1</clus>
</clustering>
</event>
<event>
 6    0  0.3643696E+002  0.2164955E+03  0.7546771E-02  0.1136523E+00
         21   -1    0    0  504  502  0.00000000000E+00  0.00000000000E+00  0.47765850184E+02  0.47765850184E+02  0.00000000000E+00 0.  1.
          2   -1    0    0  503    0 -0.00000000000E+00 -0.00000000000E+00 -0.32868461160E+04  0.32868461160E+04  0.00000000000E+00 0.  1.
         21    1    1    2  503  505  0.36366896643E+02  0.35483661359E+02 -0.28052309467E+03  0.28508743929E+03  0.00000000000E+00 0. -1.
         21    1    1    2  504  501  0.19270930972E+03  0.12183190965E+03 -0.37193084713E+03  0.43624814877E+03  0.00000000000E+00 0.  1.
         21    1    1    2  505  502 -0.25661191880E+02 -0.16608057175E+03 -0.10958647811E+04  0.11086752778E+04  0.00000000000E+00 0.  1.
          2    1    1    2  501    0 -0.20341501449E+03  0.87650007472E+01 -0.14907615429E+04  0.15046011004E+04  0.00000000000E+00 0.  1.
<scales pt_clust_3="50.80986" pt_clust_4="216.49554" pt_clust_5="153.55538" pt_clust_6="14000.00000"></scales>
<clustering>
<clus scale="   50.810">  2  3  1 -1</clus>
<clus scale="  153.555">  2  5  1 -1</clus>
<clus scale="  216.496">  1  4  2 -1</clus>
<clus scale="  216.496">  1  3  2 -1</clus>
</clustering>
</event>
<event>
 6    0  0.3643696E+002  0.9312988E+02  0.7546771E-02  0.1295444E+00
          3   -1    0    0  505    0 -0.00000000000E+00  0.00000000000E+00  0.46114920880E+04  0.46114920880E+04  0.00000000000E+00 0. -1.
         21   -1    0    0  503  502  0.00000000000E+00 -0.00000000000E+00 -0.14628369351E+03  0.14628369351E+03  0.00000000000E+00 0.  1.
         21    1    1    2  503  501 -0.86348893012E+02  0.35049674387E+02 -0.12397741827E+03  0.15509678024E+03  0.00000000000E+00 0.  1.
         21    1    1    2  504  502  0.96427712321E+01  0.65754678479E+02  0.20562888478E+03  0.21610159424E+03  0.00000000000E+00 0.  1.
         21    1    1    2  505  504  0.26589548295E+02 -0.19804302155E+02  0.28627381739E+03  0.28818728803E+03  0.00000000000E+00 0.  1.
          3    1    1    2  501    0  0.50116573486E+02 -0.81000050711E+02  0.40972831106E+04  0.40983901190E+04  0.00000000000E+00 0. -1.
<scales pt_clust_3="14000.00000" pt_clust_4="65.70600" pt_clust_5="33.15440" pt_clust_6="93.12988"></scales>
<clustering>
<clus scale="   33.154">  1  5  2 -1</clus>
<clus scale="   65.706">  1  4  2 -1</clus>
<clus scale="   93.130">  1  6  2 -1</clus>
<clus scale="   93.130">  2  3  1 -1</clus>
</clustering>
</event>
<event>
 6    0  0.3643696E+002  0.9864081E+02  0.7546771E-02  0.1283180E+00
          1   -1    0    0  505    0 -0.00000000000E+00  0.00000000000E+00  0.17947517917E+04  0.17947517917E+04  0.00000000000E+00 0. -1.
         21   -1    0    0  504  502  0.00000000000E+00 -0.00000000000E+00 -0.48904915207E+02  0.48904915207E+02  0.00000000000E+00 0.  1.
         21    1    1    2  503  501  0.11280718914E+03 -0.16584543663E+02  0.25240854514E+03  0.27696675373E+03  0.00000000000E+00 0.  1.
         21    1    1    2  504  503 -0.22941168075E+02 -0.29147512276E+02  0.91030785609E+02  0.98297907369E+02  0.00000000000E+00 0.  1.
         21    1    1    2  505  502 -0.71315918112E+02 -0.38993662601E+02  0.20579855844E+02  0.83845073593E+02  0.00000000000E+00 0.  1.
          1    1    1    2  501    0 -0.18550102953E+02  0.84725718540E+02  0.13818276899E+04  0.13845469722E+04  0.00000000000E+00 0. -1.
<scales pt_clust_3="98.64081" pt_clust_4="37.09278" pt_clust_5="14000.00000" pt_clust_6="86.02918"></scales>
<clustering>
<clus scale="   37.093">  2  4  1 -1</clus>
<clus scale="   86.029">  1  6  2 -1</clus>
<clus scale="   98.641">  1  3  2 -1</clus>
<clus scale="   37.093">  2  3  1 -1</clus>
</clustering>
</event>
<event>
 6    0  0.3643696E+002  0.1142599E+03  0.7546771E-02  0.1252878E+00
         21   -1    0    0  505  502  0.00000000000E+00  0.00000000000E+00  0.12676764251E+03  0.12676764251E+03  0.00000000000E+00 0.  1.
          2   -1    0    0  503    0 -0.00000000000E+00 -0.00000000000E+00 -0.10502141734E+04  0.10502141734E+04  0.00000000000E+00 0. -1.
         21    1    1    2  503  502  0.48686196707E+02 -0.14043814420E+02  0.86404371034E+02  0.10016631074E+03  0.00000000000E+00 0.  1.
         21    1    1    2  504  501 -0.30130422399E+02  0.11229369505E+03 -0.74528183174E+03  0.75429617858E+03  0.00000000000E+00 0. -1.
         21    1    1    2  505  504 -0.55364586693E+02 -0.10328885069E+03 -0.10076696720E+03  0.15455680449E+03  0.00000000000E+00 0. -1.
          2    1    1    2  501    0  0.36808812384E+02  0.50389700606E+01 -0.16380210299E+03  0.16796252210E+03  0.00000000000E+00 0. -1.
<scales pt_clust_3="50.93570" pt_clust_4="14000.00000" pt_clust_5="114.25995" pt_clust_6="37.15212"></scales>
<clustering>
<clus scale="   37.152">  2  6  1 -1</clus>
<clus scale="   50.936">  1  3  2 -1</clus>
<clus scale="  114.260">  1  5  2 -1</clus>
<clus scale="   50.936">  1  3  2 -1</clus>
</clustering>
</event>
<event>
 6    0  0.3643696E+002  0.1848137E+03  0.7546771E-02  0.1163224E+00
         -3   -1    0    0    0  501 -0.00000000000E+00  0.00000000000E+00  0.64542329696E+03  0.64542329696E+03  0.00000000000E+00 0.  1.
         21   -1    0    0  505  502  0.00000000000E+00 -0.00000000000E+00 -0.41550714423E+03  0.41550714423E+03  0.00000000000E+00 0. -1.
         21    1    1    2  503  501 -0.12541261530E+03 -0.19057027187E+02  0.55165086727E+02  0.13832816472E+03  0.00000000000E+00 0.  1.
         21    1    1    2  504  503 -0.15788154211E+02 -0.93998157444E+02  0.34153723111E+02  0.10124917885E+03  0.00000000000E+00 0.  1.
         21    1    1    2  505  504 -0.54524132977E+02 -0.53747496592E+00 -0.31125749010E+03  0.31599746059E+03  0.00000000000E+00 0. -1.
         -3    1    1    2    0  502  0.19572490249E+03  0.11359265960E+03  0.45185483299E+03  0.50535563702E+03  0.00000000000E+00 0.  1.
<scales pt_clust_3="184.81372" pt_clust_4="100.03749" pt_clust_5="54.52678" pt_clust_6="14000.00000"></scales>
<clustering>
<clus scale="   54.527">  2  5  1 -1</clus>
<clus scale="  100.037">  2  4  1 -1</clus>
<clus scale="  184.814">  2  3  1 -1</clus>
<clus scale="   54.527">  2  3  1 -1</clus>
</clustering>
</event>
<event>
 6    0  0.3643696E+002  0.8143110E+02  0.7546771E-02  0.1325039E+00
         21   -1    0    0  505  502  0.00000000000E+00  0.00000000000E+00  0.13932157097E+03  0.13932157097E+03  0.00000000000E+00 0. -1.
         -3   -1    0    0    0  501 -0.00000000000E+00 -0.00000000000E+00 -0.64780832364E+03  0.64780832364E+03  0.00000000000E+00 0. -1.
         21    1    1    2  503  501  0.26661354266E+02 -0.73965257627E+02 -0.30147712850E+03  0.31156082256E+03  0.00000000000E+00 0. -1.
         21    1    1    2  504  502 -0.59364686776E+02 -0.65024060800E+02 -0.36840829254E+02  0.95443916616E+02  0.00000000000E+00 0.  1.
         21    1    1    2  505  503 -0.97734057803E+01  0.35833349284E+02  0.89828593093E+02  0.97204549886E+02  0.00000000000E+00 0. -1.
         -3    1    1    2    0  504  0.42476738290E+02  0.10315596914E+03 -0.25999738802E+03  0.28292060555E+03  0.00000000000E+00 0. -1.
<scales pt_clust_3="74.54907" pt_clust_4="14000.00000" pt_clust_5="37.14227" pt_clust_6="81.43110"></scales>
<clustering>
<clus scale="   37.142">  1  5  2 -1</clus>
<clus scale="   74.549">  2  3  1 -1</clus>
<clus scale="   81.431">  2  6  1 -1</clus>
<clus scale="   37.142">  1  3  2 -1</clus>
</clustering>
</event>
<event>
 6    0  0.3643696E+002  0.5792079E+02  0.7546771E-02  0.1406770E+00
         -1   -1    0    0    0  501 -0.00000000000E+00  0.00000000000E+00  0.10608281670E+04  0.10608281670E+04  0.00000000000E+00 0. -1.
         21   -1    0    0  503  502  0.00000000000E+00 -0.00000000000E+00 -0.72334121641E+02  0.72334121641E+02  0.00000000000E+00 0.  1.
         21    1    1    2  503  501  0.14945370161E+02  0.53425177116E+02  0.19169104764E+03  0.19955718826E+03  0.00000000000E+00 0.  1.
         21    1    1    2  504  502 -0.20448716623E+02  0.52894598609E+02 -0.48695693218E+02  0.74747970619E+02  0.00000000000E+00 0.  1.
         21    1    1    2  505  504  0.38437266889E+02 -0.11079206891E+03  0.63220489271E+03  0.64298937190E+03  0.00000000000E+00 0. -1.
         -1    1    1    2    0  505 -0.32933920427E+02  0.44722931860E+01  0.21329379820E+03  0.21586775783E+03  0.00000000000E+00 0. -1.
<scales pt_clust_3="54.95039" pt_clust_4="57.92079" pt_clust_5="14000.00000" pt_clust_6="33.23619"></scales>
<clustering>
<clus scale="   33.236">  1  6  2 -1</clus>
<clus scale="   54.950">  1  3  2 -1</clus>
<clus scale="   57.921">  2  4  1 -1</clus>
<clus scale="   57.921">  2  3  1 -1</clus>
</clustering>
</event>
<event>
 6    0  0.3643696E+002  0.1824257E+03  0.7546771E-02  0.1165476E+00
         -4   -1    0    0    0  501 -0.00000000000E+00  0.00000000000E+00  0.34036302624E+03  0.34036302624E+03  0.00000000000E+00 0.  1.
         21   -1    0    0  505  502  0.00000000000E+00 -0.00000000000E+00 -0.12515553735E+03  0.12515553735E+03  0.00000000000E+00 0.  1.
         21    1    1    2  503  501  0.31638696593E+02 -0.41282112991E+02  0.63163064752E+02  0.81821713035E+02  0.00000000000E+00 0.  1.
         21    1    1    2  504  503 -0.13071497462E+03 -0.26983601248E+02  0.83284922367E+02  0.15732418002E+03  0.00000000000E+00 0.  1.
         21    1    1    2  505  504 -0.22624617877E+02 -0.44066603794E+02  0.92805758379E+01  0.50397103010E+02  0.00000000000E+00 0. -1.
         -4    1    1    2    0  502  0.12170089590E+03  0.11233231803E+03  0.59478925927E+02  0.17597556753E+03  0.00000000000E+00 0.  1.
<scales pt_clust_3="52.01173" pt_clust_4="47.26190" pt_clust_5="47.26190" pt_clust_6="165.10768"></scales>
<clustering>
<clus scale="   47.262">  4  5 -1 -1</clus>
<clus scale="   52.012">  1  3  2 -1</clus>
<clus scale="  165.108">  2  6  1 -1</clus>
<clus scale="  165.108">  2  3  1 -1</clus>
</clustering>
</event>
<event>
 6    0  0.3643696E+002  0.1487242E+03  0.7546771E-02  0.1202050E+00
         21   -1    0    0  505  502  0.00000000000E+00  0.00000000000E+00  0.82088658652E+02  0.82088658652E+02  0.00000000000E+00 0.  1.
          2   -1    0    0  503    0 -0.00000000000E+00 -0.00000000000E+00 -0.16122968980E+04  0.16122968980E+04  0.00000000000E+00 0. -1.
         21    1    1    2  503  504  0.21788768922E+01  0.43137818069E+02 -0.12716527121E+03  0.13430050281E+03  0.00000000000E+00 0.  1.
         21    1    1    2  504  502  0.77717851950E+02 -0.42630184856E+02 -0.24820568348E+03  0.26355921249E+03  0.00000000000E+00 0. -1.
         21    1    1    2  505  501 -0.79023745175E+02  0.12928475330E+03 -0.18326611752E+02  0.15262753499E+03  0.00000000000E+00 0.  1.
          2    1    1    2  501    0 -0.87298366678E+00 -0.12979238652E+03 -0.11365106729E+04  0.11438983064E+04  0.00000000000E+00 0. -1.
<scales pt_clust_3="43.19281" pt_clust_4="85.65231" pt_clust_5="148.72418" pt_clust_6="14000.00000"></scales>
<clustering>
<clus scale="   43.193">  2  3  1 -1</clus>
<clus scale="   85.652">  2  4  1 -1</clus>
<clus scale="  148.724">  1  5  2 -1</clus>
<clus scale="  148.724">  1  3  2 -1</clus>
</clustering>
</event>
<event>
 6    0  0.3643696E+002  0.7267032E+02  0.7546771E-02  0.1351241E+00
          4   -1    0    0  505    0 -0.00000000000E+00  0.00000000000E+00  0.11596474877E+04  0.11596474877E+04  0.00000000000E+00 0. -1.
         21   -1    0    0  504  502  0.00000000000E+00 -0.00000000000E+00 -0.23835554256E+04  0.23835554256E+04  0.00000000000E+00 0.  1.
         21    1    1    2  503  502  0.47295877227E+02  0.40307136894E+02  0.11521798407E+03  0.13090740674E+03  0.00000000000E+00 0.  1.
         21    1    1    2  504  501 -0.30884231012E+02 -0.65861508191E+02 -0.23703268534E+04  0.23714428026E+04  0.00000000000E+00 0.  1.
         21    1    1    2  505  503  0.42350139077E+02 -0.28029753034E+02  0.22109526736E+03  0.22685307708E+03  0.00000000000E+00 0. -1.
          4    1    1    2  501    0 -0.58761785292E+02  0.53584124330E+02  0.81010566398E+03  0.81399962690E+03  0.00000000000E+00 0. -1.
<scales pt_clust_3="72.67032" pt_clust_4="14000.00000" pt_clust_5="50.78584" pt_clust_6="36.61031"></scales>
<clustering>
<clus scale="   50.786">  1  5  2 -1</clus>
<clus scale="   36.610">  1  6  2 -1</clus>
<clus scale="   72.670">  1  3  2 -1</clus>
<clus scale="   72.670">  2  3  1 -1</clus>
</clustering>
</event>
<event>
 6    0  0.3643696E+002  0.1547422E+03  0.7546771E-02  0.1194764E+00
         21   -1    0    0  501  502  0.00000000000E+00  0.00000000000E+00  0.21537488639E+03  0.21537488639E+03  0.00000000000E+00 0.  1.
          1   -1    0    0  504    0 -0.00000000000E+00 -0.00000000000E+00 -0.86509128418E+03  0.86509128418E+03  0.00000000000E+00 0.  1.
         21    1    1    2  503  505 -0.61396868463E+02 -0.15610591153E+03 -0.11921745531E+03  0.20579463726E+03  0.00000000000E+00 0. -1.
         21    1    1    2  504  503  0.15245483260E+02  0.42788106761E+02 -0.58631281544E+03  0.58806969348E+03  0.00000000000E+00 0. -1.
         21    1    1    2  505  502  0.23764291895E+02  0.18991586516E+03  0.39709093733E+01  0.19143809843E+03  0.00000000000E+00 0.  1.
          1    1    1    2  501    0  0.22387093308E+02 -0.76598060394E+02  0.51842963590E+02  0.95163741398E+02  0.00000000000E+00 0.  1.
<scales pt_clust_3="154.74218" pt_clust_4="45.42298" pt_clust_5="14000.00000" pt_clust_6="76.96278"></scales>
<clustering>
<clus scale="   45.423">  2  4  1 -1</clus>
<clus scale="   76.963">  1  6  2 -1</clus>
<clus scale="  154.742">  2  3  1 -1</clus>
<clus scale="   76.963">  1  3  2 -1</clus>
</clustering>
</event>
<event>
 6    0  0.3643696E+002  0.9911802E+02  0.7546771E-02  0.1282162E+00
          1   -1    0    0  504    0 -0.00000000000E+00  0.00000000000E+00  0.10096920998E+04  0.10096920998E+04  0.00000000000E+00 0. -1.
         21   -1    0    0  503  502  0.00000000000E+00 -0.00000000000E+00 -0.46581294318E+02  0.46581294318E+02  0.00000000000E+00 0. -1.
         21    1    1    2  503  505 -0.51482474052E+02 -0.29839326178E+02 -0.10761729015E+02  0.60470202023E+02  0.00000000000E+00 0. -1.
         21    1    1    2  504  502 -0.16320906184E+02  0.95262744227E+02  0.33062720845E+03  0.34446438623E+03  0.00000000000E+00 0. -1.
         21    1    1    2  505  501  0.30024951414E+02 -0.19092861999E+02  0.13578873677E+03  0.14037313176E+03  0.00000000000E+00 0.  1.
          1    1    1    2  501    0  0.37778428822E+02 -0.46330556050E+02  0.50745658923E+03  0.51096567405E+03  0.00000000000E+00 0. -1.
<scales pt_clust_3="59.50488" pt_clust_4="90.68745" pt_clust_5="30.86127" pt_clust_6="30.86127"></scales>
<clustering>
<clus scale="   30.861">  5  6 -1 -1</clus>
<clus scale="   59.505">  2  3  1 -1</clus>
<clus scale="   90.687">  2  4  1 -1</clus>
<clus scale="   59.505">  2  3  1 -1</clus>
</clustering>
</event>
<event>
 6    0  0.3643696E+002  0.1431446E+03  0.7546771E-02  0.1209159E+00
         21   -1    0    0  504  502  0.00000000000E+00  0.00000000000E+00  0.39472401890E+03  0.39472401890E+03  0.00000000000E+00 0. -1.
          1   -1    0    0  505    0 -0.00000000000E+00 -0.00000000000E+00 -0.31758420675E+03  0.31758420675E+03  0.00000000000E+00 0.  1.
         21    1    1    2  503  501 -0.35970774586E+02 -0.28501331667E+02 -0.36128778978E+02  0.58408143282E+02  0.00000000000E+00 0. -1.
         21    1    1    2  504  503  0.73885247304E+02  0.11135219632E+03  0.34049148527E+03  0.36577697157E+03  0.00000000000E+00 0. -1.
         21    1    1    2  505  502  0.48092062858E+02 -0.37490943614E+02 -0.29402581687E+02  0.67697335050E+02  0.00000000000E+00 0.  1.
          1    1    1    2  501    0 -0.86006535576E+02 -0.45359921034E+02 -0.19782031245E+03  0.22042577575E+03  0.00000000000E+00 0.  1.
<scales pt_clust_3="35.58055" pt_clust_4="133.44718" pt_clust_5="60.97883" pt_clust_6="35.58055"></scales>
<clustering>
<clus scale="   35.581">  3  6 -1 -1</clus>
<clus scale="   60.979">  2  5  1 -1</clus>
<clus scale="  133.447">  1  4  2 -1</clus>
<clus scale="  133.447">  1  3  2 -1</clus>
</clustering>
</event>
<event>
 6    0  0.3643696E+002  0.1940936E+03  0.7546771E-02  0.1154820E+00
          2   -1    0    0  504    0 -0.00000000000E+00  0.00000000000E+00  0.24705951896E+03  0.24705951896E+03  0.00000000000E+00 0.  1.
         21   -1    0    0  503  502  0.00000000000E+00 -0.00000000000E+00 -0.23084059627E+04  0.23084059627E+04  0.00000000000E+00 0. -1.
         21    1    1    2  503  501 -0.60968042118E+02  0.10430560357E+03  0.72440078112E+01  0.12103403135E+03  0.00000000000E+00 0. -1.
         21    1    1    2  504  505  0.48427956439E+02 -0.25031349105E+02  0.10727612489E+03  0.12033288151E+03  0.00000000000E+00 0.  1.
         21    1    1    2  505  502  0.12345340882E+02 -0.18277316740E+03 -0.22001709502E+04  0.22077841037E+04  0.00000000000E+00 0. -1.
          2    1    1    2  501    0  0.19474479723E+00  0.10349891293E+03  0.24304373813E+02  0.10631446510E+03  0.00000000000E+00 0.  1.
<scales pt_clust_3="60.09832" pt_clust_4="54.51454" pt_clust_5="184.00110" pt_clust_6="60.09832"></scales>
<clustering>
<clus scale="   54.515">  1  4  2 -1</clus>
<clus scale="   60.098">  3  6 -1 -1</clus>
<clus scale="  184.001">  2  5  1 -1</clus>
<clus scale="  184.001">  2  3  1 -1</clus>
</clustering>
</event>
<event>
 6    0  0.3643696E+002  0.8509959E+02  0.7546771E-02  0.1315172E+00
         21   -1    0    0  504  502  0.00000000000E+00  0.00000000000E+00  0.36600422870E+02  0.36600422870E+02  0.00000000000E+00 0.  1.
          1   -1    0    0  505    0 -0.00000000000E+00 -0.00000000000E+00 -0.98942327118E+03  0.98942327118E+03  0.00000000000E+00 0.  1.
         21    1    1    2  503  502 -0.19469346542E+02  0.97391229246E+02 -0.18989292336E+03  0.21429752525E+03  0.00000000000E+00 0.  1.
         21    1    1    2  504  501 -0.38990939842E+02 -0.11184472477E+02 -0.12107340973E+02  0.42331708208E+02  0.00000000000E+00 0.  1.
         21    1    1    2  505  503 -0.30513940809E+02 -0.70676168426E+02 -0.31012700427E+03  0.31953869898E+03  0.00000000000E+00 0.  1.
          1    1    1    2  501    0  0.88974227193E+02 -0.15530588342E+02 -0.44069557971E+03  0.44985576161E+03  0.00000000000E+00 0.  1.
<scales pt_clust_3="14000.00000" pt_clust_4="40.56336" pt_clust_5="85.09959" pt_clust_6="82.62890"></scales>
<clustering>
<clus scale="   40.563">  1  4  2 -1</clus>
<clus scale="   82.629">  2  6  1 -1</clus>
<clus scale="   85.100">  2  5  1 -1</clus>
<clus scale="   40.563">  1  3  2 -1</clus>
</clustering>
</event>
<event>
 6    0  0.3643696E+002  0.9328245E+02  0.7546771E-02  0.1295092E+00
          1   -1    0    0  503    0 -0.00000000000E+00  0.00000000000E+00  0.18446752601E+04  0.18446752601E+04  0.00000000000E+00 0. -1.
         21   -1    0    0  501  502  0.00000000000E+00 -0.00000000000E+00 -0.23512638338E+02  0.23512638338E+02  0.00000000000E+00 0. -1.
         21    1    1    2  503  505 -0.27475266539E+02 -0.20878753353E+02  0.84518437430E+03  0.84588855009E+03  0.00000000000E+00 0. -1.
         21    1    1    2  504  502  0.11916138699E+03  0.63216526941E+02  0.46722720299E+03  0.48630959752E+03  0.00000000000E+00 0. -1.
         21    1    1    2  505  504 -0.16596756358E+02 -0.76908940935E+02  0.32684079139E+03  0.33617754302E+03  0.00000000000E+00 0. -1.
          1    1    1    2  501    0 -0.75089364094E+02  0.34571167347E+02  0.18191025312E+03  0.19981220784E+03  0.00000000000E+00 0. -1.
<scales pt_clust_3="34.50815" pt_clust_4="93.28245" pt_clust_5="14000.00000" pt_clust_6="85.96207"></scales>
<clustering>
<clus scale="   34.508">  1  3  2 -1</clus>
<clus scale="   85.962">  2  6  1 -1</clus>
<clus scale="   93.282">  2  4  1 -1</clus>
<clus scale="   85.962">  2  3  1 -1</clus>
</clustering>
</event>
<event>
 6    0  0.3643696E+002  0.1186936E+03  0.7546771E-02  0.1245268E+00
         21   -1    0    0  505  502  0.00000000000E+00  0.00000000000E+00  0.13915114941E+03  0.13915114941E+03  0.00000000000E+00 0. -1.
         -1   -1    0    0    0  501 -0.00000000000E+00 -0.00000000000E+00 -0.15676740661E+04  0.15676740661E+04  0.00000000000E+00 0.  1.
         21    1    1    2  503  504 -0.27143611107E+01 -0.12207081174E+03 -0.33867534074E+03  0.36001338484E+03  0.00000000000E+00 0.  1.
         21    1    1    2  504  502  0.18409618337E+02  0.79631613041E+02  0.10941969599E+03  0.13657517239E+03  0.00000000000E+00 0. -1.
         21    1    1    2  505  501 -0.51202995306E+01  0.97458907869E+02 -0.93598084555E+03  0.94105504590E+03  0.00000000000E+00 0.  1.
         -1    1    1    2    0  503 -0.10574957696E+02 -0.55019709173E+02 -0.26328642641E+03  0.26918161241E+03  0.00000000000E+00 0.  1.
<scales pt_clust_3="30.22337" pt_clust_4="81.73193" pt_clust_5="109.98842" pt_clust_6="30.22337"></scales>
<clustering>
<clus scale="   30.223">  3  6 -1 -1</clus>
<clus scale="   81.732">  1  4  2 -1</clus>
<clus scale="  109.988">  2  5  1 -1</clus>
<clus scale="   81.732">  1  3  2 -1</clus>
</clustering>
</event>
<event>
 6    0  0.3643696E+002  0.2888176E+03  0.7546771E-02  0.1090968E+00
         21   -1    0    0  501  502  0.00000000000E+00  0.00000000000E+00  0.10579627319E+04  0.10579627319E+04  0.00000000000E+00 0.  1.
          1   -1    0    0  503    0 -0.00000000000E+00 -0.00000000000E+00 -0.51275833341E+03  0.51275833341E+03  0.00000000000E+00 0.  1.
         21    1    1    2  503  505  0.27268112861E+02  0.65557090183E+02 -0.27748229261E+03  0.28642224907E+03  0.00000000000E+00 0.  1.
         21    1    1    2  504  502 -0.55906966918E+02 -0.94313062590E+02  0.43776145568E+03  0.45128221193E+03  0.00000000000E+00 0.  1.
         21    1    1    2  505  504  0.24736315229E+01 -0.31535250774E+03 -0.91079988457E+00  0.31536352444E+03  0.00000000000E+00 0.  1.
          1    1    1    2  501    0  0.26165222534E+02  0.34410848014E+03  0.38583603533E+03  0.51765307991E+03  0.00000000000E+00 0.  1.
<scales pt_clust_3="71.00199" pt_clust_4="107.57958" pt_clust_5="14000.00000" pt_clust_6="288.81759"></scales>
<clustering>
<clus scale="   71.002">  2  3  1 -1</clus>
<clus scale="  107.580">  1  4  2 -1</clus>
<clus scale="  288.818">  1  6  2 -1</clus>
<clus scale="  107.580">  1  3  2 -1</clus>
</clustering>
</event>
<event>
 6    0  0.3643696E+002  0.1519086E+03  0.7546771E-02  0.1198147E+00
          1   -1    0    0  503    0 -0.00000000000E+00  0.00000000000E+00  0.23537577939E+04  0.23537577939E+04  0.00000000000E+00 0.  1.
         21   -1    0    0  505  502  0.00000000000E+00 -0.00000000000E+00 -0.29360245981E+02  0.29360245981E+02  0.00000000000E+00 0. -1.
         21    1    1    2  503  502 -0.48258270748E+02 -0.25090661905E+01  0.15533678158E+03  0.16267966013E+03  0.00000000000E+00 0. -1.
         21    1    1    2  504  501  0.57589652170E+02  0.10966273652E+03  0.55954303585E+03  0.57308890479E+03  0.00000000000E+00 0. -1.
         21    1    1    2  505  504  0.80873840027E+02  0.40395979738E+02  0.13346127580E+03  0.16119654251E+03  0.00000000000E+00 0. -1.
          1    1    1    2  501    0 -0.90205221448E+02 -0.14754965007E+03  0.14760564547E+04  0.14861529325E+04  0.00000000000E+00 0.  1.
<scales pt_clust_3="48.32345" pt_clust_4="151.90859" pt_clust_5="67.30338" pt_clust_6="14000.00000"></scales>
<clustering>
<clus scale="   48.323">  2  3  1 -1</clus>
<clus scale="   67.303">  2  5  1 -1</clus>
<clus scale="  151.909">  2  4  1 -1</clus>
<clus scale="   48.323">  2  3  1 -1</clus>
</clustering>
</event>
<event>
 6    0  0.3643696E+002  0.8133641E+02  0.7546771E-02  0.1325301E+00
         21   -1    0    0  503  502  0.00000000000E+00  0.00000000000E+00  0.41484585381E+03  0.41484585381E+03  0.00000000000E+00 0.  1.
          4   -1    0    0  504    0 -0.00000000000E+00 -0.00000000000E+00 -0.12972987356E+04  0.12972987356E+04  0.00000000000E+00 0. -1.
         21    1    1    2  503  501  0.31366080887E+02  0.17320476168E+02 -0.13174754176E+02  0.38175961972E+02  0.00000000000E+00 0.  1.
         21    1    1    2  504  505 -0.31538172285E+02 -0.11430656276E+03 -0.16908550954E+03  0.20652011073E+03  0.00000000000E+00 0.  1.
         21    1    1    2  505  502  0.21783080223E+02  0.40991156468E+02  0.38138864152E+03  0.38420316679E+03  0.00000000000E+00 0.  1.
          4    1    1    2  501    0 -0.21610988826E+02  0.55994930120E+02 -0.10815812596E+04  0.10832453499E+04  0.00000000000E+00 0. -1.
<scales pt_clust_3="35.83057" pt_clust_4="81.33641" pt_clust_5="14000.00000" pt_clust_6="60.03066"></scales>
<clustering>
<clus scale="   35.831">  1  3  2 -1</clus>
<clus scale="   60.031">  2  6  1 -1</clus>
<clus scale="   81.336">  2  4  1 -1</clus>
<clus scale="   35.831">  1  3  2 -1</clus>
</clustering>
</event>
<event>
 6    0  0.3643696E+002  0.2326072E+03  0.7546771E-02  0.1124818E+00
          1   -1    0    0  505    0 -0.00000000000E+00  0.00000000000E+00  0.20236988124E+04  0.20236988124E+04  0.00000000000E+00 0. -1.
         21   -1    0    0  504  502  0.00000000000E+00 -0.00000000000E+00 -0.30153449249E+03  0.30153449249E+03  0.00000000000E+00 0.  1.
         21    1    1    2  503  502 -0.95449296554E+02  0.47682032330E+02  0.88033342127E+03  0.88677566331E+03  0.00000000000E+00 0. -1.
         21    1    1    2  504  501  0.38253289605E+02 -0.17425410839E+02 -0.26787164992E+03  0.27114973712E+03  0.00000000000E+00 0.  1.
         21    1    1    2  505  503 -0.38635577019E+02  0.12589084299E+03  0.77160865982E+03  0.78276505803E+03  0.00000000000E+00 0. -1.
          1    1    1    2  501    0  0.95831583968E+02 -0.15614746448E+03  0.33809388870E+03  0.38454284641E+03  0.00000000000E+00 0. -1.
<scales pt_clust_3="91.39066" pt_clust_4="42.03521" pt_clust_5="91.39066" pt_clust_6="209.18607"></scales>
<clustering>
<clus scale="   42.035">  2  4  1 -1</clus>
<clus scale="   91.391">  3  5 -1 -1</clus>
<clus scale="  209.186">  2  6  1 -1</clus>
<clus scale="   42.035">  2  3  1 -1</clus>
</clustering>
</event>
<event>
 6    0  0.3643696E+002  0.1078117E+03  0.7546771E-02  0.1264677E+00
         21   -1    0    0  503  502  0.00000000000E+00  0.00000000000E+00  0.11854619510E+03  0.11854619510E+03  0.00000000000E+00 0.  1.
          2   -1    0    0  505    0 -0.00000000000E+00 -0.00000000000E+00 -0.80521914951E+03  0.80521914951E+03  0.00000000000E+00 0.  1.
         21    1    1    2  503  501  0.95011515713E+02  0.51811927194E+02  0.78141026494E+02  0.13348289755E+03  0.00000000000E+00 0.  1.
         21    1    1    2  504  502  0.24320320428E+02 -0.32339951752E+02 -0.16333215459E+03  0.16826985228E+03  0.00000000000E+00 0.  1.
         21    1    1    2  505  504 -0.29596024948E+02  0.24252216576E+02 -0.58302394865E+02  0.69737105967E+02  0.00000000000E+00 0.  1.
          2    1    1    2  501    0 -0.89735811193E+02 -0.43724192019E+02 -0.54317943146E+03  0.55227548881E+03  0.00000000000E+00 0.  1.
<scales pt_clust_3="107.81171" pt_clust_4="32.21333" pt_clust_5="38.26349" pt_clust_6="14000.00000"></scales>
<clustering>
<clus scale="   38.263">  2  5  1 -1</clus>
<clus scale="   32.213">  2  4  1 -1</clus>
<clus scale="  107.812">  1  3  2 -1</clus>
<clus scale="  107.812">  1  3  2 -1</clus>
</clustering>
</event>
<event>
 6    0  0.3643696E+002  0.2168244E+03  0.7546771E-02  0.1136273E+00
         -2   -1    0    0    0  501 -0.00000000000E+00  0.00000000000E+00  0.16237852437E+03  0.16237852437E+03  0.00000000000E+00 0.  1.
         21   -1    0    0  505  502  0.00000000000E+00 -0.00000000000E+00 -0.54923633741E+03  0.54923633741E+03  0.00000000000E+00 0.  1.
         21    1    1    2  503  504  0.77460113850E+02  0.75943128763E+02 -0.89021719234E+02  0.14032923622E+03  0.00000000000E+00 0.  1.
         21    1    1    2  504  502  0.49199059017E+02 -0.63161119422E+02 -0.21419692930E+03  0.22867050299E+03  0.00000000000E+00 0.  1.
         21    1    1    2  505  501 -0.21544287391E+03 -0.60070205749E+02 -0.22235947257E+02  0.22476320625E+03  0.00000000000E+00 0.  1.
         -2    1    1    2    0  503  0.88783701039E+02  0.47288196408E+02 -0.61403217240E+02  0.11785191631E+03  0.00000000000E+00 0.  1.
<scales pt_clust_3="33.45362" pt_clust_4="80.06169" pt_clust_5="214.02325" pt_clust_6="33.45362"></scales>
<clustering>
<clus scale="   33.454">  3  6 -1 -1</clus>
<clus scale="   80.062">  2  4  1 -1</clus>
<clus scale="  214.023">  1  5  2 -1</clus>
<clus scale="   80.062">  2  3  1 -1</clus>
</clustering>
</event>
<event>
 6    0  0.3643696E+002  0.2380988E+03  0.7546771E-02  0.1121066E+00
          2   -1    0    0  504    0 -0.00000000000E+00  0.00000000000E+00  0.26162852060E+04  0.26162852060E+04  0.00000000000E+00 0.  1.
         21   -1    0    0  505  502  0.00000000000E+00 -0.00000000000E+00 -0.48975284865E+03  0.48975284865E+03  0.00000000000E+00 0.  1.
         21    1    1    2  503  502  0.70347413041E+02 -0.78377793957E+01  0.96050401391E+02  0.11931416058E+03  0.00000000000E+00 0. -1.
         21    1    1    2  504  503 -0.46395394264E+02  0.29296473477E+02  0.13928458086E+04  0.13939262041E+04  0.00000000000E+00 0.  1.
         21    1    1    2  505  501 -0.19875144542E+03 -0.13268239725E+03 -0.43716112775E+03  0.49821341533E+03  0.00000000000E+00 0.  1.
          2    1    1    2  501    0  0.17479942665E+03  0.11122370317E+03  0.10747972752E+04  0.10945842747E+04  0.00000000000E+00 0.  1.
<scales pt_clust_3="66.47037" pt_clust_4="54.87090" pt_clust_5="238.09882" pt_clust_6="14000.00000"></scales>
<clustering>
<clus scale="   54.871">  1  4  2 -1</clus>
<clus scale="   66.470">  1  3  2 -1</clus>
<clus scale="  238.099">  2  5  1 -1</clus>
<clus scale="  238.099">  2  3  1 -1</clus>
</clustering>
</event>
<event>
 6    0  0.3643696E+002  0.2248866E+03  0.7546771E-02  0.1130291E+00
         21   -1    0    0  504  502  0.00000000000E+00  0.00000000000E+00  0.20456991144E+03  0.20456991144E+03  0.00000000000E+00 0. -1.
         -3   -1    0    0    0  501 -0.00000000000E+00 -0.00000000000E+00 -0.43141766154E+03  0.43141766154E+03  0.00000000000E+00 0.  1.
         21    1    1    2  503  502 -0.35505264594E+02 -0.26296021487E+02 -0.20751431270E+02  0.48813179160E+02  0.00000000000E+00 0.  1.
         21    1    1    2  504  505  0.32464402152E+02  0.21315984006E+03  0.76970679645E+02  0.22894440449E+03  0.00000000000E+00 0. -1.
         21    1    1    2  505  501  0.29529630896E+02 -0.20468579655E+02 -0.11405052104E+03  0.11957626522E+03  0.00000000000E+00 0.  1.
         -3    1    1    2    0  503 -0.26488768454E+02 -0.16639523892E+03 -0.16901647743E+03  0.23865372411E+03  0.00000000000E+00 0.  1.
<scales pt_clust_3="36.79543" pt_clust_4="211.94768" pt_clust_5="35.92996" pt_clust_6="36.79543"></scales>
<clustering>
<clus scale="   35.930">  2  5  1 -1</clus>
<clus scale="   36.795">  3  6 -1 -1</clus>
<clus scale="  211.948">  1  4  2 -1</clus>
<clus scale="  211.948">  1  3  2 -1</clus>
</clustering>
</event>
<event>
 6    0  0.3643696E+002  0.1984049E+03  0.7546771E-02  0.1151092E+00
         21   -1    0    0  503  502  0.00000000000E+00  0.00000000000E+00  0.27147121135E+03  0.27147121135E+03  0.00000000000E+00 0. -1.
         -1   -1    0    0    0  501 -0.00000000000E+00 -0.00000000000E+00 -0.20123986213E+03  0.20123986213E+03  0.00000000000E+00 0.  1.
         21    1    1    2  503  505  0.21783289624E+02  0.33041102776E+02 -0.24473969393E+00  0.39576332283E+02  0.00000000000E+00 0.  1.
         21    1    1    2  504  501  0.26301805385E+02 -0.15056422623E+02 -0.21367775858E+01  0.30381682757E+02  0.00000000000E+00 0. -1.
         21    1    1    2  505  504  0.12447040457E+03  0.72505852465E+02  0.13575106008E+03  0.19793516759E+03  0.00000000000E+00 0. -1.
         -1    1    1    2    0  502 -0.17255549958E+03 -0.90490532617E+02 -0.63138193577E+02  0.20481789086E+03  0.00000000000E+00 0.  1.
<scales pt_clust_3="38.75715" pt_clust_4="30.30645" pt_clust_5="38.75715" pt_clust_6="183.97021"></scales>
<clustering>
<clus scale="   30.306">  2  4  1 -1</clus>
<clus scale="   38.757">  3  5 -1 -1</clus>
<clus scale="  183.970">  2  6  1 -1</clus>
<clus scale="  198.405">  1  3  2 -1</clus>
</clustering>
</event>
<event>
 6    0  0.3643696E+002  0.1257786E+03  0.7546771E-02  0.1233857E+00
          1   -1    0    0  505    0 -0.00000000000E+00  0.00000000000E+00  0.28915407747E+03  0.28915407747E+03  0.00000000000E+00 0.  1.
         21   -1    0    0  504  502  0.00000000000E+00 -0.00000000000E+00 -0.16872739921E+03  0.16872739921E+03  0.00000000000E+00 0.  1.
         21    1    1    2  503  501  0.50562828325E+02 -0.28783449801E+02  0.61424542019E+02  0.84605324614E+02  0.00000000000E+00 0.  1.
         21    1    1    2  504  503 -0.10781711985E+03  0.46438776963E+02 -0.12154119645E+03  0.16897737651E+03  0.00000000000E+00 0.  1.
         21    1    1    2  505  502  0.15854481500E+02  0.26133057469E+02  0.33301298537E+02  0.45202630018E+02  0.00000000000E+00 0. -1.
          1    1    1    2  501    0  0.41399810026E+02 -0.43788384631E+02  0.14724203416E+03  0.15909614553E+03  0.00000000000E+00 0.  1.
<scales pt_clust_3="45.73067" pt_clust_4="117.02733" pt_clust_5="30.56634" pt_clust_6="45.73067"></scales>
<clustering>
<clus scale="   30.566">  1  5  2 -1</clus>
<clus scale="   45.731">  3  6 -1 -1</clus>
<clus scale="  117.027">  2  4  1 -1</clus>
<clus scale="  117.027">  2  3  1 -1</clus>
</clustering>
</event>
<event>
 6    0  0.3643696E+002  0.1531537E+03  0.7546771E-02  0.1196650E+00
          1   -1    0    0  504    0 -0.00000000000E+00  0.00000000000E+00  0.29880160557E+03  0.29880160557E+03  0.00000000000E+00 0.  1.
         21   -1    0    0  505  502  0.00000000000E+00 -0.00000000000E+00 -0.44106360238E+03  0.44106360238E+03  0.00000000000E+00 0.  1.
         21    1    1    2  503  502  0.86073370851E+02  0.32253892049E+02  0.64086058466E+01  0.92141244569E+02  0.00000000000E+00 0.  1.
         21    1    1    2  504  503  0.56805778915E+02 -0.12158887144E+02  0.16241908635E+02  0.60320267330E+02  0.00000000000E+00 0. -1.
         21    1    1    2  505  501 -0.95164555757E+01 -0.11062998945E+03 -0.33508825378E+03  0.35300665052E+03  0.00000000000E+00 0.  1.
          1    1    1    2  501    0 -0.13336269419E+03  0.90534984544E+02  0.17017574248E+03  0.23439704554E+03  0.00000000000E+00 0.  1.
<scales pt_clust_3="34.77285" pt_clust_4="34.77285" pt_clust_5="111.03854" pt_clust_6="146.77482"></scales>
<clustering>
<clus scale="   34.773">  3  4 -1 -1</clus>
<clus scale="  111.039">  2  5  1 -1</clus>
<clus scale="  146.775">  1  6  2 -1</clus>
<clus scale="  111.039">  2  3  1 -1</clus>
</clustering>
</event>
<event>
 6    0  0.3643696E+002  0.1863602E+03  0.7546771E-02  0.1161786E+00
          2   -1    0    0  503    0 -0.00000000000E+00  0.00000000000E+00  0.38994640023E+04  0.38994640023E+04  0.00000000000E+00 0. -1.
         21   -1    0    0  505  502  0.00000000000E+00 -0.00000000000E+00 -0.23033344923E+02  0.23033344923E+02  0.00000000000E+00 0.  1.
         21    1    1    2  503  504 -0.25157477457E+02 -0.35582416708E+02  0.49034355195E+03  0.49227614810E+03  0.00000000000E+00 0.  1.
         21    1    1    2  504  502  0.38195582345E+02 -0.16838322010E+03  0.38944715936E+03  0.42600575261E+03  0.00000000000E+00 0.  1.
         21    1    1    2  505  501 -0.10399723471E+02  0.51319696351E+02  0.45683439530E+03  0.45982554324E+03  0.00000000000E+00 0. -1.
          2    1    1    2  501    0 -0.26383814182E+01  0.15264594046E+03  0.25398055508E+04  0.25443899033E+04  0.00000000000E+00 0. -1.
<scales pt_clust_3="43.57760" pt_clust_4="176.18919" pt_clust_5="35.56338" pt_clust_6="35.56338"></scales>
<clustering>
<clus scale="   35.563">  5  6 -1 -1</clus>
<clus scale="   43.578">  1  3  2 -1</clus>
<clus scale="  176.189">  2  4  1 -1</clus>
<clus scale="  176.189">  2  3  1 -1</clus>
</clustering>
</event>
<event>
 6    0  0.3643696E+002  0.1069264E+03  0.7546771E-02  0.1266370E+00
          4   -1    0    0  505    0 -0.00000000000E+00  0.00000000000E+00  0.23043077209E+03  0.23043077209E+03  0.00000000000E+00 0. -1.
         21   -1    0    0  501  502  0.00000000000E+00 -0.00000000000E+00 -0.11394491825E+03  0.11394491825E+03  0.00000000000E+00 0. -1.
         21    1    1    2  503  502 -0.30381112789E+02 -0.55002944343E+02 -0.33579241652E+02  0.71245360344E+02  0.00000000000E+00 0. -1.
         21    1    1    2  504  503 -0.15378558087E+02 -0.43739306635E+02  0.17063735952E+02  0.49404433793E+02  0.00000000000E+00 0. -1.
         21    1    1    2  505  504 -0.24851139625E+02 -0.23140630108E+02  0.49337692329E+02  0.59893871029E+02  0.00000000000E+00 0. -1.
          4    1    1    2  501    0  0.70610810502E+02  0.12188288109E+03  0.83663667206E+02  0.16383202517E+03  0.00000000000E+00 0. -1.
<scales pt_clust_3="62.83579" pt_clust_4="32.53863" pt_clust_5="32.53863" pt_clust_6="99.93818"></scales>
<clustering>
<clus scale="   32.539">  4  5 -1 -1</clus>
<clus scale="   62.836">  2  3  1 -1</clus>
<clus scale="   99.938">  2  6  1 -1</clus>
<clus scale="   62.836">  2  3  1 -1</clus>
</clustering>
</event>
<event>
 6    0  0.3643696E+002  0.9736539E+02  0.7546771E-02  0.1285936E+00
          2   -1    0    0  504    0 -0.00000000000E+00  0.00000000000E+00  0.32166736304E+03  0.32166736304E+03  0.00000000000E+00 0. -1.
         21   -1    0    0  505  502  0.00000000000E+00 -0.00000000000E+00 -0.15225391585E+03  0.15225391585E+03  0.00000000000E+00 0. -1.
         21    1    1    2  503  501 -0.13402493364E+02 -0.11194699031E+03  0.77090001684E+02  0.13658193082E+03  0.00000000000E+00 0. -1.
         21    1    1    2  504  502  0.34576830766E+02  0.41704525753E+02  0.38128780730E+02  0.66246725308E+02  0.00000000000E+00 0. -1.
         21    1    1    2  505  503  0.62134323188E+02  0.54259168140E+01 -0.79312918212E+02  0.10089922540E+03  0.00000000000E+00 0. -1.
          2    1    1    2  501    0 -0.83308660589E+02  0.64816547740E+02  0.13350758299E+03  0.17019339736E+03  0.00000000000E+00 0. -1.
<scales pt_clust_3="97.36539" pt_clust_4="54.17402" pt_clust_5="63.91435" pt_clust_6="14000.00000"></scales>
<clustering>
<clus scale="   54.174">  1  4  2 -1</clus>
<clus scale="   63.914">  2  5  1 -1</clus>
<clus scale="   97.365">  2  3  1 -1</clus>
<clus scale="   63.914">  2  3  1 -1</clus>
</clustering>
</event>
<event>
 6    0  0.3643696E+002  0.2300544E+03  0.7546771E-02  0.1126601E+00
         21   -1    0    0  504  502  0.00000000000E+00  0.00000000000E+00  0.10173104538E+03  0.10173104538E+03  0.00000000000E+00 0.  1.
          1   -1    0    0  503    0 -0.00000000000E+00 -0.00000000000E+00 -0.14025968351E+04  0.14025968351E+04  0.00000000000E+00 0.  1.
         21    1    1    2  503  505 -0.20155745018E+02 -0.23352507809E+02 -0.39795526690E+03  0.39914908009E+03  0.00000000000E+00 0.  1.
         21    1    1    2  504  501 -0.63601005446E+02  0.18836544200E+03 -0.34630933640E+03  0.39932040282E+03  0.00000000000E+00 0.  1.
         21    1    1    2  505  502  0.15967185087E+03 -0.19813726904E+03 -0.15974923469E+03  0.30045514695E+03  0.00000000000E+00 0.  1.
          1    1    1    2  501    0 -0.75915100407E+02  0.33124334847E+02 -0.39685195175E+03  0.40540325065E+03  0.00000000000E+00 0.  1.
<scales pt_clust_3="30.84791" pt_clust_4="14000.00000" pt_clust_5="230.05443" pt_clust_6="87.27394"></scales>
<clustering>
<clus scale="   30.848">  2  3  1 -1</clus>
<clus scale="   87.274">  2  6  1 -1</clus>
<clus scale="  230.054">  1  5  2 -1</clus>
<clus scale="  230.054">  1  3  2 -1</clus>
</clustering>
</event>
<event>
 6    0  0.3643696E+002  0.1139755E+03  0.7546771E-02  0.1253380E+00
         21   -1    0    0  504  502  0.00000000000E+00  0.00000000000E+00  0.17568909574E+03  0.17568909574E+03  0.00000000000E+00 0. -1.
          2   -1    0    0  505    0 -0.00000000000E+00 -0.00000000000E+00 -0.19633114713E+04  0.19633114713E+04  0.00000000000E+00 0.  1.
         21    1    1    2  503  502 -0.11123343771E+03 -0.24705193994E+02  0.15098904335E+03  0.18915844016E+03  0.00000000000E+00 0. -1.
         21    1    1    2  504  501  0.11640985952E+03  0.90169137408E+01 -0.98989275854E+03  0.99675485128E+03  0.00000000000E+00 0.  1.
         21    1    1    2  505  503 -0.14654869833E+02 -0.32680876993E+02 -0.24012426782E+03  0.24278070131E+03  0.00000000000E+00 0. -1.
          2    1    1    2  501    0  0.94784480227E+01  0.48369157246E+02 -0.70859439253E+03  0.71030657429E+03  0.00000000000E+00 0.  1.
<scales pt_clust_3="14000.00000" pt_clust_4="113.97551" pt_clust_5="35.81627" pt_clust_6="35.07292"></scales>
<clustering>
<clus scale="   35.816">  2  5  1 -1</clus>
<clus scale="   35.073">  2  6  1 -1</clus>
<clus scale="  113.976">  2  4  1 -1</clus>
<clus scale="  113.976">  1  3  2 -1</clus>
</clustering>
</event>
<event>
 6    0  0.3643696E+002  0.8016946E+02  0.7546771E-02  0.1328571E+00
         21   -1    0    0  505  502  0.00000000000E+00  0.00000000000E+00  0.69347748856E+03  0.69347748856E+03  0.00000000000E+00 0. -1.
          2   -1    0    0  504    0 -0.00000000000E+00 -0.00000000000E+00 -0.40104957344E+04  0.40104957344E+04  0.00000000000E+00 0.  1.
         21    1    1    2  503  502  0.13093385574E+02 -0.47064189695E+02 -0.23682861671E+03  0.24181453304E+03  0.00000000000E+00 0. -1.
         21    1    1    2  504  503 -0.49758824700E+01 -0.46786272204E+02 -0.23034574230E+04  0.23039378928E+04  0.00000000000E+00 0.  1.
         21    1    1    2  505  501  0.72547637507E+02  0.34239048422E+02  0.68669268874E+03  0.69136265514E+03  0.00000000000E+00 0. -1.
          2    1    1    2  501    0 -0.80665140611E+02  0.59611413476E+02 -0.14634248949E+04  0.14668581420E+04  0.00000000000E+00 0.  1.
<scales pt_clust_3="55.03844" pt_clust_4="47.05013" pt_clust_5="14000.00000" pt_clust_6="80.16946"></scales>
<clustering>
<clus scale="   47.050">  2  4  1 -1</clus>
<clus scale="   55.038">  2  3  1 -1</clus>
<clus scale="   80.169">  2  6  1 -1</clus>
<clus scale="   80.169">  1  3  2 -1</clus>
</clustering>
</event>
<event>
 6    0  0.3643696E+002  0.1214175E+03  0.7546771E-02  0.1240777E+00
         -2   -1    0    0    0  501 -0.00000000000E+00  0.00000000000E+00  0.75357514764E+02  0.75357514764E+02  0.00000000000E+00 0.  1.
         21   -1    0    0  504  502  0.00000000000E+00 -0.00000000000E+00 -0.66754867352E+03  0.66754867352E+03  0.00000000000E+00 0. -1.
         21    1    1    2  503  501  0.55015130265E+02 -0.52492949558E+02 -0.16104014027E+03  0.17809014877E+03  0.00000000000E+00 0. -1.
         21    1    1    2  504  503  0.40321860022E+02 -0.22708751929E+02 -0.42914802324E+03  0.43163591795E+03  0.00000000000E+00 0. -1.
         21    1    1    2  505  502 -0.79255461676E+02  0.33865970202E+02 -0.13796891363E+02  0.87285086667E+02  0.00000000000E+00 0.  1.
         -2    1    1    2    0  505 -0.16081528612E+02  0.41335731285E+02  0.11793896112E+02  0.45895034905E+02  0.00000000000E+00 0.  1.
<scales pt_clust_3="108.41458" pt_clust_4="46.27677" pt_clust_5="39.21650" pt_clust_6="39.21650"></scales>
<clustering>
<clus scale="   39.216">  5  6 -1 -1</clus>
<clus scale="   46.277">  2  4  1 -1</clus>
<clus scale="  108.415">  2  3  1 -1</clus>
<clus scale="   46.277">  2  3  1 -1</clus>
</clustering>
</event>
<event>
 6    0  0.3643696E+002  0.9717877E+02  0.7546771E-02  0.1286343E+00
         21   -1    0    0  503  502  0.00000000000E+00  0.00000000000E+00  0.70040528112E+02  0.70040528112E+02  0.00000000000E+00 0.  1.
          2   -1    0    0  505    0 -0.00000000000E+00 -0.00000000000E+00 -0.10254290763E+04  0.10254290763E+04  0.00000000000E+00 0. -1.
         21    1    1    2  503  501  0.23517722840E+02  0.11669559484E+03 -0.44390374731E+03  0.45958838325E+03  0.00000000000E+00 0.  1.
         21    1    1    2  504  502 -0.58726890397E+02 -0.76166935101E+02  0.13451418792E+02  0.97114315762E+02  0.00000000000E+00 0.  1.
         21    1    1    2  505  504 -0.21570320278E+02 -0.35604831460E+02 -0.79882323472E+02  0.90078678629E+02  0.00000000000E+00 0.  1.
          2    1    1    2  501    0  0.56779487834E+02 -0.49238282758E+01 -0.44505389622E+03  0.44868822680E+03  0.00000000000E+00 0. -1.
<scales pt_clust_3="14000.00000" pt_clust_4="97.17877" pt_clust_5="41.62911" pt_clust_6="51.40151"></scales>
<clustering>
<clus scale="   41.629">  2  5  1 -1</clus>
<clus scale="   51.402">  2  6  1 -1</clus>
<clus scale="   97.179">  1  4  2 -1</clus>
<clus scale="   97.179">  1  3  2 -1</clus>
</clustering>
</event>
<event>
 6    0  0.3643696E+002  0.9591659E+02  0.7546771E-02  0.1289125E+00
         21   -1    0    0  504  502  0.00000000000E+00  0.00000000000E+00  0.53713497570E+03  0.53713497570E+03  0.00000000000E+00 0. -1.
          2   -1    0    0  505    0 -0.00000000000E+00 -0.00000000000E+00 -0.44959292991E+04  0.44959292991E+04  0.00000000000E+00 0.  1.
         21    1    1    2  503  502  0.48382221695E+02 -0.47478370207E+02  0.52338737609E+03  0.52775882793E+03  0.00000000000E+00 0. -1.
         21    1    1    2  504  501 -0.70414632206E+02  0.20382187329E+01 -0.12466105640E+03  0.14318782681E+03  0.00000000000E+00 0. -1.
         21    1    1    2  505  503 -0.81317758125E+02  0.45584808664E+02 -0.16572790061E+04  0.16598988694E+04  0.00000000000E+00 0.  1.
          2    1    1    2  501    0  0.10335016864E+03 -0.14465718994E+00 -0.27002416370E+04  0.27022187507E+04  0.00000000000E+00 0.  1.
<scales pt_clust_3="67.78669" pt_clust_4="47.93618" pt_clust_5="95.91659" pt_clust_6="14000.00000"></scales>
<clustering>
<clus scale="   67.787">  1  3  2 -1</clus>
<clus scale="   47.936">  1  4  2 -1</clus>
<clus scale="   95.917">  1  5  2 -1</clus>
<clus scale="   67.787">  1  3  2 -1</clus>
</clustering>
</event>
<event>
 6    0  0.3643696E+002  0.1580069E+03  0.7546771E-02  0.1190966E+00
          2   -1    0    0  505    0 -0.00000000000E+00  0.00000000000E+00  0.11046956077E+04  0.11046956077E+04  0.00000000000E+00 0.  1.
         21   -1    0    0  501  502  0.00000000000E+00 -0.00000000000E+00 -0.52653422893E+03  0.52653422893E+03  0.00000000000E+00 0.  1.
         21    1    1    2  503  502  0.33303805590E+02 -0.15438935385E+03 -0.49775959802E+03  0.52221627078E+03  0.00000000000E+00 0.  1.
         21    1    1    2  504  503  0.87156689814E+01 -0.33496821762E+02  0.10048949701E+03  0.10628329579E+03  0.00000000000E+00 0.  1.
         21    1    1    2  505  504  0.26203169959E+00  0.30069297177E+02  0.27266938259E+02  0.40592083161E+02  0.00000000000E+00 0. -1.
          2    1    1    2  501    0 -0.42281506271E+02  0.15781687844E+03  0.94816454156E+03  0.96213818693E+03  0.00000000000E+00 0.  1.
<scales pt_clust_3="14000.00000" pt_clust_4="31.81773" pt_clust_5="30.07044" pt_clust_6="158.00686"></scales>
<clustering>
<clus scale="   30.070">  1  5  2 -1</clus>
<clus scale="   31.818">  1  4  2 -1</clus>
<clus scale="  158.007">  1  6  2 -1</clus>
<clus scale="  158.007">  2  3  1 -1</clus>
</clustering>
</event>
<event>
 6    0  0.3643696E+002  0.8436867E+02  0.7546771E-02  0.1317092E+00
          2   -1    0    0  505    0 -0.00000000000E+00  0.00000000000E+00  0.17828002196E+04  0.17828002196E+04  0.00000000000E+00 0. -1.
         21   -1    0    0  503  502  0.00000000000E+00 -0.00000000000E+00 -0.46399409759E+02  0.46399409759E+02  0.00000000000E+00 0. -1.
         21    1    1    2  503  501  0.11304714862E+02  0.60110805533E+02 -0.83957082184E+01  0.61738103603E+02  0.00000000000E+00 0. -1.
         21    1    1    2  504  502  0.60505177675E+02  0.69354206331E+02  0.10300383450E+04  0.10341420959E+04  0.00000000000E+00 0. -1.
         21    1    1    2  505  504 -0.35778510186E+02 -0.11938710729E+02  0.23793287814E+03  0.24090390015E+03  0.00000000000E+00 0. -1.
          2    1    1    2  501    0 -0.36031382351E+02 -0.11752630114E+03  0.47682529500E+03  0.49241552973E+03  0.00000000000E+00 0. -1.
<scales pt_clust_3="60.85021" pt_clust_4="84.36867" pt_clust_5="37.71783" pt_clust_6="14000.00000"></scales>
<clustering>
<clus scale="   37.718">  1  5  2 -1</clus>
<clus scale="   60.850">  2  3  1 -1</clus>
<clus scale="   84.369">  1  4  2 -1</clus>
<clus scale="   60.850">  2  3  1 -1</clus>
</clustering>
</event>
<event>
 6    0  0.3643696E+002  0.1086888E+03  0.7546771E-02  0.1263018E+00
          2   -1    0    0  505    0 -0.00000000000E+00  0.00000000000E+00  0.16729974881E+04  0.16729974881E+04  0.00000000000E+00 0.  1.
         21   -1    0    0  504  502  0.00000000000E+00 -0.00000000000E+00 -0.74564408272E+02  0.74564408272E+02  0.00000000000E+00 0. -1.
         21    1    1    2  503  502 -0.26209366562E+02 -0.52077945608E+02  0.51042709044E+03  0.51374590799E+03  0.00000000000E+00 0. -1.
         21    1    1    2  504  501 -0.40755484974E+01  0.44203037987E+02 -0.60634885674E+02  0.75147242288E+02  0.00000000000E+00 0. -1.
         21    1    1    2  505  503 -0.57702943292E+02 -0.15702605748E+02  0.38556426643E+03  0.39017432647E+03  0.00000000000E+00 0. -1.
          2    1    1    2  501    0  0.87987858351E+02  0.23577513369E+02  0.76307660862E+03  0.76849441961E+03  0.00000000000E+00 0.  1.
<scales pt_clust_3="46.87936" pt_clust_4="44.39052" pt_clust_5="46.87936" pt_clust_6="95.79899"></scales>
<clustering>
<clus scale="   44.391">  2  4  1 -1</clus>
<clus scale="   46.879">  3  5 -1 -1</clus>
<clus scale="   95.799">  1  6  2 -1</clus>
<clus scale="   44.391">  2  3  1 -1</clus>
</clustering>
</event>
<event>
 6    0  0.3643696E+002  0.1368899E+03  0.7546771E-02  0.1217576E+00
          2   -1    0    0  503    0 -0.00000000000E+00  0.00000000000E+00  0.21118132555E+03  0.21118132555E+03  0.00000000000E+00 0. -1.
         21   -1    0    0  505  502  0.00000000000E+00 -0.00000000000E+00 -0.11762108511E+04  0.11762108511E+04  0.00000000000E+00 0. -1.
         21    1    1    2  503  504 -0.35138566724E+02  0.12873035837E+02  0.10881766754E+02  0.38972384720E+02  0.00000000000E+00 0.  1.
         21    1    1    2  504  502  0.69420468375E+02  0.12888729419E+03 -0.10872476120E+04  0.10970590257E+04  0.00000000000E+00 0. -1.
         21    1    1    2  505  501 -0.36054633056E+02 -0.75167003451E+02 -0.35122503791E+02  0.90463281198E+02  0.00000000000E+00 0.  1.
          2    1    1    2  501    0  0.17727314045E+01 -0.66593326577E+02  0.14645882348E+03  0.16089748505E+03  0.00000000000E+00 0. -1.
<scales pt_clust_3="37.42237" pt_clust_4="14000.00000" pt_clust_5="136.88990" pt_clust_6="62.23965"></scales>
<clustering>
<clus scale="   37.422">  1  3  2 -1</clus>
<clus scale="   62.240">  1  6  2 -1</clus>
<clus scale="  136.890">  1  5  2 -1</clus>
<clus scale="  136.890">  2  3  1 -1</clus>
</clustering>
</event>
<event>
 6    0  0.3643696E+002  0.9255145E+02  0.7546771E-02  0.1296788E+00
         21   -1    0    0  503  502  0.00000000000E+00  0.00000000000E+00  0.42328657807E+03  0.42328657807E+03  0.00000000000E+00 0. -1.
          2   -1    0    0  505    0 -0.00000000000E+00 -0.00000000000E+00 -0.17997382118E+04  0.17997382118E+04  0.00000000000E+00 0. -1.
         21    1    1    2  503  501  0.31732452016E+02  0.51998097306E+02 -0.61963717199E+03  0.62262426514E+03  0.00000000000E+00 0.  1.
         21    1    1    2  504  502 -0.10609076447E+02 -0.81644708572E+02  0.41064361222E+03  0.41881569598E+03  0.00000000000E+00 0. -1.
         21    1    1    2  505  504 -0.28820331606E+02 -0.33700533673E+02 -0.74019047720E+02  0.86285322675E+02  0.00000000000E+00 0.  1.
          2    1    1    2  501    0  0.76969560367E+01  0.63347144939E+02 -0.10934390262E+04  0.10952995061E+04  0.00000000000E+00 0. -1.
<scales pt_clust_3="41.13798" pt_clust_4="82.41936" pt_clust_5="44.34340" pt_clust_6="41.13798"></scales>
<clustering>
<clus scale="   41.138">  3  6 -1 -1</clus>
<clus scale="   44.343">  2  5  1 -1</clus>
<clus scale="   82.419">  1  4  2 -1</clus>
<clus scale="   82.419">  1  3  2 -1</clus>
</clustering>
</event>
<event>
 6    0  0.3643696E+002  0.1175986E+03  0.7546771E-02  0.1247112E+00
          2   -1    0    0  505    0 -0.00000000000E+00  0.00000000000E+00  0.18037735354E+04  0.18037735354E+04  0.00000000000E+00 0. -1.
         21   -1    0    0  501  502  0.00000000000E+00 -0.00000000000E+00 -0.12745242026E+03  0.12745242026E+03  0.00000000000E+00 0. -1.
         21    1    1    2  503  504  0.40708808217E+02 -0.31329293937E+02  0.86686272861E+02  0.10076329504E+03  0.00000000000E+00 0. -1.
         21    1    1    2  504  502 -0.11639158119E+03 -0.21075283656E+02 -0.82851780949E+02  0.14441463000E+03  0.00000000000E+00 0. -1.
         21    1    1    2  505  503 -0.13802592976E+02 -0.33569647488E+02  0.10845946466E+04  0.10852018154E+04  0.00000000000E+00 0. -1.
          2    1    1    2  501    0  0.89485365948E+02  0.85974225081E+02  0.58789197662E+03  0.60084621516E+03  0.00000000000E+00 0. -1.
<scales pt_clust_3="52.80956" pt_clust_4="14000.00000" pt_clust_5="36.29646" pt_clust_6="117.59860"></scales>
<clustering>
<clus scale="   36.296">  1  5  2 -1</clus>
<clus scale="   52.810">  1  3  2 -1</clus>
<clus scale="  117.599">  1  6  2 -1</clus>
<clus scale="  117.599">  2  3  1 -1</clus>
</clustering>
</event>
<event>
 6    0  0.3643696E+002  0.1056425E+03  0.7546771E-02  0.1268859E+00
         -2   -1    0    0    0  501 -0.00000000000E+00  0.00000000000E+00  0.28255220031E+03  0.28255220031E+03  0.00000000000E+00 0. -1.
         21   -1    0    0  503  502  0.00000000000E+00 -0.00000000000E+00 -0.61488080308E+02  0.61488080308E+02  0.00000000000E+00 0. -1.
         21    1    1    2  503  505  0.25054057254E+02 -0.34399232763E+02  0.73756898581E+01  0.43190436447E+02  0.00000000000E+00 0. -1.
         21    1    1    2  504  502 -0.23847054920E+02  0.51972369724E+02  0.48777309142E+02  0.75160063400E+02  0.00000000000E+00 0.  1.
         21    1    1    2  505  501 -0.18196083550E+02 -0.83676100885E+02  0.97393217428E+02  0.12968510368E+03  0.00000000000E+00 0. -1.
         -2    1    1    2    0  504  0.16989081216E+02  0.66102963924E+02  0.67517903571E+02  0.96004677087E+02  0.00000000000E+00 0. -1.
<scales pt_clust_3="42.55600" pt_clust_4="38.66071" pt_clust_5="96.83162" pt_clust_6="38.66071"></scales>
<clustering>
<clus scale="   38.661">  4  6 -1 -1</clus>
<clus scale="   42.556">  2  3  1 -1</clus>
<clus scale="   96.832">  1  5  2 -1</clus>
<clus scale="   42.556">  2  3  1 -1</clus>
</clustering>
</event>
<event>
 6    0  0.3643696E+002  0.9919302E+02  0.7546771E-02  0.1282002E+00
          2   -1    0    0  503    0 -0.00000000000E+00  0.00000000000E+00  0.37975343260E+03  0.37975343260E+03  0.00000000000E+00 0.  1.
         21   -1    0    0  505  502  0.00000000000E+00 -0.00000000000E+00 -0.19224111085E+03  0.19224111085E+03  0.00000000000E+00 0.  1.
         21    1    1    2  503  504  0.69921688162E+02  0.50822185309E+02 -0.14730588734E+01  0.86452917229E+02  0.00000000000E+00 0.  1.
         21    1    1    2  504  502  0.40752321968E+02 -0.88766481586E+01 -0.11901171486E+03  0.12610842518E+03  0.00000000000E+00 0.  1.
         21    1    1    2  505  501 -0.61977936834E+02 -0.83159687372E+02  0.10899354002E+03  0.15045394652E+03  0.00000000000E+00 0. -1.
          2    1    1    2  501    0 -0.48696073296E+02  0.41214150222E+02  0.19900355546E+03  0.20897925452E+03  0.00000000000E+00 0.  1.
<scales pt_clust_3="99.19302" pt_clust_4="41.70787" pt_clust_5="14000.00000" pt_clust_6="61.17475"></scales>
<clustering>
<clus scale="   41.708">  2  4  1 -1</clus>
<clus scale="   61.175">  1  6  2 -1</clus>
<clus scale="   99.193">  2  3  1 -1</clus>
<clus scale="   41.708">  2  3  1 -1</clus>
</clustering>
</event>
<event>
 6    0  0.3656691E+002  0.1212381E+03  0.7546771E-02  0.1241068E+00
          1   -1    0    0  505    0 -0.00000000000E+00  0.00000000000E+00  0.15572479628E+04  0.15572479628E+04  0.00000000000E+00 0.  1.
         21   -1    0    0  503  502  0.00000000000E+00 -0.00000000000E+00 -0.64373981897E+03  0.64373981897E+03  0.00000000000E+00 0.  1.
         21    1    1    2  503  501  0.94035036639E+02  0.23558954653E+02 -0.66352695578E+02  0.11747464693E+03  0.00000000000E+00 0. -1.
         21    1    1    2  504  502  0.18511969077E+02  0.29498874207E+02 -0.54541080438E+03  0.54652156601E+03  0.00000000000E+00 0.  1.
         21    1    1    2  505  504 -0.36738748535E+02 -0.34683919805E+02  0.12897888579E+03  0.13852170558E+03  0.00000000000E+00 0. -1.
          1    1    1    2  501    0 -0.75808257181E+02 -0.18373909055E+02  0.13962927580E+04  0.13984698633E+04  0.00000000000E+00 0.  1.
<scales pt_clust_3="121.23810" pt_clust_4="34.82638" pt_clust_5="48.88108" pt_clust_6="14000.00000"></scales>
<clustering>
<clus scale="   34.826">  2  4  1 -1</clus>
<clus scale="   48.881">  1  5  2 -1</clus>
<clus scale="  121.238">  2  3  1 -1</clus>
<clus scale="   34.826">  2  3  1 -1</clus>
</clustering>
</event>
<event>
 6    0  0.3643696E+002  0.1096968E+03  0.7546771E-02  0.1261132E+00
         21   -1    0    0  503  502  0.00000000000E+00  0.00000000000E+00  0.48823071149E+02  0.48823071149E+02  0.00000000000E+00 0. -1.
          2   -1    0    0  505    0 -0.00000000000E+00 -0.00000000000E+00 -0.72247722897E+03  0.72247722897E+03  0.00000000000E+00 0. -1.
         21    1    1    2  503  501  0.10606437107E+03 -0.17281971632E+02 -0.65343191561E+02  0.12576982960E+03  0.00000000000E+00 0. -1.
         21    1    1    2  504  502 -0.11017035112E+03  0.36199557216E+02 -0.21188781639E+03  0.24154577402E+03  0.00000000000E+00 0. -1.
         21    1    1    2  505  504  0.36135072645E+02 -0.14306078550E+02 -0.13240602603E+03  0.13799189501E+03  0.00000000000E+00 0. -1.
          2    1    1    2  501    0 -0.32029092594E+02 -0.46115070336E+01 -0.26401712384E+03  0.26599280150E+03  0.00000000000E+00 0. -1.
<scales pt_clust_3="14000.00000" pt_clust_4="109.69684" pt_clust_5="30.93171" pt_clust_6="32.35937"></scales>
<clustering>
<clus scale="   32.359">  2  6  1 -1</clus>
<clus scale="   30.932">  2  5  1 -1</clus>
<clus scale="  109.697">  2  4  1 -1</clus>
<clus scale="  109.697">  1  3  2 -1</clus>
</clustering>
</event>
<event>
 6    0  0.3643696E+002  0.1191221E+03  0.7546771E-02  0.1244552E+00
         -2   -1    0    0    0  501 -0.00000000000E+00  0.00000000000E+00  0.92996382500E+03  0.92996382500E+03  0.00000000000E+00 0.  1.
         21   -1    0    0  505  502  0.00000000000E+00 -0.00000000000E+00 -0.93338637465E+03  0.93338637465E+03  0.00000000000E+00 0.  1.
         21    1    1    2  503  504  0.13209629523E+02  0.10951847722E+03  0.16178514022E+03  0.19581425577E+03  0.00000000000E+00 0.  1.
         21    1    1    2  504  501 -0.53282078144E+02  0.18679722204E+02  0.61313581318E+03  0.61573000355E+03  0.00000000000E+00 0.  1.
         21    1    1    2  505  503  0.45857161852E+02 -0.23550989534E+01 -0.88533624298E+03  0.88652619190E+03  0.00000000000E+00 0.  1.
         -2    1    1    2    0  502 -0.57847132306E+01 -0.12584310047E+03  0.10699273993E+03  0.16527974843E+03  0.00000000000E+00 0.  1.
<scales pt_clust_3="14000.00000" pt_clust_4="55.25860" pt_clust_5="45.91760" pt_clust_6="119.12206"></scales>
<clustering>
<clus scale="   45.918">  2  5  1 -1</clus>
<clus scale="   55.259">  1  4  2 -1</clus>
<clus scale="  119.122">  2  6  1 -1</clus>
<clus scale="   45.918">  2  3  1 -1</clus>
</clustering>
</event>
<event>
 6    0  0.3643696E+002  0.3844371E+03  0.7546771E-02  0.1049306E+00
         -3   -1    0    0    0  501 -0.00000000000E+00  0.00000000000E+00  0.99344967057E+03  0.99344967057E+03  0.00000000000E+00 0. -1.
         21   -1    0    0  503  502  0.00000000000E+00 -0.00000000000E+00 -0.21261504265E+03  0.21261504265E+03  0.00000000000E+00 0. -1.
         21    1    1    2  503  505  0.36471622690E+03 -0.12459949413E+03  0.13693283113E+03  0.40901535466E+03  0.00000000000E+00 0. -1.
         21    1    1    2  504  502 -0.17410165128E+03  0.22453955209E+02  0.18983653740E+03  0.25856039143E+03  0.00000000000E+00 0. -1.
         21    1    1    2  505  501  0.53213170138E+01  0.39460393984E+02  0.23352797077E+03  0.23689818961E+03  0.00000000000E+00 0.  1.
         -3    1    1    2    0  504 -0.19593589263E+03  0.62685144937E+02  0.22053728861E+03  0.30159077752E+03  0.00000000000E+00 0. -1.
<scales pt_clust_3="382.89120" pt_clust_4="31.81524" pt_clust_5="39.81757" pt_clust_6="31.81524"></scales>
<clustering>
<clus scale="   31.815">  4  6 -1 -1</clus>
<clus scale="   39.818">  1  5  2 -1</clus>
<clus scale="  382.891">  2  3  1 -1</clus>
<clus scale="  382.891">  2  3  1 -1</clus>
</clustering>
</event>
<event>
 6    0  0.3643696E+002  0.1938909E+03  0.7546771E-02  0.1154998E+00
          2   -1    0    0  504    0 -0.00000000000E+00  0.00000000000E+00  0.21606748529E+04  0.21606748529E+04  0.00000000000E+00 0.  1.
         21   -1    0    0  501  502  0.00000000000E+00 -0.00000000000E+00 -0.56524928101E+02  0.56524928101E+02  0.00000000000E+00 0.  1.
         21    1    1    2  503  502 -0.22216933913E+02  0.54395844847E+02 -0.30984074108E+01  0.58839614357E+02  0.00000000000E+00 0.  1.
         21    1    1    2  504  505  0.64234923274E+02 -0.23613282686E+02  0.47055826273E+03  0.47550898110E+03  0.00000000000E+00 0. -1.
         21    1    1    2  505  503 -0.91731781969E+02  0.16121534725E+03  0.62673339052E+03  0.65360527140E+03  0.00000000000E+00 0.  1.
          2    1    1    2  501    0  0.49713792609E+02 -0.19199790941E+03  0.10099566789E+04  0.10292459141E+04  0.00000000000E+00 0.  1.
<scales pt_clust_3="58.75798" pt_clust_4="64.73651" pt_clust_5="14000.00000" pt_clust_6="193.89089"></scales>
<clustering>
<clus scale="   58.758">  2  3  1 -1</clus>
<clus scale="   64.737">  1  4  2 -1</clus>
<clus scale="  193.891">  2  6  1 -1</clus>
<clus scale="   58.758">  2  3  1 -1</clus>
</clustering>
</event>
<event>
 6    0  0.3643696E+002  0.1265629E+03  0.7546771E-02  0.1232647E+00
          1   -1    0    0  504    0 -0.00000000000E+00  0.00000000000E+00  0.49725526530E+03  0.49725526530E+03  0.00000000000E+00 0.  1.
         21   -1    0    0  501  502  0.00000000000E+00 -0.00000000000E+00 -0.17418921606E+03  0.17418921606E+03  0.00000000000E+00 0.  1.
         21    1    1    2  503  505  0.69304254435E+02  0.62011097653E+01  0.80522320954E+02  0.10642075745E+03  0.00000000000E+00 0. -1.
         21    1    1    2  504  503 -0.24224184906E+02  0.29417096415E+02  0.20059486796E+03  0.20418246190E+03  0.00000000000E+00 0.  1.
         21    1    1    2  505  502 -0.11420636053E+03  0.61570488440E+02 -0.10830383938E+03  0.16900810471E+03  0.00000000000E+00 0.  1.
          1    1    1    2  501    0  0.69126291004E+02 -0.97188694621E+02  0.15025269971E+03  0.19183315730E+03  0.00000000000E+00 0.  1.
<scales pt_clust_3="63.55107" pt_clust_4="38.10744" pt_clust_5="14000.00000" pt_clust_6="126.56294"></scales>
<clustering>
<clus scale="   38.107">  1  4  2 -1</clus>
<clus scale="   63.551">  1  3  2 -1</clus>
<clus scale="  126.563">  1  6  2 -1</clus>
<clus scale="  126.563">  2  3  1 -1</clus>
</clustering>
</event>
<event>
 6    0  0.3643696E+002  0.9790351E+02  0.7546771E-02  0.1284767E+00
         21   -1    0    0  505  502  0.00000000000E+00  0.00000000000E+00  0.12779452211E+04  0.12779452211E+04  0.00000000000E+00 0. -1.
          2   -1    0    0  504    0 -0.00000000000E+00 -0.00000000000E+00 -0.21026123844E+03  0.21026123844E+03  0.00000000000E+00 0. -1.
         21    1    1    2  503  502 -0.29463078136E+02  0.10393037210E+02  0.11243196746E+04  0.11247536703E+04  0.00000000000E+00 0. -1.
         21    1    1    2  504  503 -0.76787841966E+01 -0.53520229263E+02  0.34481502984E+02  0.64127628330E+02  0.00000000000E+00 0. -1.
         21    1    1    2  505  501 -0.65071707640E+02  0.22888975670E+02  0.75841854046E+02  0.10251935996E+03  0.00000000000E+00 0. -1.
          2    1    1    2  501    0  0.10221356997E+03  0.20238216384E+02 -0.16695904891E+03  0.19680580098E+03  0.00000000000E+00 0. -1.
<scales pt_clust_3="31.24241" pt_clust_4="53.02909" pt_clust_5="97.90351" pt_clust_6="14000.00000"></scales>
<clustering>
<clus scale="   31.242">  1  3  2 -1</clus>
<clus scale="   53.029">  1  4  2 -1</clus>
<clus scale="   97.904">  1  5  2 -1</clus>
<clus scale="   31.242">  1  3  2 -1</clus>
</clustering>
</event>
<event>
 6    0  0.3643696E+002  0.1221138E+03  0.7546771E-02  0.1239650E+00
         21   -1    0    0  501  502  0.00000000000E+00  0.00000000000E+00  0.95807912130E+02  0.95807912130E+02  0.00000000000E+00 0.  1.
          2   -1    0    0  504    0 -0.00000000000E+00 -0.00000000000E+00 -0.10588535640E+04  0.10588535640E+04  0.00000000000E+00 0. -1.
         21    1    1    2  503  502  0.30294567099E+02  0.18232088204E+02  0.72086688862E+02  0.80291098803E+02  0.00000000000E+00 0.  1.
         21    1    1    2  504  505  0.86652872529E+00  0.32611220618E+02 -0.18235403425E+03  0.18524911981E+03  0.00000000000E+00 0. -1.
         21    1    1    2  505  503  0.82582854930E+02  0.51904328337E+02 -0.29796841497E+03  0.31352697419E+03  0.00000000000E+00 0.  1.
          2    1    1    2  501    0 -0.11374395075E+03 -0.10274763716E+03 -0.55480989150E+03  0.57559428331E+03  0.00000000000E+00 0. -1.
<scales pt_clust_3="35.44029" pt_clust_4="32.62273" pt_clust_5="122.11377" pt_clust_6="14000.00000"></scales>
<clustering>
<clus scale="   32.623">  2  4  1 -1</clus>
<clus scale="   35.440">  1  3  2 -1</clus>
<clus scale="  122.114">  1  5  2 -1</clus>
<clus scale="   35.440">  1  3  2 -1</clus>
</clustering>
</event>
<event>
 6    0  0.3643696E+002  0.9399660E+02  0.7546771E-02  0.1293452E+00
         21   -1    0    0  504  502  0.00000000000E+00  0.00000000000E+00  0.60797153995E+03  0.60797153995E+03  0.00000000000E+00 0.  1.
         -2   -1    0    0    0  501 -0.00000000000E+00 -0.00000000000E+00 -0.34426160436E+03  0.34426160436E+03  0.00000000000E+00 0. -1.
         21    1    1    2  503  501  0.43421730973E+02 -0.85963669862E+01 -0.31520022491E+01  0.44376563231E+02  0.00000000000E+00 0.  1.
         21    1    1    2  504  505  0.70625955241E+02 -0.61938081866E+02  0.56160292515E+03  0.56940512561E+03  0.00000000000E+00 0.  1.
         21    1    1    2  505  503 -0.45356528509E+02 -0.92955524781E-02 -0.26089541184E+02  0.52324744854E+02  0.00000000000E+00 0. -1.
         -2    1    1    2    0  502 -0.68691157705E+02  0.70543744405E+02 -0.26865144613E+03  0.28612671062E+03  0.00000000000E+00 0. -1.
<scales pt_clust_3="44.26448" pt_clust_4="93.99660" pt_clust_5="40.05870" pt_clust_6="14000.00000"></scales>
<clustering>
<clus scale="   44.264">  2  3  1 -1</clus>
<clus scale="   40.059">  2  5  1 -1</clus>
<clus scale="   93.997">  1  4  2 -1</clus>
<clus scale="   93.997">  1  3  2 -1</clus>
</clustering>
</event>
<event>
 6    0  0.3643696E+002  0.1108755E+03  0.7546771E-02  0.1258957E+00
         21   -1    0    0  504  502  0.00000000000E+00  0.00000000000E+00  0.24795334102E+03  0.24795334102E+03  0.00000000000E+00 0. -1.
          1   -1    0    0  505    0 -0.00000000000E+00 -0.00000000000E+00 -0.78185155756E+03  0.78185155756E+03  0.00000000000E+00 0.  1.
         21    1    1    2  503  502 -0.76404955390E+02 -0.26643478584E+02 -0.55275300448E+03  0.55864431986E+03  0.00000000000E+00 0.  1.
         21    1    1    2  504  501  0.10254949029E+03  0.55276513893E+02  0.21582911118E+03  0.24526332008E+03  0.00000000000E+00 0. -1.
         21    1    1    2  505  503  0.33531529850E+02  0.85614292164E+01 -0.10209455561E+03  0.10780055589E+03  0.00000000000E+00 0. -1.
          1    1    1    2  501    0 -0.59676064745E+02 -0.37194464526E+02 -0.94879767624E+02  0.11809670275E+03  0.00000000000E+00 0.  1.
<scales pt_clust_3="52.66652" pt_clust_4="110.87550" pt_clust_5="34.60725" pt_clust_6="14000.00000"></scales>
<clustering>
<clus scale="   34.607">  2  5  1 -1</clus>
<clus scale="   52.667">  2  3  1 -1</clus>
<clus scale="  110.876">  1  4  2 -1</clus>
<clus scale="  110.876">  1  3  2 -1</clus>
</clustering>
</event>
<event>
 6    0  0.3643696E+002  0.9468705E+02  0.7546771E-02  0.1291882E+00
         21   -1    0    0  505  502  0.00000000000E+00  0.00000000000E+00  0.14227722920E+02  0.14227722920E+02  0.00000000000E+00 0.  1.
          2   -1    0    0  504    0 -0.00000000000E+00 -0.00000000000E+00 -0.12900125112E+04  0.12900125112E+04  0.00000000000E+00 0.  1.
         21    1    1    2  503  502  0.17493260064E+02  0.57702576731E+02 -0.21534425610E+03  0.22362636281E+03  0.00000000000E+00 0.  1.
         21    1    1    2  504  503  0.69212568966E+02  0.27676163152E+02 -0.51068597126E+03  0.51609738514E+03  0.00000000000E+00 0.  1.
         21    1    1    2  505  501 -0.36994617113E+02 -0.59745785509E+02 -0.25517357645E+03  0.26467284466E+03  0.00000000000E+00 0. -1.
          2    1    1    2  501    0 -0.49711211917E+02 -0.25632954373E+02 -0.29458098445E+03  0.29984364148E+03  0.00000000000E+00 0.  1.
<scales pt_clust_3="60.29595" pt_clust_4="85.58201" pt_clust_5="36.14394" pt_clust_6="36.14394"></scales>
<clustering>
<clus scale="   36.144">  5  6 -1 -1</clus>
<clus scale="   60.296">  1  3  2 -1</clus>
<clus scale="   85.582">  2  4  1 -1</clus>
<clus scale="   60.296">  1  3  2 -1</clus>
</clustering>
</event>
<event>
 6    0  0.3643696E+002  0.1157447E+03  0.7546771E-02  0.1250287E+00
         21   -1    0    0  504  502  0.00000000000E+00  0.00000000000E+00  0.12197824103E+04  0.12197824103E+04  0.00000000000E+00 0. -1.
          1   -1    0    0  503    0 -0.00000000000E+00 -0.00000000000E+00 -0.81869787041E+02  0.81869787041E+02  0.00000000000E+00 0.  1.
         21    1    1    2  503  505  0.34627372633E+01 -0.39019227145E+02 -0.40332439158E+01  0.39379660903E+02  0.00000000000E+00 0.  1.
         21    1    1    2  504  501  0.19853725491E+02  0.27063328603E+02  0.55821450003E+01  0.34025791890E+02  0.00000000000E+00 0.  1.
         21    1    1    2  505  502  0.16398892424E+02 -0.96638091784E+02  0.11037678422E+04  0.11081115891E+04  0.00000000000E+00 0. -1.
          1    1    1    2  501    0 -0.39715355179E+02  0.10859399033E+03  0.32595879932E+02  0.12013515539E+03  0.00000000000E+00 0.  1.
<scales pt_clust_3="39.17258" pt_clust_4="31.92293" pt_clust_5="99.42932" pt_clust_6="31.92293"></scales>
<clustering>
<clus scale="   31.923">  4  6 -1 -1</clus>
<clus scale="   39.173">  2  3  1 -1</clus>
<clus scale="   99.429">  1  5  2 -1</clus>
<clus scale="   99.429">  1  3  2 -1</clus>
</clustering>
</event>
<event>
 6    0  0.3643696E+002  0.9299161E+02  0.7546771E-02  0.1295765E+00
          2   -1    0    0  503    0 -0.00000000000E+00  0.00000000000E+00  0.13444418188E+04  0.13444418188E+04  0.00000000000E+00 0. -1.
         21   -1    0    0  504  502  0.00000000000E+00 -0.00000000000E+00 -0.29297934205E+03  0.29297934205E+03  0.00000000000E+00 0.  1.
         21    1    1    2  503  505  0.12115552079E+03  0.20265327137E+02  0.30331898747E+03  0.32724876144E+03  0.00000000000E+00 0.  1.
         21    1    1    2  504  501  0.32155413012E+01  0.70561063977E+02 -0.25764319376E+03  0.26715018013E+03  0.00000000000E+00 0.  1.
         21    1    1    2  505  502 -0.64536623524E+02 -0.21230834878E+02  0.53906115827E+02  0.86727120608E+02  0.00000000000E+00 0.  1.
          2    1    1    2  501    0 -0.59834438571E+02 -0.69595556236E+02  0.95188056722E+03  0.95629509867E+03  0.00000000000E+00 0. -1.
<scales pt_clust_3="92.99161" pt_clust_4="76.86104" pt_clust_5="67.93912" pt_clust_6="14000.00000"></scales>
<clustering>
<clus scale="   67.939">  2  5  1 -1</clus>
<clus scale="   76.861">  2  4  1 -1</clus>
<clus scale="   92.992">  2  3  1 -1</clus>
<clus scale="   67.939">  2  3  1 -1</clus>
</clustering>
</event>
<event>
 6    0  0.3643696E+002  0.1025020E+03  0.7546771E-02  0.1275121E+00
          2   -1    0    0  504    0 -0.00000000000E+00  0.00000000000E+00  0.19920125434E+04  0.19920125434E+04  0.00000000000E+00 0. -1.
         21   -1    0    0  505  502  0.00000000000E+00 -0.00000000000E+00 -0.13335634889E+03  0.13335634889E+03  0.00000000000E+00 0. -1.
         21    1    1    2  503  502 -0.26845334737E+02  0.75475465012E+02 -0.10241067419E+03  0.13001986004E+03  0.00000000000E+00 0. -1.
         21    1    1    2  504  503 -0.46303065786E+02  0.43961379378E+02  0.18807577469E+03  0.19861790907E+03  0.00000000000E+00 0. -1.
         21    1    1    2  505  501 -0.46981329807E+02 -0.60760936577E+01  0.63216017109E+02  0.78996386523E+02  0.00000000000E+00 0.  1.
          2    1    1    2  501    0  0.12012973033E+03 -0.11336075073E+03  0.17097750769E+04  0.17177347366E+04  0.00000000000E+00 0. -1.
<scales pt_clust_3="102.50203" pt_clust_4="65.12202" pt_clust_5="47.37261" pt_clust_6="14000.00000"></scales>
<clustering>
<clus scale="   47.373">  2  5  1 -1</clus>
<clus scale="   65.122">  1  4  2 -1</clus>
<clus scale="  102.502">  2  3  1 -1</clus>
<clus scale="   47.373">  2  3  1 -1</clus>
</clustering>
</event>
<event>
 6    0  0.3643696E+002  0.9141175E+02  0.7546771E-02  0.1299469E+00
          2   -1    0    0  503    0 -0.00000000000E+00  0.00000000000E+00  0.13420616574E+04  0.13420616574E+04  0.00000000000E+00 0.  1.
         21   -1    0    0  505  502  0.00000000000E+00 -0.00000000000E+00 -0.12330777788E+03  0.12330777788E+03  0.00000000000E+00 0.  1.
         21    1    1    2  503  502 -0.24174031597E+02  0.18429156961E+02  0.13163796268E+03  0.13510207566E+03  0.00000000000E+00 0.  1.
         21    1    1    2  504  501 -0.18805468381E+02  0.57178147236E+02  0.36130818450E+02  0.70202722200E+02  0.00000000000E+00 0.  1.
         21    1    1    2  505  504  0.46938608183E+02  0.38130946168E+02 -0.92726803144E+02  0.11070439023E+03  0.00000000000E+00 0.  1.
          2    1    1    2  501    0 -0.39591082053E+01 -0.11373825036E+03  0.11437119016E+04  0.11493602472E+04  0.00000000000E+00 0.  1.
<scales pt_clust_3="30.39766" pt_clust_4="91.41175" pt_clust_5="60.42208" pt_clust_6="14000.00000"></scales>
<clustering>
<clus scale="   30.398">  1  3  2 -1</clus>
<clus scale="   60.422">  2  5  1 -1</clus>
<clus scale="   91.412">  2  4  1 -1</clus>
<clus scale="   60.422">  2  3  1 -1</clus>
</clustering>
</event>
<event>
 6    0  0.3643696E+002  0.9689432E+02  0.7546771E-02  0.1286966E+00
          1   -1    0    0  503    0 -0.00000000000E+00  0.00000000000E+00  0.13422349263E+04  0.13422349263E+04  0.00000000000E+00 0. -1.
         21   -1    0    0  505  502  0.00000000000E+00 -0.00000000000E+00 -0.92837184366E+02  0.92837184366E+02  0.00000000000E+00 0.  1.
         21    1    1    2  503  502 -0.57113807702E+02 -0.23300564791E+02  0.30194455525E+03  0.30818081997E+03  0.00000000000E+00 0.  1.
         21    1    1    2  504  501  0.53265097697E+02 -0.59257461659E+02  0.26696324705E+03  0.27860005863E+03  0.00000000000E+00 0.  1.
         21    1    1    2  505  504 -0.76163543017E+02  0.63045349649E+02 -0.51639082436E+02  0.11154459302E+03  0.00000000000E+00 0.  1.
          1    1    1    2  501    0  0.80012253022E+02  0.19512676801E+02  0.73212902210E+03  0.73674663908E+03  0.00000000000E+00 0. -1.
<scales pt_clust_3="61.68390" pt_clust_4="96.89432" pt_clust_5="14000.00000" pt_clust_6="39.68364"></scales>
<clustering>
<clus scale="   61.684">  1  3  2 -1</clus>
<clus scale="   39.684">  1  6  2 -1</clus>
<clus scale="   96.894">  1  4  2 -1</clus>
<clus scale="   96.894">  2  3  1 -1</clus>
</clustering>
</event>
<event>
 6    0  0.3643696E+002  0.4548653E+03  0.7546771E-02  0.1026281E+00
          2   -1    0    0  503    0 -0.00000000000E+00  0.00000000000E+00  0.23094565595E+04  0.23094565595E+04  0.00000000000E+00 0. -1.
         21   -1    0    0  505  502  0.00000000000E+00 -0.00000000000E+00 -0.23864773691E+03  0.23864773691E+03  0.00000000000E+00 0.  1.
         21    1    1    2  503  504 -0.33679720723E+02  0.12970661641E+03  0.33292609596E+03  0.35888426449E+03  0.00000000000E+00 0.  1.
         21    1    1    2  504  502  0.41170718204E+03  0.12464815912E+03  0.47812017450E+02  0.43281168691E+03  0.00000000000E+00 0.  1.
         21    1    1    2  505  501 -0.51680878986E+02 -0.53779081123E+02  0.12884196748E+03  0.14887362226E+03  0.00000000000E+00 0.  1.
          2    1    1    2  501    0 -0.32634658233E+03 -0.20057569440E+03  0.15612287417E+04  0.16075347228E+04  0.00000000000E+00 0. -1.
<scales pt_clust_3="134.00795" pt_clust_4="431.12910" pt_clust_5="63.99099" pt_clust_6="63.99099"></scales>
<clustering>
<clus scale="   63.991">  5  6 -1 -1</clus>
<clus scale="  134.008">  1  3  2 -1</clus>
<clus scale="  431.129">  2  4  1 -1</clus>
<clus scale="  431.129">  2  3  1 -1</clus>
</clustering>
</event>
<event>
 6    0  0.3643696E+002  0.7549652E+02  0.7546771E-02  0.1342340E+00
         21   -1    0    0  503  502  0.00000000000E+00  0.00000000000E+00  0.77097590575E+03  0.77097590575E+03  0.00000000000E+00 0. -1.
          2   -1    0    0  504    0 -0.00000000000E+00 -0.00000000000E+00 -0.18456584189E+03  0.18456584189E+03  0.00000000000E+00 0. -1.
         21    1    1    2  503  505  0.17951089485E+02 -0.51966815756E+02  0.65944467922E+03  0.66173263219E+03  0.00000000000E+00 0. -1.
         21    1    1    2  504  502 -0.10495741949E+03 -0.30377297209E+02 -0.43108480353E+02  0.11746140289E+03  0.00000000000E+00 0. -1.
         21    1    1    2  505  501  0.58434149349E+02  0.21506768755E+02  0.44144916592E+02  0.76327351411E+02  0.00000000000E+00 0. -1.
          2    1    1    2  501    0  0.28572180655E+02  0.60837344210E+02 -0.74071051602E+02  0.10002036114E+03  0.00000000000E+00 0. -1.
<scales pt_clust_3="54.97992" pt_clust_4="14000.00000" pt_clust_5="75.49652" pt_clust_6="62.74302"></scales>
<clustering>
<clus scale="   54.980">  1  3  2 -1</clus>
<clus scale="   62.743">  2  6  1 -1</clus>
<clus scale="   75.497">  1  5  2 -1</clus>
<clus scale="   54.980">  1  3  2 -1</clus>
</clustering>
</event>
<event>
 6    0  0.3643696E+002  0.1522359E+03  0.7546771E-02  0.1197752E+00
         21   -1    0    0  504  502  0.00000000000E+00  0.00000000000E+00  0.45075755570E+03  0.45075755570E+03  0.00000000000E+00 0.  1.
          1   -1    0    0  505    0 -0.00000000000E+00 -0.00000000000E+00 -0.16394798192E+03  0.16394798192E+03  0.00000000000E+00 0.  1.
         21    1    1    2  503  502 -0.48248829755E+02 -0.12357976459E+02  0.21129974420E+02  0.54103095789E+02  0.00000000000E+00 0.  1.
         21    1    1    2  504  501  0.41815124607E+02 -0.18249378100E+02  0.23765320097E+03  0.24199295110E+03  0.00000000000E+00 0.  1.
         21    1    1    2  505  503  0.10904290359E+03 -0.97368006009E+02 -0.20339597260E+02  0.14759601158E+03  0.00000000000E+00 0.  1.
          1    1    1    2  501    0 -0.10260919844E+03  0.12797536057E+03  0.48365995645E+02  0.17101347915E+03  0.00000000000E+00 0.  1.
<scales pt_clust_3="43.67747" pt_clust_4="45.62395" pt_clust_5="152.23591" pt_clust_6="14000.00000"></scales>
<clustering>
<clus scale="   45.624">  1  4  2 -1</clus>
<clus scale="   43.677">  1  3  2 -1</clus>
<clus scale="  152.236">  2  5  1 -1</clus>
<clus scale="   45.624">  1  3  2 -1</clus>
</clustering>
</event>
<event>
 6    0  0.3643696E+002  0.2197806E+03  0.7546771E-02  0.1134047E+00
         21   -1    0    0  504  502  0.00000000000E+00  0.00000000000E+00  0.42504949201E+03  0.42504949201E+03  0.00000000000E+00 0. -1.
          1   -1    0    0  505    0 -0.00000000000E+00 -0.00000000000E+00 -0.11016178545E+04  0.11016178545E+04  0.00000000000E+00 0.  1.
         21    1    1    2  503  502 -0.52078171298E+02  0.79281491786E+02  0.31344271863E+03  0.32748134103E+03  0.00000000000E+00 0. -1.
         21    1    1    2  504  501 -0.43666902379E+01  0.43016855795E+02  0.14160390753E+01  0.43261103000E+02  0.00000000000E+00 0. -1.
         21    1    1    2  505  503  0.12014132053E+03 -0.30804515595E+03 -0.33473726741E+03  0.47050482803E+03  0.00000000000E+00 0. -1.
          1    1    1    2  501    0 -0.63696458997E+02  0.18574680837E+03 -0.65668985276E+03  0.68542007442E+03  0.00000000000E+00 0.  1.
<scales pt_clust_3="126.37747" pt_clust_4="43.23792" pt_clust_5="14000.00000" pt_clust_6="219.78058"></scales>
<clustering>
<clus scale="   43.238">  1  4  2 -1</clus>
<clus scale="  126.377">  1  3  2 -1</clus>
<clus scale="  219.781">  2  6  1 -1</clus>
<clus scale="   43.238">  1  3  2 -1</clus>
</clustering>
</event>
<event>
 6    0  0.3643696E+002  0.2035496E+03  0.7546771E-02  0.1146778E+00
         21   -1    0    0  503  502  0.00000000000E+00  0.00000000000E+00  0.15740397726E+03  0.15740397726E+03  0.00000000000E+00 0. -1.
          1   -1    0    0  504    0 -0.00000000000E+00 -0.00000000000E+00 -0.11457436147E+04  0.11457436147E+04  0.00000000000E+00 0.  1.
         21    1    1    2  503  505 -0.35467906016E+02  0.50388272175E+02  0.75790948842E+02  0.97679159785E+02  0.00000000000E+00 0. -1.
         21    1    1    2  504  502  0.19144776653E+03  0.51078195947E+02 -0.10336498465E+03  0.22348500948E+03  0.00000000000E+00 0. -1.
         21    1    1    2  505  501 -0.41321443351E+02  0.89839296005E+01 -0.25517145240E+03  0.25865158571E+03  0.00000000000E+00 0.  1.
          1    1    1    2  501    0 -0.11465841716E+03 -0.11045039772E+03 -0.70559414918E+03  0.72333183694E+03  0.00000000000E+00 0.  1.
<scales pt_clust_3="61.61940" pt_clust_4="186.64592" pt_clust_5="41.85597" pt_clust_6="41.85597"></scales>
<clustering>
<clus scale="   41.856">  5  6 -1 -1</clus>
<clus scale="   61.619">  1  3  2 -1</clus>
<clus scale="  186.646">  1  4  2 -1</clus>
<clus scale="   61.619">  1  3  2 -1</clus>
</clustering>
</event>
<event>
 6    0  0.3643696E+002  0.1437063E+03  0.7546771E-02  0.1208427E+00
         21   -1    0    0  505  502  0.00000000000E+00  0.00000000000E+00  0.27293425408E+03  0.27293425408E+03  0.00000000000E+00 0.  1.
          1   -1    0    0  504    0 -0.00000000000E+00 -0.00000000000E+00 -0.23229997590E+04  0.23229997590E+04  0.00000000000E+00 0. -1.
         21    1    1    2  503  502 -0.10348920441E+03  0.12626332449E+02 -0.41994281864E+03  0.43269089501E+03  0.00000000000E+00 0.  1.
         21    1    1    2  504  503  0.34776774749E+02 -0.27768138442E+02 -0.74172463701E+02  0.86498832050E+02  0.00000000000E+00 0.  1.
         21    1    1    2  505  501 -0.10505260635E+03 -0.97069825712E+02  0.23434072120E+03  0.27454357537E+03  0.00000000000E+00 0.  1.
          1    1    1    2  501    0  0.17376503601E+03  0.11221163170E+03 -0.17902909438E+04  0.18022007106E+04  0.00000000000E+00 0. -1.
<scales pt_clust_3="97.15660" pt_clust_4="44.50274" pt_clust_5="14000.00000" pt_clust_6="143.70634"></scales>
<clustering>
<clus scale="   44.503">  2  4  1 -1</clus>
<clus scale="   97.157">  2  3  1 -1</clus>
<clus scale="  143.706">  2  6  1 -1</clus>
<clus scale="  143.706">  1  3  2 -1</clus>
</clustering>
</event>
<event>
 6    0  0.3643696E+002  0.1614602E+03  0.7546771E-02  0.1187058E+00
         21   -1    0    0  505  502  0.00000000000E+00  0.00000000000E+00  0.24840301423E+04  0.24840301423E+04  0.00000000000E+00 0.  1.
          2   -1    0    0  504    0 -0.00000000000E+00 -0.00000000000E+00 -0.16755341331E+03  0.16755341331E+03  0.00000000000E+00 0. -1.
         21    1    1    2  503  502 -0.31909045161E+02  0.25996497519E+02  0.21258775727E+04  0.21262759603E+04  0.00000000000E+00 0.  1.
         21    1    1    2  504  503  0.45223633318E+02  0.58581378446E+02  0.50826911898E+02  0.89779339963E+02  0.00000000000E+00 0. -1.
         21    1    1    2  505  501 -0.71788489125E+02  0.81790640328E+02  0.21719611273E+03  0.24293506828E+03  0.00000000000E+00 0. -1.
          2    1    1    2  501    0  0.58473900969E+02 -0.16636851629E+03 -0.77423868379E+02  0.19259318706E+03  0.00000000000E+00 0. -1.
<scales pt_clust_3="41.15829" pt_clust_4="74.65703" pt_clust_5="14000.00000" pt_clust_6="161.46022"></scales>
<clustering>
<clus scale="   41.158">  1  3  2 -1</clus>
<clus scale="   74.657">  1  4  2 -1</clus>
<clus scale="  161.460">  2  6  1 -1</clus>
<clus scale="   41.158">  1  3  2 -1</clus>
</clustering>
</event>
<event>
 6    0  0.3643696E+002  0.9379149E+02  0.7546771E-02  0.1293921E+00
         21   -1    0    0  501  502  0.00000000000E+00  0.00000000000E+00  0.12222510250E+03  0.12222510250E+03  0.00000000000E+00 0. -1.
          1   -1    0    0  504    0 -0.00000000000E+00 -0.00000000000E+00 -0.24521047586E+03  0.24521047586E+03  0.00000000000E+00 0. -1.
         21    1    1    2  503  502  0.39342905075E+02  0.84990313900E+02  0.53391081528E+02  0.10780456958E+03  0.00000000000E+00 0. -1.
         21    1    1    2  504  505 -0.24675324784E+02 -0.27257624398E+02 -0.70319400728E+02  0.79351546046E+02  0.00000000000E+00 0. -1.
         21    1    1    2  505  503 -0.75348272288E+01  0.40962527335E+02 -0.54823936093E+02  0.68850317615E+02  0.00000000000E+00 0. -1.
          1    1    1    2  501    0 -0.71327530630E+01 -0.98695216836E+02 -0.51233118065E+02  0.11142914511E+03  0.00000000000E+00 0. -1.
<scales pt_clust_3="93.79149" pt_clust_4="36.76751" pt_clust_5="35.17460" pt_clust_6="14000.00000"></scales>
<clustering>
<clus scale="   36.768">  2  4  1 -1</clus>
<clus scale="   35.175">  2  5  1 -1</clus>
<clus scale="   93.791">  1  3  2 -1</clus>
<clus scale="   93.791">  1  3  2 -1</clus>
</clustering>
</event>
<event>
 6    0  0.3643696E+002  0.1542059E+03  0.7546771E-02  0.1195398E+00
          2   -1    0    0  505    0 -0.00000000000E+00  0.00000000000E+00  0.40088316999E+03  0.40088316999E+03  0.00000000000E+00 0.  1.
         21   -1    0    0  501  502  0.00000000000E+00 -0.00000000000E+00 -0.18565165280E+03  0.18565165280E+03  0.00000000000E+00 0.  1.
         21    1    1    2  503  502 -0.14456976968E+03  0.79189774079E+02 -0.11260838945E+03  0.19962987753E+03  0.00000000000E+00 0.  1.
         21    1    1    2  504  503  0.34975283102E+02 -0.26617219352E+02  0.47133637010E+02  0.64446307357E+02  0.00000000000E+00 0.  1.
         21    1    1    2  505  504  0.69106729991E+01 -0.46621937606E+02  0.44458158487E+02  0.64791128432E+02  0.00000000000E+00 0.  1.
          2    1    1    2  501    0  0.10268381358E+03 -0.59506171205E+01  0.23624811115E+03  0.25766750947E+03  0.00000000000E+00 0.  1.
<scales pt_clust_3="154.20588" pt_clust_4="33.38024" pt_clust_5="91.17707" pt_clust_6="14000.00000"></scales>
<clustering>
<clus scale="   33.380">  4  5 -1 -1</clus>
<clus scale="   91.177">  1  4  2 -1</clus>
<clus scale="  154.206">  2  3  1 -1</clus>
<clus scale="  154.206">  2  3  1 -1</clus>
</clustering>
</event>
<event>
 6    0  0.3643696E+002  0.1170961E+03  0.7546771E-02  0.1247966E+00
         21   -1    0    0  505  502  0.00000000000E+00  0.00000000000E+00  0.95334710310E+03  0.95334710310E+03  0.00000000000E+00 0.  1.
         -1   -1    0    0    0  501 -0.00000000000E+00 -0.00000000000E+00 -0.65560544386E+03  0.65560544386E+03  0.00000000000E+00 0. -1.
         21    1    1    2  503  502 -0.95358181131E+01 -0.29110714375E+02  0.75909586491E+03  0.75971369452E+03  0.00000000000E+00 0.  1.
         21    1    1    2  504  503 -0.78754960223E+02 -0.52007759183E+02  0.17107149664E+03  0.19537811478E+03  0.00000000000E+00 0.  1.
         21    1    1    2  505  501  0.64446958727E+01  0.49763140406E+02 -0.79359070554E+02  0.93892312397E+02  0.00000000000E+00 0. -1.
         -1    1    1    2    0  504  0.81846082463E+02  0.31355333152E+02 -0.55306663175E+03  0.55996842526E+03  0.00000000000E+00 0. -1.
<scales pt_clust_3="30.63275" pt_clust_4="117.09613" pt_clust_5="49.05162" pt_clust_6="14000.00000"></scales>
<clustering>
<clus scale="   30.633">  1  3  2 -1</clus>
<clus scale="   49.052">  2  5  1 -1</clus>
<clus scale="  117.096">  1  4  2 -1</clus>
<clus scale="   30.633">  1  3  2 -1</clus>
</clustering>
</event>
<event>
 6    0  0.3643696E+002  0.9575979E+02  0.7546771E-02  0.1289474E+00
         21   -1    0    0  501  502  0.00000000000E+00  0.00000000000E+00  0.64687914014E+02  0.64687914014E+02  0.00000000000E+00 0.  1.
          3   -1    0    0  504    0 -0.00000000000E+00 -0.00000000000E+00 -0.17821519097E+04  0.17821519097E+04  0.00000000000E+00 0.  1.
         21    1    1    2  503  505 -0.53347998907E+02 -0.14380099810E+02 -0.15509744777E+03  0.16464511704E+03  0.00000000000E+00 0.  1.
         21    1    1    2  504  503  0.16306181866E+02 -0.42882005446E+02 -0.45981181274E+03  0.46209486157E+03  0.00000000000E+00 0. -1.
         21    1    1    2  505  502 -0.74926079196E+02  0.59973837777E+02  0.14833597308E+02  0.97112379080E+02  0.00000000000E+00 0.  1.
          3    1    1    2  501    0  0.11196789624E+03 -0.27117325208E+01 -0.11173883325E+04  0.11229874661E+04  0.00000000000E+00 0.  1.
<scales pt_clust_3="54.97567" pt_clust_4="45.87764" pt_clust_5="95.75979" pt_clust_6="14000.00000"></scales>
<clustering>
<clus scale="   45.878">  2  4  1 -1</clus>
<clus scale="   54.976">  2  3  1 -1</clus>
<clus scale="   95.760">  1  5  2 -1</clus>
<clus scale="   95.760">  1  3  2 -1</clus>
</clustering>
</event>
<event>
 6    0  0.3643696E+002  0.1099315E+03  0.7546771E-02  0.1260697E+00
         21   -1    0    0  505  502  0.00000000000E+00  0.00000000000E+00  0.37079638134E+02  0.37079638134E+02  0.00000000000E+00 0. -1.
          1   -1    0    0  504    0 -0.00000000000E+00 -0.00000000000E+00 -0.89485281294E+03  0.89485281294E+03  0.00000000000E+00 0. -1.
         21    1    1    2  503  502 -0.36210970228E+02 -0.92551098403E+02 -0.58439279456E+02  0.11529132476E+03  0.00000000000E+00 0. -1.
         21    1    1    2  504  503 -0.32222190957E+02 -0.11282760100E+02 -0.11857240717E+03  0.12338957009E+03  0.00000000000E+00 0. -1.
         21    1    1    2  505  501  0.40299956981E+02  0.25340279647E+02 -0.24251734813E+03  0.24714546415E+03  0.00000000000E+00 0.  1.
          1    1    1    2  501    0  0.28133204203E+02  0.78493578856E+02 -0.43824414005E+03  0.44610609207E+03  0.00000000000E+00 0. -1.
<scales pt_clust_3="101.92150" pt_clust_4="34.14045" pt_clust_5="31.12584" pt_clust_6="31.12584"></scales>
<clustering>
<clus scale="   31.126">  5  6 -1 -1</clus>
<clus scale="   34.140">  2  4  1 -1</clus>
<clus scale="  101.921">  1  3  2 -1</clus>
<clus scale="  101.921">  1  3  2 -1</clus>
</clustering>
</event>
<event>
 6    0  0.3643696E+002  0.8160020E+02  0.7546771E-02  0.1324571E+00
         21   -1    0    0  504  502  0.00000000000E+00  0.00000000000E+00  0.43988786843E+02  0.43988786843E+02  0.00000000000E+00 0.  1.
          2   -1    0    0  505    0 -0.00000000000E+00 -0.00000000000E+00 -0.95543457532E+03  0.95543457532E+03  0.00000000000E+00 0. -1.
         21    1    1    2  503  502  0.73645658833E+01 -0.10643601659E+03 -0.71090848106E+02  0.12820597156E+03  0.00000000000E+00 0.  1.
         21    1    1    2  504  501  0.94823595530E+01  0.36805798868E+02 -0.78653752886E+02  0.87355565456E+02  0.00000000000E+00 0. -1.
         21    1    1    2  505  503 -0.67852279369E+02 -0.16368534228E+02 -0.16998483609E+03  0.18375719096E+03  0.00000000000E+00 0.  1.
          2    1    1    2  501    0  0.51005353933E+02  0.85998751954E+02 -0.59171635140E+03  0.60010463419E+03  0.00000000000E+00 0. -1.
<scales pt_clust_3="81.60020" pt_clust_4="38.00766" pt_clust_5="66.95208" pt_clust_6="14000.00000"></scales>
<clustering>
<clus scale="   38.008">  1  4  2 -1</clus>
<clus scale="   66.952">  2  5  1 -1</clus>
<clus scale="   81.600">  1  3  2 -1</clus>
<clus scale="   38.008">  1  3  2 -1</clus>
</clustering>
</event>
<event>
 6    0  0.3643696E+002  0.9945211E+02  0.7546771E-02  0.1281452E+00
         21   -1    0    0  505  502  0.00000000000E+00  0.00000000000E+00  0.92723191567E+03  0.92723191567E+03  0.00000000000E+00 0.  1.
          1   -1    0    0  504    0 -0.00000000000E+00 -0.00000000000E+00 -0.28316151550E+04  0.28316151550E+04  0.00000000000E+00 0. -1.
         21    1    1    2  503  502 -0.53305050000E+02 -0.43552569173E+02 -0.10439079046E+03  0.12504275977E+03  0.00000000000E+00 0.  1.
         21    1    1    2  504  503 -0.31699020780E+02  0.11028906809E+02 -0.92736341306E+03  0.92797056235E+03  0.00000000000E+00 0. -1.
         21    1    1    2  505  501 -0.75147911705E+01 -0.41564587820E+02  0.91415120629E+03  0.91512650219E+03  0.00000000000E+00 0.  1.
          1    1    1    2  501    0  0.92518861951E+02  0.74088250184E+02 -0.17867802421E+04  0.17907072464E+04  0.00000000000E+00 0. -1.
<scales pt_clust_3="14000.00000" pt_clust_4="33.56285" pt_clust_5="42.23712" pt_clust_6="99.45211"></scales>
<clustering>
<clus scale="   33.563">  2  4  1 -1</clus>
<clus scale="   42.237">  1  5  2 -1</clus>
<clus scale="   99.452">  2  6  1 -1</clus>
<clus scale="   42.237">  1  3  2 -1</clus>
</clustering>
</event>
<event>
 6    0  0.3643696E+002  0.6464623E+02  0.7546771E-02  0.1379307E+00
          2   -1    0    0  503    0 -0.00000000000E+00  0.00000000000E+00  0.75429784571E+03  0.75429784571E+03  0.00000000000E+00 0. -1.
         21   -1    0    0  505  502  0.00000000000E+00 -0.00000000000E+00 -0.23369303764E+03  0.23369303764E+03  0.00000000000E+00 0. -1.
         21    1    1    2  503  504 -0.11522279434E+02  0.48038334915E+02  0.85120418482E+02  0.98417123445E+02  0.00000000000E+00 0. -1.
         21    1    1    2  504  502  0.45271757357E+02 -0.21951706558E+02  0.45358957611E+02  0.67741010256E+02  0.00000000000E+00 0.  1.
         21    1    1    2  505  501  0.54370319425E+02  0.34332994681E+02 -0.20620901080E+03  0.21600241270E+03  0.00000000000E+00 0. -1.
          2    1    1    2  501    0 -0.88119797348E+02 -0.60419623037E+02  0.59633444277E+03  0.60583033695E+03  0.00000000000E+00 0. -1.
<scales pt_clust_3="49.40086" pt_clust_4="47.75065" pt_clust_5="64.64623" pt_clust_6="14000.00000"></scales>
<clustering>
<clus scale="   49.401">  1  3  2 -1</clus>
<clus scale="   47.751">  1  4  2 -1</clus>
<clus scale="   64.646">  2  5  1 -1</clus>
<clus scale="   64.646">  2  3  1 -1</clus>
</clustering>
</event>
<event>
 6    0  0.3643696E+002  0.1001333E+03  0.7546771E-02  0.1280016E+00
          2   -1    0    0  503    0 -0.00000000000E+00  0.00000000000E+00  0.14821232258E+04  0.14821232258E+04  0.00000000000E+00 0. -1.
         21   -1    0    0  504  502  0.00000000000E+00 -0.00000000000E+00 -0.21758454771E+02  0.21758454771E+02  0.00000000000E+00 0. -1.
         21    1    1    2  503  505 -0.34246233071E+02 -0.26868046790E+02  0.65883965395E+03  0.66027599232E+03  0.00000000000E+00 0. -1.
         21    1    1    2  504  501  0.36955647148E+02 -0.91535165272E+02  0.21531340736E+03  0.23686339888E+03  0.00000000000E+00 0. -1.
         21    1    1    2  505  502 -0.33162491297E+02  0.12365166129E+01  0.88444362859E+02  0.94465258819E+02  0.00000000000E+00 0.  1.
          2    1    1    2  501    0  0.30453077220E+02  0.11716669545E+03  0.49776734685E+03  0.51227703055E+03  0.00000000000E+00 0. -1.
<scales pt_clust_3="44.50591" pt_clust_4="14000.00000" pt_clust_5="33.18554" pt_clust_6="100.13332"></scales>
<clustering>
<clus scale="   33.186">  2  5  1 -1</clus>
<clus scale="   44.506">  1  3  2 -1</clus>
<clus scale="  100.133">  1  6  2 -1</clus>
<clus scale="   33.186">  2  3  1 -1</clus>
</clustering>
</event>
<event>
 6    0  0.3643696E+002  0.1506762E+03  0.7546771E-02  0.1199645E+00
          2   -1    0    0  505    0 -0.00000000000E+00  0.00000000000E+00  0.19988315527E+04  0.19988315527E+04  0.00000000000E+00 0. -1.
         21   -1    0    0  501  502  0.00000000000E+00 -0.00000000000E+00 -0.66229396324E+02  0.66229396324E+02  0.00000000000E+00 0. -1.
         21    1    1    2  503  504  0.46253993558E+02  0.31983710127E+02  0.19320837024E+03  0.20122590282E+03  0.00000000000E+00 0.  1.
         21    1    1    2  504  502 -0.12667853357E+03 -0.85639455787E+02  0.44247548997E+02  0.15918358222E+03  0.00000000000E+00 0. -1.
         21    1    1    2  505  503 -0.30244992647E+01 -0.46969042668E+02  0.56897161794E+03  0.57091500295E+03  0.00000000000E+00 0.  1.
          2    1    1    2  501    0  0.83449039276E+02  0.10062478833E+03  0.11261746192E+04  0.11337364611E+04  0.00000000000E+00 0. -1.
<scales pt_clust_3="52.45273" pt_clust_4="14000.00000" pt_clust_5="47.06632" pt_clust_6="150.67619"></scales>
<clustering>
<clus scale="   47.066">  1  5  2 -1</clus>
<clus scale="   52.453">  1  3  2 -1</clus>
<clus scale="  150.676">  1  6  2 -1</clus>
<clus scale="  150.676">  2  3  1 -1</clus>
</clustering>
</event>
<event>
 6    0  0.3643696E+002  0.1170210E+03  0.7546771E-02  0.1248094E+00
         21   -1    0    0  505  502  0.00000000000E+00  0.00000000000E+00  0.60276358623E+02  0.60276358623E+02  0.00000000000E+00 0.  1.
          2   -1    0    0  503    0 -0.00000000000E+00 -0.00000000000E+00 -0.22095277871E+04  0.22095277871E+04  0.00000000000E+00 0.  1.
         21    1    1    2  503  502  0.10294792952E+03 -0.79913886440E+02 -0.55052397241E+03  0.56573947152E+03  0.00000000000E+00 0.  1.
         21    1    1    2  504  501 -0.40403830637E+02 -0.28469815175E+01 -0.39445259058E+03  0.39652669652E+03  0.00000000000E+00 0. -1.
         21    1    1    2  505  504 -0.58930344078E+01  0.46784551297E+02  0.39768933717E+02  0.61685413053E+02  0.00000000000E+00 0.  1.
          2    1    1    2  501    0 -0.56651064472E+02  0.35976316660E+02 -0.12440437992E+04  0.12458525646E+04  0.00000000000E+00 0.  1.
<scales pt_clust_3="107.10701" pt_clust_4="36.62110" pt_clust_5="47.15424" pt_clust_6="36.62110"></scales>
<clustering>
<clus scale="   36.621">  4  6 -1 -1</clus>
<clus scale="   47.154">  1  5  2 -1</clus>
<clus scale="  107.107">  1  3  2 -1</clus>
<clus scale="   47.154">  1  3  2 -1</clus>
</clustering>
</event>
<event>
 6    0  0.3643696E+002  0.2079575E+03  0.7546771E-02  0.1143194E+00
         21   -1    0    0  505  502  0.00000000000E+00  0.00000000000E+00  0.39162701519E+02  0.39162701519E+02  0.00000000000E+00 0. -1.
          2   -1    0    0  503    0 -0.00000000000E+00 -0.00000000000E+00 -0.20791483738E+04  0.20791483738E+04  0.00000000000E+00 0.  1.
         21    1    1    2  503  504  0.19810844581E+02  0.35028106349E+02 -0.27559587378E+03  0.27851844363E+03  0.00000000000E+00 0.  1.
         21    1    1    2  504  502  0.17735068783E+03  0.12553899810E+03 -0.48534170651E+03  0.53176111046E+03  0.00000000000E+00 0. -1.
         21    1    1    2  505  501 -0.10135511165E+02 -0.35979335206E+02 -0.82632869907E+02  0.90694169259E+02  0.00000000000E+00 0.  1.
          2    1    1    2  501    0 -0.18702602125E+03 -0.12458776924E+03 -0.11964152221E+04  0.12173373520E+04  0.00000000000E+00 0.  1.
<scales pt_clust_3="38.73384" pt_clust_4="207.95749" pt_clust_5="37.37969" pt_clust_6="14000.00000"></scales>
<clustering>
<clus scale="   37.380">  1  5  2 -1</clus>
<clus scale="   38.734">  2  3  1 -1</clus>
<clus scale="  207.957">  1  4  2 -1</clus>
<clus scale="   37.380">  1  3  2 -1</clus>
</clustering>
</event>
<event>
 6    0  0.3643696E+002  0.8725518E+02  0.7546771E-02  0.1309638E+00
          2   -1    0    0  504    0 -0.00000000000E+00  0.00000000000E+00  0.17174062199E+04  0.17174062199E+04  0.00000000000E+00 0.  1.
         21   -1    0    0  501  502  0.00000000000E+00 -0.00000000000E+00 -0.25609755717E+03  0.25609755717E+03  0.00000000000E+00 0. -1.
         21    1    1    2  503  505  0.15902377150E+02  0.88743334542E+02  0.42429917310E+03  0.43377189089E+03  0.00000000000E+00 0.  1.
         21    1    1    2  504  503  0.34811298982E+02  0.85909873151E+01  0.77075729416E+02  0.85007644744E+02  0.00000000000E+00 0. -1.
         21    1    1    2  505  502 -0.73626286499E+02 -0.94323247457E+01 -0.24007187563E+03  0.25128530455E+03  0.00000000000E+00 0. -1.
          2    1    1    2  501    0  0.22912610368E+02 -0.87901997111E+02  0.12000056358E+04  0.12034389369E+04  0.00000000000E+00 0.  1.
<scales pt_clust_3="87.25518" pt_clust_4="35.85571" pt_clust_5="74.10597" pt_clust_6="14000.00000"></scales>
<clustering>
<clus scale="   35.856">  1  4  2 -1</clus>
<clus scale="   74.106">  2  5  1 -1</clus>
<clus scale="   87.255">  2  3  1 -1</clus>
<clus scale="   74.106">  2  3  1 -1</clus>
</clustering>
</event>
<event>
 6    0  0.3643696E+002  0.1319370E+03  0.7546771E-02  0.1224610E+00
          2   -1    0    0  505    0 -0.00000000000E+00  0.00000000000E+00  0.12443895699E+04  0.12443895699E+04  0.00000000000E+00 0.  1.
         21   -1    0    0  503  502  0.00000000000E+00 -0.00000000000E+00 -0.93207004683E+03  0.93207004683E+03  0.00000000000E+00 0.  1.
         21    1    1    2  503  501  0.44114615482E+02  0.70557408573E+02  0.63023065082E+01  0.83451580398E+02  0.00000000000E+00 0. -1.
         21    1    1    2  504  502 -0.14680410714E+02  0.73332732869E+02 -0.88419941951E+03  0.88735664625E+03  0.00000000000E+00 0.  1.
         21    1    1    2  505  504 -0.37641595772E+02 -0.26866008730E+02  0.11345582065E+03  0.12251895934E+03  0.00000000000E+00 0.  1.
          2    1    1    2  501    0  0.82073910050E+01 -0.11702413271E+03  0.10767608154E+04  0.10831324308E+04  0.00000000000E+00 0.  1.
<scales pt_clust_3="14000.00000" pt_clust_4="74.76119" pt_clust_5="46.24578" pt_clust_6="131.93701"></scales>
<clustering>
<clus scale="   46.246">  1  5  2 -1</clus>
<clus scale="   74.761">  2  4  1 -1</clus>
<clus scale="  131.937">  1  6  2 -1</clus>
<clus scale="   74.761">  2  3  1 -1</clus>
</clustering>
</event>
<event>
 6    0  0.3643696E+002  0.9404364E+02  0.7546771E-02  0.1293345E+00
         -2   -1    0    0    0  501 -0.00000000000E+00  0.00000000000E+00  0.10768384700E+03  0.10768384700E+03  0.00000000000E+00 0.  1.
         21   -1    0    0  504  502  0.00000000000E+00 -0.00000000000E+00 -0.41682272489E+03  0.41682272489E+03  0.00000000000E+00 0. -1.
         21    1    1    2  503  505 -0.39144547071E+02 -0.72327359292E+02 -0.11578624430E+03  0.14202111405E+03  0.00000000000E+00 0. -1.
         21    1    1    2  504  501 -0.32824501125E+02  0.73436948800E+02 -0.49142991588E+01  0.80588979763E+02  0.00000000000E+00 0. -1.
         21    1    1    2  505  502 -0.43328867517E+02 -0.10777916123E+02 -0.18047957697E+03  0.18592049897E+03  0.00000000000E+00 0. -1.
         -2    1    1    2    0  503  0.11529791571E+03  0.96683266157E+01 -0.79587574621E+01  0.11597597910E+03  0.00000000000E+00 0.  1.
<scales pt_clust_3="94.04364" pt_clust_4="82.26809" pt_clust_5="44.64924" pt_clust_6="14000.00000"></scales>
<clustering>
<clus scale="   44.649">  2  5  1 -1</clus>
<clus scale="   82.268">  1  4  2 -1</clus>
<clus scale="   94.044">  2  3  1 -1</clus>
<clus scale="   44.649">  2  3  1 -1</clus>
</clustering>
</event>
<event>
 6    0  0.3643696E+002  0.8518136E+02  0.7546771E-02  0.1314959E+00
         21   -1    0    0  505  502  0.00000000000E+00  0.00000000000E+00  0.17893111052E+03  0.17893111052E+03  0.00000000000E+00 0. -1.
          2   -1    0    0  504    0 -0.00000000000E+00 -0.00000000000E+00 -0.16229482555E+04  0.16229482555E+04  0.00000000000E+00 0.  1.
         21    1    1    2  503  502 -0.67610676488E+02  0.12468077025E+02  0.14936318799E+03  0.16442633137E+03  0.00000000000E+00 0. -1.
         21    1    1    2  504  503  0.62063327280E+02 -0.13000974404E+03 -0.35957042284E+03  0.38735678530E+03  0.00000000000E+00 0. -1.
         21    1    1    2  505  501  0.71294325995E+01  0.37068549997E+02 -0.45747697497E+02  0.59310690725E+02  0.00000000000E+00 0.  1.
          2    1    1    2  501    0 -0.15820833923E+01  0.80473117019E+02 -0.11880622127E+04  0.11907855587E+04  0.00000000000E+00 0.  1.
<scales pt_clust_3="76.64224" pt_clust_4="14000.00000" pt_clust_5="37.74793" pt_clust_6="85.18136"></scales>
<clustering>
<clus scale="   37.748">  1  5  2 -1</clus>
<clus scale="   76.642">  1  3  2 -1</clus>
<clus scale="   85.181">  2  6  1 -1</clus>
<clus scale="   37.748">  1  3  2 -1</clus>
</clustering>
</event>
<event>
 6    0  0.3643696E+002  0.1418504E+03  0.7546771E-02  0.1210861E+00
          2   -1    0    0  504    0 -0.00000000000E+00  0.00000000000E+00  0.24043108563E+04  0.24043108563E+04  0.00000000000E+00 0. -1.
         21   -1    0    0  503  502  0.00000000000E+00 -0.00000000000E+00 -0.55274764886E+02  0.55274764886E+02  0.00000000000E+00 0.  1.
         21    1    1    2  503  501 -0.89056444402E+01 -0.29318277968E+02  0.61783113013E+02  0.68963939704E+02  0.00000000000E+00 0. -1.
         21    1    1    2  504  505 -0.37781448648E+02  0.19012413449E+02  0.98207562563E+03  0.98298598372E+03  0.00000000000E+00 0. -1.
         21    1    1    2  505  502  0.13614571026E+03  0.95191828853E+02  0.95357859636E+02  0.19154701798E+03  0.00000000000E+00 0.  1.
          2    1    1    2  501    0 -0.89458617175E+02 -0.84885964334E+02  0.12098194931E+04  0.12160886798E+04  0.00000000000E+00 0. -1.
<scales pt_clust_3="30.64102" pt_clust_4="42.25034" pt_clust_5="14000.00000" pt_clust_6="141.85035"></scales>
<clustering>
<clus scale="   30.641">  2  3  1 -1</clus>
<clus scale="   42.250">  1  4  2 -1</clus>
<clus scale="  141.850">  1  6  2 -1</clus>
<clus scale="   30.641">  2  3  1 -1</clus>
</clustering>
</event>
<event>
 6    0  0.3643696E+002  0.5559675E+02  0.7546771E-02  0.1417298E+00
          2   -1    0    0  505    0 -0.00000000000E+00  0.00000000000E+00  0.28427019909E+04  0.28427019909E+04  0.00000000000E+00 0. -1.
         21   -1    0    0  504  502  0.00000000000E+00 -0.00000000000E+00 -0.38141411702E+02  0.38141411702E+02  0.00000000000E+00 0. -1.
         21    1    1    2  503  502 -0.15489982456E+02  0.53463207641E+02 -0.98090911436E+01  0.56519663806E+02  0.00000000000E+00 0. -1.
         21    1    1    2  504  501 -0.29984510630E+02 -0.64243649913E+02  0.46134364381E+03  0.46675933318E+03  0.00000000000E+00 0. -1.
         21    1    1    2  505  503 -0.28233363660E+02  0.44602313114E+02  0.50311835289E+03  0.50587999187E+03  0.00000000000E+00 0. -1.
          2    1    1    2  501    0  0.73707856746E+02 -0.33821870842E+02  0.18499076737E+04  0.18516844138E+04  0.00000000000E+00 0. -1.
<scales pt_clust_3="55.59675" pt_clust_4="14000.00000" pt_clust_5="52.78721" pt_clust_6="51.38124"></scales>
<clustering>
<clus scale="   52.787">  1  5  2 -1</clus>
<clus scale="   51.381">  1  6  2 -1</clus>
<clus scale="   55.597">  2  3  1 -1</clus>
<clus scale="   55.597">  2  3  1 -1</clus>
</clustering>
</event>
<event>
 6    0  0.3643696E+002  0.9462561E+02  0.7546771E-02  0.1292022E+00
          1   -1    0    0  504    0 -0.00000000000E+00  0.00000000000E+00  0.79073904869E+02  0.79073904869E+02  0.00000000000E+00 0. -1.
         21   -1    0    0  505  502  0.00000000000E+00 -0.00000000000E+00 -0.50997805992E+03  0.50997805992E+03  0.00000000000E+00 0. -1.
         21    1    1    2  503  502  0.11676456418E+02  0.49126458793E+02 -0.40438931432E+02  0.64692006951E+02  0.00000000000E+00 0. -1.
         21    1    1    2  504  503 -0.19512202856E+02 -0.27034530359E+02 -0.21666146905E+02  0.39761964410E+02  0.00000000000E+00 0.  1.
         21    1    1    2  505  501  0.58524689462E+01 -0.96730334862E+02 -0.39404063270E+03  0.40578199725E+03  0.00000000000E+00 0. -1.
          1    1    1    2  501    0  0.19832774917E+01  0.74638406429E+02  0.25241555990E+02  0.78815996173E+02  0.00000000000E+00 0. -1.
<scales pt_clust_3="45.21274" pt_clust_4="33.34054" pt_clust_5="94.62561" pt_clust_6="14000.00000"></scales>
<clustering>
<clus scale="   33.341">  1  4  2 -1</clus>
<clus scale="   45.213">  1  3  2 -1</clus>
<clus scale="   94.626">  2  5  1 -1</clus>
<clus scale="   94.626">  2  3  1 -1</clus>
</clustering>
</event>
<event>
 6    0  0.3643696E+002  0.1246288E+03  0.7546771E-02  0.1235651E+00
         21   -1    0    0  501  502  0.00000000000E+00  0.00000000000E+00  0.40562328430E+03  0.40562328430E+03  0.00000000000E+00 0. -1.
          2   -1    0    0  503    0 -0.00000000000E+00 -0.00000000000E+00 -0.33483339294E+03  0.33483339294E+03  0.00000000000E+00 0. -1.
         21    1    1    2  503  504  0.19864401218E+02  0.25524627104E+02  0.55708912702E+00  0.32348282378E+02  0.00000000000E+00 0.  1.
         21    1    1    2  504  505 -0.28158192364E+02  0.25940368393E+02 -0.23591451907E+03  0.23900093476E+03  0.00000000000E+00 0. -1.
         21    1    1    2  505  502 -0.11900768429E+03  0.25235307189E+02  0.29613374183E+03  0.32014815742E+03  0.00000000000E+00 0. -1.
          2    1    1    2  501    0  0.12730147543E+03 -0.76700302685E+02  0.10013579475E+02  0.14895930267E+03  0.00000000000E+00 0. -1.
<scales pt_clust_3="32.34349" pt_clust_4="46.89025" pt_clust_5="124.62880" pt_clust_6="14000.00000"></scales>
<clustering>
<clus scale="   32.343">  2  3  1 -1</clus>
<clus scale="   46.890">  2  4  1 -1</clus>
<clus scale="  124.629">  1  5  2 -1</clus>
<clus scale="  124.629">  1  3  2 -1</clus>
</clustering>
</event>
<event>
 6    0  0.3643696E+002  0.8522690E+02  0.7546771E-02  0.1314840E+00
         21   -1    0    0  505  502  0.00000000000E+00  0.00000000000E+00  0.22617185918E+03  0.22617185918E+03  0.00000000000E+00 0. -1.
          2   -1    0    0  503    0 -0.00000000000E+00 -0.00000000000E+00 -0.34600929538E+03  0.34600929538E+03  0.00000000000E+00 0.  1.
         21    1    1    2  503  504 -0.33264142443E+02  0.47846568166E+02 -0.36963377246E+02  0.69007887340E+02  0.00000000000E+00 0.  1.
         21    1    1    2  504  502 -0.29148763152E+02  0.71331954274E+02  0.14817229571E+03  0.16701175800E+03  0.00000000000E+00 0. -1.
         21    1    1    2  505  501  0.29605507124E+02 -0.22423342708E+02  0.35086769017E+02  0.51091816471E+02  0.00000000000E+00 0. -1.
          2    1    1    2  501    0  0.32807398472E+02 -0.96755179731E+02 -0.26613312369E+03  0.28506969275E+03  0.00000000000E+00 0.  1.
<scales pt_clust_3="14000.00000" pt_clust_4="52.15954" pt_clust_5="37.13883" pt_clust_6="85.22690"></scales>
<clustering>
<clus scale="   37.139">  1  5  2 -1</clus>
<clus scale="   52.160">  1  4  2 -1</clus>
<clus scale="   85.227">  2  6  1 -1</clus>
<clus scale="   37.139">  1  3  2 -1</clus>
</clustering>
</event>
<event>
 6    0  0.3643696E+002  0.8668431E+02  0.7546771E-02  0.1311086E+00
          1   -1    0    0  504    0 -0.00000000000E+00  0.00000000000E+00  0.24250289163E+03  0.24250289163E+03  0.00000000000E+00 0.  1.
         21   -1    0    0  505  502  0.00000000000E+00 -0.00000000000E+00 -0.70469519377E+03  0.70469519377E+03  0.00000000000E+00 0. -1.
         21    1    1    2  503  502 -0.54052583906E+02  0.17944581993E+02  0.57202670573E+01  0.57239945012E+02  0.00000000000E+00 0.  1.
         21    1    1    2  504  503 -0.30192695457E+02 -0.21260131466E+02  0.40345667681E+02  0.54693372081E+02  0.00000000000E+00 0.  1.
         21    1    1    2  505  501 -0.47609925470E+02 -0.35017015908E+02 -0.64133124222E+03  0.64404864618E+03  0.00000000000E+00 0. -1.
          1    1    1    2  501    0  0.13185520483E+03  0.38332565381E+02  0.13307300534E+03  0.19121612212E+03  0.00000000000E+00 0.  1.
<scales pt_clust_3="86.68431" pt_clust_4="36.92685" pt_clust_5="59.35799" pt_clust_6="14000.00000"></scales>
<clustering>
<clus scale="   36.927">  1  4  2 -1</clus>
<clus scale="   59.358">  2  5  1 -1</clus>
<clus scale="   86.684">  2  3  1 -1</clus>
<clus scale="   59.358">  2  3  1 -1</clus>
</clustering>
</event>
<event>
 6    0  0.3643696E+002  0.1360532E+03  0.7546771E-02  0.1218741E+00
         21   -1    0    0  503  502  0.00000000000E+00  0.00000000000E+00  0.16826189066E+03  0.16826189066E+03  0.00000000000E+00 0.  1.
         -1   -1    0    0    0  501 -0.00000000000E+00 -0.00000000000E+00 -0.71974111903E+03  0.71974111903E+03  0.00000000000E+00 0. -1.
         21    1    1    2  503  504 -0.91308456504E+02  0.68774014251E+02  0.12486318808E+03  0.16928648795E+03  0.00000000000E+00 0.  1.
         21    1    1    2  504  501  0.84268038916E+02 -0.55954909375E+01 -0.22553344139E+03  0.24082721002E+03  0.00000000000E+00 0.  1.
         21    1    1    2  505  502 -0.28043653922E+02  0.17862144613E+02 -0.21506925066E+02  0.39598618174E+02  0.00000000000E+00 0.  1.
         -1    1    1    2    0  505  0.35084071510E+02 -0.81040667926E+02 -0.42930204998E+03  0.43829069355E+03  0.00000000000E+00 0. -1.
<scales pt_clust_3="14000.00000" pt_clust_4="83.05638" pt_clust_5="33.24910" pt_clust_6="136.05319"></scales>
<clustering>
<clus scale="   33.249">  1  5  2 -1</clus>
<clus scale="   83.056">  2  4  1 -1</clus>
<clus scale="  136.053">  2  6  1 -1</clus>
<clus scale="   33.249">  1  3  2 -1</clus>
</clustering>
</event>
<event>
 6    0  0.3643696E+002  0.1194801E+03  0.7546771E-02  0.1243957E+00
         -2   -1    0    0    0  501 -0.00000000000E+00  0.00000000000E+00  0.18639714626E+04  0.18639714626E+04  0.00000000000E+00 0. -1.
         21   -1    0    0  504  502  0.00000000000E+00 -0.00000000000E+00 -0.76619312585E+02  0.76619312585E+02  0.00000000000E+00 0. -1.
         21    1    1    2  503  502  0.54387492625E+02  0.19484354716E+02 -0.54173856373E+02  0.79198776171E+02  0.00000000000E+00 0. -1.
         21    1    1    2  504  505 -0.13133256142E+02 -0.73594805903E+02  0.34717723724E+03  0.35513477995E+03  0.00000000000E+00 0. -1.
         21    1    1    2  505  501 -0.59324965506E+02 -0.43355841179E+02  0.35038948806E+03  0.35801113647E+03  0.00000000000E+00 0. -1.
         -2    1    1    2    0  503  0.18070729023E+02  0.97466292366E+02  0.11439592811E+04  0.11482460826E+04  0.00000000000E+00 0. -1.
<scales pt_clust_3="57.77231" pt_clust_4="54.75361" pt_clust_5="54.75361" pt_clust_6="105.94991"></scales>
<clustering>
<clus scale="   54.754">  4  5 -1 -1</clus>
<clus scale="   57.772">  2  3  1 -1</clus>
<clus scale="  105.950">  1  6  2 -1</clus>
<clus scale="   57.772">  2  3  1 -1</clus>
</clustering>
</event>
<event>
 6    0  0.3643696E+002  0.7737148E+02  0.7546771E-02  0.1336681E+00
         21   -1    0    0  504  502  0.00000000000E+00  0.00000000000E+00  0.14725201264E+03  0.14725201264E+03  0.00000000000E+00 0. -1.
          4   -1    0    0  505    0 -0.00000000000E+00 -0.00000000000E+00 -0.51000972685E+03  0.51000972685E+03  0.00000000000E+00 0.  1.
         21    1    1    2  503  501  0.59119682642E+02  0.10642023543E+02 -0.15432922424E+03  0.16560766587E+03  0.00000000000E+00 0.  1.
         21    1    1    2  504  503  0.24090148423E+02 -0.44098291596E+02  0.11079532955E+03  0.12165771501E+03  0.00000000000E+00 0. -1.
         21    1    1    2  505  502 -0.94369810325E+02  0.77115212593E+02 -0.14196924206E+03  0.18710340137E+03  0.00000000000E+00 0.  1.
          4    1    1    2  501    0  0.11159979260E+02 -0.43658944540E+02 -0.17725457745E+03  0.18289295723E+03  0.00000000000E+00 0.  1.
<scales pt_clust_3="77.37148" pt_clust_4="50.96844" pt_clust_5="14000.00000" pt_clust_6="45.06272"></scales>
<clustering>
<clus scale="   45.063">  2  6  1 -1</clus>
<clus scale="   50.968">  1  4  2 -1</clus>
<clus scale="   77.371">  2  3  1 -1</clus>
<clus scale="   50.968">  1  3  2 -1</clus>
</clustering>
</event>
<event>
 6    0  0.3643696E+002  0.1322920E+03  0.7546771E-02  0.1224094E+00
         21   -1    0    0  504  502  0.00000000000E+00  0.00000000000E+00  0.20232739842E+04  0.20232739842E+04  0.00000000000E+00 0. -1.
          2   -1    0    0  503    0 -0.00000000000E+00 -0.00000000000E+00 -0.18068535881E+04  0.18068535881E+04  0.00000000000E+00 0. -1.
         21    1    1    2  503  505  0.79233413671E+02 -0.84420341992E+01 -0.57375661091E+03  0.57926319609E+03  0.00000000000E+00 0. -1.
         21    1    1    2  504  501 -0.89574479243E+02 -0.12737041797E+03 -0.12433942060E+03  0.19926641017E+03  0.00000000000E+00 0. -1.
         21    1    1    2  505  502 -0.20503889530E+02  0.45457761985E+02  0.19806100541E+04  0.19812377454E+04  0.00000000000E+00 0. -1.
          2    1    1    2  501    0  0.30844955103E+02  0.90354690184E+02 -0.10660936265E+04  0.10703602205E+04  0.00000000000E+00 0. -1.
<scales pt_clust_3="78.09338" pt_clust_4="132.29203" pt_clust_5="49.86800" pt_clust_6="14000.00000"></scales>
<clustering>
<clus scale="   49.868">  1  5  2 -1</clus>
<clus scale="   78.093">  2  3  1 -1</clus>
<clus scale="  132.292">  1  4  2 -1</clus>
<clus scale="   49.868">  1  3  2 -1</clus>
</clustering>
</event>
<event>
 6    0  0.3643696E+002  0.7074914E+02  0.7546771E-02  0.1357564E+00
          1   -1    0    0  504    0 -0.00000000000E+00  0.00000000000E+00  0.23078259968E+04  0.23078259968E+04  0.00000000000E+00 0. -1.
         21   -1    0    0  501  502  0.00000000000E+00 -0.00000000000E+00 -0.68803166562E+02  0.68803166562E+02  0.00000000000E+00 0.  1.
         21    1    1    2  503  502  0.58883549143E+02  0.21491809727E+02 -0.40066247134E+02  0.74394048179E+02  0.00000000000E+00 0.  1.
         21    1    1    2  504  505  0.14257595329E+02  0.10041242704E+03  0.14981775519E+04  0.15016064436E+04  0.00000000000E+00 0. -1.
         21    1    1    2  505  503 -0.23581791599E+02 -0.80055974193E+02  0.20894252773E+03  0.22499342167E+03  0.00000000000E+00 0. -1.
          1    1    1    2  501    0 -0.49559352874E+02 -0.41848262577E+02  0.57196899777E+03  0.57563524992E+03  0.00000000000E+00 0. -1.
<scales pt_clust_3="62.68309" pt_clust_4="14000.00000" pt_clust_5="70.74914" pt_clust_6="55.64701"></scales>
<clustering>
<clus scale="   62.683">  2  3  1 -1</clus>
<clus scale="   55.647">  1  6  2 -1</clus>
<clus scale="   70.749">  2  5  1 -1</clus>
<clus scale="   62.683">  2  3  1 -1</clus>
</clustering>
</event>
<event>
 6    0  0.3643696E+002  0.2061235E+03  0.7546771E-02  0.1144673E+00
         -1   -1    0    0    0  501 -0.00000000000E+00  0.00000000000E+00  0.13703445107E+03  0.13703445107E+03  0.00000000000E+00 0.  1.
         21   -1    0    0  505  502  0.00000000000E+00 -0.00000000000E+00 -0.96095494788E+03  0.96095494788E+03  0.00000000000E+00 0.  1.
         21    1    1    2  503  501 -0.25773461597E+02 -0.69570899188E+02  0.35096349504E+02  0.82073961065E+02  0.00000000000E+00 0.  1.
         21    1    1    2  504  503 -0.31432579094E+02 -0.74611584735E+02 -0.56843421692E+02  0.98924568207E+02  0.00000000000E+00 0.  1.
         21    1    1    2  505  504 -0.15039287875E+03  0.17093295060E+03 -0.50006525627E+03  0.54945550512E+03  0.00000000000E+00 0.  1.
         -1    1    1    2    0  502  0.20759891944E+03 -0.26750466675E+02 -0.30210816835E+03  0.36753536457E+03  0.00000000000E+00 0.  1.
<scales pt_clust_3="74.19152" pt_clust_4="100.84551" pt_clust_5="206.12346" pt_clust_6="14000.00000"></scales>
<clustering>
<clus scale="   74.192">  1  3  2 -1</clus>
<clus scale="  100.846">  1  4  2 -1</clus>
<clus scale="  206.123">  2  5  1 -1</clus>
<clus scale="  206.123">  2  3  1 -1</clus>
</clustering>
</event>
<event>
 6    0  0.3643696E+002  0.9982278E+02  0.7546771E-02  0.1280669E+00
         21   -1    0    0  501  502  0.00000000000E+00  0.00000000000E+00  0.33296769508E+03  0.33296769508E+03  0.00000000000E+00 0. -1.
          2   -1    0    0  505    0 -0.00000000000E+00 -0.00000000000E+00 -0.16526485008E+04  0.16526485008E+04  0.00000000000E+00 0.  1.
         21    1    1    2  503  504  0.47926971411E+02 -0.36625917866E+02 -0.36721435187E+03  0.37213550310E+03  0.00000000000E+00 0.  1.
         21    1    1    2  504  502  0.32375997639E+02  0.95367760447E+02  0.31997660182E+03  0.33545229268E+03  0.00000000000E+00 0. -1.
         21    1    1    2  505  503 -0.15904658923E+02 -0.37535918491E+02 -0.76371467315E+03  0.76480193864E+03  0.00000000000E+00 0.  1.
          2    1    1    2  501    0 -0.64398310128E+02 -0.21205924090E+02 -0.50872838256E+03  0.51322646150E+03  0.00000000000E+00 0.  1.
<scales pt_clust_3="66.60318" pt_clust_4="99.82278" pt_clust_5="40.76645" pt_clust_6="14000.00000"></scales>
<clustering>
<clus scale="   40.766">  2  5  1 -1</clus>
<clus scale="   66.603">  2  3  1 -1</clus>
<clus scale="   99.823">  1  4  2 -1</clus>
<clus scale="   99.823">  1  3  2 -1</clus>
</clustering>
</event>
<event>
 6    0  0.3643696E+002  0.1253951E+03  0.7546771E-02  0.1234453E+00
         21   -1    0    0  505  502  0.00000000000E+00  0.00000000000E+00  0.20940706043E+02  0.20940706043E+02  0.00000000000E+00 0.  1.
          2   -1    0    0  504    0 -0.00000000000E+00 -0.00000000000E+00 -0.36223230880E+04  0.36223230880E+04  0.00000000000E+00 0. -1.
         21    1    1    2  503  502 -0.15258156155E+02  0.54836454506E+02 -0.34663181143E+03  0.35127405365E+03  0.00000000000E+00 0.  1.
         21    1    1    2  504  503  0.83926146734E+02  0.47049063266E+02 -0.87889836155E+03  0.88414904988E+03  0.00000000000E+00 0. -1.
         21    1    1    2  505  501  0.13548335379E+02  0.46928892726E+02 -0.33276021921E+02  0.59103062517E+02  0.00000000000E+00 0.  1.
          2    1    1    2  501    0 -0.82216325958E+02 -0.14881441050E+03 -0.23425761871E+04  0.23487376280E+04  0.00000000000E+00 0. -1.
<scales pt_clust_3="69.33996" pt_clust_4="125.39512" pt_clust_5="48.84545" pt_clust_6="14000.00000"></scales>
<clustering>
<clus scale="   48.845">  1  5  2 -1</clus>
<clus scale="   69.340">  1  3  2 -1</clus>
<clus scale="  125.395">  2  4  1 -1</clus>
<clus scale="   48.845">  1  3  2 -1</clus>
</clustering>
</event>
<event>
 6    0  0.3643696E+002  0.1076729E+03  0.7546771E-02  0.1264941E+00
          2   -1    0    0  505    0 -0.00000000000E+00  0.00000000000E+00  0.79451261008E+03  0.79451261008E+03  0.00000000000E+00 0.  1.
         21   -1    0    0  503  502  0.00000000000E+00 -0.00000000000E+00 -0.99002565360E+03  0.99002565360E+03  0.00000000000E+00 0. -1.
         21    1    1    2  503  501  0.59566816898E+02 -0.44868437693E+02 -0.89738200250E+03  0.90047534158E+03  0.00000000000E+00 0. -1.
         21    1    1    2  504  502 -0.53095188493E+02 -0.60003600686E+01 -0.97761365372E+01  0.54320127095E+02  0.00000000000E+00 0. -1.
         21    1    1    2  505  504 -0.93999232623E+02  0.66030813224E+02  0.23404805550E+01  0.11489735366E+03  0.00000000000E+00 0. -1.
          2    1    1    2  501    0  0.87527604218E+02 -0.15162015462E+02  0.70930461496E+03  0.71484544135E+03  0.00000000000E+00 0.  1.
<scales pt_clust_3="74.57468" pt_clust_4="39.40883" pt_clust_5="39.40883" pt_clust_6="90.85487"></scales>
<clustering>
<clus scale="   39.409">  4  5 -1 -1</clus>
<clus scale="   74.575">  2  3  1 -1</clus>
<clus scale="   90.855">  1  6  2 -1</clus>
<clus scale="   74.575">  2  3  1 -1</clus>
</clustering>
</event>
<event>
 6    0  0.3643696E+002  0.1335093E+03  0.7546771E-02  0.1222340E+00
          2   -1    0    0  504    0 -0.00000000000E+00  0.00000000000E+00  0.11635709830E+04  0.11635709830E+04  0.00000000000E+00 0. -1.
         21   -1    0    0  503  502  0.00000000000E+00 -0.00000000000E+00 -0.24923368154E+03  0.24923368154E+03  0.00000000000E+00 0. -1.
         21    1    1    2  503  501 -0.37851509509E+02 -0.13280521189E+01 -0.21167694682E+03  0.21503867166E+03  0.00000000000E+00 0. -1.
         21    1    1    2  504  505  0.75334094409E+02  0.13258025494E+03  0.22956460489E+03  0.27559509720E+03  0.00000000000E+00 0. -1.
         21    1    1    2  505  502 -0.30720754315E+02  0.81530213363E+00  0.22039294341E+02  0.37817455736E+02  0.00000000000E+00 0.  1.
          2    1    1    2  501    0 -0.67618305854E+01 -0.13206750495E+03  0.87441034905E+03  0.88435343994E+03  0.00000000000E+00 0. -1.
<scales pt_clust_3="65.01266" pt_clust_4="14000.00000" pt_clust_5="30.73157" pt_clust_6="133.50928"></scales>
<clustering>
<clus scale="   30.732">  2  5  1 -1</clus>
<clus scale="   65.013">  2  3  1 -1</clus>
<clus scale="  133.509">  1  6  2 -1</clus>
<clus scale="   30.732">  2  3  1 -1</clus>
</clustering>
</event>
<event>
 6    0  0.3643696E+002  0.9507553E+02  0.7546771E-02  0.1291006E+00
         21   -1    0    0  503  502  0.00000000000E+00  0.00000000000E+00  0.90307234499E+02  0.90307234499E+02  0.00000000000E+00 0. -1.
          2   -1    0    0  504    0 -0.00000000000E+00 -0.00000000000E+00 -0.13384166672E+04  0.13384166672E+04  0.00000000000E+00 0. -1.
         21    1    1    2  503  501 -0.36080853764E+02 -0.60677245129E+02 -0.31478651981E+03  0.32260519081E+03  0.00000000000E+00 0. -1.
         21    1    1    2  504  505  0.64450485286E+02  0.21324056246E+02 -0.28670103459E+03  0.29462868778E+03  0.00000000000E+00 0. -1.
         21    1    1    2  505  502 -0.31543391535E+02  0.94510458592E+02  0.50830811365E+02  0.11185250876E+03  0.00000000000E+00 0. -1.
          2    1    1    2  501    0  0.31737600125E+01 -0.55157269709E+02 -0.69745268971E+03  0.69963751438E+03  0.00000000000E+00 0. -1.
<scales pt_clust_3="95.07553" pt_clust_4="65.99775" pt_clust_5="14000.00000" pt_clust_6="55.24850"></scales>
<clustering>
<clus scale="   55.249">  2  6  1 -1</clus>
<clus scale="   65.998">  2  4  1 -1</clus>
<clus scale="   95.076">  2  3  1 -1</clus>
<clus scale="   95.076">  1  3  2 -1</clus>
</clustering>
</event>
<event>
 6    0  0.3643696E+002  0.1683221E+03  0.7546771E-02  0.1179609E+00
          2   -1    0    0  505    0 -0.00000000000E+00  0.00000000000E+00  0.14606344551E+04  0.14606344551E+04  0.00000000000E+00 0.  1.
         21   -1    0    0  504  502  0.00000000000E+00 -0.00000000000E+00 -0.21734025478E+03  0.21734025478E+03  0.00000000000E+00 0.  1.
         21    1    1    2  503  501 -0.76980210018E+02  0.21903026687E+02  0.44825256402E+03  0.45534169199E+03  0.00000000000E+00 0.  1.
         21    1    1    2  504  503  0.82221821205E+02 -0.20814824818E+02 -0.18813619267E+03  0.20637081142E+03  0.00000000000E+00 0.  1.
         21    1    1    2  505  502  0.10578815110E+03  0.42085992436E+02  0.26725201353E+03  0.29049268908E+03  0.00000000000E+00 0.  1.
          2    1    1    2  501    0 -0.11102976229E+03 -0.43174194305E+02  0.71592581544E+03  0.72576951740E+03  0.00000000000E+00 0.  1.
<scales pt_clust_3="51.26758" pt_clust_4="84.81559" pt_clust_5="156.26947" pt_clust_6="51.26758"></scales>
<clustering>
<clus scale="   51.268">  3  6 -1 -1</clus>
<clus scale="   84.816">  2  4  1 -1</clus>
<clus scale="  156.269">  2  5  1 -1</clus>
<clus scale="   84.816">  2  3  1 -1</clus>
</clustering>
</event>
<event>
 6    0  0.3643696E+002  0.8577289E+02  0.7546771E-02  0.1313424E+00
          1   -1    0    0  503    0 -0.00000000000E+00  0.00000000000E+00  0.17104062788E+04  0.17104062788E+04  0.00000000000E+00 0.  1.
         21   -1    0    0  505  502  0.00000000000E+00 -0.00000000000E+00 -0.32218648455E+03  0.32218648455E+03  0.00000000000E+00 0. -1.
         21    1    1    2  503  502  0.63462393709E+02 -0.47898808052E+01  0.26237998013E+03  0.26998828187E+03  0.00000000000E+00 0.  1.
         21    1    1    2  504  501 -0.11025288401E+03  0.32842937724E+02  0.25888474950E+03  0.28329431783E+03  0.00000000000E+00 0.  1.
         21    1    1    2  505  504 -0.30523429221E+02  0.24156606829E+00 -0.30396778762E+03  0.30549656953E+03  0.00000000000E+00 0. -1.
          1    1    1    2  501    0  0.77313919523E+02 -0.28294622987E+02  0.11709228522E+04  0.11738135941E+04  0.00000000000E+00 0.  1.
<scales pt_clust_3="57.00701" pt_clust_4="14000.00000" pt_clust_5="30.52439" pt_clust_6="85.77289"></scales>
<clustering>
<clus scale="   30.524">  2  5  1 -1</clus>
<clus scale="   57.007">  2  3  1 -1</clus>
<clus scale="   85.773">  1  6  2 -1</clus>
<clus scale="   30.524">  2  3  1 -1</clus>
</clustering>
</event>
<event>
 6    0  0.3643696E+002  0.1536391E+03  0.7546771E-02  0.1196071E+00
         21   -1    0    0  505  502  0.00000000000E+00  0.00000000000E+00  0.30677734344E+03  0.30677734344E+03  0.00000000000E+00 0.  1.
         -1   -1    0    0    0  501 -0.00000000000E+00 -0.00000000000E+00 -0.83832582212E+03  0.83832582212E+03  0.00000000000E+00 0.  1.
         21    1    1    2  503  502  0.99858996439E+02 -0.99808614481E+02  0.25395116823E+03  0.29055941654E+03  0.00000000000E+00 0.  1.
         21    1    1    2  504  503 -0.64574897413E+02  0.53570050426E+02 -0.20437737990E+03  0.22092935770E+03  0.00000000000E+00 0. -1.
         21    1    1    2  505  501  0.50618144505E+02 -0.47030751031E+02 -0.44431163549E+02  0.82147528203E+02  0.00000000000E+00 0. -1.
         -1    1    1    2    0  504 -0.85902243531E+02  0.93269315085E+02 -0.53669110346E+03  0.55146686311E+03  0.00000000000E+00 0.  1.
<scales pt_clust_3="142.81707" pt_clust_4="46.07465" pt_clust_5="69.09478" pt_clust_6="46.07465"></scales>
<clustering>
<clus scale="   46.075">  4  6 -1 -1</clus>
<clus scale="   69.095">  2  5  1 -1</clus>
<clus scale="  142.817">  1  3  2 -1</clus>
<clus scale="  142.817">  1  3  2 -1</clus>
</clustering>
</event>
<event>
 6    0  0.3643696E+002  0.2244846E+03  0.7546771E-02  0.1130583E+00
         21   -1    0    0  505  502  0.00000000000E+00  0.00000000000E+00  0.84884388265E+02  0.84884388265E+02  0.00000000000E+00 0. -1.
          2   -1    0    0  504    0 -0.00000000000E+00 -0.00000000000E+00 -0.73598597704E+03  0.73598597704E+03  0.00000000000E+00 0.  1.
         21    1    1    2  503  502  0.13770603508E+03  0.42922025033E+02 -0.15565448324E+03  0.21221114599E+03  0.00000000000E+00 0. -1.
         21    1    1    2  504  503  0.75623889288E+02 -0.52434455244E+02 -0.84288150091E+02  0.12479117346E+03  0.00000000000E+00 0. -1.
         21    1    1    2  505  501 -0.22264825327E+02  0.49765539199E+02 -0.53522273017E+02  0.76400033033E+02  0.00000000000E+00 0.  1.
          2    1    1    2  501    0 -0.19106509904E+03 -0.40253108988E+02 -0.35763668243E+03  0.40746801282E+03  0.00000000000E+00 0.  1.
<scales pt_clust_3="75.97547" pt_clust_4="75.97547" pt_clust_5="54.51909" pt_clust_6="199.98846"></scales>
<clustering>
<clus scale="   54.519">  1  5  2 -1</clus>
<clus scale="   75.975">  3  4 -1 -1</clus>
<clus scale="  199.988">  2  6  1 -1</clus>
<clus scale="   54.519">  1  3  2 -1</clus>
</clustering>
</event>
<event>
 6    0  0.3643696E+002  0.9299821E+02  0.7546771E-02  0.1295749E+00
         21   -1    0    0  504  502  0.00000000000E+00  0.00000000000E+00  0.19350565652E+03  0.19350565652E+03  0.00000000000E+00 0.  1.
          2   -1    0    0  505    0 -0.00000000000E+00 -0.00000000000E+00 -0.22245503506E+04  0.22245503506E+04  0.00000000000E+00 0.  1.
         21    1    1    2  503  502  0.52518733595E+02  0.19380327759E+02 -0.13805146205E+03  0.14896986493E+03  0.00000000000E+00 0. -1.
         21    1    1    2  504  501 -0.78945255745E+02 -0.49730663632E+02  0.17320695484E+03  0.19673876464E+03  0.00000000000E+00 0.  1.
         21    1    1    2  505  503 -0.30392227592E+02 -0.26080639095E+02 -0.14976377974E+04  0.14981731741E+04  0.00000000000E+00 0.  1.
          2    1    1    2  501    0  0.56818749741E+02  0.56430974967E+02 -0.56856238946E+03  0.57417420350E+03  0.00000000000E+00 0.  1.
<scales pt_clust_3="48.64409" pt_clust_4="92.99821" pt_clust_5="40.04856" pt_clust_6="14000.00000"></scales>
<clustering>
<clus scale="   40.049">  2  5  1 -1</clus>
<clus scale="   48.644">  2  3  1 -1</clus>
<clus scale="   92.998">  1  4  2 -1</clus>
<clus scale="   92.998">  1  3  2 -1</clus>
</clustering>
</event>
<event>
 6    0  0.3643696E+002  0.9867888E+02  0.7546771E-02  0.1283099E+00
         21   -1    0    0  501  502  0.00000000000E+00  0.00000000000E+00  0.40997559200E+02  0.40997559200E+02  0.00000000000E+00 0. -1.
          1   -1    0    0  504    0 -0.00000000000E+00 -0.00000000000E+00 -0.71577190294E+03  0.71577190294E+03  0.00000000000E+00 0. -1.
         21    1    1    2  503  505  0.31081874931E+02  0.52188433334E+02 -0.22354231652E+03  0.23164818756E+03  0.00000000000E+00 0. -1.
         21    1    1    2  504  503  0.28139595486E+02 -0.33141955463E+02 -0.12020837955E+03  0.12782910686E+03  0.00000000000E+00 0. -1.
         21    1    1    2  505  502 -0.94221061263E+01  0.92000885611E+02 -0.10024360234E+03  0.13638811842E+03  0.00000000000E+00 0. -1.
          1    1    1    2  501    0 -0.49799364290E+02 -0.11104736348E+03 -0.23078004533E+03  0.26090404930E+03  0.00000000000E+00 0. -1.
<scales pt_clust_3="57.54691" pt_clust_4="43.47673" pt_clust_5="14000.00000" pt_clust_6="98.67888"></scales>
<clustering>
<clus scale="   43.477">  2  4  1 -1</clus>
<clus scale="   57.547">  2  3  1 -1</clus>
<clus scale="   98.679">  2  6  1 -1</clus>
<clus scale="   98.679">  1  3  2 -1</clus>
</clustering>
</event>
<event>
 6    0  0.5450862E+002  0.1280132E+03  0.7546771E-02  0.1230434E+00
          1   -1    0    0  502    0 -0.00000000000E+00  0.00000000000E+00  0.11975495533E+04  0.11975495533E+04  0.00000000000E+00 0.  1.
         21   -1    0    0  503  502  0.00000000000E+00 -0.00000000000E+00 -0.96312042649E+03  0.96312042649E+03  0.00000000000E+00 0.  1.
         21    1    1    2  503  505  0.35659048639E+02 -0.35150017648E+02 -0.90187428730E+03  0.90326315190E+03  0.00000000000E+00 0.  1.
         21    1    1    2  504  501  0.17285318050E+02 -0.47090727109E+02 -0.33164002813E+02  0.60134598048E+02  0.00000000000E+00 0. -1.
         21    1    1    2  505  504 -0.26964840820E+02 -0.50211100607E+02  0.73418897378E+02  0.92944024858E+02  0.00000000000E+00 0.  1.
          1    1    1    2  501    0 -0.25979525870E+02  0.13245184536E+03  0.10960485195E+04  0.11043282050E+04  0.00000000000E+00 0.  1.
<scales pt_clust_3="50.07086" pt_clust_4="128.01315" pt_clust_5="59.77023" pt_clust_6="14000.00000"></scales>
<clustering>
<clus scale="   50.071">  2  3  1 -1</clus>
<clus scale="   59.770">  2  5  1 -1</clus>
<clus scale="  128.013">  2  4  1 -1</clus>
<clus scale="   50.071">  2  3  1 -1</clus>
</clustering>
</event>
<event>
 6    0  0.3643696E+002  0.8443069E+02  0.7546771E-02  0.1316928E+00
         21   -1    0    0  505  502  0.00000000000E+00  0.00000000000E+00  0.17984687782E+03  0.17984687782E+03  0.00000000000E+00 0.  1.
          1   -1    0    0  504    0 -0.00000000000E+00 -0.00000000000E+00 -0.11425919451E+03  0.11425919451E+03  0.00000000000E+00 0.  1.
         21    1    1    2  503  502 -0.44548756919E+02 -0.80369459899E+02  0.13583935002E+02  0.92888993523E+02  0.00000000000E+00 0.  1.
         21    1    1    2  504  503 -0.43032436285E+02  0.35114237442E+02  0.45070906443E+01  0.55723550765E+02  0.00000000000E+00 0.  1.
         21    1    1    2  505  501  0.51319404998E+02 -0.23396408037E+02  0.36243569927E+02  0.67042297092E+02  0.00000000000E+00 0.  1.
          1    1    1    2  501    0  0.36261788207E+02  0.68651630493E+02  0.11253087738E+02  0.78451230946E+02  0.00000000000E+00 0.  1.
<scales pt_clust_3="84.43069" pt_clust_4="55.54098" pt_clust_5="47.13284" pt_clust_6="14000.00000"></scales>
<clustering>
<clus scale="   55.541">  2  4  1 -1</clus>
<clus scale="   47.133">  1  5  2 -1</clus>
<clus scale="   84.431">  2  3  1 -1</clus>
<clus scale="   47.133">  1  3  2 -1</clus>
</clustering>
</event>
<event>
 6    0  0.3643696E+002  0.9613328E+02  0.7546771E-02  0.1288644E+00
         21   -1    0    0  503  502  0.00000000000E+00  0.00000000000E+00  0.12694992915E+03  0.12694992915E+03  0.00000000000E+00 0. -1.
         -3   -1    0    0    0  501 -0.00000000000E+00 -0.00000000000E+00 -0.10478360909E+04  0.10478360909E+04  0.00000000000E+00 0. -1.
         21    1    1    2  503  501  0.45053175809E+02 -0.10343416716E+02 -0.13409697872E+03  0.14184066632E+03  0.00000000000E+00 0.  1.
         21    1    1    2  504  502  0.42516231103E+02 -0.87295114361E+02  0.96657416346E+02  0.13700628830E+03  0.00000000000E+00 0. -1.
         21    1    1    2  505  504 -0.80530741877E+02  0.41786428133E+02 -0.46988562627E+03  0.47856431933E+03  0.00000000000E+00 0. -1.
         -3    1    1    2    0  505 -0.70386650346E+01  0.55852102944E+02 -0.41356097314E+03  0.41737474614E+03  0.00000000000E+00 0. -1.
<scales pt_clust_3="46.22526" pt_clust_4="14000.00000" pt_clust_5="96.13328" pt_clust_6="52.88989"></scales>
<clustering>
<clus scale="   46.225">  2  3  1 -1</clus>
<clus scale="   52.890">  2  6  1 -1</clus>
<clus scale="   96.133">  2  5  1 -1</clus>
<clus scale="   96.133">  1  3  2 -1</clus>
</clustering>
</event>
<event>
 6    0  0.3643696E+002  0.1041536E+03  0.7546771E-02  0.1271796E+00
         21   -1    0    0  501  502  0.00000000000E+00  0.00000000000E+00  0.55235048910E+02  0.55235048910E+02  0.00000000000E+00 0.  1.
          2   -1    0    0  505    0 -0.00000000000E+00 -0.00000000000E+00 -0.25337410720E+04  0.25337410720E+04  0.00000000000E+00 0.  1.
         21    1    1    2  503  502  0.97239917309E+00  0.10748332761E+03 -0.62909258001E+01  0.10767166304E+03  0.00000000000E+00 0.  1.
         21    1    1    2  504  503 -0.58795114813E+02 -0.33159213392E+02 -0.42348431347E+03  0.42883022598E+03  0.00000000000E+00 0. -1.
         21    1    1    2  505  504 -0.18602456674E+01 -0.53996944195E+02 -0.61884119008E+03  0.62119525838E+03  0.00000000000E+00 0.  1.
          2    1    1    2  501    0  0.59682961307E+02 -0.20327170028E+02 -0.14298895938E+04  0.14312789735E+04  0.00000000000E+00 0.  1.
<scales pt_clust_3="14000.00000" pt_clust_4="74.48019" pt_clust_5="54.02898" pt_clust_6="104.15357"></scales>
<clustering>
<clus scale="   54.029">  2  5  1 -1</clus>
<clus scale="   74.480">  2  4  1 -1</clus>
<clus scale="  104.154">  2  6  1 -1</clus>
<clus scale="  104.154">  1  3  2 -1</clus>
</clustering>
</event>
<event>
 6    0  0.3643696E+002  0.2141824E+03  0.7546771E-02  0.1138296E+00
         21   -1    0    0  505  502  0.00000000000E+00  0.00000000000E+00  0.67198974580E+03  0.67198974580E+03  0.00000000000E+00 0.  1.
          1   -1    0    0  503    0 -0.00000000000E+00 -0.00000000000E+00 -0.53333989471E+03  0.53333989471E+03  0.00000000000E+00 0.  1.
         21    1    1    2  503  504  0.34921128798E+02  0.79037904254E+01 -0.13505641860E+02  0.38266924383E+02  0.00000000000E+00 0. -1.
         21    1    1    2  504  502  0.36174548599E+02  0.51545774795E+01 -0.23766638261E+03  0.24045888850E+03  0.00000000000E+00 0. -1.
         21    1    1    2  505  501 -0.20810088176E+03  0.67087651156E+02  0.61408754256E+03  0.65185139399E+03  0.00000000000E+00 0.  1.
          1    1    1    2  501    0  0.13700520436E+03 -0.80146019061E+02 -0.22426566699E+03  0.27475243363E+03  0.00000000000E+00 0.  1.
<scales pt_clust_3="35.80440" pt_clust_4="53.36960" pt_clust_5="14000.00000" pt_clust_6="214.18245"></scales>
<clustering>
<clus scale="   35.804">  2  3  1 -1</clus>
<clus scale="   53.370">  2  4  1 -1</clus>
<clus scale="  214.182">  2  6  1 -1</clus>
<clus scale="  214.182">  1  3  2 -1</clus>
</clustering>
</event>
<event>
 6    0  0.3643696E+002  0.7588116E+02  0.7546771E-02  0.1341164E+00
          1   -1    0    0  505    0 -0.00000000000E+00  0.00000000000E+00  0.34343557352E+03  0.34343557352E+03  0.00000000000E+00 0.  1.
         21   -1    0    0  503  502  0.00000000000E+00 -0.00000000000E+00 -0.13532099030E+03  0.13532099030E+03  0.00000000000E+00 0.  1.
         21    1    1    2  503  501 -0.43579578842E+02 -0.20641248259E+02 -0.81550092596E+02  0.94739951574E+02  0.00000000000E+00 0.  1.
         21    1    1    2  504  502 -0.57323206631E+02 -0.45214727681E+02  0.10940784615E+03  0.13153097892E+03  0.00000000000E+00 0.  1.
         21    1    1    2  505  504  0.53088893998E+02 -0.22294180748E+02  0.12584526404E+03  0.13839252741E+03  0.00000000000E+00 0.  1.
          1    1    1    2  501    0  0.47813891475E+02  0.88150156687E+02  0.54411565631E+02  0.11409310591E+03  0.00000000000E+00 0.  1.
<scales pt_clust_3="48.22075" pt_clust_4="75.88116" pt_clust_5="53.51295" pt_clust_6="14000.00000"></scales>
<clustering>
<clus scale="   48.221">  2  3  1 -1</clus>
<clus scale="   53.513">  1  5  2 -1</clus>
<clus scale="   75.881">  1  4  2 -1</clus>
<clus scale="   48.221">  2  3  1 -1</clus>
</clustering>
</event>
<event>
 6    0  0.3643696E+002  0.1032024E+03  0.7546771E-02  0.1273702E+00
         -1   -1    0    0    0  501 -0.00000000000E+00  0.00000000000E+00  0.41584272807E+03  0.41584272807E+03  0.00000000000E+00 0. -1.
         21   -1    0    0  504  502  0.00000000000E+00 -0.00000000000E+00 -0.24487394650E+03  0.24487394650E+03  0.00000000000E+00 0. -1.
         21    1    1    2  503  502  0.41926905590E+02  0.35023899989E+02  0.85963270837E+02  0.10185392931E+03  0.00000000000E+00 0.  1.
         21    1    1    2  504  501  0.31855543928E+02 -0.93275416558E+02 -0.19926826401E+03  0.22231266283E+03  0.00000000000E+00 0. -1.
         21    1    1    2  505  503  0.24418879569E+02  0.44027586776E+02  0.19842975963E+02  0.54115189843E+02  0.00000000000E+00 0. -1.
         -1    1    1    2    0  505 -0.98201329086E+02  0.14223929793E+02  0.26443079877E+03  0.28243489259E+03  0.00000000000E+00 0. -1.
<scales pt_clust_3="47.81153" pt_clust_4="98.56510" pt_clust_5="47.81153" pt_clust_6="90.38938"></scales>
<clustering>
<clus scale="   47.812">  3  5 -1 -1</clus>
<clus scale="   98.565">  2  4  1 -1</clus>
<clus scale="   90.389">  1  6  2 -1</clus>
<clus scale="   98.565">  2  3  1 -1</clus>
</clustering>
</event>
<event>
 6    0  0.3643696E+002  0.1444459E+03  0.7546771E-02  0.1207469E+00
         21   -1    0    0  505  502  0.00000000000E+00  0.00000000000E+00  0.37580654834E+02  0.37580654834E+02  0.00000000000E+00 0.  1.
         -3   -1    0    0    0  501 -0.00000000000E+00 -0.00000000000E+00 -0.54180587114E+03  0.54180587114E+03  0.00000000000E+00 0.  1.
         21    1    1    2  503  502 -0.34222473027E+02  0.14907256663E+01 -0.38767964328E+02  0.51733499603E+02  0.00000000000E+00 0.  1.
         21    1    1    2  504  503 -0.42062153904E+02 -0.51909129222E+02 -0.52670968278E+02  0.85076514897E+02  0.00000000000E+00 0.  1.
         21    1    1    2  505  501  0.10328848507E+03  0.71221610965E+02 -0.33015111467E+03  0.35318661857E+03  0.00000000000E+00 0.  1.
         -3    1    1    2    0  504 -0.27003858143E+02 -0.20803207410E+02 -0.82635169030E+02  0.89389892906E+02  0.00000000000E+00 0.  1.
<scales pt_clust_3="31.97845" pt_clust_4="31.97845" pt_clust_5="125.46326" pt_clust_6="30.50207"></scales>
<clustering>
<clus scale="   31.978">  3  4 -1 -1</clus>
<clus scale="   30.502">  3  6 -1 -1</clus>
<clus scale="  125.463">  2  5  1 -1</clus>
<clus scale="  144.446">  1  3  2 -1</clus>
</clustering>
</event>
<event>
 6    0  0.3643696E+002  0.6913014E+02  0.7546771E-02  0.1363076E+00
         21   -1    0    0  503  502  0.00000000000E+00  0.00000000000E+00  0.25365625948E+03  0.25365625948E+03  0.00000000000E+00 0.  1.
          1   -1    0    0  505    0 -0.00000000000E+00 -0.00000000000E+00 -0.10006068127E+04  0.10006068127E+04  0.00000000000E+00 0.  1.
         21    1    1    2  503  501 -0.80847483538E+02  0.21747777570E+02 -0.10559312226E+03  0.13475603472E+03  0.00000000000E+00 0.  1.
         21    1    1    2  504  502 -0.47049529429E+02 -0.14099447579E+02  0.22935526761E+03  0.23455551885E+03  0.00000000000E+00 0.  1.
         21    1    1    2  505  504  0.62712714467E+02  0.98348892385E+01 -0.17840199084E+03  0.18935912953E+03  0.00000000000E+00 0.  1.
          1    1    1    2  501    0  0.65184298500E+02 -0.17483219229E+02 -0.69231070778E+03  0.69559238914E+03  0.00000000000E+00 0.  1.
<scales pt_clust_3="14000.00000" pt_clust_4="49.11672" pt_clust_5="51.22053" pt_clust_6="69.13014"></scales>
<clustering>
<clus scale="   49.117">  1  4  2 -1</clus>
<clus scale="   51.221">  1  5  2 -1</clus>
<clus scale="   69.130">  2  6  1 -1</clus>
<clus scale="   49.117">  1  3  2 -1</clus>
</clustering>
</event>
<event>
 6    0  0.3643696E+002  0.1097476E+03  0.7546771E-02  0.1261038E+00
         -1   -1    0    0    0  501 -0.00000000000E+00  0.00000000000E+00  0.54837982576E+03  0.54837982576E+03  0.00000000000E+00 0. -1.
         21   -1    0    0  503  502  0.00000000000E+00 -0.00000000000E+00 -0.37764695891E+02  0.37764695891E+02  0.00000000000E+00 0. -1.
         21    1    1    2  503  505  0.25328856838E+02  0.82310004291E+02  0.18804459138E+03  0.20682663306E+03  0.00000000000E+00 0. -1.
         21    1    1    2  504  502  0.28216994349E+02 -0.63265984300E+02  0.82976530453E+02  0.10809203553E+03  0.00000000000E+00 0. -1.
         21    1    1    2  505  501 -0.45660772354E+02  0.41875850019E+02  0.15289531424E+03  0.16497111888E+03  0.00000000000E+00 0. -1.
         -1    1    1    2    0  504 -0.78850788336E+01 -0.60919870009E+02  0.86698693790E+02  0.10625473418E+03  0.00000000000E+00 0. -1.
<scales pt_clust_3="103.56253" pt_clust_4="34.20420" pt_clust_5="61.95557" pt_clust_6="34.20420"></scales>
<clustering>
<clus scale="   34.204">  4  6 -1 -1</clus>
<clus scale="   61.956">  1  5  2 -1</clus>
<clus scale="  103.563">  1  3  2 -1</clus>
<clus scale="  109.748">  2  3  1 -1</clus>
</clustering>
</event>
<event>
 6    0  0.3643696E+002  0.8329844E+02  0.7546771E-02  0.1319943E+00
         21   -1    0    0  501  502  0.00000000000E+00  0.00000000000E+00  0.12751434656E+04  0.12751434656E+04  0.00000000000E+00 0. -1.
          2   -1    0    0  503    0 -0.00000000000E+00 -0.00000000000E+00 -0.45018694161E+02  0.45018694161E+02  0.00000000000E+00 0.  1.
         21    1    1    2  503  504 -0.34293978975E+02 -0.44053194849E+02  0.60221789241E+01  0.56151826411E+02  0.00000000000E+00 0.  1.
         21    1    1    2  504  505  0.38365360662E+02  0.88398546912E+02  0.22982140715E+03  0.24920690837E+03  0.00000000000E+00 0. -1.
         21    1    1    2  505  502  0.42531439104E+02  0.27438347082E+02  0.81041946862E+03  0.81199846140E+03  0.00000000000E+00 0. -1.
          2    1    1    2  501    0 -0.46602820791E+02 -0.71783699144E+02  0.18386171678E+03  0.20280496361E+03  0.00000000000E+00 0.  1.
<scales pt_clust_3="52.63842" pt_clust_4="83.29844" pt_clust_5="50.61409" pt_clust_6="14000.00000"></scales>
<clustering>
<clus scale="   50.614">  1  5  2 -1</clus>
<clus scale="   52.638">  2  3  1 -1</clus>
<clus scale="   83.298">  2  4  1 -1</clus>
<clus scale="   50.614">  1  3  2 -1</clus>
</clustering>
</event>
<event>
 6    0  0.3643696E+002  0.1577001E+03  0.7546771E-02  0.1191318E+00
         21   -1    0    0  505  502  0.00000000000E+00  0.00000000000E+00  0.26240098087E+02  0.26240098087E+02  0.00000000000E+00 0.  1.
         -1   -1    0    0    0  501 -0.00000000000E+00 -0.00000000000E+00 -0.14964764976E+04  0.14964764976E+04  0.00000000000E+00 0. -1.
         21    1    1    2  503  502 -0.14554820451E+03  0.36727476168E+01 -0.25804434309E+03  0.29628474802E+03  0.00000000000E+00 0.  1.
         21    1    1    2  504  503  0.92258356071E+02  0.30604738755E+02 -0.46200944198E+03  0.47212390194E+03  0.00000000000E+00 0. -1.
         21    1    1    2  505  501  0.10275502361E+02 -0.31571620217E+02 -0.23630062965E+03  0.23862175242E+03  0.00000000000E+00 0.  1.
         -1    1    1    2    0  504  0.43014346076E+02 -0.27058661554E+01 -0.51388198483E+03  0.51568619335E+03  0.00000000000E+00 0. -1.
<scales pt_clust_3="143.32360" pt_clust_4="46.88402" pt_clust_5="33.20170" pt_clust_6="46.88402"></scales>
<clustering>
<clus scale="   33.202">  2  5  1 -1</clus>
<clus scale="   46.884">  4  6 -1 -1</clus>
<clus scale="  143.324">  1  3  2 -1</clus>
<clus scale="  143.324">  1  3  2 -1</clus>
</clustering>
</event>
<event>
 6    0  0.3643696E+002  0.1143779E+03  0.7546771E-02  0.1252671E+00
          2   -1    0    0  502    0 -0.00000000000E+00  0.00000000000E+00  0.12853861750E+04  0.12853861750E+04  0.00000000000E+00 0.  1.
         21   -1    0    0  504  502  0.00000000000E+00 -0.00000000000E+00 -0.48219994255E+02  0.48219994255E+02  0.00000000000E+00 0.  1.
         21    1    1    2  503  505  0.31802736544E+02 -0.10620228009E+03  0.61581254979E+02  0.12681714913E+03  0.00000000000E+00 0.  1.
         21    1    1    2  504  503 -0.31632891718E+02 -0.17234780967E+02  0.33685899761E+02  0.49319543349E+02  0.00000000000E+00 0.  1.
         21    1    1    2  505  501  0.68325709853E+02  0.88881279125E+02  0.71389598876E+03  0.72264498004E+03  0.00000000000E+00 0.  1.
          2    1    1    2  501    0 -0.68495554678E+02  0.34555781931E+02  0.42800303727E+03  0.43482449676E+03  0.00000000000E+00 0.  1.
<scales pt_clust_3="114.37788" pt_clust_4="36.02329" pt_clust_5="14000.00000" pt_clust_6="78.48730"></scales>
<clustering>
<clus scale="   36.023">  2  4  1 -1</clus>
<clus scale="   78.487">  1  6  2 -1</clus>
<clus scale="  114.378">  2  3  1 -1</clus>
<clus scale="   36.023">  2  3  1 -1</clus>
</clustering>
</event>
<event>
 6    0  0.3643696E+002  0.1293076E+03  0.7546771E-02  0.1228487E+00
         21   -1    0    0  505  502  0.00000000000E+00  0.00000000000E+00  0.14798942084E+03  0.14798942084E+03  0.00000000000E+00 0. -1.
          2   -1    0    0  504    0 -0.00000000000E+00 -0.00000000000E+00 -0.14511126694E+04  0.14511126694E+04  0.00000000000E+00 0.  1.
         21    1    1    2  503  502  0.11361339109E+02  0.11844493659E+03  0.10747405057E+03  0.16034012155E+03  0.00000000000E+00 0. -1.
         21    1    1    2  504  503  0.25854723290E+02  0.75205257025E+02 -0.46549842066E+03  0.47224260400E+03  0.00000000000E+00 0.  1.
         21    1    1    2  505  501 -0.30583911107E+02 -0.60642940963E+02 -0.27005942730E+03  0.27846909377E+03  0.00000000000E+00 0.  1.
          2    1    1    2  501    0 -0.66321512916E+01 -0.13300725266E+03 -0.67503945120E+03  0.68805027096E+03  0.00000000000E+00 0.  1.
<scales pt_clust_3="121.07064" pt_clust_4="79.52545" pt_clust_5="32.43168" pt_clust_6="32.43168"></scales>
<clustering>
<clus scale="   32.432">  5  6 -1 -1</clus>
<clus scale="   79.525">  2  4  1 -1</clus>
<clus scale="  121.071">  1  3  2 -1</clus>
<clus scale="  121.071">  1  3  2 -1</clus>
</clustering>
</event>
