<event>
 5    0  0.5728184E-005  0.2265695E+03  0.7546771E-02  0.1129078E+00
         21   -1    0    0  502  501  0.00000000000E+00  0.00000000000E+00  0.79553890474E+03  0.79553890474E+03  0.00000000000E+00 0. -1.
         21   -1    0    0  501  502 -0.00000000000E+00 -0.00000000000E+00 -0.64526999319E+02  0.64526999319E+02  0.00000000000E+00 0. -1.
         25    1    1    2    0    0 -0.58667409569E+02 -0.58944443144E+02  0.40333203598E+03  0.43036965921E+03  0.12500000000E+03 0.  0.
         25    1    1    2    0    0 -0.22813618223E+01  0.12874660391E+02  0.10834763730E+03  0.16593725320E+03  0.12500000000E+03 0.  0.
         25    1    1    2    0    0  0.60948771391E+02  0.46069782753E+02  0.21933223214E+03  0.26375899164E+03  0.12500000000E+03 0.  0.
</event>
<event>
 5    0  0.5728184E-005  0.5201195E+03  0.7546771E-02  0.1008657E+00
         21   -1    0    0  502  501  0.00000000000E+00  0.00000000000E+00  0.31790089504E+03  0.31790089504E+03  0.00000000000E+00 0.  1.
         21   -1    0    0  501  502 -0.00000000000E+00 -0.00000000000E+00 -0.85097066428E+03  0.85097066428E+03  0.00000000000E+00 0.  1.
         25    1    1    2    0    0 -0.18418257871E+03  0.10504011420E+03 -0.15905522110E+03  0.29305325668E+03  0.12500000000E+03 0.  0.
         25    1    1    2    0    0  0.30948354465E+03  0.13713405997E+03  0.41631742319E+02  0.36324098995E+03  0.12500000000E+03 0.  0.
         25    1    1    2    0    0 -0.12530096594E+03 -0.24217417417E+03 -0.41564629046E+03  0.51257731268E+03  0.12500000000E+03 0.  0.
</event>
<event>
 5    0  0.5728184E-005  0.3296998E+03  0.7546771E-02  0.1071270E+00
         21   -1    0    0  502  501  0.00000000000E+00  0.00000000000E+00  0.36107845186E+03  0.36107845186E+03  0.00000000000E+00 0.  1.
         21   -1    0    0  501  502 -0.00000000000E+00 -0.00000000000E+00 -0.30104795898E+03  0.30104795898E+03  0.00000000000E+00 0.  1.
         25    1    1    2    0    0  0.19272314134E+02 -0.21069525603E+03 -0.86610735186E+02  0.26055773344E+03  0.12500000000E+03 0.  0.
         25    1    1    2    0    0  0.59225562230E+02  0.17299187611E+03  0.87329339898E+02  0.23808668595E+03  0.12500000000E+03 0.  0.
         25    1    1    2    0    0 -0.78497876364E+02  0.37703379923E+02  0.59311888167E+02  0.16348199145E+03  0.12500000000E+03 0.  0.
</event>
<event>
 5    0  0.5728184E-005  0.2377431E+03  0.7546771E-02  0.1121305E+00
         21   -1    0    0  502  501  0.00000000000E+00  0.00000000000E+00  0.85910781967E+03  0.85910781967E+03  0.00000000000E+00 0.  1.
         21   -1    0    0  501  502 -0.00000000000E+00 -0.00000000000E+00 -0.65791264855E+02  0.65791264855E+02  0.00000000000E+00 0.  1.
         25    1    1    2    0    0  0.81722874331E+02  0.32485908319E+02  0.13901996299E+03  0.20660472536E+03  0.12500000000E+03 0.  0.
         25    1    1    2    0    0 -0.10487760166E+03 -0.28704725389E+02  0.31437352663E+03  0.35535754788E+03  0.12500000000E+03 0.  0.
         25    1    1    2    0    0  0.23154727325E+02 -0.37811829306E+01  0.33992306519E+03  0.36293681129E+03  0.12500000000E+03 0.  0.
</event>
<event>
 5    0  0.5728184E-005  0.3589271E+03  0.7546771E-02  0.1059009E+00
         21   -1    0    0  502  501  0.00000000000E+00  0.00000000000E+00  0.49503051055E+03  0.49503051055E+03  0.00000000000E+00 0.  1.
         21   -1    0    0  501  502 -0.00000000000E+00 -0.00000000000E+00 -0.26024389590E+03  0.26024389590E+03  0.00000000000E+00 0.  1.
         25    1    1    2    0    0  0.11222301984E+03 -0.44409648544E+02 -0.10119693040E+03  0.20107720355E+03  0.12500000000E+03 0.  0.
         25    1    1    2    0    0 -0.15710486838E+03 -0.89467928551E+02  0.28297092299E+03  0.35830712129E+03  0.12500000000E+03 0.  0.
         25    1    1    2    0    0  0.44881848541E+02  0.13387757709E+03  0.53012622054E+02  0.19589008161E+03  0.12500000000E+03 0.  0.
</event>
<event>
 5    0  0.5761035E-005  0.3050822E+03  0.7546771E-02  0.1082727E+00
         21   -1    0    0  502  501  0.00000000000E+00  0.00000000000E+00  0.10209638660E+04  0.10209638660E+04  0.00000000000E+00 0.  1.
         21   -1    0    0  501  502 -0.00000000000E+00 -0.00000000000E+00 -0.91164006944E+02  0.91164006944E+02  0.00000000000E+00 0. -1.
         25    1    1    2    0    0  0.19021774640E+03 -0.32886642675E+02  0.51278756968E+03  0.56199680954E+03  0.12500000000E+03 0.  0.
         25    1    1    2    0    0 -0.89474111766E+02 -0.23452350632E+02  0.85376979939E+02  0.17739745807E+03  0.12500000000E+03 0.  0.
         25    1    1    2    0    0 -0.10074363463E+03  0.56338993307E+02  0.33163530947E+03  0.37273360537E+03  0.12500000000E+03 0.  0.
</event>
<event>
 5    0  0.5728184E-005  0.4142356E+03  0.7546771E-02  0.1038959E+00
         21   -1    0    0  502  501  0.00000000000E+00  0.00000000000E+00  0.85540039789E+03  0.85540039789E+03  0.00000000000E+00 0. -1.
         21   -1    0    0  501  502 -0.00000000000E+00 -0.00000000000E+00 -0.20059748292E+03  0.20059748292E+03  0.00000000000E+00 0. -1.
         25    1    1    2    0    0 -0.13281190613E+02 -0.28175708521E+02  0.28325920837E+03  0.31117686241E+03  0.12500000000E+03 0.  0.
         25    1    1    2    0    0  0.55267850155E+01  0.49789400341E+01  0.52824502017E+03  0.54288409125E+03  0.12500000000E+03 0.  0.
         25    1    1    2    0    0  0.77544055972E+01  0.23196768487E+02 -0.15670131357E+03  0.20193692715E+03  0.12500000000E+03 0.  0.
</event>
<event>
 5    0  0.5728184E-005  0.2934162E+03  0.7546771E-02  0.1088579E+00
         21   -1    0    0  502  501  0.00000000000E+00  0.00000000000E+00  0.16780879638E+03  0.16780879638E+03  0.00000000000E+00 0.  1.
         21   -1    0    0  501  502 -0.00000000000E+00 -0.00000000000E+00 -0.51304274460E+03  0.51304274460E+03  0.00000000000E+00 0.  1.
         25    1    1    2    0    0  0.14301655449E+03 -0.50365128857E+02 -0.72192879788E+02  0.20934945177E+03  0.12500000000E+03 0.  0.
         25    1    1    2    0    0  0.16910131411E+02  0.91448769696E+02 -0.42276009215E+02  0.16143447890E+03  0.12500000000E+03 0.  0.
         25    1    1    2    0    0 -0.15992668590E+03 -0.41083640839E+02 -0.23076505922E+03  0.31006761031E+03  0.12500000000E+03 0.  0.
</event>
<event>
 5    0  0.5728184E-005  0.2453576E+03  0.7546771E-02  0.1116274E+00
         21   -1    0    0  502  501  0.00000000000E+00  0.00000000000E+00  0.11025325093E+04  0.11025325093E+04  0.00000000000E+00 0.  1.
         21   -1    0    0  501  502 -0.00000000000E+00 -0.00000000000E+00 -0.54601879883E+02  0.54601879883E+02  0.00000000000E+00 0.  1.
         25    1    1    2    0    0  0.26664264456E+01 -0.84505771582E+02  0.20480386656E+03  0.25439724649E+03  0.12500000000E+03 0.  0.
         25    1    1    2    0    0  0.20301785368E+02  0.48914998949E+02  0.17387455652E+03  0.22059510651E+03  0.12500000000E+03 0.  0.
         25    1    1    2    0    0 -0.22968211814E+02  0.35590772633E+02  0.66925220629E+03  0.68214203614E+03  0.12500000000E+03 0.  0.
</event>
<event>
 5    0  0.5814696E-005  0.7388679E+03  0.7546771E-02  0.9652978E-01
         21   -1    0    0  502  501  0.00000000000E+00  0.00000000000E+00  0.22330462265E+03  0.22330462265E+03  0.00000000000E+00 0.  1.
         21   -1    0    0  501  502 -0.00000000000E+00 -0.00000000000E+00 -0.24447581770E+04  0.24447581770E+04  0.00000000000E+00 0.  1.
         25    1    1    2    0    0 -0.39834139770E+02 -0.52271249133E+03 -0.58453556333E+03  0.79506096124E+03  0.12500000000E+03 0.  0.
         25    1    1    2    0    0 -0.73956208965E+02  0.20172234917E+03 -0.14378849350E+04  0.14592119494E+04  0.12500000000E+03 0.  0.
         25    1    1    2    0    0  0.11379034873E+03  0.32099014215E+03 -0.19903305595E+03  0.41378988894E+03  0.12500000000E+03 0.  0.
</event>
<event>
 5    0  0.5728184E-005  0.2288830E+03  0.7546771E-02  0.1127428E+00
         21   -1    0    0  502  501  0.00000000000E+00  0.00000000000E+00  0.94510795193E+02  0.94510795193E+02  0.00000000000E+00 0. -1.
         21   -1    0    0  501  502 -0.00000000000E+00 -0.00000000000E+00 -0.55430077601E+03  0.55430077601E+03  0.00000000000E+00 0. -1.
         25    1    1    2    0    0  0.60990276499E+02 -0.21908352330E+02 -0.13904770465E+03  0.19788646719E+03  0.12500000000E+03 0.  0.
         25    1    1    2    0    0 -0.12363407883E+03  0.72961559518E+01 -0.16691623840E+03  0.24253793514E+03  0.12500000000E+03 0.  0.
         25    1    1    2    0    0  0.62643802335E+02  0.14612196378E+02 -0.15382603777E+03  0.20838716887E+03  0.12500000000E+03 0.  0.
</event>
<event>
 5    0  0.5728184E-005  0.3051515E+03  0.7546771E-02  0.1082693E+00
         21   -1    0    0  502  501  0.00000000000E+00  0.00000000000E+00  0.15652722405E+04  0.15652722405E+04  0.00000000000E+00 0.  1.
         21   -1    0    0  501  502 -0.00000000000E+00 -0.00000000000E+00 -0.59489615407E+02  0.59489615407E+02  0.00000000000E+00 0.  1.
         25    1    1    2    0    0  0.12566590300E+03 -0.12451209720E+02  0.90287015098E+03  0.92018827494E+03  0.12500000000E+03 0.  0.
         25    1    1    2    0    0 -0.65295105610E+02 -0.27181640031E+02  0.51700697068E+03  0.53658503530E+03  0.12500000000E+03 0.  0.
         25    1    1    2    0    0 -0.60370797392E+02  0.39632849751E+02  0.85905503428E+02  0.16798854567E+03  0.12500000000E+03 0.  0.
</event>
<event>
 5    0  0.5728184E-005  0.3656608E+03  0.7546771E-02  0.1056365E+00
         21   -1    0    0  502  501  0.00000000000E+00  0.00000000000E+00  0.43915280145E+03  0.43915280145E+03  0.00000000000E+00 0. -1.
         21   -1    0    0  501  502 -0.00000000000E+00 -0.00000000000E+00 -0.30446759012E+03  0.30446759012E+03  0.00000000000E+00 0. -1.
         25    1    1    2    0    0 -0.13023665879E+03  0.10240700936E+03 -0.15175493286E+03  0.25710570298E+03  0.12500000000E+03 0.  0.
         25    1    1    2    0    0  0.14039968725E+03 -0.19532706987E+01  0.26426242016E+03  0.32430774606E+03  0.12500000000E+03 0.  0.
         25    1    1    2    0    0 -0.10163028453E+02 -0.10045373866E+03  0.22177724028E+02  0.16220694252E+03  0.12500000000E+03 0.  0.
</event>
<event>
 5    0  0.5728184E-005  0.2256222E+03  0.7546771E-02  0.1129760E+00
         21   -1    0    0  502  501  0.00000000000E+00  0.00000000000E+00  0.36365163573E+03  0.36365163573E+03  0.00000000000E+00 0. -1.
         21   -1    0    0  501  502 -0.00000000000E+00 -0.00000000000E+00 -0.13998396121E+03  0.13998396121E+03  0.00000000000E+00 0. -1.
         25    1    1    2    0    0 -0.32651164466E+02  0.56442694439E+02  0.82236806208E+02  0.16321693721E+03  0.12500000000E+03 0.  0.
         25    1    1    2    0    0  0.21802030180E+02 -0.46593342370E+02  0.16403081086E+03  0.21254970003E+03  0.12500000000E+03 0.  0.
         25    1    1    2    0    0  0.10849134285E+02 -0.98493520688E+01 -0.22599942541E+02  0.12786895970E+03  0.12500000000E+03 0.  0.
</event>
<event>
 5    0  0.5728184E-005  0.5709111E+03  0.7546771E-02  0.9967664E-01
         21   -1    0    0  502  501  0.00000000000E+00  0.00000000000E+00  0.22164543086E+04  0.22164543086E+04  0.00000000000E+00 0.  1.
         21   -1    0    0  501  502 -0.00000000000E+00 -0.00000000000E+00 -0.14705447901E+03  0.14705447901E+03  0.00000000000E+00 0.  1.
         25    1    1    2    0    0 -0.81813693374E+02 -0.20313334847E+03  0.38392858679E+03  0.45932863773E+03  0.12500000000E+03 0.  0.
         25    1    1    2    0    0 -0.23613993249E+02  0.50725399670E+03  0.82232737184E+03  0.97453144861E+03  0.12500000000E+03 0.  0.
         25    1    1    2    0    0  0.10542768662E+03 -0.30412064824E+03  0.86314387098E+03  0.92964870129E+03  0.12500000000E+03 0.  0.
</event>
<event>
 5    0  0.5728184E-005  0.4037468E+03  0.7546771E-02  0.1042490E+00
         21   -1    0    0  502  501  0.00000000000E+00  0.00000000000E+00  0.75973033565E+02  0.75973033565E+02  0.00000000000E+00 0.  1.
         21   -1    0    0  501  502 -0.00000000000E+00 -0.00000000000E+00 -0.21456492795E+04  0.21456492795E+04  0.00000000000E+00 0.  1.
         25    1    1    2    0    0  0.85650174358E+02  0.15245808456E+03 -0.49774738475E+03  0.54217790340E+03  0.12500000000E+03 0.  0.
         25    1    1    2    0    0 -0.67453488255E+02  0.17754933249E+03 -0.46741397166E+03  0.51978318504E+03  0.12500000000E+03 0.  0.
         25    1    1    2    0    0 -0.18196686103E+02 -0.33000741706E+03 -0.11045148895E+04  0.11596612246E+04  0.12500000000E+03 0.  0.
</event>
<event>
 5    0  0.5728184E-005  0.2768860E+03  0.7546771E-02  0.1097402E+00
         21   -1    0    0  502  501  0.00000000000E+00  0.00000000000E+00  0.45310438065E+03  0.45310438065E+03  0.00000000000E+00 0. -1.
         21   -1    0    0  501  502 -0.00000000000E+00 -0.00000000000E+00 -0.16920134987E+03  0.16920134987E+03  0.00000000000E+00 0. -1.
         25    1    1    2    0    0  0.10218345620E+03  0.36781876086E+02  0.19142925018E+03  0.25310970537E+03  0.12500000000E+03 0.  0.
         25    1    1    2    0    0 -0.13212673936E+03  0.60500667588E+02  0.79361739422E+02  0.20746347080E+03  0.12500000000E+03 0.  0.
         25    1    1    2    0    0  0.29943283162E+02 -0.97282543674E+02  0.13112041184E+02  0.16173255434E+03  0.12500000000E+03 0.  0.
</event>
<event>
 5    0  0.5728184E-005  0.3679388E+03  0.7546771E-02  0.1055484E+00
         21   -1    0    0  502  501  0.00000000000E+00  0.00000000000E+00  0.78523215252E+02  0.78523215252E+02  0.00000000000E+00 0.  1.
         21   -1    0    0  501  502 -0.00000000000E+00 -0.00000000000E+00 -0.17240631162E+04  0.17240631162E+04  0.00000000000E+00 0.  1.
         25    1    1    2    0    0  0.13201998767E+03 -0.20452602613E+03 -0.37845220868E+03  0.46702381820E+03  0.12500000000E+03 0.  0.
         25    1    1    2    0    0  0.48751761899E+02  0.82240739127E+02 -0.65868119030E+03  0.67721945034E+03  0.12500000000E+03 0.  0.
         25    1    1    2    0    0 -0.18077174957E+03  0.12228528700E+03 -0.60840650202E+03  0.65834306297E+03  0.12500000000E+03 0.  0.
</event>
<event>
 5    0  0.5728184E-005  0.2899406E+03  0.7546771E-02  0.1090380E+00
         21   -1    0    0  502  501  0.00000000000E+00  0.00000000000E+00  0.91138644916E+03  0.91138644916E+03  0.00000000000E+00 0.  1.
         21   -1    0    0  501  502 -0.00000000000E+00 -0.00000000000E+00 -0.92239199114E+02  0.92239199114E+02  0.00000000000E+00 0.  1.
         25    1    1    2    0    0  0.95863816432E+02 -0.14169293834E+03  0.53941405099E+03  0.57953367329E+03  0.12500000000E+03 0.  0.
         25    1    1    2    0    0 -0.57856788058E+01  0.34408762802E+02  0.13280805899E+03  0.18568903460E+03  0.12500000000E+03 0.  0.
         25    1    1    2    0    0 -0.90078137626E+02  0.10728417554E+03  0.14692514006E+03  0.23840294038E+03  0.12500000000E+03 0.  0.
</event>
<event>
 5    0  0.5728184E-005  0.4807776E+03  0.7546771E-02  0.1018922E+00
         21   -1    0    0  502  501  0.00000000000E+00  0.00000000000E+00  0.13692160676E+04  0.13692160676E+04  0.00000000000E+00 0.  1.
         21   -1    0    0  501  502 -0.00000000000E+00 -0.00000000000E+00 -0.16881711452E+03  0.16881711452E+03  0.00000000000E+00 0.  1.
         25    1    1    2    0    0 -0.25350481465E+03 -0.91889507049E+02  0.10507125097E+03  0.31523537292E+03  0.12500000000E+03 0.  0.
         25    1    1    2    0    0  0.49814403197E+02  0.21728337253E+03  0.37719288464E+03  0.45562376032E+03  0.12500000000E+03 0.  0.
         25    1    1    2    0    0  0.20369041145E+03 -0.12539386548E+03  0.71813481749E+03  0.76717404891E+03  0.12500000000E+03 0.  0.
</event>
<event>
 5    0  0.5728184E-005  0.3808811E+03  0.7546771E-02  0.1050609E+00
         21   -1    0    0  502  501  0.00000000000E+00  0.00000000000E+00  0.43701902559E+03  0.43701902559E+03  0.00000000000E+00 0.  1.
         21   -1    0    0  501  502 -0.00000000000E+00 -0.00000000000E+00 -0.33195437755E+03  0.33195437755E+03  0.00000000000E+00 0.  1.
         25    1    1    2    0    0  0.73598498640E+02  0.17172370894E+01  0.14670843358E+03  0.20632026655E+03  0.12500000000E+03 0.  0.
         25    1    1    2    0    0 -0.10944932923E+03 -0.46443493493E+02  0.21248756376E+03  0.27370078281E+03  0.12500000000E+03 0.  0.
         25    1    1    2    0    0  0.35850830595E+02  0.44726256404E+02 -0.25413134929E+03  0.28895235379E+03  0.12500000000E+03 0.  0.
</event>
<event>
 5    0  0.5728184E-005  0.2056468E+03  0.7546771E-02  0.1145060E+00
         21   -1    0    0  502  501  0.00000000000E+00  0.00000000000E+00  0.32206411380E+03  0.32206411380E+03  0.00000000000E+00 0.  1.
         21   -1    0    0  501  502 -0.00000000000E+00 -0.00000000000E+00 -0.13131117448E+03  0.13131117448E+03  0.00000000000E+00 0.  1.
         25    1    1    2    0    0  0.32368078363E+02 -0.14053368358E+02  0.11735922220E+03  0.17505249696E+03  0.12500000000E+03 0.  0.
         25    1    1    2    0    0 -0.24389172477E+02  0.42429621736E+02  0.87007618511E+01  0.13452065935E+03  0.12500000000E+03 0.  0.
         25    1    1    2    0    0 -0.79789058860E+01 -0.28376253378E+02  0.64692955281E+02  0.14380213197E+03  0.12500000000E+03 0.  0.
</event>
<event>
 5    0  0.5728184E-005  0.2862837E+03  0.7546771E-02  0.1092306E+00
         21   -1    0    0  502  501  0.00000000000E+00  0.00000000000E+00  0.59080213195E+02  0.59080213195E+02  0.00000000000E+00 0. -1.
         21   -1    0    0  501  502 -0.00000000000E+00 -0.00000000000E+00 -0.13872385581E+04  0.13872385581E+04  0.00000000000E+00 0. -1.
         25    1    1    2    0    0  0.26718705621E+02  0.51080321202E+02 -0.58311215068E+03  0.59913927322E+03  0.12500000000E+03 0.  0.
         25    1    1    2    0    0 -0.68812840914E+02 -0.15520549719E+03 -0.26540449471E+03  0.33895206039E+03  0.12500000000E+03 0.  0.
         25    1    1    2    0    0  0.42094135293E+02  0.10412517599E+03 -0.47964169954E+03  0.50822743770E+03  0.12500000000E+03 0.  0.
</event>
<event>
 5    0  0.5728184E-005  0.3081450E+03  0.7546771E-02  0.1081238E+00
         21   -1    0    0  502  501  0.00000000000E+00  0.00000000000E+00  0.40552405851E+03  0.40552405851E+03  0.00000000000E+00 0.  1.
         21   -1    0    0  501  502 -0.00000000000E+00 -0.00000000000E+00 -0.23414968947E+03  0.23414968947E+03  0.00000000000E+00 0.  1.
         25    1    1    2    0    0 -0.38807492501E+02  0.13602981492E+03  0.14579405006E+03  0.23851842079E+03  0.12500000000E+03 0.  0.
         25    1    1    2    0    0  0.98879922206E+02 -0.37417881362E+02  0.12327378947E+03  0.20493599984E+03  0.12500000000E+03 0.  0.
         25    1    1    2    0    0 -0.60072429705E+02 -0.98611933558E+02 -0.97693470490E+02  0.19621932735E+03  0.12500000000E+03 0.  0.
</event>
<event>
 5    0  0.5728184E-005  0.2763606E+03  0.7546771E-02  0.1097693E+00
         21   -1    0    0  502  501  0.00000000000E+00  0.00000000000E+00  0.45429085497E+03  0.45429085497E+03  0.00000000000E+00 0. -1.
         21   -1    0    0  501  502 -0.00000000000E+00 -0.00000000000E+00 -0.16811957874E+03  0.16811957874E+03  0.00000000000E+00 0. -1.
         25    1    1    2    0    0 -0.93832094460E+02  0.17669407307E+02  0.12988269360E+03  0.20398819574E+03  0.12500000000E+03 0.  0.
         25    1    1    2    0    0  0.27535011448E+02 -0.11353735821E+03  0.17709902292E+03  0.24624778676E+03  0.12500000000E+03 0.  0.
         25    1    1    2    0    0  0.66297083012E+02  0.95867950899E+02 -0.20810440295E+02  0.17217445121E+03  0.12500000000E+03 0.  0.
</event>
<event>
 5    0  0.5728184E-005  0.2496490E+03  0.7546771E-02  0.1113527E+00
         21   -1    0    0  502  501  0.00000000000E+00  0.00000000000E+00  0.14467943246E+03  0.14467943246E+03  0.00000000000E+00 0. -1.
         21   -1    0    0  501  502 -0.00000000000E+00 -0.00000000000E+00 -0.43077718882E+03  0.43077718882E+03  0.00000000000E+00 0. -1.
         25    1    1    2    0    0  0.58514089204E+02 -0.48734714578E+02 -0.12321589111E+02  0.14688700623E+03  0.12500000000E+03 0.  0.
         25    1    1    2    0    0  0.14140063076E+02  0.14022402236E+02 -0.24692221807E+03  0.27747459510E+03  0.12500000000E+03 0.  0.
         25    1    1    2    0    0 -0.72654152280E+02  0.34712312342E+02 -0.26853949181E+02  0.15109501996E+03  0.12500000000E+03 0.  0.
</event>
<event>
 5    0  0.5728184E-005  0.3765512E+03  0.7546771E-02  0.1052216E+00
         21   -1    0    0  502  501  0.00000000000E+00  0.00000000000E+00  0.13506665858E+04  0.13506665858E+04  0.00000000000E+00 0. -1.
         21   -1    0    0  501  502 -0.00000000000E+00 -0.00000000000E+00 -0.10497836422E+03  0.10497836422E+03  0.00000000000E+00 0. -1.
         25    1    1    2    0    0 -0.17341070537E+03 -0.64008669235E+02  0.70424023902E+03  0.73874738357E+03  0.12500000000E+03 0.  0.
         25    1    1    2    0    0 -0.16340067445E+02  0.10865044338E+03  0.42762587115E+03  0.45886904704E+03  0.12500000000E+03 0.  0.
         25    1    1    2    0    0  0.18975077281E+03 -0.44641774146E+02  0.11382211139E+03  0.25802851940E+03  0.12500000000E+03 0.  0.
</event>
<event>
 5    0  0.5728184E-005  0.2706091E+03  0.7546771E-02  0.1100932E+00
         21   -1    0    0  502  501  0.00000000000E+00  0.00000000000E+00  0.22868901821E+03  0.22868901821E+03  0.00000000000E+00 0.  1.
         21   -1    0    0  501  502 -0.00000000000E+00 -0.00000000000E+00 -0.32021330232E+03  0.32021330232E+03  0.00000000000E+00 0.  1.
         25    1    1    2    0    0 -0.19756766398E+01 -0.10152700254E+03 -0.11643864603E+03  0.19873246799E+03  0.12500000000E+03 0.  0.
         25    1    1    2    0    0  0.27777701378E+02 -0.34646464214E+02  0.80824329537E+02  0.15533689330E+03  0.12500000000E+03 0.  0.
         25    1    1    2    0    0 -0.25802024739E+02  0.13617346675E+03 -0.55909967607E+02  0.19483295924E+03  0.12500000000E+03 0.  0.
</event>
<event>
 5    0  0.5728184E-005  0.2716861E+03  0.7546771E-02  0.1100318E+00
         21   -1    0    0  502  501  0.00000000000E+00  0.00000000000E+00  0.52609805119E+03  0.52609805119E+03  0.00000000000E+00 0. -1.
         21   -1    0    0  501  502 -0.00000000000E+00 -0.00000000000E+00 -0.14030333877E+03  0.14030333877E+03  0.00000000000E+00 0. -1.
         25    1    1    2    0    0  0.47586779781E+02 -0.49740804102E+02  0.64784025369E+02  0.15671827955E+03  0.12500000000E+03 0.  0.
         25    1    1    2    0    0  0.11078620440E+03  0.49723479510E+02  0.22942566835E+03  0.28810960553E+03  0.12500000000E+03 0.  0.
         25    1    1    2    0    0 -0.15837298418E+03  0.17324592408E-01  0.91585018703E+02  0.22157350489E+03  0.12500000000E+03 0.  0.
</event>
<event>
 5    0  0.5728184E-005  0.2703824E+03  0.7546771E-02  0.1101061E+00
         21   -1    0    0  502  501  0.00000000000E+00  0.00000000000E+00  0.58650328839E+02  0.58650328839E+02  0.00000000000E+00 0.  1.
         21   -1    0    0  501  502 -0.00000000000E+00 -0.00000000000E+00 -0.12464835343E+04  0.12464835343E+04  0.00000000000E+00 0.  1.
         25    1    1    2    0    0  0.12179197804E+03  0.21153665327E+02 -0.45614397609E+03  0.48884873979E+03  0.12500000000E+03 0.  0.
         25    1    1    2    0    0  0.12851959209E+02  0.73509919921E+02 -0.21360030058E+03  0.25849365483E+03  0.12500000000E+03 0.  0.
         25    1    1    2    0    0 -0.13464393725E+03 -0.94663585247E+02 -0.51808892883E+03  0.55779146855E+03  0.12500000000E+03 0.  0.
</event>
<event>
 5    0  0.5728184E-005  0.2545862E+03  0.7546771E-02  0.1110440E+00
         21   -1    0    0  502  501  0.00000000000E+00  0.00000000000E+00  0.66834653188E+03  0.66834653188E+03  0.00000000000E+00 0. -1.
         21   -1    0    0  501  502 -0.00000000000E+00 -0.00000000000E+00 -0.96976867024E+02  0.96976867024E+02  0.00000000000E+00 0. -1.
         25    1    1    2    0    0 -0.14156679311E+02 -0.88915408566E+02  0.18477422906E+03  0.24056782240E+03  0.12500000000E+03 0.  0.
         25    1    1    2    0    0  0.77147000773E+01 -0.74295405512E+02  0.12444782573E+03  0.19155047692E+03  0.12500000000E+03 0.  0.
         25    1    1    2    0    0  0.64419792334E+01  0.16321081408E+03  0.26214761006E+03  0.33320509958E+03  0.12500000000E+03 0.  0.
</event>
<event>
 5    0  0.5728184E-005  0.3566365E+03  0.7546771E-02  0.1059924E+00
         21   -1    0    0  502  501  0.00000000000E+00  0.00000000000E+00  0.19739680170E+03  0.19739680170E+03  0.00000000000E+00 0. -1.
         21   -1    0    0  501  502 -0.00000000000E+00 -0.00000000000E+00 -0.64433476692E+03  0.64433476692E+03  0.00000000000E+00 0. -1.
         25    1    1    2    0    0 -0.21797468283E+03 -0.56622689661E+02 -0.83483097615E+02  0.27076469291E+03  0.12500000000E+03 0.  0.
         25    1    1    2    0    0  0.76544408758E+01 -0.90800295633E+02 -0.12565594385E+03  0.19929300132E+03  0.12500000000E+03 0.  0.
         25    1    1    2    0    0  0.21032024195E+03  0.14742298529E+03 -0.23779892376E+03  0.37167387439E+03  0.12500000000E+03 0.  0.
</event>
<event>
 5    0  0.5728184E-005  0.2080037E+03  0.7546771E-02  0.1143157E+00
         21   -1    0    0  502  501  0.00000000000E+00  0.00000000000E+00  0.16373918202E+02  0.16373918202E+02  0.00000000000E+00 0.  1.
         21   -1    0    0  501  502 -0.00000000000E+00 -0.00000000000E+00 -0.26423452385E+04  0.26423452385E+04  0.00000000000E+00 0.  1.
         25    1    1    2    0    0 -0.14324321592E+02 -0.56559458338E+02 -0.68488525402E+03  0.69863937027E+03  0.12500000000E+03 0.  0.
         25    1    1    2    0    0  0.15521501539E+02  0.48539608869E+02 -0.71660510320E+03  0.72920839585E+03  0.12500000000E+03 0.  0.
         25    1    1    2    0    0 -0.11971799473E+01  0.80198494687E+01 -0.12244809630E+04  0.12308713905E+04  0.12500000000E+03 0.  0.
</event>
<event>
 5    0  0.5840502E-005  0.2441472E+03  0.7546771E-02  0.1117061E+00
         21   -1    0    0  502  501  0.00000000000E+00  0.00000000000E+00  0.17622842273E+03  0.17622842273E+03  0.00000000000E+00 0. -1.
         21   -1    0    0  501  502 -0.00000000000E+00 -0.00000000000E+00 -0.33824196832E+03  0.33824196832E+03  0.00000000000E+00 0. -1.
         25    1    1    2    0    0 -0.45385739640E+02  0.64415302972E+02  0.65617538351E+02  0.16167825444E+03  0.12500000000E+03 0.  0.
         25    1    1    2    0    0  0.44971316330E+02 -0.33188858076E+02 -0.87829077706E+02  0.16267411129E+03  0.12500000000E+03 0.  0.
         25    1    1    2    0    0  0.41442331021E+00 -0.31226444896E+02 -0.13980200623E+03  0.19011802532E+03  0.12500000000E+03 0.  0.
</event>
<event>
 5    0  0.5728184E-005  0.3006653E+03  0.7546771E-02  0.1084909E+00
         21   -1    0    0  502  501  0.00000000000E+00  0.00000000000E+00  0.15530644040E+03  0.15530644040E+03  0.00000000000E+00 0.  1.
         21   -1    0    0  501  502 -0.00000000000E+00 -0.00000000000E+00 -0.58207244432E+03  0.58207244432E+03  0.00000000000E+00 0.  1.
         25    1    1    2    0    0 -0.50821344165E+02 -0.67155267150E+02 -0.12632301458E+03  0.19665996781E+03  0.12500000000E+03 0.  0.
         25    1    1    2    0    0  0.46675027728E+02 -0.28744410732E+02  0.58653009636E+02  0.14855966781E+03  0.12500000000E+03 0.  0.
         25    1    1    2    0    0  0.41463164366E+01  0.95899677882E+02 -0.35909599898E+03  0.39215924909E+03  0.12500000000E+03 0.  0.
</event>
<event>
 5    0  0.5728184E-005  0.2789543E+03  0.7546771E-02  0.1096261E+00
         21   -1    0    0  502  501  0.00000000000E+00  0.00000000000E+00  0.60131649449E+03  0.60131649449E+03  0.00000000000E+00 0.  1.
         21   -1    0    0  501  502 -0.00000000000E+00 -0.00000000000E+00 -0.12940855912E+03  0.12940855912E+03  0.00000000000E+00 0.  1.
         25    1    1    2    0    0 -0.35605559578E+02 -0.36562575184E+02 -0.24569865272E+02  0.13723431078E+03  0.12500000000E+03 0.  0.
         25    1    1    2    0    0  0.85527641946E+02 -0.16800996437E+02  0.37396522790E+03  0.40382204335E+03  0.12500000000E+03 0.  0.
         25    1    1    2    0    0 -0.49922082368E+02  0.53363571620E+02  0.12251257274E+03  0.18966869948E+03  0.12500000000E+03 0.  0.
</event>
<event>
 5    0  0.5728184E-005  0.2491950E+03  0.7546771E-02  0.1113815E+00
         21   -1    0    0  502  501  0.00000000000E+00  0.00000000000E+00  0.66966119739E+03  0.66966119739E+03  0.00000000000E+00 0.  1.
         21   -1    0    0  501  502 -0.00000000000E+00 -0.00000000000E+00 -0.92730674539E+02  0.92730674539E+02  0.00000000000E+00 0.  1.
         25    1    1    2    0    0 -0.99763476349E+02 -0.75382302995E+02  0.17595351013E+03  0.24943913195E+03  0.12500000000E+03 0.  0.
         25    1    1    2    0    0  0.34652236053E+02  0.10963962792E+03  0.26088621535E+03  0.31130088794E+03  0.12500000000E+03 0.  0.
         25    1    1    2    0    0  0.65111240297E+02 -0.34257324925E+02  0.14009079736E+03  0.20165185204E+03  0.12500000000E+03 0.  0.
</event>
<event>
 5    0  0.5728184E-005  0.2874611E+03  0.7546771E-02  0.1091682E+00
         21   -1    0    0  502  501  0.00000000000E+00  0.00000000000E+00  0.35140055074E+02  0.35140055074E+02  0.00000000000E+00 0.  1.
         21   -1    0    0  501  502 -0.00000000000E+00 -0.00000000000E+00 -0.23515586466E+04  0.23515586466E+04  0.00000000000E+00 0. -1.
         25    1    1    2    0    0  0.15060622547E+03  0.24082900841E+02 -0.91088364297E+03  0.93198510305E+03  0.12500000000E+03 0.  0.
         25    1    1    2    0    0 -0.17055674005E+03  0.23533975777E+02 -0.11028947675E+04  0.11232298597E+04  0.12500000000E+03 0.  0.
         25    1    1    2    0    0  0.19950514579E+02 -0.47616876618E+02 -0.30264018105E+03  0.33148373890E+03  0.12500000000E+03 0.  0.
</event>
<event>
 5    0  0.5728184E-005  0.3124683E+03  0.7546771E-02  0.1079169E+00
         21   -1    0    0  502  501  0.00000000000E+00  0.00000000000E+00  0.50086853402E+03  0.50086853402E+03  0.00000000000E+00 0.  1.
         21   -1    0    0  501  502 -0.00000000000E+00 -0.00000000000E+00 -0.19493424151E+03  0.19493424151E+03  0.00000000000E+00 0.  1.
         25    1    1    2    0    0  0.53868765706E+01  0.12388127339E+03  0.59536371470E+02  0.18586330424E+03  0.12500000000E+03 0.  0.
         25    1    1    2    0    0 -0.77718313561E+01 -0.22792757688E+02  0.31147975183E+03  0.33648855399E+03  0.12500000000E+03 0.  0.
         25    1    1    2    0    0  0.23849547855E+01 -0.10108851570E+03 -0.65081830784E+02  0.17345091731E+03  0.12500000000E+03 0.  0.
</event>
<event>
 5    0  0.5728184E-005  0.4869852E+03  0.7546771E-02  0.1017233E+00
         21   -1    0    0  502  501  0.00000000000E+00  0.00000000000E+00  0.26186363537E+03  0.26186363537E+03  0.00000000000E+00 0. -1.
         21   -1    0    0  501  502 -0.00000000000E+00 -0.00000000000E+00 -0.90564149685E+03  0.90564149685E+03  0.00000000000E+00 0. -1.
         25    1    1    2    0    0 -0.11930403065E+03  0.31205648581E+03 -0.28948198863E+03  0.45938820599E+03  0.12500000000E+03 0.  0.
         25    1    1    2    0    0  0.97247136769E+02 -0.38365829825E+03 -0.11976350540E+03  0.43199420442E+03  0.12500000000E+03 0.  0.
         25    1    1    2    0    0  0.22056893882E+02  0.71601812446E+02 -0.23453236745E+03  0.27612272180E+03  0.12500000000E+03 0.  0.
</event>
<event>
 5    0  0.5728184E-005  0.2661405E+03  0.7546771E-02  0.1103509E+00
         21   -1    0    0  502  501  0.00000000000E+00  0.00000000000E+00  0.67531622820E+02  0.67531622820E+02  0.00000000000E+00 0. -1.
         21   -1    0    0  501  502 -0.00000000000E+00 -0.00000000000E+00 -0.10488530568E+04  0.10488530568E+04  0.00000000000E+00 0. -1.
         25    1    1    2    0    0  0.24230999411E+02  0.12144528229E+03 -0.52809950568E+03  0.55664188292E+03  0.12500000000E+03 0.  0.
         25    1    1    2    0    0  0.19534800205E+02 -0.10470798602E+03 -0.12808980570E+03  0.20827234353E+03  0.12500000000E+03 0.  0.
         25    1    1    2    0    0 -0.43765799616E+02 -0.16737296267E+02 -0.32513212264E+03  0.35147045321E+03  0.12500000000E+03 0.  0.
</event>
<event>
 5    0  0.5728184E-005  0.2260073E+03  0.7546771E-02  0.1129482E+00
         21   -1    0    0  502  501  0.00000000000E+00  0.00000000000E+00  0.77194807018E+02  0.77194807018E+02  0.00000000000E+00 0.  1.
         21   -1    0    0  501  502 -0.00000000000E+00 -0.00000000000E+00 -0.66169358050E+03  0.66169358050E+03  0.00000000000E+00 0.  1.
         25    1    1    2    0    0  0.17619746121E+02 -0.60098895940E+02 -0.14867961137E+03  0.20409056711E+03  0.12500000000E+03 0.  0.
         25    1    1    2    0    0 -0.14684295727E+02 -0.48792228782E+02 -0.26109864352E+03  0.29392824257E+03  0.12500000000E+03 0.  0.
         25    1    1    2    0    0 -0.29354503938E+01  0.10889112472E+03 -0.17472051859E+03  0.24086957784E+03  0.12500000000E+03 0.  0.
</event>
<event>
 5    0  0.5728184E-005  0.2987007E+03  0.7546771E-02  0.1085892E+00
         21   -1    0    0  502  501  0.00000000000E+00  0.00000000000E+00  0.66837287391E+03  0.66837287391E+03  0.00000000000E+00 0.  1.
         21   -1    0    0  501  502 -0.00000000000E+00 -0.00000000000E+00 -0.13349153543E+03  0.13349153543E+03  0.00000000000E+00 0.  1.
         25    1    1    2    0    0 -0.79121018701E+02  0.89164485447E+02  0.18199273123E+03  0.25091192735E+03  0.12500000000E+03 0.  0.
         25    1    1    2    0    0 -0.19575632045E+02  0.98782270630E+02  0.21602596623E+03  0.26913446536E+03  0.12500000000E+03 0.  0.
         25    1    1    2    0    0  0.98696650745E+02 -0.18794675608E+03  0.13686264103E+03  0.28181801663E+03  0.12500000000E+03 0.  0.
</event>
<event>
 5    0  0.5728184E-005  0.2551714E+03  0.7546771E-02  0.1110080E+00
         21   -1    0    0  502  501  0.00000000000E+00  0.00000000000E+00  0.19626461236E+03  0.19626461236E+03  0.00000000000E+00 0.  1.
         21   -1    0    0  501  502 -0.00000000000E+00 -0.00000000000E+00 -0.33175842721E+03  0.33175842721E+03  0.00000000000E+00 0.  1.
         25    1    1    2    0    0 -0.17184499137E+02 -0.60884479493E+02  0.66979114803E+02  0.15528499178E+03  0.12500000000E+03 0.  0.
         25    1    1    2    0    0  0.75334721069E+02  0.51299567498E+02 -0.17178448762E+03  0.23117499002E+03  0.12500000000E+03 0.  0.
         25    1    1    2    0    0 -0.58150221932E+02  0.95849119957E+01 -0.30688442039E+02  0.14156305776E+03  0.12500000000E+03 0.  0.
</event>
<event>
 5    0  0.5728184E-005  0.2148776E+03  0.7546771E-02  0.1137761E+00
         21   -1    0    0  502  501  0.00000000000E+00  0.00000000000E+00  0.35389108445E+02  0.35389108445E+02  0.00000000000E+00 0.  1.
         21   -1    0    0  501  502 -0.00000000000E+00 -0.00000000000E+00 -0.13047056800E+04  0.13047056800E+04  0.00000000000E+00 0.  1.
         25    1    1    2    0    0 -0.61788852468E+01 -0.21150140138E+02 -0.48340922446E+03  0.49979494330E+03  0.12500000000E+03 0.  0.
         25    1    1    2    0    0  0.71376495674E+02  0.51485952145E+02 -0.38463278998E+03  0.41389949327E+03  0.12500000000E+03 0.  0.
         25    1    1    2    0    0 -0.65197610428E+02 -0.30335812007E+02 -0.40127455716E+03  0.42640035192E+03  0.12500000000E+03 0.  0.
</event>
<event>
 5    0  0.5728184E-005  0.2714470E+03  0.7546771E-02  0.1100454E+00
         21   -1    0    0  502  501  0.00000000000E+00  0.00000000000E+00  0.23395487042E+03  0.23395487042E+03  0.00000000000E+00 0.  1.
         21   -1    0    0  501  502 -0.00000000000E+00 -0.00000000000E+00 -0.31494739906E+03  0.31494739906E+03  0.00000000000E+00 0.  1.
         25    1    1    2    0    0 -0.12022152336E+03  0.46263529486E+02  0.77388145593E+02  0.19546727070E+03  0.12500000000E+03 0.  0.
         25    1    1    2    0    0  0.77006334038E-01  0.29935442199E+01 -0.20950660586E+02  0.12677893128E+03  0.12500000000E+03 0.  0.
         25    1    1    2    0    0  0.12014451702E+03 -0.49257073706E+02 -0.13743001365E+03  0.22665606749E+03  0.12500000000E+03 0.  0.
</event>
<event>
 5    0  0.5728184E-005  0.3406059E+03  0.7546771E-02  0.1066538E+00
         21   -1    0    0  502  501  0.00000000000E+00  0.00000000000E+00  0.36277119495E+03  0.36277119495E+03  0.00000000000E+00 0.  1.
         21   -1    0    0  501  502 -0.00000000000E+00 -0.00000000000E+00 -0.31979491438E+03  0.31979491438E+03  0.00000000000E+00 0.  1.
         25    1    1    2    0    0  0.13735480375E+02  0.49956309859E+02  0.17074056976E+03  0.21785692203E+03  0.12500000000E+03 0.  0.
         25    1    1    2    0    0  0.56264051457E+02 -0.60957244275E+02 -0.23955713922E+03  0.28265535917E+03  0.12500000000E+03 0.  0.
         25    1    1    2    0    0 -0.69999531832E+02  0.11000934416E+02  0.11179285003E+03  0.18205382812E+03  0.12500000000E+03 0.  0.
</event>
<event>
 5    0  0.5728184E-005  0.2912185E+03  0.7546771E-02  0.1089715E+00
         21   -1    0    0  502  501  0.00000000000E+00  0.00000000000E+00  0.20875588515E+03  0.20875588515E+03  0.00000000000E+00 0. -1.
         21   -1    0    0  501  502 -0.00000000000E+00 -0.00000000000E+00 -0.40625555273E+03  0.40625555273E+03  0.00000000000E+00 0. -1.
         25    1    1    2    0    0  0.25098603198E+02  0.59633955087E+02 -0.27141878337E+03  0.30574385431E+03  0.12500000000E+03 0.  0.
         25    1    1    2    0    0  0.56496162419E+01 -0.52087745032E+02 -0.35549115318E+02  0.14012062998E+03  0.12500000000E+03 0.  0.
         25    1    1    2    0    0 -0.30748219440E+02 -0.75462100545E+01  0.10946823111E+03  0.16914695359E+03  0.12500000000E+03 0.  0.
</event>
<event>
 5    0  0.5728184E-005  0.3892150E+03  0.7546771E-02  0.1047579E+00
         21   -1    0    0  502  501  0.00000000000E+00  0.00000000000E+00  0.14365822197E+04  0.14365822197E+04  0.00000000000E+00 0.  1.
         21   -1    0    0  501  502 -0.00000000000E+00 -0.00000000000E+00 -0.10545052828E+03  0.10545052828E+03  0.00000000000E+00 0.  1.
         25    1    1    2    0    0 -0.75372849525E+02  0.59960621680E+02  0.11057674198E+04  0.11169704246E+04  0.12500000000E+03 0.  0.
         25    1    1    2    0    0  0.15158487308E+03 -0.11328257779E+02  0.77923908486E+02  0.21166822786E+03  0.12500000000E+03 0.  0.
         25    1    1    2    0    0 -0.76212023551E+02 -0.48632363901E+02  0.14744036312E+03  0.21339409558E+03  0.12500000000E+03 0.  0.
</event>
<event>
 5    0  0.5728184E-005  0.2680588E+03  0.7546771E-02  0.1102396E+00
         21   -1    0    0  502  501  0.00000000000E+00  0.00000000000E+00  0.84767388768E+03  0.84767388768E+03  0.00000000000E+00 0.  1.
         21   -1    0    0  501  502 -0.00000000000E+00 -0.00000000000E+00 -0.84767910457E+02  0.84767910457E+02  0.00000000000E+00 0.  1.
         25    1    1    2    0    0  0.16437491585E+03 -0.16803180837E+02  0.30122800366E+03  0.36560192838E+03  0.12500000000E+03 0.  0.
         25    1    1    2    0    0 -0.15567824233E+03  0.13310608229E+02  0.24298049952E+03  0.31476564389E+03  0.12500000000E+03 0.  0.
         25    1    1    2    0    0 -0.86966735148E+01  0.34925726083E+01  0.21869747403E+03  0.25207422586E+03  0.12500000000E+03 0.  0.
</event>
<event>
 5    0  0.5728184E-005  0.3595105E+03  0.7546771E-02  0.1058778E+00
         21   -1    0    0  502  501  0.00000000000E+00  0.00000000000E+00  0.21476741546E+03  0.21476741546E+03  0.00000000000E+00 0. -1.
         21   -1    0    0  501  502 -0.00000000000E+00 -0.00000000000E+00 -0.60180360042E+03  0.60180360042E+03  0.00000000000E+00 0. -1.
         25    1    1    2    0    0 -0.43974110808E+02  0.96904186283E+02 -0.15183830307E+03  0.22361577319E+03  0.12500000000E+03 0.  0.
         25    1    1    2    0    0  0.22362733856E+03  0.43623570312E+01 -0.18845477240E+00  0.25622890592E+03  0.12500000000E+03 0.  0.
         25    1    1    2    0    0 -0.17965322776E+03 -0.10126654331E+03 -0.23500942712E+03  0.33672633676E+03  0.12500000000E+03 0.  0.
</event>
<event>
 5    0  0.5728184E-005  0.3990447E+03  0.7546771E-02  0.1044111E+00
         21   -1    0    0  502  501  0.00000000000E+00  0.00000000000E+00  0.19647264879E+03  0.19647264879E+03  0.00000000000E+00 0. -1.
         21   -1    0    0  501  502 -0.00000000000E+00 -0.00000000000E+00 -0.81047754403E+03  0.81047754403E+03  0.00000000000E+00 0. -1.
         25    1    1    2    0    0 -0.12494892331E+03  0.50455148612E+01  0.18686818120E+02  0.17779732233E+03  0.12500000000E+03 0.  0.
         25    1    1    2    0    0 -0.39320811951E+02  0.12893939306E+03 -0.53268608837E+03  0.56351660319E+03  0.12500000000E+03 0.  0.
         25    1    1    2    0    0  0.16426973527E+03 -0.13398490792E+03 -0.10000562499E+03  0.26563626730E+03  0.12500000000E+03 0.  0.
</event>
<event>
 5    0  0.5728184E-005  0.2266964E+03  0.7546771E-02  0.1128987E+00
         21   -1    0    0  502  501  0.00000000000E+00  0.00000000000E+00  0.81593940692E+03  0.81593940692E+03  0.00000000000E+00 0.  1.
         21   -1    0    0  501  502 -0.00000000000E+00 -0.00000000000E+00 -0.62984141884E+02  0.62984141884E+02  0.00000000000E+00 0.  1.
         25    1    1    2    0    0  0.36669325850E+02 -0.33375819826E+02  0.11851023181E+03  0.17924357688E+03  0.12500000000E+03 0.  0.
         25    1    1    2    0    0 -0.82071929321E+02  0.53445029807E+02  0.38075350683E+03  0.41254139884E+03  0.12500000000E+03 0.  0.
         25    1    1    2    0    0  0.45402603472E+02 -0.20069209980E+02  0.25369152639E+03  0.28713857309E+03  0.12500000000E+03 0.  0.
</event>
<event>
 5    0  0.5728184E-005  0.3177220E+03  0.7546771E-02  0.1076703E+00
         21   -1    0    0  502  501  0.00000000000E+00  0.00000000000E+00  0.20296539641E+03  0.20296539641E+03  0.00000000000E+00 0. -1.
         21   -1    0    0  501  502 -0.00000000000E+00 -0.00000000000E+00 -0.49736195785E+03  0.49736195785E+03  0.00000000000E+00 0. -1.
         25    1    1    2    0    0  0.10554355769E+03 -0.16053775935E+02 -0.83969779272E+02  0.18458897617E+03  0.12500000000E+03 0.  0.
         25    1    1    2    0    0  0.48769082978E+02 -0.27331680579E+02  0.81996145866E+02  0.15960517584E+03  0.12500000000E+03 0.  0.
         25    1    1    2    0    0 -0.15431264067E+03  0.43385456514E+02 -0.29242292803E+03  0.35613320225E+03  0.12500000000E+03 0.  0.
</event>
<event>
 5    0  0.5728184E-005  0.2722704E+03  0.7546771E-02  0.1099987E+00
         21   -1    0    0  502  501  0.00000000000E+00  0.00000000000E+00  0.97760519639E+02  0.97760519639E+02  0.00000000000E+00 0.  1.
         21   -1    0    0  501  502 -0.00000000000E+00 -0.00000000000E+00 -0.75829354373E+03  0.75829354373E+03  0.00000000000E+00 0.  1.
         25    1    1    2    0    0  0.55512224039E+02  0.63026490146E+02 -0.35720397993E+03  0.38765142687E+03  0.12500000000E+03 0.  0.
         25    1    1    2    0    0 -0.14683829263E+03 -0.60424275729E+02 -0.17017562541E+03  0.26419182569E+03  0.12500000000E+03 0.  0.
         25    1    1    2    0    0  0.91326068592E+02 -0.26022144169E+01 -0.13315341876E+03  0.20421081081E+03  0.12500000000E+03 0.  0.
</event>
<event>
 5    0  0.5728184E-005  0.3023877E+03  0.7546771E-02  0.1084053E+00
         21   -1    0    0  502  501  0.00000000000E+00  0.00000000000E+00  0.69695771552E+03  0.69695771552E+03  0.00000000000E+00 0.  1.
         21   -1    0    0  501  502 -0.00000000000E+00 -0.00000000000E+00 -0.13119639854E+03  0.13119639854E+03  0.00000000000E+00 0.  1.
         25    1    1    2    0    0 -0.20727020839E+03  0.77881068062E+01  0.30314929511E+03  0.38800269203E+03  0.12500000000E+03 0.  0.
         25    1    1    2    0    0  0.37573623754E+02  0.32971502747E+02  0.13376842250E+03  0.18978379292E+03  0.12500000000E+03 0.  0.
         25    1    1    2    0    0  0.16969658464E+03 -0.40759609553E+02  0.12884359937E+03  0.25036762911E+03  0.12500000000E+03 0.  0.
</event>
<event>
 5    0  0.5728184E-005  0.3151936E+03  0.7546771E-02  0.1077883E+00
         21   -1    0    0  502  501  0.00000000000E+00  0.00000000000E+00  0.36836856666E+03  0.36836856666E+03  0.00000000000E+00 0.  1.
         21   -1    0    0  501  502 -0.00000000000E+00 -0.00000000000E+00 -0.26969465071E+03  0.26969465071E+03  0.00000000000E+00 0.  1.
         25    1    1    2    0    0 -0.89764216105E+02  0.75429614275E+02 -0.39569410328E+02  0.17589195387E+03  0.12500000000E+03 0.  0.
         25    1    1    2    0    0  0.98340884885E+02 -0.51312461480E+02 -0.97956194863E+02  0.19371193679E+03  0.12500000000E+03 0.  0.
         25    1    1    2    0    0 -0.85766687802E+01 -0.24117152794E+02  0.23619952114E+03  0.26845932670E+03  0.12500000000E+03 0.  0.
</event>
<event>
 5    0  0.5728184E-005  0.2880491E+03  0.7546771E-02  0.1091372E+00
         21   -1    0    0  502  501  0.00000000000E+00  0.00000000000E+00  0.49531154732E+03  0.49531154732E+03  0.00000000000E+00 0. -1.
         21   -1    0    0  501  502 -0.00000000000E+00 -0.00000000000E+00 -0.16751528839E+03  0.16751528839E+03  0.00000000000E+00 0. -1.
         25    1    1    2    0    0 -0.15087250867E+03 -0.87609820293E+02  0.10956360821E+03  0.24097132345E+03  0.12500000000E+03 0.  0.
         25    1    1    2    0    0  0.93871155246E+02  0.13811203910E+03  0.16550189468E+03  0.26627543310E+03  0.12500000000E+03 0.  0.
         25    1    1    2    0    0  0.57001353420E+02 -0.50502218807E+02  0.52730756046E+02  0.15558007915E+03  0.12500000000E+03 0.  0.
</event>
<event>
 5    0  0.5728184E-005  0.2538496E+03  0.7546771E-02  0.1110896E+00
         21   -1    0    0  502  501  0.00000000000E+00  0.00000000000E+00  0.26816794674E+03  0.26816794674E+03  0.00000000000E+00 0.  1.
         21   -1    0    0  501  502 -0.00000000000E+00 -0.00000000000E+00 -0.24029574858E+03  0.24029574858E+03  0.00000000000E+00 0.  1.
         25    1    1    2    0    0 -0.41364910959E+02 -0.38411280583E+02 -0.83421980311E+02  0.16053257966E+03  0.12500000000E+03 0.  0.
         25    1    1    2    0    0 -0.26633843061E+00 -0.15789416277E+02 -0.47451619808E+02  0.13463295594E+03  0.12500000000E+03 0.  0.
         25    1    1    2    0    0  0.41631249389E+02  0.54200696860E+02  0.15874579828E+03  0.21329815972E+03  0.12500000000E+03 0.  0.
</event>
<event>
 5    0  0.5728184E-005  0.2835901E+03  0.7546771E-02  0.1093744E+00
         21   -1    0    0  502  501  0.00000000000E+00  0.00000000000E+00  0.78520359524E+03  0.78520359524E+03  0.00000000000E+00 0.  1.
         21   -1    0    0  501  502 -0.00000000000E+00 -0.00000000000E+00 -0.10242354388E+03  0.10242354388E+03  0.00000000000E+00 0.  1.
         25    1    1    2    0    0  0.14053600556E+02  0.16255334426E+02  0.46408976838E+03  0.48110919000E+03  0.12500000000E+03 0.  0.
         25    1    1    2    0    0  0.83554207452E+02  0.48238069053E+02  0.16186526724E+03  0.22612735710E+03  0.12500000000E+03 0.  0.
         25    1    1    2    0    0 -0.97607808008E+02 -0.64493403479E+02  0.56825015736E+02  0.18039059202E+03  0.12500000000E+03 0.  0.
</event>
<event>
 5    0  0.5728184E-005  0.2434151E+03  0.7546771E-02  0.1117538E+00
         21   -1    0    0  502  501  0.00000000000E+00  0.00000000000E+00  0.25310097352E+03  0.25310097352E+03  0.00000000000E+00 0.  1.
         21   -1    0    0  501  502 -0.00000000000E+00 -0.00000000000E+00 -0.23409989820E+03  0.23409989820E+03  0.00000000000E+00 0.  1.
         25    1    1    2    0    0 -0.82849440232E+01 -0.14090331214E+03  0.27966129728E+02  0.19060295927E+03  0.12500000000E+03 0.  0.
         25    1    1    2    0    0  0.20725670211E+02  0.81687986245E+02  0.26968416449E+02  0.15314952167E+03  0.12500000000E+03 0.  0.
         25    1    1    2    0    0 -0.12440726188E+02  0.59215325898E+02 -0.35933470864E+02  0.14344839078E+03  0.12500000000E+03 0.  0.
</event>
<event>
 5    0  0.5728184E-005  0.3828171E+03  0.7546771E-02  0.1049897E+00
         21   -1    0    0  502  501  0.00000000000E+00  0.00000000000E+00  0.88604695426E+03  0.88604695426E+03  0.00000000000E+00 0. -1.
         21   -1    0    0  501  502 -0.00000000000E+00 -0.00000000000E+00 -0.16539635470E+03  0.16539635470E+03  0.00000000000E+00 0. -1.
         25    1    1    2    0    0  0.13955117744E+03 -0.13577035899E+03  0.56460445582E+02  0.23816150701E+03  0.12500000000E+03 0.  0.
         25    1    1    2    0    0 -0.50558780750E+02  0.19433395319E+03  0.16667090055E+03  0.28935456582E+03  0.12500000000E+03 0.  0.
         25    1    1    2    0    0 -0.88992396689E+02 -0.58563594196E+02  0.49751925342E+03  0.52392723613E+03  0.12500000000E+03 0.  0.
</event>
<event>
 5    0  0.5728184E-005  0.3604229E+03  0.7546771E-02  0.1058417E+00
         21   -1    0    0  502  501  0.00000000000E+00  0.00000000000E+00  0.83172628431E+02  0.83172628431E+02  0.00000000000E+00 0. -1.
         21   -1    0    0  501  502 -0.00000000000E+00 -0.00000000000E+00 -0.15618675815E+04  0.15618675815E+04  0.00000000000E+00 0. -1.
         25    1    1    2    0    0  0.10057391425E+03  0.59027624557E+02 -0.99200875609E+02  0.19764914978E+03  0.12500000000E+03 0.  0.
         25    1    1    2    0    0 -0.12332793420E+03 -0.16085862284E+03 -0.51099790820E+03  0.56376337065E+03  0.12500000000E+03 0.  0.
         25    1    1    2    0    0  0.22754019946E+02  0.10183099828E+03 -0.86849616921E+03  0.88362768946E+03  0.12500000000E+03 0.  0.
</event>
<event>
 5    0  0.5728184E-005  0.2727712E+03  0.7546771E-02  0.1099704E+00
         21   -1    0    0  502  501  0.00000000000E+00  0.00000000000E+00  0.29603108921E+03  0.29603108921E+03  0.00000000000E+00 0. -1.
         21   -1    0    0  501  502 -0.00000000000E+00 -0.00000000000E+00 -0.25133897855E+03  0.25133897855E+03  0.00000000000E+00 0. -1.
         25    1    1    2    0    0  0.15194949758E+02 -0.36208964189E+02 -0.66986070931E+02  0.14715335295E+03  0.12500000000E+03 0.  0.
         25    1    1    2    0    0  0.31560836184E+02  0.13278757360E+03 -0.24224866717E+02  0.18665602120E+03  0.12500000000E+03 0.  0.
         25    1    1    2    0    0 -0.46755785942E+02 -0.96578609410E+02  0.13590304831E+03  0.21356069361E+03  0.12500000000E+03 0.  0.
</event>
<event>
 5    0  0.5728184E-005  0.4160524E+03  0.7546771E-02  0.1038359E+00
         21   -1    0    0  502  501  0.00000000000E+00  0.00000000000E+00  0.52582128753E+03  0.52582128753E+03  0.00000000000E+00 0. -1.
         21   -1    0    0  501  502 -0.00000000000E+00 -0.00000000000E+00 -0.32919857495E+03  0.32919857495E+03  0.00000000000E+00 0. -1.
         25    1    1    2    0    0 -0.27277187469E+02  0.84989188433E+02 -0.17229522875E+03  0.23081995788E+03  0.12500000000E+03 0.  0.
         25    1    1    2    0    0 -0.10584319706E+03  0.13265245060E+03  0.10110136244E+03  0.23376471184E+03  0.12500000000E+03 0.  0.
         25    1    1    2    0    0  0.13312038453E+03 -0.21764163903E+03  0.26781657889E+03  0.39043519276E+03  0.12500000000E+03 0.  0.
</event>
<event>
 5    0  0.5728184E-005  0.2688216E+03  0.7546771E-02  0.1101956E+00
         21   -1    0    0  502  501  0.00000000000E+00  0.00000000000E+00  0.10215717450E+03  0.10215717450E+03  0.00000000000E+00 0.  1.
         21   -1    0    0  501  502 -0.00000000000E+00 -0.00000000000E+00 -0.70739092810E+03  0.70739092810E+03  0.00000000000E+00 0.  1.
         25    1    1    2    0    0 -0.20538509965E+02 -0.44394299487E+02 -0.41755468820E+03  0.43859959172E+03  0.12500000000E+03 0.  0.
         25    1    1    2    0    0 -0.56109465003E+01  0.43526385064E+02  0.12960651726E+02  0.13311276201E+03  0.12500000000E+03 0.  0.
         25    1    1    2    0    0  0.26149456465E+02  0.86791442341E+00 -0.20063971713E+03  0.23783574887E+03  0.12500000000E+03 0.  0.
</event>
<event>
 5    0  0.5728184E-005  0.2835744E+03  0.7546771E-02  0.1093753E+00
         21   -1    0    0  502  501  0.00000000000E+00  0.00000000000E+00  0.73470014790E+03  0.73470014790E+03  0.00000000000E+00 0.  1.
         21   -1    0    0  501  502 -0.00000000000E+00 -0.00000000000E+00 -0.10945209171E+03  0.10945209171E+03  0.00000000000E+00 0.  1.
         25    1    1    2    0    0  0.15151087231E+03  0.23170214736E+02  0.24041003682E+03  0.31131075966E+03  0.12500000000E+03 0.  0.
         25    1    1    2    0    0 -0.11257181309E+03 -0.49822781960E+02  0.35493306401E+03  0.39592575394E+03  0.12500000000E+03 0.  0.
         25    1    1    2    0    0 -0.38939059224E+02  0.26652567224E+02  0.29904955373E+02  0.13691572601E+03  0.12500000000E+03 0.  0.
</event>
<event>
 5    0  0.5728184E-005  0.2491488E+03  0.7546771E-02  0.1113844E+00
         21   -1    0    0  502  501  0.00000000000E+00  0.00000000000E+00  0.11444911381E+04  0.11444911381E+04  0.00000000000E+00 0.  1.
         21   -1    0    0  501  502 -0.00000000000E+00 -0.00000000000E+00 -0.54238166729E+02  0.54238166729E+02  0.00000000000E+00 0.  1.
         25    1    1    2    0    0  0.62279767085E+02  0.54686049784E+02  0.32345442768E+03  0.35653485133E+03  0.12500000000E+03 0.  0.
         25    1    1    2    0    0  0.78709721333E+02 -0.18633713965E+02  0.25049421819E+03  0.29140142222E+03  0.12500000000E+03 0.  0.
         25    1    1    2    0    0 -0.14098948842E+03 -0.36052335819E+02  0.51630432547E+03  0.55079303124E+03  0.12500000000E+03 0.  0.
</event>
<event>
 5    0  0.5728184E-005  0.2702630E+03  0.7546771E-02  0.1101129E+00
         21   -1    0    0  502  501  0.00000000000E+00  0.00000000000E+00  0.21071680077E+03  0.21071680077E+03  0.00000000000E+00 0.  1.
         21   -1    0    0  501  502 -0.00000000000E+00 -0.00000000000E+00 -0.34663628810E+03  0.34663628810E+03  0.00000000000E+00 0.  1.
         25    1    1    2    0    0  0.14424636024E+02  0.88261449362E+02 -0.35941452093E+01  0.15374027269E+03  0.12500000000E+03 0.  0.
         25    1    1    2    0    0 -0.81916625174E+02  0.51546998667E+02 -0.12936809558E+03  0.20427562436E+03  0.12500000000E+03 0.  0.
         25    1    1    2    0    0  0.67491989150E+02 -0.13980844803E+03 -0.29572465394E+01  0.19933719183E+03  0.12500000000E+03 0.  0.
</event>
<event>
 5    0  0.5728184E-005  0.2203612E+03  0.7546771E-02  0.1133614E+00
         21   -1    0    0  502  501  0.00000000000E+00  0.00000000000E+00  0.14365698814E+03  0.14365698814E+03  0.00000000000E+00 0. -1.
         21   -1    0    0  501  502 -0.00000000000E+00 -0.00000000000E+00 -0.33802082611E+03  0.33802082611E+03  0.00000000000E+00 0. -1.
         25    1    1    2    0    0  0.17250384494E+02  0.99876966946E+02 -0.25998501839E+02  0.16301504958E+03  0.12500000000E+03 0.  0.
         25    1    1    2    0    0 -0.13010258315E+02 -0.55771998621E+02 -0.94757785264E+02  0.16698449185E+03  0.12500000000E+03 0.  0.
         25    1    1    2    0    0 -0.42401261796E+01 -0.44104968325E+02 -0.73607550865E+02  0.15167827282E+03  0.12500000000E+03 0.  0.
</event>
<event>
 5    0  0.5728184E-005  0.3013821E+03  0.7546771E-02  0.1084552E+00
         21   -1    0    0  502  501  0.00000000000E+00  0.00000000000E+00  0.97089786779E+03  0.97089786779E+03  0.00000000000E+00 0.  1.
         21   -1    0    0  501  502 -0.00000000000E+00 -0.00000000000E+00 -0.93553813792E+02  0.93553813792E+02  0.00000000000E+00 0.  1.
         25    1    1    2    0    0  0.12667560773E+03  0.12430419462E+03  0.22700971867E+03  0.31409656917E+03  0.12500000000E+03 0.  0.
         25    1    1    2    0    0 -0.14193427415E+03 -0.13763115584E+03  0.31837977167E+03  0.39506752871E+03  0.12500000000E+03 0.  0.
         25    1    1    2    0    0  0.15258666417E+02  0.13326961218E+02  0.33195456366E+03  0.35528758370E+03  0.12500000000E+03 0.  0.
</event>
<event>
 5    0  0.5728184E-005  0.5023942E+03  0.7546771E-02  0.1013156E+00
         21   -1    0    0  502  501  0.00000000000E+00  0.00000000000E+00  0.15880206788E+03  0.15880206788E+03  0.00000000000E+00 0. -1.
         21   -1    0    0  501  502 -0.00000000000E+00 -0.00000000000E+00 -0.15893997557E+04  0.15893997557E+04  0.00000000000E+00 0. -1.
         25    1    1    2    0    0  0.10682758541E+03  0.74625097100E+02  0.20927563383E+02  0.18178008975E+03  0.12500000000E+03 0.  0.
         25    1    1    2    0    0 -0.14319232800E+03  0.10193246575E+03 -0.12502286129E+04  0.12686965181E+04  0.12500000000E+03 0.  0.
         25    1    1    2    0    0  0.36364742591E+02 -0.17655756285E+03 -0.20129663823E+03  0.29772521571E+03  0.12500000000E+03 0.  0.
</event>
<event>
 5    0  0.5883589E-005  0.2861298E+03  0.7546771E-02  0.1092387E+00
         21   -1    0    0  502  501  0.00000000000E+00  0.00000000000E+00  0.60186569133E+03  0.60186569133E+03  0.00000000000E+00 0.  1.
         21   -1    0    0  501  502 -0.00000000000E+00 -0.00000000000E+00 -0.13602750166E+03  0.13602750166E+03  0.00000000000E+00 0.  1.
         25    1    1    2    0    0 -0.53550246401E+02  0.26156540584E+01  0.23518627714E+03  0.27168374167E+03  0.12500000000E+03 0.  0.
         25    1    1    2    0    0  0.62131969251E+02 -0.60416141326E+02  0.28083753544E+03  0.31938254969E+03  0.12500000000E+03 0.  0.
         25    1    1    2    0    0 -0.85817228503E+01  0.57800487267E+02 -0.50185622909E+02  0.14682690163E+03  0.12500000000E+03 0.  0.
</event>
<event>
 5    0  0.5728184E-005  0.2725975E+03  0.7546771E-02  0.1099802E+00
         21   -1    0    0  502  501  0.00000000000E+00  0.00000000000E+00  0.90319364882E+02  0.90319364882E+02  0.00000000000E+00 0. -1.
         21   -1    0    0  501  502 -0.00000000000E+00 -0.00000000000E+00 -0.82274049838E+03  0.82274049838E+03  0.00000000000E+00 0. -1.
         25    1    1    2    0    0 -0.65879934551E+02  0.97548549241E+02 -0.17099135789E+03  0.24231989127E+03  0.12500000000E+03 0.  0.
         25    1    1    2    0    0  0.21856626407E+02 -0.45211373628E+02 -0.49596659151E+03  0.51393544373E+03  0.12500000000E+03 0.  0.
         25    1    1    2    0    0  0.44023308143E+02 -0.52337175614E+02 -0.65463184105E+02  0.15680452826E+03  0.12500000000E+03 0.  0.
</event>
<event>
 5    0  0.5728184E-005  0.1967818E+03  0.7546771E-02  0.1152483E+00
         21   -1    0    0  502  501  0.00000000000E+00  0.00000000000E+00  0.55111522570E+03  0.55111522570E+03  0.00000000000E+00 0.  1.
         21   -1    0    0  501  502 -0.00000000000E+00 -0.00000000000E+00 -0.70263138917E+02  0.70263138917E+02  0.00000000000E+00 0.  1.
         25    1    1    2    0    0 -0.38962397972E+02  0.13173676892E+02  0.19802691015E+03  0.23776305718E+03  0.12500000000E+03 0.  0.
         25    1    1    2    0    0  0.19371247985E+01  0.12882868461E+02  0.14993033535E+03  0.19563697557E+03  0.12500000000E+03 0.  0.
         25    1    1    2    0    0  0.37025273174E+02 -0.26056545353E+02  0.13289484128E+03  0.18797833186E+03  0.12500000000E+03 0.  0.
</event>
<event>
 5    0  0.5728184E-005  0.2331735E+03  0.7546771E-02  0.1124426E+00
         21   -1    0    0  502  501  0.00000000000E+00  0.00000000000E+00  0.72671947845E+03  0.72671947845E+03  0.00000000000E+00 0. -1.
         21   -1    0    0  501  502 -0.00000000000E+00 -0.00000000000E+00 -0.74815476924E+02  0.74815476924E+02  0.00000000000E+00 0. -1.
         25    1    1    2    0    0  0.28235835438E+02 -0.57325448408E+02  0.89389189898E+02  0.16642985522E+03  0.12500000000E+03 0.  0.
         25    1    1    2    0    0 -0.26392087170E+02 -0.41270559626E+02  0.22702214359E+03  0.26374960670E+03  0.12500000000E+03 0.  0.
         25    1    1    2    0    0 -0.18437482679E+01  0.98596008033E+02  0.33549266805E+03  0.37135549346E+03  0.12500000000E+03 0.  0.
</event>
<event>
 5    0  0.5728184E-005  0.2667539E+03  0.7546771E-02  0.1103152E+00
         21   -1    0    0  502  501  0.00000000000E+00  0.00000000000E+00  0.48578686436E+03  0.48578686436E+03  0.00000000000E+00 0.  1.
         21   -1    0    0  501  502 -0.00000000000E+00 -0.00000000000E+00 -0.14647911365E+03  0.14647911365E+03  0.00000000000E+00 0.  1.
         25    1    1    2    0    0  0.12246809186E+03 -0.94074372382E+02  0.15061422312E+03  0.24931519261E+03  0.12500000000E+03 0.  0.
         25    1    1    2    0    0 -0.10740640855E+03  0.47114615891E+02  0.28337456026E+02  0.17373524410E+03  0.12500000000E+03 0.  0.
         25    1    1    2    0    0 -0.15061683306E+02  0.46959756491E+02  0.16035607156E+03  0.20921554129E+03  0.12500000000E+03 0.  0.
</event>
<event>
 5    0  0.5728184E-005  0.2476670E+03  0.7546771E-02  0.1114788E+00
         21   -1    0    0  502  501  0.00000000000E+00  0.00000000000E+00  0.30260007189E+03  0.30260007189E+03  0.00000000000E+00 0.  1.
         21   -1    0    0  501  502 -0.00000000000E+00 -0.00000000000E+00 -0.20270628684E+03  0.20270628684E+03  0.00000000000E+00 0.  1.
         25    1    1    2    0    0 -0.56386356235E+02 -0.94237029958E+02  0.95932271714E+02  0.19206259329E+03  0.12500000000E+03 0.  0.
         25    1    1    2    0    0 -0.49515925464E+02  0.34679494297E+02 -0.97608307364E+00  0.13885404905E+03  0.12500000000E+03 0.  0.
         25    1    1    2    0    0  0.10590228170E+03  0.59557535660E+02  0.49375964091E+01  0.17438971639E+03  0.12500000000E+03 0.  0.
</event>
<event>
 5    0  0.6305178E-005  0.3369817E+03  0.7546771E-02  0.1068089E+00
         21   -1    0    0  502  501  0.00000000000E+00  0.00000000000E+00  0.35060768970E+03  0.35060768970E+03  0.00000000000E+00 0.  1.
         21   -1    0    0  501  502 -0.00000000000E+00 -0.00000000000E+00 -0.32388519130E+03  0.32388519130E+03  0.00000000000E+00 0.  1.
         25    1    1    2    0    0  0.12620058924E+03  0.15013890568E+03  0.27882402628E+02  0.23424497455E+03  0.12500000000E+03 0.  0.
         25    1    1    2    0    0  0.23227620291E+02 -0.50155963616E+02 -0.12794498083E+03  0.18721661558E+03  0.12500000000E+03 0.  0.
         25    1    1    2    0    0 -0.14942820954E+03 -0.99982942064E+02  0.12678507661E+03  0.25303129087E+03  0.12500000000E+03 0.  0.
</event>
<event>
 5    0  0.5728184E-005  0.2658924E+03  0.7546771E-02  0.1103654E+00
         21   -1    0    0  502  501  0.00000000000E+00  0.00000000000E+00  0.49658109597E+02  0.49658109597E+02  0.00000000000E+00 0.  1.
         21   -1    0    0  501  502 -0.00000000000E+00 -0.00000000000E+00 -0.14237103512E+04  0.14237103512E+04  0.00000000000E+00 0.  1.
         25    1    1    2    0    0 -0.39270332532E+02 -0.14599962775E+02 -0.56463774836E+03  0.57982420164E+03  0.12500000000E+03 0.  0.
         25    1    1    2    0    0  0.11621161383E+02  0.14498321553E+03 -0.34951867568E+03  0.39867717370E+03  0.12500000000E+03 0.  0.
         25    1    1    2    0    0  0.27649171150E+02 -0.13038325275E+03 -0.45989581752E+03  0.49486708543E+03  0.12500000000E+03 0.  0.
</event>
<event>
 5    0  0.5728184E-005  0.4144808E+03  0.7546771E-02  0.1038878E+00
         21   -1    0    0  502  501  0.00000000000E+00  0.00000000000E+00  0.15844794203E+03  0.15844794203E+03  0.00000000000E+00 0. -1.
         21   -1    0    0  501  502 -0.00000000000E+00 -0.00000000000E+00 -0.10842319149E+04  0.10842319149E+04  0.00000000000E+00 0. -1.
         25    1    1    2    0    0 -0.83069403811E+02 -0.18992456942E+03 -0.28319920333E+03  0.37255691738E+03  0.12500000000E+03 0.  0.
         25    1    1    2    0    0 -0.80116415563E+02  0.28998425286E+03 -0.51193815825E+03  0.60680737044E+03  0.12500000000E+03 0.  0.
         25    1    1    2    0    0  0.16318581937E+03 -0.10005968344E+03 -0.13064661127E+03  0.26331556910E+03  0.12500000000E+03 0.  0.
</event>
<event>
 5    0  0.5728184E-005  0.2621563E+03  0.7546771E-02  0.1105855E+00
         21   -1    0    0  502  501  0.00000000000E+00  0.00000000000E+00  0.23840956312E+03  0.23840956312E+03  0.00000000000E+00 0.  1.
         21   -1    0    0  501  502 -0.00000000000E+00 -0.00000000000E+00 -0.28826838890E+03  0.28826838890E+03  0.00000000000E+00 0.  1.
         25    1    1    2    0    0 -0.34673641931E+02 -0.41071837285E+02 -0.42927307690E+02  0.14267764719E+03  0.12500000000E+03 0.  0.
         25    1    1    2    0    0 -0.88978185616E+02  0.10413733297E+03  0.43597530408E+02  0.19049264104E+03  0.12500000000E+03 0.  0.
         25    1    1    2    0    0  0.12365182755E+03 -0.63065495684E+02 -0.50529048496E+02  0.19350766378E+03  0.12500000000E+03 0.  0.
</event>
<event>
 5    0  0.5728184E-005  0.3482539E+03  0.7546771E-02  0.1063334E+00
         21   -1    0    0  502  501  0.00000000000E+00  0.00000000000E+00  0.23966280454E+04  0.23966280454E+04  0.00000000000E+00 0. -1.
         21   -1    0    0  501  502 -0.00000000000E+00 -0.00000000000E+00 -0.50604751761E+02  0.50604751761E+02  0.00000000000E+00 0. -1.
         25    1    1    2    0    0  0.20033922014E+03  0.87633666302E+02  0.13226197320E+04  0.13463890292E+04  0.12500000000E+03 0.  0.
         25    1    1    2    0    0  0.10941468357E+02 -0.57630762334E+02  0.21557126838E+03  0.25600193798E+03  0.12500000000E+03 0.  0.
         25    1    1    2    0    0 -0.21128068850E+03 -0.30002903968E+02  0.80783229322E+03  0.84484182990E+03  0.12500000000E+03 0.  0.
</event>
<event>
 5    0  0.5728184E-005  0.3570039E+03  0.7546771E-02  0.1059777E+00
         21   -1    0    0  502  501  0.00000000000E+00  0.00000000000E+00  0.60092920768E+02  0.60092920768E+02  0.00000000000E+00 0.  1.
         21   -1    0    0  501  502 -0.00000000000E+00 -0.00000000000E+00 -0.21209114356E+04  0.21209114356E+04  0.00000000000E+00 0.  1.
         25    1    1    2    0    0 -0.11178260860E+03  0.95754901249E+02 -0.41462829123E+03  0.45739039407E+03  0.12500000000E+03 0.  0.
         25    1    1    2    0    0 -0.15566609193E+03  0.75349687322E+00 -0.60545260760E+03  0.63751890951E+03  0.12500000000E+03 0.  0.
         25    1    1    2    0    0  0.26744870054E+03 -0.96508398122E+02 -0.10407376160E+04  0.10860950528E+04  0.12500000000E+03 0.  0.
</event>
<event>
 5    0  0.5728184E-005  0.3801169E+03  0.7546771E-02  0.1050891E+00
         21   -1    0    0  502  501  0.00000000000E+00  0.00000000000E+00  0.45118460984E+03  0.45118460984E+03  0.00000000000E+00 0.  1.
         21   -1    0    0  501  502 -0.00000000000E+00 -0.00000000000E+00 -0.32024325336E+03  0.32024325336E+03  0.00000000000E+00 0.  1.
         25    1    1    2    0    0  0.10352117600E+03  0.25629131034E+03 -0.10296593917E+03  0.32035738523E+03  0.12500000000E+03 0.  0.
         25    1    1    2    0    0 -0.70909766276E+02 -0.77347803743E+02  0.12098179955E+03  0.20315627856E+03  0.12500000000E+03 0.  0.
         25    1    1    2    0    0 -0.32611409726E+02 -0.17894350660E+03  0.11292549610E+03  0.24791419941E+03  0.12500000000E+03 0.  0.
</event>
<event>
 5    0  0.5728184E-005  0.3512279E+03  0.7546771E-02  0.1062112E+00
         21   -1    0    0  502  501  0.00000000000E+00  0.00000000000E+00  0.12856669141E+04  0.12856669141E+04  0.00000000000E+00 0.  1.
         21   -1    0    0  501  502 -0.00000000000E+00 -0.00000000000E+00 -0.95951034433E+02  0.95951034433E+02  0.00000000000E+00 0.  1.
         25    1    1    2    0    0  0.29159385201E+02  0.27421122830E+03  0.40767302634E+03  0.50780346974E+03  0.12500000000E+03 0.  0.
         25    1    1    2    0    0  0.28497624261E+01 -0.21149740366E+03  0.51797661968E+03  0.57329229146E+03  0.12500000000E+03 0.  0.
         25    1    1    2    0    0 -0.32009147627E+02 -0.62713824637E+02  0.26406623363E+03  0.30052218733E+03  0.12500000000E+03 0.  0.
</event>
<event>
 5    0  0.5728184E-005  0.2430037E+03  0.7546771E-02  0.1117808E+00
         21   -1    0    0  502  501  0.00000000000E+00  0.00000000000E+00  0.53449321310E+02  0.53449321310E+02  0.00000000000E+00 0.  1.
         21   -1    0    0  501  502 -0.00000000000E+00 -0.00000000000E+00 -0.11047998478E+04  0.11047998478E+04  0.00000000000E+00 0.  1.
         25    1    1    2    0    0 -0.48066652557E+02  0.90336182250E+01 -0.20527994822E+03  0.24526896764E+03  0.12500000000E+03 0.  0.
         25    1    1    2    0    0  0.88713939080E+02  0.10189153270E+02 -0.19369993503E+03  0.24722185717E+03  0.12500000000E+03 0.  0.
         25    1    1    2    0    0 -0.40647286522E+02 -0.19222771495E+02 -0.65237064323E+03  0.66575834429E+03  0.12500000000E+03 0.  0.
</event>
<event>
 5    0  0.5728184E-005  0.3657006E+03  0.7546771E-02  0.1056349E+00
         21   -1    0    0  502  501  0.00000000000E+00  0.00000000000E+00  0.62120070065E+03  0.62120070065E+03  0.00000000000E+00 0.  1.
         21   -1    0    0  501  502 -0.00000000000E+00 -0.00000000000E+00 -0.21528780103E+03  0.21528780103E+03  0.00000000000E+00 0.  1.
         25    1    1    2    0    0  0.26810781537E+02 -0.54359382913E+02  0.12287468777E+03  0.18546414589E+03  0.12500000000E+03 0.  0.
         25    1    1    2    0    0 -0.27389370288E+03  0.54840923737E+02  0.18322345531E+03  0.35668070030E+03  0.12500000000E+03 0.  0.
         25    1    1    2    0    0  0.24708292134E+03 -0.48154082397E+00  0.99814756540E+02  0.29434365548E+03  0.12500000000E+03 0.  0.
</event>
<event>
 5    0  0.5728184E-005  0.4760115E+03  0.7546771E-02  0.1020237E+00
         21   -1    0    0  502  501  0.00000000000E+00  0.00000000000E+00  0.54099683314E+03  0.54099683314E+03  0.00000000000E+00 0.  1.
         21   -1    0    0  501  502 -0.00000000000E+00 -0.00000000000E+00 -0.41883232558E+03  0.41883232558E+03  0.00000000000E+00 0.  1.
         25    1    1    2    0    0 -0.36497301642E+03  0.79383613570E+02  0.13208410711E+03  0.41542541108E+03  0.12500000000E+03 0.  0.
         25    1    1    2    0    0  0.26731318765E+03  0.48097128068E+02 -0.10877338058E+03  0.31816084351E+03  0.12500000000E+03 0.  0.
         25    1    1    2    0    0  0.97659828768E+02 -0.12748074164E+03  0.98853781034E+02  0.22624290413E+03  0.12500000000E+03 0.  0.
</event>
<event>
 5    0  0.5728184E-005  0.2454632E+03  0.7546771E-02  0.1116206E+00
         21   -1    0    0  502  501  0.00000000000E+00  0.00000000000E+00  0.12499041082E+03  0.12499041082E+03  0.00000000000E+00 0. -1.
         21   -1    0    0  501  502 -0.00000000000E+00 -0.00000000000E+00 -0.48205445405E+03  0.48205445405E+03  0.00000000000E+00 0. -1.
         25    1    1    2    0    0 -0.65807211163E+02 -0.53647401697E+00 -0.60789900943E+02  0.15378975552E+03  0.12500000000E+03 0.  0.
         25    1    1    2    0    0  0.74392930227E+02  0.63171011436E+01 -0.29369047241E+03  0.32780071296E+03  0.12500000000E+03 0.  0.
         25    1    1    2    0    0 -0.85857190635E+01 -0.57806271267E+01 -0.25836698802E+01  0.12545439638E+03  0.12500000000E+03 0.  0.
</event>
<event>
 5    0  0.6818033E-005  0.3788768E+03  0.7546771E-02  0.1051350E+00
         21   -1    0    0  502  501  0.00000000000E+00  0.00000000000E+00  0.32136049226E+03  0.32136049226E+03  0.00000000000E+00 0.  1.
         21   -1    0    0  501  502 -0.00000000000E+00 -0.00000000000E+00 -0.44668719793E+03  0.44668719793E+03  0.00000000000E+00 0.  1.
         25    1    1    2    0    0 -0.16200699911E+03  0.16357595498E+03 -0.18387907638E+03  0.32006229946E+03  0.12500000000E+03 0.  0.
         25    1    1    2    0    0  0.10651810807E+03 -0.12367926340E+03 -0.10519383404E+03  0.23094027423E+03  0.12500000000E+03 0.  0.
         25    1    1    2    0    0  0.55488891040E+02 -0.39896691586E+02  0.16374620475E+03  0.21704511650E+03  0.12500000000E+03 0.  0.
</event>
<event>
 5    0  0.5728184E-005  0.3125664E+03  0.7546771E-02  0.1079122E+00
         21   -1    0    0  502  501  0.00000000000E+00  0.00000000000E+00  0.26254927882E+03  0.26254927882E+03  0.00000000000E+00 0.  1.
         21   -1    0    0  501  502 -0.00000000000E+00 -0.00000000000E+00 -0.37211198746E+03  0.37211198746E+03  0.00000000000E+00 0.  1.
         25    1    1    2    0    0 -0.29204649372E+02  0.13557908817E+02  0.12592779060E+02  0.12969312442E+03  0.12500000000E+03 0.  0.
         25    1    1    2    0    0 -0.95362540429E+02 -0.32457090738E+02 -0.24229195930E+03  0.29065077051E+03  0.12500000000E+03 0.  0.
         25    1    1    2    0    0  0.12456718980E+03  0.18899181922E+02  0.12013647161E+03  0.21431737135E+03  0.12500000000E+03 0.  0.
</event>
<event>
 5    0  0.5728184E-005  0.2227253E+03  0.7546771E-02  0.1131867E+00
         21   -1    0    0  502  501  0.00000000000E+00  0.00000000000E+00  0.24499561415E+03  0.24499561415E+03  0.00000000000E+00 0.  1.
         21   -1    0    0  501  502 -0.00000000000E+00 -0.00000000000E+00 -0.20247936870E+03  0.20247936870E+03  0.00000000000E+00 0.  1.
         25    1    1    2    0    0  0.11783279953E+02  0.42058438465E+02  0.45405284458E+02  0.13997999067E+03  0.12500000000E+03 0.  0.
         25    1    1    2    0    0 -0.43668657998E+02 -0.21980063735E+02 -0.79621277023E+02  0.15605967656E+03  0.12500000000E+03 0.  0.
         25    1    1    2    0    0  0.31885378045E+02 -0.20078374730E+02  0.76732238008E+02  0.15143531561E+03  0.12500000000E+03 0.  0.
</event>
<event>
 5    0  0.5728184E-005  0.3158983E+03  0.7546771E-02  0.1077553E+00
         21   -1    0    0  502  501  0.00000000000E+00  0.00000000000E+00  0.94260856098E+03  0.94260856098E+03  0.00000000000E+00 0.  1.
         21   -1    0    0  501  502 -0.00000000000E+00 -0.00000000000E+00 -0.10586761875E+03  0.10586761875E+03  0.00000000000E+00 0.  1.
         25    1    1    2    0    0  0.69477018005E+02  0.11277447417E+03  0.22391123061E+03  0.28862844151E+03  0.12500000000E+03 0.  0.
         25    1    1    2    0    0 -0.10355698200E+03 -0.20968253502E+03  0.48838490213E+03  0.55572981443E+03  0.12500000000E+03 0.  0.
         25    1    1    2    0    0  0.34079963990E+02  0.96908060846E+02  0.12444480949E+03  0.20411792379E+03  0.12500000000E+03 0.  0.
</event>
<event>
 5    0  0.5728184E-005  0.2943610E+03  0.7546771E-02  0.1088094E+00
         21   -1    0    0  502  501  0.00000000000E+00  0.00000000000E+00  0.26359581073E+03  0.26359581073E+03  0.00000000000E+00 0.  1.
         21   -1    0    0  501  502 -0.00000000000E+00 -0.00000000000E+00 -0.32871686362E+03  0.32871686362E+03  0.00000000000E+00 0.  1.
         25    1    1    2    0    0  0.12102162949E+03  0.51413172572E+02  0.99550721676E+02  0.20694176791E+03  0.12500000000E+03 0.  0.
         25    1    1    2    0    0 -0.75810063167E+02 -0.27258280203E+02  0.26725829229E+02  0.15109417416E+03  0.12500000000E+03 0.  0.
         25    1    1    2    0    0 -0.45211566320E+02 -0.24154892370E+02 -0.19139760379E+03  0.23427673228E+03  0.12500000000E+03 0.  0.
</event>
<event>
 5    0  0.5728184E-005  0.4179430E+03  0.7546771E-02  0.1037738E+00
         21   -1    0    0  502  501  0.00000000000E+00  0.00000000000E+00  0.68209077180E+03  0.68209077180E+03  0.00000000000E+00 0.  1.
         21   -1    0    0  501  502 -0.00000000000E+00 -0.00000000000E+00 -0.25608965657E+03  0.25608965657E+03  0.00000000000E+00 0.  1.
         25    1    1    2    0    0 -0.13703937763E+01  0.25160844282E+02  0.11392234303E+03  0.17099194807E+03  0.12500000000E+03 0.  0.
         25    1    1    2    0    0  0.15952239588E+03  0.23108532623E+03  0.31641379881E+03  0.44112414904E+03  0.12500000000E+03 0.  0.
         25    1    1    2    0    0 -0.15815200211E+03 -0.25624617051E+03 -0.43350266090E+01  0.32606433127E+03  0.12500000000E+03 0.  0.
</event>
<event>
 5    0  0.5728184E-005  0.4550776E+03  0.7546771E-02  0.1026219E+00
         21   -1    0    0  502  501  0.00000000000E+00  0.00000000000E+00  0.98996355653E+02  0.98996355653E+02  0.00000000000E+00 0. -1.
         21   -1    0    0  501  502 -0.00000000000E+00 -0.00000000000E+00 -0.20919521262E+04  0.20919521262E+04  0.00000000000E+00 0. -1.
         25    1    1    2    0    0 -0.94773363352E+02 -0.16554350075E+03 -0.23125181839E+03  0.32479077042E+03  0.12500000000E+03 0.  0.
         25    1    1    2    0    0  0.58370012786E+02 -0.14633664389E+03 -0.27012541603E+03  0.33677026609E+03  0.12500000000E+03 0.  0.
         25    1    1    2    0    0  0.36403350566E+02  0.31188014464E+03 -0.14915785362E+04  0.15293874454E+04  0.12500000000E+03 0.  0.
</event>
<event>
 5    0  0.5728184E-005  0.2416983E+03  0.7546771E-02  0.1118667E+00
         21   -1    0    0  502  501  0.00000000000E+00  0.00000000000E+00  0.68857814925E+02  0.68857814925E+02  0.00000000000E+00 0.  1.
         21   -1    0    0  501  502 -0.00000000000E+00 -0.00000000000E+00 -0.84838710616E+03  0.84838710616E+03  0.00000000000E+00 0.  1.
         25    1    1    2    0    0 -0.89309689566E+02  0.97145119609E+01 -0.38735699007E+03  0.41682254035E+03  0.12500000000E+03 0.  0.
         25    1    1    2    0    0 -0.28329231639E+02  0.30690471242E+02 -0.20084383783E+03  0.24022426519E+03  0.12500000000E+03 0.  0.
         25    1    1    2    0    0  0.11763892120E+03 -0.40404983203E+02 -0.19132846334E+03  0.26019811555E+03  0.12500000000E+03 0.  0.
</event>
<event>
 5    0  0.5728184E-005  0.4927782E+03  0.7546771E-02  0.1015681E+00
         21   -1    0    0  502  501  0.00000000000E+00  0.00000000000E+00  0.64706110448E+03  0.64706110448E+03  0.00000000000E+00 0.  1.
         21   -1    0    0  501  502 -0.00000000000E+00 -0.00000000000E+00 -0.37528190319E+03  0.37528190319E+03  0.00000000000E+00 0.  1.
         25    1    1    2    0    0  0.52122762725E+02 -0.12028857231E+03  0.55662819435E+03  0.58535977805E+03  0.12500000000E+03 0.  0.
         25    1    1    2    0    0  0.49420683008E+01 -0.36422612391E+01 -0.42716116674E+02  0.13223976985E+03  0.12500000000E+03 0.  0.
         25    1    1    2    0    0 -0.57064831025E+02  0.12393083354E+03 -0.24213287639E+03  0.30474345977E+03  0.12500000000E+03 0.  0.
</event>
<event>
 5    0  0.5728184E-005  0.3624901E+03  0.7546771E-02  0.1057602E+00
         21   -1    0    0  502  501  0.00000000000E+00  0.00000000000E+00  0.16009429483E+04  0.16009429483E+04  0.00000000000E+00 0. -1.
         21   -1    0    0  501  502 -0.00000000000E+00 -0.00000000000E+00 -0.82076038824E+02  0.82076038824E+02  0.00000000000E+00 0. -1.
         25    1    1    2    0    0  0.93807751879E+02 -0.54672465045E+02  0.23006513101E+03  0.28345006131E+03  0.12500000000E+03 0.  0.
         25    1    1    2    0    0 -0.12107583619E+03  0.66905096011E+02  0.12521046177E+04  0.12659094058E+04  0.12500000000E+03 0.  0.
         25    1    1    2    0    0  0.27268084308E+02 -0.12232630966E+02  0.36697160731E+02  0.13365952000E+03  0.12500000000E+03 0.  0.
</event>
<event>
 5    0  0.5728184E-005  0.3135353E+03  0.7546771E-02  0.1078664E+00
         21   -1    0    0  502  501  0.00000000000E+00  0.00000000000E+00  0.11114972400E+04  0.11114972400E+04  0.00000000000E+00 0. -1.
         21   -1    0    0  501  502 -0.00000000000E+00 -0.00000000000E+00 -0.88443235578E+02  0.88443235578E+02  0.00000000000E+00 0. -1.
         25    1    1    2    0    0 -0.31331067269E+02 -0.13340480842E+03  0.59776762601E+03  0.62588306687E+03  0.12500000000E+03 0.  0.
         25    1    1    2    0    0 -0.10304298150E+03  0.11471683434E+03  0.18703063839E+03  0.27273296063E+03  0.12500000000E+03 0.  0.
         25    1    1    2    0    0  0.13437404877E+03  0.18687974075E+02  0.23825574002E+03  0.30132444808E+03  0.12500000000E+03 0.  0.
</event>
<event>
 5    0  0.5728184E-005  0.2733182E+03  0.7546771E-02  0.1099395E+00
         21   -1    0    0  502  501  0.00000000000E+00  0.00000000000E+00  0.22969416920E+04  0.22969416920E+04  0.00000000000E+00 0.  1.
         21   -1    0    0  501  502 -0.00000000000E+00 -0.00000000000E+00 -0.32522733056E+02  0.32522733056E+02  0.00000000000E+00 0.  1.
         25    1    1    2    0    0 -0.10421856210E+03  0.29449290099E+02  0.14878299933E+04  0.14969942747E+04  0.12500000000E+03 0.  0.
         25    1    1    2    0    0 -0.12098401760E+01 -0.20143536654E+02  0.44456798133E+03  0.46224767799E+03  0.12500000000E+03 0.  0.
         25    1    1    2    0    0  0.10542840228E+03 -0.93057534452E+01  0.33202098427E+03  0.37022247237E+03  0.12500000000E+03 0.  0.
</event>
<event>
 5    0  0.5728184E-005  0.2535074E+03  0.7546771E-02  0.1111108E+00
         21   -1    0    0  502  501  0.00000000000E+00  0.00000000000E+00  0.17089389895E+03  0.17089389895E+03  0.00000000000E+00 0. -1.
         21   -1    0    0  501  502 -0.00000000000E+00 -0.00000000000E+00 -0.37605799699E+03  0.37605799699E+03  0.00000000000E+00 0. -1.
         25    1    1    2    0    0 -0.45133830474E+02  0.37607633831E+02 -0.73868742398E+02  0.15663009889E+03  0.12500000000E+03 0.  0.
         25    1    1    2    0    0 -0.57005375680E+02  0.55991701011E+02  0.20518626079E+02  0.14976881336E+03  0.12500000000E+03 0.  0.
         25    1    1    2    0    0  0.10213920615E+03 -0.93599334842E+02 -0.15181398172E+03  0.24055298369E+03  0.12500000000E+03 0.  0.
</event>
<event>
 5    0  0.5728184E-005  0.2787446E+03  0.7546771E-02  0.1096377E+00
         21   -1    0    0  502  501  0.00000000000E+00  0.00000000000E+00  0.34051513681E+03  0.34051513681E+03  0.00000000000E+00 0. -1.
         21   -1    0    0  501  502 -0.00000000000E+00 -0.00000000000E+00 -0.22817945555E+03  0.22817945555E+03  0.00000000000E+00 0. -1.
         25    1    1    2    0    0 -0.10410747040E+03 -0.10270635760E+03  0.11778806663E+03  0.22557923203E+03  0.12500000000E+03 0.  0.
         25    1    1    2    0    0 -0.44673968619E+02  0.35200495523E+02 -0.49691450480E-01  0.13733113568E+03  0.12500000000E+03 0.  0.
         25    1    1    2    0    0  0.14878143902E+03  0.67505862079E+02 -0.54026939202E+01  0.20578422464E+03  0.12500000000E+03 0.  0.
</event>
<event>
 5    0  0.5728184E-005  0.3971128E+03  0.7546771E-02  0.1044784E+00
         21   -1    0    0  502  501  0.00000000000E+00  0.00000000000E+00  0.95132843948E+03  0.95132843948E+03  0.00000000000E+00 0. -1.
         21   -1    0    0  501  502 -0.00000000000E+00 -0.00000000000E+00 -0.16576666710E+03  0.16576666710E+03  0.00000000000E+00 0. -1.
         25    1    1    2    0    0 -0.12520110960E+03 -0.20767121445E+03  0.63532692828E+03  0.69142458515E+03  0.12500000000E+03 0.  0.
         25    1    1    2    0    0  0.58416336790E+02 -0.98271537078E+01  0.43716438766E+02  0.14506952944E+03  0.12500000000E+03 0.  0.
         25    1    1    2    0    0  0.66784772810E+02  0.21749836816E+03  0.10651840533E+03  0.28060099199E+03  0.12500000000E+03 0.  0.
</event>
<event>
 5    0  0.5728184E-005  0.2836071E+03  0.7546771E-02  0.1093735E+00
         21   -1    0    0  502  501  0.00000000000E+00  0.00000000000E+00  0.19428845171E+04  0.19428845171E+04  0.00000000000E+00 0. -1.
         21   -1    0    0  501  502 -0.00000000000E+00 -0.00000000000E+00 -0.41398757110E+02  0.41398757110E+02  0.00000000000E+00 0. -1.
         25    1    1    2    0    0  0.14687357285E+03 -0.29524924638E+02  0.11842777661E+04  0.12002426400E+04  0.12500000000E+03 0.  0.
         25    1    1    2    0    0 -0.13238141305E+03  0.35552258775E+02  0.49476700099E+03  0.52840153945E+03  0.12500000000E+03 0.  0.
         25    1    1    2    0    0 -0.14492159801E+02 -0.60273341371E+01  0.22244099293E+03  0.25563909479E+03  0.12500000000E+03 0.  0.
</event>
<event>
 5    0  0.5728184E-005  0.2727051E+03  0.7546771E-02  0.1099741E+00
         21   -1    0    0  502  501  0.00000000000E+00  0.00000000000E+00  0.64340789223E+02  0.64340789223E+02  0.00000000000E+00 0.  1.
         21   -1    0    0  501  502 -0.00000000000E+00 -0.00000000000E+00 -0.11558460273E+04  0.11558460273E+04  0.00000000000E+00 0.  1.
         25    1    1    2    0    0 -0.83636850359E+02  0.13094462064E+03 -0.46255687123E+03  0.50371169882E+03  0.12500000000E+03 0.  0.
         25    1    1    2    0    0  0.80870128174E+02 -0.14249792171E+03 -0.29633301856E+03  0.36094860190E+03  0.12500000000E+03 0.  0.
         25    1    1    2    0    0  0.27667221842E+01  0.11553301078E+02 -0.33261534826E+03  0.35552651577E+03  0.12500000000E+03 0.  0.
</event>
<event>
 5    0  0.5728184E-005  0.3785028E+03  0.7546771E-02  0.1051489E+00
         21   -1    0    0  502  501  0.00000000000E+00  0.00000000000E+00  0.87323553185E+02  0.87323553185E+02  0.00000000000E+00 0.  1.
         21   -1    0    0  501  502 -0.00000000000E+00 -0.00000000000E+00 -0.16406155235E+04  0.16406155235E+04  0.00000000000E+00 0.  1.
         25    1    1    2    0    0  0.19046153592E+03 -0.10416717355E+02 -0.31727842845E+03  0.39073610766E+03  0.12500000000E+03 0.  0.
         25    1    1    2    0    0  0.20095815150E+02 -0.26180444084E+02 -0.73705141660E+02  0.14881769164E+03  0.12500000000E+03 0.  0.
         25    1    1    2    0    0 -0.21055735107E+03  0.36597161439E+02 -0.11623084002E+04  0.11883852774E+04  0.12500000000E+03 0.  0.
</event>
<event>
 5    0  0.5728184E-005  0.2920594E+03  0.7546771E-02  0.1089279E+00
         21   -1    0    0  502  501  0.00000000000E+00  0.00000000000E+00  0.33587753656E+03  0.33587753656E+03  0.00000000000E+00 0. -1.
         21   -1    0    0  501  502 -0.00000000000E+00 -0.00000000000E+00 -0.25395779773E+03  0.25395779773E+03  0.00000000000E+00 0. -1.
         25    1    1    2    0    0 -0.69977151218E+01  0.33328486860E+02 -0.57478243710E+02  0.14173392167E+03  0.12500000000E+03 0.  0.
         25    1    1    2    0    0  0.93401737917E+02  0.36146183229E+02  0.21218291253E+03  0.26585149911E+03  0.12500000000E+03 0.  0.
         25    1    1    2    0    0 -0.86404022795E+02 -0.69474670089E+02 -0.72784929989E+02  0.18224991351E+03  0.12500000000E+03 0.  0.
</event>
<event>
 5    0  0.5728184E-005  0.3125393E+03  0.7546771E-02  0.1079135E+00
         21   -1    0    0  502  501  0.00000000000E+00  0.00000000000E+00  0.83490584760E+03  0.83490584760E+03  0.00000000000E+00 0. -1.
         21   -1    0    0  501  502 -0.00000000000E+00 -0.00000000000E+00 -0.11699622754E+03  0.11699622754E+03  0.00000000000E+00 0. -1.
         25    1    1    2    0    0  0.15425569103E+03  0.14786075099E+03  0.16037994714E+03  0.29496499342E+03  0.12500000000E+03 0.  0.
         25    1    1    2    0    0 -0.89696278187E+02 -0.11423598717E+03  0.23333645734E+03  0.30193738657E+03  0.12500000000E+03 0.  0.
         25    1    1    2    0    0 -0.64559412838E+02 -0.33624763821E+02  0.32419321558E+03  0.35499969515E+03  0.12500000000E+03 0.  0.
</event>
<event>
 5    0  0.5821100E-005  0.3005056E+03  0.7546771E-02  0.1084988E+00
         21   -1    0    0  502  501  0.00000000000E+00  0.00000000000E+00  0.19639415087E+03  0.19639415087E+03  0.00000000000E+00 0.  1.
         21   -1    0    0  501  502 -0.00000000000E+00 -0.00000000000E+00 -0.45980806259E+03  0.45980806259E+03  0.00000000000E+00 0.  1.
         25    1    1    2    0    0  0.98086569637E+01 -0.15005005272E+03 -0.13371083210E+03  0.23688565743E+03  0.12500000000E+03 0.  0.
         25    1    1    2    0    0  0.11642272206E+03  0.23651919162E+02 -0.15377389853E+02  0.17313326546E+03  0.12500000000E+03 0.  0.
         25    1    1    2    0    0 -0.12623137902E+03  0.12639813356E+03 -0.11432568976E+03  0.24618329057E+03  0.12500000000E+03 0.  0.
</event>
<event>
 5    0  0.5728184E-005  0.3665999E+03  0.7546771E-02  0.1056001E+00
         21   -1    0    0  502  501  0.00000000000E+00  0.00000000000E+00  0.85154402869E+03  0.85154402869E+03  0.00000000000E+00 0.  1.
         21   -1    0    0  501  502 -0.00000000000E+00 -0.00000000000E+00 -0.15782566872E+03  0.15782566872E+03  0.00000000000E+00 0.  1.
         25    1    1    2    0    0  0.86312967589E+02  0.10274997004E+03  0.11666631677E+03  0.21735573189E+03  0.12500000000E+03 0.  0.
         25    1    1    2    0    0 -0.79401669936E+02 -0.68047051357E+02 -0.34695208689E+02  0.16662467972E+03  0.12500000000E+03 0.  0.
         25    1    1    2    0    0 -0.69112976532E+01 -0.34702918684E+02  0.61174725189E+03  0.62538928580E+03  0.12500000000E+03 0.  0.
</event>
<event>
 5    0  0.5728184E-005  0.3333014E+03  0.7546771E-02  0.1069685E+00
         21   -1    0    0  502  501  0.00000000000E+00  0.00000000000E+00  0.38059068454E+03  0.38059068454E+03  0.00000000000E+00 0.  1.
         21   -1    0    0  501  502 -0.00000000000E+00 -0.00000000000E+00 -0.29188785041E+03  0.29188785041E+03  0.00000000000E+00 0.  1.
         25    1    1    2    0    0  0.14447403161E+03 -0.18753538178E+02  0.11885726754E+03  0.22577974012E+03  0.12500000000E+03 0.  0.
         25    1    1    2    0    0 -0.21020753039E+03  0.12136480669E+02 -0.12649623786E+03  0.27560986591E+03  0.12500000000E+03 0.  0.
         25    1    1    2    0    0  0.65733498784E+02  0.66170575088E+01  0.96341804452E+02  0.17108892892E+03  0.12500000000E+03 0.  0.
</event>
<event>
 5    0  0.5728184E-005  0.3173455E+03  0.7546771E-02  0.1076878E+00
         21   -1    0    0  502  501  0.00000000000E+00  0.00000000000E+00  0.32183606842E+03  0.32183606842E+03  0.00000000000E+00 0. -1.
         21   -1    0    0  501  502 -0.00000000000E+00 -0.00000000000E+00 -0.31291757872E+03  0.31291757872E+03  0.00000000000E+00 0. -1.
         25    1    1    2    0    0 -0.14793994941E+03 -0.97310384591E+02 -0.13461955909E+03  0.25515282728E+03  0.12500000000E+03 0.  0.
         25    1    1    2    0    0  0.11497324704E+03  0.12807130885E+03  0.12130742521E+03  0.24487057622E+03  0.12500000000E+03 0.  0.
         25    1    1    2    0    0  0.32966702363E+02 -0.30760924263E+02  0.22230623580E+02  0.13473024364E+03  0.12500000000E+03 0.  0.
</event>
<event>
 5    0  0.5728184E-005  0.3603783E+03  0.7546771E-02  0.1058434E+00
         21   -1    0    0  502  501  0.00000000000E+00  0.00000000000E+00  0.97712936086E+02  0.97712936086E+02  0.00000000000E+00 0. -1.
         21   -1    0    0  501  502 -0.00000000000E+00 -0.00000000000E+00 -0.13291228021E+04  0.13291228021E+04  0.00000000000E+00 0. -1.
         25    1    1    2    0    0 -0.27926771038E+03 -0.58468640638E+02 -0.54807729381E+03  0.63041474919E+03  0.12500000000E+03 0.  0.
         25    1    1    2    0    0  0.20282481809E+03 -0.53697093972E+01 -0.31568339227E+03  0.39553475798E+03  0.12500000000E+03 0.  0.
         25    1    1    2    0    0  0.76442892289E+02  0.63838350035E+02 -0.36764917991E+03  0.40088623100E+03  0.12500000000E+03 0.  0.
</event>
<event>
 5    0  0.5728184E-005  0.2653840E+03  0.7546771E-02  0.1103951E+00
         21   -1    0    0  502  501  0.00000000000E+00  0.00000000000E+00  0.14796152397E+03  0.14796152397E+03  0.00000000000E+00 0.  1.
         21   -1    0    0  501  502 -0.00000000000E+00 -0.00000000000E+00 -0.47599294153E+03  0.47599294153E+03  0.00000000000E+00 0.  1.
         25    1    1    2    0    0  0.78179179209E+02 -0.23752133296E+02 -0.27835119450E+01  0.14936162772E+03  0.12500000000E+03 0.  0.
         25    1    1    2    0    0 -0.12154969930E+03 -0.34435631166E+02 -0.91825665373E+02  0.20004273272E+03  0.12500000000E+03 0.  0.
         25    1    1    2    0    0  0.43370520089E+02  0.58187764462E+02 -0.23342224025E+03  0.27455010506E+03  0.12500000000E+03 0.  0.
</event>
<event>
 5    0  0.5728184E-005  0.3062022E+03  0.7546771E-02  0.1082181E+00
         21   -1    0    0  502  501  0.00000000000E+00  0.00000000000E+00  0.97414046390E+03  0.97414046390E+03  0.00000000000E+00 0.  1.
         21   -1    0    0  501  502 -0.00000000000E+00 -0.00000000000E+00 -0.96248746374E+02  0.96248746374E+02  0.00000000000E+00 0.  1.
         25    1    1    2    0    0  0.17572345060E+03  0.82566151075E+02  0.38349004461E+03  0.44764440654E+03  0.12500000000E+03 0.  0.
         25    1    1    2    0    0 -0.76506880024E+02 -0.22304179986E+02  0.67237828497E+02  0.16277808426E+03  0.12500000000E+03 0.  0.
         25    1    1    2    0    0 -0.99216570579E+02 -0.60261971089E+02  0.42716384443E+03  0.45996671947E+03  0.12500000000E+03 0.  0.
</event>
<event>
 5    0  0.5728184E-005  0.2808825E+03  0.7546771E-02  0.1095208E+00
         21   -1    0    0  502  501  0.00000000000E+00  0.00000000000E+00  0.27076156192E+03  0.27076156192E+03  0.00000000000E+00 0.  1.
         21   -1    0    0  501  502 -0.00000000000E+00 -0.00000000000E+00 -0.29138168221E+03  0.29138168221E+03  0.00000000000E+00 0.  1.
         25    1    1    2    0    0  0.14966737814E+03  0.38024572918E+02 -0.11574844530E+03  0.22993237009E+03  0.12500000000E+03 0.  0.
         25    1    1    2    0    0 -0.13332593904E+03 -0.52403352912E+02  0.71647227952E+02  0.20317539883E+03  0.12500000000E+03 0.  0.
         25    1    1    2    0    0 -0.16341439101E+02  0.14378779994E+02  0.23481097059E+02  0.12903547522E+03  0.12500000000E+03 0.  0.
</event>
<event>
 5    0  0.5728184E-005  0.5591589E+03  0.7546771E-02  0.9993960E-01
         21   -1    0    0  502  501  0.00000000000E+00  0.00000000000E+00  0.19279446622E+04  0.19279446622E+04  0.00000000000E+00 0. -1.
         21   -1    0    0  501  502 -0.00000000000E+00 -0.00000000000E+00 -0.16217201861E+03  0.16217201861E+03  0.00000000000E+00 0. -1.
         25    1    1    2    0    0 -0.69938064970E+02 -0.30522004139E+03  0.68139166143E+03  0.76024351550E+03  0.12500000000E+03 0.  0.
         25    1    1    2    0    0  0.30762724786E+02 -0.11354026928E+03  0.13014260613E+02  0.17213979483E+03  0.12500000000E+03 0.  0.
         25    1    1    2    0    0  0.39175340184E+02  0.41876031067E+03  0.10713667215E+04  0.11577333705E+04  0.12500000000E+03 0.  0.
</event>
<event>
 5    0  0.5728184E-005  0.3092044E+03  0.7546771E-02  0.1080728E+00
         21   -1    0    0  502  501  0.00000000000E+00  0.00000000000E+00  0.48417739501E+03  0.48417739501E+03  0.00000000000E+00 0. -1.
         21   -1    0    0  501  502 -0.00000000000E+00 -0.00000000000E+00 -0.19746345965E+03  0.19746345965E+03  0.00000000000E+00 0. -1.
         25    1    1    2    0    0 -0.52271444674E+02 -0.10660051748E+03  0.11657017337E+03  0.20810953744E+03  0.12500000000E+03 0.  0.
         25    1    1    2    0    0 -0.13299054450E+03  0.10933084762E+03  0.12075202945E+03  0.24463395468E+03  0.12500000000E+03 0.  0.
         25    1    1    2    0    0  0.18526198918E+03 -0.27303301430E+01  0.49391732540E+02  0.22889736254E+03  0.12500000000E+03 0.  0.
</event>
<event>
 5    0  0.5728184E-005  0.2220360E+03  0.7546771E-02  0.1132374E+00
         21   -1    0    0  502  501  0.00000000000E+00  0.00000000000E+00  0.15025386893E+04  0.15025386893E+04  0.00000000000E+00 0. -1.
         21   -1    0    0  501  502 -0.00000000000E+00 -0.00000000000E+00 -0.32811117566E+02  0.32811117566E+02  0.00000000000E+00 0. -1.
         25    1    1    2    0    0 -0.20545613213E+02  0.50224608890E+02  0.42053432670E+03  0.44206193400E+03  0.12500000000E+03 0.  0.
         25    1    1    2    0    0  0.70896517733E+02 -0.54026610258E+02  0.36558160073E+03  0.39650989601E+03  0.12500000000E+03 0.  0.
         25    1    1    2    0    0 -0.50350904521E+02  0.38020013678E+01  0.68361164435E+03  0.69677797690E+03  0.12500000000E+03 0.  0.
</event>
<event>
 5    0  0.5728184E-005  0.2344150E+03  0.7546771E-02  0.1123570E+00
         21   -1    0    0  502  501  0.00000000000E+00  0.00000000000E+00  0.39282956543E+02  0.39282956543E+02  0.00000000000E+00 0.  1.
         21   -1    0    0  501  502 -0.00000000000E+00 -0.00000000000E+00 -0.13988353502E+04  0.13988353502E+04  0.00000000000E+00 0.  1.
         25    1    1    2    0    0  0.17277285375E+02  0.42705216036E+02 -0.88740422441E+03  0.89734803592E+03  0.12500000000E+03 0.  0.
         25    1    1    2    0    0  0.51627036981E+01  0.10952814882E+02 -0.23536679404E+03  0.26677545876E+03  0.12500000000E+03 0.  0.
         25    1    1    2    0    0 -0.22439989073E+02 -0.53658030918E+02 -0.23678137523E+03  0.27399481208E+03  0.12500000000E+03 0.  0.
</event>
<event>
 5    0  0.5728184E-005  0.2761000E+03  0.7546771E-02  0.1097838E+00
         21   -1    0    0  502  501  0.00000000000E+00  0.00000000000E+00  0.31856630605E+03  0.31856630605E+03  0.00000000000E+00 0. -1.
         21   -1    0    0  501  502 -0.00000000000E+00 -0.00000000000E+00 -0.23929464922E+03  0.23929464922E+03  0.00000000000E+00 0. -1.
         25    1    1    2    0    0 -0.46345652544E+02 -0.41260774412E+02 -0.15116481304E+03  0.20573325379E+03  0.12500000000E+03 0.  0.
         25    1    1    2    0    0 -0.91274951021E+01  0.20743215795E+02  0.95656327458E+02  0.15902429107E+03  0.12500000000E+03 0.  0.
         25    1    1    2    0    0  0.55473147647E+02  0.20517558617E+02  0.13478014241E+03  0.19310341041E+03  0.12500000000E+03 0.  0.
</event>
<event>
 5    0  0.5728184E-005  0.1952590E+03  0.7546771E-02  0.1153802E+00
         21   -1    0    0  502  501  0.00000000000E+00  0.00000000000E+00  0.57195829518E+02  0.57195829518E+02  0.00000000000E+00 0. -1.
         21   -1    0    0  501  502 -0.00000000000E+00 -0.00000000000E+00 -0.66658856804E+03  0.66658856804E+03  0.00000000000E+00 0. -1.
         25    1    1    2    0    0 -0.20259602620E+02  0.11223229924E+02 -0.15596933124E+03  0.20121591556E+03  0.12500000000E+03 0.  0.
         25    1    1    2    0    0  0.42457319085E+02 -0.12515842735E+02 -0.22110940750E+03  0.25782482493E+03  0.12500000000E+03 0.  0.
         25    1    1    2    0    0 -0.22197716466E+02  0.12926128111E+01 -0.23231399978E+03  0.26474365707E+03  0.12500000000E+03 0.  0.
</event>
<event>
 5    0  0.5728184E-005  0.3036672E+03  0.7546771E-02  0.1083422E+00
         21   -1    0    0  502  501  0.00000000000E+00  0.00000000000E+00  0.95770215900E+02  0.95770215900E+02  0.00000000000E+00 0.  1.
         21   -1    0    0  501  502 -0.00000000000E+00 -0.00000000000E+00 -0.96286452828E+03  0.96286452828E+03  0.00000000000E+00 0.  1.
         25    1    1    2    0    0 -0.41153411607E+02  0.12032525898E+03 -0.60492405897E+02  0.18829790866E+03  0.12500000000E+03 0.  0.
         25    1    1    2    0    0  0.55847624668E+02  0.78931852441E+00 -0.48977552751E+03  0.50855151907E+03  0.12500000000E+03 0.  0.
         25    1    1    2    0    0 -0.14694213061E+02 -0.12111457750E+03 -0.31682637898E+03  0.36178531645E+03  0.12500000000E+03 0.  0.
</event>
<event>
 5    0  0.5728184E-005  0.2439543E+03  0.7546771E-02  0.1117186E+00
         21   -1    0    0  502  501  0.00000000000E+00  0.00000000000E+00  0.89448641376E+03  0.89448641376E+03  0.00000000000E+00 0.  1.
         21   -1    0    0  501  502 -0.00000000000E+00 -0.00000000000E+00 -0.66533912665E+02  0.66533912665E+02  0.00000000000E+00 0.  1.
         25    1    1    2    0    0  0.55923476756E+02 -0.71564350166E+02  0.28373500140E+03  0.32307807491E+03  0.12500000000E+03 0.  0.
         25    1    1    2    0    0  0.49066734539E+02  0.54287931671E+01  0.35425294293E+03  0.37888938202E+03  0.12500000000E+03 0.  0.
         25    1    1    2    0    0 -0.10499021130E+03  0.66135556999E+02  0.18996455677E+03  0.25905286950E+03  0.12500000000E+03 0.  0.
</event>
<event>
 5    0  0.5728184E-005  0.2754277E+03  0.7546771E-02  0.1098213E+00
         21   -1    0    0  502  501  0.00000000000E+00  0.00000000000E+00  0.22556603651E+03  0.22556603651E+03  0.00000000000E+00 0.  1.
         21   -1    0    0  501  502 -0.00000000000E+00 -0.00000000000E+00 -0.33631139201E+03  0.33631139201E+03  0.00000000000E+00 0.  1.
         25    1    1    2    0    0 -0.34419043046E+02 -0.10773644796E+03 -0.13934039130E+03  0.21870655544E+03  0.12500000000E+03 0.  0.
         25    1    1    2    0    0  0.54803784320E+02 -0.45965201127E+01  0.89476981301E+02  0.16326577399E+03  0.12500000000E+03 0.  0.
         25    1    1    2    0    0 -0.20384741274E+02  0.11233296807E+03 -0.60881945508E+02  0.17990509910E+03  0.12500000000E+03 0.  0.
</event>
<event>
 5    0  0.5728184E-005  0.2415806E+03  0.7546771E-02  0.1118744E+00
         21   -1    0    0  502  501  0.00000000000E+00  0.00000000000E+00  0.10857825104E+03  0.10857825104E+03  0.00000000000E+00 0. -1.
         21   -1    0    0  501  502 -0.00000000000E+00 -0.00000000000E+00 -0.53750331682E+03  0.53750331682E+03  0.00000000000E+00 0. -1.
         25    1    1    2    0    0  0.21110048848E+01  0.52346471515E+02 -0.71534683277E+02  0.15325410381E+03  0.12500000000E+03 0.  0.
         25    1    1    2    0    0  0.10665693423E+03 -0.14229550711E+02 -0.13658729899E+03  0.21414778070E+03  0.12500000000E+03 0.  0.
         25    1    1    2    0    0 -0.10876793911E+03 -0.38116920804E+02 -0.22080308351E+03  0.27867968336E+03  0.12500000000E+03 0.  0.
</event>
<event>
 5    0  0.5728184E-005  0.3913898E+03  0.7546771E-02  0.1046803E+00
         21   -1    0    0  502  501  0.00000000000E+00  0.00000000000E+00  0.66482160078E+02  0.66482160078E+02  0.00000000000E+00 0.  1.
         21   -1    0    0  501  502 -0.00000000000E+00 -0.00000000000E+00 -0.23041667036E+04  0.23041667036E+04  0.00000000000E+00 0.  1.
         25    1    1    2    0    0  0.21340066748E+03  0.41130766435E+02 -0.16896932174E+04  0.17081919546E+04  0.12500000000E+03 0.  0.
         25    1    1    2    0    0 -0.34264393198E+01 -0.59736808433E+01 -0.19360082709E+03  0.23055087421E+03  0.12500000000E+03 0.  0.
         25    1    1    2    0    0 -0.20997422816E+03 -0.35157085592E+02 -0.35439049907E+03  0.43190603491E+03  0.12500000000E+03 0.  0.
</event>
<event>
 5    0  0.5728184E-005  0.2418665E+03  0.7546771E-02  0.1118556E+00
         21   -1    0    0  502  501  0.00000000000E+00  0.00000000000E+00  0.35700245302E+03  0.35700245302E+03  0.00000000000E+00 0. -1.
         21   -1    0    0  501  502 -0.00000000000E+00 -0.00000000000E+00 -0.16386275922E+03  0.16386275922E+03  0.00000000000E+00 0. -1.
         25    1    1    2    0    0  0.32933618185E+01  0.15254990373E+02  0.11327880178E+02  0.12647878017E+03  0.12500000000E+03 0.  0.
         25    1    1    2    0    0 -0.81127063345E+02  0.22888761622E+02 -0.81992538193E+01  0.15098915053E+03  0.12500000000E+03 0.  0.
         25    1    1    2    0    0  0.77833701527E+02 -0.38143751995E+02  0.19001106744E+03  0.24339728154E+03  0.12500000000E+03 0.  0.
</event>
<event>
 5    0  0.5728184E-005  0.2787662E+03  0.7546771E-02  0.1096365E+00
         21   -1    0    0  502  501  0.00000000000E+00  0.00000000000E+00  0.11647122584E+03  0.11647122584E+03  0.00000000000E+00 0.  1.
         21   -1    0    0  501  502 -0.00000000000E+00 -0.00000000000E+00 -0.66720856535E+03  0.66720856535E+03  0.00000000000E+00 0.  1.
         25    1    1    2    0    0 -0.34130479399E+02 -0.11761829571E+03 -0.16228821679E+03  0.23866591382E+03  0.12500000000E+03 0.  0.
         25    1    1    2    0    0  0.39845259190E+00 -0.71162832429E+02 -0.21106642320E+03  0.25541797605E+03  0.12500000000E+03 0.  0.
         25    1    1    2    0    0  0.33732026807E+02  0.18878112814E+03 -0.17738269952E+03  0.28959590132E+03  0.12500000000E+03 0.  0.
</event>
<event>
 5    0  0.5728184E-005  0.4184796E+03  0.7546771E-02  0.1037562E+00
         21   -1    0    0  502  501  0.00000000000E+00  0.00000000000E+00  0.83016990221E+03  0.83016990221E+03  0.00000000000E+00 0.  1.
         21   -1    0    0  501  502 -0.00000000000E+00 -0.00000000000E+00 -0.21095103125E+03  0.21095103125E+03  0.00000000000E+00 0.  1.
         25    1    1    2    0    0  0.67297360918E+02 -0.19698964450E+03  0.53240385333E+03  0.58516042063E+03  0.12500000000E+03 0.  0.
         25    1    1    2    0    0  0.52138675504E+02  0.21245878865E+03 -0.19000450371E+02  0.25267211060E+03  0.12500000000E+03 0.  0.
         25    1    1    2    0    0 -0.11943603642E+03 -0.15469144156E+02  0.10581546800E+03  0.20328840224E+03  0.12500000000E+03 0.  0.
</event>
<event>
 5    0  0.5728184E-005  0.4036296E+03  0.7546771E-02  0.1042530E+00
         21   -1    0    0  502  501  0.00000000000E+00  0.00000000000E+00  0.87932928897E+03  0.87932928897E+03  0.00000000000E+00 0. -1.
         21   -1    0    0  501  502 -0.00000000000E+00 -0.00000000000E+00 -0.18527401872E+03  0.18527401872E+03  0.00000000000E+00 0. -1.
         25    1    1    2    0    0  0.11726993529E+02 -0.12978037849E+03  0.12754539981E+03  0.22107306039E+03  0.12500000000E+03 0.  0.
         25    1    1    2    0    0  0.26619880244E+03  0.12628689656E+03  0.30004028335E+03  0.43870189685E+03  0.12500000000E+03 0.  0.
         25    1    1    2    0    0 -0.27792579597E+03  0.34934819248E+01  0.26646958709E+03  0.40482835045E+03  0.12500000000E+03 0.  0.
</event>
<event>
 5    0  0.6489935E-005  0.2955262E+03  0.7546771E-02  0.1087499E+00
         21   -1    0    0  502  501  0.00000000000E+00  0.00000000000E+00  0.77803867753E+03  0.77803867753E+03  0.00000000000E+00 0.  1.
         21   -1    0    0  501  502 -0.00000000000E+00 -0.00000000000E+00 -0.11225112548E+03  0.11225112548E+03  0.00000000000E+00 0.  1.
         25    1    1    2    0    0  0.98704122289E+02  0.56752528768E+02  0.24633386899E+03  0.29877872798E+03  0.12500000000E+03 0.  0.
         25    1    1    2    0    0 -0.19238962638E+03  0.51192214637E+01  0.32772035930E+03  0.40008200243E+03  0.12500000000E+03 0.  0.
         25    1    1    2    0    0  0.93685504089E+02 -0.61871750231E+02  0.91733323760E+02  0.19142907261E+03  0.12500000000E+03 0.  0.
</event>
<event>
 5    0  0.5728184E-005  0.1019618E+04  0.7546771E-02  0.9287286E-01
         21   -1    0    0  502  501  0.00000000000E+00  0.00000000000E+00  0.22006951451E+04  0.22006951451E+04  0.00000000000E+00 0. -1.
         21   -1    0    0  501  502 -0.00000000000E+00 -0.00000000000E+00 -0.47240529922E+03  0.47240529922E+03  0.00000000000E+00 0. -1.
         25    1    1    2    0    0 -0.13963687948E+03  0.23146152849E+03  0.13444740385E+04  0.13770651174E+04  0.12500000000E+03 0.  0.
         25    1    1    2    0    0 -0.39820091671E+03 -0.19525127586E+03  0.55071779642E+03  0.71805440051E+03  0.12500000000E+03 0.  0.
         25    1    1    2    0    0  0.53783779619E+03 -0.36210252630E+02 -0.16690198902E+03  0.57798092646E+03  0.12500000000E+03 0.  0.
</event>
<event>
 5    0  0.5728184E-005  0.3295610E+03  0.7546771E-02  0.1071331E+00
         21   -1    0    0  502  501  0.00000000000E+00  0.00000000000E+00  0.32272959339E+03  0.32272959339E+03  0.00000000000E+00 0.  1.
         21   -1    0    0  501  502 -0.00000000000E+00 -0.00000000000E+00 -0.33653697409E+03  0.33653697409E+03  0.00000000000E+00 0.  1.
         25    1    1    2    0    0 -0.38452346353E+01 -0.13632161098E+03 -0.18346550493E+03  0.26054358358E+03  0.12500000000E+03 0.  0.
         25    1    1    2    0    0  0.21997320234E+02  0.17902224959E+03  0.14527555521E+03  0.26317833287E+03  0.12500000000E+03 0.  0.
         25    1    1    2    0    0 -0.18152085598E+02 -0.42700638618E+02  0.24382569011E+02  0.13554465103E+03  0.12500000000E+03 0.  0.
</event>
<event>
 5    0  0.5728184E-005  0.2211077E+03  0.7546771E-02  0.1133060E+00
         21   -1    0    0  502  501  0.00000000000E+00  0.00000000000E+00  0.18913608677E+03  0.18913608677E+03  0.00000000000E+00 0. -1.
         21   -1    0    0  501  502 -0.00000000000E+00 -0.00000000000E+00 -0.25848383541E+03  0.25848383541E+03  0.00000000000E+00 0. -1.
         25    1    1    2    0    0  0.39558708985E+02 -0.55780957595E+02 -0.65101499026E+02  0.15665124277E+03  0.12500000000E+03 0.  0.
         25    1    1    2    0    0  0.51920871995E+01  0.71355538734E+02  0.41153212902E+02  0.14979037890E+03  0.12500000000E+03 0.  0.
         25    1    1    2    0    0 -0.44750796185E+02 -0.15574581139E+02 -0.45399462518E+02  0.14117830051E+03  0.12500000000E+03 0.  0.
</event>
<event>
 5    0  0.5728184E-005  0.2827812E+03  0.7546771E-02  0.1094180E+00
         21   -1    0    0  502  501  0.00000000000E+00  0.00000000000E+00  0.89546616161E+02  0.89546616161E+02  0.00000000000E+00 0. -1.
         21   -1    0    0  501  502 -0.00000000000E+00 -0.00000000000E+00 -0.89300065139E+03  0.89300065139E+03  0.00000000000E+00 0. -1.
         25    1    1    2    0    0  0.17175008101E+03  0.65388601037E+02 -0.45273304332E+03  0.50434707096E+03  0.12500000000E+03 0.  0.
         25    1    1    2    0    0 -0.12643067525E+03 -0.44440296705E+02 -0.25053043650E+03  0.31040321394E+03  0.12500000000E+03 0.  0.
         25    1    1    2    0    0 -0.45319405761E+02 -0.20948304333E+02 -0.10019055542E+03  0.16779698265E+03  0.12500000000E+03 0.  0.
</event>
<event>
 5    0  0.5728184E-005  0.2984642E+03  0.7546771E-02  0.1086011E+00
         21   -1    0    0  502  501  0.00000000000E+00  0.00000000000E+00  0.16739933174E+04  0.16739933174E+04  0.00000000000E+00 0.  1.
         21   -1    0    0  501  502 -0.00000000000E+00 -0.00000000000E+00 -0.53214613171E+02  0.53214613171E+02  0.00000000000E+00 0.  1.
         25    1    1    2    0    0 -0.17382977546E+03 -0.11582996640E+03  0.47012465552E+03  0.52941058138E+03  0.12500000000E+03 0.  0.
         25    1    1    2    0    0  0.12687047710E+03  0.60035885114E+02  0.66212801937E+03  0.68828696014E+03  0.12500000000E+03 0.  0.
         25    1    1    2    0    0  0.46959298351E+02  0.55794081288E+02  0.48852602933E+03  0.50951038905E+03  0.12500000000E+03 0.  0.
</event>
<event>
 5    0  0.5728184E-005  0.6290306E+03  0.7546771E-02  0.9846942E-01
         21   -1    0    0  502  501  0.00000000000E+00  0.00000000000E+00  0.94310729192E+03  0.94310729192E+03  0.00000000000E+00 0. -1.
         21   -1    0    0  501  502 -0.00000000000E+00 -0.00000000000E+00 -0.41954872351E+03  0.41954872351E+03  0.00000000000E+00 0. -1.
         25    1    1    2    0    0  0.25837478648E+03 -0.27491224079E+03 -0.17347673401E+03  0.43365129732E+03  0.12500000000E+03 0.  0.
         25    1    1    2    0    0 -0.10401923583E+03 -0.93615811460E+01  0.14637577323E+02  0.16354479293E+03  0.12500000000E+03 0.  0.
         25    1    1    2    0    0 -0.15435555065E+03  0.28427382193E+03  0.68239772510E+03  0.76545992519E+03  0.12500000000E+03 0.  0.
</event>
<event>
 5    0  0.5728184E-005  0.4740001E+03  0.7546771E-02  0.1020797E+00
         21   -1    0    0  502  501  0.00000000000E+00  0.00000000000E+00  0.18476634710E+04  0.18476634710E+04  0.00000000000E+00 0. -1.
         21   -1    0    0  501  502 -0.00000000000E+00 -0.00000000000E+00 -0.12160014091E+03  0.12160014091E+03  0.00000000000E+00 0. -1.
         25    1    1    2    0    0 -0.45395466320E+02  0.20355768595E+03  0.34298129199E+03  0.42042555408E+03  0.12500000000E+03 0.  0.
         25    1    1    2    0    0 -0.31990573040E+02 -0.32434869093E+03  0.12911777809E+04  0.13375315069E+04  0.12500000000E+03 0.  0.
         25    1    1    2    0    0  0.77386039360E+02  0.12079100498E+03  0.91904257202E+02  0.21130655092E+03  0.12500000000E+03 0.  0.
</event>
<event>
 5    0  0.5728184E-005  0.2593272E+03  0.7546771E-02  0.1107548E+00
         21   -1    0    0  502  501  0.00000000000E+00  0.00000000000E+00  0.35343958846E+02  0.35343958846E+02  0.00000000000E+00 0. -1.
         21   -1    0    0  501  502 -0.00000000000E+00 -0.00000000000E+00 -0.19027471006E+04  0.19027471006E+04  0.00000000000E+00 0. -1.
         25    1    1    2    0    0  0.41631111879E+01 -0.63320696242E+02 -0.24301733137E+03  0.28055171611E+03  0.12500000000E+03 0.  0.
         25    1    1    2    0    0 -0.38912094907E+02  0.12817995481E+03 -0.82495496922E+03  0.84505618345E+03  0.12500000000E+03 0.  0.
         25    1    1    2    0    0  0.34748983719E+02 -0.64859258564E+02 -0.79943084112E+03  0.81248315985E+03  0.12500000000E+03 0.  0.
</event>
<event>
 5    0  0.5808212E-005  0.2792852E+03  0.7546771E-02  0.1096080E+00
         21   -1    0    0  502  501  0.00000000000E+00  0.00000000000E+00  0.37192847747E+03  0.37192847747E+03  0.00000000000E+00 0. -1.
         21   -1    0    0  501  502 -0.00000000000E+00 -0.00000000000E+00 -0.20971834937E+03  0.20971834937E+03  0.00000000000E+00 0. -1.
         25    1    1    2    0    0 -0.64349812438E+02 -0.19201676770E+02 -0.11386270710E+03  0.18193218192E+03  0.12500000000E+03 0.  0.
         25    1    1    2    0    0 -0.62167903850E+01 -0.43212773505E+02  0.12055635489E+03  0.17906654345E+03  0.12500000000E+03 0.  0.
         25    1    1    2    0    0  0.70566602823E+02  0.62414450275E+02  0.15551648030E+03  0.22064810147E+03  0.12500000000E+03 0.  0.
</event>
<event>
 5    0  0.5728184E-005  0.3641515E+03  0.7546771E-02  0.1056952E+00
         21   -1    0    0  502  501  0.00000000000E+00  0.00000000000E+00  0.63822024397E+03  0.63822024397E+03  0.00000000000E+00 0. -1.
         21   -1    0    0  501  502 -0.00000000000E+00 -0.00000000000E+00 -0.20777518326E+03  0.20777518326E+03  0.00000000000E+00 0. -1.
         25    1    1    2    0    0 -0.24643623942E+03  0.96164967193E+02  0.13955037030E+03  0.32415710214E+03  0.12500000000E+03 0.  0.
         25    1    1    2    0    0  0.20818400307E+03 -0.11918878824E+03  0.27895074949E+03  0.38856796962E+03  0.12500000000E+03 0.  0.
         25    1    1    2    0    0  0.38252236357E+02  0.23023821046E+02  0.11943940915E+02  0.13327035547E+03  0.12500000000E+03 0.  0.
</event>
<event>
 5    0  0.5728184E-005  0.2852692E+03  0.7546771E-02  0.1092845E+00
         21   -1    0    0  502  501  0.00000000000E+00  0.00000000000E+00  0.33547989530E+03  0.33547989530E+03  0.00000000000E+00 0.  1.
         21   -1    0    0  501  502 -0.00000000000E+00 -0.00000000000E+00 -0.24257342936E+03  0.24257342936E+03  0.00000000000E+00 0.  1.
         25    1    1    2    0    0 -0.52805532169E+02 -0.12724086868E+02 -0.11893515348E+03  0.18088918527E+03  0.12500000000E+03 0.  0.
         25    1    1    2    0    0  0.10849340466E+03  0.51029375715E+02  0.46882581323E+02  0.17943743331E+03  0.12500000000E+03 0.  0.
         25    1    1    2    0    0 -0.55687872487E+02 -0.38305288847E+02  0.16495903809E+03  0.21772670609E+03  0.12500000000E+03 0.  0.
</event>
<event>
 5    0  0.5728184E-005  0.3270316E+03  0.7546771E-02  0.1072458E+00
         21   -1    0    0  502  501  0.00000000000E+00  0.00000000000E+00  0.72352659215E+02  0.72352659215E+02  0.00000000000E+00 0. -1.
         21   -1    0    0  501  502 -0.00000000000E+00 -0.00000000000E+00 -0.14781723127E+04  0.14781723127E+04  0.00000000000E+00 0. -1.
         25    1    1    2    0    0 -0.14451504568E+03 -0.75571706113E+02 -0.51288428134E+03  0.55251331861E+03  0.12500000000E+03 0.  0.
         25    1    1    2    0    0  0.19359110102E+03  0.91651282770E+02 -0.29701930242E+03  0.38694048384E+03  0.12500000000E+03 0.  0.
         25    1    1    2    0    0 -0.49076055337E+02 -0.16079576657E+02 -0.59591606973E+03  0.61107116947E+03  0.12500000000E+03 0.  0.
</event>
<event>
 5    0  0.5728184E-005  0.2620629E+03  0.7546771E-02  0.1105910E+00
         21   -1    0    0  502  501  0.00000000000E+00  0.00000000000E+00  0.23538213203E+02  0.23538213203E+02  0.00000000000E+00 0.  1.
         21   -1    0    0  501  502 -0.00000000000E+00 -0.00000000000E+00 -0.29176801969E+04  0.29176801969E+04  0.00000000000E+00 0.  1.
         25    1    1    2    0    0 -0.18572406441E+02 -0.76292276992E+02 -0.32364352328E+03  0.35571839419E+03  0.12500000000E+03 0.  0.
         25    1    1    2    0    0 -0.24655392445E+02  0.30500793290E+02 -0.15358235881E+04  0.15414010772E+04  0.12500000000E+03 0.  0.
         25    1    1    2    0    0  0.43227798886E+02  0.45791483702E+02 -0.10346748722E+04  0.10440989387E+04  0.12500000000E+03 0.  0.
</event>
<event>
 5    0  0.5987836E-005  0.5793059E+03  0.7546771E-02  0.9949295E-01
         21   -1    0    0  502  501  0.00000000000E+00  0.00000000000E+00  0.84777861397E+03  0.84777861397E+03  0.00000000000E+00 0. -1.
         21   -1    0    0  501  502 -0.00000000000E+00 -0.00000000000E+00 -0.39585253113E+03  0.39585253113E+03  0.00000000000E+00 0. -1.
         25    1    1    2    0    0 -0.50294986892E+02 -0.25813850518E+03 -0.17694533254E+03  0.34073409614E+03  0.12500000000E+03 0.  0.
         25    1    1    2    0    0  0.17791918540E+02  0.32940737570E+03  0.11929815792E+03  0.37240142591E+03  0.12500000000E+03 0.  0.
         25    1    1    2    0    0  0.32503068352E+02 -0.71268870523E+02  0.50957325746E+03  0.53049562305E+03  0.12500000000E+03 0.  0.
</event>
<event>
 5    0  0.5728184E-005  0.3626470E+03  0.7546771E-02  0.1057541E+00
         21   -1    0    0  502  501  0.00000000000E+00  0.00000000000E+00  0.18380776314E+04  0.18380776314E+04  0.00000000000E+00 0. -1.
         21   -1    0    0  501  502 -0.00000000000E+00 -0.00000000000E+00 -0.71549107873E+02  0.71549107873E+02  0.00000000000E+00 0. -1.
         25    1    1    2    0    0 -0.27651420882E+03  0.50722159087E+02  0.72818890108E+03  0.79051686937E+03  0.12500000000E+03 0.  0.
         25    1    1    2    0    0  0.85896381786E+02 -0.25046720643E+02  0.65134087000E+03  0.66923497783E+03  0.12500000000E+03 0.  0.
         25    1    1    2    0    0  0.19061782703E+03 -0.25675438444E+02  0.38699875244E+03  0.44987489207E+03  0.12500000000E+03 0.  0.
</event>
<event>
 5    0  0.5728184E-005  0.2561044E+03  0.7546771E-02  0.1109507E+00
         21   -1    0    0  502  501  0.00000000000E+00  0.00000000000E+00  0.13673099072E+04  0.13673099072E+04  0.00000000000E+00 0.  1.
         21   -1    0    0  501  502 -0.00000000000E+00 -0.00000000000E+00 -0.47969709541E+02  0.47969709541E+02  0.00000000000E+00 0.  1.
         25    1    1    2    0    0 -0.68321948912E+02 -0.54598806761E+02  0.43454307691E+03  0.46054489911E+03  0.12500000000E+03 0.  0.
         25    1    1    2    0    0  0.30156693740E+02 -0.17700293005E+02  0.12432723758E+03  0.17973588555E+03  0.12500000000E+03 0.  0.
         25    1    1    2    0    0  0.38165255171E+02  0.72299099766E+02  0.76046988320E+03  0.77499883211E+03  0.12500000000E+03 0.  0.
</event>
<event>
 5    0  0.5728184E-005  0.4854062E+03  0.7546771E-02  0.1017660E+00
         21   -1    0    0  502  501  0.00000000000E+00  0.00000000000E+00  0.30433040497E+03  0.30433040497E+03  0.00000000000E+00 0. -1.
         21   -1    0    0  501  502 -0.00000000000E+00 -0.00000000000E+00 -0.77422160703E+03  0.77422160703E+03  0.00000000000E+00 0. -1.
         25    1    1    2    0    0  0.36222264656E+03 -0.11911406833E+03 -0.52163916727E+02  0.40464735408E+03  0.12500000000E+03 0.  0.
         25    1    1    2    0    0 -0.13529591354E+03  0.12683230692E+03 -0.58923449849E+02  0.23127557424E+03  0.12500000000E+03 0.  0.
         25    1    1    2    0    0 -0.22692673301E+03 -0.77182385839E+01 -0.35880383548E+03  0.44262908368E+03  0.12500000000E+03 0.  0.
</event>
<event>
 5    0  0.5728184E-005  0.3134101E+03  0.7546771E-02  0.1078723E+00
         21   -1    0    0  502  501  0.00000000000E+00  0.00000000000E+00  0.12449009717E+04  0.12449009717E+04  0.00000000000E+00 0.  1.
         21   -1    0    0  501  502 -0.00000000000E+00 -0.00000000000E+00 -0.78902593276E+02  0.78902593276E+02  0.00000000000E+00 0.  1.
         25    1    1    2    0    0 -0.26180404532E+02 -0.89861318248E+01  0.34567836154E+03  0.36862541120E+03  0.12500000000E+03 0.  0.
         25    1    1    2    0    0  0.57745325552E+02 -0.16549178072E+03  0.63282160102E+03  0.66843865150E+03  0.12500000000E+03 0.  0.
         25    1    1    2    0    0 -0.31564921021E+02  0.17447791254E+03  0.18749841583E+03  0.28673950224E+03  0.12500000000E+03 0.  0.
</event>
<event>
 5    0  0.5728184E-005  0.2526873E+03  0.7546771E-02  0.1111618E+00
         21   -1    0    0  502  501  0.00000000000E+00  0.00000000000E+00  0.68216248232E+03  0.68216248232E+03  0.00000000000E+00 0. -1.
         21   -1    0    0  501  502 -0.00000000000E+00 -0.00000000000E+00 -0.93600696895E+02  0.93600696895E+02  0.00000000000E+00 0. -1.
         25    1    1    2    0    0  0.38434548325E+02  0.10263184091E+03  0.28453022867E+03  0.32953445996E+03  0.12500000000E+03 0.  0.
         25    1    1    2    0    0 -0.33963518113E+00 -0.12321134499E+03  0.24496669427E+03  0.30135499364E+03  0.12500000000E+03 0.  0.
         25    1    1    2    0    0 -0.38094913144E+02  0.20579504080E+02  0.59064862485E+02  0.14487372562E+03  0.12500000000E+03 0.  0.
</event>
<event>
 5    0  0.5728184E-005  0.3338746E+03  0.7546771E-02  0.1069435E+00
         21   -1    0    0  502  501  0.00000000000E+00  0.00000000000E+00  0.41131013407E+03  0.41131013407E+03  0.00000000000E+00 0.  1.
         21   -1    0    0  501  502 -0.00000000000E+00 -0.00000000000E+00 -0.27101751893E+03  0.27101751893E+03  0.00000000000E+00 0.  1.
         25    1    1    2    0    0 -0.13340122196E+03  0.21546157623E+03  0.36172645384E+02  0.28487372137E+03  0.12500000000E+03 0.  0.
         25    1    1    2    0    0  0.71073259612E+00 -0.66684103661E+02  0.39858628413E+01  0.14173271297E+03  0.12500000000E+03 0.  0.
         25    1    1    2    0    0  0.13269048936E+03 -0.14877747257E+03  0.10013410691E+03  0.25572121867E+03  0.12500000000E+03 0.  0.
</event>
<event>
 5    0  0.5728184E-005  0.2499073E+03  0.7546771E-02  0.1113363E+00
         21   -1    0    0  502  501  0.00000000000E+00  0.00000000000E+00  0.56539145470E+02  0.56539145470E+02  0.00000000000E+00 0. -1.
         21   -1    0    0  501  502 -0.00000000000E+00 -0.00000000000E+00 -0.11046089401E+04  0.11046089401E+04  0.00000000000E+00 0. -1.
         25    1    1    2    0    0 -0.31386830700E+02  0.24896204895E+02 -0.16742204220E+03  0.21274419939E+03  0.12500000000E+03 0.  0.
         25    1    1    2    0    0  0.64704034704E+02 -0.12517061206E+03 -0.47068809730E+03  0.50697788825E+03  0.12500000000E+03 0.  0.
         25    1    1    2    0    0 -0.33317204004E+02  0.10027440717E+03 -0.40995965511E+03  0.44142599791E+03  0.12500000000E+03 0.  0.
</event>
<event>
 5    0  0.5728184E-005  0.3353100E+03  0.7546771E-02  0.1068811E+00
         21   -1    0    0  502  501  0.00000000000E+00  0.00000000000E+00  0.16806985219E+03  0.16806985219E+03  0.00000000000E+00 0. -1.
         21   -1    0    0  501  502 -0.00000000000E+00 -0.00000000000E+00 -0.66896470533E+03  0.66896470533E+03  0.00000000000E+00 0. -1.
         25    1    1    2    0    0  0.17081498357E+03  0.17288919297E+03 -0.24852197769E+03  0.36940033169E+03  0.12500000000E+03 0.  0.
         25    1    1    2    0    0 -0.15928076449E+03 -0.39133756516E+02 -0.10009435189E+03  0.22922847143E+03  0.12500000000E+03 0.  0.
         25    1    1    2    0    0 -0.11534219075E+02 -0.13375543645E+03 -0.15227852356E+03  0.23840575439E+03  0.12500000000E+03 0.  0.
</event>
<event>
 5    0  0.5728184E-005  0.8671534E+03  0.7546771E-02  0.9467599E-01
         21   -1    0    0  502  501  0.00000000000E+00  0.00000000000E+00  0.81661983757E+03  0.81661983757E+03  0.00000000000E+00 0. -1.
         21   -1    0    0  501  502 -0.00000000000E+00 -0.00000000000E+00 -0.92081400612E+03  0.92081400612E+03  0.00000000000E+00 0. -1.
         25    1    1    2    0    0  0.11427917470E+03  0.14099354768E+03 -0.12613327857E+03  0.25391635280E+03  0.12500000000E+03 0.  0.
         25    1    1    2    0    0 -0.56002948254E+02 -0.44368561115E+03  0.63462348909E+03  0.78636201883E+03  0.12500000000E+03 0.  0.
         25    1    1    2    0    0 -0.58276226448E+02  0.30269206347E+03 -0.61268437907E+03  0.69715547206E+03  0.12500000000E+03 0.  0.
</event>
<event>
 5    0  0.5728184E-005  0.4109902E+03  0.7546771E-02  0.1040039E+00
         21   -1    0    0  502  501  0.00000000000E+00  0.00000000000E+00  0.84711993405E+02  0.84711993405E+02  0.00000000000E+00 0.  1.
         21   -1    0    0  501  502 -0.00000000000E+00 -0.00000000000E+00 -0.19939670565E+04  0.19939670565E+04  0.00000000000E+00 0.  1.
         25    1    1    2    0    0  0.31922527883E+03  0.31447331478E+02 -0.79392590718E+03  0.86535371924E+03  0.12500000000E+03 0.  0.
         25    1    1    2    0    0 -0.27384547554E+03 -0.10103452847E+03 -0.63287551221E+03  0.70806478119E+03  0.12500000000E+03 0.  0.
         25    1    1    2    0    0 -0.45379803298E+02  0.69587196988E+02 -0.48245364373E+03  0.50526054950E+03  0.12500000000E+03 0.  0.
</event>
<event>
 5    0  0.5728184E-005  0.8337219E+03  0.7546771E-02  0.9512449E-01
         21   -1    0    0  502  501  0.00000000000E+00  0.00000000000E+00  0.36513552405E+03  0.36513552405E+03  0.00000000000E+00 0. -1.
         21   -1    0    0  501  502 -0.00000000000E+00 -0.00000000000E+00 -0.19036554620E+04  0.19036554620E+04  0.00000000000E+00 0. -1.
         25    1    1    2    0    0 -0.23339411191E+03  0.47390039050E+03 -0.35506744167E+03  0.64865420659E+03  0.12500000000E+03 0.  0.
         25    1    1    2    0    0  0.28063883405E+03 -0.69889754598E+03 -0.56861703306E+03  0.95192765756E+03  0.12500000000E+03 0.  0.
         25    1    1    2    0    0 -0.47244722147E+02  0.22499715548E+03 -0.61483546322E+03  0.66820912189E+03  0.12500000000E+03 0.  0.
</event>
<event>
 5    0  0.5728184E-005  0.2666330E+03  0.7546771E-02  0.1103222E+00
         21   -1    0    0  502  501  0.00000000000E+00  0.00000000000E+00  0.12149703288E+03  0.12149703288E+03  0.00000000000E+00 0.  1.
         21   -1    0    0  501  502 -0.00000000000E+00 -0.00000000000E+00 -0.58514336854E+03  0.58514336854E+03  0.00000000000E+00 0.  1.
         25    1    1    2    0    0  0.90349924889E+02  0.36677264280E+02 -0.12274601567E+03  0.20049916460E+03  0.12500000000E+03 0.  0.
         25    1    1    2    0    0 -0.64111034427E+02  0.68008960867E+02 -0.29659763195E+03  0.33515757305E+03  0.12500000000E+03 0.  0.
         25    1    1    2    0    0 -0.26238890462E+02 -0.10468622515E+03 -0.44302688036E+02  0.17098366377E+03  0.12500000000E+03 0.  0.
</event>
<event>
 5    0  0.5728184E-005  0.6300744E+03  0.7546771E-02  0.9844904E-01
         21   -1    0    0  502  501  0.00000000000E+00  0.00000000000E+00  0.15863173203E+04  0.15863173203E+04  0.00000000000E+00 0.  1.
         21   -1    0    0  501  502 -0.00000000000E+00 -0.00000000000E+00 -0.25026122246E+03  0.25026122246E+03  0.00000000000E+00 0.  1.
         25    1    1    2    0    0  0.27696109183E+03  0.20121975468E+03  0.43440877917E+03  0.56703864373E+03  0.12500000000E+03 0.  0.
         25    1    1    2    0    0 -0.87180390798E+02  0.12181073637E+03  0.84895495020E+03  0.87108425741E+03  0.12500000000E+03 0.  0.
         25    1    1    2    0    0 -0.18978070103E+03 -0.32303049104E+03  0.52692368448E+02  0.39845564160E+03  0.12500000000E+03 0.  0.
</event>
<event>
 5    0  0.5728184E-005  0.3046414E+03  0.7546771E-02  0.1082943E+00
         21   -1    0    0  502  501  0.00000000000E+00  0.00000000000E+00  0.91594550765E+02  0.91594550765E+02  0.00000000000E+00 0.  1.
         21   -1    0    0  501  502 -0.00000000000E+00 -0.00000000000E+00 -0.10132304359E+04  0.10132304359E+04  0.00000000000E+00 0.  1.
         25    1    1    2    0    0 -0.75877994751E+02 -0.79394934854E+02 -0.21142472131E+03  0.26904727940E+03  0.12500000000E+03 0.  0.
         25    1    1    2    0    0 -0.17855314532E+02 -0.48921031309E+01 -0.62720038742E+03  0.63980315013E+03  0.12500000000E+03 0.  0.
         25    1    1    2    0    0  0.93733309282E+02  0.84287037985E+02 -0.83010776369E+02  0.19597455711E+03  0.12500000000E+03 0.  0.
</event>
<event>
 5    0  0.5728184E-005  0.3059030E+03  0.7546771E-02  0.1082326E+00
         21   -1    0    0  502  501  0.00000000000E+00  0.00000000000E+00  0.47816740912E+02  0.47816740912E+02  0.00000000000E+00 0. -1.
         21   -1    0    0  501  502 -0.00000000000E+00 -0.00000000000E+00 -0.19569846012E+04  0.19569846012E+04  0.00000000000E+00 0. -1.
         25    1    1    2    0    0 -0.27308701704E+02  0.66404853881E+02 -0.49470515977E+03  0.51528008395E+03  0.12500000000E+03 0.  0.
         25    1    1    2    0    0  0.12593300304E+03 -0.18167260827E+03 -0.59717392767E+03  0.64892661969E+03  0.12500000000E+03 0.  0.
         25    1    1    2    0    0 -0.98624301336E+02  0.11526775439E+03 -0.81728877289E+03  0.84059463852E+03  0.12500000000E+03 0.  0.
</event>
<event>
 5    0  0.5728184E-005  0.3336843E+03  0.7546771E-02  0.1069518E+00
         21   -1    0    0  502  501  0.00000000000E+00  0.00000000000E+00  0.73128640754E+03  0.73128640754E+03  0.00000000000E+00 0. -1.
         21   -1    0    0  501  502 -0.00000000000E+00 -0.00000000000E+00 -0.15225936549E+03  0.15225936549E+03  0.00000000000E+00 0. -1.
         25    1    1    2    0    0  0.13976130381E+03  0.68567162554E+02  0.51318589687E+03  0.55065365028E+03  0.12500000000E+03 0.  0.
         25    1    1    2    0    0 -0.32504565819E+02  0.28635919870E+02  0.57370434651E+01  0.13241780988E+03  0.12500000000E+03 0.  0.
         25    1    1    2    0    0 -0.10725673799E+03 -0.97203082424E+02  0.60104101705E+02  0.20047431287E+03  0.12500000000E+03 0.  0.
</event>
<event>
 5    0  0.6407403E-005  0.3014289E+03  0.7546771E-02  0.1084529E+00
         21   -1    0    0  502  501  0.00000000000E+00  0.00000000000E+00  0.60970468257E+03  0.60970468257E+03  0.00000000000E+00 0.  1.
         21   -1    0    0  501  502 -0.00000000000E+00 -0.00000000000E+00 -0.14902190328E+03  0.14902190328E+03  0.00000000000E+00 0.  1.
         25    1    1    2    0    0 -0.60095440957E+02  0.11999511828E+03  0.10050326615E+03  0.20913200841E+03  0.12500000000E+03 0.  0.
         25    1    1    2    0    0  0.64833700185E+02 -0.18771696923E+03  0.10421769914E+03  0.25676331130E+03  0.12500000000E+03 0.  0.
         25    1    1    2    0    0 -0.47382592276E+01  0.67721850956E+02  0.25596181401E+03  0.29283126614E+03  0.12500000000E+03 0.  0.
</event>
<event>
 5    0  0.5728184E-005  0.2660157E+03  0.7546771E-02  0.1103582E+00
         21   -1    0    0  502  501  0.00000000000E+00  0.00000000000E+00  0.28280707734E+02  0.28280707734E+02  0.00000000000E+00 0.  1.
         21   -1    0    0  501  502 -0.00000000000E+00 -0.00000000000E+00 -0.25022126612E+04  0.25022126612E+04  0.00000000000E+00 0.  1.
         25    1    1    2    0    0 -0.77186668496E+02  0.12421393890E+02 -0.58092938109E+03  0.59934632612E+03  0.12500000000E+03 0.  0.
         25    1    1    2    0    0 -0.62559095450E+02  0.91690656686E+02 -0.79147628831E+03  0.80893790362E+03  0.12500000000E+03 0.  0.
         25    1    1    2    0    0  0.13974576395E+03 -0.10411205058E+03 -0.11015262840E+04  0.11222091391E+04  0.12500000000E+03 0.  0.
</event>
<event>
 5    0  0.5728184E-005  0.2645663E+03  0.7546771E-02  0.1104430E+00
         21   -1    0    0  502  501  0.00000000000E+00  0.00000000000E+00  0.22314373947E+03  0.22314373947E+03  0.00000000000E+00 0.  1.
         21   -1    0    0  501  502 -0.00000000000E+00 -0.00000000000E+00 -0.31367824663E+03  0.31367824663E+03  0.00000000000E+00 0.  1.
         25    1    1    2    0    0 -0.62082752519E+02  0.60779194550E+02  0.76271861144E+02  0.17026677730E+03  0.12500000000E+03 0.  0.
         25    1    1    2    0    0 -0.14985934180E+02 -0.10434246832E+03 -0.13032395962E+03  0.20909630167E+03  0.12500000000E+03 0.  0.
         25    1    1    2    0    0  0.77068686698E+02  0.43563273774E+02 -0.36482408680E+02  0.15745890713E+03  0.12500000000E+03 0.  0.
</event>
<event>
 5    0  0.5728184E-005  0.3411173E+03  0.7546771E-02  0.1066321E+00
         21   -1    0    0  502  501  0.00000000000E+00  0.00000000000E+00  0.33927446795E+02  0.33927446795E+02  0.00000000000E+00 0.  1.
         21   -1    0    0  501  502 -0.00000000000E+00 -0.00000000000E+00 -0.34297016044E+04  0.34297016044E+04  0.00000000000E+00 0. -1.
         25    1    1    2    0    0  0.32368199099E+02 -0.37841488014E+02 -0.50317954169E+03  0.52085922253E+03  0.12500000000E+03 0.  0.
         25    1    1    2    0    0 -0.22385775909E+03 -0.80792878845E+02 -0.18155528825E+04  0.18353465762E+04  0.12500000000E+03 0.  0.
         25    1    1    2    0    0  0.19148955999E+03  0.11863436686E+03 -0.10770417334E+04  0.11074232525E+04  0.12500000000E+03 0.  0.
</event>
<event>
 5    0  0.5728184E-005  0.3577984E+03  0.7546771E-02  0.1059459E+00
         21   -1    0    0  502  501  0.00000000000E+00  0.00000000000E+00  0.74227723911E+02  0.74227723911E+02  0.00000000000E+00 0. -1.
         21   -1    0    0  501  502 -0.00000000000E+00 -0.00000000000E+00 -0.17246885846E+04  0.17246885846E+04  0.00000000000E+00 0. -1.
         25    1    1    2    0    0  0.23881270329E+02  0.19201524069E+03 -0.61367672049E+03  0.65548782216E+03  0.12500000000E+03 0.  0.
         25    1    1    2    0    0  0.31377618548E+02  0.46595169217E+02 -0.67626501486E+03  0.69001089489E+03  0.12500000000E+03 0.  0.
         25    1    1    2    0    0 -0.55258888877E+02 -0.23861040990E+03 -0.36051912534E+03  0.45341759146E+03  0.12500000000E+03 0.  0.
</event>
<event>
 5    0  0.5728184E-005  0.3742307E+03  0.7546771E-02  0.1053087E+00
         21   -1    0    0  502  501  0.00000000000E+00  0.00000000000E+00  0.26276643648E+03  0.26276643648E+03  0.00000000000E+00 0. -1.
         21   -1    0    0  501  502 -0.00000000000E+00 -0.00000000000E+00 -0.53297763649E+03  0.53297763649E+03  0.00000000000E+00 0. -1.
         25    1    1    2    0    0  0.21891645068E+02 -0.19734697326E+03 -0.16247715104E+03  0.28539253072E+03  0.12500000000E+03 0.  0.
         25    1    1    2    0    0 -0.26766507948E+02  0.27958109841E+03 -0.16639726846E+03  0.34956413931E+03  0.12500000000E+03 0.  0.
         25    1    1    2    0    0  0.48748628797E+01 -0.82234125147E+02  0.58663219485E+02  0.16078740295E+03  0.12500000000E+03 0.  0.
</event>
<event>
 5    0  0.5728184E-005  0.2902579E+03  0.7546771E-02  0.1090215E+00
         21   -1    0    0  502  501  0.00000000000E+00  0.00000000000E+00  0.48706870515E+03  0.48706870515E+03  0.00000000000E+00 0. -1.
         21   -1    0    0  501  502 -0.00000000000E+00 -0.00000000000E+00 -0.17297281237E+03  0.17297281237E+03  0.00000000000E+00 0. -1.
         25    1    1    2    0    0 -0.45564928241E+02  0.13227363797E+03 -0.49964374292E+02  0.19414921243E+03  0.12500000000E+03 0.  0.
         25    1    1    2    0    0  0.37578535974E+02 -0.89884483660E+02  0.19915725160E+03  0.25451911055E+03  0.12500000000E+03 0.  0.
         25    1    1    2    0    0  0.79863922672E+01 -0.42389154310E+02  0.16490301547E+03  0.21137319455E+03  0.12500000000E+03 0.  0.
</event>
<event>
 5    0  0.5728184E-005  0.3397557E+03  0.7546771E-02  0.1066900E+00
         21   -1    0    0  502  501  0.00000000000E+00  0.00000000000E+00  0.28083770925E+03  0.28083770925E+03  0.00000000000E+00 0. -1.
         21   -1    0    0  501  502 -0.00000000000E+00 -0.00000000000E+00 -0.41103441132E+03  0.41103441132E+03  0.00000000000E+00 0. -1.
         25    1    1    2    0    0 -0.29847279943E+02  0.58488812992E+02  0.52022937701E+02  0.15047653442E+03  0.12500000000E+03 0.  0.
         25    1    1    2    0    0 -0.18054703990E+03 -0.12741294060E+03 -0.11300286768E+03  0.27789555440E+03  0.12500000000E+03 0.  0.
         25    1    1    2    0    0  0.21039431985E+03  0.68924127611E+02 -0.69216772092E+02  0.26350003174E+03  0.12500000000E+03 0.  0.
</event>
<event>
 5    0  0.5728184E-005  0.4071005E+03  0.7546771E-02  0.1041348E+00
         21   -1    0    0  502  501  0.00000000000E+00  0.00000000000E+00  0.89655234145E+02  0.89655234145E+02  0.00000000000E+00 0. -1.
         21   -1    0    0  501  502 -0.00000000000E+00 -0.00000000000E+00 -0.18485344347E+04  0.18485344347E+04  0.00000000000E+00 0. -1.
         25    1    1    2    0    0 -0.11674058701E+03  0.25370676463E+02 -0.19433388812E+03  0.26012054120E+03  0.12500000000E+03 0.  0.
         25    1    1    2    0    0  0.10016504029E+02  0.39819093888E+02 -0.32064898429E+02  0.13542174235E+03  0.12500000000E+03 0.  0.
         25    1    1    2    0    0  0.10672408298E+03 -0.65189770351E+02 -0.15324804140E+04  0.15426473853E+04  0.12500000000E+03 0.  0.
</event>
<event>
 5    0  0.5728184E-005  0.2411943E+03  0.7546771E-02  0.1119000E+00
         21   -1    0    0  502  501  0.00000000000E+00  0.00000000000E+00  0.22778886236E+02  0.22778886236E+02  0.00000000000E+00 0.  1.
         21   -1    0    0  501  502 -0.00000000000E+00 -0.00000000000E+00 -0.25538866687E+04  0.25538866687E+04  0.00000000000E+00 0.  1.
         25    1    1    2    0    0 -0.40564422541E+01  0.90454038649E+02 -0.60456561708E+03  0.62395750912E+03  0.12500000000E+03 0.  0.
         25    1    1    2    0    0 -0.47716001212E+02 -0.70116340427E+02 -0.58427659424E+03  0.60348757779E+03  0.12500000000E+03 0.  0.
         25    1    1    2    0    0  0.51772443466E+02 -0.20337698222E+02 -0.13422655711E+04  0.13492204680E+04  0.12500000000E+03 0.  0.
</event>
<event>
 5    0  0.5728184E-005  0.2664196E+03  0.7546771E-02  0.1103346E+00
         21   -1    0    0  502  501  0.00000000000E+00  0.00000000000E+00  0.33998987615E+03  0.33998987615E+03  0.00000000000E+00 0.  1.
         21   -1    0    0  501  502 -0.00000000000E+00 -0.00000000000E+00 -0.20876922077E+03  0.20876922077E+03  0.00000000000E+00 0.  1.
         25    1    1    2    0    0 -0.71548683155E+02  0.11484475469E+03  0.18200009023E+03  0.25895475393E+03  0.12500000000E+03 0.  0.
         25    1    1    2    0    0  0.45172180205E+02 -0.50657426848E+02 -0.21271982188E+02  0.14382001942E+03  0.12500000000E+03 0.  0.
         25    1    1    2    0    0  0.26376502951E+02 -0.64187327843E+02 -0.29507452661E+02  0.14598432356E+03  0.12500000000E+03 0.  0.
</event>
<event>
 5    0  0.5728184E-005  0.5277899E+03  0.7546771E-02  0.1006770E+00
         21   -1    0    0  502  501  0.00000000000E+00  0.00000000000E+00  0.11176248097E+04  0.11176248097E+04  0.00000000000E+00 0.  1.
         21   -1    0    0  501  502 -0.00000000000E+00 -0.00000000000E+00 -0.24924477259E+03  0.24924477259E+03  0.00000000000E+00 0.  1.
         25    1    1    2    0    0  0.56954983150E+02  0.31730733378E+03  0.21566461914E+03  0.40750956078E+03  0.12500000000E+03 0.  0.
         25    1    1    2    0    0 -0.18668861602E+03  0.12044840635E+02  0.51056715876E+03  0.55794403047E+03  0.12500000000E+03 0.  0.
         25    1    1    2    0    0  0.12973363287E+03 -0.32935217442E+03  0.14214825925E+03  0.40141599109E+03  0.12500000000E+03 0.  0.
</event>
<event>
 5    0  0.5728184E-005  0.4498110E+03  0.7546771E-02  0.1027778E+00
         21   -1    0    0  502  501  0.00000000000E+00  0.00000000000E+00  0.96412524908E+03  0.96412524908E+03  0.00000000000E+00 0.  1.
         21   -1    0    0  501  502 -0.00000000000E+00 -0.00000000000E+00 -0.20985854634E+03  0.20985854634E+03  0.00000000000E+00 0.  1.
         25    1    1    2    0    0 -0.10021302514E+03 -0.53329719002E+02  0.13233235785E+02  0.16937186267E+03  0.12500000000E+03 0.  0.
         25    1    1    2    0    0  0.20183842809E+03 -0.15067748267E+03  0.68250304586E+03  0.73815842639E+03  0.12500000000E+03 0.  0.
         25    1    1    2    0    0 -0.10162540295E+03  0.20400720167E+03  0.58530421095E+02  0.26645350636E+03  0.12500000000E+03 0.  0.
</event>
<event>
 5    0  0.5728184E-005  0.3131337E+03  0.7546771E-02  0.1078853E+00
         21   -1    0    0  502  501  0.00000000000E+00  0.00000000000E+00  0.16366222847E+03  0.16366222847E+03  0.00000000000E+00 0.  1.
         21   -1    0    0  501  502 -0.00000000000E+00 -0.00000000000E+00 -0.59911644331E+03  0.59911644331E+03  0.00000000000E+00 0.  1.
         25    1    1    2    0    0  0.14333542558E+03  0.59189092421E+02 -0.37250584271E+03  0.42241448335E+03  0.12500000000E+03 0.  0.
         25    1    1    2    0    0  0.13914006915E+02 -0.60424541830E+01 -0.12491407802E+02  0.12653515760E+03  0.12500000000E+03 0.  0.
         25    1    1    2    0    0 -0.15724943250E+03 -0.53146638238E+02 -0.50456964322E+02  0.21382903083E+03  0.12500000000E+03 0.  0.
</event>
<event>
 5    0  0.5728184E-005  0.3089664E+03  0.7546771E-02  0.1080842E+00
         21   -1    0    0  502  501  0.00000000000E+00  0.00000000000E+00  0.44658497824E+03  0.44658497824E+03  0.00000000000E+00 0. -1.
         21   -1    0    0  501  502 -0.00000000000E+00 -0.00000000000E+00 -0.21375598161E+03  0.21375598161E+03  0.00000000000E+00 0. -1.
         25    1    1    2    0    0 -0.58123553505E+02  0.86311699660E+02  0.10326220284E+02  0.16297143245E+03  0.12500000000E+03 0.  0.
         25    1    1    2    0    0  0.47116416718E+01  0.10148892967E+03 -0.19478580759E+02  0.16225479198E+03  0.12500000000E+03 0.  0.
         25    1    1    2    0    0  0.53411911834E+02 -0.18780062933E+03  0.24198135711E+03  0.33511473541E+03  0.12500000000E+03 0.  0.
</event>
<event>
 5    0  0.6151788E-005  0.2667661E+03  0.7546771E-02  0.1103145E+00
         21   -1    0    0  502  501  0.00000000000E+00  0.00000000000E+00  0.27403552227E+03  0.27403552227E+03  0.00000000000E+00 0.  1.
         21   -1    0    0  501  502 -0.00000000000E+00 -0.00000000000E+00 -0.25968953639E+03  0.25968953639E+03  0.00000000000E+00 0.  1.
         25    1    1    2    0    0 -0.16168684894E+03  0.41847310971E+02 -0.41667099595E+02  0.21273218314E+03  0.12500000000E+03 0.  0.
         25    1    1    2    0    0  0.84621130720E+02 -0.52640167714E+02 -0.88204073107E+01  0.16010784680E+03  0.12500000000E+03 0.  0.
         25    1    1    2    0    0  0.77065718218E+02  0.10792856743E+02  0.64833492786E+02  0.16088502873E+03  0.12500000000E+03 0.  0.
</event>
<event>
 5    0  0.5728184E-005  0.3115284E+03  0.7546771E-02  0.1079616E+00
         21   -1    0    0  502  501  0.00000000000E+00  0.00000000000E+00  0.49550513937E+03  0.49550513937E+03  0.00000000000E+00 0.  1.
         21   -1    0    0  501  502 -0.00000000000E+00 -0.00000000000E+00 -0.19586060395E+03  0.19586060395E+03  0.00000000000E+00 0.  1.
         25    1    1    2    0    0 -0.13395889774E+03 -0.31002760861E+02  0.32107707720E+03  0.37097391683E+03  0.12500000000E+03 0.  0.
         25    1    1    2    0    0  0.85902661557E+02  0.74471493327E+02  0.27789890515E+02  0.17123828017E+03  0.12500000000E+03 0.  0.
         25    1    1    2    0    0  0.48056236186E+02 -0.43468732466E+02 -0.49222432300E+02  0.14915354632E+03  0.12500000000E+03 0.  0.
</event>
<event>
 5    0  0.5728184E-005  0.4267379E+03  0.7546771E-02  0.1034895E+00
         21   -1    0    0  502  501  0.00000000000E+00  0.00000000000E+00  0.28902356610E+03  0.28902356610E+03  0.00000000000E+00 0.  1.
         21   -1    0    0  501  502 -0.00000000000E+00 -0.00000000000E+00 -0.63007051434E+03  0.63007051434E+03  0.00000000000E+00 0.  1.
         25    1    1    2    0    0 -0.97111665379E+02  0.11120547224E+03 -0.63075809213E+02  0.20347208731E+03  0.12500000000E+03 0.  0.
         25    1    1    2    0    0 -0.24049680288E+02  0.72418744705E+01  0.17475782238E+03  0.21632412799E+03  0.12500000000E+03 0.  0.
         25    1    1    2    0    0  0.12116134567E+03 -0.11844734671E+03 -0.45272896141E+03  0.49929786513E+03  0.12500000000E+03 0.  0.
</event>
<event>
 5    0  0.5728184E-005  0.3411201E+03  0.7546771E-02  0.1066320E+00
         21   -1    0    0  502  501  0.00000000000E+00  0.00000000000E+00  0.95054639678E+02  0.95054639678E+02  0.00000000000E+00 0. -1.
         21   -1    0    0  501  502 -0.00000000000E+00 -0.00000000000E+00 -0.12241688559E+04  0.12241688559E+04  0.00000000000E+00 0. -1.
         25    1    1    2    0    0  0.89393764534E+02 -0.16779367959E+03 -0.21518107132E+03  0.31316745920E+03  0.12500000000E+03 0.  0.
         25    1    1    2    0    0  0.46827380012E+02 -0.31941439737E+01 -0.14582482748E+03  0.19771921096E+03  0.12500000000E+03 0.  0.
         25    1    1    2    0    0 -0.13622114455E+03  0.17098782356E+03 -0.76810831743E+03  0.80833682543E+03  0.12500000000E+03 0.  0.
</event>
<event>
 5    0  0.5728184E-005  0.3371563E+03  0.7546771E-02  0.1068014E+00
         21   -1    0    0  502  501  0.00000000000E+00  0.00000000000E+00  0.91527070697E+02  0.91527070697E+02  0.00000000000E+00 0.  1.
         21   -1    0    0  501  502 -0.00000000000E+00 -0.00000000000E+00 -0.12419752955E+04  0.12419752955E+04  0.00000000000E+00 0.  1.
         25    1    1    2    0    0  0.82686658923E+02 -0.16282749599E+02 -0.19793061436E+02  0.15204925774E+03  0.12500000000E+03 0.  0.
         25    1    1    2    0    0 -0.81059219142E+02 -0.85649147869E+02 -0.44372973355E+03  0.47584393447E+03  0.12500000000E+03 0.  0.
         25    1    1    2    0    0 -0.16274397806E+01  0.10193189747E+03 -0.68692542984E+03  0.70560917401E+03  0.12500000000E+03 0.  0.
</event>
<event>
 5    0  0.5728184E-005  0.3214967E+03  0.7546771E-02  0.1074963E+00
         21   -1    0    0  502  501  0.00000000000E+00  0.00000000000E+00  0.15855764094E+04  0.15855764094E+04  0.00000000000E+00 0.  1.
         21   -1    0    0  501  502 -0.00000000000E+00 -0.00000000000E+00 -0.65187717600E+02  0.65187717600E+02  0.00000000000E+00 0.  1.
         25    1    1    2    0    0 -0.49488088307E+02  0.87571050414E+02  0.36510164254E+03  0.39880066341E+03  0.12500000000E+03 0.  0.
         25    1    1    2    0    0  0.15664294874E+03 -0.13542105596E+03  0.33053401863E+03  0.40957735931E+03  0.12500000000E+03 0.  0.
         25    1    1    2    0    0 -0.10715486043E+03  0.47850005543E+02  0.82475303066E+03  0.84238610431E+03  0.12500000000E+03 0.  0.
</event>
<event>
 5    0  0.5728184E-005  0.2508924E+03  0.7546771E-02  0.1112742E+00
         21   -1    0    0  502  501  0.00000000000E+00  0.00000000000E+00  0.17147127252E+03  0.17147127252E+03  0.00000000000E+00 0. -1.
         21   -1    0    0  501  502 -0.00000000000E+00 -0.00000000000E+00 -0.36709947796E+03  0.36709947796E+03  0.00000000000E+00 0. -1.
         25    1    1    2    0    0  0.35103860997E+02  0.78810407043E+01  0.40167856878E+02  0.13613540533E+03  0.12500000000E+03 0.  0.
         25    1    1    2    0    0  0.34821325672E+02 -0.45506445291E+02 -0.17454439224E+02  0.13861103395E+03  0.12500000000E+03 0.  0.
         25    1    1    2    0    0 -0.69925186668E+02  0.37625404587E+02 -0.21834162310E+03  0.26382431120E+03  0.12500000000E+03 0.  0.
</event>
<event>
 5    0  0.5728184E-005  0.2790534E+03  0.7546771E-02  0.1096207E+00
         21   -1    0    0  502  501  0.00000000000E+00  0.00000000000E+00  0.14582956990E+03  0.14582956990E+03  0.00000000000E+00 0. -1.
         21   -1    0    0  501  502 -0.00000000000E+00 -0.00000000000E+00 -0.53398507316E+03  0.53398507316E+03  0.00000000000E+00 0. -1.
         25    1    1    2    0    0  0.16388763199E+03 -0.17700578566E+01 -0.13856115555E+03  0.24836763648E+03  0.12500000000E+03 0.  0.
         25    1    1    2    0    0 -0.72606925995E+02 -0.91531071406E+02 -0.11633267660E+03  0.20690092890E+03  0.12500000000E+03 0.  0.
         25    1    1    2    0    0 -0.91280706000E+02  0.93301129263E+02 -0.13326167111E+03  0.22454607767E+03  0.12500000000E+03 0.  0.
</event>
<event>
 5    0  0.5728184E-005  0.2666048E+03  0.7546771E-02  0.1103239E+00
         21   -1    0    0  502  501  0.00000000000E+00  0.00000000000E+00  0.55170678420E+03  0.55170678420E+03  0.00000000000E+00 0.  1.
         21   -1    0    0  501  502 -0.00000000000E+00 -0.00000000000E+00 -0.12883314686E+03  0.12883314686E+03  0.00000000000E+00 0.  1.
         25    1    1    2    0    0 -0.62172330694E+02 -0.65199138737E+02 -0.25664327291E+02  0.15620494260E+03  0.12500000000E+03 0.  0.
         25    1    1    2    0    0  0.43456401010E+02  0.75096976186E+01  0.22472490462E+03  0.26090445973E+03  0.12500000000E+03 0.  0.
         25    1    1    2    0    0  0.18715929685E+02  0.57689441119E+02  0.22381306001E+03  0.26343052874E+03  0.12500000000E+03 0.  0.
</event>
<event>
 5    0  0.5728184E-005  0.4658834E+03  0.7546771E-02  0.1023089E+00
         21   -1    0    0  502  501  0.00000000000E+00  0.00000000000E+00  0.37038869158E+03  0.37038869158E+03  0.00000000000E+00 0. -1.
         21   -1    0    0  501  502 -0.00000000000E+00 -0.00000000000E+00 -0.58599875646E+03  0.58599875646E+03  0.00000000000E+00 0. -1.
         25    1    1    2    0    0  0.37136296485E+03 -0.97110782819E+01 -0.45571961195E+02  0.39459670595E+03  0.12500000000E+03 0.  0.
         25    1    1    2    0    0 -0.23005401925E+03  0.14474658218E+03 -0.13069686527E+03  0.32647066548E+03  0.12500000000E+03 0.  0.
         25    1    1    2    0    0 -0.14130894559E+03 -0.13503550390E+03 -0.39341238407E+02  0.23532007661E+03  0.12500000000E+03 0.  0.
</event>
<event>
 5    0  0.5728184E-005  0.2696604E+03  0.7546771E-02  0.1101474E+00
         21   -1    0    0  502  501  0.00000000000E+00  0.00000000000E+00  0.13628001755E+03  0.13628001755E+03  0.00000000000E+00 0. -1.
         21   -1    0    0  501  502 -0.00000000000E+00 -0.00000000000E+00 -0.53358337712E+03  0.53358337712E+03  0.00000000000E+00 0. -1.
         25    1    1    2    0    0  0.40848193576E+02 -0.16215631358E+02 -0.14975258037E+03  0.19995588750E+03  0.12500000000E+03 0.  0.
         25    1    1    2    0    0 -0.42190707381E+02  0.11419468610E+03  0.15335202447E+01  0.17449307668E+03  0.12500000000E+03 0.  0.
         25    1    1    2    0    0  0.13425138056E+01 -0.97979054744E+02 -0.24908429945E+03  0.29541443050E+03  0.12500000000E+03 0.  0.
</event>
<event>
 5    0  0.5728184E-005  0.3211232E+03  0.7546771E-02  0.1075134E+00
         21   -1    0    0  502  501  0.00000000000E+00  0.00000000000E+00  0.35450674153E+03  0.35450674153E+03  0.00000000000E+00 0.  1.
         21   -1    0    0  501  502 -0.00000000000E+00 -0.00000000000E+00 -0.29088333526E+03  0.29088333526E+03  0.00000000000E+00 0.  1.
         25    1    1    2    0    0 -0.16070740597E+03 -0.81274209749E+02 -0.10462544187E+03  0.24290708222E+03  0.12500000000E+03 0.  0.
         25    1    1    2    0    0  0.11304236005E+03 -0.45524897492E+02  0.12034946693E+03  0.21203793445E+03  0.12500000000E+03 0.  0.
         25    1    1    2    0    0  0.47665045920E+02  0.12679910724E+03  0.47899381219E+02  0.19044506011E+03  0.12500000000E+03 0.  0.
</event>
<event>
 5    0  0.5728184E-005  0.3965428E+03  0.7546771E-02  0.1044983E+00
         21   -1    0    0  502  501  0.00000000000E+00  0.00000000000E+00  0.62162185047E+03  0.62162185047E+03  0.00000000000E+00 0.  1.
         21   -1    0    0  501  502 -0.00000000000E+00 -0.00000000000E+00 -0.25296120264E+03  0.25296120264E+03  0.00000000000E+00 0.  1.
         25    1    1    2    0    0 -0.14169834600E+03 -0.50547058044E+02  0.37474166557E+02  0.19915506394E+03  0.12500000000E+03 0.  0.
         25    1    1    2    0    0  0.22575647714E+03  0.10293588660E+03  0.41177805509E+03  0.49673730520E+03  0.12500000000E+03 0.  0.
         25    1    1    2    0    0 -0.84058131145E+02 -0.52388828558E+02 -0.80591573814E+02  0.17869068397E+03  0.12500000000E+03 0.  0.
</event>
<event>
 5    0  0.6779798E-005  0.6756102E+03  0.7546771E-02  0.9759876E-01
         21   -1    0    0  502  501  0.00000000000E+00  0.00000000000E+00  0.47827065955E+03  0.47827065955E+03  0.00000000000E+00 0.  1.
         21   -1    0    0  501  502 -0.00000000000E+00 -0.00000000000E+00 -0.95437417233E+03  0.95437417233E+03  0.00000000000E+00 0.  1.
         25    1    1    2    0    0 -0.16274344014E+03 -0.28371723856E+03 -0.48223404950E+03  0.59594930763E+03  0.12500000000E+03 0.  0.
         25    1    1    2    0    0 -0.18019195485E+03 -0.84611535701E+02  0.17310672433E+03  0.29192326145E+03  0.12500000000E+03 0.  0.
         25    1    1    2    0    0  0.34293539499E+03  0.36832877426E+03 -0.16697618762E+03  0.54477226280E+03  0.12500000000E+03 0.  0.
</event>
<event>
 5    0  0.5728184E-005  0.2146228E+03  0.7546771E-02  0.1137957E+00
         21   -1    0    0  502  501  0.00000000000E+00  0.00000000000E+00  0.15146270177E+04  0.15146270177E+04  0.00000000000E+00 0.  1.
         21   -1    0    0  501  502 -0.00000000000E+00 -0.00000000000E+00 -0.30412063328E+02  0.30412063328E+02  0.00000000000E+00 0.  1.
         25    1    1    2    0    0  0.30716409701E+02  0.28311900183E+02  0.25501982995E+03  0.28706301605E+03  0.12500000000E+03 0.  0.
         25    1    1    2    0    0  0.10504611182E+02 -0.36100814236E+02  0.73463626586E+03  0.74614278711E+03  0.12500000000E+03 0.  0.
         25    1    1    2    0    0 -0.41221020882E+02  0.77889140530E+01  0.49455885854E+03  0.51183327784E+03  0.12500000000E+03 0.  0.
</event>
<event>
 5    0  0.5728184E-005  0.4445736E+03  0.7546771E-02  0.1029353E+00
         21   -1    0    0  502  501  0.00000000000E+00  0.00000000000E+00  0.17228475134E+04  0.17228475134E+04  0.00000000000E+00 0. -1.
         21   -1    0    0  501  502 -0.00000000000E+00 -0.00000000000E+00 -0.11472038121E+03  0.11472038121E+03  0.00000000000E+00 0. -1.
         25    1    1    2    0    0 -0.22846277818E+03 -0.69655460885E+01  0.11620267341E+04  0.11908714837E+04  0.12500000000E+03 0.  0.
         25    1    1    2    0    0  0.13906572237E+03  0.86005149450E+02  0.46036888788E+02  0.21090413936E+03  0.12500000000E+03 0.  0.
         25    1    1    2    0    0  0.89397055808E+02 -0.79039603361E+02  0.40006350925E+03  0.43579227153E+03  0.12500000000E+03 0.  0.
</event>
<event>
 5    0  0.5728184E-005  0.2554194E+03  0.7546771E-02  0.1109927E+00
         21   -1    0    0  502  501  0.00000000000E+00  0.00000000000E+00  0.42564540725E+03  0.42564540725E+03  0.00000000000E+00 0.  1.
         21   -1    0    0  501  502 -0.00000000000E+00 -0.00000000000E+00 -0.15327089276E+03  0.15327089276E+03  0.00000000000E+00 0.  1.
         25    1    1    2    0    0  0.11238212520E+03  0.37419376025E+02  0.18375769050E+03  0.25183693252E+03  0.12500000000E+03 0.  0.
         25    1    1    2    0    0 -0.28001415990E+02 -0.44916273358E+02 -0.25103303007E+02  0.13804610365E+03  0.12500000000E+03 0.  0.
         25    1    1    2    0    0 -0.84380709208E+02  0.74968973330E+01  0.11372012700E+03  0.18903326384E+03  0.12500000000E+03 0.  0.
</event>
<event>
 5    0  0.5728184E-005  0.3856931E+03  0.7546771E-02  0.1048849E+00
         21   -1    0    0  502  501  0.00000000000E+00  0.00000000000E+00  0.28186549598E+03  0.28186549598E+03  0.00000000000E+00 0.  1.
         21   -1    0    0  501  502 -0.00000000000E+00 -0.00000000000E+00 -0.52776651866E+03  0.52776651866E+03  0.00000000000E+00 0.  1.
         25    1    1    2    0    0 -0.94960453586E+02  0.53145588445E+02  0.10950760107E+03  0.19864253323E+03  0.12500000000E+03 0.  0.
         25    1    1    2    0    0  0.52199697548E+02 -0.15430651608E+03  0.14029613024E+02  0.20580850169E+03  0.12500000000E+03 0.  0.
         25    1    1    2    0    0  0.42760756038E+02  0.10116092763E+03 -0.36943823677E+03  0.40518097972E+03  0.12500000000E+03 0.  0.
</event>
<event>
 5    0  0.6402379E-005  0.2544820E+03  0.7546771E-02  0.1110505E+00
         21   -1    0    0  502  501  0.00000000000E+00  0.00000000000E+00  0.55131619180E+03  0.55131619180E+03  0.00000000000E+00 0. -1.
         21   -1    0    0  501  502 -0.00000000000E+00 -0.00000000000E+00 -0.11746631565E+03  0.11746631565E+03  0.00000000000E+00 0. -1.
         25    1    1    2    0    0 -0.74607419620E+02  0.28537493150E+02  0.34198814793E+03  0.37277546714E+03  0.12500000000E+03 0.  0.
         25    1    1    2    0    0  0.11136756428E+02 -0.52514648450E+02  0.66925839175E+02  0.15161096133E+03  0.12500000000E+03 0.  0.
         25    1    1    2    0    0  0.63470663192E+02  0.23977155300E+02  0.24935889053E+02  0.14439607898E+03  0.12500000000E+03 0.  0.
</event>
<event>
 5    0  0.5728184E-005  0.4272900E+03  0.7546771E-02  0.1034719E+00
         21   -1    0    0  502  501  0.00000000000E+00  0.00000000000E+00  0.60518901589E+03  0.60518901589E+03  0.00000000000E+00 0. -1.
         21   -1    0    0  501  502 -0.00000000000E+00 -0.00000000000E+00 -0.30168544269E+03  0.30168544269E+03  0.00000000000E+00 0. -1.
         25    1    1    2    0    0  0.27685177369E+03 -0.17682381975E+03  0.12096549886E+03  0.37171389501E+03  0.12500000000E+03 0.  0.
         25    1    1    2    0    0 -0.22114273717E+02  0.17851421014E+03  0.70971819359E+02  0.23025716811E+03  0.12500000000E+03 0.  0.
         25    1    1    2    0    0 -0.25473749998E+03 -0.16903903911E+01  0.11156625498E+03  0.30490339546E+03  0.12500000000E+03 0.  0.
</event>
<event>
 5    0  0.5728184E-005  0.3191389E+03  0.7546771E-02  0.1076046E+00
         21   -1    0    0  502  501  0.00000000000E+00  0.00000000000E+00  0.14047516707E+03  0.14047516707E+03  0.00000000000E+00 0.  1.
         21   -1    0    0  501  502 -0.00000000000E+00 -0.00000000000E+00 -0.72503646465E+03  0.72503646465E+03  0.00000000000E+00 0.  1.
         25    1    1    2    0    0  0.13898904080E+03 -0.15270395775E+03 -0.25983794520E+03  0.35465082819E+03  0.12500000000E+03 0.  0.
         25    1    1    2    0    0 -0.16927151809E+03  0.15047739497E+03 -0.16955341106E+03  0.30930511221E+03  0.12500000000E+03 0.  0.
         25    1    1    2    0    0  0.30282477295E+02  0.22265627764E+01 -0.15516994132E+03  0.20155569132E+03  0.12500000000E+03 0.  0.
</event>
<event>
 5    0  0.5728184E-005  0.2701019E+03  0.7546771E-02  0.1101221E+00
         21   -1    0    0  502  501  0.00000000000E+00  0.00000000000E+00  0.51664565919E+02  0.51664565919E+02  0.00000000000E+00 0.  1.
         21   -1    0    0  501  502 -0.00000000000E+00 -0.00000000000E+00 -0.14120907867E+04  0.14120907867E+04  0.00000000000E+00 0.  1.
         25    1    1    2    0    0  0.11195088144E+03  0.71183229653E+01 -0.49850171854E+03  0.52603482181E+03  0.12500000000E+03 0.  0.
         25    1    1    2    0    0 -0.16466246853E+03 -0.56800354489E+02 -0.61906579012E+03  0.65513926863E+03  0.12500000000E+03 0.  0.
         25    1    1    2    0    0  0.52711587090E+02  0.49682031524E+02 -0.24285871208E+03  0.28258126212E+03  0.12500000000E+03 0.  0.
</event>
<event>
 5    0  0.5728184E-005  0.3267794E+03  0.7546771E-02  0.1072571E+00
         21   -1    0    0  502  501  0.00000000000E+00  0.00000000000E+00  0.44541323819E+03  0.44541323819E+03  0.00000000000E+00 0. -1.
         21   -1    0    0  501  502 -0.00000000000E+00 -0.00000000000E+00 -0.23974309439E+03  0.23974309439E+03  0.00000000000E+00 0. -1.
         25    1    1    2    0    0  0.20864300065E+02  0.11463552566E+03  0.41640597049E+02  0.17588508204E+03  0.12500000000E+03 0.  0.
         25    1    1    2    0    0  0.10959009708E+03 -0.17148761629E+03 -0.26879047157E+02  0.24034449254E+03  0.12500000000E+03 0.  0.
         25    1    1    2    0    0 -0.13045439714E+03  0.56852090630E+02  0.19090859391E+03  0.26892675800E+03  0.12500000000E+03 0.  0.
</event>
<event>
 5    0  0.5728184E-005  0.2370378E+03  0.7546771E-02  0.1121782E+00
         21   -1    0    0  502  501  0.00000000000E+00  0.00000000000E+00  0.57393488179E+03  0.57393488179E+03  0.00000000000E+00 0. -1.
         21   -1    0    0  501  502 -0.00000000000E+00 -0.00000000000E+00 -0.97897721311E+02  0.97897721311E+02  0.00000000000E+00 0. -1.
         25    1    1    2    0    0 -0.94400666166E+02  0.38846849917E+02  0.28929022323E+03  0.33126182511E+03  0.12500000000E+03 0.  0.
         25    1    1    2    0    0 -0.31514751120E+00 -0.12506378298E+02  0.76889543671E+02  0.14728717100E+03  0.12500000000E+03 0.  0.
         25    1    1    2    0    0  0.94715813677E+02 -0.26340471619E+02  0.10985739358E+03  0.19328360699E+03  0.12500000000E+03 0.  0.
</event>
<event>
 5    0  0.5728184E-005  0.3592072E+03  0.7546771E-02  0.1058898E+00
         21   -1    0    0  502  501  0.00000000000E+00  0.00000000000E+00  0.14328141788E+04  0.14328141788E+04  0.00000000000E+00 0.  1.
         21   -1    0    0  501  502 -0.00000000000E+00 -0.00000000000E+00 -0.90053402817E+02  0.90053402817E+02  0.00000000000E+00 0.  1.
         25    1    1    2    0    0  0.77015289743E+02  0.23151251779E+02  0.12313171082E+03  0.19301231443E+03  0.12500000000E+03 0.  0.
         25    1    1    2    0    0  0.13541026102E+03  0.40101503180E+02  0.18423304500E+03  0.26364916881E+03  0.12500000000E+03 0.  0.
         25    1    1    2    0    0 -0.21242555076E+03 -0.63252754959E+02  0.10353960201E+04  0.10662060983E+04  0.12500000000E+03 0.  0.
</event>
<event>
 5    0  0.5728184E-005  0.2269593E+03  0.7546771E-02  0.1128798E+00
         21   -1    0    0  502  501  0.00000000000E+00  0.00000000000E+00  0.11958482266E+04  0.11958482266E+04  0.00000000000E+00 0.  1.
         21   -1    0    0  501  502 -0.00000000000E+00 -0.00000000000E+00 -0.43074447435E+02  0.43074447435E+02  0.00000000000E+00 0.  1.
         25    1    1    2    0    0  0.10321352949E+03  0.39856211559E+02  0.39783590967E+03  0.43143940628E+03  0.12500000000E+03 0.  0.
         25    1    1    2    0    0 -0.43618500101E+02  0.47136820276E+01  0.26291299656E+03  0.29440284664E+03  0.12500000000E+03 0.  0.
         25    1    1    2    0    0 -0.59595029390E+02 -0.44569893587E+02  0.49202487294E+03  0.51308042112E+03  0.12500000000E+03 0.  0.
</event>
<event>
 5    0  0.5728184E-005  0.3094519E+03  0.7546771E-02  0.1080609E+00
         21   -1    0    0  502  501  0.00000000000E+00  0.00000000000E+00  0.23216836509E+03  0.23216836509E+03  0.00000000000E+00 0. -1.
         21   -1    0    0  501  502 -0.00000000000E+00 -0.00000000000E+00 -0.41246136305E+03  0.41246136305E+03  0.00000000000E+00 0. -1.
         25    1    1    2    0    0  0.17225139642E+03  0.89236866719E+02  0.14049736343E+02  0.23120587588E+03  0.12500000000E+03 0.  0.
         25    1    1    2    0    0 -0.86893033662E+02 -0.11043703536E+03 -0.17929564236E+03  0.25984354032E+03  0.12500000000E+03 0.  0.
         25    1    1    2    0    0 -0.85358362757E+02  0.21200168637E+02 -0.15047091946E+02  0.15358031195E+03  0.12500000000E+03 0.  0.
</event>
<event>
 5    0  0.5728184E-005  0.2945600E+03  0.7546771E-02  0.1087992E+00
         21   -1    0    0  502  501  0.00000000000E+00  0.00000000000E+00  0.99309038293E+03  0.99309038293E+03  0.00000000000E+00 0. -1.
         21   -1    0    0  501  502 -0.00000000000E+00 -0.00000000000E+00 -0.87369268791E+02  0.87369268791E+02  0.00000000000E+00 0. -1.
         25    1    1    2    0    0 -0.10659392113E+03  0.73316923725E+02  0.65393023161E+03  0.67822369698E+03  0.12500000000E+03 0.  0.
         25    1    1    2    0    0  0.96939122375E+02  0.15428014357E+02  0.14517340084E+03  0.21525690090E+03  0.12500000000E+03 0.  0.
         25    1    1    2    0    0  0.96547987568E+01 -0.88744938082E+02  0.10661748169E+03  0.18697905384E+03  0.12500000000E+03 0.  0.
</event>
<event>
 5    0  0.5728184E-005  0.3702218E+03  0.7546771E-02  0.1054608E+00
         21   -1    0    0  502  501  0.00000000000E+00  0.00000000000E+00  0.39524268239E+03  0.39524268239E+03  0.00000000000E+00 0. -1.
         21   -1    0    0  501  502 -0.00000000000E+00 -0.00000000000E+00 -0.34678493245E+03  0.34678493245E+03  0.00000000000E+00 0. -1.
         25    1    1    2    0    0  0.68710857555E+02 -0.62493509216E+02 -0.22143716566E+03  0.27071394308E+03  0.12500000000E+03 0.  0.
         25    1    1    2    0    0 -0.11294531584E+03 -0.44220056235E+02  0.29332781459E+02  0.17662805499E+03  0.12500000000E+03 0.  0.
         25    1    1    2    0    0  0.44234458282E+02  0.10671356545E+03  0.24056213414E+03  0.29468561677E+03  0.12500000000E+03 0.  0.
</event>
<event>
 5    0  0.5728184E-005  0.4006759E+03  0.7546771E-02  0.1043546E+00
         21   -1    0    0  502  501  0.00000000000E+00  0.00000000000E+00  0.12233496521E+04  0.12233496521E+04  0.00000000000E+00 0.  1.
         21   -1    0    0  501  502 -0.00000000000E+00 -0.00000000000E+00 -0.13123082672E+03  0.13123082672E+03  0.00000000000E+00 0.  1.
         25    1    1    2    0    0 -0.46405246774E+02 -0.35108717937E+02  0.16128072461E+03  0.21218515767E+03  0.12500000000E+03 0.  0.
         25    1    1    2    0    0 -0.23031324074E+03  0.17378162541E+03  0.33518889988E+03  0.45958768565E+03  0.12500000000E+03 0.  0.
         25    1    1    2    0    0  0.27671848752E+03 -0.13867290748E+03  0.59564920088E+03  0.68280763551E+03  0.12500000000E+03 0.  0.
</event>
<event>
 5    0  0.5728184E-005  0.3301939E+03  0.7546771E-02  0.1071051E+00
         21   -1    0    0  502  501  0.00000000000E+00  0.00000000000E+00  0.15375159047E+03  0.15375159047E+03  0.00000000000E+00 0.  1.
         21   -1    0    0  501  502 -0.00000000000E+00 -0.00000000000E+00 -0.70911786228E+03  0.70911786228E+03  0.00000000000E+00 0.  1.
         25    1    1    2    0    0  0.10767755117E+03  0.15401228592E+03 -0.19481677669E+03  0.29814898243E+03  0.12500000000E+03 0.  0.
         25    1    1    2    0    0  0.52914541309E+02 -0.18389878046E+03 -0.20159954627E+03  0.30477218901E+03  0.12500000000E+03 0.  0.
         25    1    1    2    0    0 -0.16059209248E+03  0.29886494539E+02 -0.15894994885E+03  0.25994828132E+03  0.12500000000E+03 0.  0.
</event>
<event>
 5    0  0.5728184E-005  0.2679672E+03  0.7546771E-02  0.1102449E+00
         21   -1    0    0  502  501  0.00000000000E+00  0.00000000000E+00  0.13185387931E+03  0.13185387931E+03  0.00000000000E+00 0. -1.
         21   -1    0    0  501  502 -0.00000000000E+00 -0.00000000000E+00 -0.54459101994E+03  0.54459101994E+03  0.00000000000E+00 0. -1.
         25    1    1    2    0    0 -0.28567228754E+01  0.78713111907E+01 -0.39257092366E+03  0.41207650808E+03  0.12500000000E+03 0.  0.
         25    1    1    2    0    0  0.24612477288E+02 -0.38119226086E+02 -0.52608686263E+01  0.13308465792E+03  0.12500000000E+03 0.  0.
         25    1    1    2    0    0 -0.21755754413E+02  0.30247914896E+02 -0.14905348342E+02  0.13128373325E+03  0.12500000000E+03 0.  0.
</event>
<event>
 5    0  0.5728184E-005  0.5313033E+03  0.7546771E-02  0.1005917E+00
         21   -1    0    0  502  501  0.00000000000E+00  0.00000000000E+00  0.95826150223E+03  0.95826150223E+03  0.00000000000E+00 0.  1.
         21   -1    0    0  501  502 -0.00000000000E+00 -0.00000000000E+00 -0.29457850544E+03  0.29457850544E+03  0.00000000000E+00 0.  1.
         25    1    1    2    0    0  0.88882582999E+02 -0.20089418851E+03 -0.56272384121E+02  0.25894047531E+03  0.12500000000E+03 0.  0.
         25    1    1    2    0    0  0.18226388488E+03  0.62179447339E+02  0.32763830797E+02  0.23191566573E+03  0.12500000000E+03 0.  0.
         25    1    1    2    0    0 -0.27114646788E+03  0.13871474117E+03  0.68719155011E+03  0.76198386663E+03  0.12500000000E+03 0.  0.
</event>
<event>
 5    0  0.5728184E-005  0.4234803E+03  0.7546771E-02  0.1035940E+00
         21   -1    0    0  502  501  0.00000000000E+00  0.00000000000E+00  0.25788260869E+03  0.25788260869E+03  0.00000000000E+00 0. -1.
         21   -1    0    0  501  502 -0.00000000000E+00 -0.00000000000E+00 -0.69541553945E+03  0.69541553945E+03  0.00000000000E+00 0. -1.
         25    1    1    2    0    0 -0.61893988803E+02  0.21331222609E+03 -0.49048230370E+03  0.55274846168E+03  0.12500000000E+03 0.  0.
         25    1    1    2    0    0  0.12778419703E+03 -0.12853708433E+03  0.78603090437E+02  0.23378201147E+03  0.12500000000E+03 0.  0.
         25    1    1    2    0    0 -0.65890208226E+02 -0.84775141754E+02 -0.25653717498E+02  0.16676767499E+03  0.12500000000E+03 0.  0.
</event>
<event>
 5    0  0.5728184E-005  0.2561016E+03  0.7546771E-02  0.1109508E+00
         21   -1    0    0  502  501  0.00000000000E+00  0.00000000000E+00  0.77193923375E+02  0.77193923375E+02  0.00000000000E+00 0.  1.
         21   -1    0    0  501  502 -0.00000000000E+00 -0.00000000000E+00 -0.84965289589E+03  0.84965289589E+03  0.00000000000E+00 0.  1.
         25    1    1    2    0    0 -0.36246531095E+01 -0.46092839943E+02 -0.12338394052E+03  0.18162126743E+03  0.12500000000E+03 0.  0.
         25    1    1    2    0    0 -0.57179479562E+02  0.74443085550E+02 -0.11890858655E+03  0.19640651166E+03  0.12500000000E+03 0.  0.
         25    1    1    2    0    0  0.60804132671E+02 -0.28350245607E+02 -0.53016644545E+03  0.54881904017E+03  0.12500000000E+03 0.  0.
</event>
<event>
 5    0  0.5728184E-005  0.3435899E+03  0.7546771E-02  0.1065277E+00
         21   -1    0    0  502  501  0.00000000000E+00  0.00000000000E+00  0.22315660541E+03  0.22315660541E+03  0.00000000000E+00 0.  1.
         21   -1    0    0  501  502 -0.00000000000E+00 -0.00000000000E+00 -0.52901884234E+03  0.52901884234E+03  0.00000000000E+00 0.  1.
         25    1    1    2    0    0  0.14273388416E+03 -0.42832286643E+00 -0.36375529448E+03  0.41026340247E+03  0.12500000000E+03 0.  0.
         25    1    1    2    0    0 -0.13316302323E+03  0.49766053789E+02 -0.12866146136E+02  0.18973557543E+03  0.12500000000E+03 0.  0.
         25    1    1    2    0    0 -0.95708609274E+01 -0.49337730923E+02  0.70759203681E+02  0.15217646985E+03  0.12500000000E+03 0.  0.
</event>
<event>
 5    0  0.5728184E-005  0.4087805E+03  0.7546771E-02  0.1040781E+00
         21   -1    0    0  502  501  0.00000000000E+00  0.00000000000E+00  0.23079000756E+03  0.23079000756E+03  0.00000000000E+00 0.  1.
         21   -1    0    0  501  502 -0.00000000000E+00 -0.00000000000E+00 -0.72404115333E+03  0.72404115333E+03  0.00000000000E+00 0.  1.
         25    1    1    2    0    0  0.17569558326E+03  0.68843197137E+02  0.77246699443E+02  0.23916600164E+03  0.12500000000E+03 0.  0.
         25    1    1    2    0    0 -0.43817153158E+02  0.12986338813E+02 -0.25683058762E+02  0.13554780490E+03  0.12500000000E+03 0.  0.
         25    1    1    2    0    0 -0.13187843010E+03 -0.81829535950E+02 -0.54481478645E+03  0.58011735435E+03  0.12500000000E+03 0.  0.
</event>
<event>
 5    0  0.5728184E-005  0.4705247E+03  0.7546771E-02  0.1021772E+00
         21   -1    0    0  502  501  0.00000000000E+00  0.00000000000E+00  0.15285533626E+03  0.15285533626E+03  0.00000000000E+00 0.  1.
         21   -1    0    0  501  502 -0.00000000000E+00 -0.00000000000E+00 -0.14483859028E+04  0.14483859028E+04  0.00000000000E+00 0.  1.
         25    1    1    2    0    0  0.11368554632E+03 -0.24683538387E+03 -0.76387921567E+02  0.30872678007E+03  0.12500000000E+03 0.  0.
         25    1    1    2    0    0 -0.52487955554E+02  0.18826675651E+03 -0.42553397659E+03  0.48466846640E+03  0.12500000000E+03 0.  0.
         25    1    1    2    0    0 -0.61197590767E+02  0.58568627355E+02 -0.79360866835E+03  0.80784599257E+03  0.12500000000E+03 0.  0.
</event>
<event>
 5    0  0.5728184E-005  0.2295138E+03  0.7546771E-02  0.1126982E+00
         21   -1    0    0  502  501  0.00000000000E+00  0.00000000000E+00  0.24340757642E+03  0.24340757642E+03  0.00000000000E+00 0. -1.
         21   -1    0    0  501  502 -0.00000000000E+00 -0.00000000000E+00 -0.21641306575E+03  0.21641306575E+03  0.00000000000E+00 0. -1.
         25    1    1    2    0    0 -0.54628133770E+02 -0.15779959560E+02 -0.28625862241E+02  0.14027715463E+03  0.12500000000E+03 0.  0.
         25    1    1    2    0    0 -0.60875271112E+02 -0.40491103284E+01 -0.96160771117E+00  0.13909751478E+03  0.12500000000E+03 0.  0.
         25    1    1    2    0    0  0.11550340488E+03  0.19829069888E+02  0.56581980620E+02  0.18044597275E+03  0.12500000000E+03 0.  0.
</event>
<event>
 5    0  0.5728184E-005  0.2767128E+03  0.7546771E-02  0.1097498E+00
         21   -1    0    0  502  501  0.00000000000E+00  0.00000000000E+00  0.17766594164E+03  0.17766594164E+03  0.00000000000E+00 0. -1.
         21   -1    0    0  501  502 -0.00000000000E+00 -0.00000000000E+00 -0.43097733421E+03  0.43097733421E+03  0.00000000000E+00 0. -1.
         25    1    1    2    0    0  0.11431334920E+03  0.12092541542E+03 -0.22351528815E+02  0.20932054065E+03  0.12500000000E+03 0.  0.
         25    1    1    2    0    0 -0.58741771704E+02  0.30692791044E+01 -0.12581001040E+03  0.18685067550E+03  0.12500000000E+03 0.  0.
         25    1    1    2    0    0 -0.55571577496E+02 -0.12399469452E+03 -0.10514985336E+03  0.21247205971E+03  0.12500000000E+03 0.  0.
</event>
<event>
 5    0  0.5728184E-005  0.2418636E+03  0.7546771E-02  0.1118558E+00
         21   -1    0    0  502  501  0.00000000000E+00  0.00000000000E+00  0.21788936577E+03  0.21788936577E+03  0.00000000000E+00 0.  1.
         21   -1    0    0  501  502 -0.00000000000E+00 -0.00000000000E+00 -0.26847566140E+03  0.26847566140E+03  0.00000000000E+00 0.  1.
         25    1    1    2    0    0 -0.44906587920E+02 -0.55713943498E+02 -0.90980730306E+02  0.17036178687E+03  0.12500000000E+03 0.  0.
         25    1    1    2    0    0 -0.28358443452E+02  0.53875104486E+01 -0.50319505791E+02  0.13780522213E+03  0.12500000000E+03 0.  0.
         25    1    1    2    0    0  0.73265031372E+02  0.50326433049E+02  0.90713940469E+02  0.17819801817E+03  0.12500000000E+03 0.  0.
</event>
<event>
 5    0  0.5728184E-005  0.3023989E+03  0.7546771E-02  0.1084048E+00
         21   -1    0    0  502  501  0.00000000000E+00  0.00000000000E+00  0.44106741239E+03  0.44106741239E+03  0.00000000000E+00 0.  1.
         21   -1    0    0  501  502 -0.00000000000E+00 -0.00000000000E+00 -0.20732675857E+03  0.20732675857E+03  0.00000000000E+00 0.  1.
         25    1    1    2    0    0 -0.85310046725E+02 -0.17391204676E+03  0.81473664751E+01  0.23068286382E+03  0.12500000000E+03 0.  0.
         25    1    1    2    0    0  0.37351921441E+02  0.16475381473E+03  0.17774103153E+03  0.27523782406E+03  0.12500000000E+03 0.  0.
         25    1    1    2    0    0  0.47958125284E+02  0.91582320302E+01  0.47852255822E+02  0.14247348308E+03  0.12500000000E+03 0.  0.
</event>
<event>
 5    0  0.5728184E-005  0.2296066E+03  0.7546771E-02  0.1126917E+00
         21   -1    0    0  502  501  0.00000000000E+00  0.00000000000E+00  0.32121517054E+03  0.32121517054E+03  0.00000000000E+00 0.  1.
         21   -1    0    0  501  502 -0.00000000000E+00 -0.00000000000E+00 -0.16412420359E+03  0.16412420359E+03  0.00000000000E+00 0.  1.
         25    1    1    2    0    0  0.85425832088E+02 -0.19062971954E+02  0.11244404554E+02  0.15301113136E+03  0.12500000000E+03 0.  0.
         25    1    1    2    0    0 -0.12091466434E+02 -0.36856242928E+02  0.11441954346E+03  0.17384308479E+03  0.12500000000E+03 0.  0.
         25    1    1    2    0    0 -0.73334365654E+02  0.55919214882E+02  0.31427018927E+02  0.15848515797E+03  0.12500000000E+03 0.  0.
</event>
<event>
 5    0  0.5739548E-005  0.2584918E+03  0.7546771E-02  0.1108053E+00
         21   -1    0    0  502  501  0.00000000000E+00  0.00000000000E+00  0.12892371878E+04  0.12892371878E+04  0.00000000000E+00 0.  1.
         21   -1    0    0  501  502 -0.00000000000E+00 -0.00000000000E+00 -0.51827556147E+02  0.51827556147E+02  0.00000000000E+00 0.  1.
         25    1    1    2    0    0 -0.15577832901E+02 -0.77531189739E+02  0.36378045770E+03  0.39270214624E+03  0.12500000000E+03 0.  0.
         25    1    1    2    0    0 -0.25410355721E+02  0.15662627888E+03  0.61816155445E+03  0.65032775184E+03  0.12500000000E+03 0.  0.
         25    1    1    2    0    0  0.40988188623E+02 -0.79095089141E+02  0.25546761950E+03  0.29803484585E+03  0.12500000000E+03 0.  0.
</event>
<event>
 5    0  0.5728184E-005  0.4719820E+03  0.7546771E-02  0.1021362E+00
         21   -1    0    0  502  501  0.00000000000E+00  0.00000000000E+00  0.10229089994E+04  0.10229089994E+04  0.00000000000E+00 0. -1.
         21   -1    0    0  501  502 -0.00000000000E+00 -0.00000000000E+00 -0.21777797780E+03  0.21777797780E+03  0.00000000000E+00 0. -1.
         25    1    1    2    0    0  0.23306784003E+03  0.63226211428E+02  0.39314202098E+03  0.47802073232E+03  0.12500000000E+03 0.  0.
         25    1    1    2    0    0 -0.16068725755E+03 -0.30016194211E+03  0.26020930024E+03  0.44637592471E+03  0.12500000000E+03 0.  0.
         25    1    1    2    0    0 -0.72380582478E+02  0.23693573068E+03  0.15177970039E+03  0.31629032019E+03  0.12500000000E+03 0.  0.
</event>
<event>
 5    0  0.5728184E-005  0.3596641E+03  0.7546771E-02  0.1058717E+00
         21   -1    0    0  502  501  0.00000000000E+00  0.00000000000E+00  0.67849886489E+03  0.67849886489E+03  0.00000000000E+00 0. -1.
         21   -1    0    0  501  502 -0.00000000000E+00 -0.00000000000E+00 -0.19065364943E+03  0.19065364943E+03  0.00000000000E+00 0. -1.
         25    1    1    2    0    0 -0.25451322216E+03  0.48525989310E+02  0.15445837691E+03  0.32651821097E+03  0.12500000000E+03 0.  0.
         25    1    1    2    0    0  0.23036772013E+03  0.49993061092E+02  0.21837557487E+03  0.34479194355E+03  0.12500000000E+03 0.  0.
         25    1    1    2    0    0  0.24145502030E+02 -0.98519050403E+02  0.11501126368E+03  0.19784235981E+03  0.12500000000E+03 0.  0.
</event>
<event>
 5    0  0.5728184E-005  0.3005892E+03  0.7546771E-02  0.1084946E+00
         21   -1    0    0  502  501  0.00000000000E+00  0.00000000000E+00  0.11730375474E+04  0.11730375474E+04  0.00000000000E+00 0.  1.
         21   -1    0    0  501  502 -0.00000000000E+00 -0.00000000000E+00 -0.77025565633E+02  0.77025565633E+02  0.00000000000E+00 0.  1.
         25    1    1    2    0    0 -0.25447047505E+02 -0.33685770840E+01  0.79530812041E+03  0.80548054348E+03  0.12500000000E+03 0.  0.
         25    1    1    2    0    0  0.21347267360E+02 -0.93040535688E+02  0.21034608535E+03  0.26264562195E+03  0.12500000000E+03 0.  0.
         25    1    1    2    0    0  0.40997801446E+01  0.96409112772E+02  0.90357776025E+02  0.18193694762E+03  0.12500000000E+03 0.  0.
</event>
<event>
 5    0  0.7175449E-005  0.3633331E+03  0.7546771E-02  0.1057272E+00
         21   -1    0    0  502  501  0.00000000000E+00  0.00000000000E+00  0.22089320578E+03  0.22089320578E+03  0.00000000000E+00 0. -1.
         21   -1    0    0  501  502 -0.00000000000E+00 -0.00000000000E+00 -0.59762328413E+03  0.59762328413E+03  0.00000000000E+00 0. -1.
         25    1    1    2    0    0 -0.22630212469E+03 -0.53828208630E+02 -0.22591034345E+03  0.34752066264E+03  0.12500000000E+03 0.  0.
         25    1    1    2    0    0  0.60943547422E+02  0.48990840418E+01  0.77072881040E+02  0.15907025488E+03  0.12500000000E+03 0.  0.
         25    1    1    2    0    0  0.16535857726E+03  0.48929124588E+02 -0.22789261594E+03  0.31192557239E+03  0.12500000000E+03 0.  0.
</event>
<event>
 5    0  0.5728184E-005  0.2422258E+03  0.7546771E-02  0.1118319E+00
         21   -1    0    0  502  501  0.00000000000E+00  0.00000000000E+00  0.16343250163E+03  0.16343250163E+03  0.00000000000E+00 0. -1.
         21   -1    0    0  501  502 -0.00000000000E+00 -0.00000000000E+00 -0.35900647095E+03  0.35900647095E+03  0.00000000000E+00 0. -1.
         25    1    1    2    0    0  0.29367207654E+02  0.16924383964E+02 -0.20949134182E+03  0.24629350368E+03  0.12500000000E+03 0.  0.
         25    1    1    2    0    0 -0.37226121549E+02 -0.29993888916E+02  0.53525100334E+02  0.14413658059E+03  0.12500000000E+03 0.  0.
         25    1    1    2    0    0  0.78589138950E+01  0.13069504952E+02 -0.39607727834E+02  0.13200888830E+03  0.12500000000E+03 0.  0.
</event>
<event>
 5    0  0.5728184E-005  0.2849789E+03  0.7546771E-02  0.1093000E+00
         21   -1    0    0  502  501  0.00000000000E+00  0.00000000000E+00  0.97102990064E+02  0.97102990064E+02  0.00000000000E+00 0. -1.
         21   -1    0    0  501  502 -0.00000000000E+00 -0.00000000000E+00 -0.83635921202E+03  0.83635921202E+03  0.00000000000E+00 0. -1.
         25    1    1    2    0    0 -0.17568247634E+02 -0.24071339406E+02 -0.21797237701E+03  0.25303167755E+03  0.12500000000E+03 0.  0.
         25    1    1    2    0    0 -0.35957410437E+02 -0.25158386938E+02 -0.51916326909E+03  0.53579975716E+03  0.12500000000E+03 0.  0.
         25    1    1    2    0    0  0.53525658071E+02  0.49229726344E+02 -0.21205758523E+01  0.14463076737E+03  0.12500000000E+03 0.  0.
</event>
<event>
 5    0  0.5968991E-005  0.3021311E+03  0.7546771E-02  0.1084180E+00
         21   -1    0    0  502  501  0.00000000000E+00  0.00000000000E+00  0.35424637584E+03  0.35424637584E+03  0.00000000000E+00 0. -1.
         21   -1    0    0  501  502 -0.00000000000E+00 -0.00000000000E+00 -0.25768285674E+03  0.25768285674E+03  0.00000000000E+00 0. -1.
         25    1    1    2    0    0  0.21604677135E+03  0.56303552459E+01  0.77257911302E+01  0.24978509996E+03  0.12500000000E+03 0.  0.
         25    1    1    2    0    0 -0.11761490588E+03 -0.52742974197E+02  0.13951663390E+02  0.18009646394E+03  0.12500000000E+03 0.  0.
         25    1    1    2    0    0 -0.98431865469E+02  0.47112618951E+02  0.74886064579E+02  0.18204766868E+03  0.12500000000E+03 0.  0.
</event>
<event>
 5    0  0.5728184E-005  0.3653056E+03  0.7546771E-02  0.1056503E+00
         21   -1    0    0  502  501  0.00000000000E+00  0.00000000000E+00  0.33591008612E+03  0.33591008612E+03  0.00000000000E+00 0. -1.
         21   -1    0    0  501  502 -0.00000000000E+00 -0.00000000000E+00 -0.39727357618E+03  0.39727357618E+03  0.00000000000E+00 0. -1.
         25    1    1    2    0    0  0.68416440148E+02 -0.19622059337E+03  0.58237307813E+02  0.24939910699E+03  0.12500000000E+03 0.  0.
         25    1    1    2    0    0 -0.38419144739E+02  0.12660459508E+03  0.10920602901E+03  0.21226330571E+03  0.12500000000E+03 0.  0.
         25    1    1    2    0    0 -0.29997295409E+02  0.69615998297E+02 -0.22880682689E+03  0.27152124960E+03  0.12500000000E+03 0.  0.
</event>
<event>
 5    0  0.5728184E-005  0.3649522E+03  0.7546771E-02  0.1056640E+00
         21   -1    0    0  502  501  0.00000000000E+00  0.00000000000E+00  0.65183024742E+02  0.65183024742E+02  0.00000000000E+00 0. -1.
         21   -1    0    0  501  502 -0.00000000000E+00 -0.00000000000E+00 -0.20433252116E+04  0.20433252116E+04  0.00000000000E+00 0. -1.
         25    1    1    2    0    0 -0.11805954270E+03 -0.19489438745E+03 -0.99839731778E+03  0.10316705298E+04  0.12500000000E+03 0.  0.
         25    1    1    2    0    0  0.14547823426E+03  0.24148756480E+03 -0.72774790564E+03  0.79039368340E+03  0.12500000000E+03 0.  0.
         25    1    1    2    0    0 -0.27418691561E+02 -0.46593177350E+02 -0.25199696348E+03  0.28644402320E+03  0.12500000000E+03 0.  0.
</event>
<event>
 5    0  0.5728184E-005  0.3465427E+03  0.7546771E-02  0.1064043E+00
         21   -1    0    0  502  501  0.00000000000E+00  0.00000000000E+00  0.49067349005E+03  0.49067349005E+03  0.00000000000E+00 0. -1.
         21   -1    0    0  501  502 -0.00000000000E+00 -0.00000000000E+00 -0.24474901815E+03  0.24474901815E+03  0.00000000000E+00 0. -1.
         25    1    1    2    0    0  0.17332213692E+03  0.86914862142E+02  0.25869754126E+03  0.34661819667E+03  0.12500000000E+03 0.  0.
         25    1    1    2    0    0 -0.20944102571E+03 -0.51675734034E+02 -0.36349880017E+02  0.25195681876E+03  0.12500000000E+03 0.  0.
         25    1    1    2    0    0  0.36118888790E+02 -0.35239128108E+02  0.23576810651E+02  0.13684749277E+03  0.12500000000E+03 0.  0.
</event>
<event>
 5    0  0.5728184E-005  0.5531802E+03  0.7546771E-02  0.1000760E+00
         21   -1    0    0  502  501  0.00000000000E+00  0.00000000000E+00  0.11841796282E+04  0.11841796282E+04  0.00000000000E+00 0. -1.
         21   -1    0    0  501  502 -0.00000000000E+00 -0.00000000000E+00 -0.25841382340E+03  0.25841382340E+03  0.00000000000E+00 0. -1.
         25    1    1    2    0    0  0.12717023194E+03 -0.29871229329E+03  0.45902739662E+03  0.57596219746E+03  0.12500000000E+03 0.  0.
         25    1    1    2    0    0  0.55244267098E+02  0.11929772609E+03  0.54244662737E+03  0.57197659047E+03  0.12500000000E+03 0.  0.
         25    1    1    2    0    0 -0.18241449904E+03  0.17941456721E+03 -0.75708219167E+02  0.29465466369E+03  0.12500000000E+03 0.  0.
</event>
<event>
 5    0  0.5728184E-005  0.2371663E+03  0.7546771E-02  0.1121695E+00
         21   -1    0    0  502  501  0.00000000000E+00  0.00000000000E+00  0.20392297659E+03  0.20392297659E+03  0.00000000000E+00 0.  1.
         21   -1    0    0  501  502 -0.00000000000E+00 -0.00000000000E+00 -0.27582888411E+03  0.27582888411E+03  0.00000000000E+00 0.  1.
         25    1    1    2    0    0  0.48369300011E+01  0.32609801658E+02  0.19903856422E+02  0.13079739507E+03  0.12500000000E+03 0.  0.
         25    1    1    2    0    0  0.10567559021E+03 -0.23262383168E+02 -0.18116584984E+02  0.16631800711E+03  0.12500000000E+03 0.  0.
         25    1    1    2    0    0 -0.11051252021E+03 -0.93474184907E+01 -0.73693178952E+02  0.18263645852E+03  0.12500000000E+03 0.  0.
</event>
<event>
 5    0  0.5728184E-005  0.4705767E+03  0.7546771E-02  0.1021758E+00
         21   -1    0    0  502  501  0.00000000000E+00  0.00000000000E+00  0.55475288179E+03  0.55475288179E+03  0.00000000000E+00 0. -1.
         21   -1    0    0  501  502 -0.00000000000E+00 -0.00000000000E+00 -0.39917305121E+03  0.39917305121E+03  0.00000000000E+00 0. -1.
         25    1    1    2    0    0  0.30751449152E+03 -0.10354401998E+03  0.27682381018E+03  0.44445803902E+03  0.12500000000E+03 0.  0.
         25    1    1    2    0    0 -0.22156032322E+03 -0.70338787697E+02 -0.58640588855E+02  0.27037056153E+03  0.12500000000E+03 0.  0.
         25    1    1    2    0    0 -0.85954168297E+02  0.17388280767E+03 -0.62603390745E+02  0.23909733245E+03  0.12500000000E+03 0.  0.
</event>
<event>
 5    0  0.5728184E-005  0.6041600E+03  0.7546771E-02  0.9896813E-01
         21   -1    0    0  502  501  0.00000000000E+00  0.00000000000E+00  0.19959789322E+03  0.19959789322E+03  0.00000000000E+00 0. -1.
         21   -1    0    0  501  502 -0.00000000000E+00 -0.00000000000E+00 -0.18287231503E+04  0.18287231503E+04  0.00000000000E+00 0. -1.
         25    1    1    2    0    0 -0.35080306257E+03  0.75122726330E+02 -0.39519192723E+03  0.54818598310E+03  0.12500000000E+03 0.  0.
         25    1    1    2    0    0  0.46480815307E+03  0.94298316023E+02 -0.11032544422E+04  0.12073666203E+04  0.12500000000E+03 0.  0.
         25    1    1    2    0    0 -0.11400509050E+03 -0.16942104235E+03 -0.13067888763E+03  0.27276844012E+03  0.12500000000E+03 0.  0.
</event>
<event>
 5    0  0.5728184E-005  0.2627737E+03  0.7546771E-02  0.1105488E+00
         21   -1    0    0  502  501  0.00000000000E+00  0.00000000000E+00  0.17015865486E+04  0.17015865486E+04  0.00000000000E+00 0. -1.
         21   -1    0    0  501  502 -0.00000000000E+00 -0.00000000000E+00 -0.40579780709E+02  0.40579780709E+02  0.00000000000E+00 0. -1.
         25    1    1    2    0    0 -0.76227301774E+02  0.16980474309E+02  0.30943283243E+03  0.34274278377E+03  0.12500000000E+03 0.  0.
         25    1    1    2    0    0  0.54911949616E+02 -0.13128630472E+03  0.62550459223E+03  0.65355367868E+03  0.12500000000E+03 0.  0.
         25    1    1    2    0    0  0.21315352158E+02  0.11430583041E+03  0.72606934326E+03  0.74586986688E+03  0.12500000000E+03 0.  0.
</event>
<event>
 5    0  0.5728184E-005  0.2544987E+03  0.7546771E-02  0.1110494E+00
         21   -1    0    0  502  501  0.00000000000E+00  0.00000000000E+00  0.49341528558E+02  0.49341528558E+02  0.00000000000E+00 0. -1.
         21   -1    0    0  501  502 -0.00000000000E+00 -0.00000000000E+00 -0.13126793267E+04  0.13126793267E+04  0.00000000000E+00 0. -1.
         25    1    1    2    0    0  0.11854218836E+03 -0.52965083009E+02 -0.31004895199E+03  0.35862641156E+03  0.12500000000E+03 0.  0.
         25    1    1    2    0    0 -0.68022834318E+02 -0.10945902525E+02 -0.64880250780E+03  0.66431665107E+03  0.12500000000E+03 0.  0.
         25    1    1    2    0    0 -0.50519354043E+02  0.63910985534E+02 -0.30448633836E+03  0.33907779263E+03  0.12500000000E+03 0.  0.
</event>
<event>
 5    0  0.7389088E-005  0.3480189E+03  0.7546771E-02  0.1063431E+00
         21   -1    0    0  502  501  0.00000000000E+00  0.00000000000E+00  0.73806335234E+03  0.73806335234E+03  0.00000000000E+00 0.  1.
         21   -1    0    0  501  502 -0.00000000000E+00 -0.00000000000E+00 -0.16410132027E+03  0.16410132027E+03  0.00000000000E+00 0.  1.
         25    1    1    2    0    0  0.23140180347E+03  0.53797308934E+01  0.20447777758E+03  0.33318447995E+03  0.12500000000E+03 0.  0.
         25    1    1    2    0    0 -0.11169240990E+03 -0.13495618670E+03  0.20615522990E+03  0.29801568008E+03  0.12500000000E+03 0.  0.
         25    1    1    2    0    0 -0.11970939356E+03  0.12957645580E+03  0.16332902459E+03  0.27096451258E+03  0.12500000000E+03 0.  0.
</event>
<event>
 5    0  0.5728184E-005  0.2363240E+03  0.7546771E-02  0.1122266E+00
         21   -1    0    0  502  501  0.00000000000E+00  0.00000000000E+00  0.59298277906E+03  0.59298277906E+03  0.00000000000E+00 0. -1.
         21   -1    0    0  501  502 -0.00000000000E+00 -0.00000000000E+00 -0.94183198111E+02  0.94183198111E+02  0.00000000000E+00 0. -1.
         25    1    1    2    0    0 -0.56817709479E+02 -0.99182461171E+02  0.18942093494E+03  0.25410766086E+03  0.12500000000E+03 0.  0.
         25    1    1    2    0    0  0.67831642724E+01  0.52402692548E+02  0.65754071603E+02  0.15080003792E+03  0.12500000000E+03 0.  0.
         25    1    1    2    0    0  0.50034545206E+02  0.46779768622E+02  0.24362457440E+03  0.28225827839E+03  0.12500000000E+03 0.  0.
</event>
<event>
 5    0  0.5728184E-005  0.3699534E+03  0.7546771E-02  0.1054711E+00
         21   -1    0    0  502  501  0.00000000000E+00  0.00000000000E+00  0.84085311248E+02  0.84085311248E+02  0.00000000000E+00 0.  1.
         21   -1    0    0  501  502 -0.00000000000E+00 -0.00000000000E+00 -0.16276984428E+04  0.16276984428E+04  0.00000000000E+00 0.  1.
         25    1    1    2    0    0 -0.16607219508E+02  0.15320136607E+03 -0.60802938250E+03  0.63958673243E+03  0.12500000000E+03 0.  0.
         25    1    1    2    0    0  0.94960551905E+02 -0.54029102992E+02 -0.56572165190E+02  0.17539116358E+03  0.12500000000E+03 0.  0.
         25    1    1    2    0    0 -0.78353332396E+02 -0.99172263082E+02 -0.87901158387E+03  0.89680585806E+03  0.12500000000E+03 0.  0.
</event>
<event>
 5    0  0.5728184E-005  0.2970781E+03  0.7546771E-02  0.1086710E+00
         21   -1    0    0  502  501  0.00000000000E+00  0.00000000000E+00  0.16179273894E+03  0.16179273894E+03  0.00000000000E+00 0.  1.
         21   -1    0    0  501  502 -0.00000000000E+00 -0.00000000000E+00 -0.54548430973E+03  0.54548430973E+03  0.00000000000E+00 0.  1.
         25    1    1    2    0    0  0.34622385103E+02  0.82002532568E+02 -0.80702269971E+02  0.17338102917E+03  0.12500000000E+03 0.  0.
         25    1    1    2    0    0  0.11270727199E+03  0.36194767816E+02 -0.22881101936E+02  0.17367076669E+03  0.12500000000E+03 0.  0.
         25    1    1    2    0    0 -0.14732965710E+03 -0.11819730038E+03 -0.28010819888E+03  0.36022525281E+03  0.12500000000E+03 0.  0.
</event>
<event>
 5    0  0.5728184E-005  0.3414242E+03  0.7546771E-02  0.1066191E+00
         21   -1    0    0  502  501  0.00000000000E+00  0.00000000000E+00  0.25945076522E+03  0.25945076522E+03  0.00000000000E+00 0. -1.
         21   -1    0    0  501  502 -0.00000000000E+00 -0.00000000000E+00 -0.44929718544E+03  0.44929718544E+03  0.00000000000E+00 0. -1.
         25    1    1    2    0    0 -0.77112170606E+02  0.23803611020E+02 -0.33285384499E+02  0.15246578493E+03  0.12500000000E+03 0.  0.
         25    1    1    2    0    0  0.20655468508E+03  0.13594936486E+03 -0.15844369190E+02  0.27753037991E+03  0.12500000000E+03 0.  0.
         25    1    1    2    0    0 -0.12944251448E+03 -0.15975297588E+03 -0.14071666653E+03  0.27875178582E+03  0.12500000000E+03 0.  0.
</event>
<event>
 5    0  0.5728184E-005  0.3233855E+03  0.7546771E-02  0.1074102E+00
         21   -1    0    0  502  501  0.00000000000E+00  0.00000000000E+00  0.95246093004E+03  0.95246093004E+03  0.00000000000E+00 0.  1.
         21   -1    0    0  501  502 -0.00000000000E+00 -0.00000000000E+00 -0.10979787678E+03  0.10979787678E+03  0.00000000000E+00 0. -1.
         25    1    1    2    0    0 -0.81135731436E+02 -0.88157510739E+01  0.18487522375E+03  0.23762275300E+03  0.12500000000E+03 0.  0.
         25    1    1    2    0    0 -0.12927635708E+03 -0.12440525725E+03  0.29270601571E+03  0.36536400502E+03  0.12500000000E+03 0.  0.
         25    1    1    2    0    0  0.21041208851E+03  0.13322100833E+03  0.36508181380E+03  0.45927204881E+03  0.12500000000E+03 0.  0.
</event>
<event>
 5    0  0.5728184E-005  0.2251249E+03  0.7546771E-02  0.1130119E+00
         21   -1    0    0  502  501  0.00000000000E+00  0.00000000000E+00  0.98461791857E+03  0.98461791857E+03  0.00000000000E+00 0. -1.
         21   -1    0    0  501  502 -0.00000000000E+00 -0.00000000000E+00 -0.51472962037E+02  0.51472962037E+02  0.00000000000E+00 0. -1.
         25    1    1    2    0    0  0.30620887279E+02  0.42314070287E+02  0.23481260184E+03  0.27109053334E+03  0.12500000000E+03 0.  0.
         25    1    1    2    0    0 -0.10834980868E+02  0.22491648459E+02  0.52777802915E+03  0.54295296216E+03  0.12500000000E+03 0.  0.
         25    1    1    2    0    0 -0.19785906411E+02 -0.64805718746E+02  0.17055432554E+03  0.22204738511E+03  0.12500000000E+03 0.  0.
</event>
<event>
 5    0  0.5728184E-005  0.2531495E+03  0.7546771E-02  0.1111330E+00
         21   -1    0    0  502  501  0.00000000000E+00  0.00000000000E+00  0.19161862520E+03  0.19161862520E+03  0.00000000000E+00 0. -1.
         21   -1    0    0  501  502 -0.00000000000E+00 -0.00000000000E+00 -0.33443870195E+03  0.33443870195E+03  0.00000000000E+00 0. -1.
         25    1    1    2    0    0 -0.99220262657E+02  0.70570742360E+02 -0.14926764977E+03  0.22963170832E+03  0.12500000000E+03 0.  0.
         25    1    1    2    0    0  0.99962705040E+02 -0.19175017808E+02  0.32558038552E+01  0.16123220511E+03  0.12500000000E+03 0.  0.
         25    1    1    2    0    0 -0.74244238250E+00 -0.51395724552E+02  0.31917691653E+01  0.13519341372E+03  0.12500000000E+03 0.  0.
</event>
<event>
 5    0  0.5728184E-005  0.3281188E+03  0.7546771E-02  0.1071972E+00
         21   -1    0    0  502  501  0.00000000000E+00  0.00000000000E+00  0.13065446058E+03  0.13065446058E+03  0.00000000000E+00 0.  1.
         21   -1    0    0  501  502 -0.00000000000E+00 -0.00000000000E+00 -0.82402022205E+03  0.82402022205E+03  0.00000000000E+00 0.  1.
         25    1    1    2    0    0 -0.15067145310E+03 -0.39271496628E+02 -0.42923903326E+03  0.47340815888E+03  0.12500000000E+03 0.  0.
         25    1    1    2    0    0  0.12795030013E+03 -0.70569128537E+02 -0.32281978852E+02  0.19498309507E+03  0.12500000000E+03 0.  0.
         25    1    1    2    0    0  0.22721152966E+02  0.10984062516E+03 -0.23184474936E+03  0.28628342867E+03  0.12500000000E+03 0.  0.
</event>
<event>
 5    0  0.6219186E-005  0.2963485E+03  0.7546771E-02  0.1087080E+00
         21   -1    0    0  502  501  0.00000000000E+00  0.00000000000E+00  0.14547010136E+03  0.14547010136E+03  0.00000000000E+00 0.  1.
         21   -1    0    0  501  502 -0.00000000000E+00 -0.00000000000E+00 -0.60371469556E+03  0.60371469556E+03  0.00000000000E+00 0.  1.
         25    1    1    2    0    0 -0.13957851799E+03 -0.89599439865E+02 -0.16689194614E+03  0.26643600356E+03  0.12500000000E+03 0.  0.
         25    1    1    2    0    0  0.21734489123E+02  0.34008493448E+02  0.96870785001E+01  0.13171106686E+03  0.12500000000E+03 0.  0.
         25    1    1    2    0    0  0.11784402886E+03  0.55590946417E+02 -0.30103972655E+03  0.35103772650E+03  0.12500000000E+03 0.  0.
</event>
<event>
 5    0  0.5728184E-005  0.2775431E+03  0.7546771E-02  0.1097038E+00
         21   -1    0    0  502  501  0.00000000000E+00  0.00000000000E+00  0.28264611217E+03  0.28264611217E+03  0.00000000000E+00 0. -1.
         21   -1    0    0  501  502 -0.00000000000E+00 -0.00000000000E+00 -0.27253228932E+03  0.27253228932E+03  0.00000000000E+00 0. -1.
         25    1    1    2    0    0  0.15925171664E+03 -0.15613282968E+02  0.85944244781E+02  0.22049103625E+03  0.12500000000E+03 0.  0.
         25    1    1    2    0    0 -0.79565078326E+02 -0.22190291175E+02  0.24390058592E+02  0.15179883290E+03  0.12500000000E+03 0.  0.
         25    1    1    2    0    0 -0.79686638313E+02  0.37803574143E+02 -0.10022048052E+03  0.18288853234E+03  0.12500000000E+03 0.  0.
</event>
<event>
 5    0  0.5728184E-005  0.3390621E+03  0.7546771E-02  0.1067196E+00
         21   -1    0    0  502  501  0.00000000000E+00  0.00000000000E+00  0.13386929303E+03  0.13386929303E+03  0.00000000000E+00 0. -1.
         21   -1    0    0  501  502 -0.00000000000E+00 -0.00000000000E+00 -0.85877150102E+03  0.85877150102E+03  0.00000000000E+00 0. -1.
         25    1    1    2    0    0 -0.14759564327E+03  0.33781557534E+02 -0.75350381816E+01  0.19648777148E+03  0.12500000000E+03 0.  0.
         25    1    1    2    0    0  0.11295640664E+02 -0.53152938676E+02 -0.45211517248E+03  0.47221388753E+03  0.12500000000E+03 0.  0.
         25    1    1    2    0    0  0.13630000261E+03  0.19371381142E+02 -0.26525199732E+03  0.32393913503E+03  0.12500000000E+03 0.  0.
</event>
<event>
 5    0  0.5728184E-005  0.3242818E+03  0.7546771E-02  0.1073695E+00
         21   -1    0    0  502  501  0.00000000000E+00  0.00000000000E+00  0.39492083136E+03  0.39492083136E+03  0.00000000000E+00 0. -1.
         21   -1    0    0  501  502 -0.00000000000E+00 -0.00000000000E+00 -0.26627792870E+03  0.26627792870E+03  0.00000000000E+00 0. -1.
         25    1    1    2    0    0  0.62929683805E+02  0.15457419046E+03  0.24356276770E+02  0.20993225974E+03  0.12500000000E+03 0.  0.
         25    1    1    2    0    0 -0.34620290520E+02  0.25718219503E+02 -0.87448013499E+02  0.15853121584E+03  0.12500000000E+03 0.  0.
         25    1    1    2    0    0 -0.28309393285E+02 -0.18029240996E+03  0.19173463939E+03  0.29273528448E+03  0.12500000000E+03 0.  0.
</event>
<event>
 5    0  0.5728184E-005  0.3281208E+03  0.7546771E-02  0.1071971E+00
         21   -1    0    0  502  501  0.00000000000E+00  0.00000000000E+00  0.98962287181E+03  0.98962287181E+03  0.00000000000E+00 0. -1.
         21   -1    0    0  501  502 -0.00000000000E+00 -0.00000000000E+00 -0.10879219856E+03  0.10879219856E+03  0.00000000000E+00 0. -1.
         25    1    1    2    0    0  0.91692544223E-01  0.95930150910E+02  0.76629018163E+03  0.78232234068E+03  0.12500000000E+03 0.  0.
         25    1    1    2    0    0 -0.28539768560E+02 -0.10529831694E+03  0.59389750870E+02  0.17622257644E+03  0.12500000000E+03 0.  0.
         25    1    1    2    0    0  0.28448076016E+02  0.93681660260E+01  0.55150740750E+02  0.13987015325E+03  0.12500000000E+03 0.  0.
</event>
<event>
 5    0  0.5728184E-005  0.3435357E+03  0.7546771E-02  0.1065300E+00
         21   -1    0    0  502  501  0.00000000000E+00  0.00000000000E+00  0.64057859002E+02  0.64057859002E+02  0.00000000000E+00 0. -1.
         21   -1    0    0  501  502 -0.00000000000E+00 -0.00000000000E+00 -0.18423468485E+04  0.18423468485E+04  0.00000000000E+00 0. -1.
         25    1    1    2    0    0  0.23151011580E+03  0.42598243090E+02 -0.57858453601E+03  0.63702167101E+03  0.12500000000E+03 0.  0.
         25    1    1    2    0    0 -0.10342173949E+03 -0.48169359036E+02 -0.93247909704E+03  0.94771230327E+03  0.12500000000E+03 0.  0.
         25    1    1    2    0    0 -0.12808837631E+03  0.55711159462E+01 -0.26722535644E+03  0.32167073321E+03  0.12500000000E+03 0.  0.
</event>
<event>
 5    0  0.5728184E-005  0.3155669E+03  0.7546771E-02  0.1077708E+00
         21   -1    0    0  502  501  0.00000000000E+00  0.00000000000E+00  0.33451846782E+03  0.33451846782E+03  0.00000000000E+00 0. -1.
         21   -1    0    0  501  502 -0.00000000000E+00 -0.00000000000E+00 -0.29768904058E+03  0.29768904058E+03  0.00000000000E+00 0. -1.
         25    1    1    2    0    0  0.86831120412E+02  0.15735598372E+02  0.18351717175E+03  0.23893682189E+03  0.12500000000E+03 0.  0.
         25    1    1    2    0    0 -0.57973185480E+02 -0.76322172856E+02 -0.18822746851E+03  0.24543949194E+03  0.12500000000E+03 0.  0.
         25    1    1    2    0    0 -0.28857934931E+02  0.60586574484E+02  0.41539724011E+02  0.14783119457E+03  0.12500000000E+03 0.  0.
</event>
<event>
 5    0  0.5728184E-005  0.3696615E+03  0.7546771E-02  0.1054822E+00
         21   -1    0    0  502  501  0.00000000000E+00  0.00000000000E+00  0.96039426052E+02  0.96039426052E+02  0.00000000000E+00 0. -1.
         21   -1    0    0  501  502 -0.00000000000E+00 -0.00000000000E+00 -0.14228493665E+04  0.14228493665E+04  0.00000000000E+00 0. -1.
         25    1    1    2    0    0  0.12678085586E+01  0.14686794538E+02 -0.68808702734E+03  0.69950415757E+03  0.12500000000E+03 0.  0.
         25    1    1    2    0    0  0.44740238252E+02 -0.84734608067E+02  0.57178121769E+01  0.15760500024E+03  0.12500000000E+03 0.  0.
         25    1    1    2    0    0 -0.46008046811E+02  0.70047813529E+02 -0.64444072531E+03  0.66177963476E+03  0.12500000000E+03 0.  0.
</event>
<event>
 5    0  0.5728184E-005  0.3071409E+03  0.7546771E-02  0.1081724E+00
         21   -1    0    0  502  501  0.00000000000E+00  0.00000000000E+00  0.63706757756E+02  0.63706757756E+02  0.00000000000E+00 0. -1.
         21   -1    0    0  501  502 -0.00000000000E+00 -0.00000000000E+00 -0.14807777755E+04  0.14807777755E+04  0.00000000000E+00 0. -1.
         25    1    1    2    0    0  0.13430535466E+03  0.11952072776E+03 -0.67862288502E+03  0.71307583940E+03  0.12500000000E+03 0.  0.
         25    1    1    2    0    0 -0.16155604459E+03 -0.54141659752E+02 -0.58111653738E+03  0.61834707477E+03  0.12500000000E+03 0.  0.
         25    1    1    2    0    0  0.27250689926E+02 -0.65379068010E+02 -0.15733159534E+03  0.21306161909E+03  0.12500000000E+03 0.  0.
</event>
<event>
 5    0  0.5728184E-005  0.4326641E+03  0.7546771E-02  0.1033022E+00
         21   -1    0    0  502  501  0.00000000000E+00  0.00000000000E+00  0.10764628492E+04  0.10764628492E+04  0.00000000000E+00 0.  1.
         21   -1    0    0  501  502 -0.00000000000E+00 -0.00000000000E+00 -0.17390127134E+03  0.17390127134E+03  0.00000000000E+00 0.  1.
         25    1    1    2    0    0 -0.44850735171E+02  0.46436697854E+02 -0.90938677769E+01  0.14098104051E+03  0.12500000000E+03 0.  0.
         25    1    1    2    0    0  0.20187839354E+03 -0.18306508395E+03  0.77454021609E+03  0.83054515655E+03  0.12500000000E+03 0.  0.
         25    1    1    2    0    0 -0.15702765837E+03  0.13662838610E+03  0.13711522952E+03  0.27883792344E+03  0.12500000000E+03 0.  0.
</event>
<event>
 5    0  0.5728184E-005  0.2689605E+03  0.7546771E-02  0.1101876E+00
         21   -1    0    0  502  501  0.00000000000E+00  0.00000000000E+00  0.47970121901E+03  0.47970121901E+03  0.00000000000E+00 0.  1.
         21   -1    0    0  501  502 -0.00000000000E+00 -0.00000000000E+00 -0.15080164852E+03  0.15080164852E+03  0.00000000000E+00 0.  1.
         25    1    1    2    0    0 -0.90229995888E+02  0.12370880336E+03  0.99876913908E+02  0.22146267884E+03  0.12500000000E+03 0.  0.
         25    1    1    2    0    0  0.12244373197E+03 -0.27550279985E+02  0.13413213636E+03  0.22218891834E+03  0.12500000000E+03 0.  0.
         25    1    1    2    0    0 -0.32213736084E+02 -0.96158523371E+02  0.94890520218E+02  0.18685127036E+03  0.12500000000E+03 0.  0.
</event>
<event>
 5    0  0.5728184E-005  0.3456314E+03  0.7546771E-02  0.1064423E+00
         21   -1    0    0  502  501  0.00000000000E+00  0.00000000000E+00  0.84471219557E+02  0.84471219557E+02  0.00000000000E+00 0.  1.
         21   -1    0    0  501  502 -0.00000000000E+00 -0.00000000000E+00 -0.14142219048E+04  0.14142219048E+04  0.00000000000E+00 0.  1.
         25    1    1    2    0    0  0.60997948880E+02 -0.96803458742E+01 -0.20502161011E+02  0.14092479367E+03  0.12500000000E+03 0.  0.
         25    1    1    2    0    0 -0.10877257075E+03  0.67912656036E+02 -0.41939966515E+03  0.45603144642E+03  0.12500000000E+03 0.  0.
         25    1    1    2    0    0  0.47774621866E+02 -0.58232310161E+02 -0.88984885905E+03  0.90173688424E+03  0.12500000000E+03 0.  0.
</event>
<event>
 5    0  0.5728184E-005  0.3341400E+03  0.7546771E-02  0.1069320E+00
         21   -1    0    0  502  501  0.00000000000E+00  0.00000000000E+00  0.13661240114E+04  0.13661240114E+04  0.00000000000E+00 0. -1.
         21   -1    0    0  501  502 -0.00000000000E+00 -0.00000000000E+00 -0.81727244748E+02  0.81727244748E+02  0.00000000000E+00 0. -1.
         25    1    1    2    0    0  0.11676753482E+03  0.15881432255E+03  0.41406626665E+03  0.47532359442E+03  0.12500000000E+03 0.  0.
         25    1    1    2    0    0  0.81984440891E+02 -0.22057964932E+01  0.25575970302E+03  0.29625046797E+03  0.12500000000E+03 0.  0.
         25    1    1    2    0    0 -0.19875197571E+03 -0.15660852606E+03  0.61457079696E+03  0.67627719373E+03  0.12500000000E+03 0.  0.
</event>
<event>
 5    0  0.5728184E-005  0.4611763E+03  0.7546771E-02  0.1024441E+00
         21   -1    0    0  502  501  0.00000000000E+00  0.00000000000E+00  0.27818522191E+03  0.27818522191E+03  0.00000000000E+00 0. -1.
         21   -1    0    0  501  502 -0.00000000000E+00 -0.00000000000E+00 -0.76453959489E+03  0.76453959489E+03  0.00000000000E+00 0. -1.
         25    1    1    2    0    0 -0.31067300501E+03  0.33017218900E+01 -0.30835641938E+03  0.45523323558E+03  0.12500000000E+03 0.  0.
         25    1    1    2    0    0  0.69457538218E+02 -0.12321519044E+03  0.69256927847E+02  0.20106679195E+03  0.12500000000E+03 0.  0.
         25    1    1    2    0    0  0.24121546679E+03  0.11991346855E+03 -0.24725488146E+03  0.38642478927E+03  0.12500000000E+03 0.  0.
</event>
<event>
 5    0  0.5728184E-005  0.2418831E+03  0.7546771E-02  0.1118545E+00
         21   -1    0    0  502  501  0.00000000000E+00  0.00000000000E+00  0.10635316457E+03  0.10635316457E+03  0.00000000000E+00 0.  1.
         21   -1    0    0  501  502 -0.00000000000E+00 -0.00000000000E+00 -0.55012386746E+03  0.55012386746E+03  0.00000000000E+00 0.  1.
         25    1    1    2    0    0  0.11653567331E+02 -0.30962186484E+02 -0.28443955158E+03  0.31245050988E+03  0.12500000000E+03 0.  0.
         25    1    1    2    0    0 -0.55021313693E+01  0.72376380597E+02 -0.15527109953E+03  0.21213846485E+03  0.12500000000E+03 0.  0.
         25    1    1    2    0    0 -0.61514359618E+01 -0.41414194113E+02 -0.40600517860E+01  0.13188805730E+03  0.12500000000E+03 0.  0.
</event>
<event>
 5    0  0.5728184E-005  0.4285224E+03  0.7546771E-02  0.1034328E+00
         21   -1    0    0  502  501  0.00000000000E+00  0.00000000000E+00  0.34986190814E+03  0.34986190814E+03  0.00000000000E+00 0.  1.
         21   -1    0    0  501  502 -0.00000000000E+00 -0.00000000000E+00 -0.52486840750E+03  0.52486840750E+03  0.00000000000E+00 0.  1.
         25    1    1    2    0    0 -0.18477444492E+03 -0.63780427227E+02 -0.31807875144E+03  0.39371135431E+03  0.12500000000E+03 0.  0.
         25    1    1    2    0    0  0.40389961663E+02  0.18444032471E+03  0.30053587033E+02  0.22842460567E+03  0.12500000000E+03 0.  0.
         25    1    1    2    0    0  0.14438448326E+03 -0.12065989748E+03  0.11301866504E+03  0.25259435567E+03  0.12500000000E+03 0.  0.
</event>
<event>
 5    0  0.6584146E-005  0.3492826E+03  0.7546771E-02  0.1062910E+00
         21   -1    0    0  502  501  0.00000000000E+00  0.00000000000E+00  0.52443006273E+03  0.52443006273E+03  0.00000000000E+00 0. -1.
         21   -1    0    0  501  502 -0.00000000000E+00 -0.00000000000E+00 -0.23263027779E+03  0.23263027779E+03  0.00000000000E+00 0. -1.
         25    1    1    2    0    0  0.64034458132E+02  0.89190477949E+02 -0.14342630005E+02  0.16699121001E+03  0.12500000000E+03 0.  0.
         25    1    1    2    0    0  0.25980681225E+02 -0.22623981657E+03  0.55712766989E+02  0.26568470563E+03  0.12500000000E+03 0.  0.
         25    1    1    2    0    0 -0.90015139357E+02  0.13704933863E+03  0.25042964796E+03  0.32438442488E+03  0.12500000000E+03 0.  0.
</event>
<event>
 5    0  0.5728184E-005  0.2226534E+03  0.7546771E-02  0.1131920E+00
         21   -1    0    0  502  501  0.00000000000E+00  0.00000000000E+00  0.14442126111E+04  0.14442126111E+04  0.00000000000E+00 0.  1.
         21   -1    0    0  501  502 -0.00000000000E+00 -0.00000000000E+00 -0.34326351113E+02  0.34326351113E+02  0.00000000000E+00 0.  1.
         25    1    1    2    0    0  0.37505451628E+02 -0.46637834751E+02  0.40161166855E+03  0.42485136089E+03  0.12500000000E+03 0.  0.
         25    1    1    2    0    0  0.21357346400E+02  0.67044514952E+02  0.70984439567E+03  0.72419277081E+03  0.12500000000E+03 0.  0.
         25    1    1    2    0    0 -0.58862798027E+02 -0.20406680201E+02  0.29843019574E+03  0.32949483049E+03  0.12500000000E+03 0.  0.
</event>
<event>
 5    0  0.5728184E-005  0.3829641E+03  0.7546771E-02  0.1049844E+00
         21   -1    0    0  502  501  0.00000000000E+00  0.00000000000E+00  0.18984830716E+03  0.18984830716E+03  0.00000000000E+00 0.  1.
         21   -1    0    0  501  502 -0.00000000000E+00 -0.00000000000E+00 -0.77251927838E+03  0.77251927838E+03  0.00000000000E+00 0.  1.
         25    1    1    2    0    0 -0.22802272339E+03  0.30131198896E+02 -0.12178274498E+03  0.28871835499E+03  0.12500000000E+03 0.  0.
         25    1    1    2    0    0  0.18109163081E+03  0.12096687153E+03 -0.12167002665E+03  0.27902644703E+03  0.12500000000E+03 0.  0.
         25    1    1    2    0    0  0.46931092586E+02 -0.15109807043E+03 -0.33921819960E+03  0.39462278353E+03  0.12500000000E+03 0.  0.
</event>
<event>
 5    0  0.5728184E-005  0.3386750E+03  0.7546771E-02  0.1067362E+00
         21   -1    0    0  502  501  0.00000000000E+00  0.00000000000E+00  0.82272701980E+02  0.82272701980E+02  0.00000000000E+00 0. -1.
         21   -1    0    0  501  502 -0.00000000000E+00 -0.00000000000E+00 -0.13941530935E+04  0.13941530935E+04  0.00000000000E+00 0. -1.
         25    1    1    2    0    0 -0.35354048731E+02 -0.83733447278E+02 -0.87153870967E+02  0.17743166622E+03  0.12500000000E+03 0.  0.
         25    1    1    2    0    0 -0.72132252698E+02  0.18048736985E+03 -0.52465300272E+03  0.57329270519E+03  0.12500000000E+03 0.  0.
         25    1    1    2    0    0  0.10748630143E+03 -0.96753922574E+02 -0.70007351787E+03  0.72570142410E+03  0.12500000000E+03 0.  0.
</event>
<event>
 5    0  0.5728184E-005  0.3162898E+03  0.7546771E-02  0.1077370E+00
         21   -1    0    0  502  501  0.00000000000E+00  0.00000000000E+00  0.46716502611E+03  0.46716502611E+03  0.00000000000E+00 0. -1.
         21   -1    0    0  501  502 -0.00000000000E+00 -0.00000000000E+00 -0.21414114833E+03  0.21414114833E+03  0.00000000000E+00 0. -1.
         25    1    1    2    0    0  0.44129027118E+02 -0.15277707454E+03  0.25582255871E+02  0.20388147870E+03  0.12500000000E+03 0.  0.
         25    1    1    2    0    0 -0.63195649663E+02  0.18527089266E+03  0.21053443443E+02  0.23321072292E+03  0.12500000000E+03 0.  0.
         25    1    1    2    0    0  0.19066622545E+02 -0.32493818119E+02  0.20638817846E+03  0.24421397282E+03  0.12500000000E+03 0.  0.
</event>
<event>
 5    0  0.5728184E-005  0.2346184E+03  0.7546771E-02  0.1123431E+00
         21   -1    0    0  502  501  0.00000000000E+00  0.00000000000E+00  0.99110668660E+03  0.99110668660E+03  0.00000000000E+00 0.  1.
         21   -1    0    0  501  502 -0.00000000000E+00 -0.00000000000E+00 -0.55539711274E+02  0.55539711274E+02  0.00000000000E+00 0.  1.
         25    1    1    2    0    0 -0.61487419441E+02  0.82497935229E+02  0.39021398678E+03  0.42246723843E+03  0.12500000000E+03 0.  0.
         25    1    1    2    0    0  0.85366661780E+02 -0.47817257357E+02  0.38568718911E+03  0.41707740875E+03  0.12500000000E+03 0.  0.
         25    1    1    2    0    0 -0.23879242339E+02 -0.34680677872E+02  0.15966579943E+03  0.20710175069E+03  0.12500000000E+03 0.  0.
</event>
<event>
 5    0  0.5728184E-005  0.2400422E+03  0.7546771E-02  0.1119765E+00
         21   -1    0    0  502  501  0.00000000000E+00  0.00000000000E+00  0.23354386867E+03  0.23354386867E+03  0.00000000000E+00 0. -1.
         21   -1    0    0  501  502 -0.00000000000E+00 -0.00000000000E+00 -0.24672125740E+03  0.24672125740E+03  0.00000000000E+00 0. -1.
         25    1    1    2    0    0 -0.22822700576E+02 -0.58554472773E+02 -0.29943705819E+02  0.14307734783E+03  0.12500000000E+03 0.  0.
         25    1    1    2    0    0  0.10676327447E+03 -0.16291344581E+02  0.32317110798E+02  0.16832468724E+03  0.12500000000E+03 0.  0.
         25    1    1    2    0    0 -0.83940573890E+02  0.74845817353E+02 -0.15550793710E+02  0.16886309101E+03  0.12500000000E+03 0.  0.
</event>
<event>
 5    0  0.5728184E-005  0.2536166E+03  0.7546771E-02  0.1111040E+00
         21   -1    0    0  502  501  0.00000000000E+00  0.00000000000E+00  0.17654440503E+04  0.17654440503E+04  0.00000000000E+00 0.  1.
         21   -1    0    0  501  502 -0.00000000000E+00 -0.00000000000E+00 -0.36433532137E+02  0.36433532137E+02  0.00000000000E+00 0.  1.
         25    1    1    2    0    0 -0.79347977185E+02  0.16628051007E+01  0.19706413176E+03  0.24649165996E+03  0.12500000000E+03 0.  0.
         25    1    1    2    0    0  0.66055040025E+02  0.12065107727E+02  0.86429670114E+03  0.87586678367E+03  0.12500000000E+03 0.  0.
         25    1    1    2    0    0  0.13292937160E+02 -0.13727912827E+02  0.66764968531E+03  0.67951913885E+03  0.12500000000E+03 0.  0.
</event>
<event>
 5    0  0.5728184E-005  0.2638128E+03  0.7546771E-02  0.1104874E+00
         21   -1    0    0  502  501  0.00000000000E+00  0.00000000000E+00  0.15773473160E+03  0.15773473160E+03  0.00000000000E+00 0.  1.
         21   -1    0    0  501  502 -0.00000000000E+00 -0.00000000000E+00 -0.44122946347E+03  0.44122946347E+03  0.00000000000E+00 0.  1.
         25    1    1    2    0    0 -0.40797226398E+02 -0.13135502945E+03 -0.76715627837E+02  0.20106925423E+03  0.12500000000E+03 0.  0.
         25    1    1    2    0    0  0.58938555631E+02  0.92908347675E+02 -0.20724944825E+03  0.26586283720E+03  0.12500000000E+03 0.  0.
         25    1    1    2    0    0 -0.18141329233E+02  0.38446681772E+02  0.47034420939E+00  0.13203210363E+03  0.12500000000E+03 0.  0.
</event>
<event>
 5    0  0.5728184E-005  0.4679247E+03  0.7546771E-02  0.1022508E+00
         21   -1    0    0  502  501  0.00000000000E+00  0.00000000000E+00  0.41802343946E+03  0.41802343946E+03  0.00000000000E+00 0.  1.
         21   -1    0    0  501  502 -0.00000000000E+00 -0.00000000000E+00 -0.52378280655E+03  0.52378280655E+03  0.00000000000E+00 0.  1.
         25    1    1    2    0    0  0.30228070648E+02 -0.89772775713E+02  0.14581919460E+02  0.15751355462E+03  0.12500000000E+03 0.  0.
         25    1    1    2    0    0  0.71194090100E+02 -0.29346029218E+03 -0.16521895659E+03  0.36621011068E+03  0.12500000000E+03 0.  0.
         25    1    1    2    0    0 -0.10142216075E+03  0.38323306789E+03  0.44877670037E+02  0.41808258070E+03  0.12500000000E+03 0.  0.
</event>
<event>
 5    0  0.5728184E-005  0.3052243E+03  0.7546771E-02  0.1082658E+00
         21   -1    0    0  502  501  0.00000000000E+00  0.00000000000E+00  0.93496430825E+03  0.93496430825E+03  0.00000000000E+00 0. -1.
         21   -1    0    0  501  502 -0.00000000000E+00 -0.00000000000E+00 -0.99642173321E+02  0.99642173321E+02  0.00000000000E+00 0. -1.
         25    1    1    2    0    0  0.93395230755E+02  0.60636051987E+02  0.58624275863E+03  0.60967612056E+03  0.12500000000E+03 0.  0.
         25    1    1    2    0    0  0.10980011463E+02  0.47736856009E+02  0.43423794103E+02  0.14110277803E+03  0.12500000000E+03 0.  0.
         25    1    1    2    0    0 -0.10437524222E+03 -0.10837290800E+03  0.20565558220E+03  0.28382758299E+03  0.12500000000E+03 0.  0.
</event>
<event>
 5    0  0.5728184E-005  0.3624186E+03  0.7546771E-02  0.1057630E+00
         21   -1    0    0  502  501  0.00000000000E+00  0.00000000000E+00  0.32985476453E+03  0.32985476453E+03  0.00000000000E+00 0. -1.
         21   -1    0    0  501  502 -0.00000000000E+00 -0.00000000000E+00 -0.39819719972E+03  0.39819719972E+03  0.00000000000E+00 0. -1.
         25    1    1    2    0    0  0.25767341734E+03  0.15293066925E+02 -0.10681591673E+02  0.28699924094E+03  0.12500000000E+03 0.  0.
         25    1    1    2    0    0 -0.21906000386E+03  0.70988996243E+01 -0.13629950901E+03  0.28677558443E+03  0.12500000000E+03 0.  0.
         25    1    1    2    0    0 -0.38613413480E+02 -0.22391966549E+02  0.78638665494E+02  0.15427713887E+03  0.12500000000E+03 0.  0.
</event>
<event>
 5    0  0.5728184E-005  0.3553009E+03  0.7546771E-02  0.1060460E+00
         21   -1    0    0  502  501  0.00000000000E+00  0.00000000000E+00  0.23858428287E+03  0.23858428287E+03  0.00000000000E+00 0. -1.
         21   -1    0    0  501  502 -0.00000000000E+00 -0.00000000000E+00 -0.52911593532E+03  0.52911593532E+03  0.00000000000E+00 0. -1.
         25    1    1    2    0    0  0.10390220088E+03  0.12759106469E+03  0.29994118006E+02  0.20880563750E+03  0.12500000000E+03 0.  0.
         25    1    1    2    0    0  0.16015589177E+02 -0.19392305620E+03 -0.28997581260E+03  0.37090918393E+03  0.12500000000E+03 0.  0.
         25    1    1    2    0    0 -0.11991779006E+03  0.66331991516E+02 -0.30549957848E+02  0.18798539676E+03  0.12500000000E+03 0.  0.
</event>
<event>
 5    0  0.5728184E-005  0.2973026E+03  0.7546771E-02  0.1086597E+00
         21   -1    0    0  502  501  0.00000000000E+00  0.00000000000E+00  0.38752495595E+03  0.38752495595E+03  0.00000000000E+00 0. -1.
         21   -1    0    0  501  502 -0.00000000000E+00 -0.00000000000E+00 -0.22808550362E+03  0.22808550362E+03  0.00000000000E+00 0. -1.
         25    1    1    2    0    0  0.15645694106E+03  0.78550185313E+02 -0.88694658512E+01  0.21529647801E+03  0.12500000000E+03 0.  0.
         25    1    1    2    0    0 -0.23246073781E+02  0.13433343556E+02 -0.10990650579E+02  0.12832236386E+03  0.12500000000E+03 0.  0.
         25    1    1    2    0    0 -0.13321086728E+03 -0.91983528868E+02  0.17929956876E+03  0.27199161771E+03  0.12500000000E+03 0.  0.
</event>
<event>
 5    0  0.5809318E-005  0.2743056E+03  0.7546771E-02  0.1098840E+00
         21   -1    0    0  502  501  0.00000000000E+00  0.00000000000E+00  0.46454303199E+03  0.46454303199E+03  0.00000000000E+00 0.  1.
         21   -1    0    0  501  502 -0.00000000000E+00 -0.00000000000E+00 -0.16197329910E+03  0.16197329910E+03  0.00000000000E+00 0.  1.
         25    1    1    2    0    0 -0.21591044852E+02  0.22884529830E+02 -0.76978666357E+02  0.15013523903E+03  0.12500000000E+03 0.  0.
         25    1    1    2    0    0  0.70140379505E+02  0.16399211486E+02  0.23174423040E+03  0.27298167575E+03  0.12500000000E+03 0.  0.
         25    1    1    2    0    0 -0.48549334654E+02 -0.39283741315E+02  0.14780416885E+03  0.20339941632E+03  0.12500000000E+03 0.  0.
</event>
<event>
 5    0  0.5894312E-005  0.2830549E+03  0.7546771E-02  0.1094032E+00
         21   -1    0    0  502  501  0.00000000000E+00  0.00000000000E+00  0.12432911744E+04  0.12432911744E+04  0.00000000000E+00 0. -1.
         21   -1    0    0  501  502 -0.00000000000E+00 -0.00000000000E+00 -0.64441926683E+02  0.64441926683E+02  0.00000000000E+00 0. -1.
         25    1    1    2    0    0 -0.92612469685E+02  0.93587796340E+02  0.17887819872E+03  0.25486889795E+03  0.12500000000E+03 0.  0.
         25    1    1    2    0    0 -0.15446762688E+02 -0.41416969409E+02  0.63705058583E+03  0.65070148051E+03  0.12500000000E+03 0.  0.
         25    1    1    2    0    0  0.10805923237E+03 -0.52170826932E+02  0.36292046320E+03  0.40216272265E+03  0.12500000000E+03 0.  0.
</event>
<event>
 5    0  0.5728184E-005  0.7944251E+03  0.7546771E-02  0.9568122E-01
         21   -1    0    0  502  501  0.00000000000E+00  0.00000000000E+00  0.98271523011E+03  0.98271523011E+03  0.00000000000E+00 0.  1.
         21   -1    0    0  501  502 -0.00000000000E+00 -0.00000000000E+00 -0.64221166148E+03  0.64221166148E+03  0.00000000000E+00 0.  1.
         25    1    1    2    0    0  0.89146267584E+02  0.73392237027E+02  0.56613227901E+02  0.17934195007E+03  0.12500000000E+03 0.  0.
         25    1    1    2    0    0 -0.48411837023E+03 -0.57014518681E+03  0.24763842668E+03  0.79773800261E+03  0.12500000000E+03 0.  0.
         25    1    1    2    0    0  0.39497210264E+03  0.49675294978E+03  0.36251914051E+02  0.64784693891E+03  0.12500000000E+03 0.  0.
</event>
<event>
 5    0  0.5728184E-005  0.3107103E+03  0.7546771E-02  0.1080006E+00
         21   -1    0    0  502  501  0.00000000000E+00  0.00000000000E+00  0.76535335368E+02  0.76535335368E+02  0.00000000000E+00 0. -1.
         21   -1    0    0  501  502 -0.00000000000E+00 -0.00000000000E+00 -0.12613901342E+04  0.12613901342E+04  0.00000000000E+00 0. -1.
         25    1    1    2    0    0  0.17001740029E+03 -0.57603153752E+02 -0.24692293808E+03  0.32987873087E+03  0.12500000000E+03 0.  0.
         25    1    1    2    0    0 -0.12264511093E+03  0.15068218874E+02 -0.24782929610E+03  0.30383093072E+03  0.12500000000E+03 0.  0.
         25    1    1    2    0    0 -0.47372289366E+02  0.42534934878E+02 -0.69010256463E+03  0.70421580797E+03  0.12500000000E+03 0.  0.
</event>
<event>
 5    0  0.5728184E-005  0.2460028E+03  0.7546771E-02  0.1115857E+00
         21   -1    0    0  502  501  0.00000000000E+00  0.00000000000E+00  0.10435017394E+03  0.10435017394E+03  0.00000000000E+00 0.  1.
         21   -1    0    0  501  502 -0.00000000000E+00 -0.00000000000E+00 -0.57994518586E+03  0.57994518586E+03  0.00000000000E+00 0.  1.
         25    1    1    2    0    0 -0.10626971412E+02 -0.61992521440E+02 -0.12048298492E+03  0.18465414940E+03  0.12500000000E+03 0.  0.
         25    1    1    2    0    0  0.52619237307E+02 -0.50177445771E+01 -0.32003777259E+03  0.34762499591E+03  0.12500000000E+03 0.  0.
         25    1    1    2    0    0 -0.41992265896E+02  0.67010266017E+02 -0.35074254411E+02  0.15201621449E+03  0.12500000000E+03 0.  0.
</event>
<event>
 5    0  0.5728184E-005  0.5427180E+03  0.7546771E-02  0.1003194E+00
         21   -1    0    0  502  501  0.00000000000E+00  0.00000000000E+00  0.17206362515E+04  0.17206362515E+04  0.00000000000E+00 0. -1.
         21   -1    0    0  501  502 -0.00000000000E+00 -0.00000000000E+00 -0.17118250166E+03  0.17118250166E+03  0.00000000000E+00 0. -1.
         25    1    1    2    0    0  0.19354419994E+03  0.14222011322E+03  0.94728555888E+02  0.28685260542E+03  0.12500000000E+03 0.  0.
         25    1    1    2    0    0  0.18219616824E+03 -0.17253010566E+03  0.57101945170E+03  0.63612128977E+03  0.12500000000E+03 0.  0.
         25    1    1    2    0    0 -0.37574036818E+03  0.30309992443E+02  0.88370574228E+03  0.96884485799E+03  0.12500000000E+03 0.  0.
</event>
<event>
 5    0  0.5728184E-005  0.4134872E+03  0.7546771E-02  0.1039207E+00
         21   -1    0    0  502  501  0.00000000000E+00  0.00000000000E+00  0.35428113389E+03  0.35428113389E+03  0.00000000000E+00 0.  1.
         21   -1    0    0  501  502 -0.00000000000E+00 -0.00000000000E+00 -0.48258759666E+03  0.48258759666E+03  0.00000000000E+00 0.  1.
         25    1    1    2    0    0 -0.31617552049E+03 -0.16504298823E+02  0.10639044146E+02  0.34055475463E+03  0.12500000000E+03 0.  0.
         25    1    1    2    0    0 -0.26088629641E+01 -0.25464805146E+02 -0.66216147937E+02  0.14375270681E+03  0.12500000000E+03 0.  0.
         25    1    1    2    0    0  0.31878438346E+03  0.41969103969E+02 -0.72729358978E+02  0.35256126912E+03  0.12500000000E+03 0.  0.
</event>
<event>
 5    0  0.6012565E-005  0.2840595E+03  0.7546771E-02  0.1093492E+00
         21   -1    0    0  502  501  0.00000000000E+00  0.00000000000E+00  0.10205491772E+04  0.10205491772E+04  0.00000000000E+00 0. -1.
         21   -1    0    0  501  502 -0.00000000000E+00 -0.00000000000E+00 -0.79065087161E+02  0.79065087161E+02  0.00000000000E+00 0. -1.
         25    1    1    2    0    0  0.43529498880E+02 -0.83655291243E+02  0.61707121241E+02  0.16830268518E+03  0.12500000000E+03 0.  0.
         25    1    1    2    0    0  0.14475372069E+02  0.12761632568E+02  0.58242550212E+03  0.59600072246E+03  0.12500000000E+03 0.  0.
         25    1    1    2    0    0 -0.58004870949E+02  0.70893658675E+02  0.29735146665E+03  0.33531085668E+03  0.12500000000E+03 0.  0.
</event>
<event>
 5    0  0.5728184E-005  0.3580434E+03  0.7546771E-02  0.1059361E+00
         21   -1    0    0  502  501  0.00000000000E+00  0.00000000000E+00  0.25966987552E+03  0.25966987552E+03  0.00000000000E+00 0.  1.
         21   -1    0    0  501  502 -0.00000000000E+00 -0.00000000000E+00 -0.49368475459E+03  0.49368475459E+03  0.00000000000E+00 0.  1.
         25    1    1    2    0    0  0.10894497431E+03  0.62287484352E+02 -0.13670833185E+03  0.22374741592E+03  0.12500000000E+03 0.  0.
         25    1    1    2    0    0 -0.12227931007E+03 -0.20724669008E+03  0.64371694836E+02  0.27869721082E+03  0.12500000000E+03 0.  0.
         25    1    1    2    0    0  0.13334335765E+02  0.14495920573E+03 -0.16167824205E+03  0.25091000337E+03  0.12500000000E+03 0.  0.
</event>
<event>
 5    0  0.5728184E-005  0.2132256E+03  0.7546771E-02  0.1139037E+00
         21   -1    0    0  502  501  0.00000000000E+00  0.00000000000E+00  0.16423141320E+03  0.16423141320E+03  0.00000000000E+00 0.  1.
         21   -1    0    0  501  502 -0.00000000000E+00 -0.00000000000E+00 -0.27683593463E+03  0.27683593463E+03  0.00000000000E+00 0.  1.
         25    1    1    2    0    0 -0.61231082014E+02 -0.83073658054E+01 -0.50000166782E+02  0.14813262439E+03  0.12500000000E+03 0.  0.
         25    1    1    2    0    0 -0.36897067548E+01 -0.47109878340E+02 -0.42576917189E+02  0.14025244544E+03  0.12500000000E+03 0.  0.
         25    1    1    2    0    0  0.64920788769E+02  0.55417244146E+02 -0.20027437457E+02  0.15268227800E+03  0.12500000000E+03 0.  0.
</event>
<event>
 5    0  0.5728184E-005  0.3685687E+03  0.7546771E-02  0.1055242E+00
         21   -1    0    0  502  501  0.00000000000E+00  0.00000000000E+00  0.93802456103E+02  0.93802456103E+02  0.00000000000E+00 0.  1.
         21   -1    0    0  501  502 -0.00000000000E+00 -0.00000000000E+00 -0.14481806272E+04  0.14481806272E+04  0.00000000000E+00 0.  1.
         25    1    1    2    0    0 -0.17597312043E+03  0.58794211845E+02 -0.83586678106E+03  0.86528698947E+03  0.12500000000E+03 0.  0.
         25    1    1    2    0    0  0.14635903618E+03  0.20874196701E+02 -0.74129056248E+02  0.20730850571E+03  0.12500000000E+03 0.  0.
         25    1    1    2    0    0  0.29614084249E+02 -0.79668408546E+02 -0.44438233380E+03  0.46938758814E+03  0.12500000000E+03 0.  0.
</event>
<event>
 5    0  0.5728184E-005  0.2849305E+03  0.7546771E-02  0.1093026E+00
         21   -1    0    0  502  501  0.00000000000E+00  0.00000000000E+00  0.94264402929E+02  0.94264402929E+02  0.00000000000E+00 0. -1.
         21   -1    0    0  501  502 -0.00000000000E+00 -0.00000000000E+00 -0.86125178110E+03  0.86125178110E+03  0.00000000000E+00 0. -1.
         25    1    1    2    0    0 -0.58544163338E+00  0.17041535345E+03 -0.14321021676E+03  0.25529571406E+03  0.12500000000E+03 0.  0.
         25    1    1    2    0    0  0.38261917770E+02 -0.52209969124E+02 -0.24649788875E+03  0.28385923339E+03  0.12500000000E+03 0.  0.
         25    1    1    2    0    0 -0.37676476136E+02 -0.11820538433E+03 -0.37727927266E+03  0.41636123657E+03  0.12500000000E+03 0.  0.
</event>
<event>
 5    0  0.5728184E-005  0.3020948E+03  0.7546771E-02  0.1084198E+00
         21   -1    0    0  502  501  0.00000000000E+00  0.00000000000E+00  0.84872534850E+02  0.84872534850E+02  0.00000000000E+00 0. -1.
         21   -1    0    0  501  502 -0.00000000000E+00 -0.00000000000E+00 -0.10752742280E+04  0.10752742280E+04  0.00000000000E+00 0. -1.
         25    1    1    2    0    0 -0.94552532322E+00 -0.13370982359E+03 -0.11385413061E+03  0.21556199572E+03  0.12500000000E+03 0.  0.
         25    1    1    2    0    0  0.15322429154E+02 -0.20463736415E+02 -0.18324381805E+03  0.22328644875E+03  0.12500000000E+03 0.  0.
         25    1    1    2    0    0 -0.14376903830E+02  0.15417356001E+03 -0.69330374451E+03  0.72129831840E+03  0.12500000000E+03 0.  0.
</event>
<event>
 5    0  0.5728184E-005  0.5776392E+03  0.7546771E-02  0.9952915E-01
         21   -1    0    0  502  501  0.00000000000E+00  0.00000000000E+00  0.59495662161E+03  0.59495662161E+03  0.00000000000E+00 0. -1.
         21   -1    0    0  501  502 -0.00000000000E+00 -0.00000000000E+00 -0.56082589226E+03  0.56082589226E+03  0.00000000000E+00 0. -1.
         25    1    1    2    0    0 -0.12130078878E+03 -0.50306818905E+03  0.15144973216E+03  0.55349210072E+03  0.12500000000E+03 0.  0.
         25    1    1    2    0    0  0.12933510891E+03  0.33713784963E+03 -0.90289357046E+02  0.39264063474E+03  0.12500000000E+03 0.  0.
         25    1    1    2    0    0 -0.80343201352E+01  0.16593033942E+03 -0.27029645769E+02  0.20964977842E+03  0.12500000000E+03 0.  0.
</event>
<event>
 5    0  0.5728184E-005  0.3684778E+03  0.7546771E-02  0.1055277E+00
         21   -1    0    0  502  501  0.00000000000E+00  0.00000000000E+00  0.41210714645E+03  0.41210714645E+03  0.00000000000E+00 0. -1.
         21   -1    0    0  501  502 -0.00000000000E+00 -0.00000000000E+00 -0.32946741379E+03  0.32946741379E+03  0.00000000000E+00 0. -1.
         25    1    1    2    0    0  0.53751259609E+02  0.29816622679E+02 -0.44291031077E+02  0.14616745305E+03  0.12500000000E+03 0.  0.
         25    1    1    2    0    0 -0.17204380748E+03 -0.99289563267E+02 -0.13775492782E+03  0.27213766590E+03  0.12500000000E+03 0.  0.
         25    1    1    2    0    0  0.11829254787E+03  0.69472940588E+02  0.26468569156E+03  0.32326944129E+03  0.12500000000E+03 0.  0.
</event>
<event>
 5    0  0.5728184E-005  0.2897935E+03  0.7546771E-02  0.1090457E+00
         21   -1    0    0  502  501  0.00000000000E+00  0.00000000000E+00  0.68160353637E+02  0.68160353637E+02  0.00000000000E+00 0.  1.
         21   -1    0    0  501  502 -0.00000000000E+00 -0.00000000000E+00 -0.12320988997E+04  0.12320988997E+04  0.00000000000E+00 0.  1.
         25    1    1    2    0    0 -0.13393477891E+03  0.88504272721E+02 -0.31852595990E+03  0.37796205950E+03  0.12500000000E+03 0.  0.
         25    1    1    2    0    0  0.62054516752E+02 -0.15501401376E+03 -0.44144168087E+03  0.48823750892E+03  0.12500000000E+03 0.  0.
         25    1    1    2    0    0  0.71880262155E+02  0.66509741040E+02 -0.40397090525E+03  0.43405968487E+03  0.12500000000E+03 0.  0.
</event>
<event>
 5    0  0.5728184E-005  0.3233522E+03  0.7546771E-02  0.1074117E+00
         21   -1    0    0  502  501  0.00000000000E+00  0.00000000000E+00  0.11048917533E+04  0.11048917533E+04  0.00000000000E+00 0.  1.
         21   -1    0    0  501  502 -0.00000000000E+00 -0.00000000000E+00 -0.94630656946E+02  0.94630656946E+02  0.00000000000E+00 0.  1.
         25    1    1    2    0    0 -0.15438376558E+03  0.88195571832E+02  0.19083770117E+03  0.28923491171E+03  0.12500000000E+03 0.  0.
         25    1    1    2    0    0  0.52648478306E+02 -0.74151361003E+02  0.67803180121E+03  0.69542965860E+03  0.12500000000E+03 0.  0.
         25    1    1    2    0    0  0.10173528727E+03 -0.14044210829E+02  0.14139159396E+03  0.21485783992E+03  0.12500000000E+03 0.  0.
</event>
<event>
 5    0  0.5728184E-005  0.2594505E+03  0.7546771E-02  0.1107474E+00
         21   -1    0    0  502  501  0.00000000000E+00  0.00000000000E+00  0.47025811711E+03  0.47025811711E+03  0.00000000000E+00 0.  1.
         21   -1    0    0  501  502 -0.00000000000E+00 -0.00000000000E+00 -0.14314381905E+03  0.14314381905E+03  0.00000000000E+00 0.  1.
         25    1    1    2    0    0  0.13178579556E+03  0.77889871098E+02  0.98639262636E+02  0.22088239419E+03  0.12500000000E+03 0.  0.
         25    1    1    2    0    0 -0.11351452750E+03 -0.47898285675E+02  0.18641403784E+03  0.25603708174E+03  0.12500000000E+03 0.  0.
         25    1    1    2    0    0 -0.18271268062E+02 -0.29991585423E+02  0.42060997582E+02  0.13648246023E+03  0.12500000000E+03 0.  0.
</event>
<event>
 5    0  0.5728184E-005  0.3729491E+03  0.7546771E-02  0.1053571E+00
         21   -1    0    0  502  501  0.00000000000E+00  0.00000000000E+00  0.83734437855E+03  0.83734437855E+03  0.00000000000E+00 0.  1.
         21   -1    0    0  501  502 -0.00000000000E+00 -0.00000000000E+00 -0.16610969819E+03  0.16610969819E+03  0.00000000000E+00 0.  1.
         25    1    1    2    0    0 -0.42647344293E+02  0.59451187143E+02 -0.97312105661E+02  0.17449322490E+03  0.12500000000E+03 0.  0.
         25    1    1    2    0    0 -0.54728297681E+02  0.34258323706E+01  0.27941053433E+03  0.31096972456E+03  0.12500000000E+03 0.  0.
         25    1    1    2    0    0  0.97375641974E+02 -0.62877019513E+02  0.48913625169E+03  0.51799112729E+03  0.12500000000E+03 0.  0.
</event>
<event>
 5    0  0.5728184E-005  0.4548047E+03  0.7546771E-02  0.1026299E+00
         21   -1    0    0  502  501  0.00000000000E+00  0.00000000000E+00  0.33624724656E+03  0.33624724656E+03  0.00000000000E+00 0.  1.
         21   -1    0    0  501  502 -0.00000000000E+00 -0.00000000000E+00 -0.61516431213E+03  0.61516431213E+03  0.00000000000E+00 0.  1.
         25    1    1    2    0    0 -0.70448750840E+02  0.10889690314E+03 -0.28264795633E+03  0.33516627101E+03  0.12500000000E+03 0.  0.
         25    1    1    2    0    0 -0.17216611609E+03 -0.14073810193E+03  0.15904482276E+03  0.30061377299E+03  0.12500000000E+03 0.  0.
         25    1    1    2    0    0  0.24261486693E+03  0.31841198785E+02 -0.15531393200E+03  0.31563151469E+03  0.12500000000E+03 0.  0.
</event>
<event>
 5    0  0.5728184E-005  0.3356524E+03  0.7546771E-02  0.1068663E+00
         21   -1    0    0  502  501  0.00000000000E+00  0.00000000000E+00  0.26511409899E+03  0.26511409899E+03  0.00000000000E+00 0.  1.
         21   -1    0    0  501  502 -0.00000000000E+00 -0.00000000000E+00 -0.42495868903E+03  0.42495868903E+03  0.00000000000E+00 0.  1.
         25    1    1    2    0    0 -0.15757770314E+03  0.58925588971E+02 -0.20857959570E+03  0.29569140215E+03  0.12500000000E+03 0.  0.
         25    1    1    2    0    0  0.14996292661E+03  0.27297136243E+02  0.11533776369E+03  0.22838960733E+03  0.12500000000E+03 0.  0.
         25    1    1    2    0    0  0.76147765290E+01 -0.86222725214E+02 -0.66602758032E+02  0.16599177854E+03  0.12500000000E+03 0.  0.
</event>
<event>
 5    0  0.5728184E-005  0.2574384E+03  0.7546771E-02  0.1108692E+00
         21   -1    0    0  502  501  0.00000000000E+00  0.00000000000E+00  0.76170800502E+03  0.76170800502E+03  0.00000000000E+00 0.  1.
         21   -1    0    0  501  502 -0.00000000000E+00 -0.00000000000E+00 -0.87007756609E+02  0.87007756609E+02  0.00000000000E+00 0.  1.
         25    1    1    2    0    0  0.40321131788E+02 -0.10349992387E+03  0.33021982392E+03  0.37014613333E+03  0.12500000000E+03 0.  0.
         25    1    1    2    0    0  0.46674457558E+02  0.94932463240E+02  0.10463680127E+03  0.19433100047E+03  0.12500000000E+03 0.  0.
         25    1    1    2    0    0 -0.86995589346E+02  0.85674606303E+01  0.23984362322E+03  0.28423862782E+03  0.12500000000E+03 0.  0.
</event>
<event>
 5    0  0.5728184E-005  0.3090663E+03  0.7546771E-02  0.1080794E+00
         21   -1    0    0  502  501  0.00000000000E+00  0.00000000000E+00  0.23556790727E+03  0.23556790727E+03  0.00000000000E+00 0. -1.
         21   -1    0    0  501  502 -0.00000000000E+00 -0.00000000000E+00 -0.40549661549E+03  0.40549661549E+03  0.00000000000E+00 0. -1.
         25    1    1    2    0    0 -0.76892581276E+02 -0.77239845465E+02  0.58397750052E+02  0.17582309289E+03  0.12500000000E+03 0.  0.
         25    1    1    2    0    0  0.14807728511E+03  0.12727047389E+03 -0.62558222445E+02  0.24013160368E+03  0.12500000000E+03 0.  0.
         25    1    1    2    0    0 -0.71184703831E+02 -0.50030628430E+02 -0.16576823582E+03  0.22510982619E+03  0.12500000000E+03 0.  0.
</event>
<event>
 5    0  0.5728184E-005  0.3844511E+03  0.7546771E-02  0.1049301E+00
         21   -1    0    0  502  501  0.00000000000E+00  0.00000000000E+00  0.21378521247E+03  0.21378521247E+03  0.00000000000E+00 0.  1.
         21   -1    0    0  501  502 -0.00000000000E+00 -0.00000000000E+00 -0.69136054124E+03  0.69136054124E+03  0.00000000000E+00 0.  1.
         25    1    1    2    0    0  0.43101417642E+02 -0.15015156195E+03  0.33823068843E+02  0.20290939787E+03  0.12500000000E+03 0.  0.
         25    1    1    2    0    0 -0.42884200127E+02  0.82044894686E+02  0.15620535856E+02  0.15633112456E+03  0.12500000000E+03 0.  0.
         25    1    1    2    0    0 -0.21721751552E+00  0.68106667263E+02 -0.52701893347E+03  0.54590523129E+03  0.12500000000E+03 0.  0.
</event>
<event>
 5    0  0.5728184E-005  0.4493143E+03  0.7546771E-02  0.1027927E+00
         21   -1    0    0  502  501  0.00000000000E+00  0.00000000000E+00  0.13983156593E+03  0.13983156593E+03  0.00000000000E+00 0.  1.
         21   -1    0    0  501  502 -0.00000000000E+00 -0.00000000000E+00 -0.14437611032E+04  0.14437611032E+04  0.00000000000E+00 0.  1.
         25    1    1    2    0    0 -0.19631117600E+03  0.16869000530E+03 -0.40185016569E+03  0.49406775990E+03  0.12500000000E+03 0.  0.
         25    1    1    2    0    0 -0.15189548588E+03  0.10479316080E+02 -0.24380550938E+03  0.31344565893E+03  0.12500000000E+03 0.  0.
         25    1    1    2    0    0  0.34820666187E+03 -0.17916932138E+03 -0.65827386217E+03  0.77607925028E+03  0.12500000000E+03 0.  0.
</event>
<event>
 5    0  0.5728184E-005  0.5428931E+03  0.7546771E-02  0.1003152E+00
         21   -1    0    0  502  501  0.00000000000E+00  0.00000000000E+00  0.45819226118E+03  0.45819226118E+03  0.00000000000E+00 0.  1.
         21   -1    0    0  501  502 -0.00000000000E+00 -0.00000000000E+00 -0.64325169874E+03  0.64325169874E+03  0.00000000000E+00 0.  1.
         25    1    1    2    0    0  0.17769793417E+03 -0.36145664804E+03  0.90115101725E+02  0.43124609654E+03  0.12500000000E+03 0.  0.
         25    1    1    2    0    0  0.85125169425E+02  0.19743695933E+03 -0.21911191555E+03  0.33145539506E+03  0.12500000000E+03 0.  0.
         25    1    1    2    0    0 -0.26282310360E+03  0.16401968871E+03 -0.56062623739E+02  0.33874246833E+03  0.12500000000E+03 0.  0.
</event>
<event>
 5    0  0.5728184E-005  0.5132723E+03  0.7546771E-02  0.1010372E+00
         21   -1    0    0  502  501  0.00000000000E+00  0.00000000000E+00  0.26060696480E+03  0.26060696480E+03  0.00000000000E+00 0. -1.
         21   -1    0    0  501  502 -0.00000000000E+00 -0.00000000000E+00 -0.10109033716E+04  0.10109033716E+04  0.00000000000E+00 0. -1.
         25    1    1    2    0    0  0.14281324807E+02  0.14051591824E+03 -0.17688950343E+03  0.25857992177E+03  0.12500000000E+03 0.  0.
         25    1    1    2    0    0  0.18750244716E+03  0.47854171082E+02  0.11741484221E+03  0.25856997999E+03  0.12500000000E+03 0.  0.
         25    1    1    2    0    0 -0.20178377197E+03 -0.18837008932E+03 -0.69082174559E+03  0.75436043465E+03  0.12500000000E+03 0.  0.
</event>
<event>
 5    0  0.5728184E-005  0.2359436E+03  0.7546771E-02  0.1122525E+00
         21   -1    0    0  502  501  0.00000000000E+00  0.00000000000E+00  0.45192833939E+03  0.45192833939E+03  0.00000000000E+00 0.  1.
         21   -1    0    0  501  502 -0.00000000000E+00 -0.00000000000E+00 -0.12318191182E+03  0.12318191182E+03  0.00000000000E+00 0.  1.
         25    1    1    2    0    0 -0.81698277535E+02  0.97199658723E+01  0.86059014513E+02  0.17262746093E+03  0.12500000000E+03 0.  0.
         25    1    1    2    0    0 -0.45796079673E+02 -0.33686055478E+02  0.13517558713E+03  0.19269008953E+03  0.12500000000E+03 0.  0.
         25    1    1    2    0    0  0.12749435721E+03  0.23966089606E+02  0.10751182593E+03  0.20979270075E+03  0.12500000000E+03 0.  0.
</event>
<event>
 5    0  0.5728184E-005  0.2598521E+03  0.7546771E-02  0.1107232E+00
         21   -1    0    0  502  501  0.00000000000E+00  0.00000000000E+00  0.29979573383E+03  0.29979573383E+03  0.00000000000E+00 0. -1.
         21   -1    0    0  501  502 -0.00000000000E+00 -0.00000000000E+00 -0.22523043657E+03  0.22523043657E+03  0.00000000000E+00 0. -1.
         25    1    1    2    0    0 -0.78217249824E+02 -0.86818027575E+02  0.77169877211E+02  0.18771120912E+03  0.12500000000E+03 0.  0.
         25    1    1    2    0    0  0.19494458288E+02  0.12599679053E+03  0.48355197142E+02  0.18498229704E+03  0.12500000000E+03 0.  0.
         25    1    1    2    0    0  0.58722791536E+02 -0.39178762956E+02 -0.50959777094E+02  0.15233266424E+03  0.12500000000E+03 0.  0.
</event>
<event>
 5    0  0.5728184E-005  0.3220334E+03  0.7546771E-02  0.1074717E+00
         21   -1    0    0  502  501  0.00000000000E+00  0.00000000000E+00  0.13106388065E+04  0.13106388065E+04  0.00000000000E+00 0. -1.
         21   -1    0    0  501  502 -0.00000000000E+00 -0.00000000000E+00 -0.79125931672E+02  0.79125931672E+02  0.00000000000E+00 0. -1.
         25    1    1    2    0    0 -0.73727864635E+02 -0.38763935384E+02  0.31472404399E+03  0.34873294163E+03  0.12500000000E+03 0.  0.
         25    1    1    2    0    0  0.20771138232E+03 -0.43593867677E+02  0.71522177862E+03  0.75644671739E+03  0.12500000000E+03 0.  0.
         25    1    1    2    0    0 -0.13398351769E+03  0.82357803061E+02  0.20156705224E+03  0.28458507917E+03  0.12500000000E+03 0.  0.
</event>
<event>
 5    0  0.5728184E-005  0.2644177E+03  0.7546771E-02  0.1104518E+00
         21   -1    0    0  502  501  0.00000000000E+00  0.00000000000E+00  0.26270895927E+04  0.26270895927E+04  0.00000000000E+00 0. -1.
         21   -1    0    0  501  502 -0.00000000000E+00 -0.00000000000E+00 -0.26613752393E+02  0.26613752393E+02  0.00000000000E+00 0. -1.
         25    1    1    2    0    0 -0.65770289134E+02 -0.54978653841E+02  0.10427120159E+04  0.10536705991E+04  0.12500000000E+03 0.  0.
         25    1    1    2    0    0 -0.25755045772E+02  0.87467245977E+02  0.35981010880E+03  0.39166587277E+03  0.12500000000E+03 0.  0.
         25    1    1    2    0    0  0.91525334907E+02 -0.32488592136E+02  0.11979537155E+04  0.12083668732E+04  0.12500000000E+03 0.  0.
</event>
<event>
 5    0  0.5728184E-005  0.3608104E+03  0.7546771E-02  0.1058263E+00
         21   -1    0    0  502  501  0.00000000000E+00  0.00000000000E+00  0.16754871747E+03  0.16754871747E+03  0.00000000000E+00 0. -1.
         21   -1    0    0  501  502 -0.00000000000E+00 -0.00000000000E+00 -0.77699270018E+03  0.77699270018E+03  0.00000000000E+00 0. -1.
         25    1    1    2    0    0  0.85681263103E+02  0.59060336038E+02  0.72835956002E+02  0.17821189249E+03  0.12500000000E+03 0.  0.
         25    1    1    2    0    0 -0.79131530910E+02 -0.13650001532E+03 -0.41320617241E+03  0.45962853946E+03  0.12500000000E+03 0.  0.
         25    1    1    2    0    0 -0.65497321927E+01  0.77439679278E+02 -0.26907376630E+03  0.30670098570E+03  0.12500000000E+03 0.  0.
</event>
<event>
 5    0  0.5728184E-005  0.2586353E+03  0.7546771E-02  0.1107966E+00
         21   -1    0    0  502  501  0.00000000000E+00  0.00000000000E+00  0.86466534327E+02  0.86466534327E+02  0.00000000000E+00 0. -1.
         21   -1    0    0  501  502 -0.00000000000E+00 -0.00000000000E+00 -0.77361980070E+03  0.77361980070E+03  0.00000000000E+00 0. -1.
         25    1    1    2    0    0  0.12430434268E+03  0.84994885858E+02 -0.16842135459E+03  0.25819847582E+03  0.12500000000E+03 0.  0.
         25    1    1    2    0    0 -0.65719984425E+02 -0.88264375523E+01 -0.18613445079E+03  0.23381201022E+03  0.12500000000E+03 0.  0.
         25    1    1    2    0    0 -0.58584358259E+02 -0.76168448306E+02 -0.33259746100E+03  0.36807584899E+03  0.12500000000E+03 0.  0.
</event>
<event>
 5    0  0.5728184E-005  0.2896265E+03  0.7546771E-02  0.1090544E+00
         21   -1    0    0  502  501  0.00000000000E+00  0.00000000000E+00  0.16605871420E+03  0.16605871420E+03  0.00000000000E+00 0.  1.
         21   -1    0    0  501  502 -0.00000000000E+00 -0.00000000000E+00 -0.50514365014E+03  0.50514365014E+03  0.00000000000E+00 0.  1.
         25    1    1    2    0    0 -0.92745635146E+02  0.36487626496E+02  0.46934451113E+02  0.16661615296E+03  0.12500000000E+03 0.  0.
         25    1    1    2    0    0  0.95608973732E+02  0.39409685904E+02 -0.12283432067E+03  0.20348825405E+03  0.12500000000E+03 0.  0.
         25    1    1    2    0    0 -0.28633385861E+01 -0.75897312401E+02 -0.26318506639E+03  0.30109795733E+03  0.12500000000E+03 0.  0.
</event>
<event>
 5    0  0.5728184E-005  0.3187956E+03  0.7546771E-02  0.1076205E+00
         21   -1    0    0  502  501  0.00000000000E+00  0.00000000000E+00  0.83903203181E+02  0.83903203181E+02  0.00000000000E+00 0.  1.
         21   -1    0    0  501  502 -0.00000000000E+00 -0.00000000000E+00 -0.12112842599E+04  0.12112842599E+04  0.00000000000E+00 0.  1.
         25    1    1    2    0    0  0.16375072877E+03  0.11034257095E+03 -0.32808492063E+03  0.40280826615E+03  0.12500000000E+03 0.  0.
         25    1    1    2    0    0 -0.56538538570E+02 -0.15221990928E+03 -0.57880679603E+03  0.61401124929E+03  0.12500000000E+03 0.  0.
         25    1    1    2    0    0 -0.10721219020E+03  0.41877338328E+02 -0.22048934007E+03  0.27836794764E+03  0.12500000000E+03 0.  0.
</event>
<event>
 5    0  0.5728184E-005  0.3431944E+03  0.7546771E-02  0.1065444E+00
         21   -1    0    0  502  501  0.00000000000E+00  0.00000000000E+00  0.29577411574E+03  0.29577411574E+03  0.00000000000E+00 0.  1.
         21   -1    0    0  501  502 -0.00000000000E+00 -0.00000000000E+00 -0.39821735143E+03  0.39821735143E+03  0.00000000000E+00 0.  1.
         25    1    1    2    0    0 -0.87990464573E+02 -0.76852425264E+02 -0.11867202765E+02  0.17150640695E+03  0.12500000000E+03 0.  0.
         25    1    1    2    0    0  0.16601856148E+03  0.22407786911E+03 -0.40816757883E+02  0.30832460477E+03  0.12500000000E+03 0.  0.
         25    1    1    2    0    0 -0.78028096905E+02 -0.14722544385E+03 -0.49759275047E+02  0.21416045544E+03  0.12500000000E+03 0.  0.
</event>
<event>
 5    0  0.5728184E-005  0.3154670E+03  0.7546771E-02  0.1077755E+00
         21   -1    0    0  502  501  0.00000000000E+00  0.00000000000E+00  0.51263354756E+03  0.51263354756E+03  0.00000000000E+00 0. -1.
         21   -1    0    0  501  502 -0.00000000000E+00 -0.00000000000E+00 -0.19413367765E+03  0.19413367765E+03  0.00000000000E+00 0. -1.
         25    1    1    2    0    0 -0.81659436285E+02  0.36494161489E+02  0.20023962340E+03  0.25243017676E+03  0.12500000000E+03 0.  0.
         25    1    1    2    0    0  0.66115373471E+02 -0.15339444592E+02 -0.11862452228E+03  0.18521155055E+03  0.12500000000E+03 0.  0.
         25    1    1    2    0    0  0.15544062814E+02 -0.21154716897E+02  0.23688476879E+03  0.26912549790E+03  0.12500000000E+03 0.  0.
</event>
<event>
 5    0  0.5728184E-005  0.4824583E+03  0.7546771E-02  0.1018462E+00
         21   -1    0    0  502  501  0.00000000000E+00  0.00000000000E+00  0.11706995430E+04  0.11706995430E+04  0.00000000000E+00 0.  1.
         21   -1    0    0  501  502 -0.00000000000E+00 -0.00000000000E+00 -0.19882646901E+03  0.19882646901E+03  0.00000000000E+00 0.  1.
         25    1    1    2    0    0  0.43340589384E+02 -0.99299867602E+02  0.20702336294E+03  0.26499536448E+03  0.12500000000E+03 0.  0.
         25    1    1    2    0    0 -0.10027243138E+03  0.41251162485E+03  0.33398641975E+03  0.55442973379E+03  0.12500000000E+03 0.  0.
         25    1    1    2    0    0  0.56931841998E+02 -0.31321175725E+03  0.43086329133E+03  0.55010091377E+03  0.12500000000E+03 0.  0.
</event>
<event>
 5    0  0.5728184E-005  0.3597319E+03  0.7546771E-02  0.1058690E+00
         21   -1    0    0  502  501  0.00000000000E+00  0.00000000000E+00  0.35114691641E+03  0.35114691641E+03  0.00000000000E+00 0.  1.
         21   -1    0    0  501  502 -0.00000000000E+00 -0.00000000000E+00 -0.36852673345E+03  0.36852673345E+03  0.00000000000E+00 0.  1.
         25    1    1    2    0    0 -0.15502829692E+03  0.10215363926E+03 -0.53140601045E+02  0.23003926260E+03  0.12500000000E+03 0.  0.
         25    1    1    2    0    0 -0.74655019994E+02  0.70670543064E+02 -0.40944445750E+02  0.16694054422E+03  0.12500000000E+03 0.  0.
         25    1    1    2    0    0  0.22968331691E+03 -0.17282418232E+03  0.76705229747E+02  0.32269384304E+03  0.12500000000E+03 0.  0.
</event>
<event>
 5    0  0.5728184E-005  0.3719540E+03  0.7546771E-02  0.1053948E+00
         21   -1    0    0  502  501  0.00000000000E+00  0.00000000000E+00  0.10218584290E+04  0.10218584290E+04  0.00000000000E+00 0. -1.
         21   -1    0    0  501  502 -0.00000000000E+00 -0.00000000000E+00 -0.13539033692E+03  0.13539033692E+03  0.00000000000E+00 0. -1.
         25    1    1    2    0    0 -0.78996660319E+02  0.73989901498E+02  0.57131341181E+03  0.59475960890E+03  0.12500000000E+03 0.  0.
         25    1    1    2    0    0 -0.30544813099E+02 -0.63997890711E+02  0.36202927367E+03  0.38951111745E+03  0.12500000000E+03 0.  0.
         25    1    1    2    0    0  0.10954147342E+03 -0.99920107869E+01 -0.46874593377E+02  0.17297803960E+03  0.12500000000E+03 0.  0.
</event>
<event>
 5    0  0.5728184E-005  0.4684075E+03  0.7546771E-02  0.1022371E+00
         21   -1    0    0  502  501  0.00000000000E+00  0.00000000000E+00  0.38239662527E+03  0.38239662527E+03  0.00000000000E+00 0.  1.
         21   -1    0    0  501  502 -0.00000000000E+00 -0.00000000000E+00 -0.57376441685E+03  0.57376441685E+03  0.00000000000E+00 0.  1.
         25    1    1    2    0    0 -0.21379338618E+03 -0.29036583110E+03 -0.27694882476E+03  0.47153534266E+03  0.12500000000E+03 0.  0.
         25    1    1    2    0    0  0.18499341860E+03  0.15941324536E+03 -0.16456459097E+02  0.27482897003E+03  0.12500000000E+03 0.  0.
         25    1    1    2    0    0  0.28799967572E+02  0.13095258574E+03  0.10203749228E+03  0.20979672942E+03  0.12500000000E+03 0.  0.
</event>
<event>
 5    0  0.5728184E-005  0.3219925E+03  0.7546771E-02  0.1074736E+00
         21   -1    0    0  502  501  0.00000000000E+00  0.00000000000E+00  0.22690301138E+03  0.22690301138E+03  0.00000000000E+00 0. -1.
         21   -1    0    0  501  502 -0.00000000000E+00 -0.00000000000E+00 -0.45693161455E+03  0.45693161455E+03  0.00000000000E+00 0. -1.
         25    1    1    2    0    0  0.51295854892E+02  0.24877651905E+02 -0.27796545616E+03  0.31006444026E+03  0.12500000000E+03 0.  0.
         25    1    1    2    0    0  0.10407028721E+03  0.21510928927E+02  0.26553919675E+01  0.16408959702E+03  0.12500000000E+03 0.  0.
         25    1    1    2    0    0 -0.15536614210E+03 -0.46388580832E+02  0.45281461020E+02  0.20968058865E+03  0.12500000000E+03 0.  0.
</event>
<event>
 5    0  0.5964649E-005  0.3038029E+03  0.7546771E-02  0.1083355E+00
         21   -1    0    0  502  501  0.00000000000E+00  0.00000000000E+00  0.14117048716E+03  0.14117048716E+03  0.00000000000E+00 0. -1.
         21   -1    0    0  501  502 -0.00000000000E+00 -0.00000000000E+00 -0.65379247363E+03  0.65379247363E+03  0.00000000000E+00 0. -1.
         25    1    1    2    0    0 -0.95656418997E+01 -0.10124328413E+03 -0.26913059415E+02  0.16337385609E+03  0.12500000000E+03 0.  0.
         25    1    1    2    0    0 -0.49090326608E+02  0.12158247941E+03 -0.71942273325E+02  0.19491754708E+03  0.12500000000E+03 0.  0.
         25    1    1    2    0    0  0.58655968508E+02 -0.20339195281E+02 -0.41376665372E+03  0.43667155762E+03  0.12500000000E+03 0.  0.
</event>
<event>
 5    0  0.5728184E-005  0.2399042E+03  0.7546771E-02  0.1119857E+00
         21   -1    0    0  502  501  0.00000000000E+00  0.00000000000E+00  0.12425336987E+04  0.12425336987E+04  0.00000000000E+00 0. -1.
         21   -1    0    0  501  502 -0.00000000000E+00 -0.00000000000E+00 -0.46319897719E+02  0.46319897719E+02  0.00000000000E+00 0. -1.
         25    1    1    2    0    0 -0.93616427772E+02 -0.65621338740E+02  0.52248306383E+03  0.54925745114E+03  0.12500000000E+03 0.  0.
         25    1    1    2    0    0  0.88305976710E+02  0.58401767360E+02  0.25999043672E+03  0.30729259532E+03  0.12500000000E+03 0.  0.
         25    1    1    2    0    0  0.53104510623E+01  0.72195713797E+01  0.41374030040E+03  0.43230354992E+03  0.12500000000E+03 0.  0.
</event>
<event>
 5    0  0.5728184E-005  0.2590106E+03  0.7546771E-02  0.1107739E+00
         21   -1    0    0  502  501  0.00000000000E+00  0.00000000000E+00  0.55448151610E+02  0.55448151610E+02  0.00000000000E+00 0. -1.
         21   -1    0    0  501  502 -0.00000000000E+00 -0.00000000000E+00 -0.12098958643E+04  0.12098958643E+04  0.00000000000E+00 0. -1.
         25    1    1    2    0    0  0.48362942591E+02 -0.12263487213E+03 -0.57206574364E+03  0.60021871107E+03  0.12500000000E+03 0.  0.
         25    1    1    2    0    0  0.53045459323E+02  0.53554330409E+02 -0.25445680461E+03  0.29335158509E+03  0.12500000000E+03 0.  0.
         25    1    1    2    0    0 -0.10140840191E+03  0.69080541717E+02 -0.32792516442E+03  0.37177371973E+03  0.12500000000E+03 0.  0.
</event>
<event>
 5    0  0.5728184E-005  0.3310954E+03  0.7546771E-02  0.1070653E+00
         21   -1    0    0  502  501  0.00000000000E+00  0.00000000000E+00  0.74030640709E+03  0.74030640709E+03  0.00000000000E+00 0. -1.
         21   -1    0    0  501  502 -0.00000000000E+00 -0.00000000000E+00 -0.14807946535E+03  0.14807946535E+03  0.00000000000E+00 0. -1.
         25    1    1    2    0    0 -0.24316985249E+03  0.48641566524E+02  0.34494801278E+03  0.44284501880E+03  0.12500000000E+03 0.  0.
         25    1    1    2    0    0  0.65338908887E+02 -0.14214319658E+02  0.14525187444E+03  0.20296385620E+03  0.12500000000E+03 0.  0.
         25    1    1    2    0    0  0.17783094360E+03 -0.34427246866E+02  0.10202705453E+03  0.24257699743E+03  0.12500000000E+03 0.  0.
</event>
<event>
 5    0  0.5728184E-005  0.3242020E+03  0.7546771E-02  0.1073732E+00
         21   -1    0    0  502  501  0.00000000000E+00  0.00000000000E+00  0.59507798389E+02  0.59507798389E+02  0.00000000000E+00 0. -1.
         21   -1    0    0  501  502 -0.00000000000E+00 -0.00000000000E+00 -0.17662714842E+04  0.17662714842E+04  0.00000000000E+00 0. -1.
         25    1    1    2    0    0 -0.16211620800E+03 -0.71279427165E+01 -0.33313393612E+03  0.39106993219E+03  0.12500000000E+03 0.  0.
         25    1    1    2    0    0 -0.71259001026E+02 -0.29506365944E+02 -0.49384486208E+03  0.51522443524E+03  0.12500000000E+03 0.  0.
         25    1    1    2    0    0  0.23337520903E+03  0.36634308660E+02 -0.87978488764E+03  0.91948491520E+03  0.12500000000E+03 0.  0.
</event>
<event>
 5    0  0.5728184E-005  0.2897486E+03  0.7546771E-02  0.1090480E+00
         21   -1    0    0  502  501  0.00000000000E+00  0.00000000000E+00  0.12878800292E+04  0.12878800292E+04  0.00000000000E+00 0. -1.
         21   -1    0    0  501  502 -0.00000000000E+00 -0.00000000000E+00 -0.65187928316E+02  0.65187928316E+02  0.00000000000E+00 0. -1.
         25    1    1    2    0    0 -0.13717367765E+03  0.13213071060E+03  0.34087942074E+03  0.40999868538E+03  0.12500000000E+03 0.  0.
         25    1    1    2    0    0  0.55869653684E+02 -0.87140703647E+02  0.59449242273E+03  0.61624764593E+03  0.12500000000E+03 0.  0.
         25    1    1    2    0    0  0.81304023971E+02 -0.44990006948E+02  0.28732025743E+03  0.32682162622E+03  0.12500000000E+03 0.  0.
</event>
<event>
 5    0  0.5728184E-005  0.2940198E+03  0.7546771E-02  0.1088269E+00
         21   -1    0    0  502  501  0.00000000000E+00  0.00000000000E+00  0.15106680266E+03  0.15106680266E+03  0.00000000000E+00 0.  1.
         21   -1    0    0  501  502 -0.00000000000E+00 -0.00000000000E+00 -0.57224786300E+03  0.57224786300E+03  0.00000000000E+00 0.  1.
         25    1    1    2    0    0  0.88468566954E+02  0.12911830349E+03 -0.21121140187E+03  0.29109015771E+03  0.12500000000E+03 0.  0.
         25    1    1    2    0    0 -0.28282423037E+02 -0.96143123818E+02  0.20178600285E+02  0.16147932258E+03  0.12500000000E+03 0.  0.
         25    1    1    2    0    0 -0.60186143917E+02 -0.32975179672E+02 -0.23014825876E+03  0.27074518537E+03  0.12500000000E+03 0.  0.
</event>
<event>
 5    0  0.5728184E-005  0.3220508E+03  0.7546771E-02  0.1074709E+00
         21   -1    0    0  502  501  0.00000000000E+00  0.00000000000E+00  0.22029592830E+03  0.22029592830E+03  0.00000000000E+00 0.  1.
         21   -1    0    0  501  502 -0.00000000000E+00 -0.00000000000E+00 -0.47080640883E+03  0.47080640883E+03  0.00000000000E+00 0.  1.
         25    1    1    2    0    0 -0.92001589866E+02 -0.80973415028E+02 -0.17145444578E+03  0.24503594320E+03  0.12500000000E+03 0.  0.
         25    1    1    2    0    0 -0.75294700284E+02  0.32311315355E+02  0.88710657945E+02  0.17380418241E+03  0.12500000000E+03 0.  0.
         25    1    1    2    0    0  0.16729629015E+03  0.48662099673E+02 -0.16776669269E+03  0.27226221151E+03  0.12500000000E+03 0.  0.
</event>
<event>
 5    0  0.5728184E-005  0.5841581E+03  0.7546771E-02  0.9938829E-01
         21   -1    0    0  502  501  0.00000000000E+00  0.00000000000E+00  0.32192852948E+03  0.32192852948E+03  0.00000000000E+00 0. -1.
         21   -1    0    0  501  502 -0.00000000000E+00 -0.00000000000E+00 -0.10599888786E+04  0.10599888786E+04  0.00000000000E+00 0. -1.
         25    1    1    2    0    0  0.34027965270E+03 -0.16363079238E+03 -0.37161617585E+03  0.54432422362E+03  0.12500000000E+03 0.  0.
         25    1    1    2    0    0 -0.98769634802E+02  0.20450731239E+02 -0.48291980056E+03  0.50893045394E+03  0.12500000000E+03 0.  0.
         25    1    1    2    0    0 -0.24151001790E+03  0.14318006115E+03  0.11647562733E+03  0.32866273050E+03  0.12500000000E+03 0.  0.
</event>
<event>
 5    0  0.5728184E-005  0.5893549E+03  0.7546771E-02  0.9927741E-01
         21   -1    0    0  502  501  0.00000000000E+00  0.00000000000E+00  0.82704725821E+03  0.82704725821E+03  0.00000000000E+00 0.  1.
         21   -1    0    0  501  502 -0.00000000000E+00 -0.00000000000E+00 -0.41997506300E+03  0.41997506300E+03  0.00000000000E+00 0.  1.
         25    1    1    2    0    0 -0.16632691033E+03 -0.11324917869E+03  0.16452947588E+03  0.28841804036E+03  0.12500000000E+03 0.  0.
         25    1    1    2    0    0 -0.33908956217E+03  0.15959266415E+03  0.36465679116E+02  0.39674462237E+03  0.12500000000E+03 0.  0.
         25    1    1    2    0    0  0.50541647250E+03 -0.46343485458E+02  0.20607704021E+03  0.56185965847E+03  0.12500000000E+03 0.  0.
</event>
<event>
 5    0  0.5728184E-005  0.2509049E+03  0.7546771E-02  0.1112734E+00
         21   -1    0    0  502  501  0.00000000000E+00  0.00000000000E+00  0.50434478763E+03  0.50434478763E+03  0.00000000000E+00 0. -1.
         21   -1    0    0  501  502 -0.00000000000E+00 -0.00000000000E+00 -0.12482187809E+03  0.12482187809E+03  0.00000000000E+00 0. -1.
         25    1    1    2    0    0 -0.22416486339E+02  0.29913573196E+02  0.34724397875E+02  0.13501149777E+03  0.12500000000E+03 0.  0.
         25    1    1    2    0    0 -0.59625783966E+02 -0.28574231583E+02  0.30986023649E+03  0.34060253520E+03  0.12500000000E+03 0.  0.
         25    1    1    2    0    0  0.82042270305E+02 -0.13393416133E+01  0.34938275176E+02  0.15355263275E+03  0.12500000000E+03 0.  0.
</event>
<event>
 5    0  0.5728184E-005  0.3552044E+03  0.7546771E-02  0.1060499E+00
         21   -1    0    0  502  501  0.00000000000E+00  0.00000000000E+00  0.15091170544E+04  0.15091170544E+04  0.00000000000E+00 0. -1.
         21   -1    0    0  501  502 -0.00000000000E+00 -0.00000000000E+00 -0.83605273605E+02  0.83605273605E+02  0.00000000000E+00 0. -1.
         25    1    1    2    0    0  0.37150775892E+02  0.14148209525E+03  0.18507848422E+03  0.26697641983E+03  0.12500000000E+03 0.  0.
         25    1    1    2    0    0  0.98433992197E+01  0.11241356880E+03  0.31946342861E+03  0.36113098064E+03  0.12500000000E+03 0.  0.
         25    1    1    2    0    0 -0.46994175112E+02 -0.25389566405E+03  0.92096986794E+03  0.96461492751E+03  0.12500000000E+03 0.  0.
</event>
<event>
 5    0  0.5728184E-005  0.2804427E+03  0.7546771E-02  0.1095447E+00
         21   -1    0    0  502  501  0.00000000000E+00  0.00000000000E+00  0.42957694034E+03  0.42957694034E+03  0.00000000000E+00 0.  1.
         21   -1    0    0  501  502 -0.00000000000E+00 -0.00000000000E+00 -0.18308266249E+03  0.18308266249E+03  0.00000000000E+00 0.  1.
         25    1    1    2    0    0 -0.13705873705E+02  0.73072856321E+02  0.22975181177E+03  0.27191614207E+03  0.12500000000E+03 0.  0.
         25    1    1    2    0    0  0.88258319532E+02 -0.17347865775E+02  0.78808471360E+02  0.17299206505E+03  0.12500000000E+03 0.  0.
         25    1    1    2    0    0 -0.74552445827E+02 -0.55724990545E+02 -0.62066005285E+02  0.16775139571E+03  0.12500000000E+03 0.  0.
</event>
<event>
 5    0  0.5728184E-005  0.2774317E+03  0.7546771E-02  0.1097100E+00
         21   -1    0    0  502  501  0.00000000000E+00  0.00000000000E+00  0.47133557163E+03  0.47133557163E+03  0.00000000000E+00 0. -1.
         21   -1    0    0  501  502 -0.00000000000E+00 -0.00000000000E+00 -0.16329839250E+03  0.16329839250E+03  0.00000000000E+00 0. -1.
         25    1    1    2    0    0 -0.26965830932E+02 -0.43996702045E+02  0.30258851090E+03  0.33143275752E+03  0.12500000000E+03 0.  0.
         25    1    1    2    0    0 -0.45780328549E+01  0.10236703762E+03  0.22473648809E+01  0.16164782530E+03  0.12500000000E+03 0.  0.
         25    1    1    2    0    0  0.31543863787E+02 -0.58370335575E+02  0.32013033519E+01  0.14155338131E+03  0.12500000000E+03 0.  0.
</event>
<event>
 5    0  0.5728184E-005  0.6358716E+03  0.7546771E-02  0.9833657E-01
         21   -1    0    0  502  501  0.00000000000E+00  0.00000000000E+00  0.43846166545E+03  0.43846166545E+03  0.00000000000E+00 0. -1.
         21   -1    0    0  501  502 -0.00000000000E+00 -0.00000000000E+00 -0.92216211582E+03  0.92216211582E+03  0.00000000000E+00 0. -1.
         25    1    1    2    0    0 -0.29815497669E+03 -0.20581068590E+03 -0.28144202559E+03  0.47548821471E+03  0.12500000000E+03 0.  0.
         25    1    1    2    0    0 -0.23651560388E+03  0.14628256290E+03 -0.28915060810E+02  0.30626671355E+03  0.12500000000E+03 0.  0.
         25    1    1    2    0    0  0.53467058057E+03  0.59528123001E+02 -0.17334336397E+03  0.57886885301E+03  0.12500000000E+03 0.  0.
</event>
<event>
 5    0  0.5728184E-005  0.3761202E+03  0.7546771E-02  0.1052377E+00
         21   -1    0    0  502  501  0.00000000000E+00  0.00000000000E+00  0.10246170766E+04  0.10246170766E+04  0.00000000000E+00 0.  1.
         21   -1    0    0  501  502 -0.00000000000E+00 -0.00000000000E+00 -0.13806758947E+03  0.13806758947E+03  0.00000000000E+00 0.  1.
         25    1    1    2    0    0  0.16856749353E+02 -0.23974353681E+03  0.66959301746E+03  0.72231635900E+03  0.12500000000E+03 0.  0.
         25    1    1    2    0    0  0.61678973836E+02  0.92681721535E+02  0.14006340908E+03  0.21825891937E+03  0.12500000000E+03 0.  0.
         25    1    1    2    0    0 -0.78535723189E+02  0.14706181528E+03  0.76893060560E+02  0.22210938767E+03  0.12500000000E+03 0.  0.
</event>
<event>
 5    0  0.5728184E-005  0.3692750E+03  0.7546771E-02  0.1054971E+00
         21   -1    0    0  502  501  0.00000000000E+00  0.00000000000E+00  0.14528563454E+03  0.14528563454E+03  0.00000000000E+00 0.  1.
         21   -1    0    0  501  502 -0.00000000000E+00 -0.00000000000E+00 -0.93859261468E+03  0.93859261468E+03  0.00000000000E+00 0.  1.
         25    1    1    2    0    0 -0.75265265534E+02  0.12962737092E+03 -0.41029363111E+03  0.45435006242E+03  0.12500000000E+03 0.  0.
         25    1    1    2    0    0  0.20441153276E+02 -0.26669475883E+03 -0.29376803828E+03  0.41649561276E+03  0.12500000000E+03 0.  0.
         25    1    1    2    0    0  0.54824112258E+02  0.13706738791E+03 -0.89245310738E+02  0.21303257404E+03  0.12500000000E+03 0.  0.
</event>
<event>
 5    0  0.5728184E-005  0.3152265E+03  0.7546771E-02  0.1077867E+00
         21   -1    0    0  502  501  0.00000000000E+00  0.00000000000E+00  0.11312105442E+03  0.11312105442E+03  0.00000000000E+00 0. -1.
         21   -1    0    0  501  502 -0.00000000000E+00 -0.00000000000E+00 -0.87841953477E+03  0.87841953477E+03  0.00000000000E+00 0. -1.
         25    1    1    2    0    0 -0.22489831250E+02  0.12040416758E+02 -0.17161559459E+03  0.21384030596E+03  0.12500000000E+03 0.  0.
         25    1    1    2    0    0  0.21474526223E+03  0.66516551328E+02 -0.26511632448E+03  0.36939361765E+03  0.12500000000E+03 0.  0.
         25    1    1    2    0    0 -0.19225543098E+03 -0.78556968085E+02 -0.32856656128E+03  0.40830666559E+03  0.12500000000E+03 0.  0.
</event>
<event>
 5    0  0.5728184E-005  0.4585302E+03  0.7546771E-02  0.1025208E+00
         21   -1    0    0  502  501  0.00000000000E+00  0.00000000000E+00  0.22107570468E+04  0.22107570468E+04  0.00000000000E+00 0.  1.
         21   -1    0    0  501  502 -0.00000000000E+00 -0.00000000000E+00 -0.95103137725E+02  0.95103137725E+02  0.00000000000E+00 0.  1.
         25    1    1    2    0    0  0.31336224771E+03  0.12467259915E+03  0.75135265545E+03  0.83300358230E+03  0.12500000000E+03 0.  0.
         25    1    1    2    0    0 -0.12797081445E+03  0.68242894290E+02  0.22276326479E+03  0.29373813867E+03  0.12500000000E+03 0.  0.
         25    1    1    2    0    0 -0.18539143326E+03 -0.19291549344E+03  0.11415379888E+04  0.11791184635E+04  0.12500000000E+03 0.  0.
</event>
<event>
 5    0  0.5728184E-005  0.3618776E+03  0.7546771E-02  0.1057843E+00
         21   -1    0    0  502  501  0.00000000000E+00  0.00000000000E+00  0.50486652711E+03  0.50486652711E+03  0.00000000000E+00 0.  1.
         21   -1    0    0  501  502 -0.00000000000E+00 -0.00000000000E+00 -0.25938623195E+03  0.25938623195E+03  0.00000000000E+00 0.  1.
         25    1    1    2    0    0  0.19930067071E+03 -0.24631088879E+01  0.18385864876E+03  0.29858973019E+03  0.12500000000E+03 0.  0.
         25    1    1    2    0    0 -0.13351427827E+03 -0.16095912694E+03  0.11457187628E+02  0.24390606839E+03  0.12500000000E+03 0.  0.
         25    1    1    2    0    0 -0.65786392438E+02  0.16342223583E+03  0.50164458777E+02  0.22175696047E+03  0.12500000000E+03 0.  0.
</event>
<event>
 5    0  0.5840456E-005  0.2755766E+03  0.7546771E-02  0.1098130E+00
         21   -1    0    0  502  501  0.00000000000E+00  0.00000000000E+00  0.79720493774E+02  0.79720493774E+02  0.00000000000E+00 0.  1.
         21   -1    0    0  501  502 -0.00000000000E+00 -0.00000000000E+00 -0.95260905514E+03  0.95260905514E+03  0.00000000000E+00 0.  1.
         25    1    1    2    0    0  0.25222277028E+02  0.15917311743E+02 -0.59498708593E+02  0.14161433683E+03  0.12500000000E+03 0.  0.
         25    1    1    2    0    0  0.10836778156E+03 -0.92718020723E+01 -0.26463258928E+03  0.31222579923E+03  0.12500000000E+03 0.  0.
         25    1    1    2    0    0 -0.13359005859E+03 -0.66455096704E+01 -0.54875726350E+03  0.57848941286E+03  0.12500000000E+03 0.  0.
</event>
<event>
 5    0  0.5728184E-005  0.2764652E+03  0.7546771E-02  0.1097635E+00
         21   -1    0    0  502  501  0.00000000000E+00  0.00000000000E+00  0.11798804016E+04  0.11798804016E+04  0.00000000000E+00 0.  1.
         21   -1    0    0  501  502 -0.00000000000E+00 -0.00000000000E+00 -0.64780321887E+02  0.64780321887E+02  0.00000000000E+00 0.  1.
         25    1    1    2    0    0  0.73979935112E+02  0.87586934500E+01  0.11275488481E+03  0.18408804839E+03  0.12500000000E+03 0.  0.
         25    1    1    2    0    0 -0.11352167577E+03 -0.88846776723E+02  0.61317604142E+03  0.64217659439E+03  0.12500000000E+03 0.  0.
         25    1    1    2    0    0  0.39541740659E+02  0.80088083273E+02  0.38916915350E+03  0.41839608073E+03  0.12500000000E+03 0.  0.
</event>
<event>
 5    0  0.5728184E-005  0.2862143E+03  0.7546771E-02  0.1092342E+00
         21   -1    0    0  502  501  0.00000000000E+00  0.00000000000E+00  0.13232063679E+03  0.13232063679E+03  0.00000000000E+00 0.  1.
         21   -1    0    0  501  502 -0.00000000000E+00 -0.00000000000E+00 -0.61909199655E+03  0.61909199655E+03  0.00000000000E+00 0.  1.
         25    1    1    2    0    0 -0.53452297618E+02 -0.10948391402E+03 -0.16541372987E+03  0.24047989018E+03  0.12500000000E+03 0.  0.
         25    1    1    2    0    0  0.41775607394E+02  0.84035347535E+02  0.90429490889E+01  0.15656920494E+03  0.12500000000E+03 0.  0.
         25    1    1    2    0    0  0.11676690224E+02  0.25448566489E+02 -0.33040057898E+03  0.35436353822E+03  0.12500000000E+03 0.  0.
</event>
<event>
 5    0  0.5728184E-005  0.4979296E+03  0.7546771E-02  0.1014321E+00
         21   -1    0    0  502  501  0.00000000000E+00  0.00000000000E+00  0.18423444760E+03  0.18423444760E+03  0.00000000000E+00 0.  1.
         21   -1    0    0  501  502 -0.00000000000E+00 -0.00000000000E+00 -0.13457520390E+04  0.13457520390E+04  0.00000000000E+00 0. -1.
         25    1    1    2    0    0 -0.31740901124E+03  0.17132170552E+03 -0.36341515325E+03  0.52706278640E+03  0.12500000000E+03 0.  0.
         25    1    1    2    0    0  0.37383623927E+03 -0.80432313692E+02 -0.71058652511E+03  0.81656665408E+03  0.12500000000E+03 0.  0.
         25    1    1    2    0    0 -0.56427228036E+02 -0.90889391830E+02 -0.87515913088E+02  0.18635704616E+03  0.12500000000E+03 0.  0.
</event>
<event>
 5    0  0.5728184E-005  0.2330025E+03  0.7546771E-02  0.1124544E+00
         21   -1    0    0  502  501  0.00000000000E+00  0.00000000000E+00  0.11611729089E+03  0.11611729089E+03  0.00000000000E+00 0.  1.
         21   -1    0    0  501  502 -0.00000000000E+00 -0.00000000000E+00 -0.46754582071E+03  0.46754582071E+03  0.00000000000E+00 0.  1.
         25    1    1    2    0    0  0.36883483548E+01  0.51352080738E+02 -0.13961236843E+03  0.19433798787E+03  0.12500000000E+03 0.  0.
         25    1    1    2    0    0  0.77335046949E+02 -0.49091440581E+02 -0.36409669008E+02  0.15918964483E+03  0.12500000000E+03 0.  0.
         25    1    1    2    0    0 -0.81023395304E+02 -0.22606401574E+01 -0.17540649238E+03  0.23013547890E+03  0.12500000000E+03 0.  0.
</event>
<event>
 5    0  0.5728184E-005  0.3933958E+03  0.7546771E-02  0.1046091E+00
         21   -1    0    0  502  501  0.00000000000E+00  0.00000000000E+00  0.24589936650E+03  0.24589936650E+03  0.00000000000E+00 0.  1.
         21   -1    0    0  501  502 -0.00000000000E+00 -0.00000000000E+00 -0.62936424667E+03  0.62936424667E+03  0.00000000000E+00 0.  1.
         25    1    1    2    0    0  0.37496566848E+02 -0.50837880520E+01  0.80266194030E+02  0.15329546415E+03  0.12500000000E+03 0.  0.
         25    1    1    2    0    0 -0.13402068732E+03 -0.41566311786E+02  0.39889484254E+02  0.19210797448E+03  0.12500000000E+03 0.  0.
         25    1    1    2    0    0  0.96524120476E+02  0.46650099838E+02 -0.50362055845E+03  0.52986017452E+03  0.12500000000E+03 0.  0.
</event>
<event>
 5    0  0.5728184E-005  0.5452200E+03  0.7546771E-02  0.1002606E+00
         21   -1    0    0  502  501  0.00000000000E+00  0.00000000000E+00  0.10823741550E+04  0.10823741550E+04  0.00000000000E+00 0.  1.
         21   -1    0    0  501  502 -0.00000000000E+00 -0.00000000000E+00 -0.27464152782E+03  0.27464152782E+03  0.00000000000E+00 0.  1.
         25    1    1    2    0    0 -0.78498572580E+02  0.32447711808E+03 -0.65318501028E+02  0.36240713656E+03  0.12500000000E+03 0.  0.
         25    1    1    2    0    0  0.79613237147E+02 -0.31400623222E+03  0.69363331131E+03  0.77568701933E+03  0.12500000000E+03 0.  0.
         25    1    1    2    0    0 -0.11146645675E+01 -0.10470885865E+02  0.17941781687E+03  0.21892152690E+03  0.12500000000E+03 0.  0.
</event>
<event>
 5    0  0.5728184E-005  0.2991172E+03  0.7546771E-02  0.1085683E+00
         21   -1    0    0  502  501  0.00000000000E+00  0.00000000000E+00  0.46530106748E+03  0.46530106748E+03  0.00000000000E+00 0.  1.
         21   -1    0    0  501  502 -0.00000000000E+00 -0.00000000000E+00 -0.19228646609E+03  0.19228646609E+03  0.00000000000E+00 0.  1.
         25    1    1    2    0    0  0.79796761585E+02 -0.10206320949E+02  0.32540415403E+02  0.15216954617E+03  0.12500000000E+03 0.  0.
         25    1    1    2    0    0  0.47310062583E+02  0.14673961497E+03  0.19105322718E+03  0.27549426898E+03  0.12500000000E+03 0.  0.
         25    1    1    2    0    0 -0.12710682417E+03 -0.13653329402E+03  0.49420958806E+02  0.22992371843E+03  0.12500000000E+03 0.  0.
</event>
<event>
 5    0  0.5728184E-005  0.3113731E+03  0.7546771E-02  0.1079690E+00
         21   -1    0    0  502  501  0.00000000000E+00  0.00000000000E+00  0.65027963301E+02  0.65027963301E+02  0.00000000000E+00 0.  1.
         21   -1    0    0  501  502 -0.00000000000E+00 -0.00000000000E+00 -0.14909465492E+04  0.14909465492E+04  0.00000000000E+00 0.  1.
         25    1    1    2    0    0 -0.25219110633E+02  0.10920288507E+03 -0.19346464848E+03  0.25615394563E+03  0.12500000000E+03 0.  0.
         25    1    1    2    0    0  0.66480023960E+02  0.93105682461E+02 -0.57567359865E+03  0.60009445413E+03  0.12500000000E+03 0.  0.
         25    1    1    2    0    0 -0.41260913327E+02 -0.20230856753E+03 -0.65678033872E+03  0.69972611270E+03  0.12500000000E+03 0.  0.
</event>
<event>
 5    0  0.5728184E-005  0.3112183E+03  0.7546771E-02  0.1079763E+00
         21   -1    0    0  502  501  0.00000000000E+00  0.00000000000E+00  0.15963364707E+04  0.15963364707E+04  0.00000000000E+00 0.  1.
         21   -1    0    0  501  502 -0.00000000000E+00 -0.00000000000E+00 -0.60674445586E+02  0.60674445586E+02  0.00000000000E+00 0.  1.
         25    1    1    2    0    0 -0.62668232777E+02 -0.19734813556E+02  0.32697926691E+03  0.35617019984E+03  0.12500000000E+03 0.  0.
         25    1    1    2    0    0 -0.14046098840E+03  0.84090863524E+02  0.77322999898E+03  0.80019384771E+03  0.12500000000E+03 0.  0.
         25    1    1    2    0    0  0.20312922118E+03 -0.64356049968E+02  0.43545275925E+03  0.50064686876E+03  0.12500000000E+03 0.  0.
</event>
<event>
 5    0  0.6025448E-005  0.4238912E+03  0.7546771E-02  0.1035807E+00
         21   -1    0    0  502  501  0.00000000000E+00  0.00000000000E+00  0.28957827094E+03  0.28957827094E+03  0.00000000000E+00 0. -1.
         21   -1    0    0  501  502 -0.00000000000E+00 -0.00000000000E+00 -0.62050148505E+03  0.62050148505E+03  0.00000000000E+00 0. -1.
         25    1    1    2    0    0  0.13276046673E+03 -0.13201512486E+03 -0.33366016044E+03  0.40250147501E+03  0.12500000000E+03 0.  0.
         25    1    1    2    0    0 -0.16097751676E+03  0.16230831247E+03 -0.15417057888E+03  0.30273968454E+03  0.12500000000E+03 0.  0.
         25    1    1    2    0    0  0.28217050035E+02 -0.30293187608E+02  0.15690752521E+03  0.20483859645E+03  0.12500000000E+03 0.  0.
</event>
<event>
 5    0  0.5728184E-005  0.3638038E+03  0.7546771E-02  0.1057088E+00
         21   -1    0    0  502  501  0.00000000000E+00  0.00000000000E+00  0.60797856118E+03  0.60797856118E+03  0.00000000000E+00 0.  1.
         21   -1    0    0  501  502 -0.00000000000E+00 -0.00000000000E+00 -0.21769381967E+03  0.21769381967E+03  0.00000000000E+00 0.  1.
         25    1    1    2    0    0 -0.92212920869E+02 -0.91175442438E+02  0.70258259693E+02  0.19333237477E+03  0.12500000000E+03 0.  0.
         25    1    1    2    0    0  0.64452722685E+02 -0.13453225052E+03 -0.29676737075E+02  0.19687251869E+03  0.12500000000E+03 0.  0.
         25    1    1    2    0    0  0.27760198184E+02  0.22570769296E+03  0.34970321889E+03  0.43546748739E+03  0.12500000000E+03 0.  0.
</event>
<event>
 5    0  0.5728184E-005  0.2756770E+03  0.7546771E-02  0.1098074E+00
         21   -1    0    0  502  501  0.00000000000E+00  0.00000000000E+00  0.18437478110E+03  0.18437478110E+03  0.00000000000E+00 0.  1.
         21   -1    0    0  501  502 -0.00000000000E+00 -0.00000000000E+00 -0.41219195957E+03  0.41219195957E+03  0.00000000000E+00 0.  1.
         25    1    1    2    0    0 -0.45876973912E+02  0.72184403707E+02  0.68777917663E+02  0.16634508358E+03  0.12500000000E+03 0.  0.
         25    1    1    2    0    0  0.15218814616E+02  0.28927172720E+02 -0.59809721074E+02  0.14237484460E+03  0.12500000000E+03 0.  0.
         25    1    1    2    0    0  0.30658159296E+02 -0.10111157643E+03 -0.23678537506E+03  0.28784681249E+03  0.12500000000E+03 0.  0.
</event>
<event>
 5    0  0.5728184E-005  0.2357191E+03  0.7546771E-02  0.1122678E+00
         21   -1    0    0  502  501  0.00000000000E+00  0.00000000000E+00  0.49913114536E+03  0.49913114536E+03  0.00000000000E+00 0. -1.
         21   -1    0    0  501  502 -0.00000000000E+00 -0.00000000000E+00 -0.11132047445E+03  0.11132047445E+03  0.00000000000E+00 0. -1.
         25    1    1    2    0    0 -0.98222388260E+02  0.20079377423E+02  0.90158033997E+02  0.18385943013E+03  0.12500000000E+03 0.  0.
         25    1    1    2    0    0  0.25533182278E+02 -0.40529282999E+02  0.57867255504E+02  0.14583615957E+03  0.12500000000E+03 0.  0.
         25    1    1    2    0    0  0.72689205982E+02  0.20449905576E+02  0.23978538141E+03  0.28075603011E+03  0.12500000000E+03 0.  0.
</event>
<event>
 5    0  0.5728184E-005  0.2506212E+03  0.7546771E-02  0.1112913E+00
         21   -1    0    0  502  501  0.00000000000E+00  0.00000000000E+00  0.23136858467E+04  0.23136858467E+04  0.00000000000E+00 0. -1.
         21   -1    0    0  501  502 -0.00000000000E+00 -0.00000000000E+00 -0.27147586078E+02  0.27147586078E+02  0.00000000000E+00 0. -1.
         25    1    1    2    0    0 -0.10203611682E+03  0.52574505611E+02  0.94786878044E+03  0.96294115744E+03  0.12500000000E+03 0.  0.
         25    1    1    2    0    0 -0.74715605932E+01  0.44960016240E+02  0.59101674228E+03  0.60580773925E+03  0.12500000000E+03 0.  0.
         25    1    1    2    0    0  0.10950767741E+03 -0.97534521851E+02  0.74765273794E+03  0.77208453612E+03  0.12500000000E+03 0.  0.
</event>
<event>
 5    0  0.5728184E-005  0.5397431E+03  0.7546771E-02  0.1003896E+00
         21   -1    0    0  502  501  0.00000000000E+00  0.00000000000E+00  0.81669788177E+03  0.81669788177E+03  0.00000000000E+00 0.  1.
         21   -1    0    0  501  502 -0.00000000000E+00 -0.00000000000E+00 -0.35670798482E+03  0.35670798482E+03  0.00000000000E+00 0.  1.
         25    1    1    2    0    0 -0.12407546236E+03  0.87285922620E+02  0.28130690778E+02  0.19856960596E+03  0.12500000000E+03 0.  0.
         25    1    1    2    0    0 -0.29977313043E+03 -0.21504522678E+03  0.84929952798E+02  0.39868092025E+03  0.12500000000E+03 0.  0.
         25    1    1    2    0    0  0.42384859279E+03  0.12775930416E+03  0.34692925337E+03  0.57615534039E+03  0.12500000000E+03 0.  0.
</event>
<event>
 5    0  0.5728184E-005  0.3430931E+03  0.7546771E-02  0.1065486E+00
         21   -1    0    0  502  501  0.00000000000E+00  0.00000000000E+00  0.22470274465E+03  0.22470274465E+03  0.00000000000E+00 0.  1.
         21   -1    0    0  501  502 -0.00000000000E+00 -0.00000000000E+00 -0.52386042342E+03  0.52386042342E+03  0.00000000000E+00 0.  1.
         25    1    1    2    0    0 -0.41711416398E+02 -0.24956588488E+03 -0.24266163115E+03  0.37219973184E+03  0.12500000000E+03 0.  0.
         25    1    1    2    0    0  0.31523451058E+02  0.13137203395E+03 -0.83173311594E+02  0.20197806572E+03  0.12500000000E+03 0.  0.
         25    1    1    2    0    0  0.10187965340E+02  0.11819385093E+03  0.26677263969E+02  0.17438537051E+03  0.12500000000E+03 0.  0.
</event>
<event>
 5    0  0.5728184E-005  0.3829422E+03  0.7546771E-02  0.1049852E+00
         21   -1    0    0  502  501  0.00000000000E+00  0.00000000000E+00  0.42476824194E+03  0.42476824194E+03  0.00000000000E+00 0. -1.
         21   -1    0    0  501  502 -0.00000000000E+00 -0.00000000000E+00 -0.34523471219E+03  0.34523471219E+03  0.00000000000E+00 0. -1.
         25    1    1    2    0    0 -0.11334136392E+03 -0.46328387591E+02  0.26683809604E+01  0.17499915579E+03  0.12500000000E+03 0.  0.
         25    1    1    2    0    0 -0.45609676082E+02  0.86317579527E+02 -0.19656903851E+03  0.25257742177E+03  0.12500000000E+03 0.  0.
         25    1    1    2    0    0  0.15895104000E+03 -0.39989191936E+02  0.27343418729E+03  0.34242637657E+03  0.12500000000E+03 0.  0.
</event>
<event>
 5    0  0.5728184E-005  0.2769340E+03  0.7546771E-02  0.1097375E+00
         21   -1    0    0  502  501  0.00000000000E+00  0.00000000000E+00  0.39225519410E+03  0.39225519410E+03  0.00000000000E+00 0. -1.
         21   -1    0    0  501  502 -0.00000000000E+00 -0.00000000000E+00 -0.19551665843E+03  0.19551665843E+03  0.00000000000E+00 0. -1.
         25    1    1    2    0    0  0.11579834149E+03  0.81992854002E+02  0.76102066223E+02  0.20383475779E+03  0.12500000000E+03 0.  0.
         25    1    1    2    0    0  0.19628091374E+02  0.41349487134E+02  0.35533342491E+01  0.13316406513E+03  0.12500000000E+03 0.  0.
         25    1    1    2    0    0 -0.13542643286E+03 -0.12334234114E+03  0.11708313520E+03  0.25077302962E+03  0.12500000000E+03 0.  0.
</event>
<event>
 5    0  0.5728184E-005  0.3583490E+03  0.7546771E-02  0.1059240E+00
         21   -1    0    0  502  501  0.00000000000E+00  0.00000000000E+00  0.71742737486E+02  0.71742737486E+02  0.00000000000E+00 0.  1.
         21   -1    0    0  501  502 -0.00000000000E+00 -0.00000000000E+00 -0.17899232699E+04  0.17899232699E+04  0.00000000000E+00 0.  1.
         25    1    1    2    0    0  0.27865767974E+03  0.29497385409E+02 -0.76003612036E+03  0.81963412720E+03  0.12500000000E+03 0.  0.
         25    1    1    2    0    0 -0.21770323617E+03 -0.54354441837E+02 -0.72803072247E+03  0.77201220019E+03  0.12500000000E+03 0.  0.
         25    1    1    2    0    0 -0.60954443565E+02  0.24857056428E+02 -0.23011368955E+03  0.27001967996E+03  0.12500000000E+03 0.  0.
</event>
<event>
 5    0  0.5728184E-005  0.2886942E+03  0.7546771E-02  0.1091033E+00
         21   -1    0    0  502  501  0.00000000000E+00  0.00000000000E+00  0.16771955412E+04  0.16771955412E+04  0.00000000000E+00 0. -1.
         21   -1    0    0  501  502 -0.00000000000E+00 -0.00000000000E+00 -0.49692670628E+02  0.49692670628E+02  0.00000000000E+00 0. -1.
         25    1    1    2    0    0  0.61840611153E+01  0.47721019465E+02  0.30177505581E+03  0.33016469015E+03  0.12500000000E+03 0.  0.
         25    1    1    2    0    0  0.22974585858E+02  0.16297670194E+02  0.99750797897E+02  0.16238431984E+03  0.12500000000E+03 0.  0.
         25    1    1    2    0    0 -0.29158646974E+02 -0.64018689659E+02  0.12259770168E+04  0.12343392018E+04  0.12500000000E+03 0.  0.
</event>
<event>
 5    0  0.5728184E-005  0.4037667E+03  0.7546771E-02  0.1042483E+00
         21   -1    0    0  502  501  0.00000000000E+00  0.00000000000E+00  0.15403880820E+03  0.15403880820E+03  0.00000000000E+00 0.  1.
         21   -1    0    0  501  502 -0.00000000000E+00 -0.00000000000E+00 -0.10583539013E+04  0.10583539013E+04  0.00000000000E+00 0.  1.
         25    1    1    2    0    0 -0.11054099203E+02  0.29841471692E+03 -0.20853213497E+03  0.38507685947E+03  0.12500000000E+03 0.  0.
         25    1    1    2    0    0 -0.18431852103E+02 -0.58412414339E+02 -0.40844914739E+03  0.43151761184E+03  0.12500000000E+03 0.  0.
         25    1    1    2    0    0  0.29485951306E+02 -0.24000230258E+03 -0.28733381076E+03  0.39579823821E+03  0.12500000000E+03 0.  0.
</event>
<event>
 5    0  0.5728184E-005  0.4826837E+03  0.7546771E-02  0.1018400E+00
         21   -1    0    0  502  501  0.00000000000E+00  0.00000000000E+00  0.18633980639E+03  0.18633980639E+03  0.00000000000E+00 0. -1.
         21   -1    0    0  501  502 -0.00000000000E+00 -0.00000000000E+00 -0.12503154021E+04  0.12503154021E+04  0.00000000000E+00 0. -1.
         25    1    1    2    0    0 -0.54300211304E+02  0.88091998649E+02 -0.47969145119E+03  0.50639668395E+03  0.12500000000E+03 0.  0.
         25    1    1    2    0    0 -0.17292552109E+03  0.22963352292E+03 -0.24032250971E+03  0.39498696101E+03  0.12500000000E+03 0.  0.
         25    1    1    2    0    0  0.22722573239E+03 -0.31772552157E+03 -0.34396163485E+03  0.53527156357E+03  0.12500000000E+03 0.  0.
</event>
<event>
 5    0  0.5728184E-005  0.3551274E+03  0.7546771E-02  0.1060530E+00
         21   -1    0    0  502  501  0.00000000000E+00  0.00000000000E+00  0.31325540675E+03  0.31325540675E+03  0.00000000000E+00 0.  1.
         21   -1    0    0  501  502 -0.00000000000E+00 -0.00000000000E+00 -0.40259632434E+03  0.40259632434E+03  0.00000000000E+00 0.  1.
         25    1    1    2    0    0 -0.11810630163E+03 -0.52772967373E+02  0.16675371971E+00  0.17988638742E+03  0.12500000000E+03 0.  0.
         25    1    1    2    0    0  0.16620813717E+03 -0.86700938741E+01 -0.24517467255E+03  0.32161457593E+03  0.12500000000E+03 0.  0.
         25    1    1    2    0    0 -0.48101835539E+02  0.61443061247E+02  0.15566700124E+03  0.21435076775E+03  0.12500000000E+03 0.  0.
</event>
<event>
 5    0  0.5728184E-005  0.2377478E+03  0.7546771E-02  0.1121302E+00
         21   -1    0    0  502  501  0.00000000000E+00  0.00000000000E+00  0.19906709731E+03  0.19906709731E+03  0.00000000000E+00 0.  1.
         21   -1    0    0  501  502 -0.00000000000E+00 -0.00000000000E+00 -0.28394450446E+03  0.28394450446E+03  0.00000000000E+00 0.  1.
         25    1    1    2    0    0 -0.28016966391E+02 -0.64648439828E+02 -0.10955729594E+03  0.18053302266E+03  0.12500000000E+03 0.  0.
         25    1    1    2    0    0  0.35883243690E+02  0.90886408443E+02 -0.33094927109E+02  0.16207473775E+03  0.12500000000E+03 0.  0.
         25    1    1    2    0    0 -0.78662772991E+01 -0.26237968615E+02  0.57774815895E+02  0.14040384136E+03  0.12500000000E+03 0.  0.
</event>
<event>
 5    0  0.5728184E-005  0.4486229E+03  0.7546771E-02  0.1028133E+00
         21   -1    0    0  502  501  0.00000000000E+00  0.00000000000E+00  0.29214672887E+03  0.29214672887E+03  0.00000000000E+00 0.  1.
         21   -1    0    0  501  502 -0.00000000000E+00 -0.00000000000E+00 -0.68890906175E+03  0.68890906175E+03  0.00000000000E+00 0.  1.
         25    1    1    2    0    0 -0.12773352714E+03  0.19499687409E+03  0.80338496104E+02  0.27643970195E+03  0.12500000000E+03 0.  0.
         25    1    1    2    0    0  0.25923363515E+03 -0.64802642199E+02 -0.26177452753E+03  0.39440127192E+03  0.12500000000E+03 0.  0.
         25    1    1    2    0    0 -0.13150010801E+03 -0.13019423189E+03 -0.21532630145E+03  0.31021481674E+03  0.12500000000E+03 0.  0.
</event>
<event>
 5    0  0.5728184E-005  0.2736824E+03  0.7546771E-02  0.1099190E+00
         21   -1    0    0  502  501  0.00000000000E+00  0.00000000000E+00  0.67290618990E+03  0.67290618990E+03  0.00000000000E+00 0.  1.
         21   -1    0    0  501  502 -0.00000000000E+00 -0.00000000000E+00 -0.11131126883E+03  0.11131126883E+03  0.00000000000E+00 0.  1.
         25    1    1    2    0    0  0.44238416027E+02 -0.12177220000E+03  0.75269451094E+02  0.19513071622E+03  0.12500000000E+03 0.  0.
         25    1    1    2    0    0 -0.63280485488E+02  0.11039277427E+03  0.39280321676E+03  0.43140508986E+03  0.12500000000E+03 0.  0.
         25    1    1    2    0    0  0.19042069461E+02  0.11379425727E+02  0.93522253212E+02  0.15768165266E+03  0.12500000000E+03 0.  0.
</event>
<event>
 5    0  0.5910769E-005  0.3172251E+03  0.7546771E-02  0.1076934E+00
         21   -1    0    0  502  501  0.00000000000E+00  0.00000000000E+00  0.24019734479E+03  0.24019734479E+03  0.00000000000E+00 0.  1.
         21   -1    0    0  501  502 -0.00000000000E+00 -0.00000000000E+00 -0.41895448540E+03  0.41895448540E+03  0.00000000000E+00 0.  1.
         25    1    1    2    0    0  0.22207327932E+03  0.92468551737E+01 -0.72913605265E+02  0.26522337671E+03  0.12500000000E+03 0.  0.
         25    1    1    2    0    0 -0.10428861897E+03  0.79715392796E+02 -0.82325666712E+02  0.19908082604E+03  0.12500000000E+03 0.  0.
         25    1    1    2    0    0 -0.11778466035E+03 -0.88962247969E+02 -0.23517868629E+02  0.19484762745E+03  0.12500000000E+03 0.  0.
</event>
<event>
 5    0  0.5728184E-005  0.3032896E+03  0.7546771E-02  0.1083608E+00
         21   -1    0    0  502  501  0.00000000000E+00  0.00000000000E+00  0.15133659672E+03  0.15133659672E+03  0.00000000000E+00 0. -1.
         21   -1    0    0  501  502 -0.00000000000E+00 -0.00000000000E+00 -0.60781468686E+03  0.60781468686E+03  0.00000000000E+00 0.  1.
         25    1    1    2    0    0  0.14623408425E+03 -0.10484151499E+03 -0.85940056289E+02  0.23534409688E+03  0.12500000000E+03 0.  0.
         25    1    1    2    0    0 -0.20057667221E+02 -0.32583524769E+02 -0.21145615976E+03  0.24860149557E+03  0.12500000000E+03 0.  0.
         25    1    1    2    0    0 -0.12617641703E+03  0.13742503976E+03 -0.15908187409E+03  0.27520569113E+03  0.12500000000E+03 0.  0.
</event>
<event>
 5    0  0.5728184E-005  0.3068797E+03  0.7546771E-02  0.1081851E+00
         21   -1    0    0  502  501  0.00000000000E+00  0.00000000000E+00  0.38179255805E+02  0.38179255805E+02  0.00000000000E+00 0.  1.
         21   -1    0    0  501  502 -0.00000000000E+00 -0.00000000000E+00 -0.24666567651E+04  0.24666567651E+04  0.00000000000E+00 0.  1.
         25    1    1    2    0    0  0.13722737384E+03  0.74056946859E+02 -0.74237913900E+03  0.76880918929E+03  0.12500000000E+03 0.  0.
         25    1    1    2    0    0 -0.55039107189E+02 -0.12248682156E+03 -0.39660409585E+03  0.43698070166E+03  0.12500000000E+03 0.  0.
         25    1    1    2    0    0 -0.82188266654E+02  0.48429874701E+02 -0.12894942745E+04  0.12990461300E+04  0.12500000000E+03 0.  0.
</event>
<event>
 5    0  0.5728184E-005  0.4804305E+03  0.7546771E-02  0.1019017E+00
         21   -1    0    0  502  501  0.00000000000E+00  0.00000000000E+00  0.31352835696E+03  0.31352835696E+03  0.00000000000E+00 0. -1.
         21   -1    0    0  501  502 -0.00000000000E+00 -0.00000000000E+00 -0.73618045367E+03  0.73618045367E+03  0.00000000000E+00 0. -1.
         25    1    1    2    0    0 -0.10761211270E+03  0.24302999865E+03 -0.10126961580E+03  0.31068389422E+03  0.12500000000E+03 0.  0.
         25    1    1    2    0    0 -0.32781814530E+02  0.11143154347E+03 -0.29012941595E+03  0.33658834538E+03  0.12500000000E+03 0.  0.
         25    1    1    2    0    0  0.14039392723E+03 -0.35446154212E+03 -0.31253064959E+02  0.40243657104E+03  0.12500000000E+03 0.  0.
</event>
<event>
 5    0  0.5728184E-005  0.6829540E+03  0.7546771E-02  0.9746835E-01
         21   -1    0    0  502  501  0.00000000000E+00  0.00000000000E+00  0.15386020653E+03  0.15386020653E+03  0.00000000000E+00 0.  1.
         21   -1    0    0  501  502 -0.00000000000E+00 -0.00000000000E+00 -0.30314935320E+04  0.30314935320E+04  0.00000000000E+00 0.  1.
         25    1    1    2    0    0  0.17528645625E+03 -0.14714330548E+03 -0.90390469667E+03  0.94076840655E+03  0.12500000000E+03 0.  0.
         25    1    1    2    0    0  0.11011102411E+03 -0.34068165733E+02  0.59131894243E+02  0.18001849478E+03  0.12500000000E+03 0.  0.
         25    1    1    2    0    0 -0.28539748036E+03  0.18121147121E+03 -0.20328605230E+04  0.20645668371E+04  0.12500000000E+03 0.  0.
</event>
<event>
 5    0  0.5728184E-005  0.2236384E+03  0.7546771E-02  0.1131199E+00
         21   -1    0    0  502  501  0.00000000000E+00  0.00000000000E+00  0.32559476896E+02  0.32559476896E+02  0.00000000000E+00 0.  1.
         21   -1    0    0  501  502 -0.00000000000E+00 -0.00000000000E+00 -0.15360847291E+04  0.15360847291E+04  0.00000000000E+00 0.  1.
         25    1    1    2    0    0 -0.53379086373E+02 -0.69720985109E+02 -0.54846583983E+03  0.56934183061E+03  0.12500000000E+03 0.  0.
         25    1    1    2    0    0 -0.21707504548E+02  0.10018854306E+02 -0.55333846064E+03  0.56778521046E+03  0.12500000000E+03 0.  0.
         25    1    1    2    0    0  0.75086590922E+02  0.59702130802E+02 -0.40172095174E+03  0.43151716492E+03  0.12500000000E+03 0.  0.
</event>
<event>
 5    0  0.5728184E-005  0.2390825E+03  0.7546771E-02  0.1120406E+00
         21   -1    0    0  502  501  0.00000000000E+00  0.00000000000E+00  0.58132871525E+03  0.58132871525E+03  0.00000000000E+00 0.  1.
         21   -1    0    0  501  502 -0.00000000000E+00 -0.00000000000E+00 -0.98327195099E+02  0.98327195099E+02  0.00000000000E+00 0.  1.
         25    1    1    2    0    0  0.61930474525E+02  0.13587193498E+02  0.34033569933E+03  0.36806709136E+03  0.12500000000E+03 0.  0.
         25    1    1    2    0    0 -0.49229502697E+02 -0.14862727429E+02  0.12609702350E+03  0.18485103175E+03  0.12500000000E+03 0.  0.
         25    1    1    2    0    0 -0.12700971828E+02  0.12755339305E+01  0.16568797329E+02  0.12673778725E+03  0.12500000000E+03 0.  0.
</event>
<event>
 5    0  0.5728184E-005  0.2441416E+03  0.7546771E-02  0.1117064E+00
         21   -1    0    0  502  501  0.00000000000E+00  0.00000000000E+00  0.98941332265E+03  0.98941332265E+03  0.00000000000E+00 0. -1.
         21   -1    0    0  501  502 -0.00000000000E+00 -0.00000000000E+00 -0.60242894094E+02  0.60242894094E+02  0.00000000000E+00 0. -1.
         25    1    1    2    0    0 -0.10420242522E+03 -0.30793992301E+02  0.26588909537E+03  0.31325457127E+03  0.12500000000E+03 0.  0.
         25    1    1    2    0    0  0.96274449079E+02 -0.49602900122E+02  0.27946000188E+03  0.32473390630E+03  0.12500000000E+03 0.  0.
         25    1    1    2    0    0  0.79279761446E+01  0.80396892423E+02  0.38382133130E+03  0.41166773917E+03  0.12500000000E+03 0.  0.
</event>
<event>
 5    0  0.5728184E-005  0.3269913E+03  0.7546771E-02  0.1072476E+00
         21   -1    0    0  502  501  0.00000000000E+00  0.00000000000E+00  0.91295754422E+03  0.91295754422E+03  0.00000000000E+00 0. -1.
         21   -1    0    0  501  502 -0.00000000000E+00 -0.00000000000E+00 -0.11711750616E+03  0.11711750616E+03  0.00000000000E+00 0. -1.
         25    1    1    2    0    0  0.11256510951E+03  0.39804682970E+02  0.11143909318E+03  0.20566717812E+03  0.12500000000E+03 0.  0.
         25    1    1    2    0    0 -0.10466655523E+03  0.94757963174E+02  0.10348948132E+03  0.21510284078E+03  0.12500000000E+03 0.  0.
         25    1    1    2    0    0 -0.78985542780E+01 -0.13456264614E+03  0.58091146355E+03  0.60930503148E+03  0.12500000000E+03 0.  0.
</event>
<event>
 5    0  0.5728184E-005  0.4720528E+03  0.7546771E-02  0.1021342E+00
         21   -1    0    0  502  501  0.00000000000E+00  0.00000000000E+00  0.21110620957E+03  0.21110620957E+03  0.00000000000E+00 0.  1.
         21   -1    0    0  501  502 -0.00000000000E+00 -0.00000000000E+00 -0.10555533532E+04  0.10555533532E+04  0.00000000000E+00 0.  1.
         25    1    1    2    0    0  0.12669001177E+03  0.21791536474E+03 -0.48461886765E+03  0.56037301162E+03  0.12500000000E+03 0.  0.
         25    1    1    2    0    0 -0.21066689783E+03 -0.24174381940E+03 -0.41945786684E+03  0.54257766090E+03  0.12500000000E+03 0.  0.
         25    1    1    2    0    0  0.83976886058E+02  0.23828454666E+02  0.59629590846E+02  0.16370889025E+03  0.12500000000E+03 0.  0.
</event>
<event>
 5    0  0.5728184E-005  0.3221940E+03  0.7546771E-02  0.1074644E+00
         21   -1    0    0  502  501  0.00000000000E+00  0.00000000000E+00  0.92121540731E+03  0.92121540731E+03  0.00000000000E+00 0. -1.
         21   -1    0    0  501  502 -0.00000000000E+00 -0.00000000000E+00 -0.11268694955E+03  0.11268694955E+03  0.00000000000E+00 0. -1.
         25    1    1    2    0    0  0.11036609110E+03  0.71674232076E+02  0.29717513315E+03  0.34821822091E+03  0.12500000000E+03 0.  0.
         25    1    1    2    0    0 -0.61383479228E+02  0.14238174759E+03  0.17591765884E+03  0.26573015686E+03  0.12500000000E+03 0.  0.
         25    1    1    2    0    0 -0.48982611873E+02 -0.21405597967E+03  0.33543566576E+03  0.41995397910E+03  0.12500000000E+03 0.  0.
</event>
<event>
 5    0  0.5728184E-005  0.2894772E+03  0.7546771E-02  0.1090622E+00
         21   -1    0    0  502  501  0.00000000000E+00  0.00000000000E+00  0.26946406620E+03  0.26946406620E+03  0.00000000000E+00 0.  1.
         21   -1    0    0  501  502 -0.00000000000E+00 -0.00000000000E+00 -0.31097668551E+03  0.31097668551E+03  0.00000000000E+00 0.  1.
         25    1    1    2    0    0  0.87856410421E+02  0.11071463444E+03 -0.13285272735E+00  0.18868358906E+03  0.12500000000E+03 0.  0.
         25    1    1    2    0    0  0.20936006033E+02 -0.34898639459E+02 -0.13367557646E+03  0.18748437568E+03  0.12500000000E+03 0.  0.
         25    1    1    2    0    0 -0.10879241645E+03 -0.75815994980E+02  0.92295809883E+02  0.20427278697E+03  0.12500000000E+03 0.  0.
</event>
<event>
 5    0  0.5728184E-005  0.3321533E+03  0.7546771E-02  0.1070188E+00
         21   -1    0    0  502  501  0.00000000000E+00  0.00000000000E+00  0.30236470754E+03  0.30236470754E+03  0.00000000000E+00 0.  1.
         21   -1    0    0  501  502 -0.00000000000E+00 -0.00000000000E+00 -0.36487652135E+03  0.36487652135E+03  0.00000000000E+00 0.  1.
         25    1    1    2    0    0 -0.10742523992E+03  0.34268725377E+02  0.15464799100E+02  0.16905232244E+03  0.12500000000E+03 0.  0.
         25    1    1    2    0    0 -0.11820913361E+03 -0.19436565317E+02 -0.15096067215E+03  0.22970699571E+03  0.12500000000E+03 0.  0.
         25    1    1    2    0    0  0.22563437353E+03 -0.14832160061E+02  0.72984059248E+02  0.26848191074E+03  0.12500000000E+03 0.  0.
</event>
<event>
 5    0  0.5728184E-005  0.4584880E+03  0.7546771E-02  0.1025221E+00
         21   -1    0    0  502  501  0.00000000000E+00  0.00000000000E+00  0.16222850066E+04  0.16222850066E+04  0.00000000000E+00 0. -1.
         21   -1    0    0  501  502 -0.00000000000E+00 -0.00000000000E+00 -0.12957723438E+03  0.12957723438E+03  0.00000000000E+00 0. -1.
         25    1    1    2    0    0 -0.17808224244E+03  0.23792097968E+03  0.20519799430E+03  0.38216605620E+03  0.12500000000E+03 0.  0.
         25    1    1    2    0    0 -0.50979448861E+00 -0.21343552459E+03  0.71718031486E+03  0.75863534526E+03  0.12500000000E+03 0.  0.
         25    1    1    2    0    0  0.17859203693E+03 -0.24485455093E+02  0.57032946306E+03  0.61106083952E+03  0.12500000000E+03 0.  0.
</event>
<event>
 5    0  0.5728184E-005  0.3590700E+03  0.7546771E-02  0.1058953E+00
         21   -1    0    0  502  501  0.00000000000E+00  0.00000000000E+00  0.28742265980E+03  0.28742265980E+03  0.00000000000E+00 0. -1.
         21   -1    0    0  501  502 -0.00000000000E+00 -0.00000000000E+00 -0.44857721937E+03  0.44857721937E+03  0.00000000000E+00 0. -1.
         25    1    1    2    0    0  0.15587689688E+03  0.86907676403E+02 -0.16744933198E+03  0.27479961787E+03  0.12500000000E+03 0.  0.
         25    1    1    2    0    0 -0.21696120095E+03  0.60306234565E+02  0.18957093518E+02  0.25825060704E+03  0.12500000000E+03 0.  0.
         25    1    1    2    0    0  0.61084304068E+02 -0.14721391097E+03 -0.12662321105E+02  0.20294965425E+03  0.12500000000E+03 0.  0.
</event>
<event>
 5    0  0.5728184E-005  0.2427744E+03  0.7546771E-02  0.1117958E+00
         21   -1    0    0  502  501  0.00000000000E+00  0.00000000000E+00  0.52903810095E+02  0.52903810095E+02  0.00000000000E+00 0.  1.
         21   -1    0    0  501  502 -0.00000000000E+00 -0.00000000000E+00 -0.11140862735E+04  0.11140862735E+04  0.00000000000E+00 0.  1.
         25    1    1    2    0    0 -0.27662994171E+02  0.43530891827E+02 -0.70908294259E+03  0.72186134352E+03  0.12500000000E+03 0.  0.
         25    1    1    2    0    0 -0.29846541442E+02 -0.11123680881E+02 -0.14135692713E+03  0.19136701168E+03  0.12500000000E+03 0.  0.
         25    1    1    2    0    0  0.57509535614E+02 -0.32407210946E+02 -0.21074259371E+03  0.25376172842E+03  0.12500000000E+03 0.  0.
</event>
<event>
 5    0  0.5728184E-005  0.3145133E+03  0.7546771E-02  0.1078203E+00
         21   -1    0    0  502  501  0.00000000000E+00  0.00000000000E+00  0.32010745437E+03  0.32010745437E+03  0.00000000000E+00 0. -1.
         21   -1    0    0  501  502 -0.00000000000E+00 -0.00000000000E+00 -0.30901693396E+03  0.30901693396E+03  0.00000000000E+00 0. -1.
         25    1    1    2    0    0 -0.86575081319E+01  0.72506395742E+02  0.67598507057E+02  0.15977073583E+03  0.12500000000E+03 0.  0.
         25    1    1    2    0    0 -0.15306062615E+03  0.66022675367E+02 -0.75728073648E+02  0.22168962556E+03  0.12500000000E+03 0.  0.
         25    1    1    2    0    0  0.16171813428E+03 -0.13852907111E+03  0.19220086997E+02  0.24766402695E+03  0.12500000000E+03 0.  0.
</event>
<event>
 5    0  0.5728184E-005  0.2705005E+03  0.7546771E-02  0.1100993E+00
         21   -1    0    0  502  501  0.00000000000E+00  0.00000000000E+00  0.56876068599E+02  0.56876068599E+02  0.00000000000E+00 0.  1.
         21   -1    0    0  501  502 -0.00000000000E+00 -0.00000000000E+00 -0.12864909466E+04  0.12864909466E+04  0.00000000000E+00 0.  1.
         25    1    1    2    0    0 -0.11204153904E+03 -0.20292644658E+02 -0.33480990260E+03  0.37508368237E+03  0.12500000000E+03 0.  0.
         25    1    1    2    0    0  0.71505423454E+02  0.41231331583E+02 -0.15109241224E+03  0.21276034716E+03  0.12500000000E+03 0.  0.
         25    1    1    2    0    0  0.40536115588E+02 -0.20938686925E+02 -0.74371256316E+03  0.75552298567E+03  0.12500000000E+03 0.  0.
</event>
<event>
 5    0  0.5728184E-005  0.3879019E+03  0.7546771E-02  0.1048051E+00
         21   -1    0    0  502  501  0.00000000000E+00  0.00000000000E+00  0.14025738574E+03  0.14025738574E+03  0.00000000000E+00 0. -1.
         21   -1    0    0  501  502 -0.00000000000E+00 -0.00000000000E+00 -0.10727982081E+04  0.10727982081E+04  0.00000000000E+00 0. -1.
         25    1    1    2    0    0  0.70671047130E+02 -0.13373871850E+03 -0.50362235698E+03  0.54050061997E+03  0.12500000000E+03 0.  0.
         25    1    1    2    0    0 -0.45157921248E+02 -0.13234059250E+03 -0.53484443429E+02  0.19503552488E+03  0.12500000000E+03 0.  0.
         25    1    1    2    0    0 -0.25513125883E+02  0.26607931100E+03 -0.37543402194E+03  0.47751944899E+03  0.12500000000E+03 0.  0.
</event>
<event>
 5    0  0.5728184E-005  0.3371162E+03  0.7546771E-02  0.1068031E+00
         21   -1    0    0  502  501  0.00000000000E+00  0.00000000000E+00  0.14486406912E+04  0.14486406912E+04  0.00000000000E+00 0. -1.
         21   -1    0    0  501  502 -0.00000000000E+00 -0.00000000000E+00 -0.78451003672E+02  0.78451003672E+02  0.00000000000E+00 0. -1.
         25    1    1    2    0    0  0.38827956759E+02  0.98639343572E+02  0.21875085109E+03  0.27333910291E+03  0.12500000000E+03 0.  0.
         25    1    1    2    0    0  0.59223098622E+02  0.26330503039E+02  0.77032785574E+02  0.16049835156E+03  0.12500000000E+03 0.  0.
         25    1    1    2    0    0 -0.98051055381E+02 -0.12496984661E+03  0.10744060509E+04  0.10932542404E+04  0.12500000000E+03 0.  0.
</event>
<event>
 5    0  0.5728184E-005  0.3723502E+03  0.7546771E-02  0.1053798E+00
         21   -1    0    0  502  501  0.00000000000E+00  0.00000000000E+00  0.60458348382E+03  0.60458348382E+03  0.00000000000E+00 0.  1.
         21   -1    0    0  501  502 -0.00000000000E+00 -0.00000000000E+00 -0.22932268086E+03  0.22932268086E+03  0.00000000000E+00 0.  1.
         25    1    1    2    0    0  0.79828216272E+01  0.37847044343E+02  0.96636346213E+02  0.16266440181E+03  0.12500000000E+03 0.  0.
         25    1    1    2    0    0  0.14766416326E+03 -0.23062906132E+03  0.37036071069E+02  0.30330041147E+03  0.12500000000E+03 0.  0.
         25    1    1    2    0    0 -0.15564698489E+03  0.19278201698E+03  0.24158838568E+03  0.36794135140E+03  0.12500000000E+03 0.  0.
</event>
<event>
 5    0  0.5728184E-005  0.6284955E+03  0.7546771E-02  0.9847989E-01
         21   -1    0    0  502  501  0.00000000000E+00  0.00000000000E+00  0.68214617161E+03  0.68214617161E+03  0.00000000000E+00 0.  1.
         21   -1    0    0  501  502 -0.00000000000E+00 -0.00000000000E+00 -0.57906448957E+03  0.57906448957E+03  0.00000000000E+00 0.  1.
         25    1    1    2    0    0 -0.54182309715E+02  0.38959379436E+03 -0.31231951649E+03  0.51757852320E+03  0.12500000000E+03 0.  0.
         25    1    1    2    0    0  0.12178257099E+03 -0.67647235923E+02 -0.14888761570E+02  0.18776000199E+03  0.12500000000E+03 0.  0.
         25    1    1    2    0    0 -0.67600261274E+02 -0.32194655844E+03  0.43028996010E+03  0.55587213600E+03  0.12500000000E+03 0.  0.
</event>
<event>
 5    0  0.5728184E-005  0.2935246E+03  0.7546771E-02  0.1088523E+00
         21   -1    0    0  502  501  0.00000000000E+00  0.00000000000E+00  0.20051499018E+03  0.20051499018E+03  0.00000000000E+00 0.  1.
         21   -1    0    0  501  502 -0.00000000000E+00 -0.00000000000E+00 -0.42967694187E+03  0.42967694187E+03  0.00000000000E+00 0.  1.
         25    1    1    2    0    0 -0.49643170846E+02  0.38756944269E+02 -0.10512004870E+03  0.17504790710E+03  0.12500000000E+03 0.  0.
         25    1    1    2    0    0  0.53305042390E+02 -0.14275296643E+03  0.63341057651E+02  0.20701914538E+03  0.12500000000E+03 0.  0.
         25    1    1    2    0    0 -0.36618715441E+01  0.10399602216E+03 -0.18738296063E+03  0.24812487957E+03  0.12500000000E+03 0.  0.
</event>
<event>
 5    0  0.5728184E-005  0.4145461E+03  0.7546771E-02  0.1038856E+00
         21   -1    0    0  502  501  0.00000000000E+00  0.00000000000E+00  0.32020603375E+03  0.32020603375E+03  0.00000000000E+00 0. -1.
         21   -1    0    0  501  502 -0.00000000000E+00 -0.00000000000E+00 -0.53668080349E+03  0.53668080349E+03  0.00000000000E+00 0. -1.
         25    1    1    2    0    0 -0.18491631957E+03 -0.14383080904E+03  0.13829121013E+01  0.26553391369E+03  0.12500000000E+03 0.  0.
         25    1    1    2    0    0  0.25450422461E+03  0.24461423993E+03 -0.13959029602E+03  0.39964856744E+03  0.12500000000E+03 0.  0.
         25    1    1    2    0    0 -0.69587905033E+02 -0.10078343088E+03 -0.78267385827E+02  0.19170435611E+03  0.12500000000E+03 0.  0.
</event>
<event>
 5    0  0.5728184E-005  0.3997262E+03  0.7546771E-02  0.1043875E+00
         21   -1    0    0  502  501  0.00000000000E+00  0.00000000000E+00  0.28849252292E+03  0.28849252292E+03  0.00000000000E+00 0.  1.
         21   -1    0    0  501  502 -0.00000000000E+00 -0.00000000000E+00 -0.55384797383E+03  0.55384797383E+03  0.00000000000E+00 0.  1.
         25    1    1    2    0    0  0.26992411721E+03  0.16752714584E+03 -0.18221656908E+03  0.38697836075E+03  0.12500000000E+03 0.  0.
         25    1    1    2    0    0 -0.23430002104E+03 -0.51821783171E+02 -0.24255447709E+02  0.27165294737E+03  0.12500000000E+03 0.  0.
         25    1    1    2    0    0 -0.35624096169E+02 -0.11570536266E+03 -0.58883434117E+02  0.18370918864E+03  0.12500000000E+03 0.  0.
</event>
<event>
 5    0  0.5728184E-005  0.2341315E+03  0.7546771E-02  0.1123765E+00
         21   -1    0    0  502  501  0.00000000000E+00  0.00000000000E+00  0.74060080809E+03  0.74060080809E+03  0.00000000000E+00 0.  1.
         21   -1    0    0  501  502 -0.00000000000E+00 -0.00000000000E+00 -0.74017703469E+02  0.74017703469E+02  0.00000000000E+00 0.  1.
         25    1    1    2    0    0 -0.33783102555E+02  0.21766208019E+02  0.20295900873E+03  0.24172799808E+03  0.12500000000E+03 0.  0.
         25    1    1    2    0    0  0.38619802590E+02 -0.11732983075E+03  0.28474583878E+03  0.33460868345E+03  0.12500000000E+03 0.  0.
         25    1    1    2    0    0 -0.48367000358E+01  0.95563622733E+02  0.17887825711E+03  0.23828183003E+03  0.12500000000E+03 0.  0.
</event>
<event>
 5    0  0.5728184E-005  0.2388780E+03  0.7546771E-02  0.1120543E+00
         21   -1    0    0  502  501  0.00000000000E+00  0.00000000000E+00  0.38591491461E+03  0.38591491461E+03  0.00000000000E+00 0.  1.
         21   -1    0    0  501  502 -0.00000000000E+00 -0.00000000000E+00 -0.14786341178E+03  0.14786341178E+03  0.00000000000E+00 0.  1.
         25    1    1    2    0    0 -0.78280013716E+01 -0.22415419437E+02  0.80912041148E+01  0.12749194570E+03  0.12500000000E+03 0.  0.
         25    1    1    2    0    0  0.55912664660E+02  0.29409755729E+02  0.23332323592E+03  0.27213212273E+03  0.12500000000E+03 0.  0.
         25    1    1    2    0    0 -0.48084663289E+02 -0.69943362916E+01 -0.33629372052E+01  0.13415425797E+03  0.12500000000E+03 0.  0.
</event>
<event>
 5    0  0.5728184E-005  0.2515103E+03  0.7546771E-02  0.1112354E+00
         21   -1    0    0  502  501  0.00000000000E+00  0.00000000000E+00  0.67563455720E+02  0.67563455720E+02  0.00000000000E+00 0.  1.
         21   -1    0    0  501  502 -0.00000000000E+00 -0.00000000000E+00 -0.93626718060E+03  0.93626718060E+03  0.00000000000E+00 0.  1.
         25    1    1    2    0    0  0.53746767923E+02  0.63092608973E+01 -0.20772168870E+03  0.24839851407E+03  0.12500000000E+03 0.  0.
         25    1    1    2    0    0  0.90125907645E+02  0.91749215261E+01 -0.42209744754E+03  0.44944200252E+03  0.12500000000E+03 0.  0.
         25    1    1    2    0    0 -0.14387267557E+03 -0.15484182423E+02 -0.23888458864E+03  0.30599011973E+03  0.12500000000E+03 0.  0.
</event>
<event>
 5    0  0.5827018E-005  0.3845628E+03  0.7546771E-02  0.1049260E+00
         21   -1    0    0  502  501  0.00000000000E+00  0.00000000000E+00  0.43449214956E+03  0.43449214956E+03  0.00000000000E+00 0.  1.
         21   -1    0    0  501  502 -0.00000000000E+00 -0.00000000000E+00 -0.34037101331E+03  0.34037101331E+03  0.00000000000E+00 0.  1.
         25    1    1    2    0    0 -0.19553214445E+02 -0.22325803720E+03  0.66277113310E+02  0.26503610153E+03  0.12500000000E+03 0.  0.
         25    1    1    2    0    0  0.19667015011E+03  0.10964860748E+03 -0.27173006181E+02  0.25896976143E+03  0.12500000000E+03 0.  0.
         25    1    1    2    0    0 -0.17711693567E+03  0.11360942971E+03  0.55017029119E+02  0.25085729990E+03  0.12500000000E+03 0.  0.
</event>
<event>
 5    0  0.5728184E-005  0.2585712E+03  0.7546771E-02  0.1108005E+00
         21   -1    0    0  502  501  0.00000000000E+00  0.00000000000E+00  0.84388069788E+02  0.84388069788E+02  0.00000000000E+00 0.  1.
         21   -1    0    0  501  502 -0.00000000000E+00 -0.00000000000E+00 -0.79228080301E+03  0.79228080301E+03  0.00000000000E+00 0.  1.
         25    1    1    2    0    0  0.28248848233E+02 -0.40805785650E+02 -0.29874253977E+03  0.32762053451E+03  0.12500000000E+03 0.  0.
         25    1    1    2    0    0 -0.77805336951E+02  0.18395245769E+02 -0.37299389436E+02  0.15299771233E+03  0.12500000000E+03 0.  0.
         25    1    1    2    0    0  0.49556488718E+02  0.22410539881E+02 -0.37185080402E+03  0.39605062596E+03  0.12500000000E+03 0.  0.
</event>
<event>
 5    0  0.5728184E-005  0.3269581E+03  0.7546771E-02  0.1072491E+00
         21   -1    0    0  502  501  0.00000000000E+00  0.00000000000E+00  0.13121213754E+03  0.13121213754E+03  0.00000000000E+00 0.  1.
         21   -1    0    0  501  502 -0.00000000000E+00 -0.00000000000E+00 -0.81472353307E+03  0.81472353307E+03  0.00000000000E+00 0.  1.
         25    1    1    2    0    0  0.19507020445E+03  0.98627350936E+02 -0.96315958114E+02  0.26959507192E+03  0.12500000000E+03 0.  0.
         25    1    1    2    0    0 -0.73279723355E+02 -0.51402413137E+02 -0.29694743422E+03  0.33438735715E+03  0.12500000000E+03 0.  0.
         25    1    1    2    0    0 -0.12179048110E+03 -0.47224937799E+02 -0.29024800320E+03  0.34195324154E+03  0.12500000000E+03 0.  0.
</event>
<event>
 5    0  0.5728184E-005  0.2286806E+03  0.7546771E-02  0.1127572E+00
         21   -1    0    0  502  501  0.00000000000E+00  0.00000000000E+00  0.14964267242E+04  0.14964267242E+04  0.00000000000E+00 0. -1.
         21   -1    0    0  501  502 -0.00000000000E+00 -0.00000000000E+00 -0.34946458950E+02  0.34946458950E+02  0.00000000000E+00 0. -1.
         25    1    1    2    0    0  0.32583075104E+02  0.54012259961E+01  0.63582063776E+03  0.64883257735E+03  0.12500000000E+03 0.  0.
         25    1    1    2    0    0 -0.73431235815E+01  0.71633939679E+02  0.25732268556E+03  0.29500052081E+03  0.12500000000E+03 0.  0.
         25    1    1    2    0    0 -0.25239951522E+02 -0.77035165675E+02  0.56833694191E+03  0.58754008497E+03  0.12500000000E+03 0.  0.
</event>
<event>
 5    0  0.5728184E-005  0.2410641E+03  0.7546771E-02  0.1119086E+00
         21   -1    0    0  502  501  0.00000000000E+00  0.00000000000E+00  0.10908935338E+03  0.10908935338E+03  0.00000000000E+00 0.  1.
         21   -1    0    0  501  502 -0.00000000000E+00 -0.00000000000E+00 -0.53269989135E+03  0.53269989135E+03  0.00000000000E+00 0.  1.
         25    1    1    2    0    0  0.61373316799E+02 -0.85987864141E+02 -0.25273999364E+03  0.30110314043E+03  0.12500000000E+03 0.  0.
         25    1    1    2    0    0 -0.11668576805E+02 -0.71249733526E+01 -0.42502066273E+02  0.13273411983E+03  0.12500000000E+03 0.  0.
         25    1    1    2    0    0 -0.49704739994E+02  0.93112837494E+02 -0.12836847805E+03  0.20795198446E+03  0.12500000000E+03 0.  0.
</event>
<event>
 5    0  0.5728184E-005  0.3281542E+03  0.7546771E-02  0.1071957E+00
         21   -1    0    0  502  501  0.00000000000E+00  0.00000000000E+00  0.31405808712E+03  0.31405808712E+03  0.00000000000E+00 0. -1.
         21   -1    0    0  501  502 -0.00000000000E+00 -0.00000000000E+00 -0.34288292736E+03  0.34288292736E+03  0.00000000000E+00 0. -1.
         25    1    1    2    0    0  0.17978613895E+02  0.12014582204E+03 -0.13710170458E+02  0.17484626929E+03  0.12500000000E+03 0.  0.
         25    1    1    2    0    0 -0.16103199688E+03 -0.16718111219E+03  0.63513960823E+02  0.27118232153E+03  0.12500000000E+03 0.  0.
         25    1    1    2    0    0  0.14305338298E+03  0.47035290150E+02 -0.78628630601E+02  0.21091242366E+03  0.12500000000E+03 0.  0.
</event>
<event>
 5    0  0.5962730E-005  0.3169073E+03  0.7546771E-02  0.1077082E+00
         21   -1    0    0  502  501  0.00000000000E+00  0.00000000000E+00  0.32117802565E+03  0.32117802565E+03  0.00000000000E+00 0.  1.
         21   -1    0    0  501  502 -0.00000000000E+00 -0.00000000000E+00 -0.31269338914E+03  0.31269338914E+03  0.00000000000E+00 0.  1.
         25    1    1    2    0    0 -0.13630228613E+03  0.11574778736E+02 -0.44004337056E+02  0.19045647899E+03  0.12500000000E+03 0.  0.
         25    1    1    2    0    0  0.21353127340E+02  0.13576629062E+03 -0.55647332711E+02  0.19393315177E+03  0.12500000000E+03 0.  0.
         25    1    1    2    0    0  0.11494915879E+03 -0.14734106936E+03  0.10813630627E+03  0.24948178403E+03  0.12500000000E+03 0.  0.
</event>
<event>
 5    0  0.5728184E-005  0.3217695E+03  0.7546771E-02  0.1074838E+00
         21   -1    0    0  502  501  0.00000000000E+00  0.00000000000E+00  0.13231170700E+04  0.13231170700E+04  0.00000000000E+00 0.  1.
         21   -1    0    0  501  502 -0.00000000000E+00 -0.00000000000E+00 -0.78251261479E+02  0.78251261479E+02  0.00000000000E+00 0.  1.
         25    1    1    2    0    0 -0.51900126660E+02 -0.62043776127E+02  0.74193614394E+03  0.75672801916E+03  0.12500000000E+03 0.  0.
         25    1    1    2    0    0  0.14048579212E+03  0.11207725712E+03  0.39200217158E+03  0.44898582592E+03  0.12500000000E+03 0.  0.
         25    1    1    2    0    0 -0.88585665455E+02 -0.50033480997E+02  0.11092749300E+03  0.19565448640E+03  0.12500000000E+03 0.  0.
</event>
<event>
 5    0  0.5728184E-005  0.2679986E+03  0.7546771E-02  0.1102431E+00
         21   -1    0    0  502  501  0.00000000000E+00  0.00000000000E+00  0.21659525625E+03  0.21659525625E+03  0.00000000000E+00 0.  1.
         21   -1    0    0  501  502 -0.00000000000E+00 -0.00000000000E+00 -0.33160115935E+03  0.33160115935E+03  0.00000000000E+00 0.  1.
         25    1    1    2    0    0 -0.11987215713E+03 -0.94326294101E+02 -0.56275972550E+02  0.20508234663E+03  0.12500000000E+03 0.  0.
         25    1    1    2    0    0  0.73376361101E+02  0.64577569285E+01 -0.10234588220E+03  0.17755413990E+03  0.12500000000E+03 0.  0.
         25    1    1    2    0    0  0.46495796027E+02  0.87868537172E+02  0.43615951655E+02  0.16555992906E+03  0.12500000000E+03 0.  0.
</event>
<event>
 5    0  0.5728184E-005  0.2853943E+03  0.7546771E-02  0.1092779E+00
         21   -1    0    0  502  501  0.00000000000E+00  0.00000000000E+00  0.40825912802E+03  0.40825912802E+03  0.00000000000E+00 0.  1.
         21   -1    0    0  501  502 -0.00000000000E+00 -0.00000000000E+00 -0.19950543475E+03  0.19950543475E+03  0.00000000000E+00 0.  1.
         25    1    1    2    0    0  0.64973728060E+02 -0.12789481830E+03  0.78953721661E+02  0.20600330107E+03  0.12500000000E+03 0.  0.
         25    1    1    2    0    0 -0.63282763696E+02  0.16976530897E+03  0.15277559036E+03  0.26793721152E+03  0.12500000000E+03 0.  0.
         25    1    1    2    0    0 -0.16909643641E+01 -0.41870490666E+02 -0.22975618751E+02  0.13382405018E+03  0.12500000000E+03 0.  0.
</event>
<event>
 5    0  0.5728184E-005  0.2480713E+03  0.7546771E-02  0.1114530E+00
         21   -1    0    0  502  501  0.00000000000E+00  0.00000000000E+00  0.14959501286E+03  0.14959501286E+03  0.00000000000E+00 0. -1.
         21   -1    0    0  501  502 -0.00000000000E+00 -0.00000000000E+00 -0.41137327477E+03  0.41137327477E+03  0.00000000000E+00 0. -1.
         25    1    1    2    0    0 -0.15433435988E+02 -0.56712080349E+01 -0.10418406739E+03  0.16355327403E+03  0.12500000000E+03 0.  0.
         25    1    1    2    0    0  0.61047415463E+02 -0.32179245733E+02 -0.20617685214E+03  0.25079111856E+03  0.12500000000E+03 0.  0.
         25    1    1    2    0    0 -0.45613979475E+02  0.37850453768E+02  0.48582657628E+02  0.14662389504E+03  0.12500000000E+03 0.  0.
</event>
<event>
 5    0  0.5728184E-005  0.2586399E+03  0.7546771E-02  0.1107963E+00
         21   -1    0    0  502  501  0.00000000000E+00  0.00000000000E+00  0.11576200756E+03  0.11576200756E+03  0.00000000000E+00 0.  1.
         21   -1    0    0  501  502 -0.00000000000E+00 -0.00000000000E+00 -0.57786310880E+03  0.57786310880E+03  0.00000000000E+00 0.  1.
         25    1    1    2    0    0 -0.97024122121E+02  0.76429466580E+02 -0.75683950348E+02  0.19133270493E+03  0.12500000000E+03 0.  0.
         25    1    1    2    0    0  0.75489394367E+02  0.24790083221E+02 -0.12127262708E+03  0.19142948301E+03  0.12500000000E+03 0.  0.
         25    1    1    2    0    0  0.21534727754E+02 -0.10121954980E+03 -0.26514452381E+03  0.31086292842E+03  0.12500000000E+03 0.  0.
</event>
<event>
 5    0  0.5728184E-005  0.3904685E+03  0.7546771E-02  0.1047131E+00
         21   -1    0    0  502  501  0.00000000000E+00  0.00000000000E+00  0.26473499296E+03  0.26473499296E+03  0.00000000000E+00 0.  1.
         21   -1    0    0  501  502 -0.00000000000E+00 -0.00000000000E+00 -0.57591807456E+03  0.57591807456E+03  0.00000000000E+00 0.  1.
         25    1    1    2    0    0 -0.11961142629E+03  0.14823380972E+03 -0.44418356203E+02  0.23211666466E+03  0.12500000000E+03 0.  0.
         25    1    1    2    0    0  0.14335073896E+03  0.13693464211E+03 -0.10406780596E+03  0.25642862322E+03  0.12500000000E+03 0.  0.
         25    1    1    2    0    0 -0.23739312671E+02 -0.28516845183E+03 -0.16269691944E+03  0.35210777964E+03  0.12500000000E+03 0.  0.
</event>
<event>
 5    0  0.5728184E-005  0.2768432E+03  0.7546771E-02  0.1097426E+00
         21   -1    0    0  502  501  0.00000000000E+00  0.00000000000E+00  0.30015837574E+03  0.30015837574E+03  0.00000000000E+00 0. -1.
         21   -1    0    0  501  502 -0.00000000000E+00 -0.00000000000E+00 -0.25533898341E+03  0.25533898341E+03  0.00000000000E+00 0. -1.
         25    1    1    2    0    0 -0.69410270910E+02  0.12728401438E+03  0.90524753042E+02  0.21175159253E+03  0.12500000000E+03 0.  0.
         25    1    1    2    0    0  0.63389202127E+02 -0.13794321399E+03  0.27197862988E+02  0.19852265610E+03  0.12500000000E+03 0.  0.
         25    1    1    2    0    0  0.60210687825E+01  0.10659199610E+02 -0.72903223701E+02  0.14522311053E+03  0.12500000000E+03 0.  0.
</event>
<event>
 5    0  0.5728184E-005  0.4032435E+03  0.7546771E-02  0.1042662E+00
         21   -1    0    0  502  501  0.00000000000E+00  0.00000000000E+00  0.69287898943E+03  0.69287898943E+03  0.00000000000E+00 0.  1.
         21   -1    0    0  501  502 -0.00000000000E+00 -0.00000000000E+00 -0.23468067692E+03  0.23468067692E+03  0.00000000000E+00 0.  1.
         25    1    1    2    0    0 -0.18762793647E+02  0.90733819553E+00 -0.14232121712E+03  0.19035018920E+03  0.12500000000E+03 0.  0.
         25    1    1    2    0    0 -0.34032042493E+02 -0.16187221339E+03  0.37635290703E+03  0.42968279465E+03  0.12500000000E+03 0.  0.
         25    1    1    2    0    0  0.52794836140E+02  0.16096487519E+03  0.22416662260E+03  0.30752668251E+03  0.12500000000E+03 0.  0.
</event>
<event>
 5    0  0.5728184E-005  0.3707808E+03  0.7546771E-02  0.1054395E+00
         21   -1    0    0  502  501  0.00000000000E+00  0.00000000000E+00  0.41024585792E+03  0.41024585792E+03  0.00000000000E+00 0. -1.
         21   -1    0    0  501  502 -0.00000000000E+00 -0.00000000000E+00 -0.33511213965E+03  0.33511213965E+03  0.00000000000E+00 0. -1.
         25    1    1    2    0    0 -0.54064303473E+00 -0.27893250975E+02 -0.66116423571E+02  0.14413433738E+03  0.12500000000E+03 0.  0.
         25    1    1    2    0    0 -0.22812553824E+03  0.27066323489E+02  0.20574224916E+03  0.33275925255E+03  0.12500000000E+03 0.  0.
         25    1    1    2    0    0  0.22866618127E+03  0.82692748579E+00 -0.64492107315E+02  0.26846440765E+03  0.12500000000E+03 0.  0.
</event>
<event>
 5    0  0.5728184E-005  0.2504081E+03  0.7546771E-02  0.1113047E+00
         21   -1    0    0  502  501  0.00000000000E+00  0.00000000000E+00  0.64253539299E+03  0.64253539299E+03  0.00000000000E+00 0. -1.
         21   -1    0    0  501  502 -0.00000000000E+00 -0.00000000000E+00 -0.97588774194E+02  0.97588774194E+02  0.00000000000E+00 0. -1.
         25    1    1    2    0    0  0.80235795091E+02 -0.12783606264E+03  0.16815972436E+03  0.25822961608E+03  0.12500000000E+03 0.  0.
         25    1    1    2    0    0 -0.76042774488E+02  0.66342598520E+02  0.18929775868E+03  0.24827904738E+03  0.12500000000E+03 0.  0.
         25    1    1    2    0    0 -0.41930206032E+01  0.61493464115E+02  0.18748913576E+03  0.23361550372E+03  0.12500000000E+03 0.  0.
</event>
<event>
 5    0  0.5728184E-005  0.2361174E+03  0.7546771E-02  0.1122407E+00
         21   -1    0    0  502  501  0.00000000000E+00  0.00000000000E+00  0.30646803329E+03  0.30646803329E+03  0.00000000000E+00 0. -1.
         21   -1    0    0  501  502 -0.00000000000E+00 -0.00000000000E+00 -0.18191592891E+03  0.18191592891E+03  0.00000000000E+00 0. -1.
         25    1    1    2    0    0 -0.62384401056E+02  0.90614973703E+02 -0.34111011104E+02  0.16997484529E+03  0.12500000000E+03 0.  0.
         25    1    1    2    0    0  0.29959616848E+02 -0.25396883751E+02  0.67230806521E+02  0.14726697420E+03  0.12500000000E+03 0.  0.
         25    1    1    2    0    0  0.32424784209E+02 -0.65218089952E+02  0.91432308961E+02  0.17114214271E+03  0.12500000000E+03 0.  0.
</event>
<event>
 5    0  0.5728184E-005  0.3474918E+03  0.7546771E-02  0.1063649E+00
         21   -1    0    0  502  501  0.00000000000E+00  0.00000000000E+00  0.76820512848E+03  0.76820512848E+03  0.00000000000E+00 0. -1.
         21   -1    0    0  501  502 -0.00000000000E+00 -0.00000000000E+00 -0.15718525576E+03  0.15718525576E+03  0.00000000000E+00 0. -1.
         25    1    1    2    0    0 -0.83322193030E+02 -0.25587402906E+03  0.17190716999E+03  0.34291570640E+03  0.12500000000E+03 0.  0.
         25    1    1    2    0    0  0.81578530898E+02  0.18319438113E+03  0.24462644577E+03  0.34012106073E+03  0.12500000000E+03 0.  0.
         25    1    1    2    0    0  0.17436621323E+01  0.72679647937E+02  0.19448625695E+03  0.24235361711E+03  0.12500000000E+03 0.  0.
</event>
<event>
 5    0  0.5728184E-005  0.2112737E+03  0.7546771E-02  0.1140561E+00
         21   -1    0    0  502  501  0.00000000000E+00  0.00000000000E+00  0.18692318380E+03  0.18692318380E+03  0.00000000000E+00 0.  1.
         21   -1    0    0  501  502 -0.00000000000E+00 -0.00000000000E+00 -0.23879642347E+03  0.23879642347E+03  0.00000000000E+00 0.  1.
         25    1    1    2    0    0 -0.62184042613E+01  0.65391576155E+01 -0.32135206376E+02  0.12937967624E+03  0.12500000000E+03 0.  0.
         25    1    1    2    0    0  0.51029908844E+02  0.27977484690E+02  0.44442216343E+02  0.14486856747E+03  0.12500000000E+03 0.  0.
         25    1    1    2    0    0 -0.44811504582E+02 -0.34516642305E+02 -0.64180249631E+02  0.15147136357E+03  0.12500000000E+03 0.  0.
</event>
<event>
 5    0  0.5728184E-005  0.3461230E+03  0.7546771E-02  0.1064218E+00
         21   -1    0    0  502  501  0.00000000000E+00  0.00000000000E+00  0.15191275207E+04  0.15191275207E+04  0.00000000000E+00 0. -1.
         21   -1    0    0  501  502 -0.00000000000E+00 -0.00000000000E+00 -0.78861814172E+02  0.78861814172E+02  0.00000000000E+00 0. -1.
         25    1    1    2    0    0 -0.10284769823E+03 -0.13519701370E+03  0.78966837731E+03  0.81734755623E+03  0.12500000000E+03 0.  0.
         25    1    1    2    0    0  0.20147061525E+03  0.72284016940E+02  0.47270161055E+03  0.53374825576E+03  0.12500000000E+03 0.  0.
         25    1    1    2    0    0 -0.98622917022E+02  0.62912996762E+02  0.17789571869E+03  0.24689352290E+03  0.12500000000E+03 0.  0.
</event>
<event>
 5    0  0.5728184E-005  0.3626549E+03  0.7546771E-02  0.1057538E+00
         21   -1    0    0  502  501  0.00000000000E+00  0.00000000000E+00  0.14632548436E+03  0.14632548436E+03  0.00000000000E+00 0.  1.
         21   -1    0    0  501  502 -0.00000000000E+00 -0.00000000000E+00 -0.89880829719E+03  0.89880829719E+03  0.00000000000E+00 0.  1.
         25    1    1    2    0    0 -0.16740618202E+03  0.60320946940E+02 -0.34406474638E+03  0.40702456452E+03  0.12500000000E+03 0.  0.
         25    1    1    2    0    0  0.39432489155E+02 -0.13597326375E+03 -0.33611049316E+01  0.18889136212E+03  0.12500000000E+03 0.  0.
         25    1    1    2    0    0  0.12797369286E+03  0.75652316809E+02 -0.40505696152E+03  0.44921785492E+03  0.12500000000E+03 0.  0.
</event>
<event>
 5    0  0.5728184E-005  0.3489913E+03  0.7546771E-02  0.1063030E+00
         21   -1    0    0  502  501  0.00000000000E+00  0.00000000000E+00  0.10738462562E+03  0.10738462562E+03  0.00000000000E+00 0. -1.
         21   -1    0    0  501  502 -0.00000000000E+00 -0.00000000000E+00 -0.11341935115E+04  0.11341935115E+04  0.00000000000E+00 0. -1.
         25    1    1    2    0    0 -0.89917772075E+02 -0.10762990026E+03 -0.21086994098E+03  0.28241907368E+03  0.12500000000E+03 0.  0.
         25    1    1    2    0    0 -0.11287491646E+03 -0.92055788878E+02 -0.34710833281E+03  0.39664115991E+03  0.12500000000E+03 0.  0.
         25    1    1    2    0    0  0.20279268853E+03  0.19968568914E+03 -0.46883061209E+03  0.56251790354E+03  0.12500000000E+03 0.  0.
</event>
<event>
 5    0  0.5728184E-005  0.4241612E+03  0.7546771E-02  0.1035720E+00
         21   -1    0    0  502  501  0.00000000000E+00  0.00000000000E+00  0.47879527450E+03  0.47879527450E+03  0.00000000000E+00 0.  1.
         21   -1    0    0  501  502 -0.00000000000E+00 -0.00000000000E+00 -0.37576135097E+03  0.37576135097E+03  0.00000000000E+00 0.  1.
         25    1    1    2    0    0  0.11483420371E+03  0.27652119173E+03 -0.42743769199E+02  0.32726578438E+03  0.12500000000E+03 0.  0.
         25    1    1    2    0    0  0.99418762364E+02 -0.12114487116E+03  0.36281437270E+00  0.20046271911E+03  0.12500000000E+03 0.  0.
         25    1    1    2    0    0 -0.21425296608E+03 -0.15537632058E+03  0.14541487836E+03  0.32682812198E+03  0.12500000000E+03 0.  0.
</event>
<event>
 5    0  0.5728184E-005  0.4237729E+03  0.7546771E-02  0.1035845E+00
         21   -1    0    0  502  501  0.00000000000E+00  0.00000000000E+00  0.11964863795E+04  0.11964863795E+04  0.00000000000E+00 0.  1.
         21   -1    0    0  501  502 -0.00000000000E+00 -0.00000000000E+00 -0.15009235463E+03  0.15009235463E+03  0.00000000000E+00 0.  1.
         25    1    1    2    0    0 -0.77694969975E+00  0.28810046574E+03  0.23956689607E+03  0.39499339198E+03  0.12500000000E+03 0.  0.
         25    1    1    2    0    0  0.87486502857E+02 -0.28091483373E+03  0.37000297728E+03  0.48897263235E+03  0.12500000000E+03 0.  0.
         25    1    1    2    0    0 -0.86709553157E+02 -0.71856320072E+01  0.43682415149E+03  0.46261270977E+03  0.12500000000E+03 0.  0.
</event>
<event>
 5    0  0.5728184E-005  0.3554114E+03  0.7546771E-02  0.1060416E+00
         21   -1    0    0  502  501  0.00000000000E+00  0.00000000000E+00  0.33935028256E+03  0.33935028256E+03  0.00000000000E+00 0. -1.
         21   -1    0    0  501  502 -0.00000000000E+00 -0.00000000000E+00 -0.37223276854E+03  0.37223276854E+03  0.00000000000E+00 0. -1.
         25    1    1    2    0    0  0.39916028325E+02  0.99798102784E+02 -0.35966897302E+02  0.16873520183E+03  0.12500000000E+03 0.  0.
         25    1    1    2    0    0 -0.41647041429E+02  0.98823710105E+02  0.18368809652E+03  0.24671221806E+03  0.12500000000E+03 0.  0.
         25    1    1    2    0    0  0.17310131034E+01 -0.19862181289E+03 -0.18060368520E+03  0.29613563121E+03  0.12500000000E+03 0.  0.
</event>
<event>
 5    0  0.5728184E-005  0.2467960E+03  0.7546771E-02  0.1115347E+00
         21   -1    0    0  502  501  0.00000000000E+00  0.00000000000E+00  0.19341550114E+04  0.19341550114E+04  0.00000000000E+00 0. -1.
         21   -1    0    0  501  502 -0.00000000000E+00 -0.00000000000E+00 -0.31490889995E+02  0.31490889995E+02  0.00000000000E+00 0. -1.
         25    1    1    2    0    0  0.22336693790E+02 -0.46557446995E+02  0.11596349184E+04  0.11674950397E+04  0.12500000000E+03 0.  0.
         25    1    1    2    0    0 -0.37934152359E+02 -0.23446855588E+02  0.23294407414E+03  0.26809829658E+03  0.12500000000E+03 0.  0.
         25    1    1    2    0    0  0.15597458569E+02  0.70004302583E+02  0.51008512888E+03  0.53005256513E+03  0.12500000000E+03 0.  0.
</event>
<event>
 5    0  0.5728184E-005  0.3017263E+03  0.7546771E-02  0.1084381E+00
         21   -1    0    0  502  501  0.00000000000E+00  0.00000000000E+00  0.25798375130E+03  0.25798375130E+03  0.00000000000E+00 0.  1.
         21   -1    0    0  501  502 -0.00000000000E+00 -0.00000000000E+00 -0.35288555404E+03  0.35288555404E+03  0.00000000000E+00 0.  1.
         25    1    1    2    0    0 -0.60096306645E+02 -0.12062327090E+02 -0.49892416243E+02  0.14788955002E+03  0.12500000000E+03 0.  0.
         25    1    1    2    0    0 -0.10687385954E+03  0.11972043365E+03 -0.92561466575E+02  0.22348966236E+03  0.12500000000E+03 0.  0.
         25    1    1    2    0    0  0.16697016618E+03 -0.10765810656E+03  0.47552080080E+02  0.23949009296E+03  0.12500000000E+03 0.  0.
</event>
<event>
 5    0  0.5728184E-005  0.1939944E+03  0.7546771E-02  0.1154907E+00
         21   -1    0    0  502  501  0.00000000000E+00  0.00000000000E+00  0.32928742120E+03  0.32928742120E+03  0.00000000000E+00 0.  1.
         21   -1    0    0  501  502 -0.00000000000E+00 -0.00000000000E+00 -0.11428870262E+03  0.11428870262E+03  0.00000000000E+00 0.  1.
         25    1    1    2    0    0 -0.12736473090E+02  0.21204985879E+02  0.89694615399E+02  0.15582680515E+03  0.12500000000E+03 0.  0.
         25    1    1    2    0    0  0.37825543221E+02 -0.11980345961E+02  0.66589745444E+02  0.14708329139E+03  0.12500000000E+03 0.  0.
         25    1    1    2    0    0 -0.25089070131E+02 -0.92246399181E+01  0.58714357740E+02  0.14066602726E+03  0.12500000000E+03 0.  0.
</event>
<event>
 5    0  0.5728184E-005  0.2230089E+03  0.7546771E-02  0.1131659E+00
         21   -1    0    0  502  501  0.00000000000E+00  0.00000000000E+00  0.12739358018E+04  0.12739358018E+04  0.00000000000E+00 0.  1.
         21   -1    0    0  501  502 -0.00000000000E+00 -0.00000000000E+00 -0.39038834222E+02  0.39038834222E+02  0.00000000000E+00 0.  1.
         25    1    1    2    0    0 -0.14286447545E+02 -0.78292592813E+02  0.32856930730E+03  0.36043948504E+03  0.12500000000E+03 0.  0.
         25    1    1    2    0    0  0.41919938183E+02  0.96806923655E+02  0.52165835173E+03  0.54670037280E+03  0.12500000000E+03 0.  0.
         25    1    1    2    0    0 -0.27633490637E+02 -0.18514330843E+02  0.38466930856E+03  0.40583477820E+03  0.12500000000E+03 0.  0.
</event>
<event>
 5    0  0.5728184E-005  0.3878417E+03  0.7546771E-02  0.1048073E+00
         21   -1    0    0  502  501  0.00000000000E+00  0.00000000000E+00  0.12314974255E+03  0.12314974255E+03  0.00000000000E+00 0. -1.
         21   -1    0    0  501  502 -0.00000000000E+00 -0.00000000000E+00 -0.12214493704E+04  0.12214493704E+04  0.00000000000E+00 0. -1.
         25    1    1    2    0    0 -0.87018854797E+02  0.11099810354E+02 -0.52000169285E+03  0.54196148152E+03  0.12500000000E+03 0.  0.
         25    1    1    2    0    0  0.20556356020E+03  0.17602169037E+03 -0.26296707219E+03  0.39751313666E+03  0.12500000000E+03 0.  0.
         25    1    1    2    0    0 -0.11854470541E+03 -0.18712150072E+03 -0.31533086279E+03  0.40512449474E+03  0.12500000000E+03 0.  0.
</event>
<event>
 5    0  0.5728184E-005  0.3047162E+03  0.7546771E-02  0.1082907E+00
         21   -1    0    0  502  501  0.00000000000E+00  0.00000000000E+00  0.22623505319E+03  0.22623505319E+03  0.00000000000E+00 0. -1.
         21   -1    0    0  501  502 -0.00000000000E+00 -0.00000000000E+00 -0.41042247434E+03  0.41042247434E+03  0.00000000000E+00 0. -1.
         25    1    1    2    0    0  0.42395942186E+02 -0.15319690112E+03  0.60194839320E+02  0.21098607800E+03  0.12500000000E+03 0.  0.
         25    1    1    2    0    0  0.70017990363E+02  0.87509525102E+02 -0.12411778845E+03  0.20878376701E+03  0.12500000000E+03 0.  0.
         25    1    1    2    0    0 -0.11241393255E+03  0.65687376023E+02 -0.12026447202E+03  0.21688768252E+03  0.12500000000E+03 0.  0.
</event>
<event>
 5    0  0.5728184E-005  0.3127170E+03  0.7546771E-02  0.1079051E+00
         21   -1    0    0  502  501  0.00000000000E+00  0.00000000000E+00  0.75832466422E+02  0.75832466422E+02  0.00000000000E+00 0. -1.
         21   -1    0    0  501  502 -0.00000000000E+00 -0.00000000000E+00 -0.12895786350E+04  0.12895786350E+04  0.00000000000E+00 0. -1.
         25    1    1    2    0    0 -0.76707873421E+02 -0.18934308180E+03 -0.44173619771E+03  0.50248459563E+03  0.12500000000E+03 0.  0.
         25    1    1    2    0    0  0.63170189129E+02  0.21286111142E+03 -0.46287829293E+03  0.52837641849E+03  0.12500000000E+03 0.  0.
         25    1    1    2    0    0  0.13537684292E+02 -0.23518029620E+02 -0.30913167792E+03  0.33455008729E+03  0.12500000000E+03 0.  0.
</event>
<event>
 5    0  0.5728184E-005  0.2713394E+03  0.7546771E-02  0.1100515E+00
         21   -1    0    0  502  501  0.00000000000E+00  0.00000000000E+00  0.31391317093E+03  0.31391317093E+03  0.00000000000E+00 0. -1.
         21   -1    0    0  501  502 -0.00000000000E+00 -0.00000000000E+00 -0.23453963719E+03  0.23453963719E+03  0.00000000000E+00 0. -1.
         25    1    1    2    0    0 -0.18603369147E+02 -0.15970116398E+02  0.87691663930E+02  0.15464785121E+03  0.12500000000E+03 0.  0.
         25    1    1    2    0    0 -0.10555798656E+03  0.33000362324E+02  0.91762461104E+02  0.19046485688E+03  0.12500000000E+03 0.  0.
         25    1    1    2    0    0  0.12416135570E+03 -0.17030245927E+02 -0.10008059129E+03  0.20334010003E+03  0.12500000000E+03 0.  0.
</event>
<event>
 5    0  0.5728184E-005  0.2669838E+03  0.7546771E-02  0.1103018E+00
         21   -1    0    0  502  501  0.00000000000E+00  0.00000000000E+00  0.45520862585E+03  0.45520862585E+03  0.00000000000E+00 0. -1.
         21   -1    0    0  501  502 -0.00000000000E+00 -0.00000000000E+00 -0.15658832333E+03  0.15658832333E+03  0.00000000000E+00 0. -1.
         25    1    1    2    0    0  0.69894161678E+02  0.15579853087E+02  0.23662210810E+03  0.27702517521E+03  0.12500000000E+03 0.  0.
         25    1    1    2    0    0 -0.13590765098E+03  0.56703621731E+01  0.20208381758E+02  0.18583977318E+03  0.12500000000E+03 0.  0.
         25    1    1    2    0    0  0.66013489300E+02 -0.21250215260E+02  0.41789812663E+02  0.14893200079E+03  0.12500000000E+03 0.  0.
</event>
<event>
 5    0  0.5728184E-005  0.3197389E+03  0.7546771E-02  0.1075770E+00
         21   -1    0    0  502  501  0.00000000000E+00  0.00000000000E+00  0.10635622148E+04  0.10635622148E+04  0.00000000000E+00 0.  1.
         21   -1    0    0  501  502 -0.00000000000E+00 -0.00000000000E+00 -0.96123159591E+02  0.96123159591E+02  0.00000000000E+00 0.  1.
         25    1    1    2    0    0 -0.32719049757E+02  0.11039025404E+02  0.82874697958E+03  0.83883189762E+03  0.12500000000E+03 0.  0.
         25    1    1    2    0    0  0.62653674978E+02  0.35660445515E+02  0.10918426869E+03  0.18095125004E+03  0.12500000000E+03 0.  0.
         25    1    1    2    0    0 -0.29934625221E+02 -0.46699470919E+02  0.29507806928E+02  0.13990222672E+03  0.12500000000E+03 0.  0.
</event>
<event>
 5    0  0.5728184E-005  0.4719015E+03  0.7546771E-02  0.1021385E+00
         21   -1    0    0  502  501  0.00000000000E+00  0.00000000000E+00  0.73047461267E+03  0.73047461267E+03  0.00000000000E+00 0. -1.
         21   -1    0    0  501  502 -0.00000000000E+00 -0.00000000000E+00 -0.30485802694E+03  0.30485802694E+03  0.00000000000E+00 0. -1.
         25    1    1    2    0    0 -0.26000209538E+03  0.24183355421E+03  0.59641044910E+02  0.38113857294E+03  0.12500000000E+03 0.  0.
         25    1    1    2    0    0  0.99574728690E+02  0.59768389757E+02  0.66910391336E+02  0.18327407748E+03  0.12500000000E+03 0.  0.
         25    1    1    2    0    0  0.16042736669E+03 -0.30160194397E+03  0.29906514948E+03  0.47091998919E+03  0.12500000000E+03 0.  0.
</event>
<event>
 5    0  0.5728184E-005  0.5244656E+03  0.7546771E-02  0.1007583E+00
         21   -1    0    0  502  501  0.00000000000E+00  0.00000000000E+00  0.18506214110E+04  0.18506214110E+04  0.00000000000E+00 0. -1.
         21   -1    0    0  501  502 -0.00000000000E+00 -0.00000000000E+00 -0.14863341994E+03  0.14863341994E+03  0.00000000000E+00 0. -1.
         25    1    1    2    0    0 -0.27589501785E+02 -0.19534524393E+03  0.11552542327E+04  0.11786255924E+04  0.12500000000E+03 0.  0.
         25    1    1    2    0    0  0.34547068962E+02  0.34006123492E+03  0.50877136092E+03  0.62554651399E+03  0.12500000000E+03 0.  0.
         25    1    1    2    0    0 -0.69575671769E+01 -0.14471599099E+03  0.37962397425E+02  0.19508272452E+03  0.12500000000E+03 0.  0.
</event>
<event>
 5    0  0.5728184E-005  0.8325960E+03  0.7546771E-02  0.9513998E-01
         21   -1    0    0  502  501  0.00000000000E+00  0.00000000000E+00  0.47871636233E+03  0.47871636233E+03  0.00000000000E+00 0.  1.
         21   -1    0    0  501  502 -0.00000000000E+00 -0.00000000000E+00 -0.14480727197E+04  0.14480727197E+04  0.00000000000E+00 0.  1.
         25    1    1    2    0    0 -0.71908673889E+03  0.24195268160E+03 -0.53039652353E+03  0.93411579066E+03  0.12500000000E+03 0.  0.
         25    1    1    2    0    0  0.40495727205E+03 -0.33437670979E+03 -0.26915975755E+03  0.60321650452E+03  0.12500000000E+03 0.  0.
         25    1    1    2    0    0  0.31412946684E+03  0.92424028191E+02 -0.16980007632E+03  0.38945678687E+03  0.12500000000E+03 0.  0.
</event>
<event>
 5    0  0.5728184E-005  0.3369515E+03  0.7546771E-02  0.1068102E+00
         21   -1    0    0  502  501  0.00000000000E+00  0.00000000000E+00  0.33459344674E+03  0.33459344674E+03  0.00000000000E+00 0.  1.
         21   -1    0    0  501  502 -0.00000000000E+00 -0.00000000000E+00 -0.33932614908E+03  0.33932614908E+03  0.00000000000E+00 0. -1.
         25    1    1    2    0    0  0.16977323517E+03  0.63985999497E+02  0.80852354918E+02  0.23468971602E+03  0.12500000000E+03 0.  0.
         25    1    1    2    0    0 -0.24763545436E+03 -0.25440862029E+02 -0.57535253551E+02  0.28443955618E+03  0.12500000000E+03 0.  0.
         25    1    1    2    0    0  0.77862219189E+02 -0.38545137468E+02 -0.28049803704E+02  0.15479032362E+03  0.12500000000E+03 0.  0.
</event>
<event>
 5    0  0.5728184E-005  0.2600202E+03  0.7546771E-02  0.1107131E+00
         21   -1    0    0  502  501  0.00000000000E+00  0.00000000000E+00  0.16662920079E+03  0.16662920079E+03  0.00000000000E+00 0.  1.
         21   -1    0    0  501  502 -0.00000000000E+00 -0.00000000000E+00 -0.40575419054E+03  0.40575419054E+03  0.00000000000E+00 0.  1.
         25    1    1    2    0    0 -0.82110549529E+02  0.67494317079E+02 -0.73612672347E+02  0.17983728955E+03  0.12500000000E+03 0.  0.
         25    1    1    2    0    0 -0.12473948746E+02  0.71325924990E+02 -0.46799751667E+02  0.15184927965E+03  0.12500000000E+03 0.  0.
         25    1    1    2    0    0  0.94584498275E+02 -0.13882024207E+03 -0.11871256573E+03  0.24069682213E+03  0.12500000000E+03 0.  0.
</event>
<event>
 5    0  0.5728184E-005  0.2738077E+03  0.7546771E-02  0.1099120E+00
         21   -1    0    0  502  501  0.00000000000E+00  0.00000000000E+00  0.91093119007E+02  0.91093119007E+02  0.00000000000E+00 0. -1.
         21   -1    0    0  501  502 -0.00000000000E+00 -0.00000000000E+00 -0.82301100381E+03  0.82301100381E+03  0.00000000000E+00 0. -1.
         25    1    1    2    0    0 -0.74428530484E+01 -0.18830933500E+03 -0.28034554149E+03  0.36018665209E+03  0.12500000000E+03 0.  0.
         25    1    1    2    0    0 -0.30292300244E+02  0.85647503766E+02 -0.20868434181E+03  0.25966761999E+03  0.12500000000E+03 0.  0.
         25    1    1    2    0    0  0.37735153293E+02  0.10266183123E+03 -0.24288800150E+03  0.29424985073E+03  0.12500000000E+03 0.  0.
</event>
<event>
 5    0  0.5728184E-005  0.2744418E+03  0.7546771E-02  0.1098764E+00
         21   -1    0    0  502  501  0.00000000000E+00  0.00000000000E+00  0.32121984851E+04  0.32121984851E+04  0.00000000000E+00 0.  1.
         21   -1    0    0  501  502 -0.00000000000E+00 -0.00000000000E+00 -0.23447578631E+02  0.23447578631E+02  0.00000000000E+00 0.  1.
         25    1    1    2    0    0  0.17128084386E+03  0.18471983641E+02  0.88692344298E+03  0.91210555056E+03  0.12500000000E+03 0.  0.
         25    1    1    2    0    0 -0.12398024997E+03 -0.28757529811E+01  0.15267155307E+04  0.15368359327E+04  0.12500000000E+03 0.  0.
         25    1    1    2    0    0 -0.47300593890E+02 -0.15596230660E+02  0.77511193283E+03  0.78670458052E+03  0.12500000000E+03 0.  0.
</event>
<event>
 5    0  0.5728184E-005  0.2211122E+03  0.7546771E-02  0.1133057E+00
         21   -1    0    0  502  501  0.00000000000E+00  0.00000000000E+00  0.14714497895E+03  0.14714497895E+03  0.00000000000E+00 0.  1.
         21   -1    0    0  501  502 -0.00000000000E+00 -0.00000000000E+00 -0.33226157871E+03  0.33226157871E+03  0.00000000000E+00 0.  1.
         25    1    1    2    0    0  0.17864790941E+02 -0.65745283941E+02 -0.39019461536E+02  0.14761135286E+03  0.12500000000E+03 0.  0.
         25    1    1    2    0    0 -0.25092666248E+02  0.91999149153E+02 -0.12769861023E+03  0.20254732879E+03  0.12500000000E+03 0.  0.
         25    1    1    2    0    0  0.72278753071E+01 -0.26253865212E+02 -0.18398527998E+02  0.12924787601E+03  0.12500000000E+03 0.  0.
</event>
<event>
 5    0  0.5728184E-005  0.5646294E+03  0.7546771E-02  0.9981634E-01
         21   -1    0    0  502  501  0.00000000000E+00  0.00000000000E+00  0.34643815985E+03  0.34643815985E+03  0.00000000000E+00 0. -1.
         21   -1    0    0  501  502 -0.00000000000E+00 -0.00000000000E+00 -0.92024040932E+03  0.92024040932E+03  0.00000000000E+00 0. -1.
         25    1    1    2    0    0 -0.13794163529E+02 -0.12528375054E+03 -0.56314012800E+02  0.18623255659E+03  0.12500000000E+03 0.  0.
         25    1    1    2    0    0 -0.37575603450E+03  0.10957524450E+03 -0.53027324622E+03  0.67083086343E+03  0.12500000000E+03 0.  0.
         25    1    1    2    0    0  0.38955019803E+03  0.15708506032E+02  0.12785009542E+02  0.40961514916E+03  0.12500000000E+03 0.  0.
</event>
<event>
 5    0  0.5728184E-005  0.3411177E+03  0.7546771E-02  0.1066321E+00
         21   -1    0    0  502  501  0.00000000000E+00  0.00000000000E+00  0.60874419590E+03  0.60874419590E+03  0.00000000000E+00 0.  1.
         21   -1    0    0  501  502 -0.00000000000E+00 -0.00000000000E+00 -0.19114972016E+03  0.19114972016E+03  0.00000000000E+00 0.  1.
         25    1    1    2    0    0 -0.92203636931E+01 -0.16987386861E+03  0.27780199129E+03  0.34891416238E+03  0.12500000000E+03 0.  0.
         25    1    1    2    0    0  0.83553986037E-01  0.61796090058E+02  0.22509988469E+03  0.26478995792E+03  0.12500000000E+03 0.  0.
         25    1    1    2    0    0  0.91368097071E+01  0.10807777856E+03 -0.85307400236E+02  0.18618979576E+03  0.12500000000E+03 0.  0.
</event>
<event>
 5    0  0.5728184E-005  0.2662454E+03  0.7546771E-02  0.1103448E+00
         21   -1    0    0  502  501  0.00000000000E+00  0.00000000000E+00  0.81045880356E+02  0.81045880356E+02  0.00000000000E+00 0. -1.
         21   -1    0    0  501  502 -0.00000000000E+00 -0.00000000000E+00 -0.87464800195E+03  0.87464800195E+03  0.00000000000E+00 0. -1.
         25    1    1    2    0    0  0.12258869491E+03 -0.11897707756E+03 -0.35682562058E+03  0.41488921004E+03  0.12500000000E+03 0.  0.
         25    1    1    2    0    0 -0.47880582032E+02  0.43855303145E+02 -0.28287159639E+03  0.31600186359E+03  0.12500000000E+03 0.  0.
         25    1    1    2    0    0 -0.74708112877E+02  0.75121774413E+02 -0.15390490462E+03  0.22480280867E+03  0.12500000000E+03 0.  0.
</event>
<event>
 5    0  0.5728184E-005  0.2446797E+03  0.7546771E-02  0.1116714E+00
         21   -1    0    0  502  501  0.00000000000E+00  0.00000000000E+00  0.12676806048E+04  0.12676806048E+04  0.00000000000E+00 0.  1.
         21   -1    0    0  501  502 -0.00000000000E+00 -0.00000000000E+00 -0.47226530405E+02  0.47226530405E+02  0.00000000000E+00 0.  1.
         25    1    1    2    0    0  0.10149452521E+03 -0.55525582594E+02  0.50283164287E+03  0.53089442457E+03  0.12500000000E+03 0.  0.
         25    1    1    2    0    0 -0.40765226763E+02 -0.29973013539E+02  0.45741638447E+03  0.47688041901E+03  0.12500000000E+03 0.  0.
         25    1    1    2    0    0 -0.60729298445E+02  0.85498596133E+02  0.26020604701E+03  0.30713229158E+03  0.12500000000E+03 0.  0.
</event>
<event>
 5    0  0.5728184E-005  0.2834600E+03  0.7546771E-02  0.1093814E+00
         21   -1    0    0  502  501  0.00000000000E+00  0.00000000000E+00  0.19730825072E+03  0.19730825072E+03  0.00000000000E+00 0.  1.
         21   -1    0    0  501  502 -0.00000000000E+00 -0.00000000000E+00 -0.40722873891E+03  0.40722873891E+03  0.00000000000E+00 0.  1.
         25    1    1    2    0    0  0.97531584527E+02  0.91239173861E+02 -0.14429587861E+03  0.23298776236E+03  0.12500000000E+03 0.  0.
         25    1    1    2    0    0  0.25042965725E+02  0.42954589802E+02  0.17836738113E+02  0.13570333874E+03  0.12500000000E+03 0.  0.
         25    1    1    2    0    0 -0.12257455025E+03 -0.13419376366E+03 -0.83461347691E+02  0.23584588852E+03  0.12500000000E+03 0.  0.
</event>
<event>
 5    0  0.5728184E-005  0.2659560E+03  0.7546771E-02  0.1103617E+00
         21   -1    0    0  502  501  0.00000000000E+00  0.00000000000E+00  0.24023340169E+04  0.24023340169E+04  0.00000000000E+00 0.  1.
         21   -1    0    0  501  502 -0.00000000000E+00 -0.00000000000E+00 -0.29443270279E+02  0.29443270279E+02  0.00000000000E+00 0.  1.
         25    1    1    2    0    0  0.31224387649E+02 -0.11644898255E+03  0.65307647485E+03  0.67577304617E+03  0.12500000000E+03 0.  0.
         25    1    1    2    0    0  0.24294583967E+02  0.16442549522E+03  0.92611326200E+03  0.94917687727E+03  0.12500000000E+03 0.  0.
         25    1    1    2    0    0 -0.55518971615E+02 -0.47976512665E+02  0.79370100977E+03  0.80682736375E+03  0.12500000000E+03 0.  0.
</event>
<event>
 5    0  0.5728184E-005  0.2683379E+03  0.7546771E-02  0.1102235E+00
         21   -1    0    0  502  501  0.00000000000E+00  0.00000000000E+00  0.30720387606E+03  0.30720387606E+03  0.00000000000E+00 0. -1.
         21   -1    0    0  501  502 -0.00000000000E+00 -0.00000000000E+00 -0.23438913352E+03  0.23438913352E+03  0.00000000000E+00 0. -1.
         25    1    1    2    0    0 -0.59693999693E+02  0.77797472124E+02 -0.24099170649E+02  0.16069097764E+03  0.12500000000E+03 0.  0.
         25    1    1    2    0    0  0.15321954923E+03 -0.72170475897E+02  0.73380037614E+02  0.22292249276E+03  0.12500000000E+03 0.  0.
         25    1    1    2    0    0 -0.93525549537E+02 -0.56269962267E+01  0.23533875571E+02  0.15797953919E+03  0.12500000000E+03 0.  0.
</event>
<event>
 5    0  0.5728184E-005  0.2118100E+03  0.7546771E-02  0.1140141E+00
         21   -1    0    0  502  501  0.00000000000E+00  0.00000000000E+00  0.35497871113E+02  0.35497871113E+02  0.00000000000E+00 0. -1.
         21   -1    0    0  501  502 -0.00000000000E+00 -0.00000000000E+00 -0.12638356515E+04  0.12638356515E+04  0.00000000000E+00 0. -1.
         25    1    1    2    0    0 -0.70581744612E+02  0.53210269636E+02 -0.49057276532E+03  0.51390636651E+03  0.12500000000E+03 0.  0.
         25    1    1    2    0    0  0.41509953256E+02 -0.29352530294E+02 -0.30772876139E+03  0.33601582975E+03  0.12500000000E+03 0.  0.
         25    1    1    2    0    0  0.29071791355E+02 -0.23857739341E+02 -0.43003625367E+03  0.44941132635E+03  0.12500000000E+03 0.  0.
</event>
<event>
 5    0  0.5728184E-005  0.6094289E+03  0.7546771E-02  0.9886035E-01
         21   -1    0    0  502  501  0.00000000000E+00  0.00000000000E+00  0.18884095965E+03  0.18884095965E+03  0.00000000000E+00 0. -1.
         21   -1    0    0  501  502 -0.00000000000E+00 -0.00000000000E+00 -0.19667530839E+04  0.19667530839E+04  0.00000000000E+00 0. -1.
         25    1    1    2    0    0 -0.81600980972E+02  0.92358091449E+02 -0.10713097991E+04  0.10855958837E+04  0.12500000000E+03 0.  0.
         25    1    1    2    0    0  0.28717519688E+03  0.54120264596E+01 -0.74434134637E+03  0.80756914481E+03  0.12500000000E+03 0.  0.
         25    1    1    2    0    0 -0.20557421591E+03 -0.97770117908E+02  0.37739021197E+02  0.26242901502E+03  0.12500000000E+03 0.  0.
</event>
<event>
 5    0  0.5728184E-005  0.2111951E+03  0.7546771E-02  0.1140623E+00
         21   -1    0    0  502  501  0.00000000000E+00  0.00000000000E+00  0.26077015497E+03  0.26077015497E+03  0.00000000000E+00 0. -1.
         21   -1    0    0  501  502 -0.00000000000E+00 -0.00000000000E+00 -0.17104482708E+03  0.17104482708E+03  0.00000000000E+00 0. -1.
         25    1    1    2    0    0  0.69855607370E+02 -0.15100889982E+02  0.85148291747E+02  0.16728142260E+03  0.12500000000E+03 0.  0.
         25    1    1    2    0    0 -0.45893842702E+02 -0.25186966471E+01 -0.16936856091E+02  0.13425515158E+03  0.12500000000E+03 0.  0.
         25    1    1    2    0    0 -0.23961764668E+02  0.17619586629E+02  0.21513892242E+02  0.13027840787E+03  0.12500000000E+03 0.  0.
</event>
<event>
 5    0  0.5728184E-005  0.2632804E+03  0.7546771E-02  0.1105188E+00
         21   -1    0    0  502  501  0.00000000000E+00  0.00000000000E+00  0.58529018460E+03  0.58529018460E+03  0.00000000000E+00 0.  1.
         21   -1    0    0  501  502 -0.00000000000E+00 -0.00000000000E+00 -0.11843112003E+03  0.11843112003E+03  0.00000000000E+00 0.  1.
         25    1    1    2    0    0  0.50442543731E+02  0.25546466811E+02  0.29345477741E+03  0.32394101094E+03  0.12500000000E+03 0.  0.
         25    1    1    2    0    0 -0.25218735743E+02  0.22670990370E+02 -0.31848441584E+02  0.13337646595E+03  0.12500000000E+03 0.  0.
         25    1    1    2    0    0 -0.25223807988E+02 -0.48217457181E+02  0.20525272875E+03  0.24640382774E+03  0.12500000000E+03 0.  0.
</event>
<event>
 5    0  0.5728184E-005  0.2390020E+03  0.7546771E-02  0.1120459E+00
         21   -1    0    0  502  501  0.00000000000E+00  0.00000000000E+00  0.15093968075E+04  0.15093968075E+04  0.00000000000E+00 0.  1.
         21   -1    0    0  501  502 -0.00000000000E+00 -0.00000000000E+00 -0.37844237287E+02  0.37844237287E+02  0.00000000000E+00 0.  1.
         25    1    1    2    0    0 -0.60660505672E+02  0.93026398877E+02  0.50171507113E+03  0.52884460897E+03  0.12500000000E+03 0.  0.
         25    1    1    2    0    0  0.70839389777E+02 -0.20345961451E+02  0.66771050619E+03  0.68329678571E+03  0.12500000000E+03 0.  0.
         25    1    1    2    0    0 -0.10178884105E+02 -0.72680437426E+02  0.30212699290E+03  0.33509965011E+03  0.12500000000E+03 0.  0.
</event>
<event>
 5    0  0.5728184E-005  0.6497299E+03  0.7546771E-02  0.9807286E-01
         21   -1    0    0  502  501  0.00000000000E+00  0.00000000000E+00  0.51609601438E+03  0.51609601438E+03  0.00000000000E+00 0.  1.
         21   -1    0    0  501  502 -0.00000000000E+00 -0.00000000000E+00 -0.81796599124E+03  0.81796599124E+03  0.00000000000E+00 0.  1.
         25    1    1    2    0    0  0.32897324119E+03  0.42128281999E+02  0.30707048746E+03  0.46895145786E+03  0.12500000000E+03 0.  0.
         25    1    1    2    0    0  0.50614854197E+02 -0.13229466001E+03 -0.28914168201E+03  0.34538623714E+03  0.12500000000E+03 0.  0.
         25    1    1    2    0    0 -0.37958809538E+03  0.90166378013E+02 -0.31979878231E+03  0.51972431062E+03  0.12500000000E+03 0.  0.
</event>
<event>
 5    0  0.5728184E-005  0.2337800E+03  0.7546771E-02  0.1124007E+00
         21   -1    0    0  502  501  0.00000000000E+00  0.00000000000E+00  0.75063101786E+03  0.75063101786E+03  0.00000000000E+00 0.  1.
         21   -1    0    0  501  502 -0.00000000000E+00 -0.00000000000E+00 -0.72809509967E+02  0.72809509967E+02  0.00000000000E+00 0.  1.
         25    1    1    2    0    0  0.17154598425E+02 -0.10283148240E+02  0.15909324484E+03  0.20331178997E+03  0.12500000000E+03 0.  0.
         25    1    1    2    0    0 -0.22226887819E+02  0.95682105398E+02  0.39067149689E+03  0.42177994063E+03  0.12500000000E+03 0.  0.
         25    1    1    2    0    0  0.50722893933E+01 -0.85398957158E+02  0.12805676616E+03  0.19834879723E+03  0.12500000000E+03 0.  0.
</event>
<event>
 5    0  0.5728184E-005  0.4089056E+03  0.7546771E-02  0.1040739E+00
         21   -1    0    0  502  501  0.00000000000E+00  0.00000000000E+00  0.50361900208E+03  0.50361900208E+03  0.00000000000E+00 0.  1.
         21   -1    0    0  501  502 -0.00000000000E+00 -0.00000000000E+00 -0.33200451486E+03  0.33200451486E+03  0.00000000000E+00 0.  1.
         25    1    1    2    0    0  0.62601889245E+02  0.13084612008E+03  0.51452225641E+02  0.19827262847E+03  0.12500000000E+03 0.  0.
         25    1    1    2    0    0 -0.23181241557E+02  0.21850141526E+03  0.48080191608E+02  0.25732653041E+03  0.12500000000E+03 0.  0.
         25    1    1    2    0    0 -0.39420647688E+02 -0.34934753533E+03  0.72082069963E+02  0.38002435806E+03  0.12500000000E+03 0.  0.
</event>
<event>
 5    0  0.5728184E-005  0.2374642E+03  0.7546771E-02  0.1121494E+00
         21   -1    0    0  502  501  0.00000000000E+00  0.00000000000E+00  0.98630932287E+03  0.98630932287E+03  0.00000000000E+00 0.  1.
         21   -1    0    0  501  502 -0.00000000000E+00 -0.00000000000E+00 -0.57171975570E+02  0.57171975570E+02  0.00000000000E+00 0.  1.
         25    1    1    2    0    0 -0.92109641086E+02 -0.10309108711E+02  0.39564741173E+03  0.42514978315E+03  0.12500000000E+03 0.  0.
         25    1    1    2    0    0  0.10778143470E+03 -0.77842458915E+01  0.18879197457E+03  0.25088810616E+03  0.12500000000E+03 0.  0.
         25    1    1    2    0    0 -0.15671793614E+02  0.18093354602E+02  0.34469796100E+03  0.36744340913E+03  0.12500000000E+03 0.  0.
</event>
<event>
 5    0  0.5728184E-005  0.3061461E+03  0.7546771E-02  0.1082208E+00
         21   -1    0    0  502  501  0.00000000000E+00  0.00000000000E+00  0.23031699449E+03  0.23031699449E+03  0.00000000000E+00 0. -1.
         21   -1    0    0  501  502 -0.00000000000E+00 -0.00000000000E+00 -0.40694115563E+03  0.40694115563E+03  0.00000000000E+00 0. -1.
         25    1    1    2    0    0 -0.18130905064E+03 -0.75092295443E+02 -0.12064147379E+03  0.26209004155E+03  0.12500000000E+03 0.  0.
         25    1    1    2    0    0  0.19966664653E+03  0.35859733135E+02 -0.44272998548E+02  0.24235880136E+03  0.12500000000E+03 0.  0.
         25    1    1    2    0    0 -0.18357595888E+02  0.39232562308E+02 -0.11709688801E+02  0.13280930722E+03  0.12500000000E+03 0.  0.
</event>
<event>
 5    0  0.5728184E-005  0.4310948E+03  0.7546771E-02  0.1033515E+00
         21   -1    0    0  502  501  0.00000000000E+00  0.00000000000E+00  0.45965773684E+03  0.45965773684E+03  0.00000000000E+00 0.  1.
         21   -1    0    0  501  502 -0.00000000000E+00 -0.00000000000E+00 -0.40430667769E+03  0.40430667769E+03  0.00000000000E+00 0.  1.
         25    1    1    2    0    0 -0.63148950079E+02 -0.17864929812E+03  0.25630606162E+02  0.22844099804E+03  0.12500000000E+03 0.  0.
         25    1    1    2    0    0  0.81593718146E+02  0.26960639321E+02 -0.25043774884E+03  0.29279425705E+03  0.12500000000E+03 0.  0.
         25    1    1    2    0    0 -0.18444768067E+02  0.15168865880E+03  0.28015820183E+03  0.34272915944E+03  0.12500000000E+03 0.  0.
</event>
<event>
 5    0  0.5728184E-005  0.3217474E+03  0.7546771E-02  0.1074848E+00
         21   -1    0    0  502  501  0.00000000000E+00  0.00000000000E+00  0.68812038051E+02  0.68812038051E+02  0.00000000000E+00 0.  1.
         21   -1    0    0  501  502 -0.00000000000E+00 -0.00000000000E+00 -0.15044082026E+04  0.15044082026E+04  0.00000000000E+00 0.  1.
         25    1    1    2    0    0 -0.14627508848E+03  0.98693396296E+02 -0.65147489474E+03  0.68642649020E+03  0.12500000000E+03 0.  0.
         25    1    1    2    0    0  0.25325506225E+02  0.55665400990E+02 -0.50329574815E+03  0.52217968961E+03  0.12500000000E+03 0.  0.
         25    1    1    2    0    0  0.12094958226E+03 -0.15435879729E+03 -0.28082552168E+03  0.36461406086E+03  0.12500000000E+03 0.  0.
</event>
<event>
 5    0  0.5728184E-005  0.2587993E+03  0.7546771E-02  0.1107867E+00
         21   -1    0    0  502  501  0.00000000000E+00  0.00000000000E+00  0.96512383579E+02  0.96512383579E+02  0.00000000000E+00 0.  1.
         21   -1    0    0  501  502 -0.00000000000E+00 -0.00000000000E+00 -0.69397411003E+03  0.69397411003E+03  0.00000000000E+00 0.  1.
         25    1    1    2    0    0  0.15160736730E+02  0.18616273711E+02 -0.57229226845E+02  0.13955858265E+03  0.12500000000E+03 0.  0.
         25    1    1    2    0    0  0.32582454995E+02  0.87843843550E+02 -0.40122015968E+03  0.43055867633E+03  0.12500000000E+03 0.  0.
         25    1    1    2    0    0 -0.47743191725E+02 -0.10646011726E+03 -0.13901233992E+03  0.22036923463E+03  0.12500000000E+03 0.  0.
</event>
<event>
 5    0  0.5728184E-005  0.2774808E+03  0.7546771E-02  0.1097073E+00
         21   -1    0    0  502  501  0.00000000000E+00  0.00000000000E+00  0.17353989996E+03  0.17353989996E+03  0.00000000000E+00 0.  1.
         21   -1    0    0  501  502 -0.00000000000E+00 -0.00000000000E+00 -0.44367669380E+03  0.44367669380E+03  0.00000000000E+00 0.  1.
         25    1    1    2    0    0 -0.12029907481E+03  0.26063979115E+02  0.56218966821E+02  0.18421935468E+03  0.12500000000E+03 0.  0.
         25    1    1    2    0    0  0.64821482116E+02  0.76684961869E+01 -0.19298848406E+03  0.23901921546E+03  0.12500000000E+03 0.  0.
         25    1    1    2    0    0  0.55477592697E+02 -0.33732475302E+02 -0.13336727660E+03  0.19397802362E+03  0.12500000000E+03 0.  0.
</event>
<event>
 5    0  0.5728184E-005  0.2130532E+03  0.7546771E-02  0.1139171E+00
         21   -1    0    0  502  501  0.00000000000E+00  0.00000000000E+00  0.44144073260E+03  0.44144073260E+03  0.00000000000E+00 0. -1.
         21   -1    0    0  501  502 -0.00000000000E+00 -0.00000000000E+00 -0.10282616287E+03  0.10282616287E+03  0.00000000000E+00 0. -1.
         25    1    1    2    0    0  0.47888760937E+02 -0.28363889943E+02  0.51621638609E+02  0.14624512727E+03  0.12500000000E+03 0.  0.
         25    1    1    2    0    0 -0.17928269336E+02  0.63568695525E+02  0.12968817434E+03  0.19185000509E+03  0.12500000000E+03 0.  0.
         25    1    1    2    0    0 -0.29960491600E+02 -0.35204805582E+02  0.15730475679E+03  0.20617176310E+03  0.12500000000E+03 0.  0.
</event>
<event>
 5    0  0.6794204E-005  0.2750125E+03  0.7546771E-02  0.1098445E+00
         21   -1    0    0  502  501  0.00000000000E+00  0.00000000000E+00  0.67658883488E+03  0.67658883488E+03  0.00000000000E+00 0.  1.
         21   -1    0    0  501  502 -0.00000000000E+00 -0.00000000000E+00 -0.11178406533E+03  0.11178406533E+03  0.00000000000E+00 0.  1.
         25    1    1    2    0    0  0.47111573966E+02 -0.76335255781E+01  0.17019705806E+02  0.13487935906E+03  0.12500000000E+03 0.  0.
         25    1    1    2    0    0 -0.52089161449E+02  0.88104168786E+02  0.12191846093E+03  0.20239747136E+03  0.12500000000E+03 0.  0.
         25    1    1    2    0    0  0.49775874826E+01 -0.80470643207E+02  0.42586660280E+03  0.45109606979E+03  0.12500000000E+03 0.  0.
</event>
<event>
 5    0  0.5728184E-005  0.2777609E+03  0.7546771E-02  0.1096918E+00
         21   -1    0    0  502  501  0.00000000000E+00  0.00000000000E+00  0.37043690176E+03  0.37043690176E+03  0.00000000000E+00 0. -1.
         21   -1    0    0  501  502 -0.00000000000E+00 -0.00000000000E+00 -0.20827057534E+03  0.20827057534E+03  0.00000000000E+00 0. -1.
         25    1    1    2    0    0 -0.23939048567E+02 -0.19236221501E+03  0.99185065750E+02  0.25107564015E+03  0.12500000000E+03 0.  0.
         25    1    1    2    0    0  0.33242265351E+02  0.75802444244E+02  0.20908961440E+02  0.15137121070E+03  0.12500000000E+03 0.  0.
         25    1    1    2    0    0 -0.93032167839E+01  0.11655977077E+03  0.42072299239E+02  0.17626062625E+03  0.12500000000E+03 0.  0.
</event>
<event>
 5    0  0.5728184E-005  0.3221864E+03  0.7546771E-02  0.1074647E+00
         21   -1    0    0  502  501  0.00000000000E+00  0.00000000000E+00  0.51195238481E+03  0.51195238481E+03  0.00000000000E+00 0.  1.
         21   -1    0    0  501  502 -0.00000000000E+00 -0.00000000000E+00 -0.20276113728E+03  0.20276113728E+03  0.00000000000E+00 0.  1.
         25    1    1    2    0    0 -0.93377382157E+02  0.56134535653E+02  0.13229671130E+03  0.21212694646E+03  0.12500000000E+03 0.  0.
         25    1    1    2    0    0 -0.14412227846E+03 -0.58340970744E+02  0.49803125416E+02  0.20562162172E+03  0.12500000000E+03 0.  0.
         25    1    1    2    0    0  0.23749966062E+03  0.22064350914E+01  0.12709141081E+03  0.29696495391E+03  0.12500000000E+03 0.  0.
</event>
<event>
 5    0  0.5728184E-005  0.2364937E+03  0.7546771E-02  0.1122151E+00
         21   -1    0    0  502  501  0.00000000000E+00  0.00000000000E+00  0.93944494353E+03  0.93944494353E+03  0.00000000000E+00 0. -1.
         21   -1    0    0  501  502 -0.00000000000E+00 -0.00000000000E+00 -0.59534390164E+02  0.59534390164E+02  0.00000000000E+00 0. -1.
         25    1    1    2    0    0  0.74709202112E+02  0.51707697266E+01  0.16783332551E+03  0.22226386771E+03  0.12500000000E+03 0.  0.
         25    1    1    2    0    0 -0.11662407879E+03 -0.27795181511E+02  0.34524951369E+03  0.38625894756E+03  0.12500000000E+03 0.  0.
         25    1    1    2    0    0  0.41914876673E+02  0.22624411785E+02  0.36682771416E+03  0.39045651842E+03  0.12500000000E+03 0.  0.
</event>
<event>
 5    0  0.5728184E-005  0.2466521E+03  0.7546771E-02  0.1115439E+00
         21   -1    0    0  502  501  0.00000000000E+00  0.00000000000E+00  0.35492805856E+03  0.35492805856E+03  0.00000000000E+00 0. -1.
         21   -1    0    0  501  502 -0.00000000000E+00 -0.00000000000E+00 -0.17140734042E+03  0.17140734042E+03  0.00000000000E+00 0. -1.
         25    1    1    2    0    0 -0.34645061680E+02  0.14495733307E+02  0.26423185015E+02  0.13316753091E+03  0.12500000000E+03 0.  0.
         25    1    1    2    0    0 -0.75180880242E+02  0.50943186682E+00 -0.22821636776E+02  0.14764230891E+03  0.12500000000E+03 0.  0.
         25    1    1    2    0    0  0.10982594192E+03 -0.15005165173E+02  0.17991916990E+03  0.24552555915E+03  0.12500000000E+03 0.  0.
</event>
<event>
 5    0  0.5728184E-005  0.2358631E+03  0.7546771E-02  0.1122580E+00
         21   -1    0    0  502  501  0.00000000000E+00  0.00000000000E+00  0.28200487494E+03  0.28200487494E+03  0.00000000000E+00 0. -1.
         21   -1    0    0  501  502 -0.00000000000E+00 -0.00000000000E+00 -0.19727112452E+03  0.19727112452E+03  0.00000000000E+00 0. -1.
         25    1    1    2    0    0 -0.58997157951E+02  0.75207279587E+02  0.36305192102E+02  0.16149262064E+03  0.12500000000E+03 0.  0.
         25    1    1    2    0    0  0.97265623568E+02  0.23882002770E+01  0.55932956396E+00  0.15840333923E+03  0.12500000000E+03 0.  0.
         25    1    1    2    0    0 -0.38268465617E+02 -0.77595479864E+02  0.47869228753E+02  0.15938003958E+03  0.12500000000E+03 0.  0.
</event>
<event>
 5    0  0.5728184E-005  0.3264820E+03  0.7546771E-02  0.1072704E+00
         21   -1    0    0  502  501  0.00000000000E+00  0.00000000000E+00  0.64682577810E+03  0.64682577810E+03  0.00000000000E+00 0. -1.
         21   -1    0    0  501  502 -0.00000000000E+00 -0.00000000000E+00 -0.16479015113E+03  0.16479015113E+03  0.00000000000E+00 0. -1.
         25    1    1    2    0    0 -0.22422967090E+03 -0.16877865933E+02  0.90644392883E+02  0.27277319082E+03  0.12500000000E+03 0.  0.
         25    1    1    2    0    0  0.15096123992E+02 -0.22995142540E+01  0.12977771585E+03  0.18083261945E+03  0.12500000000E+03 0.  0.
         25    1    1    2    0    0  0.20913354691E+03  0.19177380187E+02  0.26161351823E+03  0.35801011895E+03  0.12500000000E+03 0.  0.
</event>
<event>
 5    0  0.5728184E-005  0.2314213E+03  0.7546771E-02  0.1125643E+00
         21   -1    0    0  502  501  0.00000000000E+00  0.00000000000E+00  0.31372568715E+03  0.31372568715E+03  0.00000000000E+00 0. -1.
         21   -1    0    0  501  502 -0.00000000000E+00 -0.00000000000E+00 -0.17070906552E+03  0.17070906552E+03  0.00000000000E+00 0. -1.
         25    1    1    2    0    0  0.40139613712E+02 -0.72438260789E+01  0.25176920485E+02  0.13387508704E+03  0.12500000000E+03 0.  0.
         25    1    1    2    0    0  0.68784358625E+01  0.10451030929E+03  0.77144799024E+02  0.18040520404E+03  0.12500000000E+03 0.  0.
         25    1    1    2    0    0 -0.47018049575E+02 -0.97266483209E+02  0.40694902113E+02  0.17015446159E+03  0.12500000000E+03 0.  0.
</event>
<event>
 5    0  0.5728184E-005  0.3636091E+03  0.7546771E-02  0.1057164E+00
         21   -1    0    0  502  501  0.00000000000E+00  0.00000000000E+00  0.17897413939E+03  0.17897413939E+03  0.00000000000E+00 0.  1.
         21   -1    0    0  501  502 -0.00000000000E+00 -0.00000000000E+00 -0.73871903200E+03  0.73871903200E+03  0.00000000000E+00 0.  1.
         25    1    1    2    0    0 -0.65919362894E+02 -0.11437066769E+03 -0.15761003013E+02  0.18248129013E+03  0.12500000000E+03 0.  0.
         25    1    1    2    0    0  0.21028307933E+03  0.16697166455E+03 -0.33916053805E+03  0.45028144619E+03  0.12500000000E+03 0.  0.
         25    1    1    2    0    0 -0.14436371643E+03 -0.52600996865E+02 -0.20482335155E+03  0.28493043508E+03  0.12500000000E+03 0.  0.
</event>
<event>
 5    0  0.6501677E-005  0.3422703E+03  0.7546771E-02  0.1065833E+00
         21   -1    0    0  502  501  0.00000000000E+00  0.00000000000E+00  0.19474971987E+03  0.19474971987E+03  0.00000000000E+00 0. -1.
         21   -1    0    0  501  502 -0.00000000000E+00 -0.00000000000E+00 -0.60153586499E+03  0.60153586499E+03  0.00000000000E+00 0. -1.
         25    1    1    2    0    0 -0.17215048896E+03 -0.10067057691E+03 -0.15455105315E+03  0.28156950108E+03  0.12500000000E+03 0.  0.
         25    1    1    2    0    0  0.18391603567E+03  0.26693229790E+02 -0.64700113898E+00  0.22397110373E+03  0.12500000000E+03 0.  0.
         25    1    1    2    0    0 -0.11765546710E+02  0.73977347119E+02 -0.25158809083E+03  0.29074498005E+03  0.12500000000E+03 0.  0.
</event>
<event>
 5    0  0.5921756E-005  0.4760815E+03  0.7546771E-02  0.1020218E+00
         21   -1    0    0  502  501  0.00000000000E+00  0.00000000000E+00  0.97413493964E+03  0.97413493964E+03  0.00000000000E+00 0. -1.
         21   -1    0    0  501  502 -0.00000000000E+00 -0.00000000000E+00 -0.23267161985E+03  0.23267161985E+03  0.00000000000E+00 0. -1.
         25    1    1    2    0    0 -0.13433957174E+03  0.12087042129E+03 -0.48072511628E+01  0.21978373221E+03  0.12500000000E+03 0.  0.
         25    1    1    2    0    0 -0.12042078004E+03 -0.26921782046E+03  0.30920655348E+03  0.44521128898E+03  0.12500000000E+03 0.  0.
         25    1    1    2    0    0  0.25476035178E+03  0.14834739917E+03  0.43706401746E+03  0.54181153830E+03  0.12500000000E+03 0.  0.
</event>
<event>
 5    0  0.5728184E-005  0.3609413E+03  0.7546771E-02  0.1058212E+00
         21   -1    0    0  502  501  0.00000000000E+00  0.00000000000E+00  0.19013785077E+03  0.19013785077E+03  0.00000000000E+00 0. -1.
         21   -1    0    0  501  502 -0.00000000000E+00 -0.00000000000E+00 -0.68517997701E+03  0.68517997701E+03  0.00000000000E+00 0. -1.
         25    1    1    2    0    0  0.25701639704E+03 -0.41403272188E+02 -0.92323638578E+02  0.30318363006E+03  0.12500000000E+03 0.  0.
         25    1    1    2    0    0 -0.87230845343E+02  0.10556982475E+03 -0.19943566851E+03  0.27231194272E+03  0.12500000000E+03 0.  0.
         25    1    1    2    0    0 -0.16978555169E+03 -0.64166552565E+02 -0.20328281915E+03  0.29982225500E+03  0.12500000000E+03 0.  0.
</event>
<event>
 5    0  0.5728184E-005  0.2859022E+03  0.7546771E-02  0.1092508E+00
         21   -1    0    0  502  501  0.00000000000E+00  0.00000000000E+00  0.17220963820E+03  0.17220963820E+03  0.00000000000E+00 0. -1.
         21   -1    0    0  501  502 -0.00000000000E+00 -0.00000000000E+00 -0.47465436161E+03  0.47465436161E+03  0.00000000000E+00 0. -1.
         25    1    1    2    0    0 -0.37754005445E+02 -0.15116060048E+02 -0.34755670236E+03  0.37158380152E+03  0.12500000000E+03 0.  0.
         25    1    1    2    0    0 -0.42013131478E+01 -0.16830908979E+01  0.64866593677E+02  0.14090123776E+03  0.12500000000E+03 0.  0.
         25    1    1    2    0    0  0.41955318593E+02  0.16799150946E+02 -0.19754614729E+02  0.13437896053E+03  0.12500000000E+03 0.  0.
</event>
<event>
 5    0  0.5728184E-005  0.5296537E+03  0.7546771E-02  0.1006316E+00
         21   -1    0    0  502  501  0.00000000000E+00  0.00000000000E+00  0.21803786065E+03  0.21803786065E+03  0.00000000000E+00 0. -1.
         21   -1    0    0  501  502 -0.00000000000E+00 -0.00000000000E+00 -0.12866255314E+04  0.12866255314E+04  0.00000000000E+00 0. -1.
         25    1    1    2    0    0 -0.16605622984E+03 -0.28742014130E+03 -0.34552391855E+03  0.49517349221E+03  0.12500000000E+03 0.  0.
         25    1    1    2    0    0  0.97338328920E+01  0.40497187765E+03 -0.63011294366E+03  0.75944999240E+03  0.12500000000E+03 0.  0.
         25    1    1    2    0    0  0.15632239695E+03 -0.11755173635E+03 -0.92950808539E+02  0.25003990744E+03  0.12500000000E+03 0.  0.
</event>
<event>
 5    0  0.5728184E-005  0.2796377E+03  0.7546771E-02  0.1095887E+00
         21   -1    0    0  502  501  0.00000000000E+00  0.00000000000E+00  0.15311736297E+03  0.15311736297E+03  0.00000000000E+00 0.  1.
         21   -1    0    0  501  502 -0.00000000000E+00 -0.00000000000E+00 -0.51070147210E+03  0.51070147210E+03  0.00000000000E+00 0.  1.
         25    1    1    2    0    0  0.68186692825E+02 -0.13716526206E+03 -0.26080279801E+03  0.32727180392E+03  0.12500000000E+03 0.  0.
         25    1    1    2    0    0 -0.35500563223E+02  0.45406590422E+02  0.20810632187E+02  0.13921253843E+03  0.12500000000E+03 0.  0.
         25    1    1    2    0    0 -0.32686129602E+02  0.91758671636E+02 -0.11759194331E+03  0.19733449273E+03  0.12500000000E+03 0.  0.
</event>
<event>
 5    0  0.5728184E-005  0.3649252E+03  0.7546771E-02  0.1056651E+00
         21   -1    0    0  502  501  0.00000000000E+00  0.00000000000E+00  0.29706620082E+04  0.29706620082E+04  0.00000000000E+00 0. -1.
         21   -1    0    0  501  502 -0.00000000000E+00 -0.00000000000E+00 -0.44828535321E+02  0.44828535321E+02  0.00000000000E+00 0. -1.
         25    1    1    2    0    0 -0.52115476841E+02 -0.46276560313E+02  0.14651655993E+03  0.20481612557E+03  0.12500000000E+03 0.  0.
         25    1    1    2    0    0  0.10187213837E+02 -0.41439775903E+02  0.23393573971E+04  0.23430832391E+04  0.12500000000E+03 0.  0.
         25    1    1    2    0    0  0.41928263003E+02  0.87716336216E+02  0.43995951587E+03  0.46759117879E+03  0.12500000000E+03 0.  0.
</event>
<event>
 5    0  0.5752150E-005  0.2975684E+03  0.7546771E-02  0.1086462E+00
         21   -1    0    0  502  501  0.00000000000E+00  0.00000000000E+00  0.10519365389E+04  0.10519365389E+04  0.00000000000E+00 0.  1.
         21   -1    0    0  501  502 -0.00000000000E+00 -0.00000000000E+00 -0.84175184462E+02  0.84175184462E+02  0.00000000000E+00 0.  1.
         25    1    1    2    0    0  0.15726079885E+03 -0.50305232121E+02  0.15550103892E+03  0.25897325796E+03  0.12500000000E+03 0.  0.
         25    1    1    2    0    0 -0.91490385330E+02 -0.39290939400E+02  0.32922964134E+03  0.36596642641E+03  0.12500000000E+03 0.  0.
         25    1    1    2    0    0 -0.65770413517E+02  0.89596171521E+02  0.48303067421E+03  0.51117203901E+03  0.12500000000E+03 0.  0.
</event>
<event>
 5    0  0.5728184E-005  0.3290963E+03  0.7546771E-02  0.1071537E+00
         21   -1    0    0  502  501  0.00000000000E+00  0.00000000000E+00  0.19444556395E+04  0.19444556395E+04  0.00000000000E+00 0.  1.
         21   -1    0    0  501  502 -0.00000000000E+00 -0.00000000000E+00 -0.55699080900E+02  0.55699080900E+02  0.00000000000E+00 0.  1.
         25    1    1    2    0    0  0.13722215163E+03  0.60512645654E+02  0.30881432938E+03  0.36535323895E+03  0.12500000000E+03 0.  0.
         25    1    1    2    0    0 -0.12799993593E+03  0.50904568112E+02  0.12591827208E+04  0.12728477454E+04  0.12500000000E+03 0.  0.
         25    1    1    2    0    0 -0.92222156998E+01 -0.11141721377E+03  0.32075950843E+03  0.36195373604E+03  0.12500000000E+03 0.  0.
</event>
<event>
 5    0  0.5728184E-005  0.2233619E+03  0.7546771E-02  0.1131401E+00
         21   -1    0    0  502  501  0.00000000000E+00  0.00000000000E+00  0.12458384029E+04  0.12458384029E+04  0.00000000000E+00 0. -1.
         21   -1    0    0  501  502 -0.00000000000E+00 -0.00000000000E+00 -0.40045756101E+02  0.40045756101E+02  0.00000000000E+00 0. -1.
         25    1    1    2    0    0  0.94965447002E+02  0.38721092477E+02  0.54263834602E+03  0.56621474168E+03  0.12500000000E+03 0.  0.
         25    1    1    2    0    0 -0.12732473631E+02 -0.46160537188E+01  0.31692034558E+03  0.34095003927E+03  0.12500000000E+03 0.  0.
         25    1    1    2    0    0 -0.82232973370E+02 -0.34105038758E+02  0.34623395525E+03  0.37871937809E+03  0.12500000000E+03 0.  0.
</event>
<event>
 5    0  0.5728184E-005  0.3742313E+03  0.7546771E-02  0.1053087E+00
         21   -1    0    0  502  501  0.00000000000E+00  0.00000000000E+00  0.16583856211E+03  0.16583856211E+03  0.00000000000E+00 0.  1.
         21   -1    0    0  501  502 -0.00000000000E+00 -0.00000000000E+00 -0.84449037799E+03  0.84449037799E+03  0.00000000000E+00 0.  1.
         25    1    1    2    0    0  0.15141706288E+03 -0.11195839284E+03 -0.25685612176E+03  0.34214306357E+03  0.12500000000E+03 0.  0.
         25    1    1    2    0    0 -0.16447668698E+03 -0.12926746492E+03 -0.23235724871E+03  0.33671582837E+03  0.12500000000E+03 0.  0.
         25    1    1    2    0    0  0.13059624098E+02  0.24122585776E+03 -0.18943844541E+03  0.33147004817E+03  0.12500000000E+03 0.  0.
</event>
<event>
 5    0  0.5728184E-005  0.2881549E+03  0.7546771E-02  0.1091316E+00
         21   -1    0    0  502  501  0.00000000000E+00  0.00000000000E+00  0.32305061081E+03  0.32305061081E+03  0.00000000000E+00 0. -1.
         21   -1    0    0  501  502 -0.00000000000E+00 -0.00000000000E+00 -0.25702866136E+03  0.25702866136E+03  0.00000000000E+00 0. -1.
         25    1    1    2    0    0  0.68524691084E+01 -0.58568702358E+02  0.17873095967E+03  0.22593584305E+03  0.12500000000E+03 0.  0.
         25    1    1    2    0    0 -0.38156329470E+02  0.10961891791E+03 -0.12999382971E+03  0.21446586769E+03  0.12500000000E+03 0.  0.
         25    1    1    2    0    0  0.31303860361E+02 -0.51050215556E+02  0.17284819493E+02  0.13967756143E+03  0.12500000000E+03 0.  0.
</event>
<event>
 5    0  0.5728184E-005  0.2199653E+03  0.7546771E-02  0.1133909E+00
         21   -1    0    0  502  501  0.00000000000E+00  0.00000000000E+00  0.16220828586E+03  0.16220828586E+03  0.00000000000E+00 0.  1.
         21   -1    0    0  501  502 -0.00000000000E+00 -0.00000000000E+00 -0.29828759737E+03  0.29828759737E+03  0.00000000000E+00 0.  1.
         25    1    1    2    0    0 -0.71034855015E+01 -0.57023523527E+02 -0.14203725866E+02  0.13830722168E+03  0.12500000000E+03 0.  0.
         25    1    1    2    0    0 -0.53356749629E+02  0.47273257400E+02 -0.11159323131E+02  0.14433029512E+03  0.12500000000E+03 0.  0.
         25    1    1    2    0    0  0.60460235131E+02  0.97502661272E+01 -0.11071626251E+03  0.17785836642E+03  0.12500000000E+03 0.  0.
</event>
<event>
 5    0  0.5728184E-005  0.2778075E+03  0.7546771E-02  0.1096892E+00
         21   -1    0    0  502  501  0.00000000000E+00  0.00000000000E+00  0.15327407876E+03  0.15327407876E+03  0.00000000000E+00 0.  1.
         21   -1    0    0  501  502 -0.00000000000E+00 -0.00000000000E+00 -0.50352301439E+03  0.50352301439E+03  0.00000000000E+00 0.  1.
         25    1    1    2    0    0  0.15185485014E+03  0.37873080223E+02 -0.14907875776E+03  0.24968728788E+03  0.12500000000E+03 0.  0.
         25    1    1    2    0    0  0.28797589363E+02  0.56512484291E+01 -0.92063877669E+02  0.15799365599E+03  0.12500000000E+03 0.  0.
         25    1    1    2    0    0 -0.18065243950E+03 -0.43524328652E+02 -0.10910630020E+03  0.24911614927E+03  0.12500000000E+03 0.  0.
</event>
<event>
 5    0  0.7401260E-005  0.5468587E+03  0.7546771E-02  0.1002224E+00
         21   -1    0    0  502  501  0.00000000000E+00  0.00000000000E+00  0.78227069716E+03  0.78227069716E+03  0.00000000000E+00 0.  1.
         21   -1    0    0  501  502 -0.00000000000E+00 -0.00000000000E+00 -0.38229022380E+03  0.38229022380E+03  0.00000000000E+00 0.  1.
         25    1    1    2    0    0 -0.13310606757E+03 -0.46476921298E+02 -0.15106892927E+03  0.24150393543E+03  0.12500000000E+03 0.  0.
         25    1    1    2    0    0 -0.12775238904E+03 -0.22708822013E+03  0.40805453597E+03  0.50002323641E+03  0.12500000000E+03 0.  0.
         25    1    1    2    0    0  0.26085845662E+03  0.27356514143E+03  0.14299486666E+03  0.42303374911E+03  0.12500000000E+03 0.  0.
</event>
<event>
 5    0  0.5728184E-005  0.3015047E+03  0.7546771E-02  0.1084491E+00
         21   -1    0    0  502  501  0.00000000000E+00  0.00000000000E+00  0.78730262329E+03  0.78730262329E+03  0.00000000000E+00 0.  1.
         21   -1    0    0  501  502 -0.00000000000E+00 -0.00000000000E+00 -0.11546397024E+03  0.11546397024E+03  0.00000000000E+00 0.  1.
         25    1    1    2    0    0 -0.39331942990E+02 -0.71466359979E+02  0.10797427850E+03  0.18422238508E+03  0.12500000000E+03 0.  0.
         25    1    1    2    0    0  0.44750913841E+02  0.68052584029E+02  0.57390286517E+03  0.59297832771E+03  0.12500000000E+03 0.  0.
         25    1    1    2    0    0 -0.54189708512E+01  0.34137759498E+01 -0.10038490613E+02  0.12556588074E+03  0.12500000000E+03 0.  0.
</event>
<event>
 5    0  0.5728184E-005  0.3899012E+03  0.7546771E-02  0.1047334E+00
         21   -1    0    0  502  501  0.00000000000E+00  0.00000000000E+00  0.20480166745E+03  0.20480166745E+03  0.00000000000E+00 0.  1.
         21   -1    0    0  501  502 -0.00000000000E+00 -0.00000000000E+00 -0.74229349083E+03  0.74229349083E+03  0.00000000000E+00 0.  1.
         25    1    1    2    0    0 -0.13970038893E+02  0.16418619402E+03  0.35555618298E+02  0.20986059727E+03  0.12500000000E+03 0.  0.
         25    1    1    2    0    0 -0.10886407107E+03 -0.24379501967E+02 -0.61072580316E+02  0.17832724456E+03  0.12500000000E+03 0.  0.
         25    1    1    2    0    0  0.12283410996E+03 -0.13980669205E+03 -0.51197486136E+03  0.55890731645E+03  0.12500000000E+03 0.  0.
</event>
<event>
 5    0  0.5728184E-005  0.3440277E+03  0.7546771E-02  0.1065093E+00
         21   -1    0    0  502  501  0.00000000000E+00  0.00000000000E+00  0.48120159070E+03  0.48120159070E+03  0.00000000000E+00 0.  1.
         21   -1    0    0  501  502 -0.00000000000E+00 -0.00000000000E+00 -0.24595737969E+03  0.24595737969E+03  0.00000000000E+00 0.  1.
         25    1    1    2    0    0  0.13094704243E+03  0.13783640958E+03  0.25167649442E+03  0.33928168470E+03  0.12500000000E+03 0.  0.
         25    1    1    2    0    0 -0.17899839742E+02 -0.17411556274E+03 -0.61342323914E+01  0.21517263362E+03  0.12500000000E+03 0.  0.
         25    1    1    2    0    0 -0.11304720269E+03  0.36279153156E+02 -0.10298051029E+02  0.17270465207E+03  0.12500000000E+03 0.  0.
</event>
<event>
 5    0  0.5728184E-005  0.3679993E+03  0.7546771E-02  0.1055461E+00
         21   -1    0    0  502  501  0.00000000000E+00  0.00000000000E+00  0.11352540007E+03  0.11352540007E+03  0.00000000000E+00 0. -1.
         21   -1    0    0  501  502 -0.00000000000E+00 -0.00000000000E+00 -0.11928916797E+04  0.11928916797E+04  0.00000000000E+00 0. -1.
         25    1    1    2    0    0 -0.18102811085E+03  0.12364088011E+03 -0.15762848105E+03  0.29753988336E+03  0.12500000000E+03 0.  0.
         25    1    1    2    0    0  0.11194205123E+03 -0.18725315142E+03 -0.61986912346E+03  0.66892263810E+03  0.12500000000E+03 0.  0.
         25    1    1    2    0    0  0.69086059617E+02  0.63612271313E+02 -0.30186867516E+03  0.33995455835E+03  0.12500000000E+03 0.  0.
</event>
<event>
 5    0  0.5728184E-005  0.2241220E+03  0.7546771E-02  0.1130847E+00
         21   -1    0    0  502  501  0.00000000000E+00  0.00000000000E+00  0.32887474215E+03  0.32887474215E+03  0.00000000000E+00 0. -1.
         21   -1    0    0  501  502 -0.00000000000E+00 -0.00000000000E+00 -0.15273494937E+03  0.15273494937E+03  0.00000000000E+00 0. -1.
         25    1    1    2    0    0  0.41452135509E+02 -0.71372156778E+02  0.21603044369E+02  0.15134052936E+03  0.12500000000E+03 0.  0.
         25    1    1    2    0    0 -0.58119971691E+02  0.25140076872E+02  0.13493720772E+03  0.19453278542E+03  0.12500000000E+03 0.  0.
         25    1    1    2    0    0  0.16667836182E+02  0.46232079905E+02  0.19599540685E+02  0.13573637674E+03  0.12500000000E+03 0.  0.
</event>
<event>
 5    0  0.5728184E-005  0.3127426E+03  0.7546771E-02  0.1079039E+00
         21   -1    0    0  502  501  0.00000000000E+00  0.00000000000E+00  0.61416648975E+02  0.61416648975E+02  0.00000000000E+00 0.  1.
         21   -1    0    0  501  502 -0.00000000000E+00 -0.00000000000E+00 -0.15925315570E+04  0.15925315570E+04  0.00000000000E+00 0.  1.
         25    1    1    2    0    0  0.20281129542E+02 -0.24010962321E+02 -0.10821837314E+03  0.16829755438E+03  0.12500000000E+03 0.  0.
         25    1    1    2    0    0  0.77966412196E+02  0.15923116149E+03 -0.78894785320E+03  0.81822798736E+03  0.12500000000E+03 0.  0.
         25    1    1    2    0    0 -0.98247541738E+02 -0.13522019917E+03 -0.63394868164E+03  0.66742266419E+03  0.12500000000E+03 0.  0.
</event>
<event>
 5    0  0.5728184E-005  0.3797977E+03  0.7546771E-02  0.1051009E+00
         21   -1    0    0  502  501  0.00000000000E+00  0.00000000000E+00  0.52558654166E+03  0.52558654166E+03  0.00000000000E+00 0. -1.
         21   -1    0    0  501  502 -0.00000000000E+00 -0.00000000000E+00 -0.27444821867E+03  0.27444821867E+03  0.00000000000E+00 0. -1.
         25    1    1    2    0    0  0.44293471030E+02  0.14442544972E+03  0.65715532831E+02  0.20679495486E+03  0.12500000000E+03 0.  0.
         25    1    1    2    0    0 -0.13969084008E+03 -0.68101854429E+02  0.31696013016E+03  0.37448647170E+03  0.12500000000E+03 0.  0.
         25    1    1    2    0    0  0.95397369049E+02 -0.76323595287E+02 -0.13153734000E+03  0.21875333376E+03  0.12500000000E+03 0.  0.
</event>
<event>
 5    0  0.5728184E-005  0.2498641E+03  0.7546771E-02  0.1113391E+00
         21   -1    0    0  502  501  0.00000000000E+00  0.00000000000E+00  0.87971378282E+02  0.87971378282E+02  0.00000000000E+00 0.  1.
         21   -1    0    0  501  502 -0.00000000000E+00 -0.00000000000E+00 -0.70968638957E+03  0.70968638957E+03  0.00000000000E+00 0.  1.
         25    1    1    2    0    0 -0.87119847388E+02  0.51870048982E+02 -0.15848982955E+03  0.22588580270E+03  0.12500000000E+03 0.  0.
         25    1    1    2    0    0  0.53433766145E+02 -0.60113517857E+02 -0.83472303950E+02  0.17047412684E+03  0.12500000000E+03 0.  0.
         25    1    1    2    0    0  0.33686081244E+02  0.82434688749E+01 -0.37975287780E+03  0.40129783832E+03  0.12500000000E+03 0.  0.
</event>
<event>
 5    0  0.5728184E-005  0.2412783E+03  0.7546771E-02  0.1118944E+00
         21   -1    0    0  502  501  0.00000000000E+00  0.00000000000E+00  0.36524267821E+03  0.36524267821E+03  0.00000000000E+00 0. -1.
         21   -1    0    0  501  502 -0.00000000000E+00 -0.00000000000E+00 -0.15938778821E+03  0.15938778821E+03  0.00000000000E+00 0. -1.
         25    1    1    2    0    0  0.82657661457E+02 -0.88029742703E+02  0.14034837804E+03  0.22339246141E+03  0.12500000000E+03 0.  0.
         25    1    1    2    0    0 -0.57468261769E+02  0.68629355052E+00  0.47901672566E+02  0.14567993117E+03  0.12500000000E+03 0.  0.
         25    1    1    2    0    0 -0.25189399688E+02  0.87343449152E+02  0.17604839390E+02  0.15555807384E+03  0.12500000000E+03 0.  0.
</event>
<event>
 5    0  0.5728184E-005  0.4675240E+03  0.7546771E-02  0.1022621E+00
         21   -1    0    0  502  501  0.00000000000E+00  0.00000000000E+00  0.32331893616E+03  0.32331893616E+03  0.00000000000E+00 0.  1.
         21   -1    0    0  501  502 -0.00000000000E+00 -0.00000000000E+00 -0.67604661683E+03  0.67604661683E+03  0.00000000000E+00 0.  1.
         25    1    1    2    0    0  0.32340031949E+03 -0.98350808348E+02 -0.28536921509E+03  0.45969689696E+03  0.12500000000E+03 0.  0.
         25    1    1    2    0    0 -0.10064651635E+03 -0.48890468963E+02  0.10523237078E+03  0.19803749915E+03  0.12500000000E+03 0.  0.
         25    1    1    2    0    0 -0.22275380315E+03  0.14724127731E+03 -0.17259083636E+03  0.34163115689E+03  0.12500000000E+03 0.  0.
</event>
<event>
 5    0  0.5728184E-005  0.3428299E+03  0.7546771E-02  0.1065597E+00
         21   -1    0    0  502  501  0.00000000000E+00  0.00000000000E+00  0.29813380457E+03  0.29813380457E+03  0.00000000000E+00 0.  1.
         21   -1    0    0  501  502 -0.00000000000E+00 -0.00000000000E+00 -0.39422677080E+03  0.39422677080E+03  0.00000000000E+00 0.  1.
         25    1    1    2    0    0 -0.64273124178E+02 -0.35018845232E+02 -0.24510386607E+03  0.28470732195E+03  0.12500000000E+03 0.  0.
         25    1    1    2    0    0 -0.88926958916E+02  0.71092686374E+02  0.11326690990E+03  0.20351060649E+03  0.12500000000E+03 0.  0.
         25    1    1    2    0    0  0.15320008309E+03 -0.36073841143E+02  0.35743989944E+02  0.20414264692E+03  0.12500000000E+03 0.  0.
</event>
<event>
 5    0  0.5728184E-005  0.2622975E+03  0.7546771E-02  0.1105771E+00
         21   -1    0    0  502  501  0.00000000000E+00  0.00000000000E+00  0.56914645973E+02  0.56914645973E+02  0.00000000000E+00 0. -1.
         21   -1    0    0  501  502 -0.00000000000E+00 -0.00000000000E+00 -0.12088275041E+04  0.12088275041E+04  0.00000000000E+00 0. -1.
         25    1    1    2    0    0  0.57591396816E+02 -0.11708972205E+03 -0.33473898654E+03  0.38039710975E+03  0.12500000000E+03 0.  0.
         25    1    1    2    0    0 -0.11939551615E+03  0.73636919808E+02 -0.54466939079E+03  0.57616614834E+03  0.12500000000E+03 0.  0.
         25    1    1    2    0    0  0.61804119339E+02  0.43452802245E+02 -0.27250448083E+03  0.30917889200E+03  0.12500000000E+03 0.  0.
</event>
<event>
 5    0  0.5728184E-005  0.3538840E+03  0.7546771E-02  0.1061032E+00
         21   -1    0    0  502  501  0.00000000000E+00  0.00000000000E+00  0.62190266143E+02  0.62190266143E+02  0.00000000000E+00 0. -1.
         21   -1    0    0  501  502 -0.00000000000E+00 -0.00000000000E+00 -0.20137216625E+04  0.20137216625E+04  0.00000000000E+00 0. -1.
         25    1    1    2    0    0 -0.15372034883E+03 -0.49595373523E+02 -0.14413022955E+04  0.14557015332E+04  0.12500000000E+03 0.  0.
         25    1    1    2    0    0  0.12834843737E+03 -0.45516800237E+02 -0.34133836307E+03  0.38817776673E+03  0.12500000000E+03 0.  0.
         25    1    1    2    0    0  0.25371911463E+02  0.95112173760E+02 -0.16889073784E+03  0.23203262878E+03  0.12500000000E+03 0.  0.
</event>
<event>
 5    0  0.5728184E-005  0.2958069E+03  0.7546771E-02  0.1087356E+00
         21   -1    0    0  502  501  0.00000000000E+00  0.00000000000E+00  0.76054093676E+03  0.76054093676E+03  0.00000000000E+00 0.  1.
         21   -1    0    0  501  502 -0.00000000000E+00 -0.00000000000E+00 -0.11505198803E+03  0.11505198803E+03  0.00000000000E+00 0.  1.
         25    1    1    2    0    0  0.19302293258E+02  0.66846942978E+02  0.16589476823E+02  0.14401841220E+03  0.12500000000E+03 0.  0.
         25    1    1    2    0    0 -0.62483074640E+02  0.34953686924E+02  0.50103283231E+03  0.52132983215E+03  0.12500000000E+03 0.  0.
         25    1    1    2    0    0  0.43180781382E+02 -0.10180062990E+03  0.12786663960E+03  0.21024468044E+03  0.12500000000E+03 0.  0.
</event>
<event>
 5    0  0.5728184E-005  0.3047332E+03  0.7546771E-02  0.1082898E+00
         21   -1    0    0  502  501  0.00000000000E+00  0.00000000000E+00  0.21796026253E+03  0.21796026253E+03  0.00000000000E+00 0. -1.
         21   -1    0    0  501  502 -0.00000000000E+00 -0.00000000000E+00 -0.42605170349E+03  0.42605170349E+03  0.00000000000E+00 0. -1.
         25    1    1    2    0    0  0.52268553175E+02  0.16950617892E+02 -0.26721273388E+02  0.13913429322E+03  0.12500000000E+03 0.  0.
         25    1    1    2    0    0 -0.15428027928E+03  0.13706337283E+03 -0.13699582407E+03  0.27745563350E+03  0.12500000000E+03 0.  0.
         25    1    1    2    0    0  0.10201172611E+03 -0.15401399072E+03 -0.44374343507E+02  0.22742203931E+03  0.12500000000E+03 0.  0.
</event>
<event>
 5    0  0.5728184E-005  0.2813582E+03  0.7546771E-02  0.1094949E+00
         21   -1    0    0  502  501  0.00000000000E+00  0.00000000000E+00  0.93422241129E+02  0.93422241129E+02  0.00000000000E+00 0.  1.
         21   -1    0    0  501  502 -0.00000000000E+00 -0.00000000000E+00 -0.84736187685E+03  0.84736187685E+03  0.00000000000E+00 0.  1.
         25    1    1    2    0    0  0.59620119523E+02  0.40027339180E+02 -0.37769169962E+02  0.14902434946E+03  0.12500000000E+03 0.  0.
         25    1    1    2    0    0 -0.78040681481E+02 -0.11558085591E+02 -0.59945966748E+03  0.61741463398E+03  0.12500000000E+03 0.  0.
         25    1    1    2    0    0  0.18420561958E+02 -0.28469253588E+02 -0.11671079828E+03  0.17434513454E+03  0.12500000000E+03 0.  0.
</event>
<event>
 5    0  0.5728184E-005  0.2850727E+03  0.7546771E-02  0.1092950E+00
         21   -1    0    0  502  501  0.00000000000E+00  0.00000000000E+00  0.77444236570E+03  0.77444236570E+03  0.00000000000E+00 0. -1.
         21   -1    0    0  501  502 -0.00000000000E+00 -0.00000000000E+00 -0.10493545908E+03  0.10493545908E+03  0.00000000000E+00 0. -1.
         25    1    1    2    0    0 -0.12548703617E+03 -0.45188301233E+01  0.18312392035E+03  0.25480735130E+03  0.12500000000E+03 0.  0.
         25    1    1    2    0    0  0.16782748771E+03  0.33413927717E+02  0.14322535093E+03  0.25577540411E+03  0.12500000000E+03 0.  0.
         25    1    1    2    0    0 -0.42340451542E+02 -0.28895097594E+02  0.34315763534E+03  0.36879506937E+03  0.12500000000E+03 0.  0.
</event>
<event>
 5    0  0.5728184E-005  0.3574682E+03  0.7546771E-02  0.1059591E+00
         21   -1    0    0  502  501  0.00000000000E+00  0.00000000000E+00  0.24626570146E+03  0.24626570146E+03  0.00000000000E+00 0. -1.
         21   -1    0    0  501  502 -0.00000000000E+00 -0.00000000000E+00 -0.51888482765E+03  0.51888482765E+03  0.00000000000E+00 0. -1.
         25    1    1    2    0    0 -0.17577912389E+03  0.40920745157E+02  0.10543583345E+03  0.24354573032E+03  0.12500000000E+03 0.  0.
         25    1    1    2    0    0  0.66698391099E+02 -0.10943582592E+03 -0.17084812210E+03  0.24746506055E+03  0.12500000000E+03 0.  0.
         25    1    1    2    0    0  0.10908073279E+03  0.68515080758E+02 -0.20720683754E+03  0.27413973823E+03  0.12500000000E+03 0.  0.
</event>
<event>
 5    0  0.5728184E-005  0.2857564E+03  0.7546771E-02  0.1092586E+00
         21   -1    0    0  502  501  0.00000000000E+00  0.00000000000E+00  0.91242732021E+03  0.91242732021E+03  0.00000000000E+00 0. -1.
         21   -1    0    0  501  502 -0.00000000000E+00 -0.00000000000E+00 -0.89493964500E+02  0.89493964500E+02  0.00000000000E+00 0. -1.
         25    1    1    2    0    0 -0.61735463001E+02 -0.83736598315E+02  0.28412686534E+03  0.32737770373E+03  0.12500000000E+03 0.  0.
         25    1    1    2    0    0  0.51652697997E+02  0.99454099149E+02  0.52041733424E+03  0.54682567681E+03  0.12500000000E+03 0.  0.
         25    1    1    2    0    0  0.10082765005E+02 -0.15717500834E+02  0.18389156133E+02  0.12771790417E+03  0.12500000000E+03 0.  0.
</event>
<event>
 5    0  0.5728184E-005  0.3095934E+03  0.7546771E-02  0.1080541E+00
         21   -1    0    0  502  501  0.00000000000E+00  0.00000000000E+00  0.20314693040E+03  0.20314693040E+03  0.00000000000E+00 0.  1.
         21   -1    0    0  501  502 -0.00000000000E+00 -0.00000000000E+00 -0.47181653572E+03  0.47181653572E+03  0.00000000000E+00 0.  1.
         25    1    1    2    0    0  0.17636055615E+03  0.58804714482E+02 -0.29773758426E+01  0.22404219464E+03  0.12500000000E+03 0.  0.
         25    1    1    2    0    0 -0.10509862391E+03 -0.11025165274E+03 -0.85867568512E+02  0.21494042664E+03  0.12500000000E+03 0.  0.
         25    1    1    2    0    0 -0.71261932239E+02  0.51446938262E+02 -0.17982466097E+03  0.23598084485E+03  0.12500000000E+03 0.  0.
</event>
<event>
 5    0  0.5728184E-005  0.2468994E+03  0.7546771E-02  0.1115280E+00
         21   -1    0    0  502  501  0.00000000000E+00  0.00000000000E+00  0.13342043124E+03  0.13342043124E+03  0.00000000000E+00 0.  1.
         21   -1    0    0  501  502 -0.00000000000E+00 -0.00000000000E+00 -0.45689652390E+03  0.45689652390E+03  0.00000000000E+00 0.  1.
         25    1    1    2    0    0  0.66740124718E+02 -0.14618006646E+02 -0.81402030408E+02  0.16407078021E+03  0.12500000000E+03 0.  0.
         25    1    1    2    0    0  0.77297613343E+01 -0.99024883688E+02 -0.15348856400E+03  0.22147102763E+03  0.12500000000E+03 0.  0.
         25    1    1    2    0    0 -0.74469886052E+02  0.11364289033E+03 -0.88585498252E+02  0.20477514730E+03  0.12500000000E+03 0.  0.
</event>
<event>
 5    0  0.5728184E-005  0.1976498E+03  0.7546771E-02  0.1151737E+00
         21   -1    0    0  502  501  0.00000000000E+00  0.00000000000E+00  0.10390549297E+03  0.10390549297E+03  0.00000000000E+00 0.  1.
         21   -1    0    0  501  502 -0.00000000000E+00 -0.00000000000E+00 -0.37597106345E+03  0.37597106345E+03  0.00000000000E+00 0.  1.
         25    1    1    2    0    0 -0.35477428162E+02 -0.35913553163E+02 -0.11664880750E+03  0.17827051215E+03  0.12500000000E+03 0.  0.
         25    1    1    2    0    0  0.28169751283E+02  0.28436186260E+02 -0.61726861549E+02  0.14504260413E+03  0.12500000000E+03 0.  0.
         25    1    1    2    0    0  0.73076768789E+01  0.74773669038E+01 -0.93689901436E+02  0.15656344014E+03  0.12500000000E+03 0.  0.
</event>
<event>
 5    0  0.5728184E-005  0.2227617E+03  0.7546771E-02  0.1131841E+00
         21   -1    0    0  502  501  0.00000000000E+00  0.00000000000E+00  0.16428608603E+02  0.16428608603E+02  0.00000000000E+00 0.  1.
         21   -1    0    0  501  502 -0.00000000000E+00 -0.00000000000E+00 -0.30205104679E+04  0.30205104679E+04  0.00000000000E+00 0.  1.
         25    1    1    2    0    0  0.94841699265E+02  0.16162547391E+02 -0.77902548193E+03  0.79483449683E+03  0.12500000000E+03 0.  0.
         25    1    1    2    0    0 -0.41756231166E+02  0.96015306290E+01 -0.13131004669E+04  0.13197324003E+04  0.12500000000E+03 0.  0.
         25    1    1    2    0    0 -0.53085468099E+02 -0.25764078020E+02 -0.91195591041E+03  0.92237217931E+03  0.12500000000E+03 0.  0.
</event>
<event>
 5    0  0.5728184E-005  0.5864036E+03  0.7546771E-02  0.9934023E-01
         21   -1    0    0  502  501  0.00000000000E+00  0.00000000000E+00  0.17910558992E+03  0.17910558992E+03  0.00000000000E+00 0.  1.
         21   -1    0    0  501  502 -0.00000000000E+00 -0.00000000000E+00 -0.19199243885E+04  0.19199243885E+04  0.00000000000E+00 0.  1.
         25    1    1    2    0    0 -0.97181325815E+02 -0.42417719454E+03 -0.10273456561E+04  0.11226907854E+04  0.12500000000E+03 0.  0.
         25    1    1    2    0    0 -0.88664118085E+02  0.25515692919E+01 -0.33043441351E+03  0.36425229989E+03  0.12500000000E+03 0.  0.
         25    1    1    2    0    0  0.18584544390E+03  0.42162562525E+03 -0.38303872896E+03  0.61208689315E+03  0.12500000000E+03 0.  0.
</event>
<event>
 5    0  0.5728184E-005  0.2076070E+03  0.7546771E-02  0.1143475E+00
         21   -1    0    0  502  501  0.00000000000E+00  0.00000000000E+00  0.11805169483E+03  0.11805169483E+03  0.00000000000E+00 0. -1.
         21   -1    0    0  501  502 -0.00000000000E+00 -0.00000000000E+00 -0.36510002172E+03  0.36510002172E+03  0.00000000000E+00 0. -1.
         25    1    1    2    0    0  0.38487957883E+01 -0.37890591376E+02 -0.86271750909E+02  0.15658328502E+03  0.12500000000E+03 0.  0.
         25    1    1    2    0    0 -0.23658868961E+02  0.38622557632E+02 -0.14864123752E+03  0.19942582964E+03  0.12500000000E+03 0.  0.
         25    1    1    2    0    0  0.19810073172E+02 -0.73196625584E+00 -0.12135338466E+02  0.12714260188E+03  0.12500000000E+03 0.  0.
</event>
<event>
 5    0  0.6026851E-005  0.2680238E+03  0.7546771E-02  0.1102416E+00
         21   -1    0    0  502  501  0.00000000000E+00  0.00000000000E+00  0.14218080052E+03  0.14218080052E+03  0.00000000000E+00 0. -1.
         21   -1    0    0  501  502 -0.00000000000E+00 -0.00000000000E+00 -0.50524940150E+03  0.50524940150E+03  0.00000000000E+00 0. -1.
         25    1    1    2    0    0 -0.42006453322E+02 -0.35765271806E+02  0.11028272612E+02  0.13707778662E+03  0.12500000000E+03 0.  0.
         25    1    1    2    0    0 -0.11418842961E+02 -0.60652870391E+02 -0.29414181155E+03  0.32550509360E+03  0.12500000000E+03 0.  0.
         25    1    1    2    0    0  0.53425296283E+02  0.96418142197E+02 -0.79955062049E+02  0.18484732180E+03  0.12500000000E+03 0.  0.
</event>
<event>
 5    0  0.5728184E-005  0.7965664E+03  0.7546771E-02  0.9565000E-01
         21   -1    0    0  502  501  0.00000000000E+00  0.00000000000E+00  0.25990903907E+04  0.25990903907E+04  0.00000000000E+00 0.  1.
         21   -1    0    0  501  502 -0.00000000000E+00 -0.00000000000E+00 -0.24413078840E+03  0.24413078840E+03  0.00000000000E+00 0.  1.
         25    1    1    2    0    0  0.45689893313E+03  0.34362455666E+02  0.27000230850E+03  0.54631827724E+03  0.12500000000E+03 0.  0.
         25    1    1    2    0    0 -0.66185772591E+03  0.10141205962E+03  0.13548301708E+04  0.15164200760E+04  0.12500000000E+03 0.  0.
         25    1    1    2    0    0  0.20495879278E+03 -0.13577451529E+03  0.73012712302E+03  0.78048282589E+03  0.12500000000E+03 0.  0.
</event>
<event>
 5    0  0.5728184E-005  0.4316299E+03  0.7546771E-02  0.1033346E+00
         21   -1    0    0  502  501  0.00000000000E+00  0.00000000000E+00  0.18911920386E+03  0.18911920386E+03  0.00000000000E+00 0. -1.
         21   -1    0    0  501  502 -0.00000000000E+00 -0.00000000000E+00 -0.98511627134E+03  0.98511627134E+03  0.00000000000E+00 0. -1.
         25    1    1    2    0    0  0.15478597364E+03 -0.34539569379E+02 -0.63023623381E+03  0.66179633566E+03  0.12500000000E+03 0.  0.
         25    1    1    2    0    0 -0.63711360904E+00  0.18318430938E+03 -0.14202541794E+03  0.26334979867E+03  0.12500000000E+03 0.  0.
         25    1    1    2    0    0 -0.15414886003E+03 -0.14864474000E+03 -0.23735415732E+02  0.24908934088E+03  0.12500000000E+03 0.  0.
</event>
<event>
 5    0  0.5728184E-005  0.3034926E+03  0.7546771E-02  0.1083508E+00
         21   -1    0    0  502  501  0.00000000000E+00  0.00000000000E+00  0.79268844944E+03  0.79268844944E+03  0.00000000000E+00 0.  1.
         21   -1    0    0  501  502 -0.00000000000E+00 -0.00000000000E+00 -0.11619665894E+03  0.11619665894E+03  0.00000000000E+00 0.  1.
         25    1    1    2    0    0 -0.88529359297E+02  0.73581161580E+02  0.41575121083E+03  0.44913884724E+03  0.12500000000E+03 0.  0.
         25    1    1    2    0    0  0.36016490818E+02 -0.13713045682E+03  0.24462999496E+03  0.30914524779E+03  0.12500000000E+03 0.  0.
         25    1    1    2    0    0  0.52512868479E+02  0.63549295244E+02  0.16110584724E+02  0.15060101335E+03  0.12500000000E+03 0.  0.
</event>
<event>
 5    0  0.5728184E-005  0.4763055E+03  0.7546771E-02  0.1020155E+00
         21   -1    0    0  502  501  0.00000000000E+00  0.00000000000E+00  0.22424328267E+03  0.22424328267E+03  0.00000000000E+00 0.  1.
         21   -1    0    0  501  502 -0.00000000000E+00 -0.00000000000E+00 -0.10116999697E+04  0.10116999697E+04  0.00000000000E+00 0.  1.
         25    1    1    2    0    0  0.21448183950E+03  0.19024889356E+03 -0.62130254309E+03  0.69558532980E+03  0.12500000000E+03 0.  0.
         25    1    1    2    0    0  0.42401303815E+02  0.81699562920E+01 -0.13839715227E+03  0.19142463401E+03  0.12500000000E+03 0.  0.
         25    1    1    2    0    0 -0.25688314331E+03 -0.19841884985E+03 -0.27756991688E+02  0.34893328858E+03  0.12500000000E+03 0.  0.
</event>
<event>
 5    0  0.5728184E-005  0.6363408E+03  0.7546771E-02  0.9832753E-01
         21   -1    0    0  502  501  0.00000000000E+00  0.00000000000E+00  0.10523954398E+04  0.10523954398E+04  0.00000000000E+00 0. -1.
         21   -1    0    0  501  502 -0.00000000000E+00 -0.00000000000E+00 -0.38476946948E+03  0.38476946948E+03  0.00000000000E+00 0. -1.
         25    1    1    2    0    0  0.48707716705E+01  0.45831166017E+03  0.37404708693E+03  0.60465653516E+03  0.12500000000E+03 0.  0.
         25    1    1    2    0    0  0.86874826676E+02  0.60404499444E+02  0.23711837073E+03  0.28817713441E+03  0.12500000000E+03 0.  0.
         25    1    1    2    0    0 -0.91745598346E+02 -0.51871615962E+03  0.56460512702E+02  0.54433123974E+03  0.12500000000E+03 0.  0.
</event>
<event>
 5    0  0.5728184E-005  0.6700903E+03  0.7546771E-02  0.9769795E-01
         21   -1    0    0  502  501  0.00000000000E+00  0.00000000000E+00  0.51376377716E+03  0.51376377716E+03  0.00000000000E+00 0.  1.
         21   -1    0    0  501  502 -0.00000000000E+00 -0.00000000000E+00 -0.87398335638E+03  0.87398335638E+03  0.00000000000E+00 0.  1.
         25    1    1    2    0    0  0.13948940980E+03  0.68024722236E+02 -0.12266701121E+03  0.23400182461E+03  0.12500000000E+03 0.  0.
         25    1    1    2    0    0 -0.56939258285E+03 -0.94552670454E+02  0.91328871140E+02  0.59759023051E+03  0.12500000000E+03 0.  0.
         25    1    1    2    0    0  0.42990317305E+03  0.26527948218E+02 -0.32888143915E+03  0.55615507842E+03  0.12500000000E+03 0.  0.
</event>
<event>
 5    0  0.5728184E-005  0.3956037E+03  0.7546771E-02  0.1045313E+00
         21   -1    0    0  502  501  0.00000000000E+00  0.00000000000E+00  0.43049892323E+03  0.43049892323E+03  0.00000000000E+00 0.  1.
         21   -1    0    0  501  502 -0.00000000000E+00 -0.00000000000E+00 -0.36353693539E+03  0.36353693539E+03  0.00000000000E+00 0.  1.
         25    1    1    2    0    0  0.10070415398E+03  0.17006296366E+03  0.47909941214E+02  0.23871133343E+03  0.12500000000E+03 0.  0.
         25    1    1    2    0    0  0.72223095340E+01  0.14883982902E+03 -0.11914019345E+02  0.19486508234E+03  0.12500000000E+03 0.  0.
         25    1    1    2    0    0 -0.10792646352E+03 -0.31890279268E+03  0.30966065967E+02  0.36045944286E+03  0.12500000000E+03 0.  0.
</event>
<event>
 5    0  0.5728184E-005  0.5264113E+03  0.7546771E-02  0.1007106E+00
         21   -1    0    0  502  501  0.00000000000E+00  0.00000000000E+00  0.10601948311E+04  0.10601948311E+04  0.00000000000E+00 0. -1.
         21   -1    0    0  501  502 -0.00000000000E+00 -0.00000000000E+00 -0.26137537657E+03  0.26137537657E+03  0.00000000000E+00 0. -1.
         25    1    1    2    0    0 -0.12735900866E+03 -0.39452425548E+02  0.56681087822E+02  0.19134930542E+03  0.12500000000E+03 0.  0.
         25    1    1    2    0    0 -0.33787425724E+03 -0.42964968115E+02  0.34176823237E+03  0.49843307159E+03  0.12500000000E+03 0.  0.
         25    1    1    2    0    0  0.46523326590E+03  0.82417393663E+02  0.40037013429E+03  0.63178783062E+03  0.12500000000E+03 0.  0.
</event>
<event>
 5    0  0.5728184E-005  0.3758780E+03  0.7546771E-02  0.1052468E+00
         21   -1    0    0  502  501  0.00000000000E+00  0.00000000000E+00  0.24084101755E+03  0.24084101755E+03  0.00000000000E+00 0.  1.
         21   -1    0    0  501  502 -0.00000000000E+00 -0.00000000000E+00 -0.58662882236E+03  0.58662882236E+03  0.00000000000E+00 0.  1.
         25    1    1    2    0    0  0.42651902819E+02  0.11575544221E+03  0.71732935481E+02  0.18970798942E+03  0.12500000000E+03 0.  0.
         25    1    1    2    0    0  0.95243582183E+02  0.72559465367E+01 -0.38033617507E+03  0.41158789435E+03  0.12500000000E+03 0.  0.
         25    1    1    2    0    0 -0.13789548500E+03 -0.12301138875E+03 -0.37184565224E+02  0.22617395614E+03  0.12500000000E+03 0.  0.
</event>
<event>
 5    0  0.5728184E-005  0.4664305E+03  0.7546771E-02  0.1022933E+00
         21   -1    0    0  502  501  0.00000000000E+00  0.00000000000E+00  0.19061253196E+03  0.19061253196E+03  0.00000000000E+00 0.  1.
         21   -1    0    0  501  502 -0.00000000000E+00 -0.00000000000E+00 -0.11413596728E+04  0.11413596728E+04  0.00000000000E+00 0.  1.
         25    1    1    2    0    0 -0.14292323337E+03 -0.89773087741E+02  0.31671350198E+02  0.21240134732E+03  0.12500000000E+03 0.  0.
         25    1    1    2    0    0 -0.11507338792E+02 -0.16678764177E+03 -0.32210222896E+03  0.38382988705E+03  0.12500000000E+03 0.  0.
         25    1    1    2    0    0  0.15443057217E+03  0.25656072951E+03 -0.66031626205E+03  0.73574097037E+03  0.12500000000E+03 0.  0.
</event>
<event>
 5    0  0.6059542E-005  0.3495807E+03  0.7546771E-02  0.1062787E+00
         21   -1    0    0  502  501  0.00000000000E+00  0.00000000000E+00  0.96741706191E+03  0.96741706191E+03  0.00000000000E+00 0. -1.
         21   -1    0    0  501  502 -0.00000000000E+00 -0.00000000000E+00 -0.12632262719E+03  0.12632262719E+03  0.00000000000E+00 0. -1.
         25    1    1    2    0    0 -0.88082049109E+02 -0.14850882536E+03  0.22607019181E+03  0.31071860293E+03  0.12500000000E+03 0.  0.
         25    1    1    2    0    0 -0.70985178866E+02 -0.91478073306E+01  0.46295794674E+03  0.48484805707E+03  0.12500000000E+03 0.  0.
         25    1    1    2    0    0  0.15906722798E+03  0.15765663269E+03  0.15206629618E+03  0.29817302910E+03  0.12500000000E+03 0.  0.
</event>
<event>
 5    0  0.5728184E-005  0.2472604E+03  0.7546771E-02  0.1115049E+00
         21   -1    0    0  502  501  0.00000000000E+00  0.00000000000E+00  0.34766180715E+03  0.34766180715E+03  0.00000000000E+00 0. -1.
         21   -1    0    0  501  502 -0.00000000000E+00 -0.00000000000E+00 -0.17585397192E+03  0.17585397192E+03  0.00000000000E+00 0. -1.
         25    1    1    2    0    0 -0.17251842162E+01 -0.34481686396E+02 -0.59128047758E+02  0.14252399443E+03  0.12500000000E+03 0.  0.
         25    1    1    2    0    0  0.22640881672E+01  0.63552765313E+02  0.31354076468E+02  0.14370858772E+03  0.12500000000E+03 0.  0.
         25    1    1    2    0    0 -0.53890395101E+00 -0.29071078917E+02  0.19958180652E+03  0.23728319692E+03  0.12500000000E+03 0.  0.
</event>
<event>
 5    0  0.5728184E-005  0.3267129E+03  0.7546771E-02  0.1072601E+00
         21   -1    0    0  502  501  0.00000000000E+00  0.00000000000E+00  0.60444343756E+03  0.60444343756E+03  0.00000000000E+00 0.  1.
         21   -1    0    0  501  502 -0.00000000000E+00 -0.00000000000E+00 -0.17659440614E+03  0.17659440614E+03  0.00000000000E+00 0.  1.
         25    1    1    2    0    0 -0.74718011533E+02  0.67792432233E+02  0.14988476711E+02  0.16133272932E+03  0.12500000000E+03 0.  0.
         25    1    1    2    0    0 -0.52817703521E+02  0.12825284469E+02 -0.26299328794E+02  0.13881949583E+03  0.12500000000E+03 0.  0.
         25    1    1    2    0    0  0.12753571505E+03 -0.80617716702E+02  0.43915988350E+03  0.48088561856E+03  0.12500000000E+03 0.  0.
</event>
<event>
 5    0  0.5728184E-005  0.2589328E+03  0.7546771E-02  0.1107786E+00
         21   -1    0    0  502  501  0.00000000000E+00  0.00000000000E+00  0.18568881759E+03  0.18568881759E+03  0.00000000000E+00 0. -1.
         21   -1    0    0  501  502 -0.00000000000E+00 -0.00000000000E+00 -0.36106757061E+03  0.36106757061E+03  0.00000000000E+00 0. -1.
         25    1    1    2    0    0  0.83618420587E+02 -0.34520638096E+02 -0.14528660734E+03  0.21193610591E+03  0.12500000000E+03 0.  0.
         25    1    1    2    0    0  0.39885826890E+02  0.71860009712E+02 -0.40152029660E+02  0.15489327186E+03  0.12500000000E+03 0.  0.
         25    1    1    2    0    0 -0.12350424748E+03 -0.37339371616E+02  0.10059883982E+02  0.17992701043E+03  0.12500000000E+03 0.  0.
</event>
<event>
 5    0  0.5728184E-005  0.2676949E+03  0.7546771E-02  0.1102606E+00
         21   -1    0    0  502  501  0.00000000000E+00  0.00000000000E+00  0.33729915182E+03  0.33729915182E+03  0.00000000000E+00 0. -1.
         21   -1    0    0  501  502 -0.00000000000E+00 -0.00000000000E+00 -0.21245407467E+03  0.21245407467E+03  0.00000000000E+00 0.  1.
         25    1    1    2    0    0 -0.64616383621E+02 -0.87162296261E+02 -0.64444526160E+02  0.17762499789E+03  0.12500000000E+03 0.  0.
         25    1    1    2    0    0 -0.67005007259E+01  0.10508797577E+03  0.49683912616E+02  0.17082701933E+03  0.12500000000E+03 0.  0.
         25    1    1    2    0    0  0.71316884346E+02 -0.17925679507E+02  0.13960569070E+03  0.20130120927E+03  0.12500000000E+03 0.  0.
</event>
<event>
 5    0  0.5728184E-005  0.3226020E+03  0.7546771E-02  0.1074458E+00
         21   -1    0    0  502  501  0.00000000000E+00  0.00000000000E+00  0.35154401604E+03  0.35154401604E+03  0.00000000000E+00 0.  1.
         21   -1    0    0  501  502 -0.00000000000E+00 -0.00000000000E+00 -0.29604271625E+03  0.29604271625E+03  0.00000000000E+00 0.  1.
         25    1    1    2    0    0 -0.15155213371E+03 -0.14627023947E+03 -0.24696154159E+02  0.24616647257E+03  0.12500000000E+03 0.  0.
         25    1    1    2    0    0  0.12986197663E+03  0.58588393816E+02  0.14039845423E+03  0.23586746027E+03  0.12500000000E+03 0.  0.
         25    1    1    2    0    0  0.21690157075E+02  0.87681845652E+02 -0.60201000284E+02  0.16555279945E+03  0.12500000000E+03 0.  0.
</event>
<event>
 5    0  0.6018167E-005  0.2813117E+03  0.7546771E-02  0.1094975E+00
         21   -1    0    0  502  501  0.00000000000E+00  0.00000000000E+00  0.20766659466E+03  0.20766659466E+03  0.00000000000E+00 0. -1.
         21   -1    0    0  501  502 -0.00000000000E+00 -0.00000000000E+00 -0.38107364806E+03  0.38107364806E+03  0.00000000000E+00 0. -1.
         25    1    1    2    0    0  0.28935708432E+02 -0.75124855867E+02  0.37501228490E+02  0.15333741008E+03  0.12500000000E+03 0.  0.
         25    1    1    2    0    0  0.12117921369E+03  0.20345015264E+02 -0.12391416026E+03  0.21465796186E+03  0.12500000000E+03 0.  0.
         25    1    1    2    0    0 -0.15011492212E+03  0.54779840603E+02 -0.86994121620E+02  0.22074487078E+03  0.12500000000E+03 0.  0.
</event>
<event>
 5    0  0.5728184E-005  0.4255393E+03  0.7546771E-02  0.1035278E+00
         21   -1    0    0  502  501  0.00000000000E+00  0.00000000000E+00  0.63538470678E+02  0.63538470678E+02  0.00000000000E+00 0.  1.
         21   -1    0    0  501  502 -0.00000000000E+00 -0.00000000000E+00 -0.28499844965E+04  0.28499844965E+04  0.00000000000E+00 0.  1.
         25    1    1    2    0    0 -0.21544927768E+03  0.17935408510E+03 -0.80070138921E+03  0.85751617698E+03  0.12500000000E+03 0.  0.
         25    1    1    2    0    0  0.20869758075E+03 -0.27745167629E+03 -0.15078312802E+04  0.15523254435E+04  0.12500000000E+03 0.  0.
         25    1    1    2    0    0  0.67516969306E+01  0.98097591188E+02 -0.47791335638E+03  0.50368134670E+03  0.12500000000E+03 0.  0.
</event>
<event>
 5    0  0.5728184E-005  0.2962082E+03  0.7546771E-02  0.1087152E+00
         21   -1    0    0  502  501  0.00000000000E+00  0.00000000000E+00  0.19725012711E+03  0.19725012711E+03  0.00000000000E+00 0. -1.
         21   -1    0    0  501  502 -0.00000000000E+00 -0.00000000000E+00 -0.44481245870E+03  0.44481245870E+03  0.00000000000E+00 0. -1.
         25    1    1    2    0    0 -0.46177693899E+02 -0.18755213644E+03 -0.98442181695E+02  0.25024796989E+03  0.12500000000E+03 0.  0.
         25    1    1    2    0    0 -0.40772294864E+02  0.10223999653E+03 -0.69461051774E+01  0.16669926604E+03  0.12500000000E+03 0.  0.
         25    1    1    2    0    0  0.86949988763E+02  0.85312139902E+02 -0.14217404472E+03  0.22511534988E+03  0.12500000000E+03 0.  0.
</event>
<event>
 5    0  0.5728184E-005  0.3984808E+03  0.7546771E-02  0.1044307E+00
         21   -1    0    0  502  501  0.00000000000E+00  0.00000000000E+00  0.66326204214E+02  0.66326204214E+02  0.00000000000E+00 0. -1.
         21   -1    0    0  501  502 -0.00000000000E+00 -0.00000000000E+00 -0.23940299785E+04  0.23940299785E+04  0.00000000000E+00 0. -1.
         25    1    1    2    0    0  0.10185234027E+03  0.18579639223E+03 -0.97702552618E+03  0.10075207578E+04  0.12500000000E+03 0.  0.
         25    1    1    2    0    0 -0.34191490188E+02 -0.23539525878E+03 -0.35183274595E+03  0.44270900937E+03  0.12500000000E+03 0.  0.
         25    1    1    2    0    0 -0.67660850080E+02  0.49598866555E+02 -0.99884550213E+03  0.10101264155E+04  0.12500000000E+03 0.  0.
</event>
<event>
 5    0  0.5728184E-005  0.2606568E+03  0.7546771E-02  0.1106749E+00
         21   -1    0    0  502  501  0.00000000000E+00  0.00000000000E+00  0.36035271731E+03  0.36035271731E+03  0.00000000000E+00 0. -1.
         21   -1    0    0  501  502 -0.00000000000E+00 -0.00000000000E+00 -0.18854295574E+03  0.18854295574E+03  0.00000000000E+00 0. -1.
         25    1    1    2    0    0  0.92606949763E+02 -0.95978154979E+02  0.20309738062E+01  0.18280311330E+03  0.12500000000E+03 0.  0.
         25    1    1    2    0    0 -0.13773353636E+02  0.10077855445E+03  0.32645237798E+02  0.16442850683E+03  0.12500000000E+03 0.  0.
         25    1    1    2    0    0 -0.78833596127E+02 -0.48003994739E+01  0.13713354997E+03  0.20166405292E+03  0.12500000000E+03 0.  0.
</event>
<event>
 5    0  0.5728184E-005  0.4300683E+03  0.7546771E-02  0.1033838E+00
         21   -1    0    0  502  501  0.00000000000E+00  0.00000000000E+00  0.12236202001E+04  0.12236202001E+04  0.00000000000E+00 0.  1.
         21   -1    0    0  501  502 -0.00000000000E+00 -0.00000000000E+00 -0.15115695891E+03  0.15115695891E+03  0.00000000000E+00 0.  1.
         25    1    1    2    0    0  0.15699222418E+03  0.11803423525E+02 -0.15370466744E+02  0.20161133527E+03  0.12500000000E+03 0.  0.
         25    1    1    2    0    0 -0.16447710996E+03 -0.23170702090E+02  0.99599797998E+03  0.10174608480E+04  0.12500000000E+03 0.  0.
         25    1    1    2    0    0  0.74848857722E+01  0.11367278565E+02  0.91835727973E+02  0.15570497574E+03  0.12500000000E+03 0.  0.
</event>
<event>
 5    0  0.5728184E-005  0.3106558E+03  0.7546771E-02  0.1080032E+00
         21   -1    0    0  502  501  0.00000000000E+00  0.00000000000E+00  0.62694644393E+02  0.62694644393E+02  0.00000000000E+00 0.  1.
         21   -1    0    0  501  502 -0.00000000000E+00 -0.00000000000E+00 -0.15393180494E+04  0.15393180494E+04  0.00000000000E+00 0.  1.
         25    1    1    2    0    0  0.17223693633E+01 -0.95931362685E+02 -0.85083627386E+02  0.17908103348E+03  0.12500000000E+03 0.  0.
         25    1    1    2    0    0 -0.33426471468E+02 -0.62840154138E+01 -0.71712358338E+03  0.72873043829E+03  0.12500000000E+03 0.  0.
         25    1    1    2    0    0  0.31704102104E+02  0.10221537810E+03 -0.67441619424E+03  0.69420122202E+03  0.12500000000E+03 0.  0.
</event>
<event>
 5    0  0.5873404E-005  0.3264028E+03  0.7546771E-02  0.1072740E+00
         21   -1    0    0  502  501  0.00000000000E+00  0.00000000000E+00  0.26109390813E+03  0.26109390813E+03  0.00000000000E+00 0. -1.
         21   -1    0    0  501  502 -0.00000000000E+00 -0.00000000000E+00 -0.40804766343E+03  0.40804766343E+03  0.00000000000E+00 0. -1.
         25    1    1    2    0    0  0.13184083667E+03 -0.69239292953E+02 -0.97623741672E+02  0.21755799420E+03  0.12500000000E+03 0.  0.
         25    1    1    2    0    0 -0.19337650606E+03 -0.80897143278E+02 -0.27252400704E+02  0.24557384680E+03  0.12500000000E+03 0.  0.
         25    1    1    2    0    0  0.61535669397E+02  0.15013643623E+03 -0.22077612924E+02  0.20600973056E+03  0.12500000000E+03 0.  0.
</event>
<event>
 5    0  0.5728184E-005  0.2657860E+03  0.7546771E-02  0.1103716E+00
         21   -1    0    0  502  501  0.00000000000E+00  0.00000000000E+00  0.23240748051E+03  0.23240748051E+03  0.00000000000E+00 0. -1.
         21   -1    0    0  501  502 -0.00000000000E+00 -0.00000000000E+00 -0.30395826506E+03  0.30395826506E+03  0.00000000000E+00 0. -1.
         25    1    1    2    0    0 -0.43981257451E+02 -0.65831300166E+02 -0.56172404717E+02  0.15826702164E+03  0.12500000000E+03 0.  0.
         25    1    1    2    0    0  0.10597854213E+02 -0.10416635258E+03 -0.20921259075E+02  0.16439477670E+03  0.12500000000E+03 0.  0.
         25    1    1    2    0    0  0.33383403238E+02  0.16999765275E+03  0.55428792473E+01  0.21370394723E+03  0.12500000000E+03 0.  0.
</event>
<event>
 5    0  0.5728184E-005  0.3444670E+03  0.7546771E-02  0.1064909E+00
         21   -1    0    0  502  501  0.00000000000E+00  0.00000000000E+00  0.40296848338E+03  0.40296848338E+03  0.00000000000E+00 0.  1.
         21   -1    0    0  501  502 -0.00000000000E+00 -0.00000000000E+00 -0.29445847638E+03  0.29445847638E+03  0.00000000000E+00 0.  1.
         25    1    1    2    0    0  0.55928550710E+02 -0.61513871752E+02 -0.14500513350E+03  0.20871858553E+03  0.12500000000E+03 0.  0.
         25    1    1    2    0    0  0.47083859393E+02  0.14904315196E+03  0.22710733617E+03  0.30271024612E+03  0.12500000000E+03 0.  0.
         25    1    1    2    0    0 -0.10301241010E+03 -0.87529280209E+02  0.26407804331E+02  0.18599812811E+03  0.12500000000E+03 0.  0.
</event>
<event>
 5    0  0.6217703E-005  0.2965310E+03  0.7546771E-02  0.1086988E+00
         21   -1    0    0  502  501  0.00000000000E+00  0.00000000000E+00  0.65365467052E+03  0.65365467052E+03  0.00000000000E+00 0. -1.
         21   -1    0    0  501  502 -0.00000000000E+00 -0.00000000000E+00 -0.13452154940E+03  0.13452154940E+03  0.00000000000E+00 0. -1.
         25    1    1    2    0    0 -0.37859856764E+02 -0.29832422838E+01  0.26701962977E+03  0.29726545573E+03  0.12500000000E+03 0.  0.
         25    1    1    2    0    0 -0.32582747551E+02 -0.15649043765E+03  0.89783954602E+02  0.22189423385E+03  0.12500000000E+03 0.  0.
         25    1    1    2    0    0  0.70442604315E+02  0.15947367993E+03  0.16232953674E+03  0.26901653033E+03  0.12500000000E+03 0.  0.
</event>
<event>
 5    0  0.5728184E-005  0.2638985E+03  0.7546771E-02  0.1104823E+00
         21   -1    0    0  502  501  0.00000000000E+00  0.00000000000E+00  0.23414848050E+03  0.23414848050E+03  0.00000000000E+00 0.  1.
         21   -1    0    0  501  502 -0.00000000000E+00 -0.00000000000E+00 -0.29742839717E+03  0.29742839717E+03  0.00000000000E+00 0.  1.
         25    1    1    2    0    0 -0.13999870765E+02  0.39393995819E+01 -0.10537315366E+02  0.12628361044E+03  0.12500000000E+03 0.  0.
         25    1    1    2    0    0  0.23382912781E+02 -0.27076596210E+02 -0.18205531335E+03  0.22371642719E+03  0.12500000000E+03 0.  0.
         25    1    1    2    0    0 -0.93830420159E+01  0.23137196628E+02  0.12931271204E+03  0.18157684005E+03  0.12500000000E+03 0.  0.
</event>
<event>
 5    0  0.5728184E-005  0.3004870E+03  0.7546771E-02  0.1084997E+00
         21   -1    0    0  502  501  0.00000000000E+00  0.00000000000E+00  0.19228326100E+04  0.19228326100E+04  0.00000000000E+00 0. -1.
         21   -1    0    0  501  502 -0.00000000000E+00 -0.00000000000E+00 -0.46958035681E+02  0.46958035681E+02  0.00000000000E+00 0. -1.
         25    1    1    2    0    0  0.20456843899E+03 -0.60498579310E+02  0.80773402293E+03  0.84472929162E+03  0.12500000000E+03 0.  0.
         25    1    1    2    0    0 -0.12687810316E+03  0.85417182696E+02  0.49909734605E+03  0.53676559967E+03  0.12500000000E+03 0.  0.
         25    1    1    2    0    0 -0.77690335829E+02 -0.24918603386E+02  0.56904320530E+03  0.58829575434E+03  0.12500000000E+03 0.  0.
</event>
<event>
 5    0  0.5728184E-005  0.2479434E+03  0.7546771E-02  0.1114612E+00
         21   -1    0    0  502  501  0.00000000000E+00  0.00000000000E+00  0.76660100501E+02  0.76660100501E+02  0.00000000000E+00 0. -1.
         21   -1    0    0  501  502 -0.00000000000E+00 -0.00000000000E+00 -0.80192831418E+03  0.80192831418E+03  0.00000000000E+00 0. -1.
         25    1    1    2    0    0 -0.25331811217E+02  0.71253738852E+02 -0.20130333538E+03  0.24873043399E+03  0.12500000000E+03 0.  0.
         25    1    1    2    0    0 -0.10288945049E+03 -0.23479180138E+02 -0.22699968785E+03  0.27980594920E+03  0.12500000000E+03 0.  0.
         25    1    1    2    0    0  0.12822126170E+03 -0.47774558715E+02 -0.29696519045E+03  0.35005203149E+03  0.12500000000E+03 0.  0.
</event>
<event>
 5    0  0.5728184E-005  0.2661765E+03  0.7546771E-02  0.1103488E+00
         21   -1    0    0  502  501  0.00000000000E+00  0.00000000000E+00  0.43072679891E+02  0.43072679891E+02  0.00000000000E+00 0. -1.
         21   -1    0    0  501  502 -0.00000000000E+00 -0.00000000000E+00 -0.16448929768E+04  0.16448929768E+04  0.00000000000E+00 0. -1.
         25    1    1    2    0    0 -0.84995515475E+02 -0.35449876510E+02 -0.28357869117E+03  0.32329986929E+03  0.12500000000E+03 0.  0.
         25    1    1    2    0    0 -0.20805163101E+02 -0.64619091514E+02 -0.78857666508E+03  0.80130308779E+03  0.12500000000E+03 0.  0.
         25    1    1    2    0    0  0.10580067858E+03  0.10006896802E+03 -0.52966494064E+03  0.56336269959E+03  0.12500000000E+03 0.  0.
</event>
<event>
 5    0  0.5728184E-005  0.2815271E+03  0.7546771E-02  0.1094858E+00
         21   -1    0    0  502  501  0.00000000000E+00  0.00000000000E+00  0.24484846635E+03  0.24484846635E+03  0.00000000000E+00 0. -1.
         21   -1    0    0  501  502 -0.00000000000E+00 -0.00000000000E+00 -0.32370014601E+03  0.32370014601E+03  0.00000000000E+00 0. -1.
         25    1    1    2    0    0  0.87312154815E+02 -0.35269082446E+02 -0.90672620178E+02  0.18086968957E+03  0.12500000000E+03 0.  0.
         25    1    1    2    0    0 -0.39307357091E+02  0.12586952182E+02 -0.13439371439E+03  0.18812275289E+03  0.12500000000E+03 0.  0.
         25    1    1    2    0    0 -0.48004797724E+02  0.22682130264E+02  0.14621465490E+03  0.19955616990E+03  0.12500000000E+03 0.  0.
</event>
<event>
 5    0  0.5728184E-005  0.3383868E+03  0.7546771E-02  0.1067485E+00
         21   -1    0    0  502  501  0.00000000000E+00  0.00000000000E+00  0.26137601007E+04  0.26137601007E+04  0.00000000000E+00 0. -1.
         21   -1    0    0  501  502 -0.00000000000E+00 -0.00000000000E+00 -0.43808775566E+02  0.43808775566E+02  0.00000000000E+00 0. -1.
         25    1    1    2    0    0 -0.46356431464E+02 -0.39384090088E+02  0.18911075696E+04  0.18962101321E+04  0.12500000000E+03 0.  0.
         25    1    1    2    0    0  0.12204213942E+03  0.48542737159E+02  0.25463487488E+03  0.31259334707E+03  0.12500000000E+03 0.  0.
         25    1    1    2    0    0 -0.75685707954E+02 -0.91586470717E+01  0.42420888062E+03  0.44876539706E+03  0.12500000000E+03 0.  0.
</event>
<event>
 5    0  0.5728184E-005  0.1903935E+03  0.7546771E-02  0.1158107E+00
         21   -1    0    0  502  501  0.00000000000E+00  0.00000000000E+00  0.12600071117E+03  0.12600071117E+03  0.00000000000E+00 0.  1.
         21   -1    0    0  501  502 -0.00000000000E+00 -0.00000000000E+00 -0.28769418776E+03  0.28769418776E+03  0.00000000000E+00 0.  1.
         25    1    1    2    0    0 -0.63834175321E+01  0.26195153467E+00 -0.84517802731E+02  0.15102673808E+03  0.12500000000E+03 0.  0.
         25    1    1    2    0    0  0.10771908504E+02  0.79563137128E+01 -0.39961851308E+02  0.13191393596E+03  0.12500000000E+03 0.  0.
         25    1    1    2    0    0 -0.43884909720E+01 -0.82182652475E+01 -0.37213822544E+02  0.13075422488E+03  0.12500000000E+03 0.  0.
</event>
<event>
 5    0  0.5728184E-005  0.3592215E+03  0.7546771E-02  0.1058893E+00
         21   -1    0    0  502  501  0.00000000000E+00  0.00000000000E+00  0.42043224082E+03  0.42043224082E+03  0.00000000000E+00 0. -1.
         21   -1    0    0  501  502 -0.00000000000E+00 -0.00000000000E+00 -0.30692244611E+03  0.30692244611E+03  0.00000000000E+00 0. -1.
         25    1    1    2    0    0  0.18748812478E+03  0.10261903989E+03  0.12037384773E+02  0.24789587111E+03  0.12500000000E+03 0.  0.
         25    1    1    2    0    0 -0.16221874780E+03  0.10063080441E+03  0.38717825584E+02  0.23144232749E+03  0.12500000000E+03 0.  0.
         25    1    1    2    0    0 -0.25269376980E+02 -0.20324984431E+03  0.62754584350E+02  0.24801648832E+03  0.12500000000E+03 0.  0.
</event>
<event>
 5    0  0.5728184E-005  0.3237806E+03  0.7546771E-02  0.1073922E+00
         21   -1    0    0  502  501  0.00000000000E+00  0.00000000000E+00  0.14692845933E+03  0.14692845933E+03  0.00000000000E+00 0. -1.
         21   -1    0    0  501  502 -0.00000000000E+00 -0.00000000000E+00 -0.71350298617E+03  0.71350298617E+03  0.00000000000E+00 0. -1.
         25    1    1    2    0    0 -0.36868722653E+00 -0.23366296567E+02  0.25618106825E+02  0.12972049623E+03  0.12500000000E+03 0.  0.
         25    1    1    2    0    0  0.14816746119E+03  0.55441183291E+02 -0.16470808325E+03  0.26034798645E+03  0.12500000000E+03 0.  0.
         25    1    1    2    0    0 -0.14779877396E+03 -0.32074886723E+02 -0.42748455041E+03  0.47036296281E+03  0.12500000000E+03 0.  0.
</event>
<event>
 5    0  0.5728184E-005  0.2336265E+03  0.7546771E-02  0.1124113E+00
         21   -1    0    0  502  501  0.00000000000E+00  0.00000000000E+00  0.63304268899E+03  0.63304268899E+03  0.00000000000E+00 0. -1.
         21   -1    0    0  501  502 -0.00000000000E+00 -0.00000000000E+00 -0.86220657349E+02  0.86220657349E+02  0.00000000000E+00 0. -1.
         25    1    1    2    0    0  0.75392391852E+02 -0.50847160451E+02  0.16977457836E+03  0.22960368885E+03  0.12500000000E+03 0.  0.
         25    1    1    2    0    0 -0.10955779974E+03 -0.12931168396E+02  0.22386830877E+03  0.27912747316E+03  0.12500000000E+03 0.  0.
         25    1    1    2    0    0  0.34165407891E+02  0.63778328846E+02  0.15317914451E+03  0.21053218433E+03  0.12500000000E+03 0.  0.
</event>
<event>
 5    0  0.5728184E-005  0.2678685E+03  0.7546771E-02  0.1102506E+00
         21   -1    0    0  502  501  0.00000000000E+00  0.00000000000E+00  0.56259217182E+03  0.56259217182E+03  0.00000000000E+00 0.  1.
         21   -1    0    0  501  502 -0.00000000000E+00 -0.00000000000E+00 -0.12754093917E+03  0.12754093917E+03  0.00000000000E+00 0.  1.
         25    1    1    2    0    0  0.27094202680E+02  0.12148023864E+03  0.79969892323E+02  0.19367944619E+03  0.12500000000E+03 0.  0.
         25    1    1    2    0    0 -0.53265374416E+02 -0.81983783339E+02  0.32163621801E+03  0.35865498404E+03  0.12500000000E+03 0.  0.
         25    1    1    2    0    0  0.26171171735E+02 -0.39496455297E+02  0.33445122320E+02  0.13779868076E+03  0.12500000000E+03 0.  0.
</event>
<event>
 5    0  0.5728184E-005  0.2505138E+03  0.7546771E-02  0.1112981E+00
         21   -1    0    0  502  501  0.00000000000E+00  0.00000000000E+00  0.14469170569E+04  0.14469170569E+04  0.00000000000E+00 0. -1.
         21   -1    0    0  501  502 -0.00000000000E+00 -0.00000000000E+00 -0.43373022840E+02  0.43373022840E+02  0.00000000000E+00 0. -1.
         25    1    1    2    0    0 -0.69267807642E+02  0.13802999645E+01  0.30661570679E+03  0.33828704683E+03  0.12500000000E+03 0.  0.
         25    1    1    2    0    0  0.92433523860E+02  0.35211416568E+00  0.24173623666E+03  0.28741170545E+03  0.12500000000E+03 0.  0.
         25    1    1    2    0    0 -0.23165716217E+02 -0.17324141302E+01  0.85519209066E+03  0.86459132751E+03  0.12500000000E+03 0.  0.
</event>
<event>
 5    0  0.5728184E-005  0.4163137E+03  0.7546771E-02  0.1038273E+00
         21   -1    0    0  502  501  0.00000000000E+00  0.00000000000E+00  0.28292065685E+03  0.28292065685E+03  0.00000000000E+00 0.  1.
         21   -1    0    0  501  502 -0.00000000000E+00 -0.00000000000E+00 -0.61259968433E+03  0.61259968433E+03  0.00000000000E+00 0.  1.
         25    1    1    2    0    0  0.89794955141E+02 -0.20263355460E+03 -0.16688145442E+03  0.30429904904E+03  0.12500000000E+03 0.  0.
         25    1    1    2    0    0  0.15728777453E+03  0.21023889246E+03 -0.96471887023E+02  0.30638482486E+03  0.12500000000E+03 0.  0.
         25    1    1    2    0    0 -0.24708272967E+03 -0.76053378524E+01 -0.66325686042E+02  0.28483646728E+03  0.12500000000E+03 0.  0.
</event>
<event>
 5    0  0.5728184E-005  0.4183522E+03  0.7546771E-02  0.1037604E+00
         21   -1    0    0  502  501  0.00000000000E+00  0.00000000000E+00  0.59480439853E+03  0.59480439853E+03  0.00000000000E+00 0.  1.
         21   -1    0    0  501  502 -0.00000000000E+00 -0.00000000000E+00 -0.29424559032E+03  0.29424559032E+03  0.00000000000E+00 0.  1.
         25    1    1    2    0    0 -0.63283582032E+02 -0.20270776074E+03 -0.88212315748E+02  0.26172821910E+03  0.12500000000E+03 0.  0.
         25    1    1    2    0    0 -0.10679895400E+02  0.29293144855E+03  0.22119918947E+03  0.38791361814E+03  0.12500000000E+03 0.  0.
         25    1    1    2    0    0  0.73963477432E+02 -0.90223687802E+02  0.16757193449E+03  0.23940815162E+03  0.12500000000E+03 0.  0.
</event>
<event>
 5    0  0.5728184E-005  0.2840053E+03  0.7546771E-02  0.1093521E+00
         21   -1    0    0  502  501  0.00000000000E+00  0.00000000000E+00  0.24389814483E+03  0.24389814483E+03  0.00000000000E+00 0.  1.
         21   -1    0    0  501  502 -0.00000000000E+00 -0.00000000000E+00 -0.33070785731E+03  0.33070785731E+03  0.00000000000E+00 0.  1.
         25    1    1    2    0    0 -0.72226953276E+02  0.10504742717E+03 -0.13799231427E+02  0.17907292794E+03  0.12500000000E+03 0.  0.
         25    1    1    2    0    0  0.97274747679E+02  0.67833052995E+02 -0.50513274316E+02  0.17955581443E+03  0.12500000000E+03 0.  0.
         25    1    1    2    0    0 -0.25047794403E+02 -0.17288048016E+03 -0.22497206734E+02  0.21597725977E+03  0.12500000000E+03 0.  0.
</event>
<event>
 5    0  0.5728184E-005  0.3385320E+03  0.7546771E-02  0.1067423E+00
         21   -1    0    0  502  501  0.00000000000E+00  0.00000000000E+00  0.33575673595E+03  0.33575673595E+03  0.00000000000E+00 0.  1.
         21   -1    0    0  501  502 -0.00000000000E+00 -0.00000000000E+00 -0.34133026806E+03  0.34133026806E+03  0.00000000000E+00 0.  1.
         25    1    1    2    0    0  0.16570474558E+03  0.16743427416E+02  0.14134099181E+03  0.25167574582E+03  0.12500000000E+03 0.  0.
         25    1    1    2    0    0 -0.25591635596E+02  0.90486387443E+02  0.12277034449E+02  0.15690265676E+03  0.12500000000E+03 0.  0.
         25    1    1    2    0    0 -0.14011310998E+03 -0.10722981486E+03 -0.15919155837E+03  0.26850860143E+03  0.12500000000E+03 0.  0.
</event>
<event>
 5    0  0.5728184E-005  0.2930981E+03  0.7546771E-02  0.1088743E+00
         21   -1    0    0  502  501  0.00000000000E+00  0.00000000000E+00  0.46394193960E+03  0.46394193960E+03  0.00000000000E+00 0.  1.
         21   -1    0    0  501  502 -0.00000000000E+00 -0.00000000000E+00 -0.18516650506E+03  0.18516650506E+03  0.00000000000E+00 0.  1.
         25    1    1    2    0    0  0.45683377463E+02  0.30393973068E+02  0.10800493354E+03  0.17407133665E+03  0.12500000000E+03 0.  0.
         25    1    1    2    0    0 -0.11166196941E+03 -0.75089473303E+02 -0.66443647836E+02  0.19531150184E+03  0.12500000000E+03 0.  0.
         25    1    1    2    0    0  0.65978591946E+02  0.44695500235E+02  0.23721414884E+03  0.27972560617E+03  0.12500000000E+03 0.  0.
</event>
<event>
 5    0  0.5728184E-005  0.3687247E+03  0.7546771E-02  0.1055182E+00
         21   -1    0    0  502  501  0.00000000000E+00  0.00000000000E+00  0.10088740420E+03  0.10088740420E+03  0.00000000000E+00 0. -1.
         21   -1    0    0  501  502 -0.00000000000E+00 -0.00000000000E+00 -0.13476201763E+04  0.13476201763E+04  0.00000000000E+00 0. -1.
         25    1    1    2    0    0  0.45281852884E+02 -0.14604505874E+03 -0.54864240345E+03  0.58310641589E+03  0.12500000000E+03 0.  0.
         25    1    1    2    0    0  0.40140693337E+02  0.96174552250E+02 -0.14406876036E+02  0.16338108164E+03  0.12500000000E+03 0.  0.
         25    1    1    2    0    0 -0.85422546221E+02  0.49870506493E+02 -0.68368349259E+03  0.70202008294E+03  0.12500000000E+03 0.  0.
</event>
<event>
 5    0  0.5728184E-005  0.3644468E+03  0.7546771E-02  0.1056837E+00
         21   -1    0    0  502  501  0.00000000000E+00  0.00000000000E+00  0.17851726754E+03  0.17851726754E+03  0.00000000000E+00 0. -1.
         21   -1    0    0  501  502 -0.00000000000E+00 -0.00000000000E+00 -0.74402577149E+03  0.74402577149E+03  0.00000000000E+00 0. -1.
         25    1    1    2    0    0 -0.16579627472E+03 -0.56734971199E+02 -0.14528134404E+03  0.25969006641E+03  0.12500000000E+03 0.  0.
         25    1    1    2    0    0  0.16446119513E+03  0.11762947436E+03 -0.19301404185E+02  0.23849889338E+03  0.12500000000E+03 0.  0.
         25    1    1    2    0    0  0.13350795858E+01 -0.60894503156E+02 -0.40092575573E+03  0.42435407923E+03  0.12500000000E+03 0.  0.
</event>
<event>
 5    0  0.5728184E-005  0.2702381E+03  0.7546771E-02  0.1101143E+00
         21   -1    0    0  502  501  0.00000000000E+00  0.00000000000E+00  0.65019423241E+02  0.65019423241E+02  0.00000000000E+00 0. -1.
         21   -1    0    0  501  502 -0.00000000000E+00 -0.00000000000E+00 -0.11231818565E+04  0.11231818565E+04  0.00000000000E+00 0. -1.
         25    1    1    2    0    0  0.51998658960E+02  0.23222726272E+02 -0.49993939652E+03  0.51846654254E+03  0.12500000000E+03 0.  0.
         25    1    1    2    0    0 -0.22490319795E+02  0.67693347306E+02 -0.76556277658E+02  0.16301554344E+03  0.12500000000E+03 0.  0.
         25    1    1    2    0    0 -0.29508339165E+02 -0.90916073579E+02 -0.48166675908E+03  0.50671919375E+03  0.12500000000E+03 0.  0.
</event>
<event>
 5    0  0.5728184E-005  0.3337770E+03  0.7546771E-02  0.1069478E+00
         21   -1    0    0  502  501  0.00000000000E+00  0.00000000000E+00  0.56335504456E+03  0.56335504456E+03  0.00000000000E+00 0.  1.
         21   -1    0    0  501  502 -0.00000000000E+00 -0.00000000000E+00 -0.19775646624E+03  0.19775646624E+03  0.00000000000E+00 0.  1.
         25    1    1    2    0    0 -0.18944017055E+03 -0.39604787559E+02  0.17436106448E+03  0.28893407245E+03  0.12500000000E+03 0.  0.
         25    1    1    2    0    0  0.25006686198E+03  0.29957380132E+02  0.75575116652E+02  0.29114855030E+03  0.12500000000E+03 0.  0.
         25    1    1    2    0    0 -0.60626691431E+02  0.96474074266E+01  0.11566239719E+03  0.18102888805E+03  0.12500000000E+03 0.  0.
</event>
<event>
 5    0  0.5728184E-005  0.2588108E+03  0.7546771E-02  0.1107860E+00
         21   -1    0    0  502  501  0.00000000000E+00  0.00000000000E+00  0.75508009011E+02  0.75508009011E+02  0.00000000000E+00 0. -1.
         21   -1    0    0  501  502 -0.00000000000E+00 -0.00000000000E+00 -0.88709833184E+03  0.88709833184E+03  0.00000000000E+00 0. -1.
         25    1    1    2    0    0 -0.42107517963E+02 -0.79301403194E+02 -0.19681301882E+03  0.24984419144E+03  0.12500000000E+03 0.  0.
         25    1    1    2    0    0 -0.77783653492E+02  0.10363129082E+03 -0.24848065251E+03  0.30685073873E+03  0.12500000000E+03 0.  0.
         25    1    1    2    0    0  0.11989117145E+03 -0.24329887624E+02 -0.36629665150E+03  0.40591141069E+03  0.12500000000E+03 0.  0.
</event>
<event>
 5    0  0.5728184E-005  0.3527176E+03  0.7546771E-02  0.1061505E+00
         21   -1    0    0  502  501  0.00000000000E+00  0.00000000000E+00  0.20138365147E+04  0.20138365147E+04  0.00000000000E+00 0. -1.
         21   -1    0    0  501  502 -0.00000000000E+00 -0.00000000000E+00 -0.61777445117E+02  0.61777445117E+02  0.00000000000E+00 0. -1.
         25    1    1    2    0    0  0.15630419643E+03 -0.76314223679E+02  0.77162806964E+03  0.80080568206E+03  0.12500000000E+03 0.  0.
         25    1    1    2    0    0  0.10482965307E+03  0.32753972437E+02  0.25775298240E+03  0.30679582593E+03  0.12500000000E+03 0.  0.
         25    1    1    2    0    0 -0.26113384950E+03  0.43560251242E+02  0.92267801758E+03  0.96801245186E+03  0.12500000000E+03 0.  0.
</event>
<event>
 5    0  0.5728184E-005  0.5391309E+03  0.7546771E-02  0.1004041E+00
         21   -1    0    0  502  501  0.00000000000E+00  0.00000000000E+00  0.17657259511E+03  0.17657259511E+03  0.00000000000E+00 0.  1.
         21   -1    0    0  501  502 -0.00000000000E+00 -0.00000000000E+00 -0.16461335719E+04  0.16461335719E+04  0.00000000000E+00 0.  1.
         25    1    1    2    0    0  0.27573173093E+03 -0.21596337357E+03 -0.24120849546E+03  0.44325467222E+03  0.12500000000E+03 0.  0.
         25    1    1    2    0    0 -0.14627031251E+03  0.27763067417E+03 -0.37307256396E+03  0.50327123258E+03  0.12500000000E+03 0.  0.
         25    1    1    2    0    0 -0.12946141842E+03 -0.61667300604E+02 -0.85527991733E+03  0.87618026216E+03  0.12500000000E+03 0.  0.
</event>
<event>
 5    0  0.5728184E-005  0.3262762E+03  0.7546771E-02  0.1072797E+00
         21   -1    0    0  502  501  0.00000000000E+00  0.00000000000E+00  0.77080905814E+02  0.77080905814E+02  0.00000000000E+00 0.  1.
         21   -1    0    0  501  502 -0.00000000000E+00 -0.00000000000E+00 -0.13810961402E+04  0.13810961402E+04  0.00000000000E+00 0.  1.
         25    1    1    2    0    0  0.18782181203E+03  0.22973202765E+02 -0.67825702424E+03  0.71516598917E+03  0.12500000000E+03 0.  0.
         25    1    1    2    0    0 -0.12095631902E+03 -0.80990134992E+02 -0.15102547459E+03  0.24417929284E+03  0.12500000000E+03 0.  0.
         25    1    1    2    0    0 -0.66865493015E+02  0.58016932227E+02 -0.47473273557E+03  0.49883176403E+03  0.12500000000E+03 0.  0.
</event>
<event>
 5    0  0.5728184E-005  0.2946625E+03  0.7546771E-02  0.1087940E+00
         21   -1    0    0  502  501  0.00000000000E+00  0.00000000000E+00  0.63764684889E+02  0.63764684889E+02  0.00000000000E+00 0. -1.
         21   -1    0    0  501  502 -0.00000000000E+00 -0.00000000000E+00 -0.13616627275E+04  0.13616627275E+04  0.00000000000E+00 0. -1.
         25    1    1    2    0    0 -0.19581104620E+02  0.28682623690E+02 -0.46890681212E+03  0.48652308374E+03  0.12500000000E+03 0.  0.
         25    1    1    2    0    0  0.16496934739E+03 -0.88595598323E+02 -0.55694825184E+03  0.60073323601E+03  0.12500000000E+03 0.  0.
         25    1    1    2    0    0 -0.14538824277E+03  0.59912974633E+02 -0.27204297866E+03  0.33817109265E+03  0.12500000000E+03 0.  0.
</event>
<event>
 5    0  0.5728184E-005  0.3972403E+03  0.7546771E-02  0.1044739E+00
         21   -1    0    0  502  501  0.00000000000E+00  0.00000000000E+00  0.51745018164E+03  0.51745018164E+03  0.00000000000E+00 0. -1.
         21   -1    0    0  501  502 -0.00000000000E+00 -0.00000000000E+00 -0.30495663011E+03  0.30495663011E+03  0.00000000000E+00 0. -1.
         25    1    1    2    0    0  0.16957931645E+02  0.51243668082E+02  0.25053724397E+03  0.28514451701E+03  0.12500000000E+03 0.  0.
         25    1    1    2    0    0  0.60549942338E+02 -0.96915621446E+01  0.20640055880E+03  0.24897070624E+03  0.12500000000E+03 0.  0.
         25    1    1    2    0    0 -0.77507873983E+02 -0.41552105937E+02 -0.24444425124E+03  0.28829158850E+03  0.12500000000E+03 0.  0.
</event>
<event>
 5    0  0.5728184E-005  0.2968079E+03  0.7546771E-02  0.1086847E+00
         21   -1    0    0  502  501  0.00000000000E+00  0.00000000000E+00  0.49609051530E+03  0.49609051530E+03  0.00000000000E+00 0. -1.
         21   -1    0    0  501  502 -0.00000000000E+00 -0.00000000000E+00 -0.17757834312E+03  0.17757834312E+03  0.00000000000E+00 0. -1.
         25    1    1    2    0    0  0.16659083191E+03 -0.45281304938E+02  0.24587392091E+03  0.32539497052E+03  0.12500000000E+03 0.  0.
         25    1    1    2    0    0 -0.12954860862E+03  0.10270628696E+02 -0.24490860896E+02  0.18197013512E+03  0.12500000000E+03 0.  0.
         25    1    1    2    0    0 -0.37042223296E+02  0.35010676243E+02  0.97129112164E+02  0.16630375278E+03  0.12500000000E+03 0.  0.
</event>
<event>
 5    0  0.5728184E-005  0.2131491E+03  0.7546771E-02  0.1139096E+00
         21   -1    0    0  502  501  0.00000000000E+00  0.00000000000E+00  0.76062797576E+02  0.76062797576E+02  0.00000000000E+00 0.  1.
         21   -1    0    0  501  502 -0.00000000000E+00 -0.00000000000E+00 -0.59730317801E+03  0.59730317801E+03  0.00000000000E+00 0.  1.
         25    1    1    2    0    0  0.23708931462E+02 -0.20534485326E+02 -0.17235145360E+03  0.21520641737E+03  0.12500000000E+03 0.  0.
         25    1    1    2    0    0 -0.27934501378E+02  0.87433661726E+02 -0.17834101813E+03  0.23633768281E+03  0.12500000000E+03 0.  0.
         25    1    1    2    0    0  0.42255699156E+01 -0.66899176400E+02 -0.17054790871E+03  0.22182187541E+03  0.12500000000E+03 0.  0.
</event>
<event>
 5    0  0.5728184E-005  0.3008202E+03  0.7546771E-02  0.1084831E+00
         21   -1    0    0  502  501  0.00000000000E+00  0.00000000000E+00  0.12993469005E+03  0.12993469005E+03  0.00000000000E+00 0.  1.
         21   -1    0    0  501  502 -0.00000000000E+00 -0.00000000000E+00 -0.69644819038E+03  0.69644819038E+03  0.00000000000E+00 0.  1.
         25    1    1    2    0    0  0.56213982223E+02  0.94192456181E+02 -0.36938236370E+03  0.40509327471E+03  0.12500000000E+03 0.  0.
         25    1    1    2    0    0 -0.28695186424E+02 -0.90630051369E+02  0.30632640791E+02  0.16000180817E+03  0.12500000000E+03 0.  0.
         25    1    1    2    0    0 -0.27518795798E+02 -0.35624048123E+01 -0.22776377742E+03  0.26128779756E+03  0.12500000000E+03 0.  0.
</event>
<event>
 5    0  0.5728184E-005  0.3628778E+03  0.7546771E-02  0.1057450E+00
         21   -1    0    0  502  501  0.00000000000E+00  0.00000000000E+00  0.12006715725E+03  0.12006715725E+03  0.00000000000E+00 0. -1.
         21   -1    0    0  501  502 -0.00000000000E+00 -0.00000000000E+00 -0.10967217888E+04  0.10967217888E+04  0.00000000000E+00 0. -1.
         25    1    1    2    0    0 -0.18432941128E+03 -0.13311944261E+03 -0.39449619210E+03  0.47217619958E+03  0.12500000000E+03 0.  0.
         25    1    1    2    0    0  0.74444842876E+02  0.21561867403E+03 -0.43826784927E+03  0.50964414539E+03  0.12500000000E+03 0.  0.
         25    1    1    2    0    0  0.10988456840E+03 -0.82499231415E+02 -0.14389059016E+03  0.23496860108E+03  0.12500000000E+03 0.  0.
</event>
<event>
 5    0  0.5728184E-005  0.4537036E+03  0.7546771E-02  0.1026623E+00
         21   -1    0    0  502  501  0.00000000000E+00  0.00000000000E+00  0.13751092321E+04  0.13751092321E+04  0.00000000000E+00 0. -1.
         21   -1    0    0  501  502 -0.00000000000E+00 -0.00000000000E+00 -0.14969495671E+03  0.14969495671E+03  0.00000000000E+00 0. -1.
         25    1    1    2    0    0  0.29528719846E+03  0.17895866313E+03  0.35592380244E+03  0.51139758097E+03  0.12500000000E+03 0.  0.
         25    1    1    2    0    0 -0.12425680253E+03 -0.69090375144E+01  0.61663667828E+03  0.64136828794E+03  0.12500000000E+03 0.  0.
         25    1    1    2    0    0 -0.17103039593E+03 -0.17204962562E+03  0.25285379471E+03  0.37203831994E+03  0.12500000000E+03 0.  0.
</event>
<event>
 5    0  0.5728184E-005  0.2608259E+03  0.7546771E-02  0.1106648E+00
         21   -1    0    0  502  501  0.00000000000E+00  0.00000000000E+00  0.81967207984E+02  0.81967207984E+02  0.00000000000E+00 0. -1.
         21   -1    0    0  501  502 -0.00000000000E+00 -0.00000000000E+00 -0.82996761345E+03  0.82996761345E+03  0.00000000000E+00 0. -1.
         25    1    1    2    0    0  0.63408247250E+02 -0.29687191539E+02 -0.35090137544E+03  0.37902336398E+03  0.12500000000E+03 0.  0.
         25    1    1    2    0    0 -0.69809961637E+02 -0.41158473679E+02 -0.35193166276E+03  0.38216272182E+03  0.12500000000E+03 0.  0.
         25    1    1    2    0    0  0.64017143868E+01  0.70845665218E+02 -0.45167367271E+02  0.15074873563E+03  0.12500000000E+03 0.  0.
</event>
<event>
 5    0  0.5728184E-005  0.3366475E+03  0.7546771E-02  0.1068233E+00
         21   -1    0    0  502  501  0.00000000000E+00  0.00000000000E+00  0.11089248215E+03  0.11089248215E+03  0.00000000000E+00 0.  1.
         21   -1    0    0  501  502 -0.00000000000E+00 -0.00000000000E+00 -0.10219948927E+04  0.10219948927E+04  0.00000000000E+00 0.  1.
         25    1    1    2    0    0  0.11534551496E+03 -0.74799042585E+02 -0.12093539600E+03  0.22169766484E+03  0.12500000000E+03 0.  0.
         25    1    1    2    0    0  0.35910536780E+02 -0.84866062696E+02 -0.12439158533E+03  0.19897256532E+03  0.12500000000E+03 0.  0.
         25    1    1    2    0    0 -0.15125605174E+03  0.15966510528E+03 -0.66577542925E+03  0.71221714471E+03  0.12500000000E+03 0.  0.
</event>
<event>
 5    0  0.5728184E-005  0.3972132E+03  0.7546771E-02  0.1044749E+00
         21   -1    0    0  502  501  0.00000000000E+00  0.00000000000E+00  0.68429657349E+03  0.68429657349E+03  0.00000000000E+00 0. -1.
         21   -1    0    0  501  502 -0.00000000000E+00 -0.00000000000E+00 -0.23057004980E+03  0.23057004980E+03  0.00000000000E+00 0. -1.
         25    1    1    2    0    0 -0.85811518565E+02 -0.20756039016E+01  0.79039709387E+02  0.17099766229E+03  0.12500000000E+03 0.  0.
         25    1    1    2    0    0  0.17488860697E+03  0.25624299762E+03  0.26718607722E+03  0.42808865733E+03  0.12500000000E+03 0.  0.
         25    1    1    2    0    0 -0.89077088405E+02 -0.25416739372E+03  0.10750073708E+03  0.31578030367E+03  0.12500000000E+03 0.  0.
</event>
<event>
 5    0  0.5728184E-005  0.3350932E+03  0.7546771E-02  0.1068905E+00
         21   -1    0    0  502  501  0.00000000000E+00  0.00000000000E+00  0.75959704430E+02  0.75959704430E+02  0.00000000000E+00 0.  1.
         21   -1    0    0  501  502 -0.00000000000E+00 -0.00000000000E+00 -0.14782499795E+04  0.14782499795E+04  0.00000000000E+00 0.  1.
         25    1    1    2    0    0 -0.84980835140E+01 -0.39497722021E+02 -0.68864909959E+03  0.70106695103E+03  0.12500000000E+03 0.  0.
         25    1    1    2    0    0  0.19700521390E+03  0.32490915994E+02 -0.29769300479E+03  0.37962196858E+03  0.12500000000E+03 0.  0.
         25    1    1    2    0    0 -0.18850713039E+03  0.70068060278E+01 -0.41594817071E+03  0.47352076433E+03  0.12500000000E+03 0.  0.
</event>
<event>
 5    0  0.5728184E-005  0.2825939E+03  0.7546771E-02  0.1094281E+00
         21   -1    0    0  502  501  0.00000000000E+00  0.00000000000E+00  0.21514009630E+04  0.21514009630E+04  0.00000000000E+00 0. -1.
         21   -1    0    0  501  502 -0.00000000000E+00 -0.00000000000E+00 -0.37119690451E+02  0.37119690451E+02  0.00000000000E+00 0. -1.
         25    1    1    2    0    0 -0.43317562595E+02 -0.10208433211E+03  0.10446506061E+04  0.10579307685E+04  0.12500000000E+03 0.  0.
         25    1    1    2    0    0  0.12034577850E+03  0.34728507018E+02  0.77121692632E+03  0.79125831626E+03  0.12500000000E+03 0.  0.
         25    1    1    2    0    0 -0.77028215904E+02  0.67355825088E+02  0.29841374009E+03  0.33933156867E+03  0.12500000000E+03 0.  0.
</event>
<event>
 5    0  0.5728184E-005  0.2296677E+03  0.7546771E-02  0.1126874E+00
         21   -1    0    0  502  501  0.00000000000E+00  0.00000000000E+00  0.75443242172E+02  0.75443242172E+02  0.00000000000E+00 0.  1.
         21   -1    0    0  501  502 -0.00000000000E+00 -0.00000000000E+00 -0.69916466058E+03  0.69916466058E+03  0.00000000000E+00 0.  1.
         25    1    1    2    0    0 -0.20703403129E+02  0.67059306215E+02 -0.23756413852E+03  0.27746585621E+03  0.12500000000E+03 0.  0.
         25    1    1    2    0    0  0.27689863927E+02  0.46874399798E+02 -0.22697568249E+03  0.26477707295E+03  0.12500000000E+03 0.  0.
         25    1    1    2    0    0 -0.69864607986E+01 -0.11393370601E+03 -0.15918159740E+03  0.23236497359E+03  0.12500000000E+03 0.  0.
</event>
<event>
 5    0  0.5728184E-005  0.3871095E+03  0.7546771E-02  0.1048337E+00
         21   -1    0    0  502  501  0.00000000000E+00  0.00000000000E+00  0.25542605560E+03  0.25542605560E+03  0.00000000000E+00 0. -1.
         21   -1    0    0  501  502 -0.00000000000E+00 -0.00000000000E+00 -0.58668158665E+03  0.58668158665E+03  0.00000000000E+00 0. -1.
         25    1    1    2    0    0  0.18622728301E+03  0.13152006729E+03  0.75284598191E+02  0.27068597999E+03  0.12500000000E+03 0.  0.
         25    1    1    2    0    0 -0.11478226226E+03 -0.18044547804E+03 -0.22534920464E+03  0.33487729441E+03  0.12500000000E+03 0.  0.
         25    1    1    2    0    0 -0.71445020752E+02  0.48925410748E+02 -0.18119092459E+03  0.23654436785E+03  0.12500000000E+03 0.  0.
</event>
<event>
 5    0  0.5728184E-005  0.3758990E+03  0.7546771E-02  0.1052460E+00
         21   -1    0    0  502  501  0.00000000000E+00  0.00000000000E+00  0.64768095696E+03  0.64768095696E+03  0.00000000000E+00 0. -1.
         21   -1    0    0  501  502 -0.00000000000E+00 -0.00000000000E+00 -0.21816306712E+03  0.21816306712E+03  0.00000000000E+00 0. -1.
         25    1    1    2    0    0  0.15557237713E+03  0.25529611739E+03  0.16793959040E+03  0.36497613361E+03  0.12500000000E+03 0.  0.
         25    1    1    2    0    0 -0.15822948848E+03 -0.10265267173E+03  0.10742786959E+03  0.25047931891E+03  0.12500000000E+03 0.  0.
         25    1    1    2    0    0  0.26571113547E+01 -0.15264344566E+03  0.15415042986E+03  0.25038857156E+03  0.12500000000E+03 0.  0.
</event>
<event>
 5    0  0.6301036E-005  0.2334690E+03  0.7546771E-02  0.1124222E+00
         21   -1    0    0  502  501  0.00000000000E+00  0.00000000000E+00  0.33768398935E+03  0.33768398935E+03  0.00000000000E+00 0. -1.
         21   -1    0    0  501  502 -0.00000000000E+00 -0.00000000000E+00 -0.16141657132E+03  0.16141657132E+03  0.00000000000E+00 0. -1.
         25    1    1    2    0    0 -0.27604473742E+02  0.56367626502E+02  0.11134360611E+03  0.17877839609E+03  0.12500000000E+03 0.  0.
         25    1    1    2    0    0 -0.28842907006E+02  0.52274110548E+02  0.34051149567E+02  0.14264983948E+03  0.12500000000E+03 0.  0.
         25    1    1    2    0    0  0.56447380748E+02 -0.10864173705E+03  0.30872662353E+02  0.17767232509E+03  0.12500000000E+03 0.  0.
</event>
<event>
 5    0  0.5728184E-005  0.4229944E+03  0.7546771E-02  0.1036096E+00
         21   -1    0    0  502  501  0.00000000000E+00  0.00000000000E+00  0.13163676955E+04  0.13163676955E+04  0.00000000000E+00 0. -1.
         21   -1    0    0  501  502 -0.00000000000E+00 -0.00000000000E+00 -0.13592270094E+03  0.13592270094E+03  0.00000000000E+00 0. -1.
         25    1    1    2    0    0 -0.88977553376E+02 -0.94741472294E+02  0.30649772713E+02  0.18291353188E+03  0.12500000000E+03 0.  0.
         25    1    1    2    0    0 -0.17795624429E+03  0.78436053664E+02  0.63737675864E+03  0.67800794379E+03  0.12500000000E+03 0.  0.
         25    1    1    2    0    0  0.26693379766E+03  0.16305418630E+02  0.51241846316E+03  0.59136892072E+03  0.12500000000E+03 0.  0.
</event>
<event>
 5    0  0.5728184E-005  0.2736966E+03  0.7546771E-02  0.1099182E+00
         21   -1    0    0  502  501  0.00000000000E+00  0.00000000000E+00  0.10043610539E+04  0.10043610539E+04  0.00000000000E+00 0.  1.
         21   -1    0    0  501  502 -0.00000000000E+00 -0.00000000000E+00 -0.74584558443E+02  0.74584558443E+02  0.00000000000E+00 0.  1.
         25    1    1    2    0    0  0.11152422009E+02 -0.27246190310E+02  0.41848506393E+03  0.43774590819E+03  0.12500000000E+03 0.  0.
         25    1    1    2    0    0  0.38185258047E+02 -0.12646189714E+03  0.26272531085E+03  0.31953139802E+03  0.12500000000E+03 0.  0.
         25    1    1    2    0    0 -0.49337680056E+02  0.15370808745E+03  0.24856612065E+03  0.32166830611E+03  0.12500000000E+03 0.  0.
</event>
<event>
 5    0  0.5728184E-005  0.2735967E+03  0.7546771E-02  0.1099239E+00
         21   -1    0    0  502  501  0.00000000000E+00  0.00000000000E+00  0.21941056033E+04  0.21941056033E+04  0.00000000000E+00 0. -1.
         21   -1    0    0  501  502 -0.00000000000E+00 -0.00000000000E+00 -0.34116480537E+02  0.34116480537E+02  0.00000000000E+00 0. -1.
         25    1    1    2    0    0  0.50191738328E+02  0.55180407568E+02  0.36264688604E+03  0.39077084324E+03  0.12500000000E+03 0.  0.
         25    1    1    2    0    0  0.36631354789E+01  0.14634518304E+02  0.22620337347E+03  0.25888328231E+03  0.12500000000E+03 0.  0.
         25    1    1    2    0    0 -0.53854873806E+02 -0.69814925872E+02  0.15711388633E+04  0.15785679583E+04  0.12500000000E+03 0.  0.
</event>
<event>
 5    0  0.5728184E-005  0.2180006E+03  0.7546771E-02  0.1135383E+00
         21   -1    0    0  502  501  0.00000000000E+00  0.00000000000E+00  0.13361404349E+03  0.13361404349E+03  0.00000000000E+00 0. -1.
         21   -1    0    0  501  502 -0.00000000000E+00 -0.00000000000E+00 -0.35568318660E+03  0.35568318660E+03  0.00000000000E+00 0. -1.
         25    1    1    2    0    0  0.54486590962E+02 -0.62486446993E+02 -0.81202046941E+02  0.17056411428E+03  0.12500000000E+03 0.  0.
         25    1    1    2    0    0 -0.28041770451E+02 -0.21818787301E+02 -0.42270799229E+02  0.13665365285E+03  0.12500000000E+03 0.  0.
         25    1    1    2    0    0 -0.26444820511E+02  0.84305234294E+02 -0.98596296947E+02  0.18207946296E+03  0.12500000000E+03 0.  0.
</event>
<event>
 5    0  0.5728184E-005  0.3273633E+03  0.7546771E-02  0.1072310E+00
         21   -1    0    0  502  501  0.00000000000E+00  0.00000000000E+00  0.20102440133E+04  0.20102440133E+04  0.00000000000E+00 0. -1.
         21   -1    0    0  501  502 -0.00000000000E+00 -0.00000000000E+00 -0.53310304759E+02  0.53310304759E+02  0.00000000000E+00 0. -1.
         25    1    1    2    0    0  0.11577109527E+03 -0.12531479614E+03  0.31408704970E+03  0.37865871101E+03  0.12500000000E+03 0.  0.
         25    1    1    2    0    0 -0.13551060448E+03  0.96452516705E+02  0.13302272672E+04  0.13464010525E+04  0.12500000000E+03 0.  0.
         25    1    1    2    0    0  0.19739509210E+02  0.28862279436E+02  0.31261939166E+03  0.33849455452E+03  0.12500000000E+03 0.  0.
</event>
<event>
 5    0  0.5728184E-005  0.2785021E+03  0.7546771E-02  0.1096510E+00
         21   -1    0    0  502  501  0.00000000000E+00  0.00000000000E+00  0.12259020348E+03  0.12259020348E+03  0.00000000000E+00 0.  1.
         21   -1    0    0  501  502 -0.00000000000E+00 -0.00000000000E+00 -0.63270499710E+03  0.63270499710E+03  0.00000000000E+00 0.  1.
         25    1    1    2    0    0  0.53308117384E+02  0.13933632101E+03 -0.24215688458E+03  0.31067880919E+03  0.12500000000E+03 0.  0.
         25    1    1    2    0    0  0.84151317802E+01 -0.95797219316E+02 -0.25256023778E+03  0.29775761179E+03  0.12500000000E+03 0.  0.
         25    1    1    2    0    0 -0.61723249165E+02 -0.43539101699E+02 -0.15397671265E+02  0.14685877960E+03  0.12500000000E+03 0.  0.
</event>
<event>
 5    0  0.5728184E-005  0.3200315E+03  0.7546771E-02  0.1075635E+00
         21   -1    0    0  502  501  0.00000000000E+00  0.00000000000E+00  0.12379284315E+04  0.12379284315E+04  0.00000000000E+00 0.  1.
         21   -1    0    0  501  502 -0.00000000000E+00 -0.00000000000E+00 -0.82735139504E+02  0.82735139504E+02  0.00000000000E+00 0.  1.
         25    1    1    2    0    0 -0.74998441517E+01 -0.18145957693E+02  0.79821552641E+03  0.80818225052E+03  0.12500000000E+03 0.  0.
         25    1    1    2    0    0  0.13688797482E+03 -0.65964868558E+01  0.16561706754E+03  0.24866814100E+03  0.12500000000E+03 0.  0.
         25    1    1    2    0    0 -0.12938813067E+03  0.24742444548E+02  0.19136069808E+03  0.26381317952E+03  0.12500000000E+03 0.  0.
</event>
<event>
 5    0  0.5728184E-005  0.3807095E+03  0.7546771E-02  0.1050672E+00
         21   -1    0    0  502  501  0.00000000000E+00  0.00000000000E+00  0.75175942411E+02  0.75175942411E+02  0.00000000000E+00 0. -1.
         21   -1    0    0  501  502 -0.00000000000E+00 -0.00000000000E+00 -0.19280066261E+04  0.19280066261E+04  0.00000000000E+00 0. -1.
         25    1    1    2    0    0 -0.95362717059E+02  0.17936564564E+03 -0.55204648030E+03  0.60137043413E+03  0.12500000000E+03 0.  0.
         25    1    1    2    0    0  0.67687706558E+02 -0.27612579288E+03 -0.52820596411E+03  0.61274270263E+03  0.12500000000E+03 0.  0.
         25    1    1    2    0    0  0.27675010501E+02  0.96760147233E+02 -0.77257823925E+03  0.78906943171E+03  0.12500000000E+03 0.  0.
</event>
<event>
 5    0  0.5728184E-005  0.2767042E+03  0.7546771E-02  0.1097503E+00
         21   -1    0    0  502  501  0.00000000000E+00  0.00000000000E+00  0.72620873611E+02  0.72620873611E+02  0.00000000000E+00 0. -1.
         21   -1    0    0  501  502 -0.00000000000E+00 -0.00000000000E+00 -0.10543141194E+04  0.10543141194E+04  0.00000000000E+00 0. -1.
         25    1    1    2    0    0  0.12091165970E+03 -0.39370787987E+02 -0.21523748880E+03  0.27950288904E+03  0.12500000000E+03 0.  0.
         25    1    1    2    0    0 -0.17209794018E+03  0.26143672187E+02 -0.56729518524E+03  0.60642396045E+03  0.12500000000E+03 0.  0.
         25    1    1    2    0    0  0.51186280488E+02  0.13227115800E+02 -0.19916057174E+03  0.24100814351E+03  0.12500000000E+03 0.  0.
</event>
<event>
 5    0  0.5728184E-005  0.2298088E+03  0.7546771E-02  0.1126774E+00
         21   -1    0    0  502  501  0.00000000000E+00  0.00000000000E+00  0.30975877764E+03  0.30975877764E+03  0.00000000000E+00 0. -1.
         21   -1    0    0  501  502 -0.00000000000E+00 -0.00000000000E+00 -0.17049417913E+03  0.17049417913E+03  0.00000000000E+00 0. -1.
         25    1    1    2    0    0  0.58887391822E+01  0.18418465633E+02  0.71417418938E+02  0.14525620418E+03  0.12500000000E+03 0.  0.
         25    1    1    2    0    0 -0.56302925888E+02  0.44839967708E+02 -0.41700377363E+02  0.15014847199E+03  0.12500000000E+03 0.  0.
         25    1    1    2    0    0  0.50414186706E+02 -0.63258433341E+02  0.10954755693E+03  0.18484828060E+03  0.12500000000E+03 0.  0.
</event>
<event>
 5    0  0.5728184E-005  0.2247609E+03  0.7546771E-02  0.1130383E+00
         21   -1    0    0  502  501  0.00000000000E+00  0.00000000000E+00  0.57807656140E+02  0.57807656140E+02  0.00000000000E+00 0.  1.
         21   -1    0    0  501  502 -0.00000000000E+00 -0.00000000000E+00 -0.87388877699E+03  0.87388877699E+03  0.00000000000E+00 0.  1.
         25    1    1    2    0    0  0.77613617047E+01  0.12379966613E+01 -0.32022908212E+03  0.34385089269E+03  0.12500000000E+03 0.  0.
         25    1    1    2    0    0  0.35034852578E+02  0.81245585712E+02 -0.30677041022E+03  0.34287223667E+03  0.12500000000E+03 0.  0.
         25    1    1    2    0    0 -0.42796214283E+02 -0.82483582373E+02 -0.18908162851E+03  0.24497330377E+03  0.12500000000E+03 0.  0.
</event>
<event>
 5    0  0.5728184E-005  0.4887955E+03  0.7546771E-02  0.1016746E+00
         21   -1    0    0  502  501  0.00000000000E+00  0.00000000000E+00  0.26960452667E+03  0.26960452667E+03  0.00000000000E+00 0. -1.
         21   -1    0    0  501  502 -0.00000000000E+00 -0.00000000000E+00 -0.88619085468E+03  0.88619085468E+03  0.00000000000E+00 0. -1.
         25    1    1    2    0    0  0.21892832272E+03  0.68375272941E+02  0.13117159840E+03  0.29229399013E+03  0.12500000000E+03 0.  0.
         25    1    1    2    0    0 -0.11657840018E+03  0.63916054362E+02 -0.53555238856E+03  0.56578895914E+03  0.12500000000E+03 0.  0.
         25    1    1    2    0    0 -0.10234992254E+03 -0.13229132730E+03 -0.21220553785E+03  0.29771243208E+03  0.12500000000E+03 0.  0.
</event>
<event>
 5    0  0.5728184E-005  0.2923356E+03  0.7546771E-02  0.1089136E+00
         21   -1    0    0  502  501  0.00000000000E+00  0.00000000000E+00  0.18616201129E+03  0.18616201129E+03  0.00000000000E+00 0. -1.
         21   -1    0    0  501  502 -0.00000000000E+00 -0.00000000000E+00 -0.45906320961E+03  0.45906320961E+03  0.00000000000E+00 0. -1.
         25    1    1    2    0    0  0.79267022256E+02  0.97916301835E+02 -0.23162837715E+03  0.29180056217E+03  0.12500000000E+03 0.  0.
         25    1    1    2    0    0 -0.77803841609E+02 -0.14263737570E+03 -0.71774117905E+02  0.21719894732E+03  0.12500000000E+03 0.  0.
         25    1    1    2    0    0 -0.14631806470E+01  0.44721073870E+02  0.30501296740E+02  0.13622571141E+03  0.12500000000E+03 0.  0.
</event>
<event>
 5    0  0.5728184E-005  0.3175554E+03  0.7546771E-02  0.1076780E+00
         21   -1    0    0  502  501  0.00000000000E+00  0.00000000000E+00  0.19660653359E+03  0.19660653359E+03  0.00000000000E+00 0.  1.
         21   -1    0    0  501  502 -0.00000000000E+00 -0.00000000000E+00 -0.51291003385E+03  0.51291003385E+03  0.00000000000E+00 0.  1.
         25    1    1    2    0    0 -0.13372435322E+03 -0.48098764425E+02  0.74317890729E+02  0.20333185354E+03  0.12500000000E+03 0.  0.
         25    1    1    2    0    0  0.13103671109E+03 -0.14996391740E+02 -0.21252598383E+03  0.27962082401E+03  0.12500000000E+03 0.  0.
         25    1    1    2    0    0  0.26876421256E+01  0.63095156166E+02 -0.17809540716E+03  0.22656388989E+03  0.12500000000E+03 0.  0.
</event>
<event>
 5    0  0.5728184E-005  0.2770973E+03  0.7546771E-02  0.1097285E+00
         21   -1    0    0  502  501  0.00000000000E+00  0.00000000000E+00  0.57103006094E+02  0.57103006094E+02  0.00000000000E+00 0. -1.
         21   -1    0    0  501  502 -0.00000000000E+00 -0.00000000000E+00 -0.13446385517E+04  0.13446385517E+04  0.00000000000E+00 0. -1.
         25    1    1    2    0    0  0.13028105107E+03 -0.12259509001E+03 -0.43606705611E+03  0.48762914780E+03  0.12500000000E+03 0.  0.
         25    1    1    2    0    0 -0.34668777178E+02  0.61407023386E+02 -0.55168312299E+03  0.57004562521E+03  0.12500000000E+03 0.  0.
         25    1    1    2    0    0 -0.95612273894E+02  0.61188066619E+02 -0.29978536649E+03  0.34406678477E+03  0.12500000000E+03 0.  0.
</event>
<event>
 5    0  0.5728184E-005  0.2482532E+03  0.7546771E-02  0.1114414E+00
         21   -1    0    0  502  501  0.00000000000E+00  0.00000000000E+00  0.83357544533E+02  0.83357544533E+02  0.00000000000E+00 0.  1.
         21   -1    0    0  501  502 -0.00000000000E+00 -0.00000000000E+00 -0.73934127002E+03  0.73934127002E+03  0.00000000000E+00 0.  1.
         25    1    1    2    0    0  0.98368768659E+02  0.26295609825E+02 -0.80406412889E+02  0.18016121940E+03  0.12500000000E+03 0.  0.
         25    1    1    2    0    0 -0.53511054266E+02 -0.40045093143E+02 -0.21017455779E+03  0.25350618761E+03  0.12500000000E+03 0.  0.
         25    1    1    2    0    0 -0.44857714394E+02  0.13749483317E+02 -0.36540275481E+03  0.38903140754E+03  0.12500000000E+03 0.  0.
</event>
<event>
 5    0  0.5728184E-005  0.2490553E+03  0.7546771E-02  0.1113903E+00
         21   -1    0    0  502  501  0.00000000000E+00  0.00000000000E+00  0.16297149430E+03  0.16297149430E+03  0.00000000000E+00 0. -1.
         21   -1    0    0  501  502 -0.00000000000E+00 -0.00000000000E+00 -0.38060967034E+03  0.38060967034E+03  0.00000000000E+00 0. -1.
         25    1    1    2    0    0 -0.72070473425E+02 -0.35876850752E+02 -0.12066591241E+03  0.19148515341E+03  0.12500000000E+03 0.  0.
         25    1    1    2    0    0 -0.16115060734E+02 -0.66687757280E+02  0.28264383700E+01  0.14261816472E+03  0.12500000000E+03 0.  0.
         25    1    1    2    0    0  0.88185534159E+02  0.10256460803E+03 -0.99798702001E+02  0.20947784651E+03  0.12500000000E+03 0.  0.
</event>
<event>
 5    0  0.5728184E-005  0.4146062E+03  0.7546771E-02  0.1038836E+00
         21   -1    0    0  502  501  0.00000000000E+00  0.00000000000E+00  0.25292817050E+03  0.25292817050E+03  0.00000000000E+00 0. -1.
         21   -1    0    0  501  502 -0.00000000000E+00 -0.00000000000E+00 -0.67963291209E+03  0.67963291209E+03  0.00000000000E+00 0. -1.
         25    1    1    2    0    0 -0.95622987458E+02  0.46692041673E+02 -0.21515411842E+03  0.27062926146E+03  0.12500000000E+03 0.  0.
         25    1    1    2    0    0  0.30485170000E+03  0.12681163343E+02  0.61523902171E+01  0.32978511610E+03  0.12500000000E+03 0.  0.
         25    1    1    2    0    0 -0.20922871254E+03 -0.59373205015E+02 -0.21770301339E+03  0.33214670503E+03  0.12500000000E+03 0.  0.
</event>
<event>
 5    0  0.5728184E-005  0.2343681E+03  0.7546771E-02  0.1123603E+00
         21   -1    0    0  502  501  0.00000000000E+00  0.00000000000E+00  0.20100560165E+03  0.20100560165E+03  0.00000000000E+00 0.  1.
         21   -1    0    0  501  502 -0.00000000000E+00 -0.00000000000E+00 -0.27326800357E+03  0.27326800357E+03  0.00000000000E+00 0.  1.
         25    1    1    2    0    0 -0.46607015127E+02  0.82111452552E+02 -0.12567941788E+02  0.15715424799E+03  0.12500000000E+03 0.  0.
         25    1    1    2    0    0  0.10053769183E+03 -0.32571662633E+02 -0.10119289858E+02  0.16400042900E+03  0.12500000000E+03 0.  0.
         25    1    1    2    0    0 -0.53930676707E+02 -0.49539789919E+02 -0.49575170279E+02  0.15311892823E+03  0.12500000000E+03 0.  0.
</event>
<event>
 5    0  0.5728184E-005  0.5126945E+03  0.7546771E-02  0.1010518E+00
         21   -1    0    0  502  501  0.00000000000E+00  0.00000000000E+00  0.45183728965E+03  0.45183728965E+03  0.00000000000E+00 0. -1.
         21   -1    0    0  501  502 -0.00000000000E+00 -0.00000000000E+00 -0.58174849689E+03  0.58174849689E+03  0.00000000000E+00 0. -1.
         25    1    1    2    0    0  0.11065888219E+03  0.33106642772E+03  0.16236749255E+03  0.40476977458E+03  0.12500000000E+03 0.  0.
         25    1    1    2    0    0 -0.75987823914E+02 -0.26682777635E+03 -0.18380305111E+01  0.30430180737E+03  0.12500000000E+03 0.  0.
         25    1    1    2    0    0 -0.34671058275E+02 -0.64238651377E+02 -0.29044066928E+03  0.32451420459E+03  0.12500000000E+03 0.  0.
</event>
<event>
 5    0  0.5900413E-005  0.3737328E+03  0.7546771E-02  0.1053275E+00
         21   -1    0    0  502  501  0.00000000000E+00  0.00000000000E+00  0.12881273964E+04  0.12881273964E+04  0.00000000000E+00 0.  1.
         21   -1    0    0  501  502 -0.00000000000E+00 -0.00000000000E+00 -0.10843351009E+03  0.10843351009E+03  0.00000000000E+00 0.  1.
         25    1    1    2    0    0 -0.18429848877E+03 -0.92901056265E+02  0.42400245471E+03  0.48785204808E+03  0.12500000000E+03 0.  0.
         25    1    1    2    0    0  0.10980465045E+03 -0.56298024422E+02  0.65045740243E+02  0.18730316905E+03  0.12500000000E+03 0.  0.
         25    1    1    2    0    0  0.74493838317E+02  0.14919908069E+03  0.69064569132E+03  0.72140568931E+03  0.12500000000E+03 0.  0.
</event>
<event>
 5    0  0.5728184E-005  0.2727702E+03  0.7546771E-02  0.1099705E+00
         21   -1    0    0  502  501  0.00000000000E+00  0.00000000000E+00  0.36474010831E+02  0.36474010831E+02  0.00000000000E+00 0.  1.
         21   -1    0    0  501  502 -0.00000000000E+00 -0.00000000000E+00 -0.20399067540E+04  0.20399067540E+04  0.00000000000E+00 0.  1.
         25    1    1    2    0    0 -0.11972100026E+02 -0.50955604705E+02 -0.18769786148E+03  0.23150657018E+03  0.12500000000E+03 0.  0.
         25    1    1    2    0    0 -0.26853473825E+02  0.21769194270E+02 -0.35415445294E+03  0.37715432307E+03  0.12500000000E+03 0.  0.
         25    1    1    2    0    0  0.38825573852E+02  0.29186410435E+02 -0.14615804287E+04  0.14677198716E+04  0.12500000000E+03 0.  0.
</event>
<event>
 5    0  0.5728184E-005  0.2519515E+03  0.7546771E-02  0.1112078E+00
         21   -1    0    0  502  501  0.00000000000E+00  0.00000000000E+00  0.16101211842E+03  0.16101211842E+03  0.00000000000E+00 0.  1.
         21   -1    0    0  501  502 -0.00000000000E+00 -0.00000000000E+00 -0.39425321714E+03  0.39425321714E+03  0.00000000000E+00 0.  1.
         25    1    1    2    0    0 -0.60591246030E+02 -0.46199569174E+02 -0.11437762467E+03  0.18577658710E+03  0.12500000000E+03 0.  0.
         25    1    1    2    0    0 -0.57570534475E+02 -0.34605147241E+02  0.61092278105E+01  0.14203592968E+03  0.12500000000E+03 0.  0.
         25    1    1    2    0    0  0.11816178051E+03  0.80804716415E+02 -0.12497270186E+03  0.22745281879E+03  0.12500000000E+03 0.  0.
</event>
<event>
 5    0  0.5728184E-005  0.3079411E+03  0.7546771E-02  0.1081337E+00
         21   -1    0    0  502  501  0.00000000000E+00  0.00000000000E+00  0.59039985205E+03  0.59039985205E+03  0.00000000000E+00 0. -1.
         21   -1    0    0  501  502 -0.00000000000E+00 -0.00000000000E+00 -0.16061609236E+03  0.16061609236E+03  0.00000000000E+00 0. -1.
         25    1    1    2    0    0  0.45573469166E+02  0.37420680308E+02 -0.44936007166E+02  0.14533235409E+03  0.12500000000E+03 0.  0.
         25    1    1    2    0    0 -0.73649017888E+02 -0.66071984330E+02  0.59427948236E+02  0.17013631588E+03  0.12500000000E+03 0.  0.
         25    1    1    2    0    0  0.28075548722E+02  0.28651304022E+02  0.41529181862E+03  0.43554727444E+03  0.12500000000E+03 0.  0.
</event>
<event>
 5    0  0.5728184E-005  0.2734032E+03  0.7546771E-02  0.1099348E+00
         21   -1    0    0  502  501  0.00000000000E+00  0.00000000000E+00  0.10273612487E+04  0.10273612487E+04  0.00000000000E+00 0. -1.
         21   -1    0    0  501  502 -0.00000000000E+00 -0.00000000000E+00 -0.72758541940E+02  0.72758541940E+02  0.00000000000E+00 0. -1.
         25    1    1    2    0    0  0.18478127334E+02  0.95426580429E+02  0.53428203370E+03  0.55725215565E+03  0.12500000000E+03 0.  0.
         25    1    1    2    0    0 -0.58948020251E+02 -0.14693356934E+03  0.26448470131E+03  0.33262817096E+03  0.12500000000E+03 0.  0.
         25    1    1    2    0    0  0.40469892917E+02  0.51506988913E+02  0.15583597172E+03  0.21023946400E+03  0.12500000000E+03 0.  0.
</event>
<event>
 5    0  0.5728184E-005  0.2373509E+03  0.7546771E-02  0.1121570E+00
         21   -1    0    0  502  501  0.00000000000E+00  0.00000000000E+00  0.58077108138E+02  0.58077108138E+02  0.00000000000E+00 0.  1.
         21   -1    0    0  501  502 -0.00000000000E+00 -0.00000000000E+00 -0.97001144767E+03  0.97001144767E+03  0.00000000000E+00 0.  1.
         25    1    1    2    0    0  0.67615357557E+02  0.28278066291E+01 -0.32819673559E+03  0.35765616215E+03  0.12500000000E+03 0.  0.
         25    1    1    2    0    0  0.28162584125E+02  0.25024139302E+02 -0.11094952300E+03  0.17133048575E+03  0.12500000000E+03 0.  0.
         25    1    1    2    0    0 -0.95777941682E+02 -0.27851945931E+02 -0.47278808095E+03  0.49910190792E+03  0.12500000000E+03 0.  0.
</event>
<event>
 5    0  0.5728184E-005  0.3587766E+03  0.7546771E-02  0.1059069E+00
         21   -1    0    0  502  501  0.00000000000E+00  0.00000000000E+00  0.87227685545E+02  0.87227685545E+02  0.00000000000E+00 0.  1.
         21   -1    0    0  501  502 -0.00000000000E+00 -0.00000000000E+00 -0.14756853196E+04  0.14756853196E+04  0.00000000000E+00 0.  1.
         25    1    1    2    0    0  0.36244042403E+02 -0.15980617476E+03 -0.20309044801E+03  0.28934818847E+03  0.12500000000E+03 0.  0.
         25    1    1    2    0    0 -0.70724120230E+02  0.21163491857E+03 -0.10439381160E+04  0.10748130209E+04  0.12500000000E+03 0.  0.
         25    1    1    2    0    0  0.34480077827E+02 -0.51828743819E+02 -0.14142907005E+03  0.19875179573E+03  0.12500000000E+03 0.  0.
</event>
<event>
 5    0  0.5728184E-005  0.4915151E+03  0.7546771E-02  0.1016018E+00
         21   -1    0    0  502  501  0.00000000000E+00  0.00000000000E+00  0.81790291736E+03  0.81790291736E+03  0.00000000000E+00 0.  1.
         21   -1    0    0  501  502 -0.00000000000E+00 -0.00000000000E+00 -0.29537382473E+03  0.29537382473E+03  0.00000000000E+00 0.  1.
         25    1    1    2    0    0 -0.15809683124E+03  0.82421399482E+02  0.31604929775E+02  0.22002674094E+03  0.12500000000E+03 0.  0.
         25    1    1    2    0    0  0.60319194062E+02 -0.27509941216E+03  0.55565760826E+03  0.63537270114E+03  0.12500000000E+03 0.  0.
         25    1    1    2    0    0  0.97777637182E+02  0.19267801268E+03 -0.64733445399E+02  0.25787730000E+03  0.12500000000E+03 0.  0.
</event>
<event>
 5    0  0.5728184E-005  0.3695715E+03  0.7546771E-02  0.1054857E+00
         21   -1    0    0  502  501  0.00000000000E+00  0.00000000000E+00  0.27780066564E+03  0.27780066564E+03  0.00000000000E+00 0. -1.
         21   -1    0    0  501  502 -0.00000000000E+00 -0.00000000000E+00 -0.49165849342E+03  0.49165849342E+03  0.00000000000E+00 0. -1.
         25    1    1    2    0    0  0.39272033180E+02  0.10453454617E+03  0.21941202059E+02  0.16904490611E+03  0.12500000000E+03 0.  0.
         25    1    1    2    0    0  0.18693864521E+03  0.41652982339E+02 -0.12784908670E+02  0.22906217911E+03  0.12500000000E+03 0.  0.
         25    1    1    2    0    0 -0.22621067839E+03 -0.14618752851E+03 -0.22301412117E+03  0.37135207384E+03  0.12500000000E+03 0.  0.
</event>
<event>
 5    0  0.5728184E-005  0.3905680E+03  0.7546771E-02  0.1047095E+00
         21   -1    0    0  502  501  0.00000000000E+00  0.00000000000E+00  0.99904618868E+03  0.99904618868E+03  0.00000000000E+00 0.  1.
         21   -1    0    0  501  502 -0.00000000000E+00 -0.00000000000E+00 -0.15268897185E+03  0.15268897185E+03  0.00000000000E+00 0.  1.
         25    1    1    2    0    0  0.17662452432E+03 -0.15064693523E+03  0.14624278679E+03  0.30150070377E+03  0.12500000000E+03 0.  0.
         25    1    1    2    0    0 -0.24245216172E+03  0.18428442493E+03  0.41000503764E+03  0.52580693308E+03  0.12500000000E+03 0.  0.
         25    1    1    2    0    0  0.65827637392E+02 -0.33637489697E+02  0.29010939241E+03  0.32442752368E+03  0.12500000000E+03 0.  0.
</event>
<event>
 5    0  0.5728184E-005  0.3025744E+03  0.7546771E-02  0.1083961E+00
         21   -1    0    0  502  501  0.00000000000E+00  0.00000000000E+00  0.68963231130E+02  0.68963231130E+02  0.00000000000E+00 0.  1.
         21   -1    0    0  501  502 -0.00000000000E+00 -0.00000000000E+00 -0.13275378050E+04  0.13275378050E+04  0.00000000000E+00 0.  1.
         25    1    1    2    0    0 -0.53217420562E+02 -0.16292510546E+03 -0.39402077161E+03  0.44749754447E+03  0.12500000000E+03 0.  0.
         25    1    1    2    0    0 -0.36116919433E+02  0.10355681715E+03 -0.68689363489E+03  0.70673638077E+03  0.12500000000E+03 0.  0.
         25    1    1    2    0    0  0.89334339995E+02  0.59368288314E+02 -0.17766016742E+03  0.24226711095E+03  0.12500000000E+03 0.  0.
</event>
<event>
 5    0  0.5728184E-005  0.4899316E+03  0.7546771E-02  0.1016441E+00
         21   -1    0    0  502  501  0.00000000000E+00  0.00000000000E+00  0.17532595370E+03  0.17532595370E+03  0.00000000000E+00 0. -1.
         21   -1    0    0  501  502 -0.00000000000E+00 -0.00000000000E+00 -0.13690671039E+04  0.13690671039E+04  0.00000000000E+00 0. -1.
         25    1    1    2    0    0  0.80884685053E+02 -0.33971824248E+03 -0.53775349840E+03  0.65326460304E+03  0.12500000000E+03 0.  0.
         25    1    1    2    0    0  0.15234880112E+03  0.19538481328E+03 -0.19061122126E+03  0.33666455134E+03  0.12500000000E+03 0.  0.
         25    1    1    2    0    0 -0.23323348617E+03  0.14433342920E+03 -0.46537643052E+03  0.55446390319E+03  0.12500000000E+03 0.  0.
</event>
<event>
 5    0  0.5728184E-005  0.3879007E+03  0.7546771E-02  0.1048052E+00
         21   -1    0    0  502  501  0.00000000000E+00  0.00000000000E+00  0.16380767868E+04  0.16380767868E+04  0.00000000000E+00 0. -1.
         21   -1    0    0  501  502 -0.00000000000E+00 -0.00000000000E+00 -0.91855867617E+02  0.91855867617E+02  0.00000000000E+00 0. -1.
         25    1    1    2    0    0  0.21323565043E+03  0.79755594944E+02  0.26946123632E+03  0.37425226174E+03  0.12500000000E+03 0.  0.
         25    1    1    2    0    0 -0.16164844574E+03 -0.13175523365E+03  0.40822173907E+03  0.47514171554E+03  0.12500000000E+03 0.  0.
         25    1    1    2    0    0 -0.51587204694E+02  0.51999638706E+02  0.86853794377E+03  0.88053867711E+03  0.12500000000E+03 0.  0.
</event>
<event>
 5    0  0.5728184E-005  0.4040184E+03  0.7546771E-02  0.1042397E+00
         21   -1    0    0  502  501  0.00000000000E+00  0.00000000000E+00  0.14189512833E+04  0.14189512833E+04  0.00000000000E+00 0. -1.
         21   -1    0    0  501  502 -0.00000000000E+00 -0.00000000000E+00 -0.11503626188E+03  0.11503626188E+03  0.00000000000E+00 0. -1.
         25    1    1    2    0    0 -0.30230478176E+01 -0.26269305798E+02  0.41739203552E+03  0.43650925140E+03  0.12500000000E+03 0.  0.
         25    1    1    2    0    0 -0.21428189537E+03 -0.48329284832E+02  0.10559325112E+03  0.27391127238E+03  0.12500000000E+03 0.  0.
         25    1    1    2    0    0  0.21730494319E+03  0.74598590629E+02  0.78092973475E+03  0.82356702136E+03  0.12500000000E+03 0.  0.
</event>
<event>
 5    0  0.5728184E-005  0.2572473E+03  0.7546771E-02  0.1108808E+00
         21   -1    0    0  502  501  0.00000000000E+00  0.00000000000E+00  0.13924314260E+03  0.13924314260E+03  0.00000000000E+00 0.  1.
         21   -1    0    0  501  502 -0.00000000000E+00 -0.00000000000E+00 -0.47525636901E+03  0.47525636901E+03  0.00000000000E+00 0.  1.
         25    1    1    2    0    0 -0.15073295560E+02 -0.34892976232E+01 -0.20659289909E+02  0.12763692920E+03  0.12500000000E+03 0.  0.
         25    1    1    2    0    0  0.13950944908E+03  0.37643386446E+02 -0.17070782665E+03  0.25621489614E+03  0.12500000000E+03 0.  0.
         25    1    1    2    0    0 -0.12443615352E+03 -0.34154088823E+02 -0.14464610986E+03  0.23064768627E+03  0.12500000000E+03 0.  0.
</event>
<event>
 5    0  0.5728184E-005  0.2132656E+03  0.7546771E-02  0.1139006E+00
         21   -1    0    0  502  501  0.00000000000E+00  0.00000000000E+00  0.25659942126E+02  0.25659942126E+02  0.00000000000E+00 0. -1.
         21   -1    0    0  501  502 -0.00000000000E+00 -0.00000000000E+00 -0.17724979591E+04  0.17724979591E+04  0.00000000000E+00 0. -1.
         25    1    1    2    0    0  0.13433957995E+02 -0.12834651957E+02 -0.89814743048E+03  0.90699449083E+03  0.12500000000E+03 0.  0.
         25    1    1    2    0    0 -0.40194374199E+02 -0.33102163909E+02 -0.39429980414E+03  0.41690367775E+03  0.12500000000E+03 0.  0.
         25    1    1    2    0    0  0.26760416205E+02  0.45936815866E+02 -0.45439078240E+03  0.47425973269E+03  0.12500000000E+03 0.  0.
</event>
<event>
 5    0  0.5728184E-005  0.3025931E+03  0.7546771E-02  0.1083951E+00
         21   -1    0    0  502  501  0.00000000000E+00  0.00000000000E+00  0.45459990680E+03  0.45459990680E+03  0.00000000000E+00 0. -1.
         21   -1    0    0  501  502 -0.00000000000E+00 -0.00000000000E+00 -0.20141353510E+03  0.20141353510E+03  0.00000000000E+00 0. -1.
         25    1    1    2    0    0 -0.16919228485E+03  0.85731510242E+02  0.15651670685E+03  0.27585938560E+03  0.12500000000E+03 0.  0.
         25    1    1    2    0    0  0.16554888870E+03 -0.93452572367E+02  0.11259431194E+03  0.25385487372E+03  0.12500000000E+03 0.  0.
         25    1    1    2    0    0  0.36433961464E+01  0.77210621255E+01 -0.15924647088E+02  0.12629918258E+03  0.12500000000E+03 0.  0.
</event>
<event>
 5    0  0.6529190E-005  0.3492748E+03  0.7546771E-02  0.1062913E+00
         21   -1    0    0  502  501  0.00000000000E+00  0.00000000000E+00  0.18065407788E+03  0.18065407788E+03  0.00000000000E+00 0. -1.
         21   -1    0    0  501  502 -0.00000000000E+00 -0.00000000000E+00 -0.67528455851E+03  0.67528455851E+03  0.00000000000E+00 0. -1.
         25    1    1    2    0    0  0.13614214962E+03 -0.34246379279E+02 -0.39238272797E+03  0.43508241128E+03  0.12500000000E+03 0.  0.
         25    1    1    2    0    0 -0.15596041479E+02 -0.74748550949E+02  0.61103811408E+02  0.15871124140E+03  0.12500000000E+03 0.  0.
         25    1    1    2    0    0 -0.12054610814E+03  0.10899493023E+03 -0.16335156407E+03  0.26214498372E+03  0.12500000000E+03 0.  0.
</event>
<event>
 5    0  0.5728184E-005  0.2266199E+03  0.7546771E-02  0.1129042E+00
         21   -1    0    0  502  501  0.00000000000E+00  0.00000000000E+00  0.63765040752E+03  0.63765040752E+03  0.00000000000E+00 0.  1.
         21   -1    0    0  501  502 -0.00000000000E+00 -0.00000000000E+00 -0.80540306120E+02  0.80540306120E+02  0.00000000000E+00 0.  1.
         25    1    1    2    0    0 -0.39318317226E+02  0.28453831564E+02  0.35814354175E+03  0.38242299499E+03  0.12500000000E+03 0.  0.
         25    1    1    2    0    0  0.60496537608E+01 -0.16555435306E+02  0.15212913303E+03  0.19768397473E+03  0.12500000000E+03 0.  0.
         25    1    1    2    0    0  0.33268663465E+02 -0.11898396258E+02  0.46837426617E+02  0.13808374392E+03  0.12500000000E+03 0.  0.
</event>
<event>
 5    0  0.5848825E-005  0.5778881E+03  0.7546771E-02  0.9952374E-01
         21   -1    0    0  502  501  0.00000000000E+00  0.00000000000E+00  0.35915729299E+03  0.35915729299E+03  0.00000000000E+00 0.  1.
         21   -1    0    0  501  502 -0.00000000000E+00 -0.00000000000E+00 -0.92982831063E+03  0.92982831063E+03  0.00000000000E+00 0.  1.
         25    1    1    2    0    0 -0.15955575736E+03  0.17431057293E+03 -0.53874363500E+03  0.60142490786E+03  0.12500000000E+03 0.  0.
         25    1    1    2    0    0  0.24982316862E+03  0.34569400299E+02 -0.22798375075E+03  0.36222679307E+03  0.12500000000E+03 0.  0.
         25    1    1    2    0    0 -0.90267411260E+02 -0.20887997323E+03  0.19605636812E+03  0.32533390268E+03  0.12500000000E+03 0.  0.
</event>
<event>
 5    0  0.5728184E-005  0.3109348E+03  0.7546771E-02  0.1079899E+00
         21   -1    0    0  502  501  0.00000000000E+00  0.00000000000E+00  0.49740437729E+02  0.49740437729E+02  0.00000000000E+00 0. -1.
         21   -1    0    0  501  502 -0.00000000000E+00 -0.00000000000E+00 -0.19436998352E+04  0.19436998352E+04  0.00000000000E+00 0. -1.
         25    1    1    2    0    0 -0.17455365636E+02 -0.11749717113E+03 -0.31271840755E+03  0.35711073554E+03  0.12500000000E+03 0.  0.
         25    1    1    2    0    0 -0.28631758943E+01 -0.10039771900E+03 -0.46109368593E+03  0.48818058847E+03  0.12500000000E+03 0.  0.
         25    1    1    2    0    0  0.20318541530E+02  0.21789489013E+03 -0.11201473040E+04  0.11481489489E+04  0.12500000000E+03 0.  0.
</event>
<event>
 5    0  0.5728184E-005  0.3178504E+03  0.7546771E-02  0.1076643E+00
         21   -1    0    0  502  501  0.00000000000E+00  0.00000000000E+00  0.14183056229E+04  0.14183056229E+04  0.00000000000E+00 0.  1.
         21   -1    0    0  501  502 -0.00000000000E+00 -0.00000000000E+00 -0.71232101195E+02  0.71232101195E+02  0.00000000000E+00 0.  1.
         25    1    1    2    0    0  0.23608575745E+03 -0.65947186281E+02  0.51660971598E+03  0.58531710628E+03  0.12500000000E+03 0.  0.
         25    1    1    2    0    0 -0.14485452520E+03  0.15544244031E+02  0.39082898846E+03  0.43542709518E+03  0.12500000000E+03 0.  0.
         25    1    1    2    0    0 -0.91231232258E+02  0.50402942250E+02  0.43963481729E+03  0.46879352267E+03  0.12500000000E+03 0.  0.
</event>
<event>
 5    0  0.5728184E-005  0.2663387E+03  0.7546771E-02  0.1103394E+00
         21   -1    0    0  502  501  0.00000000000E+00  0.00000000000E+00  0.17381981811E+03  0.17381981811E+03  0.00000000000E+00 0.  1.
         21   -1    0    0  501  502 -0.00000000000E+00 -0.00000000000E+00 -0.40810252811E+03  0.40810252811E+03  0.00000000000E+00 0.  1.
         25    1    1    2    0    0  0.14666339407E+03  0.34805968991E+02 -0.28259676277E+02  0.19785149972E+03  0.12500000000E+03 0.  0.
         25    1    1    2    0    0 -0.10531391128E+03 -0.10306966172E+02 -0.18736932269E+03  0.24885641753E+03  0.12500000000E+03 0.  0.
         25    1    1    2    0    0 -0.41349482787E+02 -0.24499002819E+02 -0.18653711030E+02  0.13521442897E+03  0.12500000000E+03 0.  0.
</event>
<event>
 5    0  0.5728184E-005  0.4150992E+03  0.7546771E-02  0.1038673E+00
         21   -1    0    0  502  501  0.00000000000E+00  0.00000000000E+00  0.24816892694E+04  0.24816892694E+04  0.00000000000E+00 0. -1.
         21   -1    0    0  501  502 -0.00000000000E+00 -0.00000000000E+00 -0.69431469534E+02  0.69431469534E+02  0.00000000000E+00 0. -1.
         25    1    1    2    0    0 -0.17969922705E+03  0.17069813767E+03  0.13874968682E+04  0.14149919525E+04  0.12500000000E+03 0.  0.
         25    1    1    2    0    0  0.18709622478E+03 -0.21866779520E+03  0.46797621547E+03  0.56342465355E+03  0.12500000000E+03 0.  0.
         25    1    1    2    0    0 -0.73969977281E+01  0.47969657533E+02  0.55678471625E+03  0.57270413293E+03  0.12500000000E+03 0.  0.
</event>
<event>
 5    0  0.5728184E-005  0.2563887E+03  0.7546771E-02  0.1109333E+00
         21   -1    0    0  502  501  0.00000000000E+00  0.00000000000E+00  0.85394668732E+03  0.85394668732E+03  0.00000000000E+00 0. -1.
         21   -1    0    0  501  502 -0.00000000000E+00 -0.00000000000E+00 -0.76978060436E+02  0.76978060436E+02  0.00000000000E+00 0. -1.
         25    1    1    2    0    0  0.62717533216E+02  0.40102992856E+02  0.61573789949E+02  0.15798123502E+03  0.12500000000E+03 0.  0.
         25    1    1    2    0    0 -0.70297990135E+02 -0.75804451206E+02  0.41202991173E+03  0.44281121305E+03  0.12500000000E+03 0.  0.
         25    1    1    2    0    0  0.75804569181E+01  0.35701458350E+02  0.30336492520E+03  0.33013229969E+03  0.12500000000E+03 0.  0.
</event>
<event>
 5    0  0.5728184E-005  0.3971402E+03  0.7546771E-02  0.1044774E+00
         21   -1    0    0  502  501  0.00000000000E+00  0.00000000000E+00  0.69563479631E+02  0.69563479631E+02  0.00000000000E+00 0. -1.
         21   -1    0    0  501  502 -0.00000000000E+00 -0.00000000000E+00 -0.22672869809E+04  0.22672869809E+04  0.00000000000E+00 0. -1.
         25    1    1    2    0    0  0.29050119772E+03 -0.16652819818E+03 -0.99094524421E+03  0.10534325150E+04  0.12500000000E+03 0.  0.
         25    1    1    2    0    0 -0.95602677015E+02  0.10741847132E+03 -0.42104331966E+03  0.46214832777E+03  0.12500000000E+03 0.  0.
         25    1    1    2    0    0 -0.19489852071E+03  0.59109726858E+02 -0.78573493742E+03  0.82126961777E+03  0.12500000000E+03 0.  0.
</event>
<event>
 5    0  0.5728184E-005  0.3144265E+03  0.7546771E-02  0.1078243E+00
         21   -1    0    0  502  501  0.00000000000E+00  0.00000000000E+00  0.16658040625E+03  0.16658040625E+03  0.00000000000E+00 0. -1.
         21   -1    0    0  501  502 -0.00000000000E+00 -0.00000000000E+00 -0.59349125850E+03  0.59349125850E+03  0.00000000000E+00 0. -1.
         25    1    1    2    0    0  0.17769889716E+03  0.68107794848E+02 -0.87763074594E+02  0.24401419433E+03  0.12500000000E+03 0.  0.
         25    1    1    2    0    0 -0.12048281381E+03 -0.14860451523E+03 -0.21902779273E+03  0.31654002016E+03  0.12500000000E+03 0.  0.
         25    1    1    2    0    0 -0.57216083351E+02  0.80496720383E+02 -0.12011998492E+03  0.19951745028E+03  0.12500000000E+03 0.  0.
</event>
<event>
 5    0  0.5991571E-005  0.3378634E+03  0.7546771E-02  0.1067710E+00
         21   -1    0    0  502  501  0.00000000000E+00  0.00000000000E+00  0.34608370777E+03  0.34608370777E+03  0.00000000000E+00 0.  1.
         21   -1    0    0  501  502 -0.00000000000E+00 -0.00000000000E+00 -0.32983831230E+03  0.32983831230E+03  0.00000000000E+00 0.  1.
         25    1    1    2    0    0  0.81242817872E+02  0.11614336913E+03  0.70848705134E+01  0.18911603062E+03  0.12500000000E+03 0.  0.
         25    1    1    2    0    0  0.10124107432E+03  0.44557222047E+01 -0.12278598748E+03  0.20241296231E+03  0.12500000000E+03 0.  0.
         25    1    1    2    0    0 -0.18248389220E+03 -0.12059909133E+03  0.13194651243E+03  0.28439302714E+03  0.12500000000E+03 0.  0.
</event>
<event>
 5    0  0.5728184E-005  0.2759907E+03  0.7546771E-02  0.1097899E+00
         21   -1    0    0  502  501  0.00000000000E+00  0.00000000000E+00  0.58023295714E+02  0.58023295714E+02  0.00000000000E+00 0. -1.
         21   -1    0    0  501  502 -0.00000000000E+00 -0.00000000000E+00 -0.13127631130E+04  0.13127631130E+04  0.00000000000E+00 0. -1.
         25    1    1    2    0    0  0.77587026670E+02 -0.14554067900E+03 -0.70120488734E+03  0.73110541646E+03  0.12500000000E+03 0.  0.
         25    1    1    2    0    0 -0.83936600714E+02  0.11286288905E+03 -0.28355845070E+03  0.34031423660E+03  0.12500000000E+03 0.  0.
         25    1    1    2    0    0  0.63495740437E+01  0.32677789946E+02 -0.26997647923E+03  0.29936675564E+03  0.12500000000E+03 0.  0.
</event>
<event>
 5    0  0.5728184E-005  0.4081387E+03  0.7546771E-02  0.1040997E+00
         21   -1    0    0  502  501  0.00000000000E+00  0.00000000000E+00  0.11386898299E+03  0.11386898299E+03  0.00000000000E+00 0. -1.
         21   -1    0    0  501  502 -0.00000000000E+00 -0.00000000000E+00 -0.14628845722E+04  0.14628845722E+04  0.00000000000E+00 0. -1.
         25    1    1    2    0    0 -0.29373566184E+02  0.45255906383E+02 -0.73177405534E+03  0.74433135869E+03  0.12500000000E+03 0.  0.
         25    1    1    2    0    0  0.58979042337E+02 -0.12099911303E+03  0.13595395460E+02  0.18419866332E+03  0.12500000000E+03 0.  0.
         25    1    1    2    0    0 -0.29605476153E+02  0.75743206649E+02 -0.63083692931E+03  0.64822353316E+03  0.12500000000E+03 0.  0.
</event>
<event>
 5    0  0.5728184E-005  0.5167278E+03  0.7546771E-02  0.1009503E+00
         21   -1    0    0  502  501  0.00000000000E+00  0.00000000000E+00  0.54249904131E+03  0.54249904131E+03  0.00000000000E+00 0. -1.
         21   -1    0    0  501  502 -0.00000000000E+00 -0.00000000000E+00 -0.49218079307E+03  0.49218079307E+03  0.00000000000E+00 0. -1.
         25    1    1    2    0    0  0.21314562746E+03  0.10999338575E+03 -0.76527672068E+02  0.28108911044E+03  0.12500000000E+03 0.  0.
         25    1    1    2    0    0 -0.19949228096E+02  0.12389826801E+03  0.32511152625E+03  0.37023135607E+03  0.12500000000E+03 0.  0.
         25    1    1    2    0    0 -0.19319639937E+03 -0.23389165376E+03 -0.19826560595E+03  0.38335936786E+03  0.12500000000E+03 0.  0.
</event>
<event>
 5    0  0.5728184E-005  0.3648845E+03  0.7546771E-02  0.1056666E+00
         21   -1    0    0  502  501  0.00000000000E+00  0.00000000000E+00  0.24779875000E+03  0.24779875000E+03  0.00000000000E+00 0.  1.
         21   -1    0    0  501  502 -0.00000000000E+00 -0.00000000000E+00 -0.53729362896E+03  0.53729362896E+03  0.00000000000E+00 0.  1.
         25    1    1    2    0    0  0.55111874329E+02  0.38109277611E+02 -0.13033811874E+03  0.19262051014E+03  0.12500000000E+03 0.  0.
         25    1    1    2    0    0  0.21038798582E+03 -0.87521483336E+02 -0.11216510789E+02  0.26014212411E+03  0.12500000000E+03 0.  0.
         25    1    1    2    0    0 -0.26549986015E+03  0.49412205725E+02 -0.14794024943E+03  0.33232974471E+03  0.12500000000E+03 0.  0.
</event>
<event>
 5    0  0.6415279E-005  0.3047455E+03  0.7546771E-02  0.1082892E+00
         21   -1    0    0  502  501  0.00000000000E+00  0.00000000000E+00  0.16864270751E+03  0.16864270751E+03  0.00000000000E+00 0. -1.
         21   -1    0    0  501  502 -0.00000000000E+00 -0.00000000000E+00 -0.55068987513E+03  0.55068987513E+03  0.00000000000E+00 0. -1.
         25    1    1    2    0    0 -0.65232088357E+02  0.10169424165E+03 -0.94925884741E+02  0.19807288489E+03  0.12500000000E+03 0.  0.
         25    1    1    2    0    0  0.71597394502E+02  0.90435107254E+02 -0.23235285331E+02  0.17166704404E+03  0.12500000000E+03 0.  0.
         25    1    1    2    0    0 -0.63653061446E+01 -0.19212934890E+03 -0.26388599755E+03  0.34959265372E+03  0.12500000000E+03 0.  0.
</event>
<event>
 5    0  0.5728184E-005  0.6441042E+03  0.7546771E-02  0.9817906E-01
         21   -1    0    0  502  501  0.00000000000E+00  0.00000000000E+00  0.36751290192E+03  0.36751290192E+03  0.00000000000E+00 0. -1.
         21   -1    0    0  501  502 -0.00000000000E+00 -0.00000000000E+00 -0.11288588722E+04  0.11288588722E+04  0.00000000000E+00 0. -1.
         25    1    1    2    0    0 -0.23671021217E+03  0.31981746478E+03 -0.85020255208E+03  0.94698696659E+03  0.12500000000E+03 0.  0.
         25    1    1    2    0    0  0.16649920980E+03 -0.39138979896E+02  0.99459124752E+02  0.23403197240E+03  0.12500000000E+03 0.  0.
         25    1    1    2    0    0  0.70211002375E+02 -0.28067848488E+03 -0.10602542993E+02  0.31535283517E+03  0.12500000000E+03 0.  0.
</event>
<event>
 5    0  0.5728184E-005  0.2997000E+03  0.7546771E-02  0.1085391E+00
         21   -1    0    0  502  501  0.00000000000E+00  0.00000000000E+00  0.52873153814E+03  0.52873153814E+03  0.00000000000E+00 0.  1.
         21   -1    0    0  501  502 -0.00000000000E+00 -0.00000000000E+00 -0.16987840656E+03  0.16987840656E+03  0.00000000000E+00 0.  1.
         25    1    1    2    0    0 -0.63822726980E+02 -0.10225799964E+02  0.30012970665E+03  0.33148265155E+03  0.12500000000E+03 0.  0.
         25    1    1    2    0    0  0.45385676112E+02  0.67788557518E+02  0.14133572285E+03  0.20556248364E+03  0.12500000000E+03 0.  0.
         25    1    1    2    0    0  0.18437050868E+02 -0.57562757554E+02 -0.82612297919E+02  0.16156480950E+03  0.12500000000E+03 0.  0.
</event>
<event>
 5    0  0.5728184E-005  0.2258707E+03  0.7546771E-02  0.1129580E+00
         21   -1    0    0  502  501  0.00000000000E+00  0.00000000000E+00  0.20264165937E+03  0.20264165937E+03  0.00000000000E+00 0. -1.
         21   -1    0    0  501  502 -0.00000000000E+00 -0.00000000000E+00 -0.25176254745E+03  0.25176254745E+03  0.00000000000E+00 0. -1.
         25    1    1    2    0    0  0.40901948679E+01  0.15276897461E+02 -0.39768636746E+02  0.13212364572E+03  0.12500000000E+03 0.  0.
         25    1    1    2    0    0 -0.84337628220E+02  0.82518675034E+01  0.52192846120E+02  0.15978116922E+03  0.12500000000E+03 0.  0.
         25    1    1    2    0    0  0.80247433353E+02 -0.23528764965E+02 -0.61545097461E+02  0.16249939188E+03  0.12500000000E+03 0.  0.
</event>
<event>
 5    0  0.5728184E-005  0.2480863E+03  0.7546771E-02  0.1114520E+00
         21   -1    0    0  502  501  0.00000000000E+00  0.00000000000E+00  0.48060025093E+03  0.48060025093E+03  0.00000000000E+00 0. -1.
         21   -1    0    0  501  502 -0.00000000000E+00 -0.00000000000E+00 -0.12806235038E+03  0.12806235038E+03  0.00000000000E+00 0. -1.
         25    1    1    2    0    0  0.40255914007E+02 -0.73455349345E+02  0.17179152772E+03  0.22837153053E+03  0.12500000000E+03 0.  0.
         25    1    1    2    0    0  0.31720966808E+02  0.10866918096E+03  0.15606673193E+03  0.22977605497E+03  0.12500000000E+03 0.  0.
         25    1    1    2    0    0 -0.71976880815E+02 -0.35213831612E+02  0.24679640903E+02  0.15051501581E+03  0.12500000000E+03 0.  0.
</event>
<event>
 5    0  0.5728184E-005  0.2792842E+03  0.7546771E-02  0.1096081E+00
         21   -1    0    0  502  501  0.00000000000E+00  0.00000000000E+00  0.13503468692E+04  0.13503468692E+04  0.00000000000E+00 0. -1.
         21   -1    0    0  501  502 -0.00000000000E+00 -0.00000000000E+00 -0.57762679680E+02  0.57762679680E+02  0.00000000000E+00 0. -1.
         25    1    1    2    0    0  0.92116812741E+02  0.31924257635E+02  0.16394169845E+03  0.22804943742E+03  0.12500000000E+03 0.  0.
         25    1    1    2    0    0 -0.14134579789E+03 -0.74973197456E+02  0.63675242009E+03  0.66833992804E+03  0.12500000000E+03 0.  0.
         25    1    1    2    0    0  0.49228985147E+02  0.43048939820E+02  0.49189007098E+03  0.51172018343E+03  0.12500000000E+03 0.  0.
</event>
<event>
 5    0  0.5728184E-005  0.3115973E+03  0.7546771E-02  0.1079583E+00
         21   -1    0    0  502  501  0.00000000000E+00  0.00000000000E+00  0.22113011197E+03  0.22113011197E+03  0.00000000000E+00 0. -1.
         21   -1    0    0  501  502 -0.00000000000E+00 -0.00000000000E+00 -0.43907585381E+03  0.43907585381E+03  0.00000000000E+00 0. -1.
         25    1    1    2    0    0  0.63917744925E+02  0.10883968553E+03 -0.18479543760E+03  0.25633163874E+03  0.12500000000E+03 0.  0.
         25    1    1    2    0    0 -0.13120279903E+03  0.38456318160E+02 -0.66055810609E+02  0.19667595937E+03  0.12500000000E+03 0.  0.
         25    1    1    2    0    0  0.67285054109E+02 -0.14729600369E+03  0.32905506367E+02  0.20719836766E+03  0.12500000000E+03 0.  0.
</event>
<event>
 5    0  0.5728184E-005  0.3417122E+03  0.7546771E-02  0.1066069E+00
         21   -1    0    0  502  501  0.00000000000E+00  0.00000000000E+00  0.31517917712E+03  0.31517917712E+03  0.00000000000E+00 0.  1.
         21   -1    0    0  501  502 -0.00000000000E+00 -0.00000000000E+00 -0.37047891074E+03  0.37047891074E+03  0.00000000000E+00 0.  1.
         25    1    1    2    0    0 -0.66474521878E+02  0.66724876744E+02 -0.33120304416E+02  0.15997820414E+03  0.12500000000E+03 0.  0.
         25    1    1    2    0    0 -0.81936870311E+02 -0.74407510616E+02 -0.20127666480E+03  0.26150989301E+03  0.12500000000E+03 0.  0.
         25    1    1    2    0    0  0.14841139219E+03  0.76826338723E+01  0.17909723560E+03  0.26416999071E+03  0.12500000000E+03 0.  0.
</event>
<event>
 5    0  0.5862933E-005  0.3486230E+03  0.7546771E-02  0.1063182E+00
         21   -1    0    0  502  501  0.00000000000E+00  0.00000000000E+00  0.23025635097E+03  0.23025635097E+03  0.00000000000E+00 0.  1.
         21   -1    0    0  501  502 -0.00000000000E+00 -0.00000000000E+00 -0.52783763921E+03  0.52783763921E+03  0.00000000000E+00 0.  1.
         25    1    1    2    0    0 -0.66856062830E+02  0.11873434242E+01  0.57933946611E+02  0.15314204221E+03  0.12500000000E+03 0.  0.
         25    1    1    2    0    0  0.36791422351E+02 -0.18784955626E+03 -0.67351613956E+02  0.23833234033E+03  0.12500000000E+03 0.  0.
         25    1    1    2    0    0  0.30064640480E+02  0.18666221283E+03 -0.28816362089E+03  0.36661960764E+03  0.12500000000E+03 0.  0.
</event>
<event>
 5    0  0.5728184E-005  0.3848290E+03  0.7546771E-02  0.1049163E+00
         21   -1    0    0  502  501  0.00000000000E+00  0.00000000000E+00  0.18941606007E+03  0.18941606007E+03  0.00000000000E+00 0. -1.
         21   -1    0    0  501  502 -0.00000000000E+00 -0.00000000000E+00 -0.78184153812E+03  0.78184153812E+03  0.00000000000E+00 0. -1.
         25    1    1    2    0    0  0.13390452458E+02 -0.89695528025E+01 -0.13851906285E+03  0.18727596714E+03  0.12500000000E+03 0.  0.
         25    1    1    2    0    0  0.25777215882E+03  0.11071396335E+03 -0.13522917970E+03  0.33558307255E+03  0.12500000000E+03 0.  0.
         25    1    1    2    0    0 -0.27116261128E+03 -0.10174441055E+03 -0.31867723550E+03  0.44839855849E+03  0.12500000000E+03 0.  0.
</event>
<event>
 5    0  0.5728184E-005  0.5603584E+03  0.7546771E-02  0.9991244E-01
         21   -1    0    0  502  501  0.00000000000E+00  0.00000000000E+00  0.33765567875E+03  0.33765567875E+03  0.00000000000E+00 0.  1.
         21   -1    0    0  501  502 -0.00000000000E+00 -0.00000000000E+00 -0.92994611599E+03  0.92994611599E+03  0.00000000000E+00 0.  1.
         25    1    1    2    0    0 -0.20141961949E+02  0.16496255239E+03  0.28406629571E+02  0.20988158310E+03  0.12500000000E+03 0.  0.
         25    1    1    2    0    0 -0.20769781001E+03 -0.22255558581E+03 -0.70540079807E+03  0.77838592933E+03  0.12500000000E+03 0.  0.
         25    1    1    2    0    0  0.22783977196E+03  0.57593033425E+02  0.84703731255E+02  0.27933428231E+03  0.12500000000E+03 0.  0.
</event>
<event>
 5    0  0.5728184E-005  0.3434597E+03  0.7546771E-02  0.1065332E+00
         21   -1    0    0  502  501  0.00000000000E+00  0.00000000000E+00  0.33987453091E+03  0.33987453091E+03  0.00000000000E+00 0.  1.
         21   -1    0    0  501  502 -0.00000000000E+00 -0.00000000000E+00 -0.34708264727E+03  0.34708264727E+03  0.00000000000E+00 0.  1.
         25    1    1    2    0    0  0.22248785870E+03 -0.59647270942E+02 -0.14696793134E+03  0.30047165764E+03  0.12500000000E+03 0.  0.
         25    1    1    2    0    0 -0.14382707315E+03  0.70245705034E+02  0.37468176831E+02  0.20651767557E+03  0.12500000000E+03 0.  0.
         25    1    1    2    0    0 -0.78660785555E+02 -0.10598434092E+02  0.10229163815E+03  0.17996784497E+03  0.12500000000E+03 0.  0.
</event>
<event>
 5    0  0.5728184E-005  0.3492431E+03  0.7546771E-02  0.1062926E+00
         21   -1    0    0  502  501  0.00000000000E+00  0.00000000000E+00  0.14904530559E+03  0.14904530559E+03  0.00000000000E+00 0. -1.
         21   -1    0    0  501  502 -0.00000000000E+00 -0.00000000000E+00 -0.81834691641E+03  0.81834691641E+03  0.00000000000E+00 0. -1.
         25    1    1    2    0    0  0.15848751540E+03  0.10977920855E+03 -0.40784907605E+03  0.46811925404E+03  0.12500000000E+03 0.  0.
         25    1    1    2    0    0 -0.97135069941E+02  0.47535207404E+02 -0.23531714981E+03  0.28756560773E+03  0.12500000000E+03 0.  0.
         25    1    1    2    0    0 -0.61352445463E+02 -0.15731441595E+03 -0.26135384959E+02  0.21170736023E+03  0.12500000000E+03 0.  0.
</event>
<event>
 5    0  0.5728184E-005  0.3713686E+03  0.7546771E-02  0.1054171E+00
         21   -1    0    0  502  501  0.00000000000E+00  0.00000000000E+00  0.26335470892E+03  0.26335470892E+03  0.00000000000E+00 0.  1.
         21   -1    0    0  501  502 -0.00000000000E+00 -0.00000000000E+00 -0.52368404939E+03  0.52368404939E+03  0.00000000000E+00 0.  1.
         25    1    1    2    0    0 -0.17113942057E+02 -0.13846567952E+03  0.96015418700E+02  0.21049843716E+03  0.12500000000E+03 0.  0.
         25    1    1    2    0    0  0.13858848356E+03  0.18559875787E+03 -0.26758985736E+03  0.37534384031E+03  0.12500000000E+03 0.  0.
         25    1    1    2    0    0 -0.12147454150E+03 -0.47133078353E+02 -0.88754901813E+02  0.20119648085E+03  0.12500000000E+03 0.  0.
</event>
<event>
 5    0  0.5728184E-005  0.4639132E+03  0.7546771E-02  0.1023652E+00
         21   -1    0    0  502  501  0.00000000000E+00  0.00000000000E+00  0.72676902355E+03  0.72676902355E+03  0.00000000000E+00 0. -1.
         21   -1    0    0  501  502 -0.00000000000E+00 -0.00000000000E+00 -0.29612640669E+03  0.29612640669E+03  0.00000000000E+00 0. -1.
         25    1    1    2    0    0  0.31979216103E+03 -0.18332515319E+03  0.18933292726E+03  0.43283610685E+03  0.12500000000E+03 0.  0.
         25    1    1    2    0    0 -0.31198747467E+03  0.22666055673E+03  0.17026365677E+03  0.43968841825E+03  0.12500000000E+03 0.  0.
         25    1    1    2    0    0 -0.78046863586E+01 -0.43335403542E+02  0.71046032833E+02  0.15037090513E+03  0.12500000000E+03 0.  0.
</event>
<event>
 5    0  0.5728184E-005  0.2288207E+03  0.7546771E-02  0.1127473E+00
         21   -1    0    0  502  501  0.00000000000E+00  0.00000000000E+00  0.23187115325E+03  0.23187115325E+03  0.00000000000E+00 0. -1.
         21   -1    0    0  501  502 -0.00000000000E+00 -0.00000000000E+00 -0.22581032084E+03  0.22581032084E+03  0.00000000000E+00 0. -1.
         25    1    1    2    0    0 -0.16271194797E+02  0.72591196220E+02  0.50372185195E+02  0.15393696954E+03  0.12500000000E+03 0.  0.
         25    1    1    2    0    0 -0.18064047789E+02 -0.27327132343E+02 -0.91743887869E+02  0.15847720008E+03  0.12500000000E+03 0.  0.
         25    1    1    2    0    0  0.34335242586E+02 -0.45264063877E+02  0.47432535085E+02  0.14526730447E+03  0.12500000000E+03 0.  0.
</event>
<event>
 5    0  0.5728184E-005  0.2529974E+03  0.7546771E-02  0.1111425E+00
         21   -1    0    0  502  501  0.00000000000E+00  0.00000000000E+00  0.12586780108E+04  0.12586780108E+04  0.00000000000E+00 0. -1.
         21   -1    0    0  501  502 -0.00000000000E+00 -0.00000000000E+00 -0.50853116826E+02  0.50853116826E+02  0.00000000000E+00 0. -1.
         25    1    1    2    0    0  0.30330961178E+01  0.10238165965E+03  0.62704519553E+03  0.64753523545E+03  0.12500000000E+03 0.  0.
         25    1    1    2    0    0  0.49036660157E+02 -0.90735309630E+00  0.35717381038E+03  0.38158032988E+03  0.12500000000E+03 0.  0.
         25    1    1    2    0    0 -0.52069756275E+02 -0.10147430655E+03  0.22360588810E+03  0.28041556234E+03  0.12500000000E+03 0.  0.
</event>
<event>
 5    0  0.5728184E-005  0.4049684E+03  0.7546771E-02  0.1042073E+00
         21   -1    0    0  502  501  0.00000000000E+00  0.00000000000E+00  0.11926149633E+04  0.11926149633E+04  0.00000000000E+00 0.  1.
         21   -1    0    0  501  502 -0.00000000000E+00 -0.00000000000E+00 -0.13751244224E+03  0.13751244224E+03  0.00000000000E+00 0.  1.
         25    1    1    2    0    0  0.20063065567E+03 -0.13151763033E+03  0.33516284991E+03  0.43070718945E+03  0.12500000000E+03 0.  0.
         25    1    1    2    0    0 -0.29792335457E+03  0.25892208602E+02  0.31507454033E+03  0.45202400116E+03  0.12500000000E+03 0.  0.
         25    1    1    2    0    0  0.97292698898E+02  0.10562542173E+03  0.40486513079E+03  0.44739621490E+03  0.12500000000E+03 0.  0.
</event>
<event>
 5    0  0.5728184E-005  0.5197781E+03  0.7546771E-02  0.1008742E+00
         21   -1    0    0  502  501  0.00000000000E+00  0.00000000000E+00  0.27300820298E+03  0.27300820298E+03  0.00000000000E+00 0.  1.
         21   -1    0    0  501  502 -0.00000000000E+00 -0.00000000000E+00 -0.98960136741E+03  0.98960136741E+03  0.00000000000E+00 0.  1.
         25    1    1    2    0    0  0.20982379939E+03  0.11974451378E+03 -0.74497076483E+02  0.28202764010E+03  0.12500000000E+03 0.  0.
         25    1    1    2    0    0  0.18350521649E+03 -0.20152814106E+03 -0.38317934869E+03  0.48655849533E+03  0.12500000000E+03 0.  0.
         25    1    1    2    0    0 -0.39332901588E+03  0.81783627276E+02 -0.25891673926E+03  0.49402343497E+03  0.12500000000E+03 0.  0.
</event>
<event>
 5    0  0.5728184E-005  0.2998344E+03  0.7546771E-02  0.1085323E+00
         21   -1    0    0  502  501  0.00000000000E+00  0.00000000000E+00  0.16694061292E+04  0.16694061292E+04  0.00000000000E+00 0. -1.
         21   -1    0    0  501  502 -0.00000000000E+00 -0.00000000000E+00 -0.53851868076E+02  0.53851868076E+02  0.00000000000E+00 0. -1.
         25    1    1    2    0    0  0.52145171656E+02 -0.25743808146E+02  0.33891786441E+03  0.36588547580E+03  0.12500000000E+03 0.  0.
         25    1    1    2    0    0  0.10247084334E+03 -0.64088160994E+01  0.17838565269E+03  0.24080653593E+03  0.12500000000E+03 0.  0.
         25    1    1    2    0    0 -0.15461601500E+03  0.32152624246E+02  0.10982507441E+04  0.11165659856E+04  0.12500000000E+03 0.  0.
</event>
<event>
 5    0  0.7059442E-005  0.2775402E+03  0.7546771E-02  0.1097040E+00
         21   -1    0    0  502  501  0.00000000000E+00  0.00000000000E+00  0.42851435790E+03  0.42851435790E+03  0.00000000000E+00 0.  1.
         21   -1    0    0  501  502 -0.00000000000E+00 -0.00000000000E+00 -0.17975729663E+03  0.17975729663E+03  0.00000000000E+00 0.  1.
         25    1    1    2    0    0  0.15924856003E+02  0.27008205565E+02  0.19759482505E+03  0.23590625064E+03  0.12500000000E+03 0.  0.
         25    1    1    2    0    0 -0.98750056889E+02 -0.25923278183E+02  0.12601792781E+03  0.20476598403E+03  0.12500000000E+03 0.  0.
         25    1    1    2    0    0  0.82825200886E+02 -0.10849273814E+01 -0.74855691591E+02  0.16759941985E+03  0.12500000000E+03 0.  0.
</event>
<event>
 5    0  0.5728184E-005  0.2701332E+03  0.7546771E-02  0.1101203E+00
         21   -1    0    0  502  501  0.00000000000E+00  0.00000000000E+00  0.39227776036E+02  0.39227776036E+02  0.00000000000E+00 0. -1.
         21   -1    0    0  501  502 -0.00000000000E+00 -0.00000000000E+00 -0.18602116831E+04  0.18602116831E+04  0.00000000000E+00 0. -1.
         25    1    1    2    0    0  0.10861192342E+03 -0.11200263112E+03 -0.10110458657E+04  0.10306211145E+04  0.12500000000E+03 0.  0.
         25    1    1    2    0    0 -0.10141263533E+03  0.36431484385E+02 -0.36803322018E+03  0.40334256757E+03  0.12500000000E+03 0.  0.
         25    1    1    2    0    0 -0.71992880953E+01  0.75571146739E+02 -0.44190482126E+03  0.46547577706E+03  0.12500000000E+03 0.  0.
</event>
<event>
 5    0  0.5728184E-005  0.4030103E+03  0.7546771E-02  0.1042742E+00
         21   -1    0    0  502  501  0.00000000000E+00  0.00000000000E+00  0.18817000127E+03  0.18817000127E+03  0.00000000000E+00 0.  1.
         21   -1    0    0  501  502 -0.00000000000E+00 -0.00000000000E+00 -0.86314149080E+03  0.86314149080E+03  0.00000000000E+00 0.  1.
         25    1    1    2    0    0  0.33503763682E+02 -0.41874320194E+02 -0.29764696239E+03  0.32725322778E+03  0.12500000000E+03 0.  0.
         25    1    1    2    0    0  0.22806761937E+03  0.31160241450E+02 -0.34352196086E+03  0.43199321435E+03  0.12500000000E+03 0.  0.
         25    1    1    2    0    0 -0.26157138305E+03  0.10714078744E+02 -0.33802566278E+02  0.29206504995E+03  0.12500000000E+03 0.  0.
</event>
<event>
 5    0  0.5728184E-005  0.2700884E+03  0.7546771E-02  0.1101229E+00
         21   -1    0    0  502  501  0.00000000000E+00  0.00000000000E+00  0.15332919190E+03  0.15332919190E+03  0.00000000000E+00 0. -1.
         21   -1    0    0  501  502 -0.00000000000E+00 -0.00000000000E+00 -0.47575911431E+03  0.47575911431E+03  0.00000000000E+00 0. -1.
         25    1    1    2    0    0  0.12192666921E+03  0.80610647899E+02 -0.14650513892E+03  0.24177043853E+03  0.12500000000E+03 0.  0.
         25    1    1    2    0    0 -0.84202399653E+02 -0.12940342731E+03 -0.14106246947E+03  0.24363684327E+03  0.12500000000E+03 0.  0.
         25    1    1    2    0    0 -0.37724269554E+02  0.48792779415E+02 -0.34862314019E+02  0.14368102441E+03  0.12500000000E+03 0.  0.
</event>
<event>
 5    0  0.5728184E-005  0.2377625E+03  0.7546771E-02  0.1121292E+00
         21   -1    0    0  502  501  0.00000000000E+00  0.00000000000E+00  0.31780788554E+03  0.31780788554E+03  0.00000000000E+00 0.  1.
         21   -1    0    0  501  502 -0.00000000000E+00 -0.00000000000E+00 -0.17787786562E+03  0.17787786562E+03  0.00000000000E+00 0.  1.
         25    1    1    2    0    0  0.53992351547E+02  0.49551432817E+02 -0.13757401508E+02  0.14554993856E+03  0.12500000000E+03 0.  0.
         25    1    1    2    0    0 -0.89572675852E+02 -0.12624865069E+02  0.12633422235E+02  0.15481361321E+03  0.12500000000E+03 0.  0.
         25    1    1    2    0    0  0.35580324305E+02 -0.36926567748E+02  0.14105399920E+03  0.19532219938E+03  0.12500000000E+03 0.  0.
</event>
<event>
 5    0  0.5728184E-005  0.2456535E+03  0.7546771E-02  0.1116083E+00
         21   -1    0    0  502  501  0.00000000000E+00  0.00000000000E+00  0.47732239358E+03  0.47732239358E+03  0.00000000000E+00 0.  1.
         21   -1    0    0  501  502 -0.00000000000E+00 -0.00000000000E+00 -0.12642535164E+03  0.12642535164E+03  0.00000000000E+00 0.  1.
         25    1    1    2    0    0 -0.89791096561E+02  0.14925755096E+02  0.79512982295E+02  0.17387505152E+03  0.12500000000E+03 0.  0.
         25    1    1    2    0    0 -0.45587643359E+02  0.43646214508E+02  0.11474125823E+03  0.18103530486E+03  0.12500000000E+03 0.  0.
         25    1    1    2    0    0  0.13537873992E+03 -0.58571969604E+02  0.15664280143E+03  0.24883738884E+03  0.12500000000E+03 0.  0.
</event>
<event>
 5    0  0.5728184E-005  0.6319183E+03  0.7546771E-02  0.9841312E-01
         21   -1    0    0  502  501  0.00000000000E+00  0.00000000000E+00  0.60263463501E+03  0.60263463501E+03  0.00000000000E+00 0.  1.
         21   -1    0    0  501  502 -0.00000000000E+00 -0.00000000000E+00 -0.66262503790E+03  0.66262503790E+03  0.00000000000E+00 0.  1.
         25    1    1    2    0    0 -0.44849294508E+01  0.14042784219E+03 -0.59633894588E+03  0.62528811905E+03  0.12500000000E+03 0.  0.
         25    1    1    2    0    0  0.80621681685E+02 -0.13268103854E+03  0.26529638374E+03  0.33183020473E+03  0.12500000000E+03 0.  0.
         25    1    1    2    0    0 -0.76136752234E+02 -0.77468036499E+01  0.27105215925E+03  0.30814134913E+03  0.12500000000E+03 0.  0.
</event>
<event>
 5    0  0.5728184E-005  0.3401536E+03  0.7546771E-02  0.1066731E+00
         21   -1    0    0  502  501  0.00000000000E+00  0.00000000000E+00  0.48443744519E+03  0.48443744519E+03  0.00000000000E+00 0.  1.
         21   -1    0    0  501  502 -0.00000000000E+00 -0.00000000000E+00 -0.23884290823E+03  0.23884290823E+03  0.00000000000E+00 0.  1.
         25    1    1    2    0    0  0.24461682936E+02  0.19488864999E+01  0.70705849254E+02  0.14569313371E+03  0.12500000000E+03 0.  0.
         25    1    1    2    0    0 -0.10898326914E+03 -0.83242235583E+02 -0.13086984569E+03  0.22706505510E+03  0.12500000000E+03 0.  0.
         25    1    1    2    0    0  0.84521586203E+02  0.81293349083E+02  0.30575853340E+03  0.35052216461E+03  0.12500000000E+03 0.  0.
</event>
<event>
 5    0  0.5728184E-005  0.4426557E+03  0.7546771E-02  0.1029935E+00
         21   -1    0    0  502  501  0.00000000000E+00  0.00000000000E+00  0.10986940527E+04  0.10986940527E+04  0.00000000000E+00 0. -1.
         21   -1    0    0  501  502 -0.00000000000E+00 -0.00000000000E+00 -0.17834273923E+03  0.17834273923E+03  0.00000000000E+00 0. -1.
         25    1    1    2    0    0 -0.26302666082E+03  0.49680347815E+02  0.10912545571E+03  0.31493574955E+03  0.12500000000E+03 0.  0.
         25    1    1    2    0    0  0.29249474688E+03 -0.11489102376E+02  0.31388336520E+03  0.44702678149E+03  0.12500000000E+03 0.  0.
         25    1    1    2    0    0 -0.29468086053E+02 -0.38191245438E+02  0.49734249253E+03  0.51507426086E+03  0.12500000000E+03 0.  0.
</event>
<event>
 5    0  0.5728184E-005  0.2920810E+03  0.7546771E-02  0.1089268E+00
         21   -1    0    0  502  501  0.00000000000E+00  0.00000000000E+00  0.85599678213E+03  0.85599678213E+03  0.00000000000E+00 0. -1.
         21   -1    0    0  501  502 -0.00000000000E+00 -0.00000000000E+00 -0.99663154612E+02  0.99663154612E+02  0.00000000000E+00 0. -1.
         25    1    1    2    0    0  0.26298469579E+02  0.23362987166E+02  0.54548583790E+02  0.14084738785E+03  0.12500000000E+03 0.  0.
         25    1    1    2    0    0 -0.17680805438E+03 -0.62569524938E+01  0.39638502420E+03  0.45171487130E+03  0.12500000000E+03 0.  0.
         25    1    1    2    0    0  0.15050958480E+03 -0.17106034673E+02  0.30540001953E+03  0.36309767758E+03  0.12500000000E+03 0.  0.
</event>
<event>
 5    0  0.5728184E-005  0.3846264E+03  0.7546771E-02  0.1049237E+00
         21   -1    0    0  502  501  0.00000000000E+00  0.00000000000E+00  0.25222996590E+04  0.25222996590E+04  0.00000000000E+00 0. -1.
         21   -1    0    0  501  502 -0.00000000000E+00 -0.00000000000E+00 -0.58651825931E+02  0.58651825931E+02  0.00000000000E+00 0. -1.
         25    1    1    2    0    0  0.76049752071E+02  0.11696548457E+03  0.71132711593E+03  0.73557851738E+03  0.12500000000E+03 0.  0.
         25    1    1    2    0    0  0.41094028077E+02  0.18221302589E+03  0.85663531905E+03  0.88562936706E+03  0.12500000000E+03 0.  0.
         25    1    1    2    0    0 -0.11714378015E+03 -0.29917851046E+03  0.89568539810E+03  0.95974360051E+03  0.12500000000E+03 0.  0.
</event>
<event>
 5    0  0.5728184E-005  0.3879629E+03  0.7546771E-02  0.1048029E+00
         21   -1    0    0  502  501  0.00000000000E+00  0.00000000000E+00  0.96275869255E+03  0.96275869255E+03  0.00000000000E+00 0. -1.
         21   -1    0    0  501  502 -0.00000000000E+00 -0.00000000000E+00 -0.15633744206E+03  0.15633744206E+03  0.00000000000E+00 0. -1.
         25    1    1    2    0    0  0.12490307519E+03  0.18449918591E+03  0.31343468023E+03  0.40436002098E+03  0.12500000000E+03 0.  0.
         25    1    1    2    0    0 -0.14013702357E+03 -0.14780689080E+02  0.11271758568E+02  0.18870322384E+03  0.12500000000E+03 0.  0.
         25    1    1    2    0    0  0.15233948385E+02 -0.16971849683E+03  0.48171481169E+03  0.52603288980E+03  0.12500000000E+03 0.  0.
</event>
<event>
 5    0  0.5728184E-005  0.2617701E+03  0.7546771E-02  0.1106084E+00
         21   -1    0    0  502  501  0.00000000000E+00  0.00000000000E+00  0.27149903302E+03  0.27149903302E+03  0.00000000000E+00 0. -1.
         21   -1    0    0  501  502 -0.00000000000E+00 -0.00000000000E+00 -0.25238986699E+03  0.25238986699E+03  0.00000000000E+00 0. -1.
         25    1    1    2    0    0  0.39751333622E+02 -0.97099079818E+02  0.13180950559E+03  0.20977880158E+03  0.12500000000E+03 0.  0.
         25    1    1    2    0    0  0.19395819640E+02  0.12765238959E+02 -0.75684012002E+02  0.14796019336E+03  0.12500000000E+03 0.  0.
         25    1    1    2    0    0 -0.59147153262E+02  0.84333840859E+02 -0.37016327563E+02  0.16614990508E+03  0.12500000000E+03 0.  0.
</event>
<event>
 5    0  0.5728184E-005  0.3695509E+03  0.7546771E-02  0.1054865E+00
         21   -1    0    0  502  501  0.00000000000E+00  0.00000000000E+00  0.15773323945E+03  0.15773323945E+03  0.00000000000E+00 0. -1.
         21   -1    0    0  501  502 -0.00000000000E+00 -0.00000000000E+00 -0.86581534905E+03  0.86581534905E+03  0.00000000000E+00 0. -1.
         25    1    1    2    0    0 -0.10001721656E+03  0.28354393132E+03 -0.29689136255E+03  0.44064734852E+03  0.12500000000E+03 0.  0.
         25    1    1    2    0    0 -0.16738569859E+02 -0.10822755541E+03 -0.19494159038E+03  0.25616519501E+03  0.12500000000E+03 0.  0.
         25    1    1    2    0    0  0.11675578642E+03 -0.17531637591E+03 -0.21624915667E+03  0.32673604497E+03  0.12500000000E+03 0.  0.
</event>
<event>
 5    0  0.5728184E-005  0.3754899E+03  0.7546771E-02  0.1052613E+00
         21   -1    0    0  502  501  0.00000000000E+00  0.00000000000E+00  0.12351336935E+04  0.12351336935E+04  0.00000000000E+00 0. -1.
         21   -1    0    0  501  502 -0.00000000000E+00 -0.00000000000E+00 -0.11415175742E+03  0.11415175742E+03  0.00000000000E+00 0. -1.
         25    1    1    2    0    0 -0.10106965709E+03 -0.14263502244E+03  0.27470495307E+03  0.34878021224E+03  0.12500000000E+03 0.  0.
         25    1    1    2    0    0  0.26368794335E+03  0.13879573142E+03  0.58499870997E+03  0.66831435507E+03  0.12500000000E+03 0.  0.
         25    1    1    2    0    0 -0.16261828626E+03  0.38392910221E+01  0.26127827301E+03  0.33219088357E+03  0.12500000000E+03 0.  0.
</event>
<event>
 5    0  0.5728184E-005  0.3204354E+03  0.7546771E-02  0.1075449E+00
         21   -1    0    0  502  501  0.00000000000E+00  0.00000000000E+00  0.13718518970E+03  0.13718518970E+03  0.00000000000E+00 0. -1.
         21   -1    0    0  501  502 -0.00000000000E+00 -0.00000000000E+00 -0.74846890120E+03  0.74846890120E+03  0.00000000000E+00 0. -1.
         25    1    1    2    0    0  0.36256070361E+02 -0.56194487469E+02 -0.12058202167E+03  0.18611111469E+03  0.12500000000E+03 0.  0.
         25    1    1    2    0    0 -0.83648622991E+02  0.21681563045E+03 -0.16076071822E+03  0.30899048248E+03  0.12500000000E+03 0.  0.
         25    1    1    2    0    0  0.47392552630E+02 -0.16062114299E+03 -0.32994097161E+03  0.39055249374E+03  0.12500000000E+03 0.  0.
</event>
<event>
 5    0  0.9022364E-005  0.2907289E+03  0.7546771E-02  0.1089969E+00
         21   -1    0    0  502  501  0.00000000000E+00  0.00000000000E+00  0.98064829559E+02  0.98064829559E+02  0.00000000000E+00 0.  1.
         21   -1    0    0  501  502 -0.00000000000E+00 -0.00000000000E+00 -0.86191269291E+03  0.86191269291E+03  0.00000000000E+00 0.  1.
         25    1    1    2    0    0  0.82967319640E+02  0.27818244012E+02 -0.73787923275E+02  0.16949067364E+03  0.12500000000E+03 0.  0.
         25    1    1    2    0    0 -0.17292717528E+03 -0.69388399660E+02 -0.43943517141E+03  0.49340331153E+03  0.12500000000E+03 0.  0.
         25    1    1    2    0    0  0.89959855641E+02  0.41570155648E+02 -0.25062476866E+03  0.29708353730E+03  0.12500000000E+03 0.  0.
</event>
<event>
 5    0  0.5728184E-005  0.3029308E+03  0.7546771E-02  0.1083785E+00
         21   -1    0    0  502  501  0.00000000000E+00  0.00000000000E+00  0.43317087441E+03  0.43317087441E+03  0.00000000000E+00 0.  1.
         21   -1    0    0  501  502 -0.00000000000E+00 -0.00000000000E+00 -0.21184957854E+03  0.21184957854E+03  0.00000000000E+00 0.  1.
         25    1    1    2    0    0 -0.79166125716E+01 -0.22197501648E+03  0.50777036686E+02  0.25988245064E+03  0.12500000000E+03 0.  0.
         25    1    1    2    0    0  0.42334346136E+02  0.13320774850E+03  0.10477568601E+03  0.21480094391E+03  0.12500000000E+03 0.  0.
         25    1    1    2    0    0 -0.34417733565E+02  0.88767267975E+02  0.65768573169E+02  0.17033705840E+03  0.12500000000E+03 0.  0.
</event>
<event>
 5    0  0.5855681E-005  0.3654678E+03  0.7546771E-02  0.1056440E+00
         21   -1    0    0  502  501  0.00000000000E+00  0.00000000000E+00  0.35463874290E+03  0.35463874290E+03  0.00000000000E+00 0.  1.
         21   -1    0    0  501  502 -0.00000000000E+00 -0.00000000000E+00 -0.37662758296E+03  0.37662758296E+03  0.00000000000E+00 0.  1.
         25    1    1    2    0    0 -0.20809862313E+03  0.13579285579E+02 -0.73555242251E+02  0.25401733722E+03  0.12500000000E+03 0.  0.
         25    1    1    2    0    0  0.19330277743E+03 -0.70657167974E+02 -0.10991527758E+03  0.26469750167E+03  0.12500000000E+03 0.  0.
         25    1    1    2    0    0  0.14795845705E+02  0.57077882395E+02  0.16148167977E+03  0.21255148696E+03  0.12500000000E+03 0.  0.
</event>
<event>
 5    0  0.5728184E-005  0.3254789E+03  0.7546771E-02  0.1073155E+00
         21   -1    0    0  502  501  0.00000000000E+00  0.00000000000E+00  0.88023357748E+02  0.88023357748E+02  0.00000000000E+00 0.  1.
         21   -1    0    0  501  502 -0.00000000000E+00 -0.00000000000E+00 -0.12035045505E+04  0.12035045505E+04  0.00000000000E+00 0.  1.
         25    1    1    2    0    0  0.94814517639E+02  0.48818608861E+01 -0.66027459741E+03  0.67867604150E+03  0.12500000000E+03 0.  0.
         25    1    1    2    0    0 -0.57964322110E+01 -0.39464731432E+02  0.22679955984E-01  0.13121000026E+03  0.12500000000E+03 0.  0.
         25    1    1    2    0    0 -0.89018085428E+02  0.34582870546E+02 -0.45522927531E+03  0.48164186651E+03  0.12500000000E+03 0.  0.
</event>
<event>
 5    0  0.5728184E-005  0.3230447E+03  0.7546771E-02  0.1074257E+00
         21   -1    0    0  502  501  0.00000000000E+00  0.00000000000E+00  0.19812883642E+03  0.19812883642E+03  0.00000000000E+00 0.  1.
         21   -1    0    0  501  502 -0.00000000000E+00 -0.00000000000E+00 -0.52671722116E+03  0.52671722116E+03  0.00000000000E+00 0.  1.
         25    1    1    2    0    0 -0.78043285030E+02  0.46235073752E+02  0.47586466503E+02  0.16161035913E+03  0.12500000000E+03 0.  0.
         25    1    1    2    0    0 -0.17968172839E+02  0.12121475045E+03 -0.23630836069E+03  0.29407909190E+03  0.12500000000E+03 0.  0.
         25    1    1    2    0    0  0.96011457870E+02 -0.16744982421E+03 -0.13986649055E+03  0.26915660655E+03  0.12500000000E+03 0.  0.
</event>
<event>
 5    0  0.5728184E-005  0.3052705E+03  0.7546771E-02  0.1082635E+00
         21   -1    0    0  502  501  0.00000000000E+00  0.00000000000E+00  0.28669349059E+03  0.28669349059E+03  0.00000000000E+00 0. -1.
         21   -1    0    0  501  502 -0.00000000000E+00 -0.00000000000E+00 -0.32505121280E+03  0.32505121280E+03  0.00000000000E+00 0. -1.
         25    1    1    2    0    0  0.61243028765E+01 -0.12185856356E+03 -0.90581827604E+01  0.17491159845E+03  0.12500000000E+03 0.  0.
         25    1    1    2    0    0 -0.11216734476E+03  0.66259280762E+02  0.11279695691E+03  0.21288484917E+03  0.12500000000E+03 0.  0.
         25    1    1    2    0    0  0.10604304188E+03  0.55599282800E+02 -0.14209649636E+03  0.22394825576E+03  0.12500000000E+03 0.  0.
</event>
<event>
 5    0  0.5728184E-005  0.2029122E+03  0.7546771E-02  0.1147305E+00
         21   -1    0    0  502  501  0.00000000000E+00  0.00000000000E+00  0.10159718015E+03  0.10159718015E+03  0.00000000000E+00 0. -1.
         21   -1    0    0  501  502 -0.00000000000E+00 -0.00000000000E+00 -0.40526103386E+03  0.40526103386E+03  0.00000000000E+00 0. -1.
         25    1    1    2    0    0 -0.24695326816E+02 -0.24066047309E+02 -0.81527616046E+02  0.15316914173E+03  0.12500000000E+03 0.  0.
         25    1    1    2    0    0  0.45411500807E+02  0.24845067046E+02 -0.60226690729E+02  0.14809367319E+03  0.12500000000E+03 0.  0.
         25    1    1    2    0    0 -0.20716173990E+02 -0.77901973645E+00 -0.16190954694E+03  0.20559539909E+03  0.12500000000E+03 0.  0.
</event>
<event>
 5    0  0.5728184E-005  0.2199346E+03  0.7546771E-02  0.1133932E+00
         21   -1    0    0  502  501  0.00000000000E+00  0.00000000000E+00  0.16850890914E+02  0.16850890914E+02  0.00000000000E+00 0.  1.
         21   -1    0    0  501  502 -0.00000000000E+00 -0.00000000000E+00 -0.28705437396E+04  0.28705437396E+04  0.00000000000E+00 0.  1.
         25    1    1    2    0    0  0.22363928502E+01  0.31060145872E+02 -0.39519198323E+03  0.41565783732E+03  0.12500000000E+03 0.  0.
         25    1    1    2    0    0 -0.55528262431E+01 -0.10100086197E+02 -0.14162717975E+04  0.14218240574E+04  0.12500000000E+03 0.  0.
         25    1    1    2    0    0  0.33164333929E+01 -0.20960059675E+02 -0.10422290679E+04  0.10499127358E+04  0.12500000000E+03 0.  0.
</event>
<event>
 5    0  0.5728184E-005  0.3043401E+03  0.7546771E-02  0.1083091E+00
         21   -1    0    0  502  501  0.00000000000E+00  0.00000000000E+00  0.33744003547E+03  0.33744003547E+03  0.00000000000E+00 0. -1.
         21   -1    0    0  501  502 -0.00000000000E+00 -0.00000000000E+00 -0.27448701713E+03  0.27448701713E+03  0.00000000000E+00 0. -1.
         25    1    1    2    0    0 -0.16131717254E+03 -0.15420564454E+02  0.89802556177E+02  0.22349613657E+03  0.12500000000E+03 0.  0.
         25    1    1    2    0    0 -0.40756660404E+02  0.88545033555E+01  0.46390933360E+02  0.13970191944E+03  0.12500000000E+03 0.  0.
         25    1    1    2    0    0  0.20207383295E+03  0.65660610981E+01 -0.73240471197E+02  0.24872899658E+03  0.12500000000E+03 0.  0.
</event>
<event>
 5    0  0.5728184E-005  0.2798020E+03  0.7546771E-02  0.1095797E+00
         21   -1    0    0  502  501  0.00000000000E+00  0.00000000000E+00  0.77240370580E+02  0.77240370580E+02  0.00000000000E+00 0. -1.
         21   -1    0    0  501  502 -0.00000000000E+00 -0.00000000000E+00 -0.10135781820E+04  0.10135781820E+04  0.00000000000E+00 0. -1.
         25    1    1    2    0    0 -0.37125877828E+02  0.15346586604E+03 -0.20908159053E+03  0.29029332466E+03  0.12500000000E+03 0.  0.
         25    1    1    2    0    0  0.92679674040E+02 -0.52199142931E+02 -0.34168406471E+03  0.37906104071E+03  0.12500000000E+03 0.  0.
         25    1    1    2    0    0 -0.55553796212E+02 -0.10126672311E+03 -0.38557215615E+03  0.42146418719E+03  0.12500000000E+03 0.  0.
</event>
<event>
 5    0  0.5728184E-005  0.2899578E+03  0.7546771E-02  0.1090371E+00
         21   -1    0    0  502  501  0.00000000000E+00  0.00000000000E+00  0.72014399657E+02  0.72014399657E+02  0.00000000000E+00 0. -1.
         21   -1    0    0  501  502 -0.00000000000E+00 -0.00000000000E+00 -0.11674821534E+04  0.11674821534E+04  0.00000000000E+00 0. -1.
         25    1    1    2    0    0 -0.43365689088E+02  0.53715167479E+02 -0.24464189925E+03  0.28326764919E+03  0.12500000000E+03 0.  0.
         25    1    1    2    0    0  0.17354484255E+03  0.55656736406E+02 -0.36734124647E+03  0.42869578496E+03  0.12500000000E+03 0.  0.
         25    1    1    2    0    0 -0.13017915346E+03 -0.10937190389E+03 -0.48348460801E+03  0.52753311890E+03  0.12500000000E+03 0.  0.
</event>
<event>
 5    0  0.5728184E-005  0.4134037E+03  0.7546771E-02  0.1039235E+00
         21   -1    0    0  502  501  0.00000000000E+00  0.00000000000E+00  0.59231227691E+03  0.59231227691E+03  0.00000000000E+00 0. -1.
         21   -1    0    0  501  502 -0.00000000000E+00 -0.00000000000E+00 -0.28853459353E+03  0.28853459353E+03  0.00000000000E+00 0. -1.
         25    1    1    2    0    0 -0.44562068062E+02 -0.36584968343E+02  0.14817043006E+03  0.20224666663E+03  0.12500000000E+03 0.  0.
         25    1    1    2    0    0  0.31556540343E+03  0.68423845265E+02  0.15276365086E+03  0.37845089440E+03  0.12500000000E+03 0.  0.
         25    1    1    2    0    0 -0.27100333537E+03 -0.31838876923E+02  0.28436024456E+01  0.30014930941E+03  0.12500000000E+03 0.  0.
</event>
<event>
 5    0  0.5728184E-005  0.3033340E+03  0.7546771E-02  0.1083586E+00
         21   -1    0    0  502  501  0.00000000000E+00  0.00000000000E+00  0.42929356348E+04  0.42929356348E+04  0.00000000000E+00 0.  1.
         21   -1    0    0  501  502 -0.00000000000E+00 -0.00000000000E+00 -0.21433243159E+02  0.21433243159E+02  0.00000000000E+00 0.  1.
         25    1    1    2    0    0  0.13436220804E+03  0.15205451684E+03  0.26050795594E+04  0.26159583884E+04  0.12500000000E+03 0.  0.
         25    1    1    2    0    0 -0.61444837948E+02 -0.10712964973E+03  0.83431282266E+03  0.85261662898E+03  0.12500000000E+03 0.  0.
         25    1    1    2    0    0 -0.72917370088E+02 -0.44924867109E+02  0.83211000962E+03  0.84579386061E+03  0.12500000000E+03 0.  0.
</event>
<event>
 5    0  0.5975131E-005  0.3290412E+03  0.7546771E-02  0.1071562E+00
         21   -1    0    0  502  501  0.00000000000E+00  0.00000000000E+00  0.29277304346E+03  0.29277304346E+03  0.00000000000E+00 0. -1.
         21   -1    0    0  501  502 -0.00000000000E+00 -0.00000000000E+00 -0.36980210263E+03  0.36980210263E+03  0.00000000000E+00 0. -1.
         25    1    1    2    0    0 -0.95112763144E+02 -0.53581510848E+02  0.14206834476E+03  0.21846242377E+03  0.12500000000E+03 0.  0.
         25    1    1    2    0    0  0.14781362413E+03  0.11377865694E+03 -0.18713195255E+03  0.29229748189E+03  0.12500000000E+03 0.  0.
         25    1    1    2    0    0 -0.52700860987E+02 -0.60197146089E+02 -0.31965451386E+02  0.15181524044E+03  0.12500000000E+03 0.  0.
</event>
<event>
 5    0  0.5728184E-005  0.2241681E+03  0.7546771E-02  0.1130813E+00
         21   -1    0    0  502  501  0.00000000000E+00  0.00000000000E+00  0.11511839495E+03  0.11511839495E+03  0.00000000000E+00 0.  1.
         21   -1    0    0  501  502 -0.00000000000E+00 -0.00000000000E+00 -0.43651878964E+03  0.43651878964E+03  0.00000000000E+00 0.  1.
         25    1    1    2    0    0 -0.30604328284E+02  0.88486724984E+02 -0.12772002018E+03  0.20175214736E+03  0.12500000000E+03 0.  0.
         25    1    1    2    0    0 -0.86609694662E+01 -0.32747532126E+02 -0.29994370939E+02  0.13293635899E+03  0.12500000000E+03 0.  0.
         25    1    1    2    0    0  0.39265297750E+02 -0.55739192858E+02 -0.16368600357E+03  0.21694867824E+03  0.12500000000E+03 0.  0.
</event>
<event>
 5    0  0.5728184E-005  0.3634323E+03  0.7546771E-02  0.1057233E+00
         21   -1    0    0  502  501  0.00000000000E+00  0.00000000000E+00  0.24292994856E+04  0.24292994856E+04  0.00000000000E+00 0. -1.
         21   -1    0    0  501  502 -0.00000000000E+00 -0.00000000000E+00 -0.54370841503E+02  0.54370841503E+02  0.00000000000E+00 0. -1.
         25    1    1    2    0    0 -0.10805661809E+02  0.82820431261E+02  0.21165018637E+03  0.25960891270E+03  0.12500000000E+03 0.  0.
         25    1    1    2    0    0 -0.67930643232E+02 -0.25071096505E+03  0.13613302964E+04  0.13915156256E+04  0.12500000000E+03 0.  0.
         25    1    1    2    0    0  0.78736305041E+02  0.16789053379E+03  0.80194816131E+03  0.83254578883E+03  0.12500000000E+03 0.  0.
</event>
<event>
 5    0  0.5728184E-005  0.4198592E+03  0.7546771E-02  0.1037112E+00
         21   -1    0    0  502  501  0.00000000000E+00  0.00000000000E+00  0.11954447907E+03  0.11954447907E+03  0.00000000000E+00 0. -1.
         21   -1    0    0  501  502 -0.00000000000E+00 -0.00000000000E+00 -0.14746121465E+04  0.14746121465E+04  0.00000000000E+00 0. -1.
         25    1    1    2    0    0  0.32369134473E+03  0.99879609542E+02 -0.86009761218E+03  0.93281559031E+03  0.12500000000E+03 0.  0.
         25    1    1    2    0    0 -0.15219440111E+03 -0.10827229058E+03 -0.28154799543E+03  0.36025032736E+03  0.12500000000E+03 0.  0.
         25    1    1    2    0    0 -0.17149694362E+03  0.83926810338E+01 -0.21342205986E+03  0.30109070792E+03  0.12500000000E+03 0.  0.
</event>
<event>
 5    0  0.5728184E-005  0.2727860E+03  0.7546771E-02  0.1099696E+00
         21   -1    0    0  502  501  0.00000000000E+00  0.00000000000E+00  0.18325798715E+03  0.18325798715E+03  0.00000000000E+00 0.  1.
         21   -1    0    0  501  502 -0.00000000000E+00 -0.00000000000E+00 -0.40605167608E+03  0.40605167608E+03  0.00000000000E+00 0.  1.
         25    1    1    2    0    0  0.65770011271E+02 -0.87913068714E+02 -0.14058914484E+03  0.21781806555E+03  0.12500000000E+03 0.  0.
         25    1    1    2    0    0 -0.41029150133E+01  0.10020064068E+03  0.60815738964E+02  0.17140757396E+03  0.12500000000E+03 0.  0.
         25    1    1    2    0    0 -0.61667096258E+02 -0.12287571968E+02 -0.14302028306E+03  0.20008402373E+03  0.12500000000E+03 0.  0.
</event>
<event>
 5    0  0.5728184E-005  0.3064153E+03  0.7546771E-02  0.1082077E+00
         21   -1    0    0  502  501  0.00000000000E+00  0.00000000000E+00  0.23233102886E+03  0.23233102886E+03  0.00000000000E+00 0. -1.
         21   -1    0    0  501  502 -0.00000000000E+00 -0.00000000000E+00 -0.40412302703E+03  0.40412302703E+03  0.00000000000E+00 0. -1.
         25    1    1    2    0    0  0.62791768646E+02  0.22258169322E+02  0.15548045003E+03  0.21032689475E+03  0.12500000000E+03 0.  0.
         25    1    1    2    0    0 -0.10331067959E+02  0.20553577824E+02 -0.18937437200E+03  0.22807199148E+03  0.12500000000E+03 0.  0.
         25    1    1    2    0    0 -0.52460700688E+02 -0.42811747147E+02 -0.13789807620E+03  0.19805516966E+03  0.12500000000E+03 0.  0.
</event>
<event>
 5    0  0.5728184E-005  0.1932353E+03  0.7546771E-02  0.1155575E+00
         21   -1    0    0  502  501  0.00000000000E+00  0.00000000000E+00  0.50976235211E+03  0.50976235211E+03  0.00000000000E+00 0.  1.
         21   -1    0    0  501  502 -0.00000000000E+00 -0.00000000000E+00 -0.73249584770E+02  0.73249584770E+02  0.00000000000E+00 0.  1.
         25    1    1    2    0    0 -0.10986608528E+02  0.19718828038E+02  0.11334523297E+03  0.17024006456E+03  0.12500000000E+03 0.  0.
         25    1    1    2    0    0  0.84900308550E+01  0.16909014913E+02  0.16464277390E+03  0.20758188362E+03  0.12500000000E+03 0.  0.
         25    1    1    2    0    0  0.24965776726E+01 -0.36627842950E+02  0.15852476047E+03  0.20518998870E+03  0.12500000000E+03 0.  0.
</event>
<event>
 5    0  0.5728184E-005  0.2582870E+03  0.7546771E-02  0.1108177E+00
         21   -1    0    0  502  501  0.00000000000E+00  0.00000000000E+00  0.34130661617E+02  0.34130661617E+02  0.00000000000E+00 0.  1.
         21   -1    0    0  501  502 -0.00000000000E+00 -0.00000000000E+00 -0.19546119774E+04  0.19546119774E+04  0.00000000000E+00 0.  1.
         25    1    1    2    0    0  0.16940916306E+02 -0.22107027254E+02 -0.27412940234E+03  0.30256841297E+03  0.12500000000E+03 0.  0.
         25    1    1    2    0    0  0.86211125467E+02 -0.67421195634E+02 -0.10046714699E+04  0.10183161288E+04  0.12500000000E+03 0.  0.
         25    1    1    2    0    0 -0.10315204177E+03  0.89528222888E+02 -0.64168044359E+03  0.66785809728E+03  0.12500000000E+03 0.  0.
</event>
<event>
 5    0  0.5728184E-005  0.2483496E+03  0.7546771E-02  0.1114352E+00
         21   -1    0    0  502  501  0.00000000000E+00  0.00000000000E+00  0.16015902068E+04  0.16015902068E+04  0.00000000000E+00 0. -1.
         21   -1    0    0  501  502 -0.00000000000E+00 -0.00000000000E+00 -0.38510178419E+02  0.38510178419E+02  0.00000000000E+00 0. -1.
         25    1    1    2    0    0  0.10569884000E+03 -0.28430476021E+02  0.98303849799E+03  0.99698055411E+03  0.12500000000E+03 0.  0.
         25    1    1    2    0    0 -0.42408172652E+02  0.34016917184E+02  0.31625614534E+03  0.34438140663E+03  0.12500000000E+03 0.  0.
         25    1    1    2    0    0 -0.63290667347E+02 -0.55864411634E+01  0.26378538506E+03  0.29873842449E+03  0.12500000000E+03 0.  0.
</event>
<event>
 5    0  0.5728184E-005  0.3497158E+03  0.7546771E-02  0.1062732E+00
         21   -1    0    0  502  501  0.00000000000E+00  0.00000000000E+00  0.30529961490E+03  0.30529961490E+03  0.00000000000E+00 0. -1.
         21   -1    0    0  501  502 -0.00000000000E+00 -0.00000000000E+00 -0.40059392621E+03  0.40059392621E+03  0.00000000000E+00 0. -1.
         25    1    1    2    0    0 -0.17779992144E+02  0.94179418052E+02 -0.82489964043E+01  0.15773058311E+03  0.12500000000E+03 0.  0.
         25    1    1    2    0    0  0.23371512646E+03 -0.10984315521E+03 -0.12033773904E+02  0.28715516850E+03  0.12500000000E+03 0.  0.
         25    1    1    2    0    0 -0.21593513432E+03  0.15663737160E+02 -0.75011541006E+02  0.26100778950E+03  0.12500000000E+03 0.  0.
</event>
<event>
 5    0  0.5728184E-005  0.2814729E+03  0.7546771E-02  0.1094887E+00
         21   -1    0    0  502  501  0.00000000000E+00  0.00000000000E+00  0.79902362819E+03  0.79902362819E+03  0.00000000000E+00 0. -1.
         21   -1    0    0  501  502 -0.00000000000E+00 -0.00000000000E+00 -0.99154762414E+02  0.99154762414E+02  0.00000000000E+00 0. -1.
         25    1    1    2    0    0 -0.55908981102E+02 -0.44360573726E+02  0.71321259995E+02  0.16064058266E+03  0.12500000000E+03 0.  0.
         25    1    1    2    0    0  0.26369679297E+02  0.43264277866E+02  0.58736123188E+03  0.60264863266E+03  0.12500000000E+03 0.  0.
         25    1    1    2    0    0  0.29539301805E+02  0.10962958599E+01  0.41186373899E+02  0.13488917529E+03  0.12500000000E+03 0.  0.
</event>
<event>
 5    0  0.5728184E-005  0.2671897E+03  0.7546771E-02  0.1102899E+00
         21   -1    0    0  502  501  0.00000000000E+00  0.00000000000E+00  0.25760087151E+03  0.25760087151E+03  0.00000000000E+00 0.  1.
         21   -1    0    0  501  502 -0.00000000000E+00 -0.00000000000E+00 -0.27713556134E+03  0.27713556134E+03  0.00000000000E+00 0.  1.
         25    1    1    2    0    0 -0.11384998022E+03  0.33146821134E+02 -0.32585732693E+02  0.17534925071E+03  0.12500000000E+03 0.  0.
         25    1    1    2    0    0  0.76024929280E+02 -0.20502741864E+01  0.11881348543E+03  0.18848246024E+03  0.12500000000E+03 0.  0.
         25    1    1    2    0    0  0.37825050945E+02 -0.31096546948E+02 -0.10576244257E+03  0.17090472190E+03  0.12500000000E+03 0.  0.
</event>
<event>
 5    0  0.5728184E-005  0.5513772E+03  0.7546771E-02  0.1001176E+00
         21   -1    0    0  502  501  0.00000000000E+00  0.00000000000E+00  0.38138846522E+03  0.38138846522E+03  0.00000000000E+00 0. -1.
         21   -1    0    0  501  502 -0.00000000000E+00 -0.00000000000E+00 -0.79713176559E+03  0.79713176559E+03  0.00000000000E+00 0. -1.
         25    1    1    2    0    0  0.50283788262E+02 -0.48009959665E+03 -0.82096715962E+02  0.50536022087E+03  0.12500000000E+03 0.  0.
         25    1    1    2    0    0 -0.62413411823E+01  0.23434033677E+03 -0.28520667679E+03  0.38977197983E+03  0.12500000000E+03 0.  0.
         25    1    1    2    0    0 -0.44042447080E+02  0.24575925988E+03 -0.48439907622E+02  0.28338803011E+03  0.12500000000E+03 0.  0.
</event>
<event>
 5    0  0.5728184E-005  0.2636967E+03  0.7546771E-02  0.1104942E+00
         21   -1    0    0  502  501  0.00000000000E+00  0.00000000000E+00  0.17850521005E+03  0.17850521005E+03  0.00000000000E+00 0.  1.
         21   -1    0    0  501  502 -0.00000000000E+00 -0.00000000000E+00 -0.38954565862E+03  0.38954565862E+03  0.00000000000E+00 0.  1.
         25    1    1    2    0    0  0.19854205240E+02  0.13783641788E+02 -0.24374262465E+03  0.27499026404E+03  0.12500000000E+03 0.  0.
         25    1    1    2    0    0  0.24867532785E+02 -0.11277558467E+01 -0.49128236497E+02  0.13659520358E+03  0.12500000000E+03 0.  0.
         25    1    1    2    0    0 -0.44721738024E+02 -0.12655885941E+02  0.81830412583E+02  0.15646540105E+03  0.12500000000E+03 0.  0.
</event>
<event>
 5    0  0.5728184E-005  0.5951759E+03  0.7546771E-02  0.9915465E-01
         21   -1    0    0  502  501  0.00000000000E+00  0.00000000000E+00  0.18616130108E+04  0.18616130108E+04  0.00000000000E+00 0.  1.
         21   -1    0    0  501  502 -0.00000000000E+00 -0.00000000000E+00 -0.19028358716E+03  0.19028358716E+03  0.00000000000E+00 0.  1.
         25    1    1    2    0    0  0.17165661529E+02 -0.52098545300E+03  0.80802250480E+03  0.96966276119E+03  0.12500000000E+03 0.  0.
         25    1    1    2    0    0  0.67362290744E+02  0.45629129600E+03  0.55068024275E+03  0.72911806642E+03  0.12500000000E+03 0.  0.
         25    1    1    2    0    0 -0.84527952272E+02  0.64694156993E+02  0.31262667607E+03  0.35311577033E+03  0.12500000000E+03 0.  0.
</event>
<event>
 5    0  0.5728184E-005  0.2150278E+03  0.7546771E-02  0.1137645E+00
         21   -1    0    0  502  501  0.00000000000E+00  0.00000000000E+00  0.82893888821E+02  0.82893888821E+02  0.00000000000E+00 0.  1.
         21   -1    0    0  501  502 -0.00000000000E+00 -0.00000000000E+00 -0.55778479718E+03  0.55778479718E+03  0.00000000000E+00 0.  1.
         25    1    1    2    0    0  0.50825010568E+02  0.86857488416E+01 -0.21094030538E+03  0.25055824945E+03  0.12500000000E+03 0.  0.
         25    1    1    2    0    0  0.86157069132E+00 -0.62218238972E+02 -0.10540645787E+03  0.17494962968E+03  0.12500000000E+03 0.  0.
         25    1    1    2    0    0 -0.51686581259E+02  0.53532490131E+02 -0.15854414511E+03  0.21517080687E+03  0.12500000000E+03 0.  0.
</event>
<event>
 5    0  0.5728184E-005  0.2686562E+03  0.7546771E-02  0.1102051E+00
         21   -1    0    0  502  501  0.00000000000E+00  0.00000000000E+00  0.37870375734E+02  0.37870375734E+02  0.00000000000E+00 0. -1.
         21   -1    0    0  501  502 -0.00000000000E+00 -0.00000000000E+00 -0.19058735647E+04  0.19058735647E+04  0.00000000000E+00 0. -1.
         25    1    1    2    0    0 -0.70848469130E+02  0.22953849246E+02 -0.90473370661E+03  0.91635935345E+03  0.12500000000E+03 0.  0.
         25    1    1    2    0    0  0.77420661516E+02  0.40592394445E+02 -0.20114884680E+03  0.25244318150E+03  0.12500000000E+03 0.  0.
         25    1    1    2    0    0 -0.65721923854E+01 -0.63546243691E+02 -0.76212063559E+03  0.77494140552E+03  0.12500000000E+03 0.  0.
</event>
<event>
 5    0  0.5728184E-005  0.3085702E+03  0.7546771E-02  0.1081033E+00
         21   -1    0    0  502  501  0.00000000000E+00  0.00000000000E+00  0.14021600302E+03  0.14021600302E+03  0.00000000000E+00 0.  1.
         21   -1    0    0  501  502 -0.00000000000E+00 -0.00000000000E+00 -0.67906369759E+03  0.67906369759E+03  0.00000000000E+00 0.  1.
         25    1    1    2    0    0 -0.17281264996E+03  0.39849246862E+02 -0.41482503093E+03  0.46814205189E+03  0.12500000000E+03 0.  0.
         25    1    1    2    0    0  0.14832021931E+03  0.15329006870E+01 -0.62893192765E+02  0.20391613702E+03  0.12500000000E+03 0.  0.
         25    1    1    2    0    0  0.24492430653E+02 -0.41382147549E+02 -0.61129470878E+02  0.14722151169E+03  0.12500000000E+03 0.  0.
</event>
<event>
 5    0  0.5728184E-005  0.3214525E+03  0.7546771E-02  0.1074983E+00
         21   -1    0    0  502  501  0.00000000000E+00  0.00000000000E+00  0.11337101370E+03  0.11337101370E+03  0.00000000000E+00 0.  1.
         21   -1    0    0  501  502 -0.00000000000E+00 -0.00000000000E+00 -0.91144752503E+03  0.91144752503E+03  0.00000000000E+00 0.  1.
         25    1    1    2    0    0 -0.12097367874E+03  0.63128056407E+02 -0.29118262661E+03  0.34501029622E+03  0.12500000000E+03 0.  0.
         25    1    1    2    0    0  0.23947861446E+03 -0.22849558732E+02 -0.35480085546E+03  0.44652072310E+03  0.12500000000E+03 0.  0.
         25    1    1    2    0    0 -0.11850493572E+03 -0.40278497675E+02 -0.15209302926E+03  0.23328751941E+03  0.12500000000E+03 0.  0.
</event>
<event>
 5    0  0.5781215E-005  0.2684204E+03  0.7546771E-02  0.1102187E+00
         21   -1    0    0  502  501  0.00000000000E+00  0.00000000000E+00  0.13451552279E+03  0.13451552279E+03  0.00000000000E+00 0. -1.
         21   -1    0    0  501  502 -0.00000000000E+00 -0.00000000000E+00 -0.53562220930E+03  0.53562220930E+03  0.00000000000E+00 0. -1.
         25    1    1    2    0    0 -0.39621020314E+02 -0.62545117261E+02 -0.21390113311E+03  0.25857380318E+03  0.12500000000E+03 0.  0.
         25    1    1    2    0    0  0.76542947324E+02 -0.64889456542E+02 -0.15329688623E+02  0.16102628266E+03  0.12500000000E+03 0.  0.
         25    1    1    2    0    0 -0.36921927009E+02  0.12743457380E+03 -0.17187586478E+03  0.25053764625E+03  0.12500000000E+03 0.  0.
</event>
<event>
 5    0  0.5728184E-005  0.4061103E+03  0.7546771E-02  0.1041684E+00
         21   -1    0    0  502  501  0.00000000000E+00  0.00000000000E+00  0.34262704877E+03  0.34262704877E+03  0.00000000000E+00 0.  1.
         21   -1    0    0  501  502 -0.00000000000E+00 -0.00000000000E+00 -0.48135595517E+03  0.48135595517E+03  0.00000000000E+00 0.  1.
         25    1    1    2    0    0 -0.19372067320E+02  0.17322308824E+03 -0.59641289354E+01  0.21457419725E+03  0.12500000000E+03 0.  0.
         25    1    1    2    0    0 -0.18232285114E+03 -0.12639004837E+03  0.10015245553E+03  0.27362671785E+03  0.12500000000E+03 0.  0.
         25    1    1    2    0    0  0.20169491846E+03 -0.46833039868E+02 -0.23291723300E+03  0.33578208883E+03  0.12500000000E+03 0.  0.
</event>
<event>
 5    0  0.5728184E-005  0.5458651E+03  0.7546771E-02  0.1002456E+00
         21   -1    0    0  502  501  0.00000000000E+00  0.00000000000E+00  0.61931001293E+03  0.61931001293E+03  0.00000000000E+00 0.  1.
         21   -1    0    0  501  502 -0.00000000000E+00 -0.00000000000E+00 -0.48113007356E+03  0.48113007356E+03  0.00000000000E+00 0.  1.
         25    1    1    2    0    0 -0.38666385289E+03 -0.16681794242E+03  0.29082262318E+03  0.52682061387E+03  0.12500000000E+03 0.  0.
         25    1    1    2    0    0  0.47689622249E+02  0.11214686741E+02  0.33583586748E+02  0.13839409875E+03  0.12500000000E+03 0.  0.
         25    1    1    2    0    0  0.33897423064E+03  0.15560325568E+03 -0.18622627055E+03  0.43522537387E+03  0.12500000000E+03 0.  0.
</event>
<event>
 5    0  0.5728184E-005  0.3862339E+03  0.7546771E-02  0.1048653E+00
         21   -1    0    0  502  501  0.00000000000E+00  0.00000000000E+00  0.12973310457E+04  0.12973310457E+04  0.00000000000E+00 0.  1.
         21   -1    0    0  501  502 -0.00000000000E+00 -0.00000000000E+00 -0.11498735194E+03  0.11498735194E+03  0.00000000000E+00 0.  1.
         25    1    1    2    0    0 -0.71813514342E+02 -0.20957997337E+03  0.57430911015E+03  0.62812172394E+03  0.12500000000E+03 0.  0.
         25    1    1    2    0    0  0.12593283277E+03  0.32942639537E+02  0.56250946208E+02  0.18903297283E+03  0.12500000000E+03 0.  0.
         25    1    1    2    0    0 -0.54119318426E+02  0.17663733383E+03  0.55178363739E+03  0.59516370086E+03  0.12500000000E+03 0.  0.
</event>
<event>
 5    0  0.5728184E-005  0.2559326E+03  0.7546771E-02  0.1109612E+00
         21   -1    0    0  502  501  0.00000000000E+00  0.00000000000E+00  0.47474077803E+03  0.47474077803E+03  0.00000000000E+00 0.  1.
         21   -1    0    0  501  502 -0.00000000000E+00 -0.00000000000E+00 -0.13797321581E+03  0.13797321581E+03  0.00000000000E+00 0.  1.
         25    1    1    2    0    0 -0.41508733799E+02  0.82074298067E+02  0.50001361463E+01  0.15527126826E+03  0.12500000000E+03 0.  0.
         25    1    1    2    0    0  0.37620680247E+02 -0.78492094953E+02  0.28635101726E+03  0.32434276567E+03  0.12500000000E+03 0.  0.
         25    1    1    2    0    0  0.38880535517E+01 -0.35822031147E+01  0.45416408814E+02  0.13309995991E+03  0.12500000000E+03 0.  0.
</event>
<event>
 5    0  0.5728184E-005  0.2606459E+03  0.7546771E-02  0.1106756E+00
         21   -1    0    0  502  501  0.00000000000E+00  0.00000000000E+00  0.20732224251E+03  0.20732224251E+03  0.00000000000E+00 0.  1.
         21   -1    0    0  501  502 -0.00000000000E+00 -0.00000000000E+00 -0.32768447615E+03  0.32768447615E+03  0.00000000000E+00 0.  1.
         25    1    1    2    0    0  0.83682781366E+02  0.50450871115E+02  0.39518887927E+02  0.16350792273E+03  0.12500000000E+03 0.  0.
         25    1    1    2    0    0 -0.40939115671E+02 -0.10812277999E+03 -0.15016351091E+03  0.22702560814E+03  0.12500000000E+03 0.  0.
         25    1    1    2    0    0 -0.42743665694E+02  0.57671908874E+02 -0.97176106615E+01  0.14447318778E+03  0.12500000000E+03 0.  0.
</event>
<event>
 5    0  0.5728184E-005  0.4074454E+03  0.7546771E-02  0.1041232E+00
         21   -1    0    0  502  501  0.00000000000E+00  0.00000000000E+00  0.17741858932E+03  0.17741858932E+03  0.00000000000E+00 0. -1.
         21   -1    0    0  501  502 -0.00000000000E+00 -0.00000000000E+00 -0.93570687410E+03  0.93570687410E+03  0.00000000000E+00 0. -1.
         25    1    1    2    0    0 -0.21057320552E+03  0.22988583691E+03 -0.24609772351E+03  0.41638643399E+03  0.12500000000E+03 0.  0.
         25    1    1    2    0    0  0.24033985494E+03 -0.16019081698E+03 -0.41645436373E+03  0.52199959845E+03  0.12500000000E+03 0.  0.
         25    1    1    2    0    0 -0.29766649419E+02 -0.69695019929E+02 -0.95736197536E+02  0.17473943098E+03  0.12500000000E+03 0.  0.
</event>
<event>
 5    0  0.5728184E-005  0.3214787E+03  0.7546771E-02  0.1074971E+00
         21   -1    0    0  502  501  0.00000000000E+00  0.00000000000E+00  0.11801181032E+04  0.11801181032E+04  0.00000000000E+00 0.  1.
         21   -1    0    0  501  502 -0.00000000000E+00 -0.00000000000E+00 -0.87574742699E+02  0.87574742699E+02  0.00000000000E+00 0.  1.
         25    1    1    2    0    0 -0.15910018487E+03  0.12013841676E+03  0.37343584194E+03  0.44139034431E+03  0.12500000000E+03 0.  0.
         25    1    1    2    0    0  0.12093270779E+03  0.58348311832E+02  0.37043221806E+03  0.41336941528E+03  0.12500000000E+03 0.  0.
         25    1    1    2    0    0  0.38167477073E+02 -0.17848672859E+03  0.34867530048E+03  0.41293308629E+03  0.12500000000E+03 0.  0.
</event>
<event>
 5    0  0.5728184E-005  0.3796745E+03  0.7546771E-02  0.1051054E+00
         21   -1    0    0  502  501  0.00000000000E+00  0.00000000000E+00  0.18003377301E+04  0.18003377301E+04  0.00000000000E+00 0.  1.
         21   -1    0    0  501  502 -0.00000000000E+00 -0.00000000000E+00 -0.80069829269E+02  0.80069829269E+02  0.00000000000E+00 0.  1.
         25    1    1    2    0    0  0.54368459886E+02  0.11767873301E+03  0.38927228915E+03  0.42890806560E+03  0.12500000000E+03 0.  0.
         25    1    1    2    0    0 -0.21435253015E+02 -0.31555863043E+03  0.85178397886E+03  0.91716828661E+03  0.12500000000E+03 0.  0.
         25    1    1    2    0    0 -0.32933206871E+02  0.19787989742E+03  0.47921163280E+03  0.53433120715E+03  0.12500000000E+03 0.  0.
</event>
<event>
 5    0  0.5728184E-005  0.5026110E+03  0.7546771E-02  0.1013100E+00
         21   -1    0    0  502  501  0.00000000000E+00  0.00000000000E+00  0.20214228283E+04  0.20214228283E+04  0.00000000000E+00 0. -1.
         21   -1    0    0  501  502 -0.00000000000E+00 -0.00000000000E+00 -0.12497030138E+03  0.12497030138E+03  0.00000000000E+00 0. -1.
         25    1    1    2    0    0  0.87741013405E+02  0.32244938684E+02  0.11926844793E+04  0.12028547247E+04  0.12500000000E+03 0.  0.
         25    1    1    2    0    0  0.75695965003E+02 -0.26374005444E+03  0.23771280018E+03  0.38395451658E+03  0.12500000000E+03 0.  0.
         25    1    1    2    0    0 -0.16343697841E+03  0.23149511575E+03  0.46605524746E+03  0.55958388845E+03  0.12500000000E+03 0.  0.
</event>
<event>
 5    0  0.5728184E-005  0.2304689E+03  0.7546771E-02  0.1126310E+00
         21   -1    0    0  502  501  0.00000000000E+00  0.00000000000E+00  0.23894686027E+03  0.23894686027E+03  0.00000000000E+00 0. -1.
         21   -1    0    0  501  502 -0.00000000000E+00 -0.00000000000E+00 -0.22229178503E+03  0.22229178503E+03  0.00000000000E+00 0. -1.
         25    1    1    2    0    0 -0.16858462872E+02  0.53640366893E+02 -0.57159175221E+02  0.14850477448E+03  0.12500000000E+03 0.  0.
         25    1    1    2    0    0 -0.21277895304E+02  0.46195433008E+02  0.67275286477E+01  0.13511856461E+03  0.12500000000E+03 0.  0.
         25    1    1    2    0    0  0.38136358175E+02 -0.99835799901E+02  0.67086721819E+02  0.17761530621E+03  0.12500000000E+03 0.  0.
</event>
<event>
 5    0  0.5728184E-005  0.3194340E+03  0.7546771E-02  0.1075910E+00
         21   -1    0    0  502  501  0.00000000000E+00  0.00000000000E+00  0.60574505530E+03  0.60574505530E+03  0.00000000000E+00 0. -1.
         21   -1    0    0  501  502 -0.00000000000E+00 -0.00000000000E+00 -0.16845051242E+03  0.16845051242E+03  0.00000000000E+00 0. -1.
         25    1    1    2    0    0 -0.15983390155E+03  0.72169335667E+02  0.38203618499E+03  0.43855665055E+03  0.12500000000E+03 0.  0.
         25    1    1    2    0    0  0.13846709988E+03 -0.78025409450E+02  0.51392328131E+02  0.20863190949E+03  0.12500000000E+03 0.  0.
         25    1    1    2    0    0  0.21366801677E+02  0.58560737833E+01  0.38660297680E+01  0.12700700768E+03  0.12500000000E+03 0.  0.
</event>
<event>
 5    0  0.6349966E-005  0.3051153E+03  0.7546771E-02  0.1082711E+00
         21   -1    0    0  502  501  0.00000000000E+00  0.00000000000E+00  0.19137588757E+03  0.19137588757E+03  0.00000000000E+00 0.  1.
         21   -1    0    0  501  502 -0.00000000000E+00 -0.00000000000E+00 -0.48645294959E+03  0.48645294959E+03  0.00000000000E+00 0.  1.
         25    1    1    2    0    0 -0.93596514734E+02  0.30392524604E+02  0.76372812700E+02  0.17647044977E+03  0.12500000000E+03 0.  0.
         25    1    1    2    0    0  0.52564814559E+02 -0.11605463053E+03 -0.17599667045E+03  0.25066225286E+03  0.12500000000E+03 0.  0.
         25    1    1    2    0    0  0.41031700175E+02  0.85662105926E+02 -0.19545320427E+03  0.25069613453E+03  0.12500000000E+03 0.  0.
</event>
<event>
 5    0  0.5728184E-005  0.3225249E+03  0.7546771E-02  0.1074493E+00
         21   -1    0    0  502  501  0.00000000000E+00  0.00000000000E+00  0.14917727039E+04  0.14917727039E+04  0.00000000000E+00 0.  1.
         21   -1    0    0  501  502 -0.00000000000E+00 -0.00000000000E+00 -0.69730677635E+02  0.69730677635E+02  0.00000000000E+00 0.  1.
         25    1    1    2    0    0 -0.18906936922E+03 -0.68540711706E+02  0.64081191428E+03  0.68316174148E+03  0.12500000000E+03 0.  0.
         25    1    1    2    0    0  0.19044162771E+03  0.12240781857E+03  0.43155522139E+03  0.50310694362E+03  0.12500000000E+03 0.  0.
         25    1    1    2    0    0 -0.13722584855E+01 -0.53867106867E+02  0.34967489063E+03  0.37523469647E+03  0.12500000000E+03 0.  0.
</event>
<event>
 5    0  0.5728184E-005  0.2779283E+03  0.7546771E-02  0.1096826E+00
         21   -1    0    0  502  501  0.00000000000E+00  0.00000000000E+00  0.23764768677E+04  0.23764768677E+04  0.00000000000E+00 0.  1.
         21   -1    0    0  501  502 -0.00000000000E+00 -0.00000000000E+00 -0.32503643955E+02  0.32503643955E+02  0.00000000000E+00 0.  1.
         25    1    1    2    0    0 -0.71604113240E+02  0.15656576652E+03  0.92740105206E+03  0.95149235396E+03  0.12500000000E+03 0.  0.
         25    1    1    2    0    0  0.10365632102E+03 -0.45873019515E+02  0.81890313865E+03  0.83610783832E+03  0.12500000000E+03 0.  0.
         25    1    1    2    0    0 -0.32052207781E+02 -0.11069274700E+03  0.59766903307E+03  0.62138031942E+03  0.12500000000E+03 0.  0.
</event>
<event>
 5    0  0.5728184E-005  0.3801962E+03  0.7546771E-02  0.1050861E+00
         21   -1    0    0  502  501  0.00000000000E+00  0.00000000000E+00  0.63239519545E+03  0.63239519545E+03  0.00000000000E+00 0.  1.
         21   -1    0    0  501  502 -0.00000000000E+00 -0.00000000000E+00 -0.22857408373E+03  0.22857408373E+03  0.00000000000E+00 0.  1.
         25    1    1    2    0    0  0.10176929566E+03  0.13174795670E+03  0.70449841345E+02  0.21977873823E+03  0.12500000000E+03 0.  0.
         25    1    1    2    0    0 -0.28198497430E+03 -0.44408989159E+02  0.19156502980E+03  0.36580027978E+03  0.12500000000E+03 0.  0.
         25    1    1    2    0    0  0.18021567864E+03 -0.87338967538E+02  0.14180624059E+03  0.27539026117E+03  0.12500000000E+03 0.  0.
</event>
<event>
 5    0  0.5728184E-005  0.2576492E+03  0.7546771E-02  0.1108564E+00
         21   -1    0    0  502  501  0.00000000000E+00  0.00000000000E+00  0.11478222390E+04  0.11478222390E+04  0.00000000000E+00 0. -1.
         21   -1    0    0  501  502 -0.00000000000E+00 -0.00000000000E+00 -0.57833953587E+02  0.57833953587E+02  0.00000000000E+00 0. -1.
         25    1    1    2    0    0 -0.10637031679E+03 -0.69841067345E+02  0.38369794159E+03  0.42313299252E+03  0.12500000000E+03 0.  0.
         25    1    1    2    0    0 -0.62492663199E+01 -0.10101263537E+02  0.43987097815E+03  0.45744132549E+03  0.12500000000E+03 0.  0.
         25    1    1    2    0    0  0.11261958311E+03  0.79942330882E+02  0.26641936568E+03  0.32508187457E+03  0.12500000000E+03 0.  0.
</event>
<event>
 5    0  0.5728184E-005  0.2537187E+03  0.7546771E-02  0.1110977E+00
         21   -1    0    0  502  501  0.00000000000E+00  0.00000000000E+00  0.72795149818E+02  0.72795149818E+02  0.00000000000E+00 0.  1.
         21   -1    0    0  501  502 -0.00000000000E+00 -0.00000000000E+00 -0.88430608122E+03  0.88430608122E+03  0.00000000000E+00 0.  1.
         25    1    1    2    0    0 -0.72677613216E+02  0.35849913023E+01 -0.20075839209E+03  0.24743447541E+03  0.12500000000E+03 0.  0.
         25    1    1    2    0    0  0.14210113425E+03 -0.65521037286E+02 -0.40246549815E+03  0.44954334149E+03  0.12500000000E+03 0.  0.
         25    1    1    2    0    0 -0.69423521036E+02  0.61936045984E+02 -0.20828704116E+03  0.26012341414E+03  0.12500000000E+03 0.  0.
</event>
<event>
 5    0  0.5728184E-005  0.2168785E+03  0.7546771E-02  0.1136232E+00
         21   -1    0    0  502  501  0.00000000000E+00  0.00000000000E+00  0.37640695070E+03  0.37640695070E+03  0.00000000000E+00 0.  1.
         21   -1    0    0  501  502 -0.00000000000E+00 -0.00000000000E+00 -0.12496126101E+03  0.12496126101E+03  0.00000000000E+00 0.  1.
         25    1    1    2    0    0 -0.10121236284E+03  0.22024625862E+00  0.93562375591E+02  0.18607232203E+03  0.12500000000E+03 0.  0.
         25    1    1    2    0    0  0.29125565568E+02  0.29059039387E+01  0.80453317264E+02  0.15150735661E+03  0.12500000000E+03 0.  0.
         25    1    1    2    0    0  0.72086797272E+02 -0.31261501973E+01  0.77429996828E+02  0.16378853307E+03  0.12500000000E+03 0.  0.
</event>
<event>
 5    0  0.5728184E-005  0.3201156E+03  0.7546771E-02  0.1075596E+00
         21   -1    0    0  502  501  0.00000000000E+00  0.00000000000E+00  0.16507753752E+03  0.16507753752E+03  0.00000000000E+00 0.  1.
         21   -1    0    0  501  502 -0.00000000000E+00 -0.00000000000E+00 -0.62076293688E+03  0.62076293688E+03  0.00000000000E+00 0.  1.
         25    1    1    2    0    0  0.77767594041E+02 -0.67644590228E+02 -0.72259565366E+01  0.16217522535E+03  0.12500000000E+03 0.  0.
         25    1    1    2    0    0 -0.20126970896E+03  0.71165150680E+02 -0.19386336789E+03  0.31429600670E+03  0.12500000000E+03 0.  0.
         25    1    1    2    0    0  0.12350211492E+03 -0.35205604517E+01 -0.25459607493E+03  0.30936924234E+03  0.12500000000E+03 0.  0.
</event>
<event>
 5    0  0.5728184E-005  0.3237756E+03  0.7546771E-02  0.1073925E+00
         21   -1    0    0  502  501  0.00000000000E+00  0.00000000000E+00  0.27860694547E+03  0.27860694547E+03  0.00000000000E+00 0.  1.
         21   -1    0    0  501  502 -0.00000000000E+00 -0.00000000000E+00 -0.37626704754E+03  0.37626704754E+03  0.00000000000E+00 0.  1.
         25    1    1    2    0    0 -0.34151331312E+01  0.33206935997E+02  0.95315454189E+02  0.16069971854E+03  0.12500000000E+03 0.  0.
         25    1    1    2    0    0  0.33269928711E+02  0.15021668914E+03 -0.18331197888E+03  0.27000041380E+03  0.12500000000E+03 0.  0.
         25    1    1    2    0    0 -0.29854795580E+02 -0.18342362514E+03 -0.96635773769E+01  0.22417386066E+03  0.12500000000E+03 0.  0.
</event>
<event>
 5    0  0.5728184E-005  0.2186396E+03  0.7546771E-02  0.1134901E+00
         21   -1    0    0  502  501  0.00000000000E+00  0.00000000000E+00  0.22314461569E+02  0.22314461569E+02  0.00000000000E+00 0. -1.
         21   -1    0    0  501  502 -0.00000000000E+00 -0.00000000000E+00 -0.21422548741E+04  0.21422548741E+04  0.00000000000E+00 0. -1.
         25    1    1    2    0    0 -0.40099585262E+02  0.33585335748E+02 -0.40905244120E+03  0.43091165123E+03  0.12500000000E+03 0.  0.
         25    1    1    2    0    0 -0.29121435299E+02 -0.28517481917E+01 -0.63127134475E+03  0.64419306203E+03  0.12500000000E+03 0.  0.
         25    1    1    2    0    0  0.69221020561E+02 -0.30733587556E+02 -0.10796166266E+04  0.10894646224E+04  0.12500000000E+03 0.  0.
</event>
<event>
 5    0  0.6032551E-005  0.2663941E+03  0.7546771E-02  0.1103361E+00
         21   -1    0    0  502  501  0.00000000000E+00  0.00000000000E+00  0.57426831026E+03  0.57426831026E+03  0.00000000000E+00 0. -1.
         21   -1    0    0  501  502 -0.00000000000E+00 -0.00000000000E+00 -0.12357605732E+03  0.12357605732E+03  0.00000000000E+00 0. -1.
         25    1    1    2    0    0 -0.14807069878E+02  0.63524128076E+01  0.18315656474E+03  0.22233067641E+03  0.12500000000E+03 0.  0.
         25    1    1    2    0    0  0.77674703949E+02  0.11709105434E+03  0.20624453858E+03  0.27911553940E+03  0.12500000000E+03 0.  0.
         25    1    1    2    0    0 -0.62867634071E+02 -0.12344346715E+03  0.61291149622E+02  0.19639815177E+03  0.12500000000E+03 0.  0.
</event>
<event>
 5    0  0.5728184E-005  0.3171650E+03  0.7546771E-02  0.1076962E+00
         21   -1    0    0  502  501  0.00000000000E+00  0.00000000000E+00  0.46714839652E+03  0.46714839652E+03  0.00000000000E+00 0. -1.
         21   -1    0    0  501  502 -0.00000000000E+00 -0.00000000000E+00 -0.21533546118E+03  0.21533546118E+03  0.00000000000E+00 0. -1.
         25    1    1    2    0    0  0.63172500932E+02  0.98286974580E+01  0.24644727808E+03  0.28363467531E+03  0.12500000000E+03 0.  0.
         25    1    1    2    0    0  0.52695369243E+02  0.23427747954E+02  0.12662930475E+03  0.18704449240E+03  0.12500000000E+03 0.  0.
         25    1    1    2    0    0 -0.11586787018E+03 -0.33256445412E+02 -0.12126364748E+03  0.21180468999E+03  0.12500000000E+03 0.  0.
</event>
<event>
 5    0  0.5728184E-005  0.3162438E+03  0.7546771E-02  0.1077391E+00
         21   -1    0    0  502  501  0.00000000000E+00  0.00000000000E+00  0.16835774640E+03  0.16835774640E+03  0.00000000000E+00 0. -1.
         21   -1    0    0  501  502 -0.00000000000E+00 -0.00000000000E+00 -0.59403339746E+03  0.59403339746E+03  0.00000000000E+00 0. -1.
         25    1    1    2    0    0  0.91805842201E+02  0.62179031039E+02 -0.46233568748E+02  0.17336979968E+03  0.12500000000E+03 0.  0.
         25    1    1    2    0    0 -0.36585308972E+02 -0.12131396302E+03  0.36307547523E+01  0.17802737103E+03  0.12500000000E+03 0.  0.
         25    1    1    2    0    0 -0.55220533229E+02  0.59134931984E+02 -0.38307283706E+03  0.41099397315E+03  0.12500000000E+03 0.  0.
</event>
<event>
 5    0  0.5728184E-005  0.2297176E+03  0.7546771E-02  0.1126839E+00
         21   -1    0    0  502  501  0.00000000000E+00  0.00000000000E+00  0.12091545758E+04  0.12091545758E+04  0.00000000000E+00 0.  1.
         21   -1    0    0  501  502 -0.00000000000E+00 -0.00000000000E+00 -0.43642202836E+02  0.43642202836E+02  0.00000000000E+00 0.  1.
         25    1    1    2    0    0 -0.52086828364E+02 -0.34584840047E+02  0.39143934053E+03  0.41564276268E+03  0.12500000000E+03 0.  0.
         25    1    1    2    0    0 -0.10435241834E+02 -0.26196191310E+02  0.16287352717E+03  0.20723880081E+03  0.12500000000E+03 0.  0.
         25    1    1    2    0    0  0.62522070197E+02  0.60781031357E+02  0.61119950529E+03  0.62991521517E+03  0.12500000000E+03 0.  0.
</event>
<event>
 5    0  0.5728184E-005  0.2644814E+03  0.7546771E-02  0.1104480E+00
         21   -1    0    0  502  501  0.00000000000E+00  0.00000000000E+00  0.18392442940E+03  0.18392442940E+03  0.00000000000E+00 0. -1.
         21   -1    0    0  501  502 -0.00000000000E+00 -0.00000000000E+00 -0.38032156672E+03  0.38032156672E+03  0.00000000000E+00 0. -1.
         25    1    1    2    0    0 -0.66010379400E+01  0.71970045568E+01 -0.28192848896E+02  0.12851150651E+03  0.12500000000E+03 0.  0.
         25    1    1    2    0    0 -0.13474757253E+03 -0.78544178688E+02 -0.74590569123E+02  0.21334209456E+03  0.12500000000E+03 0.  0.
         25    1    1    2    0    0  0.14134861047E+03  0.71347174131E+02 -0.93613719304E+02  0.22239239506E+03  0.12500000000E+03 0.  0.
</event>
<event>
 5    0  0.5728184E-005  0.3265009E+03  0.7546771E-02  0.1072696E+00
         21   -1    0    0  502  501  0.00000000000E+00  0.00000000000E+00  0.31026306815E+03  0.31026306815E+03  0.00000000000E+00 0. -1.
         21   -1    0    0  501  502 -0.00000000000E+00 -0.00000000000E+00 -0.34358864953E+03  0.34358864953E+03  0.00000000000E+00 0. -1.
         25    1    1    2    0    0  0.92009712324E+02  0.86892564455E+02  0.91929125911E+02  0.20023004048E+03  0.12500000000E+03 0.  0.
         25    1    1    2    0    0 -0.16222303401E+03 -0.17794326524E+02  0.55359986594E+02  0.21289123734E+03  0.12500000000E+03 0.  0.
         25    1    1    2    0    0  0.70213321690E+02 -0.69098237931E+02 -0.18061469388E+03  0.24073043986E+03  0.12500000000E+03 0.  0.
</event>
<event>
 5    0  0.5728184E-005  0.3792090E+03  0.7546771E-02  0.1051226E+00
         21   -1    0    0  502  501  0.00000000000E+00  0.00000000000E+00  0.71329077654E+03  0.71329077654E+03  0.00000000000E+00 0.  1.
         21   -1    0    0  501  502 -0.00000000000E+00 -0.00000000000E+00 -0.20160009507E+03  0.20160009507E+03  0.00000000000E+00 0.  1.
         25    1    1    2    0    0 -0.10036956944E+03  0.13994559867E+03  0.64579951886E+02  0.22238343293E+03  0.12500000000E+03 0.  0.
         25    1    1    2    0    0 -0.11273504803E+03 -0.18190606272E+03  0.33814402055E+03  0.41924382565E+03  0.12500000000E+03 0.  0.
         25    1    1    2    0    0  0.21310461747E+03  0.41960464048E+02  0.10896670904E+03  0.27326361303E+03  0.12500000000E+03 0.  0.
</event>
<event>
 5    0  0.6033885E-005  0.3516990E+03  0.7546771E-02  0.1061920E+00
         21   -1    0    0  502  501  0.00000000000E+00  0.00000000000E+00  0.31309153140E+03  0.31309153140E+03  0.00000000000E+00 0. -1.
         21   -1    0    0  501  502 -0.00000000000E+00 -0.00000000000E+00 -0.39506711967E+03  0.39506711967E+03  0.00000000000E+00 0. -1.
         25    1    1    2    0    0  0.49312079036E+02  0.22286157587E+03 -0.17084057798E+01  0.26024388905E+03  0.12500000000E+03 0.  0.
         25    1    1    2    0    0 -0.13293939493E+03 -0.13335989324E+03  0.47844943960E+02  0.23102355402E+03  0.12500000000E+03 0.  0.
         25    1    1    2    0    0  0.83627315899E+02 -0.89501682635E+02 -0.12811212645E+03  0.21689120799E+03  0.12500000000E+03 0.  0.
</event>
<event>
 5    0  0.5728184E-005  0.3390006E+03  0.7546771E-02  0.1067222E+00
         21   -1    0    0  502  501  0.00000000000E+00  0.00000000000E+00  0.17671832425E+04  0.17671832425E+04  0.00000000000E+00 0.  1.
         21   -1    0    0  501  502 -0.00000000000E+00 -0.00000000000E+00 -0.65030841145E+02  0.65030841145E+02  0.00000000000E+00 0.  1.
         25    1    1    2    0    0  0.13458561666E+02  0.18189614068E+03  0.97476421570E+03  0.99952869648E+03  0.12500000000E+03 0.  0.
         25    1    1    2    0    0 -0.34375570527E+02 -0.22828270196E+03  0.55320121948E+03  0.61233263925E+03  0.12500000000E+03 0.  0.
         25    1    1    2    0    0  0.20917008862E+02  0.46386561286E+02  0.17418696618E+03  0.22035274792E+03  0.12500000000E+03 0.  0.
</event>
<event>
 5    0  0.5728184E-005  0.2920752E+03  0.7546771E-02  0.1089271E+00
         21   -1    0    0  502  501  0.00000000000E+00  0.00000000000E+00  0.98263900527E+03  0.98263900527E+03  0.00000000000E+00 0.  1.
         21   -1    0    0  501  502 -0.00000000000E+00 -0.00000000000E+00 -0.86815133404E+02  0.86815133404E+02  0.00000000000E+00 0.  1.
         25    1    1    2    0    0  0.72227741595E+02 -0.15761869025E+02  0.72686529828E+03  0.74123103349E+03  0.12500000000E+03 0.  0.
         25    1    1    2    0    0 -0.46019099869E+02  0.13502198381E+02  0.25777644687E+02  0.13634351426E+03  0.12500000000E+03 0.  0.
         25    1    1    2    0    0 -0.26208641726E+02  0.22596706441E+01  0.14318092890E+03  0.19187959092E+03  0.12500000000E+03 0.  0.
</event>
<event>
 5    0  0.5728184E-005  0.3760534E+03  0.7546771E-02  0.1052402E+00
         21   -1    0    0  502  501  0.00000000000E+00  0.00000000000E+00  0.24857043816E+03  0.24857043816E+03  0.00000000000E+00 0. -1.
         21   -1    0    0  501  502 -0.00000000000E+00 -0.00000000000E+00 -0.56891773965E+03  0.56891773965E+03  0.00000000000E+00 0. -1.
         25    1    1    2    0    0  0.38726714656E+02 -0.21457249871E+02  0.64332493695E+02  0.14739010057E+03  0.12500000000E+03 0.  0.
         25    1    1    2    0    0  0.90247462466E+02 -0.93388456823E+02 -0.41717221671E+03  0.45444875040E+03  0.12500000000E+03 0.  0.
         25    1    1    2    0    0 -0.12897417712E+03  0.11484570669E+03  0.32492421518E+02  0.21564932684E+03  0.12500000000E+03 0.  0.
</event>
<event>
 5    0  0.5728184E-005  0.3699851E+03  0.7546771E-02  0.1054699E+00
         21   -1    0    0  502  501  0.00000000000E+00  0.00000000000E+00  0.17592229086E+03  0.17592229086E+03  0.00000000000E+00 0.  1.
         21   -1    0    0  501  502 -0.00000000000E+00 -0.00000000000E+00 -0.77812163646E+03  0.77812163646E+03  0.00000000000E+00 0.  1.
         25    1    1    2    0    0  0.88447353833E+02 -0.15754671844E+03 -0.47764106677E+03  0.52574698435E+03  0.12500000000E+03 0.  0.
         25    1    1    2    0    0  0.55695440566E+01  0.64860270480E+02  0.73911249882E+02  0.15914065278E+03  0.12500000000E+03 0.  0.
         25    1    1    2    0    0 -0.94016897890E+02  0.92686447962E+02 -0.19846952872E+03  0.26915629020E+03  0.12500000000E+03 0.  0.
</event>
<event>
 5    0  0.5728184E-005  0.3250608E+03  0.7546771E-02  0.1073343E+00
         21   -1    0    0  502  501  0.00000000000E+00  0.00000000000E+00  0.47274403764E+03  0.47274403764E+03  0.00000000000E+00 0.  1.
         21   -1    0    0  501  502 -0.00000000000E+00 -0.00000000000E+00 -0.22351314213E+03  0.22351314213E+03  0.00000000000E+00 0.  1.
         25    1    1    2    0    0 -0.78101506844E+02  0.17668238200E+02 -0.11511258224E+03  0.18785078813E+03  0.12500000000E+03 0.  0.
         25    1    1    2    0    0  0.29430776732E+02 -0.94499850918E+02  0.30242523177E+03  0.34188070032E+03  0.12500000000E+03 0.  0.
         25    1    1    2    0    0  0.48670730112E+02  0.76831612718E+02  0.61918245984E+02  0.16652569132E+03  0.12500000000E+03 0.  0.
</event>
<event>
 5    0  0.5728184E-005  0.3456743E+03  0.7546771E-02  0.1064405E+00
         21   -1    0    0  502  501  0.00000000000E+00  0.00000000000E+00  0.14276082634E+03  0.14276082634E+03  0.00000000000E+00 0.  1.
         21   -1    0    0  501  502 -0.00000000000E+00 -0.00000000000E+00 -0.83699927638E+03  0.83699927638E+03  0.00000000000E+00 0.  1.
         25    1    1    2    0    0 -0.16946117130E+03  0.61290185123E+02 -0.20390739873E+03  0.29946085325E+03  0.12500000000E+03 0.  0.
         25    1    1    2    0    0  0.24949393798E+03  0.25285210796E+02 -0.39349003489E+03  0.48305897625E+03  0.12500000000E+03 0.  0.
         25    1    1    2    0    0 -0.80032766686E+02 -0.86575395918E+02 -0.96841016423E+02  0.19724027323E+03  0.12500000000E+03 0.  0.
</event>
<event>
 5    0  0.5728184E-005  0.2272286E+03  0.7546771E-02  0.1128606E+00
         21   -1    0    0  502  501  0.00000000000E+00  0.00000000000E+00  0.61409482020E+02  0.61409482020E+02  0.00000000000E+00 0. -1.
         21   -1    0    0  501  502 -0.00000000000E+00 -0.00000000000E+00 -0.84079615003E+03  0.84079615003E+03  0.00000000000E+00 0. -1.
         25    1    1    2    0    0  0.35822073476E+02  0.95181883958E+02 -0.20919290635E+03  0.26406340915E+03  0.12500000000E+03 0.  0.
         25    1    1    2    0    0 -0.59095235854E+02 -0.24733548274E+02 -0.30281534196E+03  0.33380552218E+03  0.12500000000E+03 0.  0.
         25    1    1    2    0    0  0.23273162378E+02 -0.70448335684E+02 -0.26737841970E+03  0.30433670073E+03  0.12500000000E+03 0.  0.
</event>
<event>
 5    0  0.5728184E-005  0.3519505E+03  0.7546771E-02  0.1061817E+00
         21   -1    0    0  502  501  0.00000000000E+00  0.00000000000E+00  0.15827561486E+03  0.15827561486E+03  0.00000000000E+00 0. -1.
         21   -1    0    0  501  502 -0.00000000000E+00 -0.00000000000E+00 -0.78261695439E+03  0.78261695439E+03  0.00000000000E+00 0. -1.
         25    1    1    2    0    0  0.11427602649E+03  0.97989926446E+02 -0.55760434960E+03  0.59093878415E+03  0.12500000000E+03 0.  0.
         25    1    1    2    0    0 -0.91538812987E+02 -0.51432371034E+02  0.50539387327E+02  0.17089140629E+03  0.12500000000E+03 0.  0.
         25    1    1    2    0    0 -0.22737213502E+02 -0.46557555412E+02 -0.11727637725E+03  0.17906237881E+03  0.12500000000E+03 0.  0.
</event>
<event>
 5    0  0.5728184E-005  0.3138320E+03  0.7546771E-02  0.1078524E+00
         21   -1    0    0  502  501  0.00000000000E+00  0.00000000000E+00  0.42453343275E+03  0.42453343275E+03  0.00000000000E+00 0.  1.
         21   -1    0    0  501  502 -0.00000000000E+00 -0.00000000000E+00 -0.23199703134E+03  0.23199703134E+03  0.00000000000E+00 0.  1.
         25    1    1    2    0    0  0.83523093482E+02 -0.20904575912E+03  0.15660765236E+03  0.30137550221E+03  0.12500000000E+03 0.  0.
         25    1    1    2    0    0 -0.50211994617E+01  0.65815714014E+02  0.47578863433E+02  0.14914982032E+03  0.12500000000E+03 0.  0.
         25    1    1    2    0    0 -0.78501894020E+02  0.14323004511E+03 -0.11650114378E+02  0.20600514157E+03  0.12500000000E+03 0.  0.
</event>
<event>
 5    0  0.5728184E-005  0.4510127E+03  0.7546771E-02  0.1027420E+00
         21   -1    0    0  502  501  0.00000000000E+00  0.00000000000E+00  0.15853720298E+03  0.15853720298E+03  0.00000000000E+00 0. -1.
         21   -1    0    0  501  502 -0.00000000000E+00 -0.00000000000E+00 -0.12830582641E+04  0.12830582641E+04  0.00000000000E+00 0. -1.
         25    1    1    2    0    0 -0.38863401361E+02 -0.50666531237E+02 -0.81841475800E+02  0.16248227138E+03  0.12500000000E+03 0.  0.
         25    1    1    2    0    0 -0.24501173290E+03  0.17447737678E+03 -0.22506811246E+03  0.39592140573E+03  0.12500000000E+03 0.  0.
         25    1    1    2    0    0  0.28387513427E+03 -0.12381084555E+03 -0.81761147290E+03  0.88319179001E+03  0.12500000000E+03 0.  0.
</event>
<event>
 5    0  0.5728184E-005  0.2663304E+03  0.7546771E-02  0.1103398E+00
         21   -1    0    0  502  501  0.00000000000E+00  0.00000000000E+00  0.91069997896E+02  0.91069997896E+02  0.00000000000E+00 0. -1.
         21   -1    0    0  501  502 -0.00000000000E+00 -0.00000000000E+00 -0.77887194610E+03  0.77887194610E+03  0.00000000000E+00 0. -1.
         25    1    1    2    0    0 -0.33804319056E+02 -0.37183631878E+02 -0.14625466626E+02  0.13551479159E+03  0.12500000000E+03 0.  0.
         25    1    1    2    0    0 -0.12109642606E+02 -0.46503848013E+02 -0.26304620863E+03  0.29517377796E+03  0.12500000000E+03 0.  0.
         25    1    1    2    0    0  0.45913961661E+02  0.83687479891E+02 -0.41013027295E+03  0.43925337444E+03  0.12500000000E+03 0.  0.
</event>
<event>
 5    0  0.5728184E-005  0.4091639E+03  0.7546771E-02  0.1040652E+00
         21   -1    0    0  502  501  0.00000000000E+00  0.00000000000E+00  0.25377695992E+03  0.25377695992E+03  0.00000000000E+00 0.  1.
         21   -1    0    0  501  502 -0.00000000000E+00 -0.00000000000E+00 -0.65969373212E+03  0.65969373212E+03  0.00000000000E+00 0.  1.
         25    1    1    2    0    0 -0.10929571177E+03  0.11899171411E+03  0.10618041751E+03  0.23022567559E+03  0.12500000000E+03 0.  0.
         25    1    1    2    0    0  0.19582728154E+02 -0.10780164481E+03 -0.19864788958E+02  0.16740456298E+03  0.12500000000E+03 0.  0.
         25    1    1    2    0    0  0.89712983613E+02 -0.11190069299E+02 -0.49223240075E+03  0.51584045346E+03  0.12500000000E+03 0.  0.
</event>
<event>
 5    0  0.5728184E-005  0.3322356E+03  0.7546771E-02  0.1070152E+00
         21   -1    0    0  502  501  0.00000000000E+00  0.00000000000E+00  0.59750295106E+03  0.59750295106E+03  0.00000000000E+00 0.  1.
         21   -1    0    0  501  502 -0.00000000000E+00 -0.00000000000E+00 -0.18473627540E+03  0.18473627540E+03  0.00000000000E+00 0.  1.
         25    1    1    2    0    0  0.49874531249E+02 -0.21454048534E+03  0.28645162237E+03  0.38235405147E+03  0.12500000000E+03 0.  0.
         25    1    1    2    0    0 -0.43101084253E+02  0.13042450029E+03 -0.23619353171E+02  0.18721946369E+03  0.12500000000E+03 0.  0.
         25    1    1    2    0    0 -0.67734469964E+01  0.84115985048E+02  0.14993440645E+03  0.21266571130E+03  0.12500000000E+03 0.  0.
</event>
<event>
 5    0  0.5728184E-005  0.3707664E+03  0.7546771E-02  0.1054400E+00
         21   -1    0    0  502  501  0.00000000000E+00  0.00000000000E+00  0.11967915158E+03  0.11967915158E+03  0.00000000000E+00 0. -1.
         21   -1    0    0  501  502 -0.00000000000E+00 -0.00000000000E+00 -0.11486355086E+04  0.11486355086E+04  0.00000000000E+00 0. -1.
         25    1    1    2    0    0 -0.20996028837E+03  0.46894254496E+02 -0.71619332416E+03  0.75818221515E+03  0.12500000000E+03 0.  0.
         25    1    1    2    0    0  0.22016733819E+03  0.23381529672E+02 -0.23720231783E+03  0.34772157298E+03  0.12500000000E+03 0.  0.
         25    1    1    2    0    0 -0.10207049812E+02 -0.70275784168E+02 -0.75560715033E+02  0.16241087206E+03  0.12500000000E+03 0.  0.
</event>
<event>
 5    0  0.5728184E-005  0.2651011E+03  0.7546771E-02  0.1104117E+00
         21   -1    0    0  502  501  0.00000000000E+00  0.00000000000E+00  0.20502991167E+02  0.20502991167E+02  0.00000000000E+00 0.  1.
         21   -1    0    0  501  502 -0.00000000000E+00 -0.00000000000E+00 -0.34277238933E+04  0.34277238933E+04  0.00000000000E+00 0.  1.
         25    1    1    2    0    0  0.58631012553E+02 -0.75849740624E+01 -0.42292087386E+03  0.44495189966E+03  0.12500000000E+03 0.  0.
         25    1    1    2    0    0 -0.30947086374E+02 -0.10507466770E+03 -0.14070840318E+04  0.14168658654E+04  0.12500000000E+03 0.  0.
         25    1    1    2    0    0 -0.27683926178E+02  0.11265964177E+03 -0.15772159964E+04  0.15864091194E+04  0.12500000000E+03 0.  0.
</event>
<event>
 5    0  0.5728184E-005  0.3639903E+03  0.7546771E-02  0.1057015E+00
         21   -1    0    0  502  501  0.00000000000E+00  0.00000000000E+00  0.76231107078E+02  0.76231107078E+02  0.00000000000E+00 0. -1.
         21   -1    0    0  501  502 -0.00000000000E+00 -0.00000000000E+00 -0.17379901694E+04  0.17379901694E+04  0.00000000000E+00 0. -1.
         25    1    1    2    0    0  0.75738981740E+02  0.30579316084E+02 -0.92272937935E+03  0.93473311455E+03  0.12500000000E+03 0.  0.
         25    1    1    2    0    0 -0.96638801763E+02  0.17466181487E+03 -0.35832997031E+03  0.42880202332E+03  0.12500000000E+03 0.  0.
         25    1    1    2    0    0  0.20899820022E+02 -0.20524113095E+03 -0.38069971267E+03  0.45068613862E+03  0.12500000000E+03 0.  0.
</event>
<event>
 5    0  0.5728184E-005  0.2756324E+03  0.7546771E-02  0.1098099E+00
         21   -1    0    0  502  501  0.00000000000E+00  0.00000000000E+00  0.40372764087E+03  0.40372764087E+03  0.00000000000E+00 0. -1.
         21   -1    0    0  501  502 -0.00000000000E+00 -0.00000000000E+00 -0.18817945400E+03  0.18817945400E+03  0.00000000000E+00 0. -1.
         25    1    1    2    0    0 -0.39669132545E+02 -0.60573916759E+02  0.26551437594E+03  0.30226763522E+03  0.12500000000E+03 0.  0.
         25    1    1    2    0    0  0.74263896995E+02  0.12401039648E+02 -0.13433413598E+02  0.14654135519E+03  0.12500000000E+03 0.  0.
         25    1    1    2    0    0 -0.34594764450E+02  0.48172877111E+02 -0.36532775477E+02  0.14309810446E+03  0.12500000000E+03 0.  0.
</event>
<event>
 5    0  0.5728184E-005  0.3004522E+03  0.7546771E-02  0.1085015E+00
         21   -1    0    0  502  501  0.00000000000E+00  0.00000000000E+00  0.43129283631E+02  0.43129283631E+02  0.00000000000E+00 0.  1.
         21   -1    0    0  501  502 -0.00000000000E+00 -0.00000000000E+00 -0.20930445689E+04  0.20930445689E+04  0.00000000000E+00 0.  1.
         25    1    1    2    0    0  0.10415501366E+03 -0.30147065105E+02 -0.95774810098E+03  0.97193803163E+03  0.12500000000E+03 0.  0.
         25    1    1    2    0    0 -0.17443780128E+03  0.10006677294E+03 -0.75435861180E+03  0.79064772229E+03  0.12500000000E+03 0.  0.
         25    1    1    2    0    0  0.70282787616E+02 -0.69919707830E+02 -0.33780857252E+03  0.37358809864E+03  0.12500000000E+03 0.  0.
</event>
<event>
 5    0  0.5728184E-005  0.2654582E+03  0.7546771E-02  0.1103908E+00
         21   -1    0    0  502  501  0.00000000000E+00  0.00000000000E+00  0.20688208950E+03  0.20688208950E+03  0.00000000000E+00 0. -1.
         21   -1    0    0  501  502 -0.00000000000E+00 -0.00000000000E+00 -0.34061934802E+03  0.34061934802E+03  0.00000000000E+00 0. -1.
         25    1    1    2    0    0 -0.43768736563E+02 -0.71749016184E+02  0.74658522346E+02  0.16811459955E+03  0.12500000000E+03 0.  0.
         25    1    1    2    0    0 -0.17708854362E+02 -0.43303767410E+02 -0.11408573531E+03  0.17558295702E+03  0.12500000000E+03 0.  0.
         25    1    1    2    0    0  0.61477590925E+02  0.11505278359E+03 -0.94310045550E+02  0.20380388095E+03  0.12500000000E+03 0.  0.
</event>
<event>
 5    0  0.5728184E-005  0.6161065E+03  0.7546771E-02  0.9872542E-01
         21   -1    0    0  502  501  0.00000000000E+00  0.00000000000E+00  0.27589640972E+03  0.27589640972E+03  0.00000000000E+00 0. -1.
         21   -1    0    0  501  502 -0.00000000000E+00 -0.00000000000E+00 -0.13758325730E+04  0.13758325730E+04  0.00000000000E+00 0. -1.
         25    1    1    2    0    0  0.56935247910E+03 -0.95747006352E+02 -0.53437181926E+03  0.79656008932E+03  0.12500000000E+03 0.  0.
         25    1    1    2    0    0 -0.41371773195E+03  0.79511877253E+02 -0.41701572277E+03  0.60581483425E+03  0.12500000000E+03 0.  0.
         25    1    1    2    0    0 -0.15563474715E+03  0.16235129099E+02 -0.14854862124E+03  0.24935405914E+03  0.12500000000E+03 0.  0.
</event>
<event>
 5    0  0.5728184E-005  0.2420809E+03  0.7546771E-02  0.1118414E+00
         21   -1    0    0  502  501  0.00000000000E+00  0.00000000000E+00  0.14625784207E+04  0.14625784207E+04  0.00000000000E+00 0. -1.
         21   -1    0    0  501  502 -0.00000000000E+00 -0.00000000000E+00 -0.40068385467E+02  0.40068385467E+02  0.00000000000E+00 0. -1.
         25    1    1    2    0    0 -0.39266277170E+02  0.79681452747E+02  0.63062138873E+03  0.64899869827E+03  0.12500000000E+03 0.  0.
         25    1    1    2    0    0  0.27814706112E+01 -0.98755048445E+02  0.25353338358E+03  0.29944026576E+03  0.12500000000E+03 0.  0.
         25    1    1    2    0    0  0.36484806559E+02  0.19073595699E+02  0.53835526295E+03  0.55420784216E+03  0.12500000000E+03 0.  0.
</event>
<event>
 5    0  0.5728184E-005  0.3961097E+03  0.7546771E-02  0.1045135E+00
         21   -1    0    0  502  501  0.00000000000E+00  0.00000000000E+00  0.56132602063E+03  0.56132602063E+03  0.00000000000E+00 0. -1.
         21   -1    0    0  501  502 -0.00000000000E+00 -0.00000000000E+00 -0.27952181066E+03  0.27952181066E+03  0.00000000000E+00 0. -1.
         25    1    1    2    0    0 -0.38202255337E+02  0.50006942627E+02 -0.70461141776E+02  0.15668401043E+03  0.12500000000E+03 0.  0.
         25    1    1    2    0    0  0.16510092186E+03 -0.70028703355E+02 -0.66628066962E+02  0.22853147048E+03  0.12500000000E+03 0.  0.
         25    1    1    2    0    0 -0.12689866653E+03  0.20021760728E+02  0.41889341871E+03  0.45563235037E+03  0.12500000000E+03 0.  0.
</event>
<event>
 5    0  0.6776103E-005  0.3308670E+03  0.7546771E-02  0.1070754E+00
         21   -1    0    0  502  501  0.00000000000E+00  0.00000000000E+00  0.64009747427E+03  0.64009747427E+03  0.00000000000E+00 0. -1.
         21   -1    0    0  501  502 -0.00000000000E+00 -0.00000000000E+00 -0.17102548155E+03  0.17102548155E+03  0.00000000000E+00 0. -1.
         25    1    1    2    0    0  0.14447891585E+03  0.53175241442E+02  0.11440893550E+03  0.22894577513E+03  0.12500000000E+03 0.  0.
         25    1    1    2    0    0 -0.47269342858E+02 -0.48739822977E+02 -0.47474900898E+02  0.14996275315E+03  0.12500000000E+03 0.  0.
         25    1    1    2    0    0 -0.97209572988E+02 -0.44354184653E+01  0.40213795811E+03  0.43221442754E+03  0.12500000000E+03 0.  0.
</event>
<event>
 5    0  0.5728184E-005  0.3366470E+03  0.7546771E-02  0.1068233E+00
         21   -1    0    0  502  501  0.00000000000E+00  0.00000000000E+00  0.34014746747E+03  0.34014746747E+03  0.00000000000E+00 0.  1.
         21   -1    0    0  501  502 -0.00000000000E+00 -0.00000000000E+00 -0.33318261054E+03  0.33318261054E+03  0.00000000000E+00 0.  1.
         25    1    1    2    0    0 -0.10737872320E+03  0.11402556994E+03 -0.72382415595E+02  0.21306392206E+03  0.12500000000E+03 0.  0.
         25    1    1    2    0    0 -0.10605541334E+03  0.30242937994E+02  0.20664607513E+02  0.16797146187E+03  0.12500000000E+03 0.  0.
         25    1    1    2    0    0  0.21343413654E+03 -0.14426850793E+03  0.58682665013E+02  0.29229469409E+03  0.12500000000E+03 0.  0.
</event>
<event>
 5    0  0.5728184E-005  0.3503962E+03  0.7546771E-02  0.1062453E+00
         21   -1    0    0  502  501  0.00000000000E+00  0.00000000000E+00  0.12289130815E+03  0.12289130815E+03  0.00000000000E+00 0.  1.
         21   -1    0    0  501  502 -0.00000000000E+00 -0.00000000000E+00 -0.99907364167E+03  0.99907364167E+03  0.00000000000E+00 0.  1.
         25    1    1    2    0    0  0.26002302103E+02  0.11594130306E+03 -0.62975710159E+03  0.65294525994E+03  0.12500000000E+03 0.  0.
         25    1    1    2    0    0 -0.13148909660E+03 -0.80207770977E+02 -0.38490414354E+02  0.20206231971E+03  0.12500000000E+03 0.  0.
         25    1    1    2    0    0  0.10548679450E+03 -0.35733532080E+02 -0.20793481758E+03  0.26695737017E+03  0.12500000000E+03 0.  0.
</event>
<event>
 5    0  0.5728184E-005  0.3601563E+03  0.7546771E-02  0.1058522E+00
         21   -1    0    0  502  501  0.00000000000E+00  0.00000000000E+00  0.88547206393E+02  0.88547206393E+02  0.00000000000E+00 0.  1.
         21   -1    0    0  501  502 -0.00000000000E+00 -0.00000000000E+00 -0.14648975463E+04  0.14648975463E+04  0.00000000000E+00 0.  1.
         25    1    1    2    0    0 -0.90463881060E+02 -0.18700753137E+03 -0.39286968650E+03  0.46165693013E+03  0.12500000000E+03 0.  0.
         25    1    1    2    0    0  0.44653182809E+02  0.16295778493E+03 -0.17917620660E+03  0.27618519043E+03  0.12500000000E+03 0.  0.
         25    1    1    2    0    0  0.45810698251E+02  0.24049746446E+02 -0.80430444681E+03  0.81560263212E+03  0.12500000000E+03 0.  0.
</event>
<event>
 5    0  0.5728184E-005  0.3697056E+03  0.7546771E-02  0.1054806E+00
         21   -1    0    0  502  501  0.00000000000E+00  0.00000000000E+00  0.94268142264E+02  0.94268142264E+02  0.00000000000E+00 0. -1.
         21   -1    0    0  501  502 -0.00000000000E+00 -0.00000000000E+00 -0.14499299287E+04  0.14499299287E+04  0.00000000000E+00 0. -1.
         25    1    1    2    0    0 -0.16604657429E+03 -0.12545770914E+02 -0.10439195945E+04  0.10644820247E+04  0.12500000000E+03 0.  0.
         25    1    1    2    0    0  0.78919777589E+02  0.89672589326E+02 -0.76616141791E+02  0.18911514417E+03  0.12500000000E+03 0.  0.
         25    1    1    2    0    0  0.87126796704E+02 -0.77126818412E+02 -0.23512605015E+03  0.29060090207E+03  0.12500000000E+03 0.  0.
</event>
<event>
 5    0  0.5728184E-005  0.5670055E+03  0.7546771E-02  0.9976327E-01
         21   -1    0    0  502  501  0.00000000000E+00  0.00000000000E+00  0.25251138391E+03  0.25251138391E+03  0.00000000000E+00 0. -1.
         21   -1    0    0  501  502 -0.00000000000E+00 -0.00000000000E+00 -0.12731909035E+04  0.12731909035E+04  0.00000000000E+00 0. -1.
         25    1    1    2    0    0  0.14534762056E+03  0.96518300385E+02 -0.13026806970E+03  0.25107067351E+03  0.12500000000E+03 0.  0.
         25    1    1    2    0    0  0.15848022568E+03  0.32140835667E+03 -0.39938701235E+03  0.55095762024E+03  0.12500000000E+03 0.  0.
         25    1    1    2    0    0 -0.30382784624E+03 -0.41792665706E+03 -0.49102443751E+03  0.72367399363E+03  0.12500000000E+03 0.  0.
</event>
<event>
 5    0  0.5728184E-005  0.3264782E+03  0.7546771E-02  0.1072706E+00
         21   -1    0    0  502  501  0.00000000000E+00  0.00000000000E+00  0.27749099331E+03  0.27749099331E+03  0.00000000000E+00 0. -1.
         21   -1    0    0  501  502 -0.00000000000E+00 -0.00000000000E+00 -0.38411337502E+03  0.38411337502E+03  0.00000000000E+00 0. -1.
         25    1    1    2    0    0  0.84901644056E+02  0.55254651549E+02 -0.89584759023E+02  0.18415155370E+03  0.12500000000E+03 0.  0.
         25    1    1    2    0    0 -0.13650519651E+03  0.38134690269E+02  0.15138158155E+03  0.24213489320E+03  0.12500000000E+03 0.  0.
         25    1    1    2    0    0  0.51603552453E+02 -0.93389341818E+02 -0.16841920423E+03  0.23531792143E+03  0.12500000000E+03 0.  0.
</event>
<event>
 5    0  0.5728184E-005  0.3134640E+03  0.7546771E-02  0.1078697E+00
         21   -1    0    0  502  501  0.00000000000E+00  0.00000000000E+00  0.21948251908E+04  0.21948251908E+04  0.00000000000E+00 0. -1.
         21   -1    0    0  501  502 -0.00000000000E+00 -0.00000000000E+00 -0.44768804948E+02  0.44768804948E+02  0.00000000000E+00 0. -1.
         25    1    1    2    0    0  0.84417626343E+02  0.59312423604E+02  0.39082116205E+03  0.42309630102E+03  0.12500000000E+03 0.  0.
         25    1    1    2    0    0 -0.20917513031E+02 -0.20909249437E+03  0.85452347113E+03  0.88881526554E+03  0.12500000000E+03 0.  0.
         25    1    1    2    0    0 -0.63500113312E+02  0.14978007077E+03  0.90471175268E+03  0.92768242919E+03  0.12500000000E+03 0.  0.
</event>
<event>
 5    0  0.5728184E-005  0.3149729E+03  0.7546771E-02  0.1077986E+00
         21   -1    0    0  502  501  0.00000000000E+00  0.00000000000E+00  0.21024590024E+03  0.21024590024E+03  0.00000000000E+00 0. -1.
         21   -1    0    0  501  502 -0.00000000000E+00 -0.00000000000E+00 -0.47186613793E+03  0.47186613793E+03  0.00000000000E+00 0. -1.
         25    1    1    2    0    0  0.75221696876E+02 -0.13656482610E+03 -0.87547720821E+02  0.21816933522E+03  0.12500000000E+03 0.  0.
         25    1    1    2    0    0  0.12311435668E+02  0.17761412716E+03  0.14366435448E+02  0.21801317410E+03  0.12500000000E+03 0.  0.
         25    1    1    2    0    0 -0.87533132544E+02 -0.41049301064E+02 -0.18843895232E+03  0.24592952885E+03  0.12500000000E+03 0.  0.
</event>
<event>
 5    0  0.5728184E-005  0.2758939E+03  0.7546771E-02  0.1097953E+00
         21   -1    0    0  502  501  0.00000000000E+00  0.00000000000E+00  0.33407239499E+03  0.33407239499E+03  0.00000000000E+00 0.  1.
         21   -1    0    0  501  502 -0.00000000000E+00 -0.00000000000E+00 -0.22784712632E+03  0.22784712632E+03  0.00000000000E+00 0.  1.
         25    1    1    2    0    0 -0.75858162063E+02 -0.30430149061E+02 -0.42317690478E+02  0.15522964166E+03  0.12500000000E+03 0.  0.
         25    1    1    2    0    0  0.67529696730E+02 -0.68343726860E+02 -0.37051389649E+02  0.16195348226E+03  0.12500000000E+03 0.  0.
         25    1    1    2    0    0  0.83284653335E+01  0.98773875921E+02  0.18559434880E+03  0.24473639739E+03  0.12500000000E+03 0.  0.
</event>
<event>
 5    0  0.5728184E-005  0.3526412E+03  0.7546771E-02  0.1061536E+00
         21   -1    0    0  502  501  0.00000000000E+00  0.00000000000E+00  0.46405924260E+03  0.46405924260E+03  0.00000000000E+00 0.  1.
         21   -1    0    0  501  502 -0.00000000000E+00 -0.00000000000E+00 -0.26797394249E+03  0.26797394249E+03  0.00000000000E+00 0.  1.
         25    1    1    2    0    0 -0.15147004682E+03  0.31880711623E+02 -0.66825966411E+02  0.20988154908E+03  0.12500000000E+03 0.  0.
         25    1    1    2    0    0  0.12282163838E+03  0.61129221279E+02 -0.31090735739E+02  0.18818493669E+03  0.12500000000E+03 0.  0.
         25    1    1    2    0    0  0.28648408445E+02 -0.93009932901E+02  0.29400200226E+03  0.33396669932E+03  0.12500000000E+03 0.  0.
</event>
<event>
 5    0  0.5728184E-005  0.2155638E+03  0.7546771E-02  0.1137234E+00
         21   -1    0    0  502  501  0.00000000000E+00  0.00000000000E+00  0.92803384482E+03  0.92803384482E+03  0.00000000000E+00 0. -1.
         21   -1    0    0  501  502 -0.00000000000E+00 -0.00000000000E+00 -0.50071194204E+02  0.50071194204E+02  0.00000000000E+00 0. -1.
         25    1    1    2    0    0  0.31645635538E+02  0.38127901527E+02  0.41565337824E+03  0.43686143565E+03  0.12500000000E+03 0.  0.
         25    1    1    2    0    0  0.38160914511E+02 -0.21772176779E+02  0.17179368749E+03  0.21695242368E+03  0.12500000000E+03 0.  0.
         25    1    1    2    0    0 -0.69806550049E+02 -0.16355724748E+02  0.29051558489E+03  0.32429117969E+03  0.12500000000E+03 0.  0.
</event>
<event>
 5    0  0.5728184E-005  0.2416019E+03  0.7546771E-02  0.1118730E+00
         21   -1    0    0  502  501  0.00000000000E+00  0.00000000000E+00  0.73147014309E+02  0.73147014309E+02  0.00000000000E+00 0. -1.
         21   -1    0    0  501  502 -0.00000000000E+00 -0.00000000000E+00 -0.79800250973E+03  0.79800250973E+03  0.00000000000E+00 0. -1.
         25    1    1    2    0    0  0.35462491521E+02  0.43593846734E+02 -0.32368019923E+03  0.35149947817E+03  0.12500000000E+03 0.  0.
         25    1    1    2    0    0 -0.79316085273E+00 -0.10291331041E+03 -0.11099509147E+03  0.19630763840E+03  0.12500000000E+03 0.  0.
         25    1    1    2    0    0 -0.34669330669E+02  0.59319463675E+02 -0.29018020472E+03  0.32334240747E+03  0.12500000000E+03 0.  0.
</event>
<event>
 5    0  0.5728184E-005  0.3558866E+03  0.7546771E-02  0.1060225E+00
         21   -1    0    0  502  501  0.00000000000E+00  0.00000000000E+00  0.47353377790E+03  0.47353377790E+03  0.00000000000E+00 0.  1.
         21   -1    0    0  501  502 -0.00000000000E+00 -0.00000000000E+00 -0.26746829799E+03  0.26746829799E+03  0.00000000000E+00 0.  1.
         25    1    1    2    0    0  0.16185051846E+03  0.65526913376E+02  0.18878662123E+03  0.28592788436E+03  0.12500000000E+03 0.  0.
         25    1    1    2    0    0 -0.42220554195E+02 -0.16164438421E+03  0.11070768450E+03  0.23620472804E+03  0.12500000000E+03 0.  0.
         25    1    1    2    0    0 -0.11962996427E+03  0.96117470832E+02 -0.93428825822E+02  0.21886946348E+03  0.12500000000E+03 0.  0.
</event>
<event>
 5    0  0.5728184E-005  0.3144908E+03  0.7546771E-02  0.1078213E+00
         21   -1    0    0  502  501  0.00000000000E+00  0.00000000000E+00  0.21887664991E+04  0.21887664991E+04  0.00000000000E+00 0. -1.
         21   -1    0    0  501  502 -0.00000000000E+00 -0.00000000000E+00 -0.45187304889E+02  0.45187304889E+02  0.00000000000E+00 0. -1.
         25    1    1    2    0    0  0.30230500471E+02 -0.55862226842E+02  0.13234011090E+04  0.13308080128E+04  0.12500000000E+03 0.  0.
         25    1    1    2    0    0 -0.13106630409E+03  0.10539079892E+03  0.47839998373E+03  0.52228071092E+03  0.12500000000E+03 0.  0.
         25    1    1    2    0    0  0.10083580362E+03 -0.49528572074E+02  0.34177810147E+03  0.38086508030E+03  0.12500000000E+03 0.  0.
</event>
<event>
 5    0  0.5728184E-005  0.2743227E+03  0.7546771E-02  0.1098831E+00
         21   -1    0    0  502  501  0.00000000000E+00  0.00000000000E+00  0.75666778932E+02  0.75666778932E+02  0.00000000000E+00 0. -1.
         21   -1    0    0  501  502 -0.00000000000E+00 -0.00000000000E+00 -0.99453112514E+03  0.99453112514E+03  0.00000000000E+00 0. -1.
         25    1    1    2    0    0  0.12103559909E+03  0.12602576029E+03 -0.50485770957E+03  0.54866967787E+03  0.12500000000E+03 0.  0.
         25    1    1    2    0    0 -0.55741223857E+02 -0.21949234717E+02 -0.22044261865E+03  0.26040123091E+03  0.12500000000E+03 0.  0.
         25    1    1    2    0    0 -0.65294375230E+02 -0.10407652557E+03 -0.19356401799E+03  0.26112699529E+03  0.12500000000E+03 0.  0.
</event>
<event>
 5    0  0.5728184E-005  0.2706886E+03  0.7546771E-02  0.1100886E+00
         21   -1    0    0  502  501  0.00000000000E+00  0.00000000000E+00  0.61905155339E+02  0.61905155339E+02  0.00000000000E+00 0.  1.
         21   -1    0    0  501  502 -0.00000000000E+00 -0.00000000000E+00 -0.11836220161E+04  0.11836220161E+04  0.00000000000E+00 0.  1.
         25    1    1    2    0    0 -0.11728337935E+03 -0.15898020067E+02 -0.13064106407E+03  0.21610235014E+03  0.12500000000E+03 0.  0.
         25    1    1    2    0    0  0.50301023412E+02  0.18957503832E+02 -0.51428853344E+03  0.53198428129E+03  0.12500000000E+03 0.  0.
         25    1    1    2    0    0  0.66982355940E+02 -0.30594837650E+01 -0.47678726325E+03  0.49744054001E+03  0.12500000000E+03 0.  0.
</event>
<event>
 5    0  0.5728184E-005  0.2602012E+03  0.7546771E-02  0.1107022E+00
         21   -1    0    0  502  501  0.00000000000E+00  0.00000000000E+00  0.17765264478E+04  0.17765264478E+04  0.00000000000E+00 0.  1.
         21   -1    0    0  501  502 -0.00000000000E+00 -0.00000000000E+00 -0.38110689807E+02  0.38110689807E+02  0.00000000000E+00 0.  1.
         25    1    1    2    0    0  0.36464913524E+02 -0.62083390233E+01  0.20938881813E+03  0.24665139478E+03  0.12500000000E+03 0.  0.
         25    1    1    2    0    0 -0.52340524061E+02  0.63127521175E+02  0.34612418755E+03  0.37702992931E+03  0.12500000000E+03 0.  0.
         25    1    1    2    0    0  0.15875610536E+02 -0.56919182152E+02  0.11829027523E+04  0.11909558135E+04  0.12500000000E+03 0.  0.
</event>
<event>
 5    0  0.5728184E-005  0.2354567E+03  0.7546771E-02  0.1122857E+00
         21   -1    0    0  502  501  0.00000000000E+00  0.00000000000E+00  0.16959674600E+04  0.16959674600E+04  0.00000000000E+00 0.  1.
         21   -1    0    0  501  502 -0.00000000000E+00 -0.00000000000E+00 -0.32689209894E+02  0.32689209894E+02  0.00000000000E+00 0.  1.
         25    1    1    2    0    0  0.22683656903E+02  0.54054474483E+02  0.47748373754E+03  0.49704341271E+03  0.12500000000E+03 0.  0.
         25    1    1    2    0    0 -0.83168710745E+02 -0.61955240872E+02  0.37047404944E+03  0.40451391525E+03  0.12500000000E+03 0.  0.
         25    1    1    2    0    0  0.60485053842E+02  0.79007663886E+01  0.81532046315E+03  0.82709934196E+03  0.12500000000E+03 0.  0.
</event>
<event>
 5    0  0.5728184E-005  0.3779417E+03  0.7546771E-02  0.1051697E+00
         21   -1    0    0  502  501  0.00000000000E+00  0.00000000000E+00  0.33197663209E+03  0.33197663209E+03  0.00000000000E+00 0. -1.
         21   -1    0    0  501  502 -0.00000000000E+00 -0.00000000000E+00 -0.43027101796E+03  0.43027101796E+03  0.00000000000E+00 0. -1.
         25    1    1    2    0    0  0.66547413993E+02  0.26467115892E+03  0.10721064585E+03  0.31874520115E+03  0.12500000000E+03 0.  0.
         25    1    1    2    0    0 -0.97835450921E+01 -0.11303146576E+03 -0.16283557505E+03  0.23454691323E+03  0.12500000000E+03 0.  0.
         25    1    1    2    0    0 -0.56763868900E+02 -0.15163969316E+03 -0.42669456668E+02  0.20895553567E+03  0.12500000000E+03 0.  0.
</event>
<event>
 5    0  0.5728184E-005  0.3445650E+03  0.7546771E-02  0.1064868E+00
         21   -1    0    0  502  501  0.00000000000E+00  0.00000000000E+00  0.32896824082E+03  0.32896824082E+03  0.00000000000E+00 0. -1.
         21   -1    0    0  501  502 -0.00000000000E+00 -0.00000000000E+00 -0.36090129544E+03  0.36090129544E+03  0.00000000000E+00 0. -1.
         25    1    1    2    0    0  0.19302855202E+03 -0.17414555951E+02 -0.38323253266E+02  0.23378828113E+03  0.12500000000E+03 0.  0.
         25    1    1    2    0    0 -0.20771192367E+03  0.63170635713E+02 -0.11470586255E+03  0.27553077388E+03  0.12500000000E+03 0.  0.
         25    1    1    2    0    0  0.14683371653E+02 -0.45756079762E+02  0.12109606121E+03  0.18055048125E+03  0.12500000000E+03 0.  0.
</event>
<event>
 5    0  0.5728184E-005  0.2619841E+03  0.7546771E-02  0.1105957E+00
         21   -1    0    0  502  501  0.00000000000E+00  0.00000000000E+00  0.57270369983E+03  0.57270369983E+03  0.00000000000E+00 0. -1.
         21   -1    0    0  501  502 -0.00000000000E+00 -0.00000000000E+00 -0.11984495187E+03  0.11984495187E+03  0.00000000000E+00 0.  1.
         25    1    1    2    0    0  0.77080836139E+01  0.89434966038E+01  0.83068567876E+02  0.15054829010E+03  0.12500000000E+03 0.  0.
         25    1    1    2    0    0 -0.40511395421E+02  0.12377139857E+03  0.78603386492E+02  0.19688581623E+03  0.12500000000E+03 0.  0.
         25    1    1    2    0    0  0.32803311807E+02 -0.13271489518E+03  0.29118679359E+03  0.34511454538E+03  0.12500000000E+03 0.  0.
</event>
<event>
 5    0  0.5728184E-005  0.3414638E+03  0.7546771E-02  0.1066174E+00
         21   -1    0    0  502  501  0.00000000000E+00  0.00000000000E+00  0.55473655817E+03  0.55473655817E+03  0.00000000000E+00 0.  1.
         21   -1    0    0  501  502 -0.00000000000E+00 -0.00000000000E+00 -0.21018538311E+03  0.21018538311E+03  0.00000000000E+00 0.  1.
         25    1    1    2    0    0 -0.10992665680E+03  0.11974109993E+03  0.30945807115E+03  0.37122917274E+03  0.12500000000E+03 0.  0.
         25    1    1    2    0    0 -0.72820021231E+02 -0.12261908434E+02  0.69631255108E+00  0.14518469183E+03  0.12500000000E+03 0.  0.
         25    1    1    2    0    0  0.18274667803E+03 -0.10747919149E+03  0.34396791352E+02  0.24850807671E+03  0.12500000000E+03 0.  0.
</event>
<event>
 5    0  0.5728184E-005  0.4287874E+03  0.7546771E-02  0.1034244E+00
         21   -1    0    0  502  501  0.00000000000E+00  0.00000000000E+00  0.15273587631E+04  0.15273587631E+04  0.00000000000E+00 0.  1.
         21   -1    0    0  501  502 -0.00000000000E+00 -0.00000000000E+00 -0.12037684613E+03  0.12037684613E+03  0.00000000000E+00 0.  1.
         25    1    1    2    0    0  0.15621857348E+03  0.64507840018E+02  0.82441830531E+03  0.85079730034E+03  0.12500000000E+03 0.  0.
         25    1    1    2    0    0  0.51956292322E+02  0.19256969224E+02 -0.23457854634E+02  0.13872836091E+03  0.12500000000E+03 0.  0.
         25    1    1    2    0    0 -0.20817486581E+03 -0.83764809242E+02  0.60602146629E+03  0.65820994799E+03  0.12500000000E+03 0.  0.
</event>
<event>
 5    0  0.5728184E-005  0.3595600E+03  0.7546771E-02  0.1058758E+00
         21   -1    0    0  502  501  0.00000000000E+00  0.00000000000E+00  0.38267419268E+03  0.38267419268E+03  0.00000000000E+00 0.  1.
         21   -1    0    0  501  502 -0.00000000000E+00 -0.00000000000E+00 -0.33784186354E+03  0.33784186354E+03  0.00000000000E+00 0.  1.
         25    1    1    2    0    0  0.32746955885E+02 -0.13443765712E+03  0.11621329649E+03  0.21971885912E+03  0.12500000000E+03 0.  0.
         25    1    1    2    0    0  0.13457334746E+02 -0.13070102722E+03  0.36611107733E+02  0.18501143636E+03  0.12500000000E+03 0.  0.
         25    1    1    2    0    0 -0.46204290631E+02  0.26513868434E+03 -0.10799207508E+03  0.31578576074E+03  0.12500000000E+03 0.  0.
</event>
<event>
 5    0  0.5728184E-005  0.2764095E+03  0.7546771E-02  0.1097666E+00
         21   -1    0    0  502  501  0.00000000000E+00  0.00000000000E+00  0.23327937585E+03  0.23327937585E+03  0.00000000000E+00 0.  1.
         21   -1    0    0  501  502 -0.00000000000E+00 -0.00000000000E+00 -0.32751369710E+03  0.32751369710E+03  0.00000000000E+00 0.  1.
         25    1    1    2    0    0  0.46271032060E+02 -0.47592975503E+02 -0.16082397402E+02  0.14244206974E+03  0.12500000000E+03 0.  0.
         25    1    1    2    0    0  0.12979636385E+03  0.71231847903E+02 -0.36476630480E+02  0.19717154154E+03  0.12500000000E+03 0.  0.
         25    1    1    2    0    0 -0.17606739591E+03 -0.23638872400E+02 -0.41675293366E+02  0.22117946167E+03  0.12500000000E+03 0.  0.
</event>
<event>
 5    0  0.5728184E-005  0.2442659E+03  0.7546771E-02  0.1116983E+00
         21   -1    0    0  502  501  0.00000000000E+00  0.00000000000E+00  0.70387015197E+03  0.70387015197E+03  0.00000000000E+00 0. -1.
         21   -1    0    0  501  502 -0.00000000000E+00 -0.00000000000E+00 -0.84768229605E+02  0.84768229605E+02  0.00000000000E+00 0. -1.
         25    1    1    2    0    0 -0.38834584950E+01  0.47675490139E+02  0.21807845578E+02  0.13560463023E+03  0.12500000000E+03 0.  0.
         25    1    1    2    0    0  0.13322715763E+02  0.38644315923E+01  0.24125372390E+03  0.27206761638E+03  0.12500000000E+03 0.  0.
         25    1    1    2    0    0 -0.94392572679E+01 -0.51539921731E+02  0.35604035289E+03  0.38096613497E+03  0.12500000000E+03 0.  0.
</event>
<event>
 5    0  0.6485753E-005  0.5561434E+03  0.7546771E-02  0.1000082E+00
         21   -1    0    0  502  501  0.00000000000E+00  0.00000000000E+00  0.67704403420E+03  0.67704403420E+03  0.00000000000E+00 0.  1.
         21   -1    0    0  501  502 -0.00000000000E+00 -0.00000000000E+00 -0.45683219526E+03  0.45683219526E+03  0.00000000000E+00 0.  1.
         25    1    1    2    0    0 -0.58456976955E+02 -0.72181405504E+02 -0.21412375103E+03  0.26476660328E+03  0.12500000000E+03 0.  0.
         25    1    1    2    0    0  0.34996244457E+03  0.10919413820E+03  0.86393801076E+02  0.39684500916E+03  0.12500000000E+03 0.  0.
         25    1    1    2    0    0 -0.29150546762E+03 -0.37012732692E+02  0.34794178889E+03  0.47226461702E+03  0.12500000000E+03 0.  0.
</event>
<event>
 5    0  0.5728184E-005  0.2988652E+03  0.7546771E-02  0.1085809E+00
         21   -1    0    0  502  501  0.00000000000E+00  0.00000000000E+00  0.18264879189E+04  0.18264879189E+04  0.00000000000E+00 0.  1.
         21   -1    0    0  501  502 -0.00000000000E+00 -0.00000000000E+00 -0.48902830324E+02  0.48902830324E+02  0.00000000000E+00 0.  1.
         25    1    1    2    0    0  0.69708706114E+02  0.14006835451E+03  0.81243028870E+03  0.83674752563E+03  0.12500000000E+03 0.  0.
         25    1    1    2    0    0 -0.23397694077E+02 -0.20008336600E+03  0.57172182723E+03  0.61892782550E+03  0.12500000000E+03 0.  0.
         25    1    1    2    0    0 -0.46311012037E+02  0.60015011492E+02  0.39343297263E+03  0.41971539809E+03  0.12500000000E+03 0.  0.
</event>
<event>
 5    0  0.5728184E-005  0.2538651E+03  0.7546771E-02  0.1110886E+00
         21   -1    0    0  502  501  0.00000000000E+00  0.00000000000E+00  0.59388403129E+03  0.59388403129E+03  0.00000000000E+00 0.  1.
         21   -1    0    0  501  502 -0.00000000000E+00 -0.00000000000E+00 -0.10851863122E+03  0.10851863122E+03  0.00000000000E+00 0.  1.
         25    1    1    2    0    0  0.49260585032E+02  0.12944637920E+03  0.12401533195E+03  0.22402627722E+03  0.12500000000E+03 0.  0.
         25    1    1    2    0    0 -0.63156385342E+02 -0.46364860271E+02  0.25254165413E+03  0.29247344554E+03  0.12500000000E+03 0.  0.
         25    1    1    2    0    0  0.13895800310E+02 -0.83081518928E+02  0.10880841399E+03  0.18590293975E+03  0.12500000000E+03 0.  0.
</event>
<event>
 5    0  0.5728184E-005  0.3759152E+03  0.7546771E-02  0.1052454E+00
         21   -1    0    0  502  501  0.00000000000E+00  0.00000000000E+00  0.15948710124E+03  0.15948710124E+03  0.00000000000E+00 0. -1.
         21   -1    0    0  501  502 -0.00000000000E+00 -0.00000000000E+00 -0.88604183948E+03  0.88604183948E+03  0.00000000000E+00 0. -1.
         25    1    1    2    0    0 -0.11029015334E+03  0.17656864325E+03 -0.36104861676E+03  0.43511091387E+03  0.12500000000E+03 0.  0.
         25    1    1    2    0    0  0.11556526234E+03 -0.23571842728E+03 -0.37166970680E+03  0.47189180727E+03  0.12500000000E+03 0.  0.
         25    1    1    2    0    0 -0.52751089923E+01  0.59149784026E+02  0.61635853196E+01  0.13852621957E+03  0.12500000000E+03 0.  0.
</event>
<event>
 5    0  0.5728184E-005  0.2580346E+03  0.7546771E-02  0.1108330E+00
         21   -1    0    0  502  501  0.00000000000E+00  0.00000000000E+00  0.15167095159E+03  0.15167095159E+03  0.00000000000E+00 0.  1.
         21   -1    0    0  501  502 -0.00000000000E+00 -0.00000000000E+00 -0.43898900418E+03  0.43898900418E+03  0.00000000000E+00 0.  1.
         25    1    1    2    0    0  0.65526482752E+02  0.12392475721E+03 -0.36893508012E+02  0.19140845416E+03  0.12500000000E+03 0.  0.
         25    1    1    2    0    0 -0.69344544123E+02 -0.57064208108E+02 -0.19149965056E+03  0.24568700782E+03  0.12500000000E+03 0.  0.
         25    1    1    2    0    0  0.38180613716E+01 -0.66860549102E+02 -0.58924894021E+02  0.15356449379E+03  0.12500000000E+03 0.  0.
</event>
<event>
 5    0  0.5728184E-005  0.2321803E+03  0.7546771E-02  0.1125114E+00
         21   -1    0    0  502  501  0.00000000000E+00  0.00000000000E+00  0.21598130791E+02  0.21598130791E+02  0.00000000000E+00 0. -1.
         21   -1    0    0  501  502 -0.00000000000E+00 -0.00000000000E+00 -0.24959434033E+04  0.24959434033E+04  0.00000000000E+00 0. -1.
         25    1    1    2    0    0  0.72208443607E+02  0.96933871233E+01 -0.81131858083E+03  0.82411823222E+03  0.12500000000E+03 0.  0.
         25    1    1    2    0    0 -0.66095860874E+02 -0.91371268739E+02 -0.79555239772E+03  0.81317033215E+03  0.12500000000E+03 0.  0.
         25    1    1    2    0    0 -0.61125827332E+01  0.81677881616E+02 -0.86747429397E+03  0.88025296973E+03  0.12500000000E+03 0.  0.
</event>
<event>
 5    0  0.5728184E-005  0.2236454E+03  0.7546771E-02  0.1131194E+00
         21   -1    0    0  502  501  0.00000000000E+00  0.00000000000E+00  0.14427247839E+04  0.14427247839E+04  0.00000000000E+00 0. -1.
         21   -1    0    0  501  502 -0.00000000000E+00 -0.00000000000E+00 -0.34668602229E+02  0.34668602229E+02  0.00000000000E+00 0. -1.
         25    1    1    2    0    0 -0.12851968341E+02 -0.10217450465E+02  0.17134777121E+03  0.21273135191E+03  0.12500000000E+03 0.  0.
         25    1    1    2    0    0 -0.26835367690E+02 -0.21135061880E+02  0.60728104101E+03  0.62095256708E+03  0.12500000000E+03 0.  0.
         25    1    1    2    0    0  0.39687336031E+02  0.31352512344E+02  0.62942736947E+03  0.64370946716E+03  0.12500000000E+03 0.  0.
</event>
<event>
 5    0  0.5728184E-005  0.6461171E+03  0.7546771E-02  0.9814092E-01
         21   -1    0    0  502  501  0.00000000000E+00  0.00000000000E+00  0.99017417721E+03  0.99017417721E+03  0.00000000000E+00 0.  1.
         21   -1    0    0  501  502 -0.00000000000E+00 -0.00000000000E+00 -0.42161003221E+03  0.42161003221E+03  0.00000000000E+00 0.  1.
         25    1    1    2    0    0 -0.10357609603E+03 -0.26698989290E+03 -0.25915000499E+03  0.40594991768E+03  0.12500000000E+03 0.  0.
         25    1    1    2    0    0 -0.76859480753E+02  0.29169272891E+03  0.62906357470E+03  0.70875807501E+03  0.12500000000E+03 0.  0.
         25    1    1    2    0    0  0.18043557678E+03 -0.24702836007E+02  0.19865057531E+03  0.29707621673E+03  0.12500000000E+03 0.  0.
</event>
<event>
 5    0  0.5728184E-005  0.3313710E+03  0.7546771E-02  0.1070532E+00
         21   -1    0    0  502  501  0.00000000000E+00  0.00000000000E+00  0.24833279412E+03  0.24833279412E+03  0.00000000000E+00 0. -1.
         21   -1    0    0  501  502 -0.00000000000E+00 -0.00000000000E+00 -0.44217566906E+03  0.44217566906E+03  0.00000000000E+00 0. -1.
         25    1    1    2    0    0 -0.11087483268E+03  0.31307611508E+02 -0.11252546935E+03  0.20386362184E+03  0.12500000000E+03 0.  0.
         25    1    1    2    0    0  0.14641182297E+03  0.44851351584E+02  0.12299519507E+03  0.23281083234E+03  0.12500000000E+03 0.  0.
         25    1    1    2    0    0 -0.35536990291E+02 -0.76158963092E+02 -0.20431260066E+03  0.25383400900E+03  0.12500000000E+03 0.  0.
</event>
<event>
 5    0  0.5728184E-005  0.3029870E+03  0.7546771E-02  0.1083757E+00
         21   -1    0    0  502  501  0.00000000000E+00  0.00000000000E+00  0.12227656117E+04  0.12227656117E+04  0.00000000000E+00 0. -1.
         21   -1    0    0  501  502 -0.00000000000E+00 -0.00000000000E+00 -0.75076623829E+02  0.75076623829E+02  0.00000000000E+00 0. -1.
         25    1    1    2    0    0 -0.88907083517E+02  0.81068609347E+02  0.98033598350E+02  0.19927913922E+03  0.12500000000E+03 0.  0.
         25    1    1    2    0    0  0.15141874652E+02  0.32830918844E+02  0.56961206215E+03  0.58428592910E+03  0.12500000000E+03 0.  0.
         25    1    1    2    0    0  0.73765208865E+02 -0.11389952819E+03  0.48004332736E+03  0.51427716720E+03  0.12500000000E+03 0.  0.
</event>
<event>
 5    0  0.5728184E-005  0.4624806E+03  0.7546771E-02  0.1024064E+00
         21   -1    0    0  502  501  0.00000000000E+00  0.00000000000E+00  0.48191713181E+03  0.48191713181E+03  0.00000000000E+00 0.  1.
         21   -1    0    0  501  502 -0.00000000000E+00 -0.00000000000E+00 -0.44382805993E+03  0.44382805993E+03  0.00000000000E+00 0.  1.
         25    1    1    2    0    0  0.27985232744E+03  0.29874319691E+02 -0.27267370266E+03  0.41132195209E+03  0.12500000000E+03 0.  0.
         25    1    1    2    0    0 -0.57802280734E+02  0.18959319468E+02  0.53237258660E+02  0.14886156375E+03  0.12500000000E+03 0.  0.
         25    1    1    2    0    0 -0.22205004670E+03 -0.48833639159E+02  0.25752551588E+03  0.36556167590E+03  0.12500000000E+03 0.  0.
</event>
